Generated by CHARMM-GUI FF-Converter
44427
    1ASP      N    1   6.231   4.793   3.739
    1ASP    HT1    2   6.234   4.881   3.795
    1ASP    HT2    3   6.298   4.802   3.660
    1ASP    HT3    4   6.260   4.712   3.797
    1ASP     CA    5   6.099   4.767   3.682
    1ASP     HA    6   6.062   4.859   3.640
    1ASP     CB    7   6.109   4.662   3.571
    1ASP    HB1    8   6.009   4.643   3.526
    1ASP    HB2    9   6.147   4.564   3.610
    1ASP     CG   10   6.199   4.705   3.456
    1ASP    OD1   11   6.205   4.826   3.426
    1ASP    OD2   12   6.264   4.617   3.396
    1ASP      C   13   6.001   4.721   3.789
    1ASP      O   14   6.037   4.644   3.879
    2SER      N   15   5.893   4.762   3.820
    2SER     HN   16   5.854   4.829   3.758
    2SER     CA   17   5.790   4.731   3.920
    2SER     HA   18   5.839   4.719   4.015
    2SER     CB   19   5.688   4.844   3.929
    2SER    HB1   20   5.741   4.941   3.946
    2SER    HB2   21   5.620   4.828   4.015
    2SER     OG   22   5.611   4.853   3.810
    2SER    HG1   23   5.575   4.764   3.792
    2SER      C   24   5.719   4.600   3.886
    2SER      O   25   5.708   4.562   3.770
    3GLY      N   26   5.715   4.500   3.965
    3GLY     HN   27   5.754   4.518   4.055
    3GLY     CA   28   5.643   4.374   3.958
    3GLY    HA1   29   5.629   4.337   4.058
    3GLY    HA2   30   5.698   4.308   3.892
    3GLY      C   31   5.503   4.389   3.900
    3GLY      O   32   5.452   4.500   3.887
    4ASP      N   33   5.452   4.277   3.839
    4ASP     HN   34   5.504   4.193   3.829
    4ASP     CA   35   5.315   4.270   3.788
    4ASP     HA   36   5.307   4.344   3.709
    4ASP     CB   37   5.285   4.131   3.733
    4ASP    HB1   38   5.179   4.122   3.702
    4ASP    HB2   39   5.304   4.055   3.811
    4ASP     CG   40   5.368   4.096   3.610
    4ASP    OD1   41   5.411   4.188   3.538
    4ASP    OD2   42   5.390   3.976   3.586
    4ASP      C   43   5.214   4.307   3.897
    4ASP      O   44   5.237   4.280   4.015
    5SER      N   45   5.124   4.374   3.866
    5SER     HN   46   5.116   4.410   3.774
    5SER     CA   47   5.013   4.401   3.957
    5SER     HA   48   5.050   4.462   4.038
    5SER     CB   49   4.901   4.476   3.885
    5SER    HB1   50   4.819   4.503   3.955
    5SER    HB2   51   4.858   4.410   3.805
    5SER     OG   52   4.951   4.593   3.822
    5SER    HG1   53   4.965   4.659   3.891
    5SER      C   54   4.958   4.272   4.017
    5SER      O   55   4.969   4.165   3.956
    6GLY      N   56   4.938   4.272   4.151
    6GLY     HN   57   4.954   4.354   4.206
    6GLY     CA   58   4.873   4.160   4.215
    6GLY    HA1   59   4.855   4.186   4.318
    6GLY    HA2   60   4.940   4.076   4.203
    6GLY      C   61   4.739   4.125   4.152
    6GLY      O   62   4.694   4.193   4.060
    7PRO      N   63   4.674   4.014   4.201
    7PRO     CD   64   4.733   3.926   4.292
    7PRO    HD1   65   4.728   3.971   4.394
    7PRO    HD2   66   4.838   3.900   4.265
    7PRO     CA   67   4.539   3.979   4.157
    7PRO     HA   68   4.539   3.972   4.049
    7PRO     CB   69   4.513   3.846   4.228
    7PRO    HB1   70   4.472   3.770   4.157
    7PRO    HB2   71   4.442   3.858   4.314
    7PRO     CG   72   4.646   3.804   4.282
    7PRO    HG1   73   4.637   3.751   4.380
    7PRO    HG2   74   4.693   3.734   4.209
    7PRO      C   75   4.435   4.083   4.197
    7PRO      O   76   4.458   4.161   4.291
    8GLY      N   77   4.321   4.092   4.122
    8GLY     HN   78   4.307   4.035   4.041
    8GLY     CA   79   4.213   4.183   4.157
    8GLY    HA1   80   4.140   4.178   4.077
    8GLY    HA2   81   4.255   4.282   4.169
    8GLY      C   82   4.142   4.145   4.285
    8GLY      O   83   4.158   4.033   4.335
    9ASP      N   84   4.071   4.247   4.351
    9ASP     HN   85   4.075   4.342   4.321
    9ASP     CA   86   3.988   4.225   4.469
    9ASP     HA   87   4.056   4.189   4.544
    9ASP     CB   88   3.923   4.356   4.515
    9ASP    HB1   89   3.849   4.339   4.596
    9ASP    HB2   90   3.872   4.404   4.429
    9ASP     CG   91   4.024   4.455   4.571
    9ASP    OD1   92   4.137   4.414   4.605
    9ASP    OD2   93   3.990   4.575   4.581
    9ASP      C   94   3.879   4.121   4.440
    9ASP      O   95   3.834   4.107   4.327
   10PRO      N   96   3.828   4.051   4.533
   10PRO     CD   97   3.888   4.041   4.660
   10PRO    HD1   98   3.862   4.131   4.721
   10PRO    HD2   99   3.999   4.028   4.656
   10PRO     CA  100   3.709   3.968   4.513
   10PRO     HA  101   3.727   3.902   4.429
   10PRO     CB  102   3.694   3.895   4.646
   10PRO    HB1  103   3.672   3.787   4.631
   10PRO    HB2  104   3.613   3.939   4.708
   10PRO     CG  105   3.824   3.917   4.716
   10PRO    HG1  106   3.816   3.919   4.827
   10PRO    HG2  107   3.891   3.833   4.686
   10PRO      C  108   3.584   4.051   4.482
   10PRO      O  109   3.571   4.164   4.529
   11GLY      N  110   3.502   4.032   4.379
   11GLY     HN  111   3.527   3.955   4.321
   11GLY     CA  112   3.378   4.100   4.344
   11GLY    HA1  113   3.329   4.040   4.268
   11GLY    HA2  114   3.405   4.199   4.311
   11GLY      C  115   3.282   4.114   4.460
   11GLY      O  116   3.296   4.045   4.561
   12ASP      N  117   3.187   4.213   4.465
   12ASP     HN  118   3.188   4.284   4.395
   12ASP     CA  119   3.082   4.236   4.563
   12ASP     HA  120   3.131   4.248   4.657
   12ASP     CB  121   2.998   4.358   4.524
   12ASP    HB1  122   2.908   4.368   4.590
   12ASP    HB2  123   2.964   4.345   4.420
   12ASP     CG  124   3.075   4.488   4.534
   12ASP    OD1  125   3.175   4.495   4.608
   12ASP    OD2  126   3.034   4.586   4.468
   12ASP      C  127   2.993   4.113   4.579
   12ASP      O  128   2.964   4.044   4.481
   13SER      N  129   2.948   4.075   4.694
   13SER     HN  130   2.973   4.127   4.774
   13SER     CA  131   2.851   3.969   4.723
   13SER     HA  132   2.879   3.881   4.667
   13SER     CB  133   2.852   3.936   4.872
   13SER    HB1  134   2.954   3.905   4.902
   13SER    HB2  135   2.783   3.850   4.893
   13SER     OG  136   2.812   4.048   4.949
   13SER    HG1  137   2.726   4.076   4.911
   13SER      C  138   2.711   4.009   4.679
   13SER      O  139   2.670   4.124   4.699
   14GLY      N  140   2.651   3.971   4.577
   14GLY     HN  141   2.703   3.902   4.526
   14GLY     CA  142   2.519   3.989   4.520
   14GLY    HA1  143   2.488   3.896   4.475
   14GLY    HA2  144   2.524   4.072   4.451
   14GLY      C  145   2.413   4.021   4.624
   14GLY      O  146   2.427   3.984   4.740
   15SER      N  147   2.368   4.133   4.634
   15SER     HN  148   2.393   4.206   4.572
   15SER     CA  149   2.256   4.164   4.723
   15SER     HA  150   2.290   4.157   4.826
   15SER     CB  151   2.205   4.306   4.697
   15SER    HB1  152   2.268   4.376   4.758
   15SER    HB2  153   2.099   4.319   4.727
   15SER     OG  154   2.224   4.342   4.562
   15SER    HG1  155   2.171   4.278   4.512
   15SER      C  156   2.142   4.064   4.707
   15SER    OT1  157   2.157   3.971   4.623
   15SER    OT2  158   2.040   4.079   4.778
   16SOD    SOD  159   1.160   1.271   3.745
   17SOD    SOD  160   5.344   6.552   5.526
   18SOD    SOD  161   0.451   6.667   3.866
   19SOD    SOD  162   1.627   1.557   5.053
   20SOD    SOD  163   1.934   0.955   3.053
   21SOD    SOD  164   2.894   0.077   4.152
   22SOD    SOD  165   5.458   3.048   3.821
   23SOD    SOD  166   4.476   5.772   7.895
   24SOD    SOD  167   2.392   6.377   0.527
   25SOD    SOD  168   4.923   2.351   2.025
   26SOD    SOD  169   2.751   3.181   1.687
   27SOD    SOD  170   5.366   7.143   5.407
   28SOD    SOD  171   3.488   8.602   4.993
   29SOD    SOD  172   1.961   3.118   3.001
   30SOD    SOD  173   0.914   6.093   5.164
   31SOD    SOD  174   5.048   7.140   2.871
   32SOD    SOD  175   7.477   2.919   6.024
   33SOD    SOD  176   6.311   1.370   4.817
   34SOD    SOD  177   8.206   3.784   3.095
   35SOD    SOD  178   4.476   1.731   2.744
   36SOD    SOD  179   4.033   6.785   4.538
   37SOD    SOD  180   1.485   1.617   6.704
   38SOD    SOD  181   2.988   3.707   7.839
   39SOD    SOD  182   5.976   7.006   3.914
   40SOD    SOD  183   5.151   0.986   6.510
   41SOD    SOD  184   6.701   5.024   3.609
   42SOD    SOD  185   4.817   2.750   5.200
   43SOD    SOD  186   2.940   3.945   3.991
   44SOD    SOD  187   7.721   2.838   3.250
   45SOD    SOD  188   4.182   4.489   7.483
   46SOD    SOD  189   3.586   2.670   4.851
   47SOD    SOD  190   3.230   5.256   8.192
   48SOD    SOD  191   3.018   2.070   3.247
   49SOD    SOD  192   6.450   6.525   5.305
   50SOD    SOD  193   4.765   3.811   8.250
   51SOD    SOD  194   1.497   4.919   4.900
   52SOD    SOD  195   3.818   1.790   4.321
   53SOD    SOD  196   4.177   7.105   7.955
   54SOD    SOD  197   5.627   2.380   4.969
   55SOD    SOD  198   4.392   2.665   1.344
   56SOD    SOD  199   0.049   5.218   2.497
   57SOD    SOD  200   8.164   6.100   5.426
   58SOD    SOD  201   1.608   3.643   1.314
   59SOD    SOD  202   7.932   4.656   1.656
   60SOD    SOD  203   2.171   7.843   2.291
   61SOD    SOD  204   6.956   1.281   5.375
   62CLA    CLA  205   1.010   2.434   3.021
   63CLA    CLA  206   8.459   4.903   2.661
   64CLA    CLA  207   3.948   8.690   5.988
   65CLA    CLA  208  -0.490   3.260   3.017
   66CLA    CLA  209   4.270   6.640   7.811
   67CLA    CLA  210   5.053   8.406   5.374
   68CLA    CLA  211   5.404   2.869   4.811
   69CLA    CLA  212   3.734   3.896   8.060
   70CLA    CLA  213   6.698   5.985   5.414
   71CLA    CLA  214   6.149   2.546   0.635
   72CLA    CLA  215   5.677   6.710   4.664
   73CLA    CLA  216   3.665   1.932   5.179
   74CLA    CLA  217   3.295   0.904   5.742
   75CLA    CLA  218   2.026   1.927   6.535
   76CLA    CLA  219   2.623   5.558   0.867
   77CLA    CLA  220   4.290   4.125   1.660
   78CLA    CLA  221   3.930   2.432   2.959
   79CLA    CLA  222   4.857   2.009   2.290
   80CLA    CLA  223   4.755   0.161   4.140
   81CLA    CLA  224   5.458   7.040   5.613
   82CLA    CLA  225   5.041   5.514   4.955
   83CLA    CLA  226   2.731   3.715   1.268
   84CLA    CLA  227   6.576   2.269   7.022
   85CLA    CLA  228   0.219   4.889   2.728
   86CLA    CLA  229   2.509   6.028   7.994
   87CLA    CLA  230   5.206   6.975   2.772
   88CLA    CLA  231   3.008  -0.072   4.817
   89CLA    CLA  232   5.197   0.675   6.578
   90CLA    CLA  233   4.557   3.034   4.540
   91CLA    CLA  234   1.565   6.780   7.486
   92CLA    CLA  235   3.001   1.848   4.085
   93CLA    CLA  236   3.132   3.704   3.577
   94CLA    CLA  237   4.652   1.014   2.629
   95CLA    CLA  238   1.374   2.011   5.184
   96CLA    CLA  239   4.450   3.283   6.540
   97CLA    CLA  240   0.067   5.154   4.300
   98CLA    CLA  241   3.040   2.182   2.303
   99CLA    CLA  242   5.272   6.025   3.340
  100CLA    CLA  243   4.559   2.557   1.189
  101CLA    CLA  244   5.776   2.218  -0.150
  102CLA    CLA  245   3.653   0.520   1.434
  103CLA    CLA  246   3.327  -0.023   4.129
  104TIP3   OH2  247   3.280   0.367   2.242
  104TIP3    H1  248   3.275   0.271   2.251
  104TIP3    H2  249   3.196   0.394   2.286
  105TIP3   OH2  250   2.967   0.713   2.338
  105TIP3    H1  251   2.962   0.746   2.246
  105TIP3    H2  252   3.046   0.761   2.369
  106TIP3   OH2  253   3.277   0.055   2.261
  106TIP3    H1  254   3.182   0.074   2.251
  106TIP3    H2  255   3.299   0.030   2.170
  107TIP3   OH2  256   2.731   0.271   2.509
  107TIP3    H1  257   2.713   0.212   2.585
  107TIP3    H2  258   2.797   0.331   2.547
  108TIP3   OH2  259   3.079   0.502   2.028
  108TIP3    H1  260   3.066   0.432   1.961
  108TIP3    H2  261   3.166   0.476   2.063
  109TIP3   OH2  262   3.149   0.170   2.574
  109TIP3    H1  263   3.077   0.178   2.640
  109TIP3    H2  264   3.190   0.258   2.579
  110TIP3   OH2  265   3.189  -0.163   2.414
  110TIP3    H1  266   3.256  -0.234   2.405
  110TIP3    H2  267   3.219  -0.097   2.349
  111TIP3   OH2  268   3.365  -0.363   2.426
  111TIP3    H1  269   3.328  -0.445   2.465
  111TIP3    H2  270   3.461  -0.378   2.438
  112TIP3   OH2  271   2.567   0.643   2.279
  112TIP3    H1  272   2.591   0.549   2.277
  112TIP3    H2  273   2.616   0.676   2.357
  113TIP3   OH2  274   3.033   0.446   2.344
  113TIP3    H1  275   2.957   0.409   2.298
  113TIP3    H2  276   3.015   0.542   2.338
  114TIP3   OH2  277   4.227  -0.185   1.489
  114TIP3    H1  278   4.279  -0.201   1.570
  114TIP3    H2  279   4.216  -0.275   1.454
  115TIP3   OH2  280   4.500   0.118   1.176
  115TIP3    H1  281   4.550   0.060   1.235
  115TIP3    H2  282   4.546   0.202   1.191
  116TIP3   OH2  283   4.174   0.585   1.173
  116TIP3    H1  284   4.234   0.517   1.136
  116TIP3    H2  285   4.171   0.561   1.267
  117TIP3   OH2  286   4.094   0.051   1.542
  117TIP3    H1  287   4.130  -0.033   1.505
  117TIP3    H2  288   4.180   0.096   1.559
  118TIP3   OH2  289   3.943  -0.028   1.758
  118TIP3    H1  290   3.881   0.034   1.802
  118TIP3    H2  291   3.996   0.032   1.702
  119TIP3   OH2  292   3.763   0.158   1.849
  119TIP3    H1  293   3.750   0.248   1.813
  119TIP3    H2  294   3.689   0.157   1.913
  120TIP3   OH2  295   4.614   0.366   1.338
  120TIP3    H1  296   4.522   0.354   1.373
  120TIP3    H2  297   4.603   0.449   1.288
  121TIP3   OH2  298   4.325   0.406   1.039
  121TIP3    H1  299   4.371   0.326   1.010
  121TIP3    H2  300   4.354   0.468   0.966
  122TIP3   OH2  301   4.832   0.307   1.703
  122TIP3    H1  302   4.829   0.228   1.645
  122TIP3    H2  303   4.814   0.379   1.638
  123TIP3   OH2  304   4.720  -0.213   1.840
  123TIP3    H1  305   4.704  -0.126   1.882
  123TIP3    H2  306   4.664  -0.207   1.761
  124TIP3   OH2  307   3.890   0.184   1.413
  124TIP3    H1  308   3.830   0.116   1.446
  124TIP3    H2  309   3.971   0.164   1.464
  125TIP3   OH2  310   4.367   0.361   1.451
  125TIP3    H1  311   4.353   0.443   1.500
  125TIP3    H2  312   4.347   0.291   1.515
  126TIP3   OH2  313   3.977   0.274   2.000
  126TIP3    H1  314   3.921   0.341   2.045
  126TIP3    H2  315   3.909   0.228   1.947
  127TIP3   OH2  316   3.722  -0.155   2.088
  127TIP3    H1  317   3.736  -0.076   2.145
  127TIP3    H2  318   3.626  -0.157   2.084
  128TIP3   OH2  319   4.080   0.251   1.091
  128TIP3    H1  320   4.161   0.305   1.096
  128TIP3    H2  321   4.014   0.305   1.135
  129TIP3   OH2  322   3.777   0.448   2.085
  129TIP3    H1  323   3.745   0.453   1.993
  129TIP3    H2  324   3.695   0.426   2.135
  130TIP3   OH2  325   5.068   0.623   1.717
  130TIP3    H1  326   5.070   0.528   1.735
  130TIP3    H2  327   4.987   0.649   1.767
  131TIP3   OH2  328   4.188   0.407   1.866
  131TIP3    H1  329   4.182   0.501   1.894
  131TIP3    H2  330   4.107   0.371   1.908
  132TIP3   OH2  331   4.236   0.461   0.784
  132TIP3    H1  332   4.147   0.413   0.769
  132TIP3    H2  333   4.250   0.516   0.691
  133TIP3   OH2  334   4.962  -0.257   1.990
  133TIP3    H1  335   4.880  -0.231   1.943
  133TIP3    H2  336   4.968  -0.351   1.968
  134TIP3   OH2  337   3.566   0.179   2.037
  134TIP3    H1  338   3.611   0.143   2.116
  134TIP3    H2  339   3.504   0.110   2.010
  135TIP3   OH2  340   4.703  -0.475   1.932
  135TIP3    H1  341   4.710  -0.440   2.022
  135TIP3    H2  342   4.707  -0.393   1.879
  136TIP3   OH2  343   4.444  -0.222   2.140
  136TIP3    H1  344   4.423  -0.306   2.187
  136TIP3    H2  345   4.540  -0.215   2.162
  137TIP3   OH2  346   4.402  -0.251   1.709
  137TIP3    H1  347   4.477  -0.299   1.668
  137TIP3    H2  348   4.397  -0.295   1.795
  138TIP3   OH2  349   4.761   0.974   1.821
  138TIP3    H1  350   4.760   0.998   1.726
  138TIP3    H2  351   4.839   1.022   1.853
  139TIP3   OH2  352   3.720   0.073   2.248
  139TIP3    H1  353   3.801   0.109   2.289
  139TIP3    H2  354   3.656   0.085   2.321
  140TIP3   OH2  355   4.145  -0.585   1.855
  140TIP3    H1  356   4.096  -0.553   1.778
  140TIP3    H2  357   4.218  -0.522   1.861
  141TIP3   OH2  358   4.808   0.099   1.538
  141TIP3    H1  359   4.849   0.145   1.461
  141TIP3    H2  360   4.715   0.089   1.509
  142TIP3   OH2  361   4.291   0.144   1.879
  142TIP3    H1  362   4.319   0.125   1.969
  142TIP3    H2  363   4.260   0.237   1.886
  143TIP3   OH2  364   4.193  -0.122   2.194
  143TIP3    H1  365   4.142  -0.164   2.123
  143TIP3    H2  366   4.285  -0.145   2.166
  144TIP3   OH2  367   4.456   0.394   1.779
  144TIP3    H1  368   4.360   0.399   1.793
  144TIP3    H2  369   4.487   0.451   1.853
  145TIP3   OH2  370   5.089   0.336   1.774
  145TIP3    H1  371   4.990   0.334   1.765
  145TIP3    H2  372   5.115   0.307   1.684
  146TIP3   OH2  373   4.575  -0.008   1.458
  146TIP3    H1  374   4.495  -0.054   1.487
  146TIP3    H2  375   4.631  -0.082   1.429
  147TIP3   OH2  376   3.966   0.488   1.687
  147TIP3    H1  377   3.966   0.535   1.602
  147TIP3    H2  378   4.060   0.477   1.705
  148TIP3   OH2  379   4.346   0.126   1.613
  148TIP3    H1  380   4.332   0.124   1.710
  148TIP3    H2  381   4.442   0.114   1.607
  149TIP3   OH2  382   4.593   0.663   1.660
  149TIP3    H1  383   4.512   0.609   1.648
  149TIP3    H2  384   4.581   0.729   1.589
  150TIP3   OH2  385   3.421   0.375   1.810
  150TIP3    H1  386   3.478   0.297   1.822
  150TIP3    H2  387   3.456   0.435   1.876
  151TIP3   OH2  388   4.376  -0.415   1.930
  151TIP3    H1  389   4.356  -0.348   1.998
  151TIP3    H2  390   4.430  -0.476   1.983
  152TIP3   OH2  391   4.614   0.636   1.254
  152TIP3    H1  392   4.573   0.684   1.178
  152TIP3    H2  393   4.709   0.655   1.235
  153TIP3   OH2  394   3.387   0.665   2.237
  153TIP3    H1  395   3.474   0.667   2.282
  153TIP3    H2  396   3.371   0.570   2.231
  154TIP3   OH2  397   3.864   0.629   2.281
  154TIP3    H1  398   3.960   0.620   2.286
  154TIP3    H2  399   3.844   0.571   2.205
  155TIP3   OH2  400   4.510   0.535   2.009
  155TIP3    H1  401   4.500   0.467   2.080
  155TIP3    H2  402   4.586   0.587   2.041
  156TIP3   OH2  403   3.512   0.068   2.432
  156TIP3    H1  404   3.531  -0.027   2.437
  156TIP3    H2  405   3.426   0.069   2.387
  157TIP3   OH2  406   4.123   0.156   2.208
  157TIP3    H1  407   4.084   0.176   2.121
  157TIP3    H2  408   4.154   0.064   2.197
  158TIP3   OH2  409   4.615   0.165   1.806
  158TIP3    H1  410   4.691   0.218   1.775
  158TIP3    H2  411   4.545   0.233   1.801
  159TIP3   OH2  412   3.632  -0.207   2.425
  159TIP3    H1  413   3.716  -0.236   2.387
  159TIP3    H2  414   3.662  -0.164   2.507
  160TIP3   OH2  415   3.959  -0.290   2.065
  160TIP3    H1  416   3.877  -0.237   2.062
  160TIP3    H2  417   4.010  -0.255   1.988
  161TIP3   OH2  418   4.488   0.094   2.212
  161TIP3    H1  419   4.567   0.071   2.160
  161TIP3    H2  420   4.485   0.022   2.277
  162TIP3   OH2  421   4.061  -0.492   2.200
  162TIP3    H1  422   4.005  -0.542   2.139
  162TIP3    H2  423   4.041  -0.403   2.163
  163TIP3   OH2  424   4.134  -0.183   1.890
  163TIP3    H1  425   4.202  -0.199   1.823
  163TIP3    H2  426   4.073  -0.123   1.843
  164TIP3   OH2  427   4.698  -0.226   2.242
  164TIP3    H1  428   4.734  -0.284   2.313
  164TIP3    H2  429   4.774  -0.171   2.219
  165TIP3   OH2  430   4.750   0.029   1.998
  165TIP3    H1  431   4.692   0.080   1.937
  165TIP3    H2  432   4.838   0.046   1.958
  166TIP3   OH2  433   3.940  -0.377   2.430
  166TIP3    H1  434   3.899  -0.461   2.453
  166TIP3    H2  435   4.005  -0.405   2.364
  167TIP3   OH2  436   4.343  -0.453   2.231
  167TIP3    H1  437   4.373  -0.479   2.321
  167TIP3    H2  438   4.247  -0.460   2.241
  168TIP3   OH2  439   4.867   0.728   1.214
  168TIP3    H1  440   4.896   0.766   1.299
  168TIP3    H2  441   4.932   0.766   1.153
  169TIP3   OH2  442   4.900   0.751   1.497
  169TIP3    H1  443   4.857   0.664   1.488
  169TIP3    H2  444   4.974   0.726   1.555
  170TIP3   OH2  445   4.945   0.421   2.068
  170TIP3    H1  446   4.870   0.434   2.131
  170TIP3    H2  447   4.985   0.511   2.068
  171TIP3   OH2  448   4.949   0.205   1.337
  171TIP3    H1  449   5.012   0.168   1.270
  171TIP3    H2  450   4.946   0.298   1.302
  172TIP3   OH2  451   4.774   0.502   1.518
  172TIP3    H1  452   4.701   0.547   1.565
  172TIP3    H2  453   4.726   0.453   1.448
  173TIP3   OH2  454   4.998   0.080   1.889
  173TIP3    H1  455   5.075   0.020   1.881
  173TIP3    H2  456   5.024   0.153   1.830
  174TIP3   OH2  457   5.192  -0.118   1.937
  174TIP3    H1  458   5.114  -0.173   1.959
  174TIP3    H2  459   5.262  -0.183   1.928
  175TIP3   OH2  460   3.556  -0.585   2.482
  175TIP3    H1  461   3.630  -0.584   2.420
  175TIP3    H2  462   3.595  -0.626   2.561
  176TIP3   OH2  463   4.466   0.593   0.873
  176TIP3    H1  464   4.528   0.570   0.804
  176TIP3    H2  465   4.514   0.656   0.926
  177TIP3   OH2  466   3.557   0.400   2.257
  177TIP3    H1  467   3.466   0.373   2.236
  177TIP3    H2  468   3.561   0.389   2.352
  178TIP3   OH2  469   3.730   0.425   1.805
  178TIP3    H1  470   3.676   0.486   1.753
  178TIP3    H2  471   3.818   0.448   1.766
  179TIP3   OH2  472   4.177   0.675   1.938
  179TIP3    H1  473   4.219   0.678   2.027
  179TIP3    H2  474   4.242   0.727   1.885
  180TIP3   OH2  475   4.356   0.827   1.797
  180TIP3    H1  476   4.428   0.777   1.756
  180TIP3    H2  477   4.407   0.884   1.859
  181TIP3   OH2  478   3.413   0.691   1.826
  181TIP3    H1  479   3.321   0.712   1.802
  181TIP3    H2  480   3.417   0.730   1.914
  182TIP3   OH2  481   3.653   0.690   1.690
  182TIP3    H1  482   3.561   0.694   1.722
  182TIP3    H2  483   3.645   0.639   1.606
  183TIP3   OH2  484   4.079   0.701   1.464
  183TIP3    H1  485   4.000   0.717   1.411
  183TIP3    H2  486   4.085   0.784   1.515
  184TIP3   OH2  487   4.340   0.632   1.531
  184TIP3    H1  488   4.246   0.651   1.510
  184TIP3    H2  489   4.384   0.708   1.490
  185TIP3   OH2  490   4.548   0.827   1.446
  185TIP3    H1  491   4.532   0.911   1.399
  185TIP3    H2  492   4.573   0.767   1.372
  186TIP3   OH2  493   3.328   0.495   1.579
  186TIP3    H1  494   3.365   0.460   1.663
  186TIP3    H2  495   3.362   0.432   1.514
  187TIP3   OH2  496   4.824   0.705   1.823
  187TIP3    H1  497   4.745   0.673   1.774
  187TIP3    H2  498   4.805   0.801   1.826
  188TIP3   OH2  499   5.553   0.417   1.323
  188TIP3    H1  500   5.535   0.512   1.305
  188TIP3    H2  501   5.483   0.399   1.389
  189TIP3   OH2  502   5.757   0.535   1.490
  189TIP3    H1  503   5.694   0.602   1.523
  189TIP3    H2  504   5.696   0.471   1.448
  190TIP3   OH2  505   5.560   0.717   1.574
  190TIP3    H1  506   5.526   0.712   1.482
  190TIP3    H2  507   5.481   0.690   1.627
  191TIP3   OH2  508   5.151   0.247   1.527
  191TIP3    H1  509   5.084   0.223   1.459
  191TIP3    H2  510   5.179   0.159   1.561
  192TIP3   OH2  511   5.010   0.433   1.212
  192TIP3    H1  512   5.049   0.415   1.126
  192TIP3    H2  513   4.980   0.524   1.209
  193TIP3   OH2  514   5.934   0.720   1.303
  193TIP3    H1  515   5.962   0.804   1.344
  193TIP3    H2  516   5.938   0.663   1.381
  194TIP3   OH2  517   5.356   0.425   1.509
  194TIP3    H1  518   5.410   0.406   1.589
  194TIP3    H2  519   5.284   0.358   1.518
  195TIP3   OH2  520   6.541   1.239   1.326
  195TIP3    H1  521   6.523   1.248   1.231
  195TIP3    H2  522   6.630   1.278   1.333
  196TIP3   OH2  523   5.501   0.367   1.733
  196TIP3    H1  524   5.590   0.374   1.772
  196TIP3    H2  525   5.446   0.354   1.812
  197TIP3   OH2  526   5.224   0.036   1.681
  197TIP3    H1  527   5.295   0.043   1.747
  197TIP3    H2  528   5.215  -0.059   1.669
  198TIP3   OH2  529   5.727   0.789   1.148
  198TIP3    H1  530   5.763   0.849   1.079
  198TIP3    H2  531   5.805   0.778   1.206
  199TIP3   OH2  532   5.216   0.626   1.301
  199TIP3    H1  533   5.228   0.540   1.344
  199TIP3    H2  534   5.240   0.686   1.373
  200TIP3   OH2  535   5.182   0.922   1.720
  200TIP3    H1  536   5.269   0.921   1.766
  200TIP3    H2  537   5.162   0.827   1.718
  201TIP3   OH2  538   5.667   0.885   1.769
  201TIP3    H1  539   5.762   0.868   1.764
  201TIP3    H2  540   5.635   0.831   1.693
  202TIP3   OH2  541   6.267   0.819   1.511
  202TIP3    H1  542   6.268   0.733   1.559
  202TIP3    H2  543   6.356   0.852   1.527
  203TIP3   OH2  544   5.310   0.336   1.932
  203TIP3    H1  545   5.333   0.241   1.921
  203TIP3    H2  546   5.224   0.339   1.883
  204TIP3   OH2  547   5.921   0.414   1.712
  204TIP3    H1  548   5.906   0.458   1.626
  204TIP3    H2  549   5.902   0.322   1.686
  205TIP3   OH2  550   5.413   0.087   1.910
  205TIP3    H1  551   5.425  -0.010   1.907
  205TIP3    H2  552   5.454   0.111   1.995
  206TIP3   OH2  553   4.750   0.714   0.774
  206TIP3    H1  554   4.741   0.655   0.699
  206TIP3    H2  555   4.806   0.661   0.835
  207TIP3   OH2  556   4.909   0.562   0.928
  207TIP3    H1  557   4.882   0.468   0.941
  207TIP3    H2  558   4.956   0.582   1.009
  208TIP3   OH2  559   5.346   0.664   1.743
  208TIP3    H1  560   5.259   0.627   1.720
  208TIP3    H2  561   5.355   0.636   1.835
  209TIP3   OH2  562   5.522   0.689   1.290
  209TIP3    H1  563   5.465   0.758   1.251
  209TIP3    H2  564   5.605   0.717   1.244
  210TIP3   OH2  565   5.970   0.953   1.441
  210TIP3    H1  566   6.015   0.944   1.527
  210TIP3    H2  567   6.035   1.005   1.389
  211TIP3   OH2  568   6.129   1.106   1.283
  211TIP3    H1  569   6.200   1.060   1.232
  211TIP3    H2  570   6.184   1.156   1.347
  212TIP3   OH2  571   5.202   0.949   1.311
  212TIP3    H1  572   5.112   0.980   1.289
  212TIP3    H2  573   5.211   0.981   1.401
  213TIP3   OH2  574   5.437   0.928   1.168
  213TIP3    H1  575   5.350   0.942   1.211
  213TIP3    H2  576   5.420   0.962   1.078
  214TIP3   OH2  577   5.837   0.950   0.954
  214TIP3    H1  578   5.778   1.003   0.899
  214TIP3    H2  579   5.878   1.018   1.010
  215TIP3   OH2  580   5.109   0.740   1.076
  215TIP3    H1  581   5.155   0.712   1.158
  215TIP3    H2  582   5.170   0.709   1.007
  216TIP3   OH2  583   0.822   2.246   2.478
  216TIP3    H1  584   0.782   2.295   2.405
  216TIP3    H2  585   0.883   2.312   2.516
  217TIP3   OH2  586   1.023   1.724   2.764
  217TIP3    H1  587   0.967   1.731   2.844
  217TIP3    H2  588   1.061   1.815   2.762
  218TIP3   OH2  589   2.319   1.682   1.379
  218TIP3    H1  590   2.346   1.651   1.466
  218TIP3    H2  591   2.360   1.770   1.377
  219TIP3   OH2  592   2.024   2.111   1.323
  219TIP3    H1  593   2.094   2.056   1.284
  219TIP3    H2  594   2.043   2.107   1.417
  220TIP3   OH2  595   2.983   0.945   1.723
  220TIP3    H1  596   2.993   1.033   1.764
  220TIP3    H2  597   3.008   0.963   1.631
  221TIP3   OH2  598   3.032   1.169   1.867
  221TIP3    H1  599   2.945   1.212   1.849
  221TIP3    H2  600   3.048   1.196   1.958
  222TIP3   OH2  601   2.440   1.926   1.486
  222TIP3    H1  602   2.348   1.920   1.521
  222TIP3    H2  603   2.438   2.014   1.442
  223TIP3   OH2  604   2.667   1.844   1.832
  223TIP3    H1  605   2.671   1.766   1.772
  223TIP3    H2  606   2.657   1.918   1.768
  224TIP3   OH2  607   2.874   1.466   1.671
  224TIP3    H1  608   2.793   1.521   1.682
  224TIP3    H2  609   2.902   1.496   1.582
  225TIP3   OH2  610   2.562   1.358   1.975
  225TIP3    H1  611   2.560   1.443   2.023
  225TIP3    H2  612   2.473   1.359   1.934
  226TIP3   OH2  613   2.194   1.921   1.602
  226TIP3    H1  614   2.194   2.005   1.650
  226TIP3    H2  615   2.206   1.854   1.673
  227TIP3   OH2  616   1.809   1.832   2.151
  227TIP3    H1  617   1.771   1.903   2.206
  227TIP3    H2  618   1.728   1.799   2.111
  228TIP3   OH2  619   1.618   2.013   2.246
  228TIP3    H1  620   1.595   2.005   2.151
  228TIP3    H2  621   1.532   1.994   2.288
  229TIP3   OH2  622   2.907   2.179   1.864
  229TIP3    H1  623   2.914   2.086   1.890
  229TIP3    H2  624   2.829   2.206   1.918
  230TIP3   OH2  625   2.018   1.968   2.008
  230TIP3    H1  626   2.018   2.060   2.043
  230TIP3    H2  627   1.944   1.928   2.059
  231TIP3   OH2  628   2.799   1.308   2.148
  231TIP3    H1  629   2.725   1.324   2.088
  231TIP3    H2  630   2.813   1.212   2.136
  232TIP3   OH2  631   2.578   1.090   2.066
  232TIP3    H1  632   2.524   1.080   2.147
  232TIP3    H2  633   2.555   1.179   2.034
  233TIP3   OH2  634   2.281   1.317   2.312
  233TIP3    H1  635   2.269   1.239   2.369
  233TIP3    H2  636   2.377   1.333   2.325
  234TIP3   OH2  637   2.308   1.310   1.894
  234TIP3    H1  638   2.328   1.239   1.831
  234TIP3    H2  639   2.256   1.263   1.962
  235TIP3   OH2  640   2.600   2.534   1.970
  235TIP3    H1  641   2.604   2.555   1.875
  235TIP3    H2  642   2.683   2.576   2.002
  236TIP3   OH2  643   1.583   1.629   2.396
  236TIP3    H1  644   1.649   1.669   2.456
  236TIP3    H2  645   1.501   1.642   2.445
  237TIP3   OH2  646   2.659   1.631   1.668
  237TIP3    H1  647   2.674   1.675   1.581
  237TIP3    H2  648   2.566   1.602   1.661
  238TIP3   OH2  649   2.117   1.697   2.038
  238TIP3    H1  650   2.174   1.690   2.116
  238TIP3    H2  651   2.100   1.793   2.033
  239TIP3   OH2  652   2.031   1.427   2.346
  239TIP3    H1  653   1.988   1.399   2.265
  239TIP3    H2  654   2.125   1.404   2.327
  240TIP3   OH2  655   2.294   1.959   1.927
  240TIP3    H1  656   2.198   1.965   1.939
  240TIP3    H2  657   2.325   2.012   2.003
  241TIP3   OH2  658   2.919   1.885   1.917
  241TIP3    H1  659   2.821   1.886   1.908
  241TIP3    H2  660   2.946   1.859   1.827
  242TIP3   OH2  661   2.409   1.530   1.644
  242TIP3    H1  662   2.321   1.502   1.611
  242TIP3    H2  663   2.455   1.443   1.639
  243TIP3   OH2  664   1.824   2.054   1.799
  243TIP3    H1  665   1.855   2.129   1.745
  243TIP3    H2  666   1.901   2.035   1.853
  244TIP3   OH2  667   2.208   1.697   1.764
  244TIP3    H1  668   2.187   1.678   1.858
  244TIP3    H2  669   2.289   1.644   1.752
  245TIP3   OH2  670   2.433   2.223   1.812
  245TIP3    H1  671   2.355   2.166   1.800
  245TIP3    H2  672   2.422   2.287   1.739
  246TIP3   OH2  673   2.202   1.162   2.100
  246TIP3    H1  674   2.234   1.221   2.171
  246TIP3    H2  675   2.262   1.087   2.108
  247TIP3   OH2  676   2.842   1.039   2.058
  247TIP3    H1  677   2.743   1.040   2.065
  247TIP3    H2  678   2.853   1.029   1.963
  248TIP3   OH2  679   2.459   2.190   1.411
  248TIP3    H1  680   2.419   2.236   1.333
  248TIP3    H2  681   2.553   2.209   1.392
  249TIP3   OH2  682   1.233   2.238   2.377
  249TIP3    H1  683   1.317   2.236   2.428
  249TIP3    H2  684   1.210   2.144   2.376
  250TIP3   OH2  685   1.715   2.190   2.432
  250TIP3    H1  686   1.809   2.167   2.433
  250TIP3    H2  687   1.683   2.133   2.359
  251TIP3   OH2  688   2.345   2.096   2.163
  251TIP3    H1  689   2.341   2.025   2.231
  251TIP3    H2  690   2.427   2.144   2.188
  252TIP3   OH2  691   1.367   1.629   2.593
  252TIP3    H1  692   1.402   1.539   2.577
  252TIP3    H2  693   1.273   1.614   2.574
  253TIP3   OH2  694   1.964   1.715   2.357
  253TIP3    H1  695   1.924   1.732   2.270
  253TIP3    H2  696   2.000   1.625   2.347
  254TIP3   OH2  697   2.456   1.728   1.966
  254TIP3    H1  698   2.536   1.766   1.924
  254TIP3    H2  699   2.391   1.796   1.944
  255TIP3   OH2  700   1.480   1.366   2.582
  255TIP3    H1  701   1.552   1.317   2.542
  255TIP3    H2  702   1.519   1.400   2.665
  256TIP3   OH2  703   2.326   1.647   2.359
  256TIP3    H1  704   2.409   1.634   2.311
  256TIP3    H2  705   2.334   1.582   2.431
  257TIP3   OH2  706   2.550   1.328   2.417
  257TIP3    H1  707   2.597   1.244   2.414
  257TIP3    H2  708   2.616   1.388   2.380
  258TIP3   OH2  709   2.587   1.581   2.152
  258TIP3    H1  710   2.531   1.636   2.092
  258TIP3    H2  711   2.676   1.600   2.114
  259TIP3   OH2  712   1.831   1.133   2.602
  259TIP3    H1  713   1.743   1.092   2.609
  259TIP3    H2  714   1.855   1.103   2.513
  260TIP3   OH2  715   2.204   1.089   2.446
  260TIP3    H1  716   2.218   1.085   2.543
  260TIP3    H2  717   2.114   1.058   2.436
  261TIP3   OH2  718   2.439   1.051   2.296
  261TIP3    H1  719   2.367   1.042   2.361
  261TIP3    H2  720   2.515   1.013   2.344
  262TIP3   OH2  721   2.656   0.981   2.452
  262TIP3    H1  722   2.677   0.887   2.468
  262TIP3    H2  723   2.659   1.019   2.542
  263TIP3   OH2  724   2.241   0.802   2.645
  263TIP3    H1  725   2.225   0.728   2.583
  263TIP3    H2  726   2.156   0.850   2.649
  264TIP3   OH2  727   2.708   2.285   1.364
  264TIP3    H1  728   2.740   2.319   1.450
  264TIP3    H2  729   2.769   2.327   1.301
  265TIP3   OH2  730   2.740   2.308   1.645
  265TIP3    H1  731   2.698   2.219   1.639
  265TIP3    H2  732   2.815   2.285   1.704
  266TIP3   OH2  733   2.791   1.991   2.212
  266TIP3    H1  734   2.725   2.007   2.282
  266TIP3    H2  735   2.857   2.061   2.227
  267TIP3   OH2  736   2.764   1.753   1.450
  267TIP3    H1  737   2.835   1.694   1.420
  267TIP3    H2  738   2.781   1.834   1.397
  268TIP3   OH2  739   2.615   2.057   1.664
  268TIP3    H1  740   2.546   2.097   1.719
  268TIP3    H2  741   2.563   2.009   1.597
  269TIP3   OH2  742   2.829   1.645   2.042
  269TIP3    H1  743   2.902   1.579   2.033
  269TIP3    H2  744   2.861   1.718   1.987
  270TIP3   OH2  745   3.012   1.449   2.060
  270TIP3    H1  746   2.941   1.397   2.102
  270TIP3    H2  747   3.090   1.392   2.079
  271TIP3   OH2  748   2.749   1.073   1.581
  271TIP3    H1  749   2.821   1.127   1.542
  271TIP3    H2  750   2.720   1.133   1.652
  272TIP3   OH2  751   2.774   1.256   1.818
  272TIP3    H1  752   2.692   1.291   1.857
  272TIP3    H2  753   2.801   1.331   1.760
  273TIP3   OH2  754   3.217   0.840   2.365
  273TIP3    H1  755   3.279   0.778   2.323
  273TIP3    H2  756   3.191   0.898   2.290
  274TIP3   OH2  757   3.094   0.989   2.173
  274TIP3    H1  758   3.006   1.029   2.189
  274TIP3    H2  759   3.067   0.917   2.113
  275TIP3   OH2  760   2.270   2.189   0.988
  275TIP3    H1  761   2.334   2.154   0.924
  275TIP3    H2  762   2.327   2.229   1.057
  276TIP3   OH2  763   1.372   1.964   2.413
  276TIP3    H1  764   1.374   1.876   2.374
  276TIP3    H2  765   1.400   1.950   2.505
  277TIP3   OH2  766   1.607   1.972   1.965
  277TIP3    H1  767   1.517   1.999   1.939
  277TIP3    H2  768   1.663   2.032   1.912
  278TIP3   OH2  769   2.019   2.233   2.088
  278TIP3    H1  770   2.060   2.235   2.177
  278TIP3    H2  771   2.085   2.284   2.037
  279TIP3   OH2  772   2.199   2.384   1.947
  279TIP3    H1  773   2.272   2.334   1.907
  279TIP3    H2  774   2.249   2.442   2.008
  280TIP3   OH2  775   2.995   0.758   2.062
  280TIP3    H1  776   2.909   0.756   2.019
  280TIP3    H2  777   3.027   0.664   2.054
  281TIP3   OH2  778   1.280   2.270   1.979
  281TIP3    H1  779   1.209   2.252   1.917
  281TIP3    H2  780   1.239   2.265   2.066
  282TIP3   OH2  781   1.489   2.242   1.811
  282TIP3    H1  782   1.428   2.252   1.889
  282TIP3    H2  783   1.422   2.231   1.742
  283TIP3   OH2  784   1.919   2.256   1.630
  283TIP3    H1  785   1.847   2.274   1.566
  283TIP3    H2  786   1.929   2.344   1.672
  284TIP3   OH2  787   2.185   2.189   1.677
  284TIP3    H1  788   2.090   2.210   1.663
  284TIP3    H2  789   2.229   2.268   1.640
  285TIP3   OH2  790   2.385   2.386   1.596
  285TIP3    H1  791   2.371   2.470   1.548
  285TIP3    H2  792   2.414   2.326   1.524
  286TIP3   OH2  793   2.732   0.718   2.491
  286TIP3    H1  794   2.751   0.684   2.581
  286TIP3    H2  795   2.818   0.707   2.446
  287TIP3   OH2  796   2.664   2.265   1.973
  287TIP3    H1  797   2.584   2.235   1.925
  287TIP3    H2  798   2.647   2.361   1.979
  288TIP3   OH2  799   3.932   1.631   0.741
  288TIP3    H1  800   3.903   1.723   0.725
  288TIP3    H2  801   3.855   1.583   0.707
  289TIP3   OH2  802   3.924   1.634   1.122
  289TIP3    H1  803   3.961   1.610   1.209
  289TIP3    H2  804   3.891   1.549   1.090
  290TIP3   OH2  805   3.231   1.529   1.485
  290TIP3    H1  806   3.260   1.461   1.549
  290TIP3    H2  807   3.306   1.590   1.489
  291TIP3   OH2  808   4.172   1.934   0.799
  291TIP3    H1  809   4.164   1.870   0.872
  291TIP3    H2  810   4.199   2.015   0.848
  292TIP3   OH2  811   3.199   1.939   1.208
  292TIP3    H1  812   3.193   1.841   1.213
  292TIP3    H2  813   3.296   1.951   1.209
  293TIP3   OH2  814   2.992   1.458   1.178
  293TIP3    H1  815   3.053   1.388   1.210
  293TIP3    H2  816   3.051   1.516   1.126
  294TIP3   OH2  817   3.824   2.399   0.819
  294TIP3    H1  818   3.868   2.328   0.768
  294TIP3    H2  819   3.819   2.360   0.907
  295TIP3   OH2  820   3.730   1.859   1.167
  295TIP3    H1  821   3.774   1.781   1.128
  295TIP3    H2  822   3.811   1.908   1.191
  296TIP3   OH2  823   4.740   1.182   1.166
  296TIP3    H1  824   4.771   1.263   1.209
  296TIP3    H2  825   4.763   1.200   1.073
  297TIP3   OH2  826   4.140   1.362   1.201
  297TIP3    H1  827   4.183   1.277   1.224
  297TIP3    H2  828   4.111   1.344   1.109
  298TIP3   OH2  829   3.479   1.015   1.187
  298TIP3    H1  830   3.456   1.063   1.107
  298TIP3    H2  831   3.430   0.932   1.178
  299TIP3   OH2  832   4.173   1.111   0.788
  299TIP3    H1  833   4.243   1.097   0.856
  299TIP3    H2  834   4.226   1.148   0.716
  300TIP3   OH2  835   3.120   1.231   1.261
  300TIP3    H1  836   3.203   1.212   1.309
  300TIP3    H2  837   3.103   1.144   1.219
  301TIP3   OH2  838   3.568   1.440   1.066
  301TIP3    H1  839   3.661   1.414   1.084
  301TIP3    H2  840   3.531   1.357   1.031
  302TIP3   OH2  841   4.816   1.388   1.336
  302TIP3    H1  842   4.732   1.435   1.316
  302TIP3    H2  843   4.829   1.412   1.428
  303TIP3   OH2  844   3.478   1.015   1.608
  303TIP3    H1  845   3.418   1.051   1.540
  303TIP3    H2  846   3.424   1.026   1.689
  304TIP3   OH2  847   3.804   1.846   0.612
  304TIP3    H1  848   3.801   1.854   0.516
  304TIP3    H2  849   3.774   1.935   0.639
  305TIP3   OH2  850   3.581   1.780   1.395
  305TIP3    H1  851   3.520   1.846   1.434
  305TIP3    H2  852   3.626   1.832   1.326
  306TIP3   OH2  853   4.378   1.120   0.959
  306TIP3    H1  854   4.377   1.063   1.037
  306TIP3    H2  855   4.437   1.192   0.988
  307TIP3   OH2  856   3.348   1.136   1.389
  307TIP3    H1  857   3.409   1.208   1.417
  307TIP3    H2  858   3.408   1.087   1.328
  308TIP3   OH2  859   3.408   1.973   1.491
  308TIP3    H1  860   3.384   2.062   1.457
  308TIP3    H2  861   3.331   1.958   1.551
  309TIP3   OH2  862   4.229   2.159   0.949
  309TIP3    H1  863   4.145   2.164   0.998
  309TIP3    H2  864   4.247   2.254   0.934
  310TIP3   OH2  865   4.535   1.080   1.332
  310TIP3    H1  866   4.447   1.109   1.302
  310TIP3    H2  867   4.594   1.113   1.262
  311TIP3   OH2  868   3.836   0.738   1.313
  311TIP3    H1  869   3.808   0.648   1.341
  311TIP3    H2  870   3.764   0.788   1.357
  312TIP3   OH2  871   3.941   2.227   0.639
  312TIP3    H1  872   3.992   2.145   0.621
  312TIP3    H2  873   4.004   2.293   0.601
  313TIP3   OH2  874   4.080   2.008   0.552
  313TIP3    H1  875   4.072   1.926   0.501
  313TIP3    H2  876   4.121   1.976   0.636
  314TIP3   OH2  877   4.466   2.105   1.307
  314TIP3    H1  878   4.459   2.025   1.251
  314TIP3    H2  879   4.449   2.176   1.243
  315TIP3   OH2  880   3.766   1.479   0.565
  315TIP3    H1  881   3.690   1.533   0.536
  315TIP3    H2  882   3.815   1.466   0.481
  316TIP3   OH2  883   4.665   1.729   1.157
  316TIP3    H1  884   4.583   1.782   1.163
  316TIP3    H2  885   4.696   1.753   1.067
  317TIP3   OH2  886   4.115   1.572   0.547
  317TIP3    H1  887   4.059   1.594   0.626
  317TIP3    H2  888   4.198   1.544   0.591
  318TIP3   OH2  889   4.344   1.609   1.453
  318TIP3    H1  890   4.341   1.692   1.504
  318TIP3    H2  891   4.258   1.614   1.407
  319TIP3   OH2  892   3.350   1.566   0.962
  319TIP3    H1  893   3.314   1.488   0.919
  319TIP3    H2  894   3.432   1.529   1.002
  320TIP3   OH2  895   3.472   1.977   1.109
  320TIP3    H1  896   3.455   1.937   1.023
  320TIP3    H2  897   3.563   1.946   1.129
  321TIP3   OH2  898   3.475   1.543   1.308
  321TIP3    H1  899   3.521   1.521   1.225
  321TIP3    H2  900   3.521   1.625   1.336
  322TIP3   OH2  901   3.998   2.182   1.093
  322TIP3    H1  902   3.998   2.259   1.153
  322TIP3    H2  903   3.988   2.107   1.154
  323TIP3   OH2  904   3.615   2.095   1.635
  323TIP3    H1  905   3.557   2.156   1.685
  323TIP3    H2  906   3.548   2.041   1.588
  324TIP3   OH2  907   3.966   1.426   0.373
  324TIP3    H1  908   4.021   1.488   0.424
  324TIP3    H2  909   3.987   1.451   0.280
  325TIP3   OH2  910   3.368   1.654   1.735
  325TIP3    H1  911   3.375   1.741   1.780
  325TIP3    H2  912   3.274   1.634   1.752
  326TIP3   OH2  913   3.692   2.107   0.650
  326TIP3    H1  914   3.774   2.160   0.659
  326TIP3    H2  915   3.634   2.167   0.602
  327TIP3   OH2  916   3.408   2.262   1.726
  327TIP3    H1  917   3.370   2.260   1.636
  327TIP3    H2  918   3.331   2.241   1.783
  328TIP3   OH2  919   4.262   2.040  -0.042
  328TIP3    H1  920   4.276   2.136  -0.056
  328TIP3    H2  921   4.354   2.006  -0.049
  329TIP3   OH2  922   2.988   1.791   1.672
  329TIP3    H1  923   2.930   1.759   1.601
  329TIP3    H2  924   3.030   1.708   1.704
  330TIP3   OH2  925   2.847   1.981   1.306
  330TIP3    H1  926   2.943   1.983   1.296
  330TIP3    H2  927   2.832   2.062   1.357
  331TIP3   OH2  928   3.810   2.223   1.491
  331TIP3    H1  929   3.807   2.315   1.527
  331TIP3    H2  930   3.741   2.181   1.547
  332TIP3   OH2  931   3.571   2.352   0.446
  332TIP3    H1  932   3.533   2.339   0.357
  332TIP3    H2  933   3.543   2.442   0.469
  333TIP3   OH2  934   3.024   2.219   0.829
  333TIP3    H1  935   3.064   2.202   0.917
  333TIP3    H2  936   2.966   2.140   0.819
  334TIP3   OH2  937   3.767   2.248   0.096
  334TIP3    H1  938   3.826   2.190   0.044
  334TIP3    H2  939   3.813   2.253   0.182
  335TIP3   OH2  940   3.828   2.305   0.364
  335TIP3    H1  941   3.738   2.310   0.403
  335TIP3    H2  942   3.879   2.265   0.437
  336TIP3   OH2  943   4.598   1.569   1.632
  336TIP3    H1  944   4.517   1.581   1.582
  336TIP3    H2  945   4.614   1.473   1.623
  337TIP3   OH2  946   3.194   1.976   1.659
  337TIP3    H1  947   3.244   1.963   1.743
  337TIP3    H2  948   3.119   1.914   1.671
  338TIP3   OH2  949   3.602   0.851   1.419
  338TIP3    H1  950   3.537   0.780   1.420
  338TIP3    H2  951   3.573   0.900   1.498
  339TIP3   OH2  952   4.129   0.916   1.636
  339TIP3    H1  953   4.195   0.886   1.701
  339TIP3    H2  954   4.044   0.895   1.680
  340TIP3   OH2  955   4.366   1.345   1.555
  340TIP3    H1  956   4.317   1.341   1.640
  340TIP3    H2  957   4.342   1.432   1.521
  341TIP3   OH2  958   4.040   1.486   0.113
  341TIP3    H1  959   4.018   1.470   0.021
  341TIP3    H2  960   4.119   1.541   0.103
  342TIP3   OH2  961   3.528   1.324   1.463
  342TIP3    H1  962   3.482   1.345   1.547
  342TIP3    H2  963   3.509   1.405   1.411
  343TIP3   OH2  964   3.411   1.238   0.954
  343TIP3    H1  965   3.353   1.178   1.003
  343TIP3    H2  966   3.461   1.173   0.901
  344TIP3   OH2  967   3.899   1.280   0.701
  344TIP3    H1  968   3.852   1.355   0.658
  344TIP3    H2  969   3.955   1.248   0.627
  345TIP3   OH2  970   4.074   1.566   1.789
  345TIP3    H1  971   4.053   1.493   1.852
  345TIP3    H2  972   4.168   1.581   1.811
  346TIP3   OH2  973   4.055   1.314   0.942
  346TIP3    H1  974   3.997   1.344   0.869
  346TIP3    H2  975   4.091   1.233   0.901
  347TIP3   OH2  976   3.341   1.345   1.671
  347TIP3    H1  977   3.374   1.408   1.737
  347TIP3    H2  978   3.332   1.263   1.723
  348TIP3   OH2  979   4.062   1.562   1.364
  348TIP3    H1  980   4.098   1.490   1.306
  348TIP3    H2  981   4.036   1.509   1.442
  349TIP3   OH2  982   3.736   1.021   1.042
  349TIP3    H1  983   3.670   1.012   1.114
  349TIP3    H2  984   3.818   1.023   1.095
  350TIP3   OH2  985   4.226   1.100   1.241
  350TIP3    H1  986   4.192   1.112   1.332
  350TIP3    H2  987   4.162   1.036   1.206
  351TIP3   OH2  988   3.360   1.898   1.875
  351TIP3    H1  989   3.437   1.930   1.926
  351TIP3    H2  990   3.293   1.896   1.947
  352TIP3   OH2  991   3.819   1.351   1.133
  352TIP3    H1  992   3.895   1.312   1.086
  352TIP3    H2  993   3.826   1.309   1.221
  353TIP3   OH2  994   3.797   1.254   1.417
  353TIP3    H1  995   3.708   1.287   1.440
  353TIP3    H2  996   3.856   1.308   1.473
  354TIP3   OH2  997   3.521   1.623   0.525
  354TIP3    H1  998   3.431   1.657   0.513
  354TIP3    H2  999   3.539   1.662   0.614
  355TIP3   OH2 1000   4.434   1.878   1.151
  355TIP3    H1 1001   4.459   1.927   1.069
  355TIP3    H2 1002   4.349   1.837   1.125
  356TIP3   OH2 1003   3.924   1.951   1.518
  356TIP3    H1 1004   3.956   1.934   1.608
  356TIP3    H2 1005   3.896   2.044   1.523
  357TIP3   OH2 1006   4.056   1.186   0.479
  357TIP3    H1 1007   4.151   1.197   0.496
  357TIP3    H2 1008   4.033   1.269   0.432
  358TIP3   OH2 1009   3.222   1.656   1.195
  358TIP3    H1 1010   3.273   1.636   1.114
  358TIP3    H2 1011   3.273   1.608   1.263
  359TIP3   OH2 1012   3.655   1.786   0.343
  359TIP3    H1 1013   3.627   1.878   0.363
  359TIP3    H2 1014   3.618   1.738   0.418
  360TIP3   OH2 1015   3.106   1.583   1.809
  360TIP3    H1 1016   3.131   1.569   1.903
  360TIP3    H2 1017   3.039   1.513   1.797
  361TIP3   OH2 1018   3.832   1.695   1.828
  361TIP3    H1 1019   3.774   1.636   1.777
  361TIP3    H2 1020   3.921   1.662   1.802
  362TIP3   OH2 1021   4.089   2.198   1.423
  362TIP3    H1 1022   3.993   2.210   1.425
  362TIP3    H2 1023   4.117   2.260   1.495
  363TIP3   OH2 1024   4.494   1.294   0.323
  363TIP3    H1 1025   4.450   1.237   0.257
  363TIP3    H2 1026   4.482   1.382   0.280
  364TIP3   OH2 1027   4.724   2.129   1.408
  364TIP3    H1 1028   4.629   2.149   1.398
  364TIP3    H2 1029   4.748   2.112   1.314
  365TIP3   OH2 1030   4.208   2.107   0.226
  365TIP3    H1 1031   4.173   2.037   0.283
  365TIP3    H2 1032   4.209   2.064   0.138
  366TIP3   OH2 1033   4.199   1.738   1.068
  366TIP3    H1 1034   4.106   1.713   1.080
  366TIP3    H2 1035   4.233   1.658   1.023
  367TIP3   OH2 1036   3.324   1.963   0.812
  367TIP3    H1 1037   3.329   2.048   0.765
  367TIP3    H2 1038   3.229   1.955   0.827
  368TIP3   OH2 1039   3.456   1.729   0.761
  368TIP3    H1 1040   3.426   1.821   0.777
  368TIP3    H2 1041   3.431   1.687   0.845
  369TIP3   OH2 1042   3.595   2.308   1.287
  369TIP3    H1 1043   3.638   2.381   1.238
  369TIP3    H2 1044   3.670   2.273   1.338
  370TIP3   OH2 1045   3.248   2.203   0.668
  370TIP3    H1 1046   3.164   2.215   0.716
  370TIP3    H2 1047   3.282   2.296   0.670
  371TIP3   OH2 1048   3.982   1.943   1.247
  371TIP3    H1 1049   3.973   1.940   1.345
  371TIP3    H2 1050   4.066   1.895   1.234
  372TIP3   OH2 1051   3.967   1.854   0.128
  372TIP3    H1 1052   4.005   1.821   0.211
  372TIP3    H2 1053   3.889   1.795   0.116
  373TIP3   OH2 1054   4.298   2.316  -0.056
  373TIP3    H1 1055   4.348   2.391  -0.094
  373TIP3    H2 1056   4.220   2.364  -0.021
  374TIP3   OH2 1057   3.314   1.091   1.818
  374TIP3    H1 1058   3.220   1.104   1.840
  374TIP3    H2 1059   3.342   1.027   1.886
  375TIP3   OH2 1060   4.117   1.770   0.357
  375TIP3    H1 1061   4.112   1.702   0.427
  375TIP3    H2 1062   4.213   1.769   0.338
  376TIP3   OH2 1063   3.034   2.170   1.449
  376TIP3    H1 1064   3.088   2.097   1.483
  376TIP3    H2 1065   3.057   2.241   1.510
  377TIP3   OH2 1066   3.298   1.816   0.419
  377TIP3    H1 1067   3.330   1.835   0.507
  377TIP3    H2 1068   3.272   1.907   0.394
  378TIP3   OH2 1069   4.151   1.155   1.500
  378TIP3    H1 1070   4.234   1.190   1.537
  378TIP3    H2 1071   4.138   1.072   1.552
  379TIP3   OH2 1072   4.017   0.935   0.650
  379TIP3    H1 1073   4.027   0.970   0.559
  379TIP3    H2 1074   4.065   1.005   0.701
  380TIP3   OH2 1075   3.538   2.023   0.377
  380TIP3    H1 1076   3.451   2.060   0.402
  380TIP3    H2 1077   3.542   2.046   0.282
  381TIP3   OH2 1078   3.706   1.085   0.748
  381TIP3    H1 1079   3.777   1.152   0.740
  381TIP3    H2 1080   3.712   1.061   0.842
  382TIP3   OH2 1081   3.993   1.401   1.573
  382TIP3    H1 1082   4.016   1.453   1.653
  382TIP3    H2 1083   4.048   1.321   1.584
  383TIP3   OH2 1084   3.920   0.834   0.885
  383TIP3    H1 1085   3.882   0.913   0.927
  383TIP3    H2 1086   3.946   0.870   0.798
  384TIP3   OH2 1087   3.269   2.088   0.415
  384TIP3    H1 1088   3.247   2.162   0.354
  384TIP3    H2 1089   3.257   2.130   0.503
  385TIP3   OH2 1090   4.633   1.302   1.553
  385TIP3    H1 1091   4.535   1.300   1.560
  385TIP3    H2 1092   4.644   1.259   1.467
  386TIP3   OH2 1093   4.284   1.496   0.941
  386TIP3    H1 1094   4.209   1.435   0.956
  386TIP3    H2 1095   4.357   1.451   0.989
  387TIP3   OH2 1096   4.249   2.458   0.901
  387TIP3    H1 1097   4.208   2.502   0.823
  387TIP3    H2 1098   4.344   2.476   0.882
  388TIP3   OH2 1099   3.323   0.743   1.473
  388TIP3    H1 1100   3.348   0.692   1.393
  388TIP3    H2 1101   3.324   0.668   1.537
  389TIP3   OH2 1102   2.884   1.987   0.793
  389TIP3    H1 1103   2.803   1.937   0.815
  389TIP3    H2 1104   2.917   1.933   0.719
  390TIP3   OH2 1105   3.024   2.481   1.871
  390TIP3    H1 1106   3.108   2.482   1.922
  390TIP3    H2 1107   3.001   2.387   1.876
  391TIP3   OH2 1108   3.509   2.447   1.910
  391TIP3    H1 1109   3.601   2.422   1.921
  391TIP3    H2 1110   3.482   2.386   1.838
  392TIP3   OH2 1111   3.496   2.025   0.103
  392TIP3    H1 1112   3.432   1.953   0.097
  392TIP3    H2 1113   3.538   2.015   0.016
  393TIP3   OH2 1114   4.145   2.356   1.644
  393TIP3    H1 1115   4.131   2.284   1.710
  393TIP3    H2 1116   4.225   2.400   1.677
  394TIP3   OH2 1117   3.932   2.070  -0.044
  394TIP3    H1 1118   3.949   1.993   0.015
  394TIP3    H2 1119   4.018   2.078  -0.088
  395TIP3   OH2 1120   3.161   1.866   2.052
  395TIP3    H1 1121   3.161   1.769   2.062
  395TIP3    H2 1122   3.068   1.887   2.034
  396TIP3   OH2 1123   3.770   1.972   1.839
  396TIP3    H1 1124   3.724   1.987   1.755
  396TIP3    H2 1125   3.798   1.879   1.834
  397TIP3   OH2 1126   3.736   1.697   0.094
  397TIP3    H1 1127   3.701   1.732   0.179
  397TIP3    H2 1128   3.655   1.669   0.049
  398TIP3   OH2 1129   4.257   1.979   1.448
  398TIP3    H1 1130   4.331   2.023   1.402
  398TIP3    H2 1131   4.187   2.046   1.437
  399TIP3   OH2 1132   3.275   1.602   2.054
  399TIP3    H1 1133   3.360   1.562   2.033
  399TIP3    H2 1134   3.298   1.652   2.136
  400TIP3   OH2 1135   3.605   1.502   1.710
  400TIP3    H1 1136   3.531   1.567   1.714
  400TIP3    H2 1137   3.659   1.537   1.635
  401TIP3   OH2 1138   4.126   1.908   1.846
  401TIP3    H1 1139   4.206   1.881   1.800
  401TIP3    H2 1140   4.122   1.844   1.919
  402TIP3   OH2 1141   4.267   1.574  -0.031
  402TIP3    H1 1142   4.284   1.533  -0.117
  402TIP3    H2 1143   4.270   1.668  -0.053
  403TIP3   OH2 1144   3.730   1.293   1.841
  403TIP3    H1 1145   3.734   1.213   1.785
  403TIP3    H2 1146   3.687   1.358   1.781
  404TIP3   OH2 1147   3.737   1.086   1.649
  404TIP3    H1 1148   3.764   1.117   1.560
  404TIP3    H2 1149   3.644   1.058   1.633
  405TIP3   OH2 1150   3.759   1.612   1.519
  405TIP3    H1 1151   3.846   1.621   1.477
  405TIP3    H2 1152   3.707   1.683   1.476
  406TIP3   OH2 1153   4.343   1.581   1.900
  406TIP3    H1 1154   4.391   1.498   1.914
  406TIP3    H2 1155   4.414   1.640   1.871
  407TIP3   OH2 1156   4.383   1.836   1.639
  407TIP3    H1 1157   4.326   1.889   1.578
  407TIP3    H2 1158   4.471   1.854   1.599
  408TIP3   OH2 1159   3.607   1.407   2.069
  408TIP3    H1 1160   3.540   1.336   2.083
  408TIP3    H2 1161   3.645   1.380   1.983
  409TIP3   OH2 1162   3.872   0.852   1.715
  409TIP3    H1 1163   3.823   0.934   1.693
  409TIP3    H2 1164   3.801   0.785   1.705
  410TIP3   OH2 1165   3.993   1.348   1.930
  410TIP3    H1 1166   3.984   1.336   2.027
  410TIP3    H2 1167   3.902   1.322   1.902
  411TIP3   OH2 1168   4.232   1.297   1.785
  411TIP3    H1 1169   4.158   1.298   1.848
  411TIP3    H2 1170   4.306   1.267   1.841
  412TIP3   OH2 1171   4.460   1.235   1.934
  412TIP3    H1 1172   4.474   1.140   1.953
  412TIP3    H2 1173   4.457   1.275   2.024
  413TIP3   OH2 1174   3.449   1.186   2.123
  413TIP3    H1 1175   3.456   1.095   2.089
  413TIP3    H2 1176   3.486   1.174   2.213
  414TIP3   OH2 1177   3.960   0.851   1.974
  414TIP3    H1 1178   4.027   0.780   1.966
  414TIP3    H2 1179   3.922   0.849   1.884
  415TIP3   OH2 1180   4.027   1.068   2.130
  415TIP3    H1 1181   4.006   0.996   2.066
  415TIP3    H2 1182   3.949   1.126   2.123
  416TIP3   OH2 1183   3.241   2.283   0.224
  416TIP3    H1 1184   3.336   2.297   0.204
  416TIP3    H2 1185   3.198   2.341   0.160
  417TIP3   OH2 1186   2.633   2.284   0.857
  417TIP3    H1 1187   2.579   2.214   0.819
  417TIP3    H2 1188   2.685   2.235   0.924
  418TIP3   OH2 1189   2.763   2.157   1.057
  418TIP3    H1 1190   2.771   2.075   1.107
  418TIP3    H2 1191   2.823   2.214   1.108
  419TIP3   OH2 1192   4.504   2.545   0.854
  419TIP3    H1 1193   4.541   2.551   0.944
  419TIP3    H2 1194   4.574   2.584   0.799
  420TIP3   OH2 1195   4.581   2.239   1.708
  420TIP3    H1 1196   4.506   2.248   1.770
  420TIP3    H2 1197   4.621   2.328   1.709
  421TIP3   OH2 1198   4.396   1.750   0.320
  421TIP3    H1 1199   4.462   1.817   0.292
  421TIP3    H2 1200   4.440   1.715   0.401
  422TIP3   OH2 1201   4.522   1.622   0.526
  422TIP3    H1 1202   4.459   1.580   0.588
  422TIP3    H2 1203   4.590   1.659   0.586
  423TIP3   OH2 1204   4.579   2.012   0.959
  423TIP3    H1 1205   4.633   1.948   0.908
  423TIP3    H2 1206   4.568   2.085   0.895
  424TIP3   OH2 1207   4.447   1.523   0.175
  424TIP3    H1 1208   4.383   1.540   0.103
  424TIP3    H2 1209   4.433   1.602   0.231
  425TIP3   OH2 1210   4.332   1.174   0.115
  425TIP3    H1 1211   4.301   1.258   0.080
  425TIP3    H2 1212   4.248   1.125   0.132
  426TIP3   OH2 1213   4.340   1.476   0.674
  426TIP3    H1 1214   4.347   1.379   0.670
  426TIP3    H2 1215   4.326   1.491   0.771
  427TIP3   OH2 1216   2.968   1.567   1.431
  427TIP3    H1 1217   2.967   1.534   1.339
  427TIP3    H2 1218   3.065   1.563   1.449
  428TIP3   OH2 1219   4.626   1.898   1.531
  428TIP3    H1 1220   4.699   1.834   1.522
  428TIP3    H2 1221   4.655   1.971   1.472
  429TIP3   OH2 1222   4.815   1.708   1.550
  429TIP3    H1 1223   4.739   1.656   1.586
  429TIP3    H2 1224   4.887   1.642   1.564
  430TIP3   OH2 1225   4.328   1.196   0.566
  430TIP3    H1 1226   4.370   1.108   0.582
  430TIP3    H2 1227   4.390   1.232   0.499
  431TIP3   OH2 1228   4.497   1.369   1.062
  431TIP3    H1 1229   4.583   1.394   1.022
  431TIP3    H2 1230   4.511   1.404   1.152
  432TIP3   OH2 1231   4.566   1.510   1.294
  432TIP3    H1 1232   4.488   1.545   1.343
  432TIP3    H2 1233   4.598   1.591   1.249
  433TIP3   OH2 1234   3.183   1.241   2.106
  433TIP3    H1 1235   3.280   1.235   2.103
  433TIP3    H2 1236   3.162   1.153   2.144
  434TIP3   OH2 1237   5.017   1.102   1.850
  434TIP3    H1 1238   5.076   1.036   1.808
  434TIP3    H2 1239   4.990   1.156   1.773
  435TIP3   OH2 1240   4.439   0.950   0.608
  435TIP3    H1 1241   4.483   0.939   0.696
  435TIP3    H2 1242   4.384   0.869   0.606
  436TIP3   OH2 1243   3.157   0.950   1.456
  436TIP3    H1 1244   3.220   0.881   1.486
  436TIP3    H2 1245   3.215   1.029   1.453
  437TIP3   OH2 1246   2.963   1.216   1.494
  437TIP3    H1 1247   3.010   1.220   1.409
  437TIP3    H2 1248   2.987   1.299   1.536
  438TIP3   OH2 1249   4.889   1.242   1.655
  438TIP3    H1 1250   4.802   1.282   1.676
  438TIP3    H2 1251   4.859   1.169   1.597
  439TIP3   OH2 1252   4.090   2.410   0.506
  439TIP3    H1 1253   4.140   2.396   0.423
  439TIP3    H2 1254   4.147   2.472   0.553
  440TIP3   OH2 1255   3.158   0.777   1.833
  440TIP3    H1 1256   3.112   0.777   1.918
  440TIP3    H2 1257   3.095   0.828   1.778
  441TIP3   OH2 1258   3.191   2.213   1.902
  441TIP3    H1 1259   3.099   2.185   1.885
  441TIP3    H2 1260   3.199   2.196   1.997
  442TIP3   OH2 1261   3.367   2.243   1.435
  442TIP3    H1 1262   3.320   2.320   1.398
  442TIP3    H2 1263   3.454   2.258   1.393
  443TIP3   OH2 1264   3.807   2.487   1.578
  443TIP3    H1 1265   3.851   2.486   1.666
  443TIP3    H2 1266   3.869   2.542   1.526
  444TIP3   OH2 1267   3.980   2.638   1.432
  444TIP3    H1 1268   4.017   2.575   1.367
  444TIP3    H2 1269   4.054   2.660   1.489
  445TIP3   OH2 1270   4.787   1.005   1.535
  445TIP3    H1 1271   4.696   0.996   1.501
  445TIP3    H2 1272   4.820   0.912   1.525
  446TIP3   OH2 1273   3.044   2.502   1.460
  446TIP3    H1 1274   2.955   2.539   1.440
  446TIP3    H2 1275   3.057   2.536   1.549
  447TIP3   OH2 1276   3.281   2.481   1.319
  447TIP3    H1 1277   3.194   2.493   1.363
  447TIP3    H2 1278   3.262   2.514   1.229
  448TIP3   OH2 1279   3.705   2.511   1.114
  448TIP3    H1 1280   3.635   2.532   1.049
  448TIP3    H2 1281   3.718   2.598   1.158
  449TIP3   OH2 1282   3.972   2.460   1.188
  449TIP3    H1 1283   3.883   2.472   1.150
  449TIP3    H2 1284   4.028   2.516   1.131
  450TIP3   OH2 1285   4.188   2.649   1.097
  450TIP3    H1 1286   4.166   2.723   1.038
  450TIP3    H2 1287   4.214   2.579   1.033
  451TIP3   OH2 1288   2.955   2.295   1.207
  451TIP3    H1 1289   2.983   2.271   1.297
  451TIP3    H2 1290   3.027   2.252   1.156
  452TIP3   OH2 1291   3.151   2.168   1.065
  452TIP3    H1 1292   3.167   2.084   1.114
  452TIP3    H2 1293   3.242   2.205   1.061
  453TIP3   OH2 1294   3.415   2.263   1.067
  453TIP3    H1 1295   3.450   2.172   1.055
  453TIP3    H2 1296   3.460   2.286   1.150
  454TIP3   OH2 1297   3.987   0.931   1.160
  454TIP3    H1 1298   3.947   0.862   1.217
  454TIP3    H2 1299   4.042   0.878   1.101
  455TIP3   OH2 1300   4.516   0.803   1.062
  455TIP3    H1 1301   4.548   0.859   0.988
  455TIP3    H2 1302   4.420   0.814   1.056
  456TIP3   OH2 1303   4.592   0.922   0.831
  456TIP3    H1 1304   4.664   0.858   0.811
  456TIP3    H2 1305   4.637   1.008   0.818
  457TIP3   OH2 1306   3.666   0.697   1.083
  457TIP3    H1 1307   3.724   0.746   1.024
  457TIP3    H2 1308   3.708   0.709   1.169
  458TIP3   OH2 1309   4.239   0.808   1.033
  458TIP3    H1 1310   4.216   0.775   0.946
  458TIP3    H2 1311   4.218   0.729   1.089
  459TIP3   OH2 1312   4.264   0.726   0.633
  459TIP3    H1 1313   4.184   0.778   0.610
  459TIP3    H2 1314   4.247   0.690   0.719
  460TIP3   OH2 1315   3.510   2.288   0.174
  460TIP3    H1 1316   3.602   2.303   0.143
  460TIP3    H2 1317   3.501   2.195   0.143
  461TIP3   OH2 1318   4.235   2.374   0.272
  461TIP3    H1 1319   4.228   2.277   0.259
  461TIP3    H2 1320   4.190   2.407   0.192
  462TIP3   OH2 1321   3.446   0.911   2.063
  462TIP3    H1 1322   3.415   0.838   2.119
  462TIP3    H2 1323   3.542   0.910   2.085
  463TIP3   OH2 1324   3.697   0.906   2.179
  463TIP3    H1 1325   3.782   0.885   2.136
  463TIP3    H2 1326   3.690   0.832   2.244
  464TIP3   OH2 1327   4.524   0.965   1.971
  464TIP3    H1 1328   4.544   0.935   2.062
  464TIP3    H2 1329   4.612   0.961   1.928
  465TIP3   OH2 1330   5.691   1.909   0.257
  465TIP3    H1 1331   5.696   1.994   0.212
  465TIP3    H2 1332   5.633   1.857   0.201
  466TIP3   OH2 1333   5.738   1.888   0.599
  466TIP3    H1 1334   5.749   1.861   0.692
  466TIP3    H2 1335   5.681   1.820   0.562
  467TIP3   OH2 1336   5.026   1.788   0.974
  467TIP3    H1 1337   5.058   1.720   1.036
  467TIP3    H2 1338   5.106   1.840   0.960
  468TIP3   OH2 1339   5.983   2.177   0.305
  468TIP3    H1 1340   5.959   2.121   0.380
  468TIP3    H2 1341   5.982   2.266   0.343
  469TIP3   OH2 1342   4.997   2.195   0.697
  469TIP3    H1 1343   4.989   2.097   0.699
  469TIP3    H2 1344   5.093   2.205   0.687
  470TIP3   OH2 1345   4.702   1.410   0.485
  470TIP3    H1 1346   4.655   1.494   0.500
  470TIP3    H2 1347   4.629   1.355   0.454
  471TIP3   OH2 1348   4.761   1.686   0.650
  471TIP3    H1 1349   4.810   1.610   0.687
  471TIP3    H2 1350   4.828   1.725   0.591
  472TIP3   OH2 1351   5.627   2.661   0.309
  472TIP3    H1 1352   5.654   2.583   0.255
  472TIP3    H2 1353   5.610   2.619   0.393
  473TIP3   OH2 1354   5.519   2.114   0.655
  473TIP3    H1 1355   5.559   2.048   0.597
  473TIP3    H2 1356   5.602   2.157   0.686
  474TIP3   OH2 1357   5.944   1.626   0.692
  474TIP3    H1 1358   5.977   1.538   0.719
  474TIP3    H2 1359   5.892   1.599   0.614
  475TIP3   OH2 1360   5.254   1.305   0.675
  475TIP3    H1 1361   5.229   1.370   0.605
  475TIP3    H2 1362   5.240   1.220   0.629
  476TIP3   OH2 1363   4.907   1.480   0.756
  476TIP3    H1 1364   4.986   1.465   0.811
  476TIP3    H2 1365   4.924   1.419   0.682
  477TIP3   OH2 1366   5.352   1.690   0.558
  477TIP3    H1 1367   5.445   1.661   0.568
  477TIP3    H2 1368   5.308   1.606   0.532
  478TIP3   OH2 1369   6.587   1.618   0.857
  478TIP3    H1 1370   6.528   1.682   0.813
  478TIP3    H2 1371   6.655   1.675   0.895
  479TIP3   OH2 1372   5.271   1.263   1.090
  479TIP3    H1 1373   5.210   1.303   1.026
  479TIP3    H2 1374   5.221   1.279   1.173
  480TIP3   OH2 1375   5.378   2.036   0.884
  480TIP3    H1 1376   5.317   2.105   0.919
  480TIP3    H2 1377   5.423   2.085   0.812
  481TIP3   OH2 1378   5.129   1.390   0.893
  481TIP3    H1 1379   5.192   1.462   0.916
  481TIP3    H2 1380   5.176   1.353   0.815
  482TIP3   OH2 1381   5.203   2.230   0.983
  482TIP3    H1 1382   5.184   2.316   0.941
  482TIP3    H2 1383   5.123   2.219   1.038
  483TIP3   OH2 1384   4.599   1.920   0.220
  483TIP3    H1 1385   4.564   1.944   0.133
  483TIP3    H2 1386   4.631   2.006   0.254
  484TIP3   OH2 1387   5.729   2.463   0.137
  484TIP3    H1 1388   5.772   2.379   0.117
  484TIP3    H2 1389   5.793   2.527   0.100
  485TIP3   OH2 1390   6.277   2.334   0.810
  485TIP3    H1 1391   6.265   2.260   0.747
  485TIP3    H2 1392   6.232   2.406   0.759
  486TIP3   OH2 1393   6.463   1.992   0.655
  486TIP3    H1 1394   6.376   2.038   0.651
  486TIP3    H2 1395   6.494   2.004   0.563
  487TIP3   OH2 1396   6.131   1.872   0.942
  487TIP3    H1 1397   6.127   1.956   0.992
  487TIP3    H2 1398   6.044   1.874   0.897
  488TIP3   OH2 1399   5.133   1.820   0.447
  488TIP3    H1 1400   5.103   1.762   0.374
  488TIP3    H2 1401   5.214   1.775   0.477
  489TIP3   OH2 1402   5.264   2.231   0.597
  489TIP3    H1 1403   5.249   2.197   0.507
  489TIP3    H2 1404   5.355   2.200   0.616
  490TIP3   OH2 1405   5.271   1.796   0.801
  490TIP3    H1 1406   5.307   1.774   0.712
  490TIP3    H2 1407   5.317   1.881   0.821
  491TIP3   OH2 1408   5.408   2.350   1.133
  491TIP3    H1 1409   5.346   2.414   1.172
  491TIP3    H2 1410   5.348   2.297   1.076
  492TIP3   OH2 1411   5.167   1.905   1.227
  492TIP3    H1 1412   5.171   1.993   1.269
  492TIP3    H2 1413   5.071   1.887   1.233
  493TIP3   OH2 1414   5.455   2.407   0.169
  493TIP3    H1 1415   5.551   2.407   0.153
  493TIP3    H2 1416   5.421   2.439   0.085
  494TIP3   OH2 1417   5.203   2.522   1.211
  494TIP3    H1 1418   5.176   2.522   1.117
  494TIP3    H2 1419   5.118   2.506   1.257
  495TIP3   OH2 1420   5.008   1.659   0.234
  495TIP3    H1 1421   4.941   1.711   0.184
  495TIP3    H2 1422   4.953   1.590   0.272
  496TIP3   OH2 1423   4.788   2.052   1.155
  496TIP3    H1 1424   4.722   2.029   1.087
  496TIP3    H2 1425   4.823   1.964   1.182
  497TIP3   OH2 1426   4.640   2.242   0.791
  497TIP3    H1 1427   4.736   2.239   0.779
  497TIP3    H2 1428   4.632   2.317   0.852
  498TIP3   OH2 1429   6.502   2.696   0.845
  498TIP3    H1 1430   6.500   2.599   0.854
  498TIP3    H2 1431   6.417   2.719   0.889
  499TIP3   OH2 1432   5.583   2.489   0.967
  499TIP3    H1 1433   5.597   2.576   1.010
  499TIP3    H2 1434   5.531   2.441   1.036
  500TIP3   OH2 1435   5.355   2.613  -0.051
  500TIP3    H1 1436   5.324   2.578  -0.136
  500TIP3    H2 1437   5.337   2.708  -0.054
  501TIP3   OH2 1438   4.807   2.460   0.318
  501TIP3    H1 1439   4.857   2.450   0.402
  501TIP3    H2 1440   4.754   2.378   0.320
  502TIP3   OH2 1441   5.609   2.555  -0.155
  502TIP3    H1 1442   5.529   2.556  -0.100
  502TIP3    H2 1443   5.665   2.490  -0.109
  503TIP3   OH2 1444   6.396   1.825   1.130
  503TIP3    H1 1445   6.325   1.838   1.066
  503TIP3    H2 1446   6.411   1.728   1.121
  504TIP3   OH2 1447   4.987   2.240   1.156
  504TIP3    H1 1448   5.044   2.209   1.229
  504TIP3    H2 1449   4.916   2.172   1.154
  505TIP3   OH2 1450   5.378   1.060   0.932
  505TIP3    H1 1451   5.289   1.030   0.907
  505TIP3    H2 1452   5.355   1.141   0.983
  506TIP3   OH2 1453   5.918   1.163   1.114
  506TIP3    H1 1454   5.986   1.145   1.184
  506TIP3    H2 1455   5.834   1.147   1.163
  507TIP3   OH2 1456   6.158   1.600   1.036
  507TIP3    H1 1457   6.115   1.600   1.124
  507TIP3    H2 1458   6.139   1.690   1.003
  508TIP3   OH2 1459   5.325   1.575   0.949
  508TIP3    H1 1460   5.277   1.598   1.032
  508TIP3    H2 1461   5.309   1.655   0.895
  509TIP3   OH2 1462   5.192   1.479   0.477
  509TIP3    H1 1463   5.104   1.437   0.473
  509TIP3    H2 1464   5.231   1.456   0.389
  510TIP3   OH2 1465   5.871   1.822   1.276
  510TIP3    H1 1466   5.849   1.750   1.339
  510TIP3    H2 1467   5.965   1.835   1.296
  511TIP3   OH2 1468   5.820   1.546   0.465
  511TIP3    H1 1469   5.829   1.604   0.385
  511TIP3    H2 1470   5.835   1.458   0.425
  512TIP3   OH2 1471   5.141   1.602   1.157
  512TIP3    H1 1472   5.169   1.665   1.224
  512TIP3    H2 1473   5.130   1.520   1.209
  513TIP3   OH2 1474   4.724   1.142   0.755
  513TIP3    H1 1475   4.806   1.164   0.804
  513TIP3    H2 1476   4.757   1.103   0.672
  514TIP3   OH2 1477   4.752   1.192   0.300
  514TIP3    H1 1478   4.792   1.270   0.259
  514TIP3    H2 1479   4.658   1.218   0.306
  515TIP3   OH2 1480   5.857   1.819   0.859
  515TIP3    H1 1481   5.896   1.753   0.797
  515TIP3    H2 1482   5.829   1.760   0.932
  516TIP3   OH2 1483   5.524   1.284   0.615
  516TIP3    H1 1484   5.432   1.304   0.641
  516TIP3    H2 1485   5.573   1.325   0.687
  517TIP3   OH2 1486   4.958   1.328   0.523
  517TIP3    H1 1487   4.863   1.350   0.508
  517TIP3    H2 1488   4.966   1.243   0.478
  518TIP3   OH2 1489   5.963   1.354   0.727
  518TIP3    H1 1490   5.959   1.379   0.822
  518TIP3    H2 1491   5.931   1.264   0.729
  519TIP3   OH2 1492   6.194   3.045   0.946
  519TIP3    H1 1493   6.189   3.063   0.850
  519TIP3    H2 1494   6.274   3.094   0.971
  520TIP3   OH2 1495   5.150   2.156   1.367
  520TIP3    H1 1496   5.232   2.184   1.412
  520TIP3    H2 1497   5.089   2.151   1.442
  521TIP3   OH2 1498   5.604   1.606   0.627
  521TIP3    H1 1499   5.679   1.576   0.570
  521TIP3    H2 1500   5.628   1.570   0.714
  522TIP3   OH2 1501   5.594   1.501   0.908
  522TIP3    H1 1502   5.505   1.539   0.922
  522TIP3    H2 1503   5.651   1.561   0.960
  523TIP3   OH2 1504   5.300   1.922  -0.006
  523TIP3    H1 1505   5.254   1.836  -0.006
  523TIP3    H2 1506   5.308   1.939   0.091
  524TIP3   OH2 1507   6.229   2.126   0.639
  524TIP3    H1 1508   6.250   2.186   0.564
  524TIP3    H2 1509   6.138   2.096   0.616
  525TIP3   OH2 1510   5.708   2.206   1.017
  525TIP3    H1 1511   5.758   2.201   1.099
  525TIP3    H2 1512   5.711   2.301   0.997
  526TIP3   OH2 1513   5.016   1.912   0.682
  526TIP3    H1 1514   5.056   1.888   0.596
  526TIP3    H2 1515   5.067   1.857   0.743
  527TIP3   OH2 1516   5.454   2.057  -0.191
  527TIP3    H1 1517   5.442   2.147  -0.155
  527TIP3    H2 1518   5.404   2.004  -0.126
  528TIP3   OH2 1519   4.900   1.839   1.294
  528TIP3    H1 1520   4.920   1.825   1.389
  528TIP3    H2 1521   4.832   1.771   1.278
  529TIP3   OH2 1522   5.627   1.950   1.318
  529TIP3    H1 1523   5.568   1.895   1.263
  529TIP3    H2 1524   5.715   1.919   1.287
  530TIP3   OH2 1525   5.878   2.437   0.940
  530TIP3    H1 1526   5.813   2.470   0.877
  530TIP3    H2 1527   5.903   2.518   0.988
  531TIP3   OH2 1528   6.524   2.409   0.885
  531TIP3    H1 1529   6.427   2.400   0.878
  531TIP3    H2 1530   6.549   2.375   0.796
  532TIP3   OH2 1531   5.985   2.014   0.564
  532TIP3    H1 1532   5.893   1.984   0.581
  532TIP3    H2 1533   6.022   1.931   0.526
  533TIP3   OH2 1534   5.123   2.220   0.312
  533TIP3    H1 1535   5.136   2.298   0.255
  533TIP3    H2 1536   5.028   2.208   0.309
  534TIP3   OH2 1537   4.696   1.516   0.034
  534TIP3    H1 1538   4.736   1.604   0.032
  534TIP3    H2 1539   4.612   1.531   0.080
  535TIP3   OH2 1540   5.264   1.985   0.258
  535TIP3    H1 1541   5.231   2.076   0.271
  535TIP3    H2 1542   5.224   1.939   0.333
  536TIP3   OH2 1543   5.391   2.564   0.773
  536TIP3    H1 1544   5.437   2.635   0.724
  536TIP3    H2 1545   5.465   2.529   0.827
  537TIP3   OH2 1546   5.035   2.460   0.153
  537TIP3    H1 1547   4.952   2.468   0.203
  537TIP3    H2 1548   5.071   2.551   0.160
  538TIP3   OH2 1549   5.769   2.185   0.733
  538TIP3    H1 1550   5.773   2.188   0.830
  538TIP3    H2 1551   5.862   2.178   0.708
  539TIP3   OH2 1552   6.017   2.757   0.812
  539TIP3    H1 1553   6.031   2.669   0.768
  539TIP3    H2 1554   6.006   2.811   0.731
  540TIP3   OH2 1555   5.113   1.344   1.305
  540TIP3    H1 1556   5.017   1.347   1.317
  540TIP3    H2 1557   5.141   1.283   1.375
  541TIP3   OH2 1558   4.827   2.428   0.931
  541TIP3    H1 1559   4.891   2.361   0.961
  541TIP3    H2 1560   4.822   2.486   1.008
  542TIP3   OH2 1561   5.156   2.041  -0.349
  542TIP3    H1 1562   5.097   1.989  -0.406
  542TIP3    H2 1563   5.110   2.038  -0.263
  543TIP3   OH2 1564   5.059   2.076  -0.086
  543TIP3    H1 1565   5.144   2.043  -0.050
  543TIP3    H2 1566   5.071   2.173  -0.084
  544TIP3   OH2 1567   4.803   1.776   0.095
  544TIP3    H1 1568   4.738   1.826   0.148
  544TIP3    H2 1569   4.825   1.840   0.025
  545TIP3   OH2 1570   5.948   1.409   0.991
  545TIP3    H1 1571   6.028   1.451   1.028
  545TIP3    H2 1572   5.938   1.329   1.046
  546TIP3   OH2 1573   5.337   2.321  -0.161
  546TIP3    H1 1574   5.243   2.324  -0.136
  546TIP3    H2 1575   5.333   2.312  -0.257
  547TIP3   OH2 1576   5.786   1.653   1.062
  547TIP3    H1 1577   5.807   1.711   1.138
  547TIP3    H2 1578   5.846   1.578   1.077
  548TIP3   OH2 1579   5.070   2.349  -0.099
  548TIP3    H1 1580   5.047   2.423  -0.159
  548TIP3    H2 1581   5.056   2.390  -0.010
  549TIP3   OH2 1582   6.428   1.553   1.067
  549TIP3    H1 1583   6.333   1.547   1.044
  549TIP3    H2 1584   6.470   1.559   0.978
  550TIP3   OH2 1585   6.075   1.770   0.472
  550TIP3    H1 1586   5.999   1.713   0.493
  550TIP3    H2 1587   6.143   1.730   0.529
  551TIP3   OH2 1588   4.789   2.003  -0.093
  551TIP3    H1 1589   4.873   2.051  -0.078
  551TIP3    H2 1590   4.825   1.936  -0.156
  552TIP3   OH2 1591   6.023   2.751   0.374
  552TIP3    H1 1592   6.014   2.787   0.285
  552TIP3    H2 1593   6.115   2.717   0.372
  553TIP3   OH2 1594   5.116   0.975   0.911
  553TIP3    H1 1595   5.101   0.922   0.831
  553TIP3    H2 1596   5.110   0.905   0.978
  554TIP3   OH2 1597   4.665   2.196   0.285
  554TIP3    H1 1598   4.592   2.227   0.340
  554TIP3    H2 1599   4.642   2.235   0.198
  555TIP3   OH2 1600   4.822   2.746   1.353
  555TIP3    H1 1601   4.906   2.729   1.400
  555TIP3    H2 1602   4.797   2.656   1.325
  556TIP3   OH2 1603   5.302   2.699   1.404
  556TIP3    H1 1604   5.398   2.683   1.406
  556TIP3    H2 1605   5.277   2.643   1.328
  557TIP3   OH2 1606   5.928   2.624   1.149
  557TIP3    H1 1607   5.927   2.545   1.206
  557TIP3    H2 1608   6.015   2.664   1.168
  558TIP3   OH2 1609   4.951   2.144   1.561
  558TIP3    H1 1610   4.970   2.048   1.563
  558TIP3    H2 1611   4.864   2.143   1.513
  559TIP3   OH2 1612   4.923   1.816  -0.224
  559TIP3    H1 1613   4.991   1.758  -0.187
  559TIP3    H2 1614   4.948   1.818  -0.319
  560TIP3   OH2 1615   5.554   2.225   1.334
  560TIP3    H1 1616   5.521   2.248   1.244
  560TIP3    H2 1617   5.588   2.134   1.321
  561TIP3   OH2 1618   6.052   2.229   0.936
  561TIP3    H1 1619   6.125   2.273   0.887
  561TIP3    H2 1620   5.985   2.302   0.936
  562TIP3   OH2 1621   5.070   1.881   1.536
  562TIP3    H1 1622   5.142   1.821   1.512
  562TIP3    H2 1623   5.097   1.907   1.627
  563TIP3   OH2 1624   5.131   1.688  -0.026
  563TIP3    H1 1625   5.102   1.671   0.066
  563TIP3    H2 1626   5.155   1.600  -0.058
  564TIP3   OH2 1627   5.405   1.761   1.198
  564TIP3    H1 1628   5.328   1.822   1.199
  564TIP3    H2 1629   5.456   1.795   1.121
  565TIP3   OH2 1630   5.922   2.163   1.336
  565TIP3    H1 1631   5.997   2.138   1.281
  565TIP3    H2 1632   5.922   2.093   1.404
  566TIP3   OH2 1633   5.528   1.551   1.328
  566TIP3    H1 1634   5.528   1.471   1.272
  566TIP3    H2 1635   5.485   1.617   1.268
  567TIP3   OH2 1636   5.530   1.338   1.137
  567TIP3    H1 1637   5.557   1.378   1.052
  567TIP3    H2 1638   5.437   1.313   1.118
  568TIP3   OH2 1639   5.560   1.870   1.005
  568TIP3    H1 1640   5.645   1.887   0.963
  568TIP3    H2 1641   5.504   1.940   0.964
  569TIP3   OH2 1642   6.142   1.839   1.390
  569TIP3    H1 1643   6.192   1.755   1.393
  569TIP3    H2 1644   6.208   1.898   1.350
  570TIP3   OH2 1645   6.178   2.095   1.129
  570TIP3    H1 1646   6.122   2.147   1.066
  570TIP3    H2 1647   6.267   2.113   1.089
  571TIP3   OH2 1648   5.406   1.662   1.559
  571TIP3    H1 1649   5.338   1.593   1.572
  571TIP3    H2 1650   5.441   1.639   1.471
  572TIP3   OH2 1651   5.663   1.101   1.201
  572TIP3    H1 1652   5.610   1.181   1.180
  572TIP3    H2 1653   5.598   1.029   1.188
  573TIP3   OH2 1654   5.789   1.604   1.417
  573TIP3    H1 1655   5.776   1.591   1.513
  573TIP3    H2 1656   5.700   1.580   1.385
  574TIP3   OH2 1657   6.030   1.554   1.272
  574TIP3    H1 1658   5.955   1.556   1.334
  574TIP3    H2 1659   6.104   1.524   1.329
  575TIP3   OH2 1660   6.256   1.494   1.425
  575TIP3    H1 1661   6.266   1.398   1.443
  575TIP3    H2 1662   6.255   1.533   1.515
  576TIP3   OH2 1663   5.246   1.442   1.610
  576TIP3    H1 1664   5.251   1.351   1.575
  576TIP3    H2 1665   5.282   1.429   1.700
  577TIP3   OH2 1666   5.748   1.113   1.462
  577TIP3    H1 1667   5.820   1.046   1.460
  577TIP3    H2 1668   5.714   1.106   1.371
  578TIP3   OH2 1669   5.824   1.325   1.618
  578TIP3    H1 1670   5.801   1.254   1.555
  578TIP3    H2 1671   5.746   1.384   1.612
  579TIP3   OH2 1672   5.058   2.545  -0.296
  579TIP3    H1 1673   5.146   2.536  -0.338
  579TIP3    H2 1674   5.014   2.605  -0.357
  580TIP3   OH2 1675   4.528   1.932  -0.055
  580TIP3    H1 1676   4.616   1.973  -0.071
  580TIP3    H2 1677   4.534   1.855  -0.113
  581TIP3   OH2 1678   4.437   2.548   0.349
  581TIP3    H1 1679   4.371   2.485   0.313
  581TIP3    H2 1680   4.483   2.492   0.415
  582TIP3   OH2 1681   4.573   2.400   0.536
  582TIP3    H1 1682   4.565   2.325   0.597
  582TIP3    H2 1683   4.624   2.462   0.592
  583TIP3   OH2 1684   6.302   2.814   0.329
  583TIP3    H1 1685   6.326   2.828   0.422
  583TIP3    H2 1686   6.387   2.820   0.282
  584TIP3   OH2 1687   6.325   2.816   0.613
  584TIP3    H1 1688   6.261   2.741   0.610
  584TIP3    H2 1689   6.394   2.777   0.668
  585TIP3   OH2 1690   6.380   2.495   1.192
  585TIP3    H1 1691   6.305   2.504   1.253
  585TIP3    H2 1692   6.419   2.585   1.194
  586TIP3   OH2 1693   6.375   2.272   0.457
  586TIP3    H1 1694   6.424   2.214   0.397
  586TIP3    H2 1695   6.352   2.347   0.399
  587TIP3   OH2 1696   4.762   1.804   0.906
  587TIP3    H1 1697   4.761   1.776   0.813
  587TIP3    H2 1698   4.859   1.808   0.923
  588TIP3   OH2 1699   6.421   2.158   1.020
  588TIP3    H1 1700   6.495   2.095   1.007
  588TIP3    H2 1701   6.433   2.222   0.948
  589TIP3   OH2 1702   6.607   1.966   1.033
  589TIP3    H1 1703   6.533   1.916   1.073
  589TIP3    H2 1704   6.679   1.900   1.045
  590TIP3   OH2 1705   6.283   1.641   0.609
  590TIP3    H1 1706   6.378   1.635   0.585
  590TIP3    H2 1707   6.293   1.688   0.694
  591TIP3   OH2 1708   6.368   1.797   0.819
  591TIP3    H1 1709   6.284   1.835   0.853
  591TIP3    H2 1710   6.404   1.870   0.764
  592TIP3   OH2 1711   4.979   1.494   1.582
  592TIP3    H1 1712   5.077   1.486   1.582
  592TIP3    H2 1713   4.955   1.408   1.622
  593TIP3   OH2 1714   6.820   1.356   1.337
  593TIP3    H1 1715   6.865   1.291   1.281
  593TIP3    H2 1716   6.781   1.416   1.270
  594TIP3   OH2 1717   4.940   1.187   0.916
  594TIP3    H1 1718   5.002   1.111   0.923
  594TIP3    H2 1719   5.002   1.262   0.917
  595TIP3   OH2 1720   4.743   1.459   0.984
  595TIP3    H1 1721   4.791   1.453   0.899
  595TIP3    H2 1722   4.773   1.545   1.017
  596TIP3   OH2 1723   6.683   1.508   1.161
  596TIP3    H1 1724   6.589   1.537   1.160
  596TIP3    H2 1725   6.680   1.441   1.091
  597TIP3   OH2 1726   4.699   1.001   0.510
  597TIP3    H1 1727   4.608   0.979   0.537
  597TIP3    H2 1728   4.684   1.067   0.441
  598TIP3   OH2 1729   5.887   2.643   0.004
  598TIP3    H1 1730   5.897   2.598  -0.081
  598TIP3    H2 1731   5.941   2.722  -0.010
  599TIP3   OH2 1732   4.946   1.045   1.301
  599TIP3    H1 1733   4.894   1.039   1.383
  599TIP3    H2 1734   4.879   1.080   1.240
  600TIP3   OH2 1735   4.967   2.479   1.374
  600TIP3    H1 1736   4.915   2.404   1.339
  600TIP3    H2 1737   4.992   2.448   1.462
  601TIP3   OH2 1738   5.169   2.502   0.928
  601TIP3    H1 1739   5.117   2.573   0.886
  601TIP3    H2 1740   5.254   2.518   0.881
  602TIP3   OH2 1741   5.609   2.751   1.067
  602TIP3    H1 1742   5.658   2.751   1.152
  602TIP3    H2 1743   5.673   2.796   1.009
  603TIP3   OH2 1744   5.782   2.901   0.919
  603TIP3    H1 1745   5.841   2.842   0.867
  603TIP3    H2 1746   5.847   2.948   0.975
  604TIP3   OH2 1747   4.840   2.766   0.940
  604TIP3    H1 1748   4.751   2.803   0.923
  604TIP3    H2 1749   4.845   2.777   1.036
  605TIP3   OH2 1750   5.079   2.739   0.806
  605TIP3    H1 1751   4.992   2.753   0.850
  605TIP3    H2 1752   5.059   2.768   0.715
  606TIP3   OH2 1753   5.493   2.767   0.599
  606TIP3    H1 1754   5.424   2.797   0.537
  606TIP3    H2 1755   5.515   2.850   0.646
  607TIP3   OH2 1756   5.758   2.734   0.672
  607TIP3    H1 1757   5.672   2.728   0.627
  607TIP3    H2 1758   5.818   2.765   0.603
  608TIP3   OH2 1759   5.997   2.917   0.582
  608TIP3    H1 1760   5.967   2.989   0.524
  608TIP3    H2 1761   6.010   2.845   0.515
  609TIP3   OH2 1762   4.752   2.553   0.693
  609TIP3    H1 1763   4.783   2.528   0.783
  609TIP3    H2 1764   4.823   2.509   0.640
  610TIP3   OH2 1765   4.946   2.424   0.550
  610TIP3    H1 1766   4.961   2.340   0.598
  610TIP3    H2 1767   5.037   2.460   0.547
  611TIP3   OH2 1768   5.211   2.522   0.554
  611TIP3    H1 1769   5.246   2.433   0.534
  611TIP3    H2 1770   5.260   2.540   0.636
  612TIP3   OH2 1771   4.540   2.323   0.082
  612TIP3    H1 1772   4.455   2.288   0.050
  612TIP3    H2 1773   4.524   2.418   0.069
  613TIP3   OH2 1774   5.244   1.167   1.548
  613TIP3    H1 1775   5.210   1.095   1.605
  613TIP3    H2 1776   5.339   1.166   1.575
  614TIP3   OH2 1777   5.494   1.164   1.667
  614TIP3    H1 1778   5.577   1.137   1.624
  614TIP3    H2 1779   5.482   1.093   1.733
  615TIP3   OH2 1780   4.648   2.365  -0.240
  615TIP3    H1 1781   4.602   2.394  -0.161
  615TIP3    H2 1782   4.682   2.279  -0.214
  616TIP3   OH2 1783   6.305   1.222   1.459
  616TIP3    H1 1784   6.330   1.195   1.550
  616TIP3    H2 1785   6.393   1.223   1.415
  617TIP3   OH2 1786   6.256   2.775   0.949
  617TIP3    H1 1787   6.178   2.740   0.899
  617TIP3    H2 1788   6.232   2.870   0.950
  618TIP3   OH2 1789   6.842   2.068   0.455
  618TIP3    H1 1790   6.878   2.051   0.543
  618TIP3    H2 1791   6.887   2.152   0.436
  619TIP3   OH2 1792   6.790   2.460   0.207
  619TIP3    H1 1793   6.759   2.386   0.153
  619TIP3    H2 1794   6.886   2.445   0.211
  620TIP3   OH2 1795   7.070   2.307   0.307
  620TIP3    H1 1796   7.047   2.377   0.373
  620TIP3    H2 1797   7.165   2.293   0.332
  621TIP3   OH2 1798   6.995   2.502   0.483
  621TIP3    H1 1799   6.973   2.591   0.447
  621TIP3    H2 1800   6.917   2.489   0.542
  622TIP3   OH2 1801   7.210   2.609   0.622
  622TIP3    H1 1802   7.148   2.675   0.660
  622TIP3    H2 1803   7.146   2.556   0.570
  623TIP3   OH2 1804   6.948   2.168   0.706
  623TIP3    H1 1805   6.967   2.252   0.752
  623TIP3    H2 1806   6.857   2.151   0.737
  624TIP3   OH2 1807   7.002   2.779   0.698
  624TIP3    H1 1808   6.968   2.781   0.606
  624TIP3    H2 1809   6.922   2.757   0.749
  625TIP3   OH2 1810   6.584   2.302   0.643
  625TIP3    H1 1811   6.508   2.289   0.581
  625TIP3    H2 1812   6.610   2.210   0.663
  626TIP3   OH2 1813   6.441   2.497   0.274
  626TIP3    H1 1814   6.536   2.511   0.269
  626TIP3    H2 1815   6.413   2.569   0.331
  627TIP3   OH2 1816   7.400   2.732   0.464
  627TIP3    H1 1817   7.398   2.824   0.496
  627TIP3    H2 1818   7.332   2.691   0.521
  628TIP3   OH2 1819   6.777   2.495   0.644
  628TIP3    H1 1820   6.828   2.472   0.725
  628TIP3    H2 1821   6.705   2.429   0.645
  629TIP3   OH2 1822   6.973   1.862   0.744
  629TIP3    H1 1823   6.914   1.936   0.762
  629TIP3    H2 1824   6.915   1.797   0.703
  630TIP3   OH2 1825   6.948   2.411   0.854
  630TIP3    H1 1826   7.027   2.443   0.901
  630TIP3    H2 1827   6.883   2.410   0.928
  631TIP3   OH2 1828   7.518   2.448   0.565
  631TIP3    H1 1829   7.501   2.478   0.655
  631TIP3    H2 1830   7.501   2.526   0.512
  632TIP3   OH2 1831   6.702   2.083   0.781
  632TIP3    H1 1832   6.712   2.074   0.878
  632TIP3    H2 1833   6.623   2.027   0.765
  633TIP3   OH2 1834   7.418   2.206   0.805
  633TIP3    H1 1835   7.342   2.155   0.767
  633TIP3    H2 1836   7.485   2.185   0.737
  634TIP3   OH2 1837   7.185   2.836   0.304
  634TIP3    H1 1838   7.193   2.847   0.208
  634TIP3    H2 1839   7.271   2.796   0.328
  635TIP3   OH2 1840   6.628   2.684   0.430
  635TIP3    H1 1841   6.677   2.605   0.458
  635TIP3    H2 1842   6.662   2.749   0.492
  636TIP3   OH2 1843   6.615   2.993   0.843
  636TIP3    H1 1844   6.701   2.987   0.888
  636TIP3    H2 1845   6.589   2.899   0.840
  637TIP3   OH2 1846   7.099   2.958   0.888
  637TIP3    H1 1847   7.193   2.934   0.894
  637TIP3    H2 1848   7.070   2.901   0.813
  638TIP3   OH2 1849   6.749   2.400   1.046
  638TIP3    H1 1850   6.763   2.304   1.052
  638TIP3    H2 1851   6.662   2.404   1.000
  639TIP3   OH2 1852   7.369   2.484   0.812
  639TIP3    H1 1853   7.314   2.500   0.733
  639TIP3    H2 1854   7.383   2.386   0.809
  640TIP3   OH2 1855   6.869   2.132   1.024
  640TIP3    H1 1856   6.946   2.078   1.003
  640TIP3    H2 1857   6.892   2.165   1.113
  641TIP3   OH2 1858   7.218   2.070   0.684
  641TIP3    H1 1859   7.124   2.087   0.702
  641TIP3    H2 1860   7.212   2.000   0.617
  642TIP3   OH2 1861   7.173   1.941   1.056
  642TIP3    H1 1862   7.109   1.873   1.086
  642TIP3    H2 1863   7.197   1.906   0.968
  643TIP3   OH2 1864   7.027   1.716   1.120
  643TIP3    H1 1865   7.061   1.661   1.046
  643TIP3    H2 1866   7.073   1.678   1.198
  644TIP3   OH2 1867   6.366   2.658   0.027
  644TIP3    H1 1868   6.347   2.578   0.077
  644TIP3    H2 1869   6.423   2.706   0.089
  645TIP3   OH2 1870   6.566   2.063   0.408
  645TIP3    H1 1871   6.567   1.998   0.336
  645TIP3    H2 1872   6.661   2.078   0.422
  646TIP3   OH2 1873   6.765   1.751   1.063
  646TIP3    H1 1874   6.863   1.745   1.075
  646TIP3    H2 1875   6.738   1.669   1.109
  647TIP3   OH2 1876   6.782   2.729   0.866
  647TIP3    H1 1877   6.692   2.700   0.843
  647TIP3    H2 1878   6.787   2.705   0.959
  648TIP3   OH2 1879   6.952   2.764   0.419
  648TIP3    H1 1880   6.904   2.834   0.370
  648TIP3    H2 1881   7.042   2.781   0.381
  649TIP3   OH2 1882   7.403   3.005   0.548
  649TIP3    H1 1883   7.452   3.009   0.634
  649TIP3    H2 1884   7.464   3.048   0.486
  650TIP3   OH2 1885   7.571   3.128   0.340
  650TIP3    H1 1886   7.609   3.106   0.253
  650TIP3    H2 1887   7.592   3.222   0.346
  651TIP3   OH2 1888   6.632   3.015   0.445
  651TIP3    H1 1889   6.548   3.054   0.413
  651TIP3    H2 1890   6.630   3.042   0.537
  652TIP3   OH2 1891   6.857   2.996   0.290
  652TIP3    H1 1892   6.781   3.003   0.352
  652TIP3    H2 1893   6.822   3.047   0.216
  653TIP3   OH2 1894   6.541   2.804   0.194
  653TIP3    H1 1895   6.579   2.776   0.281
  653TIP3    H2 1896   6.617   2.780   0.136
  654TIP3   OH2 1897   6.755   2.696   0.063
  654TIP3    H1 1898   6.759   2.609   0.109
  654TIP3    H2 1899   6.840   2.699   0.018
  655TIP3   OH2 1900   0.880   2.674   2.046
  655TIP3    H1 1901   0.806   2.715   1.997
  655TIP3    H2 1902   0.892   2.737   2.119
  656TIP3   OH2 1903   0.355   3.486   1.649
  656TIP3    H1 1904   0.289   3.416   1.657
  656TIP3    H2 1905   0.334   3.523   1.559
  657TIP3   OH2 1906   0.515   3.400   1.986
  657TIP3    H1 1907   0.511   3.323   1.925
  657TIP3    H2 1908   0.504   3.476   1.925
  658TIP3   OH2 1909   0.723   3.024   1.826
  658TIP3    H1 1910   0.644   3.081   1.832
  658TIP3    H2 1911   0.756   3.046   1.737
  659TIP3   OH2 1912   0.435   2.906   2.147
  659TIP3    H1 1913   0.403   2.986   2.193
  659TIP3    H2 1914   0.358   2.885   2.090
  660TIP3   OH2 1915   0.756   3.740   2.023
  660TIP3    H1 1916   0.752   3.643   2.038
  660TIP3    H2 1917   0.671   3.766   2.066
  661TIP3   OH2 1918  -0.124   3.531   2.177
  661TIP3    H1 1919  -0.131   3.627   2.195
  661TIP3    H2 1920  -0.215   3.504   2.197
  662TIP3   OH2 1921   0.653   2.870   2.303
  662TIP3    H1 1922   0.572   2.886   2.250
  662TIP3    H2 1923   0.657   2.772   2.298
  663TIP3   OH2 1924   0.113   2.859   2.496
  663TIP3    H1 1925   0.119   2.775   2.542
  663TIP3    H2 1926   0.207   2.886   2.495
  664TIP3   OH2 1927   0.442   4.089   2.121
  664TIP3    H1 1928   0.441   4.114   2.027
  664TIP3    H2 1929   0.519   4.140   2.154
  665TIP3   OH2 1930   0.499   3.174   1.828
  665TIP3    H1 1931   0.497   3.201   1.733
  665TIP3    H2 1932   0.438   3.099   1.826
  666TIP3   OH2 1933   0.001   3.286   2.202
  666TIP3    H1 1934   0.018   3.284   2.297
  666TIP3    H2 1935  -0.042   3.373   2.192
  667TIP3   OH2 1936   0.129   3.533   2.070
  667TIP3    H1 1937   0.038   3.543   2.104
  667TIP3    H2 1938   0.178   3.576   2.144
  668TIP3   OH2 1939   0.765   3.453   2.076
  668TIP3    H1 1940   0.667   3.446   2.065
  668TIP3    H2 1941   0.795   3.421   1.988
  669TIP3   OH2 1942   0.273   3.779   1.964
  669TIP3    H1 1943   0.196   3.719   1.953
  669TIP3    H2 1944   0.255   3.847   1.895
  670TIP3   OH2 1945   0.661   2.600   2.226
  670TIP3    H1 1946   0.571   2.566   2.224
  670TIP3    H2 1947   0.688   2.598   2.133
  671TIP3   OH2 1948   0.292   3.789   1.579
  671TIP3    H1 1949   0.246   3.799   1.494
  671TIP3    H2 1950   0.386   3.794   1.550
  672TIP3   OH2 1951  -0.452   3.748   2.580
  672TIP3    H1 1952  -0.364   3.737   2.617
  672TIP3    H2 1953  -0.441   3.710   2.492
  673TIP3   OH2 1954   0.201   3.646   2.306
  673TIP3    H1 1955   0.185   3.581   2.378
  673TIP3    H2 1956   0.271   3.702   2.345
  674TIP3   OH2 1957  -0.156   3.294   2.499
  674TIP3    H1 1958  -0.214   3.271   2.424
  674TIP3    H2 1959  -0.141   3.209   2.542
  675TIP3   OH2 1960   0.296   3.264   2.096
  675TIP3    H1 1961   0.362   3.331   2.069
  675TIP3    H2 1962   0.216   3.318   2.111
  676TIP3   OH2 1963   0.166   3.204   2.508
  676TIP3    H1 1964   0.251   3.185   2.466
  676TIP3    H2 1965   0.167   3.142   2.583
  677TIP3   OH2 1966   0.387   2.879   2.565
  677TIP3    H1 1967   0.438   2.801   2.591
  677TIP3    H2 1968   0.457   2.936   2.530
  678TIP3   OH2 1969   0.426   3.149   2.305
  678TIP3    H1 1970   0.370   3.191   2.235
  678TIP3    H2 1971   0.515   3.164   2.264
  679TIP3   OH2 1972   0.533   2.544   2.593
  679TIP3    H1 1973   0.533   2.447   2.613
  679TIP3    H2 1974   0.514   2.583   2.681
  680TIP3   OH2 1975   0.553   3.842   1.513
  680TIP3    H1 1976   0.576   3.879   1.601
  680TIP3    H2 1977   0.601   3.901   1.454
  681TIP3   OH2 1978   0.588   3.874   1.791
  681TIP3    H1 1979   0.542   3.787   1.794
  681TIP3    H2 1980   0.660   3.854   1.853
  682TIP3   OH2 1981   0.625   3.540   2.366
  682TIP3    H1 1982   0.552   3.549   2.431
  682TIP3    H2 1983   0.666   3.629   2.370
  683TIP3   OH2 1984   0.709   3.361   1.613
  683TIP3    H1 1985   0.719   3.270   1.580
  683TIP3    H2 1986   0.659   3.405   1.542
  684TIP3   OH2 1987   0.474   3.632   1.840
  684TIP3    H1 1988   0.397   3.672   1.885
  684TIP3    H2 1989   0.432   3.586   1.764
  685TIP3   OH2 1990   0.672   3.202   2.194
  685TIP3    H1 1991   0.743   3.136   2.183
  685TIP3    H2 1992   0.698   3.273   2.133
  686TIP3   OH2 1993   0.861   3.009   2.206
  686TIP3    H1 1994   0.785   2.961   2.246
  686TIP3    H2 1995   0.933   2.947   2.230
  687TIP3   OH2 1996   0.641   2.801   1.965
  687TIP3    H1 1997   0.563   2.826   2.017
  687TIP3    H2 1998   0.657   2.883   1.915
  688TIP3   OH2 1999   1.071   2.410   2.522
  688TIP3    H1 2000   1.128   2.347   2.473
  688TIP3    H2 2001   1.034   2.464   2.448
  689TIP3   OH2 2002   0.932   2.544   2.327
  689TIP3    H1 2003   0.848   2.583   2.358
  689TIP3    H2 2004   0.905   2.508   2.241
  690TIP3   OH2 2005  -0.139   3.795   2.239
  690TIP3    H1 2006  -0.100   3.796   2.329
  690TIP3    H2 2007  -0.073   3.847   2.189
  691TIP3   OH2 2008   0.044   3.937   2.097
  691TIP3    H1 2009   0.121   3.890   2.061
  691TIP3    H2 2010   0.089   4.001   2.157
  692TIP3   OH2 2011   0.019   3.764   1.817
  692TIP3    H1 2012  -0.074   3.774   1.841
  692TIP3    H2 2013   0.046   3.856   1.799
  693TIP3   OH2 2014   0.229   3.968   1.768
  693TIP3    H1 2015   0.211   4.048   1.714
  693TIP3    H2 2016   0.249   3.902   1.697
  694TIP3   OH2 2017   0.582   2.274   2.641
  694TIP3    H1 2018   0.595   2.246   2.733
  694TIP3    H2 2019   0.663   2.242   2.598
  695TIP3   OH2 2020   0.509   3.822   2.121
  695TIP3    H1 2021   0.429   3.789   2.076
  695TIP3    H2 2022   0.487   3.917   2.127
  696TIP3   OH2 2023   1.772   3.200   0.891
  696TIP3    H1 2024   1.752   3.291   0.864
  696TIP3    H2 2025   1.685   3.170   0.919
  697TIP3   OH2 2026   1.787   3.192   1.271
  697TIP3    H1 2027   1.807   3.156   1.359
  697TIP3    H2 2028   1.730   3.123   1.233
  698TIP3   OH2 2029   1.076   3.090   1.635
  698TIP3    H1 2030   1.099   3.016   1.694
  698TIP3    H2 2031   1.158   3.141   1.639
  699TIP3   OH2 2032   2.003   3.499   0.958
  699TIP3    H1 2033   2.008   3.420   1.013
  699TIP3    H2 2034   2.058   3.562   1.007
  700TIP3   OH2 2035   1.044   3.488   1.354
  700TIP3    H1 2036   1.023   3.392   1.355
  700TIP3    H2 2037   1.131   3.487   1.394
  701TIP3   OH2 2038   1.668   3.960   0.973
  701TIP3    H1 2039   1.711   3.889   0.922
  701TIP3    H2 2040   1.679   3.929   1.064
  702TIP3   OH2 2041   2.586   2.747   1.320
  702TIP3    H1 2042   2.616   2.835   1.348
  702TIP3    H2 2043   2.605   2.751   1.225
  703TIP3   OH2 2044   1.983   2.922   1.354
  703TIP3    H1 2045   2.024   2.835   1.372
  703TIP3    H2 2046   1.951   2.908   1.263
  704TIP3   OH2 2047   2.008   2.676   0.954
  704TIP3    H1 2048   2.090   2.659   1.006
  704TIP3    H2 2049   2.046   2.694   0.866
  705TIP3   OH2 2050   1.403   2.973   1.232
  705TIP3    H1 2051   1.498   2.953   1.247
  705TIP3    H2 2052   1.391   2.931   1.145
  706TIP3   OH2 2053   2.664   2.970   1.514
  706TIP3    H1 2054   2.584   3.007   1.472
  706TIP3    H2 2055   2.622   2.917   1.584
  707TIP3   OH2 2056   1.315   2.557   1.756
  707TIP3    H1 2057   1.247   2.602   1.701
  707TIP3    H2 2058   1.272   2.568   1.843
  708TIP3   OH2 2059   1.656   3.418   0.771
  708TIP3    H1 2060   1.610   3.402   0.688
  708TIP3    H2 2061   1.617   3.503   0.797
  709TIP3   OH2 2062   1.430   3.346   1.545
  709TIP3    H1 2063   1.350   3.387   1.582
  709TIP3    H2 2064   1.494   3.417   1.558
  710TIP3   OH2 2065   2.228   2.667   1.115
  710TIP3    H1 2066   2.216   2.622   1.199
  710TIP3    H2 2067   2.279   2.746   1.139
  711TIP3   OH2 2068   1.160   2.694   1.582
  711TIP3    H1 2069   1.232   2.760   1.577
  711TIP3    H2 2070   1.176   2.637   1.505
  712TIP3   OH2 2071   1.246   3.530   1.632
  712TIP3    H1 2072   1.222   3.622   1.608
  712TIP3    H2 2073   1.171   3.511   1.694
  713TIP3   OH2 2074   2.069   3.743   1.135
  713TIP3    H1 2075   1.973   3.732   1.141
  713TIP3    H2 2076   2.076   3.825   1.080
  714TIP3   OH2 2077   2.377   2.646   1.486
  714TIP3    H1 2078   2.287   2.666   1.452
  714TIP3    H2 2079   2.434   2.675   1.412
  715TIP3   OH2 2080   1.698   2.289   1.456
  715TIP3    H1 2081   1.659   2.201   1.456
  715TIP3    H2 2082   1.618   2.345   1.464
  716TIP3   OH2 2083   1.784   3.788   0.796
  716TIP3    H1 2084   1.829   3.703   0.775
  716TIP3    H2 2085   1.849   3.850   0.755
  717TIP3   OH2 2086   1.920   3.573   0.703
  717TIP3    H1 2087   1.922   3.495   0.644
  717TIP3    H2 2088   1.954   3.534   0.787
  718TIP3   OH2 2089   2.311   3.648   1.462
  718TIP3    H1 2090   2.304   3.574   1.399
  718TIP3    H2 2091   2.297   3.726   1.403
  719TIP3   OH2 2092   2.514   3.295   1.317
  719TIP3    H1 2093   2.430   3.347   1.315
  719TIP3    H2 2094   2.548   3.316   1.227
  720TIP3   OH2 2095   1.949   3.129   0.691
  720TIP3    H1 2096   1.893   3.150   0.770
  720TIP3    H2 2097   2.031   3.098   0.734
  721TIP3   OH2 2098   2.186   3.167   1.600
  721TIP3    H1 2099   2.181   3.249   1.651
  721TIP3    H2 2100   2.099   3.168   1.555
  722TIP3   OH2 2101   1.315   3.100   1.461
  722TIP3    H1 2102   1.346   3.063   1.375
  722TIP3    H2 2103   1.366   3.183   1.469
  723TIP3   OH2 2104   1.795   3.737   1.253
  723TIP3    H1 2105   1.829   3.824   1.285
  723TIP3    H2 2106   1.845   3.672   1.308
  724TIP3   OH2 2107   1.454   3.653   1.782
  724TIP3    H1 2108   1.399   3.716   1.835
  724TIP3    H2 2109   1.383   3.599   1.742
  725TIP3   OH2 2110   1.212   3.216   1.882
  725TIP3    H1 2111   1.212   3.299   1.933
  725TIP3    H2 2112   1.119   3.187   1.897
  726TIP3   OH2 2113   1.533   3.674   0.799
  726TIP3    H1 2114   1.616   3.725   0.801
  726TIP3    H2 2115   1.470   3.735   0.759
  727TIP3   OH2 2116   1.250   3.819   1.875
  727TIP3    H1 2117   1.208   3.819   1.787
  727TIP3    H2 2118   1.173   3.799   1.934
  728TIP3   OH2 2119   2.096   3.598   0.107
  728TIP3    H1 2120   2.115   3.694   0.094
  728TIP3    H2 2121   2.186   3.561   0.103
  729TIP3   OH2 2122   0.849   3.355   1.842
  729TIP3    H1 2123   0.795   3.350   1.760
  729TIP3    H2 2124   0.878   3.262   1.855
  730TIP3   OH2 2125   0.708   3.584   1.423
  730TIP3    H1 2126   0.797   3.570   1.458
  730TIP3    H2 2127   0.674   3.650   1.485
  731TIP3   OH2 2128   2.548   4.001   1.506
  731TIP3    H1 2129   2.549   3.904   1.506
  731TIP3    H2 2130   2.466   4.019   1.557
  732TIP3   OH2 2131   1.643   3.787   1.632
  732TIP3    H1 2132   1.650   3.877   1.673
  732TIP3    H2 2133   1.582   3.744   1.695
  733TIP3   OH2 2134   1.375   3.874   0.606
  733TIP3    H1 2135   1.369   3.859   0.515
  733TIP3    H2 2136   1.401   3.968   0.613
  734TIP3   OH2 2137   0.850   3.769   0.972
  734TIP3    H1 2138   0.883   3.745   1.061
  734TIP3    H2 2139   0.803   3.687   0.945
  735TIP3   OH2 2140   1.619   3.811   0.240
  735TIP3    H1 2141   1.673   3.747   0.190
  735TIP3    H2 2142   1.661   3.810   0.328
  736TIP3   OH2 2143   1.669   3.863   0.514
  736TIP3    H1 2144   1.583   3.858   0.559
  736TIP3    H2 2145   1.729   3.828   0.581
  737TIP3   OH2 2146   2.491   3.138   1.756
  737TIP3    H1 2147   2.401   3.164   1.729
  737TIP3    H2 2148   2.481   3.041   1.759
  738TIP3   OH2 2149   1.043   3.539   1.808
  738TIP3    H1 2150   1.093   3.526   1.892
  738TIP3    H2 2151   0.970   3.474   1.821
  739TIP3   OH2 2152   1.969   2.475   1.789
  739TIP3    H1 2153   2.036   2.447   1.854
  739TIP3    H2 2154   1.884   2.455   1.835
  740TIP3   OH2 2155   2.214   2.907   1.712
  740TIP3    H1 2156   2.158   2.900   1.792
  740TIP3    H2 2157   2.185   2.991   1.672
  741TIP3   OH2 2158   1.371   2.879   1.613
  741TIP3    H1 2159   1.319   2.896   1.695
  741TIP3    H2 2160   1.349   2.959   1.560
  742TIP3   OH2 2161   1.765   2.881   0.848
  742TIP3    H1 2162   1.676   2.904   0.819
  742TIP3    H2 2163   1.814   2.877   0.765
  743TIP3   OH2 2164   1.915   3.124   1.942
  743TIP3    H1 2165   1.892   3.051   2.003
  743TIP3    H2 2166   2.010   3.136   1.962
  744TIP3   OH2 2167   1.897   2.880   1.096
  744TIP3    H1 2168   1.847   2.910   1.017
  744TIP3    H2 2169   1.934   2.797   1.057
  745TIP3   OH2 2170   1.191   2.906   1.820
  745TIP3    H1 2171   1.201   2.961   1.898
  745TIP3    H2 2172   1.168   2.820   1.859
  746TIP3   OH2 2173   1.909   3.120   1.520
  746TIP3    H1 2174   1.942   3.049   1.459
  746TIP3    H2 2175   1.880   3.064   1.595
  747TIP3   OH2 2176   2.069   2.659   1.393
  747TIP3    H1 2177   2.029   2.670   1.482
  747TIP3    H2 2178   2.008   2.593   1.354
  748TIP3   OH2 2179   2.239   4.346   1.608
  748TIP3    H1 2180   2.238   4.371   1.513
  748TIP3    H2 2181   2.318   4.394   1.640
  749TIP3   OH2 2182   1.199   3.459   2.030
  749TIP3    H1 2183   1.277   3.488   2.081
  749TIP3    H2 2184   1.132   3.454   2.101
  750TIP3   OH2 2185   1.666   2.909   1.285
  750TIP3    H1 2186   1.740   2.874   1.233
  750TIP3    H2 2187   1.674   2.859   1.369
  751TIP3   OH2 2188   1.637   2.805   1.578
  751TIP3    H1 2189   1.548   2.843   1.591
  751TIP3    H2 2190   1.695   2.866   1.627
  752TIP3   OH2 2191   2.275   3.432   1.298
  752TIP3    H1 2192   2.301   3.478   1.215
  752TIP3    H2 2193   2.191   3.389   1.272
  753TIP3   OH2 2194   1.752   3.511   1.670
  753TIP3    H1 2195   1.795   3.480   1.751
  753TIP3    H2 2196   1.743   3.605   1.687
  754TIP3   OH2 2197   1.054   3.210   1.343
  754TIP3    H1 2198   1.106   3.178   1.268
  754TIP3    H2 2199   1.093   3.159   1.416
  755TIP3   OH2 2200   0.955   3.126   1.957
  755TIP3    H1 2201   0.964   3.116   2.054
  755TIP3    H2 2202   0.880   3.065   1.939
  756TIP3   OH2 2203   1.671   3.253   1.980
  756TIP3    H1 2204   1.609   3.192   1.936
  756TIP3    H2 2205   1.758   3.218   1.950
  757TIP3   OH2 2206   1.928   3.771   1.562
  757TIP3    H1 2207   1.833   3.783   1.577
  757TIP3    H2 2208   1.965   3.823   1.638
  758TIP3   OH2 2209   2.344   2.843   0.456
  758TIP3    H1 2210   2.275   2.789   0.416
  758TIP3    H2 2211   2.329   2.931   0.415
  759TIP3   OH2 2212   2.571   3.684   1.535
  759TIP3    H1 2213   2.477   3.685   1.508
  759TIP3    H2 2214   2.617   3.687   1.447
  760TIP3   OH2 2215   2.045   3.664   0.377
  760TIP3    H1 2216   2.016   3.593   0.436
  760TIP3    H2 2217   2.051   3.619   0.290
  761TIP3   OH2 2218   2.038   3.297   1.218
  761TIP3    H1 2219   1.946   3.266   1.233
  761TIP3    H2 2220   2.075   3.218   1.174
  762TIP3   OH2 2221   1.194   3.557   1.001
  762TIP3    H1 2222   1.167   3.633   0.945
  762TIP3    H2 2223   1.111   3.507   1.006
  763TIP3   OH2 2224   1.365   3.315   0.973
  763TIP3    H1 2225   1.324   3.402   0.967
  763TIP3    H2 2226   1.287   3.256   0.977
  764TIP3   OH2 2227   1.474   3.824   1.409
  764TIP3    H1 2228   1.486   3.915   1.374
  764TIP3    H2 2229   1.521   3.832   1.495
  765TIP3   OH2 2230   1.096   3.757   0.851
  765TIP3    H1 2231   1.002   3.768   0.876
  765TIP3    H2 2232   1.121   3.852   0.839
  766TIP3   OH2 2233   1.821   3.510   1.400
  766TIP3    H1 2234   1.819   3.495   1.497
  766TIP3    H2 2235   1.889   3.445   1.374
  767TIP3   OH2 2236   1.809   3.425   0.292
  767TIP3    H1 2237   1.862   3.392   0.367
  767TIP3    H2 2238   1.732   3.367   0.297
  768TIP3   OH2 2239   2.071   4.036   1.449
  768TIP3    H1 2240   1.990   3.983   1.437
  768TIP3    H2 2241   2.061   4.102   1.377
  769TIP3   OH2 2242   2.140   3.875   0.093
  769TIP3    H1 2243   2.192   3.950   0.060
  769TIP3    H2 2244   2.061   3.922   0.127
  770TIP3   OH2 2245   1.154   2.643   1.971
  770TIP3    H1 2246   1.057   2.647   1.985
  770TIP3    H2 2247   1.182   2.588   2.046
  771TIP3   OH2 2248   1.961   3.353   0.522
  771TIP3    H1 2249   1.942   3.271   0.573
  771TIP3    H2 2250   2.052   3.333   0.493
  772TIP3   OH2 2251   0.888   3.726   1.606
  772TIP3    H1 2252   0.931   3.656   1.657
  772TIP3    H2 2253   0.893   3.801   1.667
  773TIP3   OH2 2254   1.992   2.715   1.653
  773TIP3    H1 2255   2.077   2.745   1.688
  773TIP3    H2 2256   1.978   2.632   1.703
  774TIP3   OH2 2257   1.377   3.568   0.483
  774TIP3    H1 2258   1.337   3.598   0.565
  774TIP3    H2 2259   1.401   3.650   0.439
  775TIP3   OH2 2260   1.833   2.958   1.724
  775TIP3    H1 2261   1.856   3.008   1.804
  775TIP3    H2 2262   1.887   2.878   1.732
  776TIP3   OH2 2263   2.475   2.855   1.682
  776TIP3    H1 2264   2.381   2.869   1.706
  776TIP3    H2 2265   2.462   2.786   1.615
  777TIP3   OH2 2266   2.125   3.056   1.093
  777TIP3    H1 2267   2.049   2.995   1.103
  777TIP3    H2 2268   2.197   3.007   1.138
  778TIP3   OH2 2269   2.093   4.006   1.040
  778TIP3    H1 2270   2.052   4.054   0.965
  778TIP3    H2 2271   2.187   4.029   1.023
  779TIP3   OH2 2272   0.865   4.036   2.018
  779TIP3    H1 2273   0.950   4.037   2.067
  779TIP3    H2 2274   0.842   3.942   2.021
  780TIP3   OH2 2275   1.348   4.003   2.065
  780TIP3    H1 2276   1.443   3.985   2.073
  780TIP3    H2 2277   1.323   3.944   1.992
  781TIP3   OH2 2278   1.987   3.906   1.795
  781TIP3    H1 2279   1.979   3.839   1.867
  781TIP3    H2 2280   2.064   3.959   1.826
  782TIP3   OH2 2281   1.770   3.618   0.101
  782TIP3    H1 2282   1.797   3.558   0.174
  782TIP3    H2 2283   1.853   3.626   0.051
  783TIP3   OH2 2284   0.999   3.445   2.221
  783TIP3    H1 2285   1.012   3.348   2.226
  783TIP3    H2 2286   0.909   3.449   2.181
  784TIP3   OH2 2287   1.605   3.528   1.993
  784TIP3    H1 2288   1.564   3.541   1.906
  784TIP3    H2 2289   1.636   3.435   1.988
  785TIP3   OH2 2290   2.096   3.540   1.602
  785TIP3    H1 2291   2.174   3.577   1.555
  785TIP3    H2 2292   2.031   3.611   1.584
  786TIP3   OH2 2293   1.117   3.181   2.202
  786TIP3    H1 2294   1.185   3.114   2.186
  786TIP3    H2 2295   1.143   3.213   2.291
  787TIP3   OH2 2296   1.454   3.069   1.871
  787TIP3    H1 2297   1.372   3.121   1.868
  787TIP3    H2 2298   1.501   3.097   1.789
  788TIP3   OH2 2299   1.966   3.464   1.996
  788TIP3    H1 2300   2.049   3.443   1.953
  788TIP3    H2 2301   1.962   3.397   2.067
  789TIP3   OH2 2302   1.575   2.850   1.990
  789TIP3    H1 2303   1.571   2.770   1.935
  789TIP3    H2 2304   1.529   2.916   1.933
  790TIP3   OH2 2305   1.574   2.635   1.798
  790TIP3    H1 2306   1.600   2.678   1.714
  790TIP3    H2 2307   1.481   2.609   1.779
  791TIP3   OH2 2308   1.604   3.169   1.670
  791TIP3    H1 2309   1.689   3.171   1.624
  791TIP3    H2 2310   1.549   3.230   1.616
  792TIP3   OH2 2311   2.183   3.140   2.053
  792TIP3    H1 2312   2.231   3.056   2.062
  792TIP3    H2 2313   2.252   3.201   2.024
  793TIP3   OH2 2314   2.234   3.393   1.786
  793TIP3    H1 2315   2.175   3.448   1.728
  793TIP3    H2 2316   2.321   3.413   1.745
  794TIP3   OH2 2317   1.455   2.963   2.223
  794TIP3    H1 2318   1.385   2.896   2.237
  794TIP3    H2 2319   1.486   2.939   2.133
  795TIP3   OH2 2320   1.708   2.402   1.865
  795TIP3    H1 2321   1.660   2.485   1.844
  795TIP3    H2 2322   1.638   2.336   1.845
  796TIP3   OH2 2323   1.833   2.906   2.082
  796TIP3    H1 2324   1.818   2.892   2.177
  796TIP3    H2 2325   1.745   2.881   2.048
  797TIP3   OH2 2326   2.073   2.858   1.937
  797TIP3    H1 2327   1.997   2.856   1.999
  797TIP3    H2 2328   2.146   2.825   1.993
  798TIP3   OH2 2329   2.300   2.795   2.086
  798TIP3    H1 2330   2.315   2.699   2.103
  798TIP3    H2 2331   2.299   2.832   2.177
  799TIP3   OH2 2332   1.293   2.746   2.272
  799TIP3    H1 2333   1.292   2.653   2.240
  799TIP3    H2 2334   1.326   2.732   2.363
  800TIP3   OH2 2335   1.804   2.411   2.122
  800TIP3    H1 2336   1.871   2.340   2.115
  800TIP3    H2 2337   1.762   2.406   2.034
  801TIP3   OH2 2338   1.869   2.626   2.280
  801TIP3    H1 2339   1.847   2.555   2.217
  801TIP3    H2 2340   1.790   2.684   2.273
  802TIP3   OH2 2341   0.622   3.738   1.209
  802TIP3    H1 2342   0.645   3.666   1.271
  802TIP3    H2 2343   0.669   3.811   1.253
  803TIP3   OH2 2344   2.341   4.110   0.997
  803TIP3    H1 2345   2.374   4.138   1.084
  803TIP3    H2 2346   2.411   4.139   0.938
  804TIP3   OH2 2347   2.374   4.121   1.281
  804TIP3    H1 2348   2.336   4.031   1.276
  804TIP3    H2 2349   2.454   4.102   1.333
  805TIP3   OH2 2350   2.422   3.796   1.854
  805TIP3    H1 2351   2.349   3.807   1.919
  805TIP3    H2 2352   2.464   3.884   1.856
  806TIP3   OH2 2353   2.240   3.305   0.467
  806TIP3    H1 2354   2.307   3.371   0.441
  806TIP3    H2 2355   2.281   3.268   0.549
  807TIP3   OH2 2356   2.365   3.176   0.675
  807TIP3    H1 2357   2.300   3.135   0.736
  807TIP3    H2 2358   2.430   3.216   0.736
  808TIP3   OH2 2359   2.389   3.558   1.088
  808TIP3    H1 2360   2.475   3.513   1.078
  808TIP3    H2 2361   2.405   3.641   1.039
  809TIP3   OH2 2362   2.252   3.869   1.306
  809TIP3    H1 2363   2.182   3.914   1.356
  809TIP3    H2 2364   2.201   3.821   1.238
  810TIP3   OH2 2365   2.284   3.076   0.314
  810TIP3    H1 2366   2.219   3.097   0.243
  810TIP3    H2 2367   2.268   3.152   0.373
  811TIP3   OH2 2368   2.180   3.034   0.823
  811TIP3    H1 2369   2.174   2.936   0.814
  811TIP3    H2 2370   2.167   3.046   0.920
  812TIP3   OH2 2371   0.812   3.102   1.578
  812TIP3    H1 2372   0.809   3.066   1.488
  812TIP3    H2 2373   0.909   3.100   1.597
  813TIP3   OH2 2374   2.481   3.450   1.670
  813TIP3    H1 2375   2.533   3.394   1.611
  813TIP3    H2 2376   2.494   3.537   1.626
  814TIP3   OH2 2377   2.170   2.766   0.734
  814TIP3    H1 2378   2.211   2.683   0.768
  814TIP3    H2 2379   2.229   2.785   0.661
  815TIP3   OH2 2380   2.339   2.925   1.212
  815TIP3    H1 2381   2.424   2.951   1.171
  815TIP3    H2 2382   2.352   2.961   1.301
  816TIP3   OH2 2383   2.410   3.070   1.442
  816TIP3    H1 2384   2.331   3.101   1.489
  816TIP3    H2 2385   2.440   3.152   1.396
  817TIP3   OH2 2386   1.027   2.801   2.260
  817TIP3    H1 2387   1.124   2.790   2.253
  817TIP3    H2 2388   1.003   2.716   2.301
  818TIP3   OH2 2389   2.847   2.659   1.995
  818TIP3    H1 2390   2.912   2.592   1.964
  818TIP3    H2 2391   2.837   2.716   1.917
  819TIP3   OH2 2392   2.291   2.541   0.805
  819TIP3    H1 2393   2.329   2.490   0.880
  819TIP3    H2 2394   2.263   2.472   0.741
  820TIP3   OH2 2395   2.734   2.807   1.793
  820TIP3    H1 2396   2.648   2.842   1.820
  820TIP3    H2 2397   2.707   2.728   1.744
  821TIP3   OH2 2398   1.941   3.956   0.656
  821TIP3    H1 2399   1.989   3.941   0.572
  821TIP3    H2 2400   1.996   4.026   0.697
  822TIP3   OH2 2401   1.033   3.767   2.040
  822TIP3    H1 2402   0.940   3.744   2.024
  822TIP3    H2 2403   1.040   3.752   2.135
  823TIP3   OH2 2404   1.211   3.798   1.583
  823TIP3    H1 2405   1.152   3.868   1.548
  823TIP3    H2 2406   1.294   3.827   1.545
  824TIP3   OH2 2407   1.656   4.045   1.723
  824TIP3    H1 2408   1.695   4.048   1.813
  824TIP3    H2 2409   1.722   4.099   1.674
  825TIP3   OH2 2410   1.836   4.197   1.584
  825TIP3    H1 2411   1.912   4.151   1.544
  825TIP3    H2 2412   1.883   4.257   1.646
  826TIP3   OH2 2413   2.628   2.560   1.684
  826TIP3    H1 2414   2.537   2.547   1.652
  826TIP3    H2 2415   2.664   2.469   1.675
  827TIP3   OH2 2416   0.890   4.058   1.616
  827TIP3    H1 2417   0.801   4.089   1.587
  827TIP3    H2 2418   0.894   4.102   1.702
  828TIP3   OH2 2419   1.123   4.034   1.469
  828TIP3    H1 2420   1.038   4.048   1.516
  828TIP3    H2 2421   1.101   4.070   1.381
  829TIP3   OH2 2422   1.542   4.060   1.273
  829TIP3    H1 2423   1.473   4.082   1.208
  829TIP3    H2 2424   1.557   4.149   1.312
  830TIP3   OH2 2425   1.820   4.003   1.311
  830TIP3    H1 2426   1.726   4.029   1.300
  830TIP3    H2 2427   1.866   4.083   1.278
  831TIP3   OH2 2428   2.019   4.196   1.233
  831TIP3    H1 2429   2.006   4.282   1.187
  831TIP3    H2 2430   2.051   4.140   1.160
  832TIP3   OH2 2431   0.810   3.872   1.366
  832TIP3    H1 2432   0.832   3.839   1.455
  832TIP3    H2 2433   0.871   3.816   1.313
  833TIP3   OH2 2434   0.979   3.722   1.215
  833TIP3    H1 2435   1.003   3.638   1.261
  833TIP3    H2 2436   1.066   3.763   1.201
  834TIP3   OH2 2437   1.241   3.829   1.203
  834TIP3    H1 2438   1.271   3.752   1.152
  834TIP3    H2 2439   1.290   3.824   1.286
  835TIP3   OH2 2440   1.844   2.481   1.311
  835TIP3    H1 2441   1.795   2.418   1.367
  835TIP3    H2 2442   1.881   2.423   1.244
  836TIP3   OH2 2443   2.372   2.345   1.212
  836TIP3    H1 2444   2.411   2.402   1.142
  836TIP3    H2 2445   2.278   2.374   1.213
  837TIP3   OH2 2446   2.475   2.460   0.993
  837TIP3    H1 2447   2.542   2.408   0.943
  837TIP3    H2 2448   2.499   2.552   0.965
  838TIP3   OH2 2449   2.103   2.375   1.225
  838TIP3    H1 2450   2.056   2.382   1.141
  838TIP3    H2 2451   2.072   2.287   1.255
  839TIP3   OH2 2452   1.367   3.823   0.344
  839TIP3    H1 2453   1.450   3.833   0.291
  839TIP3    H2 2454   1.307   3.785   0.277
  840TIP3   OH2 2455   2.078   3.930   0.419
  840TIP3    H1 2456   2.071   3.833   0.405
  840TIP3    H2 2457   2.034   3.964   0.338
  841TIP3   OH2 2458   1.286   2.477   2.220
  841TIP3    H1 2459   1.253   2.400   2.271
  841TIP3    H2 2460   1.382   2.471   2.240
  842TIP3   OH2 2461   1.541   2.465   2.332
  842TIP3    H1 2462   1.623   2.434   2.291
  842TIP3    H2 2463   1.524   2.395   2.398
  843TIP3   OH2 2464   2.364   2.525   2.118
  843TIP3    H1 2465   2.384   2.492   2.208
  843TIP3    H2 2466   2.452   2.521   2.075
  844TIP3   OH2 2467   2.300   4.077   1.613
  844TIP3    H1 2468   2.222   4.048   1.561
  844TIP3    H2 2469   2.285   4.174   1.614
  845TIP3   OH2 2470   3.570   3.449   0.375
  845TIP3    H1 2471   3.542   3.541   0.357
  845TIP3    H2 2472   3.491   3.401   0.347
  846TIP3   OH2 2473   3.566   3.448   0.757
  846TIP3    H1 2474   3.600   3.424   0.845
  846TIP3    H2 2475   3.526   3.365   0.727
  847TIP3   OH2 2476   2.867   3.342   1.120
  847TIP3    H1 2477   2.902   3.280   1.187
  847TIP3    H2 2478   2.942   3.402   1.109
  848TIP3   OH2 2479   3.810   3.753   0.438
  848TIP3    H1 2480   3.797   3.683   0.503
  848TIP3    H2 2481   3.839   3.828   0.493
  849TIP3   OH2 2482   2.838   3.755   0.837
  849TIP3    H1 2483   2.827   3.659   0.850
  849TIP3    H2 2484   2.935   3.763   0.840
  850TIP3   OH2 2485   2.547   2.962   0.631
  850TIP3    H1 2486   2.500   3.046   0.648
  850TIP3    H2 2487   2.472   2.904   0.609
  851TIP3   OH2 2488   2.603   3.243   0.800
  851TIP3    H1 2489   2.652   3.167   0.839
  851TIP3    H2 2490   2.667   3.278   0.737
  852TIP3   OH2 2491   3.459   4.213   0.453
  852TIP3    H1 2492   3.507   4.141   0.407
  852TIP3    H2 2493   3.454   4.179   0.543
  853TIP3   OH2 2494   3.367   3.674   0.805
  853TIP3    H1 2495   3.407   3.597   0.762
  853TIP3    H2 2496   3.450   3.720   0.831
  854TIP3   OH2 2497   4.377   2.996   0.801
  854TIP3    H1 2498   4.408   3.077   0.847
  854TIP3    H2 2499   4.402   3.015   0.710
  855TIP3   OH2 2500   3.778   3.177   0.838
  855TIP3    H1 2501   3.822   3.092   0.859
  855TIP3    H2 2502   3.748   3.160   0.747
  856TIP3   OH2 2503   3.116   2.835   0.803
  856TIP3    H1 2504   3.096   2.908   0.741
  856TIP3    H2 2505   3.069   2.761   0.759
  857TIP3   OH2 2506   3.810   2.927   0.425
  857TIP3    H1 2507   3.881   2.910   0.491
  857TIP3    H2 2508   3.864   2.961   0.351
  858TIP3   OH2 2509   2.748   3.036   0.909
  858TIP3    H1 2510   2.832   3.019   0.957
  858TIP3    H2 2511   2.763   2.981   0.829
  859TIP3   OH2 2512   3.192   3.236   0.701
  859TIP3    H1 2513   3.285   3.210   0.715
  859TIP3    H2 2514   3.153   3.151   0.671
  860TIP3   OH2 2515   4.451   3.202   0.975
  860TIP3    H1 2516   4.367   3.250   0.958
  860TIP3    H2 2517   4.475   3.237   1.062
  861TIP3   OH2 2518   3.113   2.819   1.237
  861TIP3    H1 2519   3.052   2.856   1.170
  861TIP3    H2 2520   3.062   2.837   1.319
  862TIP3   OH2 2521   3.464   3.674   0.244
  862TIP3    H1 2522   3.415   3.651   0.164
  862TIP3    H2 2523   3.419   3.757   0.270
  863TIP3   OH2 2524   3.215   3.598   1.037
  863TIP3    H1 2525   3.151   3.662   1.077
  863TIP3    H2 2526   3.256   3.652   0.967
  864TIP3   OH2 2527   4.020   2.930   0.596
  864TIP3    H1 2528   4.015   2.877   0.677
  864TIP3    H2 2529   4.074   3.006   0.624
  865TIP3   OH2 2530   2.982   2.933   1.022
  865TIP3    H1 2531   3.044   3.006   1.046
  865TIP3    H2 2532   3.032   2.893   0.947
  866TIP3   OH2 2533   3.025   3.778   1.145
  866TIP3    H1 2534   3.000   3.866   1.112
  866TIP3    H2 2535   2.939   3.749   1.183
  867TIP3   OH2 2536   2.444   3.478   0.370
  867TIP3    H1 2537   2.404   3.503   0.284
  867TIP3    H2 2538   2.474   3.564   0.404
  868TIP3   OH2 2539   3.880   3.992   0.603
  868TIP3    H1 2540   3.791   3.984   0.645
  868TIP3    H2 2541   3.873   4.081   0.562
  869TIP3   OH2 2542   4.173   2.896   0.966
  869TIP3    H1 2543   4.085   2.927   0.937
  869TIP3    H2 2544   4.232   2.931   0.896
  870TIP3   OH2 2545   3.468   2.539   0.949
  870TIP3    H1 2546   3.457   2.444   0.967
  870TIP3    H2 2547   3.391   2.576   0.997
  871TIP3   OH2 2548   3.584   4.040   0.278
  871TIP3    H1 2549   3.634   3.957   0.260
  871TIP3    H2 2550   3.649   4.105   0.242
  872TIP3   OH2 2551   3.729   3.824   0.184
  872TIP3    H1 2552   3.679   3.747   0.155
  872TIP3    H2 2553   3.766   3.792   0.270
  873TIP3   OH2 2554   4.106   3.908   0.949
  873TIP3    H1 2555   4.096   3.830   0.891
  873TIP3    H2 2556   4.092   3.983   0.888
  874TIP3   OH2 2557   3.398   3.299   0.206
  874TIP3    H1 2558   3.319   3.353   0.185
  874TIP3    H2 2559   3.445   3.297   0.121
  875TIP3   OH2 2560   3.350   3.075  -0.063
  875TIP3    H1 2561   3.422   3.133  -0.031
  875TIP3    H2 2562   3.399   2.997  -0.091
  876TIP3   OH2 2563   4.303   3.542   0.793
  876TIP3    H1 2564   4.220   3.595   0.801
  876TIP3    H2 2565   4.332   3.569   0.703
  877TIP3   OH2 2566   3.746   3.381   0.178
  877TIP3    H1 2567   3.692   3.406   0.256
  877TIP3    H2 2568   3.830   3.356   0.222
  878TIP3   OH2 2569   3.981   3.422   1.091
  878TIP3    H1 2570   3.981   3.504   1.144
  878TIP3    H2 2571   3.895   3.431   1.045
  879TIP3   OH2 2572   2.980   3.380   0.594
  879TIP3    H1 2573   2.940   3.322   0.526
  879TIP3    H2 2574   3.057   3.328   0.624
  880TIP3   OH2 2575   3.113   3.795   0.743
  880TIP3    H1 2576   3.090   3.749   0.661
  880TIP3    H2 2577   3.203   3.760   0.761
  881TIP3   OH2 2578   3.118   3.353   0.950
  881TIP3    H1 2579   3.151   3.332   0.860
  881TIP3    H2 2580   3.160   3.440   0.969
  882TIP3   OH2 2581   3.640   3.989   0.726
  882TIP3    H1 2582   3.628   4.070   0.780
  882TIP3    H2 2583   3.625   3.917   0.791
  883TIP3   OH2 2584   3.249   3.908   1.270
  883TIP3    H1 2585   3.195   3.972   1.320
  883TIP3    H2 2586   3.179   3.853   1.231
  884TIP3   OH2 2587   3.585   3.243   0.001
  884TIP3    H1 2588   3.644   3.299   0.055
  884TIP3    H2 2589   3.615   3.266  -0.090
  885TIP3   OH2 2590   2.952   3.466   1.387
  885TIP3    H1 2591   2.983   3.541   1.441
  885TIP3    H2 2592   2.900   3.516   1.321
  886TIP3   OH2 2593   3.330   3.919   0.281
  886TIP3    H1 2594   3.408   3.975   0.300
  886TIP3    H2 2595   3.267   3.981   0.243
  887TIP3   OH2 2596   3.049   4.081   1.361
  887TIP3    H1 2597   3.015   4.077   1.269
  887TIP3    H2 2598   2.969   4.057   1.413
  888TIP3   OH2 2599   4.107   2.486   0.052
  888TIP3    H1 2600   4.024   2.503   0.101
  888TIP3    H2 2601   4.117   2.568  -0.000
  889TIP3   OH2 2602   2.849   3.222   0.392
  889TIP3    H1 2603   2.779   3.269   0.341
  889TIP3    H2 2604   2.804   3.141   0.417
  890TIP3   OH2 2605   2.479   3.802   0.940
  890TIP3    H1 2606   2.573   3.777   0.940
  890TIP3    H2 2607   2.481   3.879   0.999
  891TIP3   OH2 2608   4.344   4.251   0.991
  891TIP3    H1 2609   4.346   4.157   1.015
  891TIP3    H2 2610   4.265   4.279   1.043
  892TIP3   OH2 2611   3.450   4.039   1.129
  892TIP3    H1 2612   3.449   4.131   1.164
  892TIP3    H2 2613   3.379   3.998   1.184
  893TIP3   OH2 2614   3.206   4.169   0.082
  893TIP3    H1 2615   3.159   4.151  -0.001
  893TIP3    H2 2616   3.176   4.259   0.105
  894TIP3   OH2 2617   2.648   4.016   0.467
  894TIP3    H1 2618   2.697   4.008   0.552
  894TIP3    H2 2619   2.594   3.936   0.470
  895TIP3   OH2 2620   3.423   4.032  -0.233
  895TIP3    H1 2621   3.509   3.989  -0.242
  895TIP3    H2 2622   3.432   4.066  -0.141
  896TIP3   OH2 2623   3.463   4.116   0.020
  896TIP3    H1 2624   3.372   4.129   0.057
  896TIP3    H2 2625   3.511   4.081   0.097
  897TIP3   OH2 2626   4.238   3.381   1.271
  897TIP3    H1 2627   4.155   3.397   1.223
  897TIP3    H2 2628   4.249   3.284   1.260
  898TIP3   OH2 2629   3.230   2.614   1.079
  898TIP3    H1 2630   3.141   2.584   1.054
  898TIP3    H2 2631   3.206   2.697   1.126
  899TIP3   OH2 2632   3.761   2.731   1.272
  899TIP3    H1 2633   3.828   2.703   1.337
  899TIP3    H2 2634   3.677   2.710   1.319
  900TIP3   OH2 2635   4.002   3.159   1.193
  900TIP3    H1 2636   3.954   3.157   1.279
  900TIP3    H2 2637   3.981   3.248   1.158
  901TIP3   OH2 2638   3.668   3.302  -0.253
  901TIP3    H1 2639   3.661   3.261  -0.340
  901TIP3    H2 2640   3.717   3.383  -0.272
  902TIP3   OH2 2641   3.386   2.686   0.056
  902TIP3    H1 2642   3.351   2.674   0.146
  902TIP3    H2 2643   3.363   2.601   0.016
  903TIP3   OH2 2644   3.160   3.129   1.097
  903TIP3    H1 2645   3.114   3.153   1.179
  903TIP3    H2 2646   3.147   3.210   1.043
  904TIP3   OH2 2647   3.045   3.017   0.614
  904TIP3    H1 2648   2.953   2.988   0.632
  904TIP3    H2 2649   3.059   2.975   0.526
  905TIP3   OH2 2650   3.537   3.101   0.341
  905TIP3    H1 2651   3.485   3.172   0.298
  905TIP3    H2 2652   3.592   3.069   0.267
  906TIP3   OH2 2653   3.711   3.379   1.424
  906TIP3    H1 2654   3.691   3.308   1.489
  906TIP3    H2 2655   3.804   3.398   1.447
  907TIP3   OH2 2656   3.693   3.130   0.580
  907TIP3    H1 2657   3.633   3.159   0.508
  907TIP3    H2 2658   3.728   3.048   0.537
  908TIP3   OH2 2659   2.983   3.158   1.310
  908TIP3    H1 2660   3.030   3.218   1.370
  908TIP3    H2 2661   2.976   3.076   1.362
  909TIP3   OH2 2662   3.034   2.617   0.024
  909TIP3    H1 2663   3.039   2.626   0.121
  909TIP3    H2 2664   2.950   2.658   0.006
  910TIP3   OH2 2665   2.581   2.685   0.883
  910TIP3    H1 2666   2.650   2.718   0.945
  910TIP3    H2 2667   2.633   2.648   0.811
  911TIP3   OH2 2668   2.594   2.711   0.443
  911TIP3    H1 2669   2.636   2.734   0.358
  911TIP3    H2 2670   2.523   2.778   0.447
  912TIP3   OH2 2671   3.700   3.377   1.001
  912TIP3    H1 2672   3.736   3.305   0.944
  912TIP3    H2 2673   3.674   3.324   1.079
  913TIP3   OH2 2674   3.372   2.841   0.673
  913TIP3    H1 2675   3.291   2.837   0.728
  913TIP3    H2 2676   3.442   2.836   0.740
  914TIP3   OH2 2677   2.808   2.893   0.681
  914TIP3    H1 2678   2.714   2.901   0.651
  914TIP3    H2 2679   2.832   2.802   0.655
  915TIP3   OH2 2680   3.080   2.892   0.376
  915TIP3    H1 2681   3.175   2.906   0.356
  915TIP3    H2 2682   3.036   2.912   0.290
  916TIP3   OH2 2683   3.866   2.915   0.876
  916TIP3    H1 2684   3.831   2.927   0.967
  916TIP3    H2 2685   3.802   2.853   0.839
  917TIP3   OH2 2686   2.923   2.919   0.156
  917TIP3    H1 2687   2.830   2.898   0.141
  917TIP3    H2 2688   2.955   2.958   0.073
  918TIP3   OH2 2689   4.033   4.606   1.095
  918TIP3    H1 2690   4.035   4.627   1.000
  918TIP3    H2 2691   4.115   4.649   1.127
  919TIP3   OH2 2692   3.009   3.685   1.535
  919TIP3    H1 2693   3.081   3.732   1.582
  919TIP3    H2 2694   2.931   3.734   1.565
  920TIP3   OH2 2695   3.456   3.166   0.771
  920TIP3    H1 2696   3.529   3.127   0.721
  920TIP3    H2 2697   3.466   3.124   0.858
  921TIP3   OH2 2698   2.980   2.653   0.647
  921TIP3    H1 2699   2.941   2.574   0.690
  921TIP3    H2 2700   3.030   2.613   0.575
  922TIP3   OH2 2701   3.433   3.062   1.062
  922TIP3    H1 2702   3.344   3.100   1.076
  922TIP3    H2 2703   3.491   3.123   1.112
  923TIP3   OH2 2704   3.171   3.454   0.155
  923TIP3    H1 2705   3.097   3.390   0.146
  923TIP3    H2 2706   3.154   3.489   0.246
  924TIP3   OH2 2707   4.071   3.689   0.785
  924TIP3    H1 2708   4.094   3.739   0.704
  924TIP3    H2 2709   3.985   3.648   0.761
  925TIP3   OH2 2710   3.644   2.766   0.008
  925TIP3    H1 2711   3.548   2.743   0.014
  925TIP3    H2 2712   3.647   2.860   0.034
  926TIP3   OH2 2713   3.566   3.770   1.154
  926TIP3    H1 2714   3.599   3.752   1.243
  926TIP3    H2 2715   3.531   3.861   1.162
  927TIP3   OH2 2716   3.696   3.014   0.123
  927TIP3    H1 2717   3.793   3.015   0.139
  927TIP3    H2 2718   3.683   3.092   0.067
  928TIP3   OH2 2719   2.860   3.472   0.832
  928TIP3    H1 2720   2.901   3.446   0.748
  928TIP3    H2 2721   2.900   3.410   0.895
  929TIP3   OH2 2722   3.312   3.603  -0.030
  929TIP3    H1 2723   3.268   3.691  -0.018
  929TIP3    H2 2724   3.261   3.549   0.034
  930TIP3   OH2 2725   2.719   3.339   1.516
  930TIP3    H1 2726   2.798   3.384   1.479
  930TIP3    H2 2727   2.665   3.333   1.437
  931TIP3   OH2 2728   3.470   3.509   1.464
  931TIP3    H1 2729   3.416   3.452   1.408
  931TIP3    H2 2730   3.560   3.479   1.440
  932TIP3   OH2 2731   3.729   4.032   1.050
  932TIP3    H1 2732   3.633   4.032   1.065
  932TIP3    H2 2733   3.759   4.082   1.129
  933TIP3   OH2 2734   4.135   3.101  -0.043
  933TIP3    H1 2735   4.072   3.057  -0.106
  933TIP3    H2 2736   4.134   3.190  -0.083
  934TIP3   OH2 2737   4.357   3.958   1.040
  934TIP3    H1 2738   4.259   3.957   1.034
  934TIP3    H2 2739   4.381   3.930   0.949
  935TIP3   OH2 2740   3.863   3.915  -0.144
  935TIP3    H1 2741   3.828   3.863  -0.069
  935TIP3    H2 2742   3.818   3.876  -0.220
  936TIP3   OH2 2743   3.835   3.553   0.702
  936TIP3    H1 2744   3.742   3.527   0.717
  936TIP3    H2 2745   3.869   3.472   0.659
  937TIP3   OH2 2746   2.963   3.777   0.452
  937TIP3    H1 2747   2.961   3.860   0.401
  937TIP3    H2 2748   2.869   3.764   0.472
  938TIP3   OH2 2749   2.530   3.083   0.171
  938TIP3    H1 2750   2.573   3.170   0.184
  938TIP3    H2 2751   2.445   3.095   0.217
  939TIP3   OH2 2752   3.102   3.544   0.399
  939TIP3    H1 2753   3.066   3.634   0.417
  939TIP3    H2 2754   3.067   3.495   0.475
  940TIP3   OH2 2755   3.232   4.123   0.926
  940TIP3    H1 2756   3.275   4.196   0.877
  940TIP3    H2 2757   3.307   4.088   0.976
  941TIP3   OH2 2758   2.881   4.019   0.309
  941TIP3    H1 2759   2.796   4.027   0.356
  941TIP3    H2 2760   2.913   4.112   0.312
  942TIP3   OH2 2761   3.620   3.757   0.885
  942TIP3    H1 2762   3.609   3.755   0.983
  942TIP3    H2 2763   3.703   3.707   0.875
  943TIP3   OH2 2764   3.575   3.625  -0.228
  943TIP3    H1 2765   3.640   3.613  -0.155
  943TIP3    H2 2766   3.492   3.626  -0.178
  944TIP3   OH2 2767   3.866   4.291   0.935
  944TIP3    H1 2768   3.788   4.233   0.928
  944TIP3    H2 2769   3.851   4.355   0.862
  945TIP3   OH2 2770   2.953   2.904   1.454
  945TIP3    H1 2771   2.857   2.902   1.469
  945TIP3    H2 2772   2.985   2.848   1.527
  946TIP3   OH2 2773   3.753   3.580  -0.019
  946TIP3    H1 2774   3.744   3.517   0.055
  946TIP3    H2 2775   3.850   3.583  -0.027
  947TIP3   OH2 2776   2.661   3.977   1.089
  947TIP3    H1 2777   2.684   3.891   1.131
  947TIP3    H2 2778   2.709   4.037   1.148
  948TIP3   OH2 2779   2.965   3.642  -0.229
  948TIP3    H1 2780   2.978   3.555  -0.266
  948TIP3    H2 2781   2.939   3.625  -0.136
  949TIP3   OH2 2782   2.907   3.636   0.043
  949TIP3    H1 2783   2.977   3.612   0.105
  949TIP3    H2 2784   2.911   3.734   0.045
  950TIP3   OH2 2785   2.642   3.332   0.243
  950TIP3    H1 2786   2.577   3.377   0.301
  950TIP3    H2 2787   2.656   3.401   0.175
  951TIP3   OH2 2788   3.789   2.968   1.134
  951TIP3    H1 2789   3.870   3.005   1.174
  951TIP3    H2 2790   3.775   2.887   1.188
  952TIP3   OH2 2791   3.664   2.721   0.296
  952TIP3    H1 2792   3.660   2.742   0.201
  952TIP3    H2 2793   3.707   2.801   0.333
  953TIP3   OH2 2794   3.175   3.832  -0.007
  953TIP3    H1 2795   3.088   3.863   0.026
  953TIP3    H2 2796   3.185   3.888  -0.085
  954TIP3   OH2 2797   3.358   2.897   0.401
  954TIP3    H1 2798   3.425   2.967   0.384
  954TIP3    H2 2799   3.365   2.888   0.499
  955TIP3   OH2 2800   3.628   3.216   1.210
  955TIP3    H1 2801   3.652   3.271   1.288
  955TIP3    H2 2802   3.684   3.138   1.222
  956TIP3   OH2 2803   3.505   2.624   0.503
  956TIP3    H1 2804   3.505   2.698   0.567
  956TIP3    H2 2805   3.564   2.660   0.433
  957TIP3   OH2 2806   2.917   3.908   0.057
  957TIP3    H1 2807   2.888   3.979  -0.005
  957TIP3    H2 2808   2.900   3.950   0.144
  958TIP3   OH2 2809   3.028   2.633   0.303
  958TIP3    H1 2810   3.027   2.723   0.340
  958TIP3    H2 2811   3.124   2.613   0.311
  959TIP3   OH2 2812   4.269   3.112   1.192
  959TIP3    H1 2813   4.171   3.109   1.197
  959TIP3    H2 2814   4.284   3.079   1.103
  960TIP3   OH2 2815   3.921   3.310   0.577
  960TIP3    H1 2816   3.846   3.250   0.591
  960TIP3    H2 2817   3.993   3.264   0.626
  961TIP3   OH2 2818   2.632   3.545   0.053
  961TIP3    H1 2819   2.704   3.611   0.062
  961TIP3    H2 2820   2.676   3.485  -0.012
  962TIP3   OH2 2821   2.616   2.828   0.171
  962TIP3    H1 2822   2.587   2.922   0.170
  962TIP3    H2 2823   2.548   2.786   0.117
  963TIP3   OH2 2824   3.890   4.263   0.529
  963TIP3    H1 2825   3.846   4.312   0.456
  963TIP3    H2 2826   3.984   4.283   0.508
  964TIP3   OH2 2827   2.964   2.536   1.059
  964TIP3    H1 2828   2.933   2.503   0.971
  964TIP3    H2 2829   2.955   2.457   1.115
  965TIP3   OH2 2830   2.506   3.753   0.435
  965TIP3    H1 2831   2.436   3.783   0.494
  965TIP3    H2 2832   2.477   3.793   0.350
  966TIP3   OH2 2833   2.660   4.293   1.508
  966TIP3    H1 2834   2.747   4.293   1.554
  966TIP3    H2 2835   2.641   4.198   1.506
  967TIP3   OH2 2836   3.143   4.261   1.551
  967TIP3    H1 2837   3.237   4.239   1.560
  967TIP3    H2 2838   3.118   4.201   1.478
  968TIP3   OH2 2839   3.137   3.836  -0.308
  968TIP3    H1 2840   3.060   3.780  -0.281
  968TIP3    H2 2841   3.200   3.765  -0.328
  969TIP3   OH2 2842   3.786   4.164   1.288
  969TIP3    H1 2843   3.776   4.094   1.356
  969TIP3    H2 2844   3.867   4.209   1.318
  970TIP3   OH2 2845   2.783   3.721   1.711
  970TIP3    H1 2846   2.818   3.631   1.722
  970TIP3    H2 2847   2.705   3.706   1.653
  971TIP3   OH2 2848   2.777   3.363  -0.082
  971TIP3    H1 2849   2.842   3.327  -0.019
  971TIP3    H2 2850   2.814   3.342  -0.168
  972TIP3   OH2 2851   3.397   3.784   1.481
  972TIP3    H1 2852   3.359   3.801   1.393
  972TIP3    H2 2853   3.431   3.693   1.473
  973TIP3   OH2 2854   3.257   3.540  -0.292
  973TIP3    H1 2855   3.273   3.574  -0.201
  973TIP3    H2 2856   3.278   3.448  -0.281
  974TIP3   OH2 2857   3.890   3.793   1.083
  974TIP3    H1 2858   3.967   3.838   1.044
  974TIP3    H2 2859   3.822   3.863   1.073
  975TIP3   OH2 2860   2.975   3.255   0.120
  975TIP3    H1 2861   2.949   3.222   0.208
  975TIP3    H2 2862   3.012   3.175   0.077
  976TIP3   OH2 2863   3.235   3.311   1.344
  976TIP3    H1 2864   3.173   3.384   1.358
  976TIP3    H2 2865   3.292   3.348   1.271
  977TIP3   OH2 2866   3.075   3.045  -0.043
  977TIP3    H1 2867   3.076   3.006  -0.131
  977TIP3    H2 2868   3.172   3.061  -0.031
  978TIP3   OH2 2869   3.761   3.719   1.483
  978TIP3    H1 2870   3.848   3.706   1.444
  978TIP3    H2 2871   3.762   3.656   1.557
  979TIP3   OH2 2872   3.369   3.107   1.475
  979TIP3    H1 2873   3.371   3.026   1.421
  979TIP3    H2 2874   3.324   3.171   1.415
  980TIP3   OH2 2875   3.372   2.894   1.285
  980TIP3    H1 2876   3.400   2.935   1.201
  980TIP3    H2 2877   3.278   2.871   1.266
  981TIP3   OH2 2878   3.394   3.429   1.161
  981TIP3    H1 2879   3.480   3.436   1.116
  981TIP3    H2 2880   3.342   3.498   1.115
  982TIP3   OH2 2881   3.977   3.402   1.535
  982TIP3    H1 2882   4.034   3.326   1.555
  982TIP3    H2 2883   4.043   3.468   1.507
  983TIP3   OH2 2884   4.022   3.645   1.268
  983TIP3    H1 2885   3.964   3.701   1.212
  983TIP3    H2 2886   4.110   3.669   1.230
  984TIP3   OH2 2887   3.254   3.217   1.709
  984TIP3    H1 2888   3.178   3.156   1.723
  984TIP3    H2 2889   3.285   3.188   1.621
  985TIP3   OH2 2890   3.503   2.657   1.350
  985TIP3    H1 2891   3.453   2.739   1.329
  985TIP3    H2 2892   3.434   2.589   1.339
  986TIP3   OH2 2893   3.632   3.161   1.567
  986TIP3    H1 2894   3.620   3.150   1.664
  986TIP3    H2 2895   3.541   3.137   1.538
  987TIP3   OH2 2896   3.870   3.108   1.424
  987TIP3    H1 2897   3.792   3.114   1.483
  987TIP3    H2 2898   3.938   3.071   1.483
  988TIP3   OH2 2899   4.104   3.025   1.591
  988TIP3    H1 2900   4.102   2.950   1.651
  988TIP3    H2 2901   4.095   3.099   1.655
  989TIP3   OH2 2902   3.077   3.005   1.755
  989TIP3    H1 2903   3.079   2.913   1.726
  989TIP3    H2 2904   3.113   2.996   1.845
  990TIP3   OH2 2905   3.600   2.670   1.607
  990TIP3    H1 2906   3.663   2.595   1.604
  990TIP3    H2 2907   3.559   2.662   1.518
  991TIP3   OH2 2908   3.667   2.884   1.765
  991TIP3    H1 2909   3.644   2.812   1.702
  991TIP3    H2 2910   3.587   2.941   1.761
  992TIP3   OH2 2911   2.877   4.109  -0.128
  992TIP3    H1 2912   2.969   4.113  -0.159
  992TIP3    H2 2913   2.828   4.145  -0.203
  993TIP3   OH2 2914   2.364   3.495   0.099
  993TIP3    H1 2915   2.454   3.526   0.075
  993TIP3    H2 2916   2.359   3.412   0.051
  994TIP3   OH2 2917   2.281   4.103   0.497
  994TIP3    H1 2918   2.214   4.042   0.462
  994TIP3    H2 2919   2.325   4.047   0.565
  995TIP3   OH2 2920   2.415   3.956   0.688
  995TIP3    H1 2921   2.410   3.882   0.750
  995TIP3    H2 2922   2.468   4.018   0.741
  996TIP3   OH2 2923   4.142   4.358   0.483
  996TIP3    H1 2924   4.167   4.386   0.573
  996TIP3    H2 2925   4.206   4.406   0.429
  997TIP3   OH2 2926   4.174   4.376   0.764
  997TIP3    H1 2927   4.129   4.289   0.763
  997TIP3    H2 2928   4.244   4.355   0.828
  998TIP3   OH2 2929   4.214   4.051   1.329
  998TIP3    H1 2930   4.152   4.058   1.404
  998TIP3    H2 2931   4.260   4.138   1.336
  999TIP3   OH2 2932   4.034   3.565  -0.035
  999TIP3    H1 2933   4.107   3.626  -0.056
  999TIP3    H2 2934   4.070   3.520   0.045
 1000TIP3   OH2 2935   4.161   3.433   0.166
 1000TIP3    H1 2936   4.095   3.391   0.226
 1000TIP3    H2 2937   4.226   3.470   0.228
 1001TIP3   OH2 2938   4.214   3.826   0.593
 1001TIP3    H1 2939   4.270   3.762   0.545
 1001TIP3    H2 2940   4.206   3.900   0.530
 1002TIP3   OH2 2941   4.047   4.128   0.788
 1002TIP3    H1 2942   3.978   4.167   0.844
 1002TIP3    H2 2943   3.994   4.079   0.721
 1003TIP3   OH2 2944   4.095   3.347  -0.193
 1003TIP3    H1 2945   4.020   3.338  -0.254
 1003TIP3    H2 2946   4.066   3.423  -0.138
 1004TIP3   OH2 2947   3.970   3.024  -0.248
 1004TIP3    H1 2948   3.964   3.042  -0.343
 1004TIP3    H2 2949   3.941   2.930  -0.244
 1005TIP3   OH2 2950   3.976   3.290   0.309
 1005TIP3    H1 2951   3.983   3.193   0.303
 1005TIP3    H2 2952   3.962   3.304   0.405
 1006TIP3   OH2 2953   2.599   3.353   1.063
 1006TIP3    H1 2954   2.596   3.333   0.968
 1006TIP3    H2 2955   2.696   3.365   1.077
 1007TIP3   OH2 2956   4.264   3.715   1.163
 1007TIP3    H1 2957   4.338   3.651   1.157
 1007TIP3    H2 2958   4.296   3.789   1.108
 1008TIP3   OH2 2959   4.450   3.520   1.179
 1008TIP3    H1 2960   4.377   3.471   1.222
 1008TIP3    H2 2961   4.524   3.458   1.194
 1009TIP3   OH2 2962   3.913   2.758  -0.230
 1009TIP3    H1 2963   4.000   2.723  -0.201
 1009TIP3    H2 2964   3.851   2.705  -0.179
 1010TIP3   OH2 2965   3.971   3.006   0.204
 1010TIP3    H1 2966   4.011   2.917   0.221
 1010TIP3    H2 2967   4.030   3.036   0.133
 1011TIP3   OH2 2968   4.133   3.183   0.699
 1011TIP3    H1 2969   4.220   3.208   0.660
 1011TIP3    H2 2970   4.147   3.218   0.789
 1012TIP3   OH2 2971   4.202   3.324   0.932
 1012TIP3    H1 2972   4.125   3.359   0.981
 1012TIP3    H2 2973   4.235   3.405   0.888
 1013TIP3   OH2 2974   4.661   2.917   1.494
 1013TIP3    H1 2975   4.719   2.854   1.445
 1013TIP3    H2 2976   4.621   2.967   1.420
 1014TIP3   OH2 2977   4.080   2.757   0.242
 1014TIP3    H1 2978   4.129   2.741   0.325
 1014TIP3    H2 2979   4.020   2.679   0.241
 1015TIP3   OH2 2980   2.779   2.743   1.066
 1015TIP3    H1 2981   2.841   2.668   1.074
 1015TIP3    H2 2982   2.841   2.817   1.056
 1016TIP3   OH2 2983   2.587   3.019   1.138
 1016TIP3    H1 2984   2.634   3.009   1.053
 1016TIP3    H2 2985   2.607   3.112   1.158
 1017TIP3   OH2 2986   4.526   3.054   1.299
 1017TIP3    H1 2987   4.440   3.096   1.320
 1017TIP3    H2 2988   4.498   2.988   1.234
 1018TIP3   OH2 2989   4.171   2.690  -0.141
 1018TIP3    H1 2990   4.222   2.634  -0.201
 1018TIP3    H2 2991   4.230   2.768  -0.133
 1019TIP3   OH2 2992   2.553   2.519   0.630
 1019TIP3    H1 2993   2.471   2.545   0.675
 1019TIP3    H2 2994   2.571   2.596   0.572
 1020TIP3   OH2 2995   3.735   4.221   0.146
 1020TIP3    H1 2996   3.777   4.211   0.058
 1020TIP3    H2 2997   3.783   4.297   0.181
 1021TIP3   OH2 2998   2.788   2.603   1.451
 1021TIP3    H1 2999   2.738   2.595   1.534
 1021TIP3    H2 3000   2.720   2.640   1.392
 1022TIP3   OH2 3001   2.830   4.029   1.524
 1022TIP3    H1 3002   2.740   3.996   1.505
 1022TIP3    H2 3003   2.839   4.009   1.618
 1023TIP3   OH2 3004   3.004   4.057   1.078
 1023TIP3    H1 3005   2.957   4.131   1.037
 1023TIP3    H2 3006   3.091   4.069   1.033
 1024TIP3   OH2 3007   3.451   4.306   1.212
 1024TIP3    H1 3008   3.493   4.304   1.301
 1024TIP3    H2 3009   3.518   4.356   1.161
 1025TIP3   OH2 3010   3.631   4.456   1.069
 1025TIP3    H1 3011   3.703   4.403   1.032
 1025TIP3    H2 3012   3.681   4.513   1.132
 1026TIP3   OH2 3013   4.414   2.820   1.158
 1026TIP3    H1 3014   4.331   2.812   1.107
 1026TIP3    H2 3015   4.460   2.735   1.136
 1027TIP3   OH2 3016   2.683   4.321   1.094
 1027TIP3    H1 3017   2.592   4.354   1.074
 1027TIP3    H2 3018   2.692   4.350   1.186
 1028TIP3   OH2 3019   2.919   4.295   0.955
 1028TIP3    H1 3020   2.833   4.309   1.001
 1028TIP3    H2 3021   2.899   4.328   0.866
 1029TIP3   OH2 3022   3.345   4.326   0.752
 1029TIP3    H1 3023   3.273   4.346   0.689
 1029TIP3    H2 3024   3.357   4.412   0.797
 1030TIP3   OH2 3025   3.613   4.262   0.802
 1030TIP3    H1 3026   3.518   4.281   0.784
 1030TIP3    H2 3027   3.656   4.341   0.765
 1031TIP3   OH2 3028   3.820   4.456   0.720
 1031TIP3    H1 3029   3.806   4.541   0.672
 1031TIP3    H2 3030   3.846   4.396   0.647
 1032TIP3   OH2 3031   2.592   4.108   0.846
 1032TIP3    H1 3032   2.619   4.081   0.936
 1032TIP3    H2 3033   2.664   4.065   0.794
 1033TIP3   OH2 3034   2.786   3.984   0.699
 1033TIP3    H1 3035   2.800   3.899   0.749
 1033TIP3    H2 3036   2.878   4.018   0.697
 1034TIP3   OH2 3037   3.054   4.076   0.703
 1034TIP3    H1 3038   3.085   3.985   0.692
 1034TIP3    H2 3039   3.097   4.099   0.787
 1035TIP3   OH2 3040   3.625   2.731   0.784
 1035TIP3    H1 3041   3.585   2.662   0.840
 1035TIP3    H2 3042   3.702   2.685   0.746
 1036TIP3   OH2 3043   4.151   2.615   0.695
 1036TIP3    H1 3044   4.188   2.667   0.620
 1036TIP3    H2 3045   4.056   2.632   0.687
 1037TIP3   OH2 3046   4.247   2.717   0.458
 1037TIP3    H1 3047   4.320   2.665   0.420
 1037TIP3    H2 3048   4.281   2.809   0.443
 1038TIP3   OH2 3049   2.873   2.448   0.813
 1038TIP3    H1 3050   2.787   2.408   0.795
 1038TIP3    H2 3051   2.931   2.368   0.805
 1039TIP3   OH2 3052   2.780   2.384   0.528
 1039TIP3    H1 3053   2.740   2.369   0.441
 1039TIP3    H2 3054   2.705   2.420   0.577
 1040TIP3   OH2 3055   3.322   2.473   0.686
 1040TIP3    H1 3056   3.381   2.523   0.628
 1040TIP3    H2 3057   3.342   2.512   0.772
 1041TIP3   OH2 3058   3.865   2.620   0.670
 1041TIP3    H1 3059   3.870   2.580   0.583
 1041TIP3    H2 3060   3.854   2.541   0.727
 1042TIP3   OH2 3061   3.900   2.542   0.234
 1042TIP3    H1 3062   3.810   2.578   0.236
 1042TIP3    H2 3063   3.886   2.457   0.282
 1043TIP3   OH2 3064   2.381   3.881   0.234
 1043TIP3    H1 3065   2.300   3.844   0.197
 1043TIP3    H2 3066   2.364   3.976   0.223
 1044TIP3   OH2 3067   2.788   2.507   0.249
 1044TIP3    H1 3068   2.842   2.428   0.236
 1044TIP3    H2 3069   2.854   2.568   0.287
 1045TIP3   OH2 3070   3.301   2.644   0.317
 1045TIP3    H1 3071   3.361   2.600   0.380
 1045TIP3    H2 3072   3.319   2.737   0.342
 1046TIP3   OH2 3073   3.146   4.081  -0.192
 1046TIP3    H1 3074   3.241   4.092  -0.214
 1046TIP3    H2 3075   3.129   4.000  -0.246
 1047TIP3   OH2 3076   3.872   4.186  -0.095
 1047TIP3    H1 3077   3.864   4.090  -0.115
 1047TIP3    H2 3078   3.859   4.226  -0.183
 1048TIP3   OH2 3079   3.085   2.723   1.697
 1048TIP3    H1 3080   3.053   2.651   1.755
 1048TIP3    H2 3081   3.179   2.726   1.724
 1049TIP3   OH2 3082   3.334   2.722   1.816
 1049TIP3    H1 3083   3.419   2.692   1.780
 1049TIP3    H2 3084   3.319   2.655   1.887
 1050TIP3   OH2 3085   2.457   3.920  -0.107
 1050TIP3    H1 3086   2.448   3.952  -0.017
 1050TIP3    H2 3087   2.543   3.876  -0.107
 1051TIP3   OH2 3088   4.100   4.338   1.087
 1051TIP3    H1 3089   4.018   4.304   1.047
 1051TIP3    H2 3090   4.076   4.431   1.101
 1052TIP3   OH2 3091   5.357   3.702   0.244
 1052TIP3    H1 3092   5.396   3.684   0.332
 1052TIP3    H2 3093   5.315   3.616   0.223
 1053TIP3   OH2 3094   4.664   3.601   0.606
 1053TIP3    H1 3095   4.691   3.532   0.670
 1053TIP3    H2 3096   4.738   3.662   0.615
 1054TIP3   OH2 3097   4.634   4.008   0.333
 1054TIP3    H1 3098   4.625   3.911   0.338
 1054TIP3    H2 3099   4.731   4.017   0.332
 1055TIP3   OH2 3100   4.344   3.221   0.111
 1055TIP3    H1 3101   4.290   3.299   0.134
 1055TIP3    H2 3102   4.274   3.158   0.087
 1056TIP3   OH2 3103   4.399   3.500   0.289
 1056TIP3    H1 3104   4.445   3.423   0.329
 1056TIP3    H2 3105   4.469   3.537   0.233
 1057TIP3   OH2 3106   5.168   3.930   0.283
 1057TIP3    H1 3107   5.210   3.848   0.250
 1057TIP3    H2 3108   5.249   3.976   0.314
 1058TIP3   OH2 3109   6.175   3.261   0.277
 1058TIP3    H1 3110   6.198   3.330   0.343
 1058TIP3    H2 3111   6.257   3.252   0.229
 1059TIP3   OH2 3112   5.581   3.435   0.349
 1059TIP3    H1 3113   5.620   3.348   0.370
 1059TIP3    H2 3114   5.542   3.416   0.262
 1060TIP3   OH2 3115   4.913   3.090   0.293
 1060TIP3    H1 3116   4.885   3.167   0.241
 1060TIP3    H2 3117   4.866   3.017   0.246
 1061TIP3   OH2 3118   5.588   3.170  -0.040
 1061TIP3    H1 3119   5.669   3.157   0.015
 1061TIP3    H2 3120   5.629   3.177  -0.128
 1062TIP3   OH2 3121   4.546   3.296   0.395
 1062TIP3    H1 3122   4.628   3.276   0.445
 1062TIP3    H2 3123   4.557   3.234   0.320
 1063TIP3   OH2 3124   4.994   3.502   0.190
 1063TIP3    H1 3125   5.086   3.473   0.206
 1063TIP3    H2 3126   4.949   3.416   0.172
 1064TIP3   OH2 3127   6.246   3.459   0.455
 1064TIP3    H1 3128   6.160   3.504   0.442
 1064TIP3    H2 3129   6.255   3.470   0.551
 1065TIP3   OH2 3130   4.910   3.076   0.723
 1065TIP3    H1 3131   4.847   3.113   0.658
 1065TIP3    H2 3132   4.860   3.091   0.806
 1066TIP3   OH2 3133   5.016   3.852   0.519
 1066TIP3    H1 3134   4.952   3.915   0.559
 1066TIP3    H2 3135   5.054   3.907   0.448
 1067TIP3   OH2 3136   5.827   3.188   0.087
 1067TIP3    H1 3137   5.854   3.110   0.139
 1067TIP3    H2 3138   5.872   3.260   0.134
 1068TIP3   OH2 3139   4.778   3.192   0.508
 1068TIP3    H1 3140   4.841   3.264   0.533
 1068TIP3    H2 3141   4.831   3.147   0.438
 1069TIP3   OH2 3142   4.842   4.044   0.617
 1069TIP3    H1 3143   4.817   4.131   0.579
 1069TIP3    H2 3144   4.764   4.028   0.674
 1070TIP3   OH2 3145   4.238   3.735  -0.130
 1070TIP3    H1 3146   4.171   3.753  -0.197
 1070TIP3    H2 3147   4.236   3.814  -0.072
 1071TIP3   OH2 3148   5.966   3.174   0.460
 1071TIP3    H1 3149   5.875   3.182   0.427
 1071TIP3    H2 3150   6.019   3.185   0.379
 1072TIP3   OH2 3151   5.260   2.797   0.430
 1072TIP3    H1 3152   5.257   2.703   0.454
 1072TIP3    H2 3153   5.184   2.831   0.482
 1073TIP3   OH2 3154   5.903   4.171   0.447
 1073TIP3    H1 3155   5.897   4.094   0.386
 1073TIP3    H2 3156   5.883   4.246   0.386
 1074TIP3   OH2 3157   6.097   3.802   0.316
 1074TIP3    H1 3158   6.019   3.858   0.299
 1074TIP3    H2 3159   6.128   3.778   0.226
 1075TIP3   OH2 3160   5.776   3.681   0.576
 1075TIP3    H1 3161   5.775   3.763   0.629
 1075TIP3    H2 3162   5.689   3.687   0.532
 1076TIP3   OH2 3163   4.772   3.622   0.085
 1076TIP3    H1 3164   4.738   3.550   0.028
 1076TIP3    H2 3165   4.853   3.581   0.123
 1077TIP3   OH2 3166   4.902   4.033   0.250
 1077TIP3    H1 3167   4.878   4.004   0.161
 1077TIP3    H2 3168   4.996   4.007   0.257
 1078TIP3   OH2 3169   4.913   3.611   0.434
 1078TIP3    H1 3170   4.952   3.591   0.347
 1078TIP3    H2 3171   4.955   3.696   0.458
 1079TIP3   OH2 3172   5.438   4.233   0.210
 1079TIP3    H1 3173   5.426   4.311   0.266
 1079TIP3    H2 3174   5.420   4.160   0.272
 1080TIP3   OH2 3175   5.049   4.166   0.759
 1080TIP3    H1 3176   4.990   4.228   0.808
 1080TIP3    H2 3177   4.982   4.112   0.712
 1081TIP3   OH2 3178   4.802   3.724   0.857
 1081TIP3    H1 3179   4.808   3.810   0.904
 1081TIP3    H2 3180   4.708   3.703   0.874
 1082TIP3   OH2 3181   4.842   4.334   0.849
 1082TIP3    H1 3182   4.805   4.332   0.759
 1082TIP3    H2 3183   4.764   4.312   0.905
 1083TIP3   OH2 3184   4.602   3.462  -0.094
 1083TIP3    H1 3185   4.521   3.510  -0.069
 1083TIP3    H2 3186   4.581   3.372  -0.065
 1084TIP3   OH2 3187   4.423   3.864   0.793
 1084TIP3    H1 3188   4.356   3.839   0.727
 1084TIP3    H2 3189   4.460   3.778   0.821
 1085TIP3   OH2 3190   4.276   4.061   0.421
 1085TIP3    H1 3191   4.373   4.052   0.420
 1085TIP3    H2 3192   4.265   4.135   0.483
 1086TIP3   OH2 3193   6.143   4.502   0.497
 1086TIP3    H1 3194   6.146   4.405   0.510
 1086TIP3    H2 3195   6.063   4.524   0.549
 1087TIP3   OH2 3196   5.247   4.293   0.617
 1087TIP3    H1 3197   5.247   4.386   0.650
 1087TIP3    H2 3198   5.175   4.254   0.672
 1088TIP3   OH2 3199   4.432   4.259  -0.033
 1088TIP3    H1 3200   4.503   4.261   0.035
 1088TIP3    H2 3201   4.359   4.224   0.021
 1089TIP3   OH2 3202   6.029   3.639   0.757
 1089TIP3    H1 3203   5.946   3.650   0.708
 1089TIP3    H2 3204   6.047   3.544   0.745
 1090TIP3   OH2 3205   4.627   4.047   0.782
 1090TIP3    H1 3206   4.677   4.033   0.866
 1090TIP3    H2 3207   4.553   3.984   0.792
 1091TIP3   OH2 3208   5.025   2.872   0.566
 1091TIP3    H1 3209   4.936   2.840   0.539
 1091TIP3    H2 3210   4.999   2.952   0.616
 1092TIP3   OH2 3211   5.560   2.986   0.759
 1092TIP3    H1 3212   5.633   2.952   0.816
 1092TIP3    H2 3213   5.480   2.961   0.810
 1093TIP3   OH2 3214   5.802   3.419   0.683
 1093TIP3    H1 3215   5.750   3.412   0.767
 1093TIP3    H2 3216   5.771   3.503   0.646
 1094TIP3   OH2 3217   4.957   3.387   0.584
 1094TIP3    H1 3218   4.908   3.408   0.667
 1094TIP3    H2 3219   4.940   3.469   0.533
 1095TIP3   OH2 3220   4.828   3.290   0.128
 1095TIP3    H1 3221   4.736   3.259   0.148
 1095TIP3    H2 3222   4.849   3.226   0.056
 1096TIP3   OH2 3223   5.507   3.638   0.914
 1096TIP3    H1 3224   5.485   3.564   0.976
 1096TIP3    H2 3225   5.602   3.650   0.936
 1097TIP3   OH2 3226   5.494   3.390   0.097
 1097TIP3    H1 3227   5.461   3.423   0.011
 1097TIP3    H2 3228   5.532   3.304   0.069
 1098TIP3   OH2 3229   4.776   3.415   0.794
 1098TIP3    H1 3230   4.804   3.478   0.862
 1098TIP3    H2 3231   4.767   3.333   0.846
 1099TIP3   OH2 3232   4.370   2.944   0.371
 1099TIP3    H1 3233   4.447   2.968   0.426
 1099TIP3    H2 3234   4.409   2.899   0.294
 1100TIP3   OH2 3235   4.342   2.918  -0.096
 1100TIP3    H1 3236   4.387   2.949  -0.177
 1100TIP3    H2 3237   4.280   2.993  -0.081
 1101TIP3   OH2 3238   5.492   3.641   0.493
 1101TIP3    H1 3239   5.532   3.568   0.439
 1101TIP3    H2 3240   5.467   3.588   0.572
 1102TIP3   OH2 3241   5.166   3.108   0.164
 1102TIP3    H1 3242   5.088   3.093   0.220
 1102TIP3    H2 3243   5.239   3.090   0.226
 1103TIP3   OH2 3244   4.602   3.147   0.169
 1103TIP3    H1 3245   4.508   3.152   0.141
 1103TIP3    H2 3246   4.627   3.056   0.147
 1104TIP3   OH2 3247   4.868   3.133  -0.085
 1104TIP3    H1 3248   4.966   3.123  -0.091
 1104TIP3    H2 3249   4.856   3.212  -0.139
 1105TIP3   OH2 3250   5.661   3.173   0.365
 1105TIP3    H1 3251   5.626   3.177   0.457
 1105TIP3    H2 3252   5.607   3.103   0.326
 1106TIP3   OH2 3253   5.836   4.857   0.594
 1106TIP3    H1 3254   5.826   4.871   0.498
 1106TIP3    H2 3255   5.921   4.903   0.613
 1107TIP3   OH2 3256   4.790   3.969   1.002
 1107TIP3    H1 3257   4.868   4.001   1.052
 1107TIP3    H2 3258   4.724   3.967   1.074
 1108TIP3   OH2 3259   5.253   3.427   0.264
 1108TIP3    H1 3260   5.328   3.385   0.219
 1108TIP3    H2 3261   5.253   3.382   0.351
 1109TIP3   OH2 3262   4.776   2.909   0.137
 1109TIP3    H1 3263   4.740   2.831   0.185
 1109TIP3    H2 3264   4.844   2.868   0.082
 1110TIP3   OH2 3265   5.229   3.326   0.539
 1110TIP3    H1 3266   5.140   3.357   0.563
 1110TIP3    H2 3267   5.287   3.380   0.596
 1111TIP3   OH2 3268   5.866   3.953   0.285
 1111TIP3    H1 3269   5.847   3.985   0.195
 1111TIP3    H2 3270   5.781   3.905   0.301
 1112TIP3   OH2 3271   5.368   4.030   0.640
 1112TIP3    H1 3272   5.387   4.006   0.731
 1112TIP3    H2 3273   5.327   4.118   0.649
 1113TIP3   OH2 3274   4.653   3.727   0.320
 1113TIP3    H1 3275   4.698   3.696   0.239
 1113TIP3    H2 3276   4.696   3.673   0.389
 1114TIP3   OH2 3277   4.540   3.653   0.931
 1114TIP3    H1 3278   4.562   3.642   1.026
 1114TIP3    H2 3279   4.470   3.586   0.920
 1115TIP3   OH2 3280   5.264   3.767   0.951
 1115TIP3    H1 3281   5.205   3.706   0.905
 1115TIP3    H2 3282   5.352   3.733   0.924
 1116TIP3   OH2 3283   5.527   4.289   0.534
 1116TIP3    H1 3284   5.430   4.288   0.546
 1116TIP3    H2 3285   5.555   4.338   0.614
 1117TIP3   OH2 3286   6.152   4.222   0.538
 1117TIP3    H1 3287   6.054   4.217   0.532
 1117TIP3    H2 3288   6.176   4.189   0.448
 1118TIP3   OH2 3289   5.633   3.802   0.230
 1118TIP3    H1 3290   5.537   3.794   0.219
 1118TIP3    H2 3291   5.661   3.716   0.193
 1119TIP3   OH2 3292   4.746   4.020  -0.011
 1119TIP3    H1 3293   4.795   4.103  -0.028
 1119TIP3    H2 3294   4.663   4.055   0.022
 1120TIP3   OH2 3295   4.329   3.327  -0.326
 1120TIP3    H1 3296   4.352   3.420  -0.334
 1120TIP3    H2 3297   4.247   3.331  -0.272
 1121TIP3   OH2 3298   4.889   3.802  -0.090
 1121TIP3    H1 3299   4.834   3.874  -0.055
 1121TIP3    H2 3300   4.864   3.729  -0.030
 1122TIP3   OH2 3301   5.031   4.375   0.414
 1122TIP3    H1 3302   5.071   4.451   0.366
 1122TIP3    H2 3303   5.108   4.344   0.465
 1123TIP3   OH2 3304   5.419   4.006   0.373
 1123TIP3    H1 3305   5.406   4.009   0.470
 1123TIP3    H2 3306   5.504   3.959   0.368
 1124TIP3   OH2 3307   5.662   4.553   0.424
 1124TIP3    H1 3308   5.587   4.490   0.427
 1124TIP3    H2 3309   5.636   4.607   0.349
 1125TIP3   OH2 3310   4.752   3.158   0.940
 1125TIP3    H1 3311   4.656   3.159   0.955
 1125TIP3    H2 3312   4.783   3.098   1.010
 1126TIP3   OH2 3313   4.468   4.241   0.572
 1126TIP3    H1 3314   4.521   4.168   0.608
 1126TIP3    H2 3315   4.489   4.311   0.634
 1127TIP3   OH2 3316   5.587   3.222   0.623
 1127TIP3    H1 3317   5.670   3.256   0.661
 1127TIP3    H2 3318   5.573   3.140   0.675
 1128TIP3   OH2 3319   5.142   3.142  -0.105
 1128TIP3    H1 3320   5.196   3.217  -0.133
 1128TIP3    H2 3321   5.162   3.136  -0.009
 1129TIP3   OH2 3322   5.427   3.472   0.697
 1129TIP3    H1 3323   5.448   3.524   0.778
 1129TIP3    H2 3324   5.482   3.393   0.709
 1130TIP3   OH2 3325   5.316   2.894  -0.006
 1130TIP3    H1 3326   5.314   2.944   0.078
 1130TIP3    H2 3327   5.395   2.934  -0.047
 1131TIP3   OH2 3328   4.807   2.884  -0.227
 1131TIP3    H1 3329   4.793   2.952  -0.159
 1131TIP3    H2 3330   4.897   2.854  -0.201
 1132TIP3   OH2 3331   6.067   3.371   0.670
 1132TIP3    H1 3332   5.969   3.376   0.683
 1132TIP3    H2 3333   6.067   3.307   0.597
 1133TIP3   OH2 3334   5.712   3.568   0.108
 1133TIP3    H1 3335   5.638   3.506   0.119
 1133TIP3    H2 3336   5.786   3.516   0.147
 1134TIP3   OH2 3337   4.379   3.060  -0.326
 1134TIP3    H1 3338   4.363   3.157  -0.327
 1134TIP3    H2 3339   4.306   3.028  -0.380
 1135TIP3   OH2 3340   4.760   2.791   0.543
 1135TIP3    H1 3341   4.731   2.755   0.457
 1135TIP3    H2 3342   4.751   2.714   0.602
 1136TIP3   OH2 3343   4.268   3.994  -0.028
 1136TIP3    H1 3344   4.224   4.061   0.027
 1136TIP3    H2 3345   4.314   4.049  -0.093
 1137TIP3   OH2 3346   4.456   4.550   0.994
 1137TIP3    H1 3347   4.542   4.548   1.041
 1137TIP3    H2 3348   4.432   4.456   0.996
 1138TIP3   OH2 3349   4.942   4.519   1.035
 1138TIP3    H1 3350   5.034   4.493   1.045
 1138TIP3    H2 3351   4.914   4.457   0.964
 1139TIP3   OH2 3352   5.581   4.420   0.770
 1139TIP3    H1 3353   5.569   4.351   0.839
 1139TIP3    H2 3354   5.656   4.472   0.804
 1140TIP3   OH2 3355   4.591   3.953   1.191
 1140TIP3    H1 3356   4.601   3.857   1.202
 1140TIP3    H2 3357   4.500   3.960   1.153
 1141TIP3   OH2 3358   5.199   4.043   0.966
 1141TIP3    H1 3359   5.154   4.058   0.881
 1141TIP3    H2 3360   5.228   3.949   0.960
 1142TIP3   OH2 3361   5.687   4.047   0.570
 1142TIP3    H1 3362   5.762   4.099   0.534
 1142TIP3    H2 3363   5.615   4.112   0.562
 1143TIP3   OH2 3364   4.709   3.687   1.176
 1143TIP3    H1 3365   4.786   3.630   1.160
 1143TIP3    H2 3366   4.730   3.724   1.264
 1144TIP3   OH2 3367   5.041   3.576   0.837
 1144TIP3    H1 3368   4.964   3.636   0.838
 1144TIP3    H2 3369   5.092   3.610   0.760
 1145TIP3   OH2 3370   5.559   3.978   0.971
 1145TIP3    H1 3371   5.641   3.953   0.927
 1145TIP3    H2 3372   5.554   3.912   1.042
 1146TIP3   OH2 3373   5.165   3.364   0.964
 1146TIP3    H1 3374   5.166   3.284   0.908
 1146TIP3    H2 3375   5.120   3.429   0.905
 1147TIP3   OH2 3376   5.167   3.154   0.771
 1147TIP3    H1 3377   5.196   3.188   0.684
 1147TIP3    H2 3378   5.074   3.129   0.753
 1148TIP3   OH2 3379   5.194   3.685   0.643
 1148TIP3    H1 3380   5.279   3.694   0.598
 1148TIP3    H2 3381   5.139   3.753   0.599
 1149TIP3   OH2 3382   5.778   3.653   1.027
 1149TIP3    H1 3383   5.822   3.567   1.036
 1149TIP3    H2 3384   5.848   3.709   0.992
 1150TIP3   OH2 3385   5.818   3.906   0.761
 1150TIP3    H1 3386   5.760   3.959   0.701
 1150TIP3    H2 3387   5.906   3.926   0.721
 1151TIP3   OH2 3388   5.042   3.477   1.193
 1151TIP3    H1 3389   4.974   3.409   1.209
 1151TIP3    H2 3390   5.078   3.449   1.106
 1152TIP3   OH2 3391   5.300   2.915   0.840
 1152TIP3    H1 3392   5.249   2.996   0.817
 1152TIP3    H2 3393   5.232   2.845   0.827
 1153TIP3   OH2 3394   5.425   3.420   1.055
 1153TIP3    H1 3395   5.415   3.406   1.151
 1153TIP3    H2 3396   5.335   3.394   1.025
 1154TIP3   OH2 3397   5.666   3.371   0.910
 1154TIP3    H1 3398   5.591   3.368   0.972
 1154TIP3    H2 3399   5.739   3.336   0.965
 1155TIP3   OH2 3400   5.897   3.311   1.059
 1155TIP3    H1 3401   5.909   3.215   1.073
 1155TIP3    H2 3402   5.892   3.346   1.150
 1156TIP3   OH2 3403   4.882   3.258   1.247
 1156TIP3    H1 3404   4.886   3.166   1.214
 1156TIP3    H2 3405   4.918   3.246   1.338
 1157TIP3   OH2 3406   5.393   2.924   1.098
 1157TIP3    H1 3407   5.463   2.856   1.092
 1157TIP3    H2 3408   5.356   2.918   1.008
 1158TIP3   OH2 3409   5.461   3.139   1.255
 1158TIP3    H1 3410   5.440   3.067   1.191
 1158TIP3    H2 3411   5.382   3.197   1.247
 1159TIP3   OH2 3412   4.070   4.357  -0.012
 1159TIP3    H1 3413   4.002   4.298  -0.051
 1159TIP3    H2 3414   4.111   4.298   0.055
 1160TIP3   OH2 3415   4.221   4.209   0.166
 1160TIP3    H1 3416   4.201   4.142   0.235
 1160TIP3    H2 3417   4.262   4.277   0.224
 1161TIP3   OH2 3418   5.973   4.633   0.313
 1161TIP3    H1 3419   5.931   4.545   0.322
 1161TIP3    H2 3420   6.053   4.618   0.368
 1162TIP3   OH2 3421   6.013   4.310   0.827
 1162TIP3    H1 3422   5.940   4.318   0.892
 1162TIP3    H2 3423   6.054   4.399   0.831
 1163TIP3   OH2 3424   5.836   4.388   0.289
 1163TIP3    H1 3425   5.765   4.432   0.340
 1163TIP3    H2 3426   5.793   4.376   0.204
 1164TIP3   OH2 3427   4.399   3.623   0.542
 1164TIP3    H1 3428   4.398   3.591   0.450
 1164TIP3    H2 3429   4.496   3.623   0.560
 1165TIP3   OH2 3430   6.061   3.972   0.654
 1165TIP3    H1 3431   6.132   3.905   0.645
 1165TIP3    H2 3432   6.090   4.041   0.593
 1166TIP3   OH2 3433   6.245   3.777   0.675
 1166TIP3    H1 3434   6.170   3.725   0.711
 1166TIP3    H2 3435   6.318   3.712   0.688
 1167TIP3   OH2 3436   5.934   3.438   0.189
 1167TIP3    H1 3437   6.017   3.459   0.141
 1167TIP3    H2 3438   5.956   3.469   0.279
 1168TIP3   OH2 3439   5.993   3.575   0.420
 1168TIP3    H1 3440   5.915   3.603   0.471
 1168TIP3    H2 3441   6.029   3.662   0.393
 1169TIP3   OH2 3442   4.615   3.305   1.212
 1169TIP3    H1 3443   4.713   3.302   1.216
 1169TIP3    H2 3444   4.593   3.222   1.259
 1170TIP3   OH2 3445   6.455   3.175   0.974
 1170TIP3    H1 3446   6.511   3.107   0.932
 1170TIP3    H2 3447   6.424   3.227   0.897
 1171TIP3   OH2 3448   4.576   2.999   0.546
 1171TIP3    H1 3449   4.637   2.923   0.559
 1171TIP3    H2 3450   4.640   3.073   0.543
 1172TIP3   OH2 3451   4.380   3.273   0.621
 1172TIP3    H1 3452   4.431   3.268   0.538
 1172TIP3    H2 3453   4.409   3.358   0.657
 1173TIP3   OH2 3454   6.321   3.311   0.778
 1173TIP3    H1 3455   6.234   3.350   0.799
 1173TIP3    H2 3456   6.292   3.237   0.721
 1174TIP3   OH2 3457   4.364   2.780   0.133
 1174TIP3    H1 3458   4.270   2.771   0.153
 1174TIP3    H2 3459   4.363   2.834   0.051
 1175TIP3   OH2 3460   4.586   2.867   0.939
 1175TIP3    H1 3461   4.536   2.855   1.021
 1175TIP3    H2 3462   4.516   2.895   0.878
 1176TIP3   OH2 3463   4.623   4.283   1.020
 1176TIP3    H1 3464   4.531   4.257   1.002
 1176TIP3    H2 3465   4.629   4.264   1.115
 1177TIP3   OH2 3466   4.801   4.315   0.561
 1177TIP3    H1 3467   4.753   4.391   0.521
 1177TIP3    H2 3468   4.888   4.330   0.518
 1178TIP3   OH2 3469   5.245   4.559   0.701
 1178TIP3    H1 3470   5.287   4.559   0.790
 1178TIP3    H2 3471   5.307   4.615   0.651
 1179TIP3   OH2 3472   5.416   4.723   0.566
 1179TIP3    H1 3473   5.478   4.665   0.519
 1179TIP3    H2 3474   5.476   4.774   0.625
 1180TIP3   OH2 3475   6.220   3.070   0.660
 1180TIP3    H1 3476   6.127   3.051   0.634
 1180TIP3    H2 3477   6.256   2.978   0.651
 1181TIP3   OH2 3478   4.476   4.573   0.583
 1181TIP3    H1 3479   4.387   4.610   0.563
 1181TIP3    H2 3480   4.487   4.604   0.673
 1182TIP3   OH2 3481   4.714   4.555   0.445
 1182TIP3    H1 3482   4.628   4.567   0.490
 1182TIP3    H2 3483   4.692   4.585   0.355
 1183TIP3   OH2 3484   5.140   4.579   0.250
 1183TIP3    H1 3485   5.057   4.592   0.200
 1183TIP3    H2 3486   5.155   4.669   0.287
 1184TIP3   OH2 3487   5.397   4.528   0.330
 1184TIP3    H1 3488   5.302   4.533   0.303
 1184TIP3    H2 3489   5.435   4.592   0.269
 1185TIP3   OH2 3490   4.390   4.364   0.330
 1185TIP3    H1 3491   4.415   4.339   0.422
 1185TIP3    H2 3492   4.463   4.320   0.282
 1186TIP3   OH2 3493   4.586   4.232   0.188
 1186TIP3    H1 3494   4.599   4.152   0.244
 1186TIP3    H2 3495   4.673   4.278   0.201
 1187TIP3   OH2 3496   4.833   4.344   0.214
 1187TIP3    H1 3497   4.875   4.293   0.144
 1187TIP3    H2 3498   4.896   4.335   0.288
 1188TIP3   OH2 3499   5.412   2.979   0.257
 1188TIP3    H1 3500   5.378   2.914   0.321
 1188TIP3    H2 3501   5.495   2.937   0.228
 1189TIP3   OH2 3502   5.936   2.937   0.170
 1189TIP3    H1 3503   5.970   2.913   0.081
 1189TIP3    H2 3504   5.849   2.894   0.170
 1190TIP3   OH2 3505   4.673   2.699   0.293
 1190TIP3    H1 3506   4.582   2.665   0.295
 1190TIP3    H2 3507   4.723   2.615   0.290
 1191TIP3   OH2 3508   4.451   2.564  -0.060
 1191TIP3    H1 3509   4.494   2.617  -0.131
 1191TIP3    H2 3510   4.432   2.633   0.006
 1192TIP3   OH2 3511   5.107   2.742   0.179
 1192TIP3    H1 3512   5.181   2.769   0.123
 1192TIP3    H2 3513   5.141   2.764   0.267
 1193TIP3   OH2 3514   5.656   2.872   0.149
 1193TIP3    H1 3515   5.671   2.821   0.068
 1193TIP3    H2 3516   5.650   2.799   0.215
 1194TIP3   OH2 3517   4.576   2.717  -0.253
 1194TIP3    H1 3518   4.590   2.665  -0.334
 1194TIP3    H2 3519   4.657   2.772  -0.250
 1195TIP3   OH2 3520   5.062   2.879  -0.141
 1195TIP3    H1 3521   5.129   2.823  -0.098
 1195TIP3    H2 3522   5.106   2.966  -0.133
 1196TIP3   OH2 3523   4.881   2.985   1.187
 1196TIP3    H1 3524   4.846   2.912   1.241
 1196TIP3    H2 3525   4.976   2.982   1.213
 1197TIP3   OH2 3526   5.132   2.977   1.304
 1197TIP3    H1 3527   5.216   2.952   1.261
 1197TIP3    H2 3528   5.120   2.904   1.368
 1198TIP3   OH2 3529   5.956   3.042   1.092
 1198TIP3    H1 3530   5.974   3.006   1.181
 1198TIP3    H2 3531   6.043   3.030   1.048
 1199TIP3   OH2 3532   5.893   4.585   0.595
 1199TIP3    H1 3533   5.813   4.557   0.546
 1199TIP3    H2 3534   5.880   4.682   0.597
 1200TIP3   OH2 3535   6.721   3.302   0.254
 1200TIP3    H1 3536   6.669   3.295   0.172
 1200TIP3    H2 3537   6.657   3.341   0.315
 1201TIP3   OH2 3538   6.611   3.968   0.377
 1201TIP3    H1 3539   6.613   4.056   0.422
 1201TIP3    H2 3540   6.515   3.961   0.358
 1202TIP3   OH2 3541   6.226   4.117   0.300
 1202TIP3    H1 3542   6.247   4.130   0.206
 1202TIP3    H2 3543   6.271   4.033   0.322
 1203TIP3   OH2 3544   6.447   4.289   0.301
 1203TIP3    H1 3545   6.516   4.287   0.370
 1203TIP3    H2 3546   6.379   4.232   0.338
 1204TIP3   OH2 3547   7.336   3.261   0.272
 1204TIP3    H1 3548   7.401   3.194   0.295
 1204TIP3    H2 3549   7.252   3.219   0.300
 1205TIP3   OH2 3550   7.305   3.910   0.403
 1205TIP3    H1 3551   7.270   3.829   0.448
 1205TIP3    H2 3552   7.399   3.886   0.409
 1206TIP3   OH2 3553   6.562   3.674   0.297
 1206TIP3    H1 3554   6.573   3.745   0.362
 1206TIP3    H2 3555   6.553   3.595   0.355
 1207TIP3   OH2 3556   6.603   4.210   0.516
 1207TIP3    H1 3557   6.676   4.255   0.562
 1207TIP3    H2 3558   6.532   4.219   0.583
 1208TIP3   OH2 3559   6.337   3.904   0.432
 1208TIP3    H1 3560   6.359   3.892   0.527
 1208TIP3    H2 3561   6.260   3.845   0.422
 1209TIP3   OH2 3562   7.060   4.028   0.445
 1209TIP3    H1 3563   6.991   3.964   0.417
 1209TIP3    H2 3564   7.142   3.979   0.425
 1210TIP3   OH2 3565   6.541   3.425   0.436
 1210TIP3    H1 3566   6.444   3.422   0.447
 1210TIP3    H2 3567   6.570   3.360   0.502
 1211TIP3   OH2 3568   6.233   4.785   0.508
 1211TIP3    H1 3569   6.326   4.803   0.532
 1211TIP3    H2 3570   6.236   4.689   0.492
 1212TIP3   OH2 3571   6.731   4.761   0.553
 1212TIP3    H1 3572   6.812   4.728   0.593
 1212TIP3    H2 3573   6.709   4.689   0.491
 1213TIP3   OH2 3574   6.384   4.211   0.689
 1213TIP3    H1 3575   6.396   4.114   0.689
 1213TIP3    H2 3576   6.296   4.219   0.645
 1214TIP3   OH2 3577   6.987   4.302   0.450
 1214TIP3    H1 3578   6.947   4.299   0.362
 1214TIP3    H2 3579   7.025   4.212   0.458
 1215TIP3   OH2 3580   6.501   3.942   0.669
 1215TIP3    H1 3581   6.578   3.889   0.645
 1215TIP3    H2 3582   6.528   3.979   0.756
 1216TIP3   OH2 3583   6.860   3.867   0.352
 1216TIP3    H1 3584   6.771   3.899   0.381
 1216TIP3    H2 3585   6.854   3.890   0.258
 1217TIP3   OH2 3586   7.291   4.233   0.492
 1217TIP3    H1 3587   7.374   4.252   0.447
 1217TIP3    H2 3588   7.317   4.168   0.561
 1218TIP3   OH2 3589   6.956   3.617   0.462
 1218TIP3    H1 3590   6.962   3.534   0.409
 1218TIP3    H2 3591   6.927   3.682   0.396
 1219TIP3   OH2 3592   6.968   3.404   0.289
 1219TIP3    H1 3593   7.007   3.420   0.202
 1219TIP3    H2 3594   6.879   3.367   0.268
 1220TIP3   OH2 3595   7.567   3.894   0.554
 1220TIP3    H1 3596   7.565   3.813   0.498
 1220TIP3    H2 3597   7.648   3.940   0.522
 1221TIP3   OH2 3598   6.836   3.736   0.680
 1221TIP3    H1 3599   6.768   3.667   0.697
 1221TIP3    H2 3600   6.874   3.703   0.596
 1222TIP3   OH2 3601   7.089   3.160   0.337
 1222TIP3    H1 3602   7.036   3.240   0.321
 1222TIP3    H2 3603   7.025   3.089   0.314
 1223TIP3   OH2 3604   7.207   3.694   0.539
 1223TIP3    H1 3605   7.206   3.672   0.634
 1223TIP3    H2 3606   7.122   3.655   0.513
 1224TIP3   OH2 3607   7.476   3.670   0.422
 1224TIP3    H1 3608   7.388   3.632   0.439
 1224TIP3    H2 3609   7.535   3.596   0.442
 1225TIP3   OH2 3610   7.704   3.557   0.556
 1225TIP3    H1 3611   7.714   3.464   0.580
 1225TIP3    H2 3612   7.683   3.598   0.642
 1226TIP3   OH2 3613   6.680   3.515   0.735
 1226TIP3    H1 3614   6.683   3.424   0.699
 1226TIP3    H2 3615   6.717   3.500   0.825
 1227TIP3   OH2 3616   7.188   3.180   0.589
 1227TIP3    H1 3617   7.253   3.108   0.581
 1227TIP3    H2 3618   7.146   3.174   0.500
 1228TIP3   OH2 3619   7.261   3.399   0.738
 1228TIP3    H1 3620   7.237   3.325   0.677
 1228TIP3    H2 3621   7.181   3.455   0.734
 1229TIP3   OH2 3622   6.413   3.566   0.709
 1229TIP3    H1 3623   6.511   3.557   0.707
 1229TIP3    H2 3624   6.389   3.479   0.746
 1230TIP3   OH2 3625   6.378   3.131   0.435
 1230TIP3    H1 3626   6.334   3.106   0.517
 1230TIP3    H2 3627   6.303   3.131   0.374
 1231TIP3   OH2 3628   6.423   4.526   0.530
 1231TIP3    H1 3629   6.338   4.500   0.491
 1231TIP3    H2 3630   6.404   4.528   0.624
 1232TIP3   OH2 3631   6.676   3.243   0.677
 1232TIP3    H1 3632   6.643   3.168   0.730
 1232TIP3    H2 3633   6.772   3.239   0.700
 1233TIP3   OH2 3634   6.928   3.235   0.791
 1233TIP3    H1 3635   7.011   3.206   0.749
 1233TIP3    H2 3636   6.915   3.165   0.858
 1234TIP3   OH2 3637   0.431   4.293   1.468
 1234TIP3    H1 3638   0.456   4.378   1.511
 1234TIP3    H2 3639   0.437   4.317   1.374
 1235TIP3   OH2 3640  -0.108   4.494   1.521
 1235TIP3    H1 3641  -0.091   4.398   1.530
 1235TIP3    H2 3642  -0.076   4.511   1.432
 1236TIP3   OH2 3643   0.502   4.504   1.636
 1236TIP3    H1 3644   0.417   4.548   1.613
 1236TIP3    H2 3645   0.507   4.524   1.731
 1237TIP3   OH2 3646   0.060   4.241   1.251
 1237TIP3    H1 3647   0.087   4.180   1.322
 1237TIP3    H2 3648   0.101   4.325   1.281
 1238TIP3   OH2 3649   0.220   4.213   1.639
 1238TIP3    H1 3650   0.133   4.231   1.600
 1238TIP3    H2 3651   0.279   4.229   1.563
 1239TIP3   OH2 3652   0.155   5.239   1.605
 1239TIP3    H1 3653   0.165   5.150   1.565
 1239TIP3    H2 3654   0.125   5.291   1.530
 1240TIP3   OH2 3655   0.355   4.837   1.476
 1240TIP3    H1 3656   0.278   4.898   1.478
 1240TIP3    H2 3657   0.388   4.852   1.385
 1241TIP3   OH2 3658   0.046   4.730   1.761
 1241TIP3    H1 3659   0.037   4.819   1.798
 1241TIP3    H2 3660  -0.045   4.719   1.725
 1242TIP3   OH2 3661   0.410   5.533   1.669
 1242TIP3    H1 3662   0.411   5.436   1.677
 1242TIP3    H2 3663   0.320   5.552   1.705
 1243TIP3   OH2 3664   0.276   4.685   1.932
 1243TIP3    H1 3665   0.197   4.695   1.876
 1243TIP3    H2 3666   0.295   4.589   1.922
 1244TIP3   OH2 3667  -0.186   4.038   1.938
 1244TIP3    H1 3668  -0.126   4.002   2.005
 1244TIP3    H2 3669  -0.273   4.001   1.964
 1245TIP3   OH2 3670   0.053   4.459   1.861
 1245TIP3    H1 3671   0.001   4.457   1.945
 1245TIP3    H2 3672   0.025   4.543   1.820
 1246TIP3   OH2 3673  -0.220   4.686   2.102
 1246TIP3    H1 3674  -0.250   4.610   2.156
 1246TIP3    H2 3675  -0.125   4.687   2.123
 1247TIP3   OH2 3676  -0.209   4.683   1.684
 1247TIP3    H1 3677  -0.183   4.600   1.637
 1247TIP3    H2 3678  -0.269   4.646   1.752
 1248TIP3   OH2 3679  -0.107   4.220   1.540
 1248TIP3    H1 3680  -0.134   4.241   1.632
 1248TIP3    H2 3681  -0.153   4.136   1.526
 1249TIP3   OH2 3682  -0.477   4.351   1.792
 1249TIP3    H1 3683  -0.494   4.429   1.734
 1249TIP3    H2 3684  -0.384   4.369   1.814
 1250TIP3   OH2 3685   0.145   5.009   1.463
 1250TIP3    H1 3686   0.135   5.054   1.377
 1250TIP3    H2 3687   0.054   4.990   1.489
 1251TIP3   OH2 3688  -0.451   4.798   2.193
 1251TIP3    H1 3689  -0.508   4.754   2.128
 1251TIP3    H2 3690  -0.363   4.781   2.155
 1252TIP3   OH2 3691   0.405   5.255   1.703
 1252TIP3    H1 3692   0.307   5.263   1.694
 1252TIP3    H2 3693   0.428   5.225   1.612
 1253TIP3   OH2 3694  -0.162   4.274   1.802
 1253TIP3    H1 3695  -0.078   4.303   1.841
 1253TIP3    H2 3696  -0.179   4.190   1.851
 1254TIP3   OH2 3697  -0.294   4.531   1.890
 1254TIP3    H1 3698  -0.279   4.592   1.965
 1254TIP3    H2 3699  -0.243   4.454   1.918
 1255TIP3   OH2 3700   0.318   4.418   1.850
 1255TIP3    H1 3701   0.221   4.417   1.862
 1255TIP3    H2 3702   0.323   4.370   1.766
 1256TIP3   OH2 3703  -0.180   5.541   2.088
 1256TIP3    H1 3704  -0.151   5.449   2.099
 1256TIP3    H2 3705  -0.108   5.578   2.033
 1257TIP3   OH2 3706  -0.016   5.059   1.733
 1257TIP3    H1 3707   0.034   5.141   1.714
 1257TIP3    H2 3708  -0.109   5.089   1.719
 1258TIP3   OH2 3709  -0.191   5.012   2.152
 1258TIP3    H1 3710  -0.118   4.980   2.097
 1258TIP3    H2 3711  -0.196   4.943   2.220
 1259TIP3   OH2 3712  -0.598   4.142   1.904
 1259TIP3    H1 3713  -0.546   4.218   1.871
 1259TIP3    H2 3714  -0.682   4.183   1.929
 1260TIP3   OH2 3715   0.038   4.693   2.208
 1260TIP3    H1 3716   0.078   4.604   2.205
 1260TIP3    H2 3717   0.104   4.745   2.159
 1261TIP3   OH2 3718   0.077   4.954   1.961
 1261TIP3    H1 3719   0.025   4.997   1.890
 1261TIP3    H2 3720   0.165   4.960   1.919
 1262TIP3   OH2 3721  -0.440   3.949   2.016
 1262TIP3    H1 3722  -0.489   4.028   1.984
 1262TIP3    H2 3723  -0.513   3.885   2.012
 1263TIP3   OH2 3724  -0.323   4.468   2.234
 1263TIP3    H1 3725  -0.308   4.459   2.330
 1263TIP3    H2 3726  -0.408   4.421   2.224
 1264TIP3   OH2 3727  -0.083   4.415   2.090
 1264TIP3    H1 3728  -0.160   4.407   2.150
 1264TIP3    H2 3729  -0.010   4.382   2.146
 1265TIP3   OH2 3730   0.142   4.358   2.247
 1265TIP3    H1 3731   0.155   4.262   2.259
 1265TIP3    H2 3732   0.139   4.391   2.339
 1266TIP3   OH2 3733  -0.344   3.974   2.272
 1266TIP3    H1 3734  -0.282   3.899   2.259
 1266TIP3    H2 3735  -0.396   3.970   2.189
 1267TIP3   OH2 3736  -0.275   4.188   2.418
 1267TIP3    H1 3737  -0.295   4.109   2.363
 1267TIP3    H2 3738  -0.363   4.230   2.421
 1268TIP3   OH2 3739   0.274   5.352   2.005
 1268TIP3    H1 3740   0.179   5.369   2.010
 1268TIP3    H2 3741   0.312   5.442   2.002
 1269TIP3   OH2 3742   0.311   5.016   1.827
 1269TIP3    H1 3743   0.382   4.948   1.821
 1269TIP3    H2 3744   0.346   5.087   1.770
 1270TIP3   OH2 3745   0.494   4.822   1.850
 1270TIP3    H1 3746   0.420   4.769   1.885
 1270TIP3    H2 3747   0.568   4.758   1.864
 1271TIP3   OH2 3748   0.182   4.463   1.367
 1271TIP3    H1 3749   0.263   4.500   1.324
 1271TIP3    H2 3750   0.188   4.508   1.453
 1272TIP3   OH2 3751   0.248   4.618   1.595
 1272TIP3    H1 3752   0.175   4.656   1.647
 1272TIP3    H2 3753   0.286   4.698   1.552
 1273TIP3   OH2 3754   0.702   4.217   2.150
 1273TIP3    H1 3755   0.759   4.151   2.105
 1273TIP3    H2 3756   0.671   4.272   2.075
 1274TIP3   OH2 3757   0.572   4.357   1.957
 1274TIP3    H1 3758   0.486   4.398   1.981
 1274TIP3    H2 3759   0.539   4.286   1.898
 1275TIP3   OH2 3760   0.471   4.123   1.835
 1275TIP3    H1 3761   0.378   4.115   1.806
 1275TIP3    H2 3762   0.502   4.031   1.822
 1276TIP3   OH2 3763   0.148   4.018   1.390
 1276TIP3    H1 3764   0.221   4.030   1.327
 1276TIP3    H2 3765   0.097   3.950   1.344
 1277TIP3   OH2 3766   0.323   4.032   1.174
 1277TIP3    H1 3767   0.301   4.004   1.082
 1277TIP3    H2 3768   0.345   4.125   1.153
 1278TIP3   OH2 3769   0.203   4.086   2.268
 1278TIP3    H1 3770   0.221   4.054   2.359
 1278TIP3    H2 3771   0.292   4.079   2.227
 1279TIP3   OH2 3772   0.155   5.567   1.758
 1279TIP3    H1 3773   0.066   5.534   1.736
 1279TIP3    H2 3774   0.141   5.664   1.748
 1280TIP3   OH2 3775   1.409   5.010   0.541
 1280TIP3    H1 3776   1.392   5.105   0.542
 1280TIP3    H2 3777   1.330   4.974   0.497
 1281TIP3   OH2 3778   1.407   5.008   0.906
 1281TIP3    H1 3779   1.436   4.979   0.995
 1281TIP3    H2 3780   1.367   4.927   0.872
 1282TIP3   OH2 3781   0.717   4.908   1.276
 1282TIP3    H1 3782   0.751   4.840   1.336
 1282TIP3    H2 3783   0.798   4.957   1.255
 1283TIP3   OH2 3784   1.643   5.303   0.595
 1283TIP3    H1 3785   1.646   5.235   0.664
 1283TIP3    H2 3786   1.675   5.381   0.644
 1284TIP3   OH2 3787   0.695   5.296   1.068
 1284TIP3    H1 3788   0.689   5.199   1.057
 1284TIP3    H2 3789   0.790   5.307   1.045
 1285TIP3   OH2 3790   0.565   4.797   0.912
 1285TIP3    H1 3791   0.566   4.731   0.985
 1285TIP3    H2 3792   0.491   4.766   0.860
 1286TIP3   OH2 3793   1.348   5.749   0.662
 1286TIP3    H1 3794   1.421   5.707   0.612
 1286TIP3    H2 3795   1.354   5.702   0.746
 1287TIP3   OH2 3796   1.221   5.230   0.953
 1287TIP3    H1 3797   1.262   5.150   0.917
 1287TIP3    H2 3798   1.303   5.278   0.978
 1288TIP3   OH2 3799   2.218   4.552   0.955
 1288TIP3    H1 3800   2.247   4.635   0.999
 1288TIP3    H2 3801   2.239   4.573   0.862
 1289TIP3   OH2 3802   1.629   4.747   1.001
 1289TIP3    H1 3803   1.671   4.661   1.015
 1289TIP3    H2 3804   1.585   4.732   0.915
 1290TIP3   OH2 3805   0.958   4.396   0.961
 1290TIP3    H1 3806   0.938   4.469   0.899
 1290TIP3    H2 3807   0.913   4.322   0.915
 1291TIP3   OH2 3808   1.704   4.588   0.581
 1291TIP3    H1 3809   1.739   4.517   0.638
 1291TIP3    H2 3810   1.683   4.538   0.500
 1292TIP3   OH2 3811   0.590   4.583   1.081
 1292TIP3    H1 3812   0.677   4.569   1.123
 1292TIP3    H2 3813   0.600   4.523   1.004
 1293TIP3   OH2 3814   1.036   4.802   0.843
 1293TIP3    H1 3815   1.128   4.774   0.866
 1293TIP3    H2 3816   0.993   4.715   0.826
 1294TIP3   OH2 3817   2.291   4.758   1.127
 1294TIP3    H1 3818   2.210   4.809   1.107
 1294TIP3    H2 3819   2.315   4.795   1.213
 1295TIP3   OH2 3820   0.955   4.376   1.392
 1295TIP3    H1 3821   0.897   4.414   1.323
 1295TIP3    H2 3822   0.901   4.395   1.471
 1296TIP3   OH2 3823   1.311   5.236   0.362
 1296TIP3    H1 3824   1.270   5.163   0.314
 1296TIP3    H2 3825   1.243   5.257   0.428
 1297TIP3   OH2 3826   1.065   5.152   1.186
 1297TIP3    H1 3827   1.001   5.215   1.225
 1297TIP3    H2 3828   1.093   5.200   1.106
 1298TIP3   OH2 3829   1.881   4.460   0.766
 1298TIP3    H1 3830   1.873   4.446   0.861
 1298TIP3    H2 3831   1.915   4.551   0.763
 1299TIP3   OH2 3832   0.829   4.490   1.178
 1299TIP3    H1 3833   0.892   4.563   1.198
 1299TIP3    H2 3834   0.876   4.450   1.100
 1300TIP3   OH2 3835   0.896   5.340   1.291
 1300TIP3    H1 3836   0.867   5.421   1.243
 1300TIP3    H2 3837   0.815   5.324   1.344
 1301TIP3   OH2 3838   1.718   5.548   0.757
 1301TIP3    H1 3839   1.628   5.540   0.795
 1301TIP3    H2 3840   1.711   5.634   0.712
 1302TIP3   OH2 3841   2.011   4.447   1.115
 1302TIP3    H1 3842   1.927   4.489   1.093
 1302TIP3    H2 3843   2.073   4.485   1.049
 1303TIP3   OH2 3844   1.299   4.089   1.116
 1303TIP3    H1 3845   1.277   3.995   1.129
 1303TIP3    H2 3846   1.220   4.130   1.159
 1304TIP3   OH2 3847   1.520   5.630   0.486
 1304TIP3    H1 3848   1.556   5.548   0.444
 1304TIP3    H2 3849   1.506   5.687   0.410
 1305TIP3   OH2 3850   1.571   5.400   0.344
 1305TIP3    H1 3851   1.543   5.328   0.285
 1305TIP3    H2 3852   1.599   5.349   0.424
 1306TIP3   OH2 3853   1.945   5.468   1.102
 1306TIP3    H1 3854   1.943   5.389   1.044
 1306TIP3    H2 3855   1.938   5.540   1.036
 1307TIP3   OH2 3856   1.229   4.908   0.349
 1307TIP3    H1 3857   1.145   4.919   0.303
 1307TIP3    H2 3858   1.288   4.908   0.272
 1308TIP3   OH2 3859   7.651   1.168   6.672
 1308TIP3    H1 3860   7.711   1.242   6.693
 1308TIP3    H2 3861   7.667   1.162   6.575
 1309TIP3   OH2 3862   2.141   5.095   0.941
 1309TIP3    H1 3863   2.062   5.152   0.951
 1309TIP3    H2 3864   2.174   5.126   0.854
 1310TIP3   OH2 3865   1.591   4.950   0.351
 1310TIP3    H1 3866   1.539   4.970   0.433
 1310TIP3    H2 3867   1.674   4.917   0.391
 1311TIP3   OH2 3868   1.823   4.981   1.242
 1311TIP3    H1 3869   1.822   5.064   1.292
 1311TIP3    H2 3870   1.735   4.986   1.198
 1312TIP3   OH2 3871   0.810   4.931   0.748
 1312TIP3    H1 3872   0.790   4.864   0.682
 1312TIP3    H2 3873   0.895   4.896   0.784
 1313TIP3   OH2 3874   0.940   5.291   0.940
 1313TIP3    H1 3875   0.917   5.325   0.853
 1313TIP3    H2 3876   1.037   5.293   0.936
 1314TIP3   OH2 3877   0.971   4.906   1.105
 1314TIP3    H1 3878   0.990   4.894   1.010
 1314TIP3    H2 3879   1.001   4.998   1.121
 1315TIP3   OH2 3880   1.472   5.552   0.876
 1315TIP3    H1 3881   1.475   5.627   0.938
 1315TIP3    H2 3882   1.465   5.474   0.935
 1316TIP3   OH2 3883   1.097   5.469   1.425
 1316TIP3    H1 3884   1.036   5.531   1.470
 1316TIP3    H2 3885   1.032   5.415   1.375
 1317TIP3   OH2 3886   1.451   4.828   0.156
 1317TIP3    H1 3887   1.499   4.872   0.230
 1317TIP3    H2 3888   1.456   4.896   0.087
 1318TIP3   OH2 3889   0.852   5.022   1.530
 1318TIP3    H1 3890   0.855   5.109   1.573
 1318TIP3    H2 3891   0.756   5.003   1.533
 1319TIP3   OH2 3892   0.893   5.639   1.513
 1319TIP3    H1 3893   0.861   5.637   1.420
 1319TIP3    H2 3894   0.812   5.613   1.563
 1320TIP3   OH2 3895   1.948   4.043   0.199
 1320TIP3    H1 3896   1.869   4.059   0.253
 1320TIP3    H2 3897   1.957   4.128   0.151
 1321TIP3   OH2 3898   0.466   5.159   1.458
 1321TIP3    H1 3899   0.441   5.131   1.369
 1321TIP3    H2 3900   0.509   5.078   1.492
 1322TIP3   OH2 3901   2.175   5.809   1.132
 1322TIP3    H1 3902   2.184   5.713   1.151
 1322TIP3    H2 3903   2.097   5.830   1.188
 1323TIP3   OH2 3904   1.296   5.594   1.285
 1323TIP3    H1 3905   1.291   5.687   1.315
 1323TIP3    H2 3906   1.221   5.555   1.334
 1324TIP3   OH2 3907   2.074   4.939   1.424
 1324TIP3    H1 3908   1.995   4.953   1.369
 1324TIP3    H2 3909   2.089   4.843   1.412
 1325TIP3   OH2 3910   0.678   5.340   1.456
 1325TIP3    H1 3911   0.728   5.322   1.538
 1325TIP3    H2 3912   0.601   5.280   1.464
 1326TIP3   OH2 3913   1.068   4.172   1.236
 1326TIP3    H1 3914   0.979   4.143   1.207
 1326TIP3    H2 3915   1.043   4.255   1.280
 1327TIP3   OH2 3916   1.606   4.282   1.424
 1327TIP3    H1 3917   1.674   4.261   1.491
 1327TIP3    H2 3918   1.522   4.268   1.472
 1328TIP3   OH2 3919   1.844   4.715   1.342
 1328TIP3    H1 3920   1.795   4.714   1.427
 1328TIP3    H2 3921   1.821   4.803   1.306
 1329TIP3   OH2 3922   1.255   4.201   0.254
 1329TIP3    H1 3923   1.193   4.267   0.288
 1329TIP3    H2 3924   1.224   4.195   0.162
 1330TIP3   OH2 3925   1.006   4.685   1.251
 1330TIP3    H1 3926   0.954   4.708   1.331
 1330TIP3    H2 3927   0.995   4.766   1.197
 1331TIP3   OH2 3928   0.892   4.579   0.770
 1331TIP3    H1 3929   0.799   4.553   0.785
 1331TIP3    H2 3930   0.909   4.548   0.679
 1332TIP3   OH2 3931   1.302   4.611   0.378
 1332TIP3    H1 3932   1.312   4.707   0.371
 1332TIP3    H2 3933   1.383   4.578   0.335
 1333TIP3   OH2 3934   1.553   4.938   1.577
 1333TIP3    H1 3935   1.531   4.865   1.639
 1333TIP3    H2 3936   1.647   4.952   1.598
 1334TIP3   OH2 3937   1.524   4.704   0.753
 1334TIP3    H1 3938   1.442   4.710   0.700
 1334TIP3    H2 3939   1.575   4.640   0.698
 1335TIP3   OH2 3940   0.824   4.718   1.458
 1335TIP3    H1 3941   0.849   4.780   1.527
 1335TIP3    H2 3942   0.810   4.635   1.508
 1336TIP3   OH2 3943   0.415   4.254   1.046
 1336TIP3    H1 3944   0.487   4.281   1.107
 1336TIP3    H2 3945   0.465   4.217   0.973
 1337TIP3   OH2 3946   1.541   4.944   1.160
 1337TIP3    H1 3947   1.578   4.874   1.101
 1337TIP3    H2 3948   1.512   4.888   1.235
 1338TIP3   OH2 3949   1.195   4.375   0.833
 1338TIP3    H1 3950   1.120   4.387   0.889
 1338TIP3    H2 3951   1.266   4.417   0.878
 1339TIP3   OH2 3952   0.662   4.437   0.861
 1339TIP3    H1 3953   0.585   4.452   0.803
 1339TIP3    H2 3954   0.698   4.351   0.832
 1340TIP3   OH2 3955   0.954   4.499   0.513
 1340TIP3    H1 3956   1.038   4.471   0.476
 1340TIP3    H2 3957   0.892   4.437   0.472
 1341TIP3   OH2 3958   1.703   4.480   1.033
 1341TIP3    H1 3959   1.670   4.492   1.124
 1341TIP3    H2 3960   1.628   4.432   0.993
 1342TIP3   OH2 3961   1.875   6.163   1.245
 1342TIP3    H1 3962   1.877   6.183   1.150
 1342TIP3    H2 3963   1.957   6.207   1.276
 1343TIP3   OH2 3964   0.835   5.268   1.671
 1343TIP3    H1 3965   0.915   5.301   1.716
 1343TIP3    H2 3966   0.771   5.270   1.744
 1344TIP3   OH2 3967   1.294   4.732   0.939
 1344TIP3    H1 3968   1.349   4.689   0.872
 1344TIP3    H2 3969   1.311   4.679   1.019
 1345TIP3   OH2 3970   0.831   4.214   0.808
 1345TIP3    H1 3971   0.789   4.135   0.847
 1345TIP3    H2 3972   0.889   4.175   0.742
 1346TIP3   OH2 3973   1.275   4.616   1.217
 1346TIP3    H1 3974   1.186   4.655   1.225
 1346TIP3    H2 3975   1.332   4.681   1.263
 1347TIP3   OH2 3976   1.913   5.249   0.936
 1347TIP3    H1 3977   1.938   5.297   0.855
 1347TIP3    H2 3978   1.828   5.207   0.911
 1348TIP3   OH2 3979   1.480   4.346   0.104
 1348TIP3    H1 3980   1.402   4.314   0.155
 1348TIP3    H2 3981   1.505   4.423   0.155
 1349TIP3   OH2 3982   1.415   5.333   1.301
 1349TIP3    H1 3983   1.431   5.305   1.392
 1349TIP3    H2 3984   1.370   5.419   1.312
 1350TIP3   OH2 3985   1.552   4.579   0.240
 1350TIP3    H1 3986   1.646   4.579   0.270
 1350TIP3    H2 3987   1.543   4.667   0.200
 1351TIP3   OH2 3988   0.714   5.042   0.986
 1351TIP3    H1 3989   0.746   5.008   0.900
 1351TIP3    H2 3990   0.698   4.958   1.032
 1352TIP3   OH2 3991   0.583   4.956   1.598
 1352TIP3    H1 3992   0.605   4.940   1.692
 1352TIP3    H2 3993   0.517   4.886   1.580
 1353TIP3   OH2 3994   1.309   5.068   1.616
 1353TIP3    H1 3995   1.249   5.010   1.566
 1353TIP3    H2 3996   1.396   5.033   1.586
 1354TIP3   OH2 3997   1.570   5.598   1.195
 1354TIP3    H1 3998   1.475   5.586   1.213
 1354TIP3    H2 3999   1.599   5.644   1.276
 1355TIP3   OH2 4000   1.985   4.658   0.108
 1355TIP3    H1 4001   1.923   4.617   0.043
 1355TIP3    H2 4002   1.983   4.749   0.071
 1356TIP3   OH2 4003   2.197   5.527   1.190
 1356TIP3    H1 4004   2.099   5.518   1.184
 1356TIP3    H2 4005   2.222   5.491   1.102
 1357TIP3   OH2 4006   1.675   5.111   0.849
 1357TIP3    H1 4007   1.582   5.084   0.867
 1357TIP3    H2 4008   1.710   5.029   0.809
 1358TIP3   OH2 4009   1.074   5.698   1.109
 1358TIP3    H1 4010   1.085   5.713   1.015
 1358TIP3    H2 4011   1.158   5.655   1.133
 1359TIP3   OH2 4012   1.470   5.319   1.034
 1359TIP3    H1 4013   1.455   5.316   1.131
 1359TIP3    H2 4014   1.547   5.261   1.025
 1360TIP3   OH2 4015   1.711   5.851   1.092
 1360TIP3    H1 4016   1.634   5.791   1.084
 1360TIP3    H2 4017   1.695   5.911   1.016
 1361TIP3   OH2 4018   0.794   4.459   1.604
 1361TIP3    H1 4019   0.697   4.465   1.616
 1361TIP3    H2 4020   0.819   4.400   1.676
 1362TIP3   OH2 4021   1.616   5.159   0.165
 1362TIP3    H1 4022   1.602   5.092   0.235
 1362TIP3    H2 4023   1.710   5.146   0.144
 1363TIP3   OH2 4024   0.554   5.529   1.292
 1363TIP3    H1 4025   0.569   5.443   1.251
 1363TIP3    H2 4026   0.616   5.522   1.367
 1364TIP3   OH2 4027   1.628   4.528   1.294
 1364TIP3    H1 4028   1.709   4.565   1.333
 1364TIP3    H2 4029   1.616   4.444   1.343
 1365TIP3   OH2 4030   1.476   4.326   0.407
 1365TIP3    H1 4031   1.474   4.264   0.337
 1365TIP3    H2 4032   1.553   4.303   0.462
 1366TIP3   OH2 4033   1.267   4.646   0.648
 1366TIP3    H1 4034   1.287   4.607   0.560
 1366TIP3    H2 4035   1.174   4.668   0.638
 1367TIP3   OH2 4036   1.469   4.774   1.360
 1367TIP3    H1 4037   1.491   4.827   1.439
 1367TIP3    H2 4038   1.525   4.694   1.371
 1368TIP3   OH2 4039   1.369   4.200   0.713
 1368TIP3    H1 4040   1.294   4.144   0.628
 1368TIP3    H2 4041   1.421   4.139   0.736
 1369TIP3   OH2 4042   5.869   8.974   5.218
 1369TIP3    H1 4043   5.789   9.026   5.230
 1369TIP3    H2 4044   5.864   8.908   5.288
 1370TIP3   OH2 4045   2.111   4.673   1.344
 1370TIP3    H1 4046   2.013   4.669   1.347
 1370TIP3    H2 4047   2.128   4.645   1.254
 1371TIP3   OH2 4048   1.761   4.870   0.732
 1371TIP3    H1 4049   1.687   4.808   0.741
 1371TIP3    H2 4050   1.834   4.821   0.776
 1372TIP3   OH2 4051   1.738   5.818   0.687
 1372TIP3    H1 4052   1.703   5.867   0.609
 1372TIP3    H2 4053   1.834   5.833   0.670
 1373TIP3   OH2 4054   0.806   4.095   1.203
 1373TIP3    H1 4055   0.773   4.058   1.119
 1373TIP3    H2 4056   0.801   4.019   1.264
 1374TIP3   OH2 4057   0.501   5.829   1.689
 1374TIP3    H1 4058   0.590   5.829   1.731
 1374TIP3    H2 4059   0.489   5.735   1.669
 1375TIP3   OH2 4060   0.991   5.814   1.705
 1375TIP3    H1 4061   1.083   5.785   1.709
 1375TIP3    H2 4062   0.957   5.755   1.634
 1376TIP3   OH2 4063   1.622   5.725   1.436
 1376TIP3    H1 4064   1.612   5.653   1.503
 1376TIP3    H2 4065   1.702   5.772   1.466
 1377TIP3   OH2 4066   0.633   5.258   1.861
 1377TIP3    H1 4067   0.652   5.162   1.864
 1377TIP3    H2 4068   0.547   5.259   1.815
 1378TIP3   OH2 4069   1.240   5.343   1.632
 1378TIP3    H1 4070   1.198   5.361   1.545
 1378TIP3    H2 4071   1.270   5.250   1.623
 1379TIP3   OH2 4072   1.734   5.350   1.238
 1379TIP3    H1 4073   1.808   5.396   1.193
 1379TIP3    H2 4074   1.661   5.413   1.223
 1380TIP3   OH2 4075   0.750   4.994   1.840
 1380TIP3    H1 4076   0.823   4.934   1.818
 1380TIP3    H2 4077   0.777   5.025   1.929
 1381TIP3   OH2 4078   1.089   4.877   1.502
 1381TIP3    H1 4079   1.010   4.936   1.503
 1381TIP3    H2 4080   1.138   4.912   1.424
 1382TIP3   OH2 4081   1.605   5.281   1.636
 1382TIP3    H1 4082   1.684   5.256   1.587
 1382TIP3    H2 4083   1.601   5.212   1.706
 1383TIP3   OH2 4084   1.211   4.666   1.627
 1383TIP3    H1 4085   1.209   4.586   1.570
 1383TIP3    H2 4086   1.167   4.733   1.569
 1384TIP3   OH2 4087   1.215   4.448   1.435
 1384TIP3    H1 4088   1.241   4.494   1.353
 1384TIP3    H2 4089   1.120   4.428   1.418
 1385TIP3   OH2 4090   1.243   4.989   1.311
 1385TIP3    H1 4091   1.324   4.997   1.259
 1385TIP3    H2 4092   1.183   5.053   1.265
 1386TIP3   OH2 4093   1.823   4.955   1.690
 1386TIP3    H1 4094   1.873   4.872   1.699
 1386TIP3    H2 4095   1.890   5.014   1.653
 1387TIP3   OH2 4096   1.865   5.207   1.425
 1387TIP3    H1 4097   1.807   5.260   1.366
 1387TIP3    H2 4098   1.952   5.228   1.385
 1388TIP3   OH2 4099   1.090   4.777   1.859
 1388TIP3    H1 4100   1.020   4.711   1.873
 1388TIP3    H2 4101   1.122   4.752   1.770
 1389TIP3   OH2 4102   1.343   4.212   1.502
 1389TIP3    H1 4103   1.299   4.297   1.478
 1389TIP3    H2 4104   1.269   4.150   1.490
 1390TIP3   OH2 4105   1.472   4.720   1.718
 1390TIP3    H1 4106   1.459   4.708   1.814
 1390TIP3    H2 4107   1.382   4.696   1.687
 1391TIP3   OH2 4108   1.710   4.668   1.572
 1391TIP3    H1 4109   1.635   4.671   1.635
 1391TIP3    H2 4110   1.784   4.639   1.630
 1392TIP3   OH2 4111   1.937   4.609   1.724
 1392TIP3    H1 4112   1.951   4.514   1.743
 1392TIP3    H2 4113   1.934   4.649   1.814
 1393TIP3   OH2 4114   0.928   4.558   1.909
 1393TIP3    H1 4115   0.933   4.466   1.875
 1393TIP3    H2 4116   0.962   4.546   2.000
 1394TIP3   OH2 4117   1.441   4.225   1.759
 1394TIP3    H1 4118   1.508   4.154   1.751
 1394TIP3    H2 4119   1.399   4.220   1.670
 1395TIP3   OH2 4120   1.505   4.440   1.919
 1395TIP3    H1 4121   1.482   4.370   1.854
 1395TIP3    H2 4122   1.427   4.500   1.913
 1396TIP3   OH2 4123   1.989   5.910   0.637
 1396TIP3    H1 4124   2.013   5.940   0.726
 1396TIP3    H2 4125   2.050   5.961   0.581
 1397TIP3   OH2 4126   2.018   5.934   0.916
 1397TIP3    H1 4127   1.969   5.849   0.912
 1397TIP3    H2 4128   2.087   5.908   0.979
 1398TIP3   OH2 4129   2.057   5.613   1.490
 1398TIP3    H1 4130   1.985   5.621   1.556
 1398TIP3    H2 4131   2.100   5.700   1.495
 1399TIP3   OH2 4132   1.883   5.118   0.106
 1399TIP3    H1 4133   1.951   5.184   0.081
 1399TIP3    H2 4134   1.923   5.080   0.188
 1400TIP3   OH2 4135   2.001   4.991   0.316
 1400TIP3    H1 4136   1.939   4.945   0.377
 1400TIP3    H2 4137   2.067   5.028   0.379
 1401TIP3   OH2 4138   2.042   5.377   0.731
 1401TIP3    H1 4139   2.105   5.315   0.689
 1401TIP3    H2 4140   2.040   5.452   0.669
 1402TIP3   OH2 4141   1.888   5.688   0.936
 1402TIP3    H1 4142   1.818   5.721   0.995
 1402TIP3    H2 4143   1.837   5.636   0.870
 1403TIP3   OH2 4144   1.946   4.892  -0.037
 1403TIP3    H1 4145   1.865   4.869  -0.085
 1403TIP3    H2 4146   1.920   4.973   0.011
 1404TIP3   OH2 4147   1.820   4.583  -0.092
 1404TIP3    H1 4148   1.746   4.634  -0.131
 1404TIP3    H2 4149   1.788   4.491  -0.100
 1405TIP3   OH2 4150   1.820   4.841   0.463
 1405TIP3    H1 4151   1.810   4.744   0.458
 1405TIP3    H2 4152   1.805   4.855   0.559
 1406TIP3   OH2 4153   0.454   4.888   1.232
 1406TIP3    H1 4154   0.440   4.912   1.138
 1406TIP3    H2 4155   0.552   4.898   1.239
 1407TIP3   OH2 4156   2.107   5.275   1.315
 1407TIP3    H1 4157   2.179   5.209   1.308
 1407TIP3    H2 4158   2.137   5.345   1.255
 1408TIP3   OH2 4159   2.288   5.078   1.335
 1408TIP3    H1 4160   2.216   5.026   1.375
 1408TIP3    H2 4161   2.363   5.016   1.348
 1409TIP3   OH2 4162   1.749   4.319  -0.088
 1409TIP3    H1 4163   1.833   4.283  -0.054
 1409TIP3    H2 4164   1.683   4.277  -0.031
 1410TIP3   OH2 4165   1.821   4.560   0.317
 1410TIP3    H1 4166   1.862   4.476   0.348
 1410TIP3    H2 4167   1.891   4.593   0.258
 1411TIP3   OH2 4168   1.974   4.739   0.849
 1411TIP3    H1 4169   2.061   4.765   0.809
 1411TIP3    H2 4170   1.987   4.777   0.938
 1412TIP3   OH2 4171   2.043   4.881   1.083
 1412TIP3    H1 4172   1.964   4.916   1.130
 1412TIP3    H2 4173   2.075   4.961   1.036
 1413TIP3   OH2 4174   0.661   4.611   1.885
 1413TIP3    H1 4175   0.759   4.604   1.885
 1413TIP3    H2 4176   0.637   4.524   1.923
 1414TIP3   OH2 4177   2.493   4.471   1.639
 1414TIP3    H1 4178   2.554   4.406   1.596
 1414TIP3    H2 4179   2.467   4.527   1.563
 1415TIP3   OH2 4180   1.928   4.312   0.390
 1415TIP3    H1 4181   1.974   4.302   0.476
 1415TIP3    H2 4182   1.866   4.237   0.393
 1416TIP3   OH2 4183   0.622   4.300   1.211
 1416TIP3    H1 4184   0.686   4.226   1.221
 1416TIP3    H2 4185   0.684   4.376   1.206
 1417TIP3   OH2 4186   0.421   4.578   1.293
 1417TIP3    H1 4187   0.474   4.567   1.211
 1417TIP3    H2 4188   0.442   4.670   1.314
 1418TIP3   OH2 4189   2.366   4.613   1.445
 1418TIP3    H1 4190   2.280   4.654   1.465
 1418TIP3    H2 4191   2.337   4.542   1.385
 1419TIP3   OH2 4192   2.010   4.252   0.010
 1419TIP3    H1 4193   2.076   4.189  -0.024
 1419TIP3    H2 4194   2.065   4.332   0.018
 1420TIP3   OH2 4195   0.631   4.153   1.599
 1420TIP3    H1 4196   0.580   4.152   1.682
 1420TIP3    H2 4197   0.567   4.196   1.539
 1421TIP3   OH2 4198   0.678   5.578   1.675
 1421TIP3    H1 4199   0.585   5.552   1.659
 1421TIP3    H2 4200   0.684   5.571   1.771
 1422TIP3   OH2 4201   0.846   5.611   1.237
 1422TIP3    H1 4202   0.776   5.635   1.172
 1422TIP3    H2 4203   0.926   5.643   1.191
 1423TIP3   OH2 4204   1.294   5.863   1.364
 1423TIP3    H1 4205   1.337   5.861   1.452
 1423TIP3    H2 4206   1.362   5.911   1.312
 1424TIP3   OH2 4207   1.470   6.016   1.220
 1424TIP3    H1 4208   1.539   5.962   1.178
 1424TIP3    H2 4209   1.524   6.071   1.281
 1425TIP3   OH2 4210   2.265   4.375   1.322
 1425TIP3    H1 4211   2.175   4.370   1.287
 1425TIP3    H2 4212   2.297   4.283   1.310
 1426TIP3   OH2 4213   1.212   5.898   0.888
 1426TIP3    H1 4214   1.116   5.880   0.872
 1426TIP3    H2 4215   1.207   5.976   0.947
 1427TIP3   OH2 4216   1.464   5.822   0.959
 1427TIP3    H1 4217   1.371   5.841   0.934
 1427TIP3    H2 4218   1.510   5.894   0.914
 1428TIP3   OH2 4219   1.665   6.010   0.872
 1428TIP3    H1 4220   1.653   6.094   0.824
 1428TIP3    H2 4221   1.692   5.949   0.800
 1429TIP3   OH2 4222   1.465   4.286   0.990
 1429TIP3    H1 4223   1.496   4.200   0.962
 1429TIP3    H2 4224   1.379   4.263   1.027
 1430TIP3   OH2 4225   1.998   4.166   0.841
 1430TIP3    H1 4226   2.050   4.218   0.775
 1430TIP3    H2 4227   1.911   4.203   0.825
 1431TIP3   OH2 4228   2.093   4.270   0.609
 1431TIP3    H1 4229   2.166   4.220   0.567
 1431TIP3    H2 4230   2.123   4.362   0.595
 1432TIP3   OH2 4231   0.715   4.003   0.952
 1432TIP3    H1 4232   0.630   3.958   0.945
 1432TIP3    H2 4233   0.775   3.924   0.952
 1433TIP3   OH2 4234   1.131   4.024   0.857
 1433TIP3    H1 4235   1.154   4.078   0.786
 1433TIP3    H2 4236   1.178   4.073   0.929
 1434TIP3   OH2 4237   1.632   4.126   0.757
 1434TIP3    H1 4238   1.714   4.180   0.745
 1434TIP3    H2 4239   1.662   4.057   0.817
 1435TIP3   OH2 4240   1.747   4.097   0.385
 1435TIP3    H1 4241   1.657   4.104   0.351
 1435TIP3    H2 4242   1.737   4.017   0.441
 1436TIP3   OH2 4243   1.553   4.375   0.686
 1436TIP3    H1 4244   1.462   4.365   0.655
 1436TIP3    H2 4245   1.557   4.289   0.729
 1437TIP3   OH2 4246   0.927   4.280   1.847
 1437TIP3    H1 4247   0.891   4.211   1.905
 1437TIP3    H2 4248   1.021   4.281   1.876
 1438TIP3   OH2 4249   1.175   4.277   1.968
 1438TIP3    H1 4250   1.261   4.251   1.931
 1438TIP3    H2 4251   1.161   4.207   2.035
 1439TIP3   OH2 4252   2.000   4.337   1.755
 1439TIP3    H1 4253   2.021   4.307   1.846
 1439TIP3    H2 4254   2.089   4.335   1.713
 1440TIP3   OH2 4255   1.937   5.893   1.250
 1440TIP3    H1 4256   1.859   5.860   1.201
 1440TIP3    H2 4257   1.916   5.988   1.254
 1441TIP3   OH2 4258   3.222   5.274   0.065
 1441TIP3    H1 4259   3.199   5.362   0.029
 1441TIP3    H2 4260   3.139   5.227   0.049
 1442TIP3   OH2 4261   3.203   5.267   0.399
 1442TIP3    H1 4262   3.236   5.235   0.485
 1442TIP3    H2 4263   3.164   5.186   0.362
 1443TIP3   OH2 4264   2.504   5.159   0.755
 1443TIP3    H1 4265   2.536   5.093   0.819
 1443TIP3    H2 4266   2.568   5.231   0.770
 1444TIP3   OH2 4267   3.461   5.557   0.067
 1444TIP3    H1 4268   3.434   5.489   0.130
 1444TIP3    H2 4269   3.477   5.633   0.126
 1445TIP3   OH2 4270   2.467   5.568   0.473
 1445TIP3    H1 4271   2.461   5.470   0.480
 1445TIP3    H2 4272   2.561   5.579   0.496
 1446TIP3   OH2 4273   2.184   4.774   0.268
 1446TIP3    H1 4274   2.136   4.856   0.286
 1446TIP3    H2 4275   2.112   4.717   0.237
 1447TIP3   OH2 4276   2.241   5.058   0.440
 1447TIP3    H1 4277   2.288   4.981   0.479
 1447TIP3    H2 4278   2.304   5.089   0.375
 1448TIP3   OH2 4279   3.063   5.994   0.132
 1448TIP3    H1 4280   3.127   5.995   0.059
 1448TIP3    H2 4281   3.118   5.983   0.211
 1449TIP3   OH2 4282   3.005   5.492   0.436
 1449TIP3    H1 4283   3.043   5.410   0.400
 1449TIP3    H2 4284   3.088   5.535   0.465
 1450TIP3   OH2 4285   4.013   4.809   0.441
 1450TIP3    H1 4286   4.044   4.893   0.481
 1450TIP3    H2 4287   4.048   4.817   0.350
 1451TIP3   OH2 4288   3.416   4.992   0.477
 1451TIP3    H1 4289   3.459   4.907   0.499
 1451TIP3    H2 4290   3.386   4.974   0.386
 1452TIP3   OH2 4291   2.753   4.651   0.440
 1452TIP3    H1 4292   2.733   4.723   0.378
 1452TIP3    H2 4293   2.706   4.577   0.396
 1453TIP3   OH2 4294   3.446   4.742   0.061
 1453TIP3    H1 4295   3.519   4.725   0.125
 1453TIP3    H2 4296   3.499   4.769  -0.017
 1454TIP3   OH2 4297   2.387   4.853   0.546
 1454TIP3    H1 4298   2.469   4.834   0.595
 1454TIP3    H2 4299   2.401   4.796   0.468
 1455TIP3   OH2 4300   2.830   5.051   0.334
 1455TIP3    H1 4301   2.923   5.024   0.353
 1455TIP3    H2 4302   2.790   4.966   0.307
 1456TIP3   OH2 4303   4.091   5.019   0.608
 1456TIP3    H1 4304   4.005   5.063   0.590
 1456TIP3    H2 4305   4.100   5.037   0.703
 1457TIP3   OH2 4306   2.750   4.633   0.874
 1457TIP3    H1 4307   2.690   4.671   0.808
 1457TIP3    H2 4308   2.699   4.651   0.956
 1458TIP3   OH2 4309   3.113   5.469  -0.089
 1458TIP3    H1 4310   3.058   5.464  -0.168
 1458TIP3    H2 4311   3.085   5.555  -0.053
 1459TIP3   OH2 4312   2.844   5.414   0.680
 1459TIP3    H1 4313   2.779   5.464   0.735
 1459TIP3    H2 4314   2.876   5.481   0.619
 1460TIP3   OH2 4315   3.656   4.744   0.233
 1460TIP3    H1 4316   3.650   4.691   0.314
 1460TIP3    H2 4317   3.708   4.820   0.264
 1461TIP3   OH2 4318   2.620   4.749   0.659
 1461TIP3    H1 4319   2.682   4.822   0.683
 1461TIP3    H2 4320   2.670   4.709   0.585
 1462TIP3   OH2 4321   2.083   5.289   0.002
 1462TIP3    H1 4322   2.037   5.310  -0.082
 1462TIP3    H2 4323   2.099   5.380   0.036
 1463TIP3   OH2 4324   3.520   5.798   0.242
 1463TIP3    H1 4325   3.432   5.784   0.286
 1463TIP3    H2 4326   3.509   5.891   0.215
 1464TIP3   OH2 4327   3.809   4.711   0.607
 1464TIP3    H1 4328   3.721   4.739   0.575
 1464TIP3    H2 4329   3.868   4.743   0.536
 1465TIP3   OH2 4330   3.106   4.353   0.587
 1465TIP3    H1 4331   3.094   4.258   0.607
 1465TIP3    H2 4332   3.029   4.391   0.635
 1466TIP3   OH2 4333   3.745   5.722   0.589
 1466TIP3    H1 4334   3.733   5.644   0.531
 1466TIP3    H2 4335   3.730   5.796   0.527
 1467TIP3   OH2 4336   3.051   5.139  -0.107
 1467TIP3    H1 4337   2.974   5.196  -0.131
 1467TIP3    H2 4338   3.123   5.179  -0.159
 1468TIP3   OH2 4339   3.941   5.363   0.436
 1468TIP3    H1 4340   3.856   5.412   0.443
 1468TIP3    H2 4341   3.964   5.378   0.343
 1469TIP3   OH2 4342   3.336   5.138  -0.142
 1469TIP3    H1 4343   3.308   5.191  -0.063
 1469TIP3    H2 4344   3.432   5.156  -0.140
 1470TIP3   OH2 4345   3.619   5.238   0.727
 1470TIP3    H1 4346   3.615   5.320   0.780
 1470TIP3    H2 4347   3.531   5.241   0.684
 1471TIP3   OH2 4348   2.618   5.196   0.230
 1471TIP3    H1 4349   2.577   5.137   0.165
 1471TIP3    H2 4350   2.694   5.143   0.261
 1472TIP3   OH2 4351   2.754   5.617   0.375
 1472TIP3    H1 4352   2.724   5.565   0.300
 1472TIP3    H2 4353   2.841   5.576   0.395
 1473TIP3   OH2 4354   2.758   5.166   0.584
 1473TIP3    H1 4355   2.792   5.150   0.494
 1473TIP3    H2 4356   2.794   5.254   0.608
 1474TIP3   OH2 4357   3.281   5.802   0.362
 1474TIP3    H1 4358   3.266   5.882   0.415
 1474TIP3    H2 4359   3.263   5.730   0.426
 1475TIP3   OH2 4360   2.878   5.726   0.905
 1475TIP3    H1 4361   2.831   5.793   0.959
 1475TIP3    H2 4362   2.801   5.667   0.888
 1476TIP3   OH2 4363   2.647   5.276   1.005
 1476TIP3    H1 4364   2.645   5.371   0.978
 1476TIP3    H2 4365   2.553   5.264   1.031
 1477TIP3   OH2 4366   2.981   5.733  -0.053
 1477TIP3    H1 4367   3.031   5.784   0.011
 1477TIP3    H2 4368   2.897   5.781  -0.054
 1478TIP3   OH2 4369   2.684   5.902   1.004
 1478TIP3    H1 4370   2.658   5.884   0.912
 1478TIP3    H2 4371   2.606   5.870   1.054
 1479TIP3   OH2 4372   2.482   5.036   0.037
 1479TIP3    H1 4373   2.410   5.072  -0.018
 1479TIP3    H2 4374   2.449   4.947   0.056
 1480TIP3   OH2 4375   2.234   5.410   0.954
 1480TIP3    H1 4376   2.197   5.385   0.868
 1480TIP3    H2 4377   2.303   5.343   0.969
 1481TIP3   OH2 4378   2.119   5.621   0.567
 1481TIP3    H1 4379   2.214   5.604   0.573
 1481TIP3    H2 4380   2.107   5.691   0.633
 1482TIP3   OH2 4381   3.984   6.065   0.636
 1482TIP3    H1 4382   3.981   5.969   0.649
 1482TIP3    H2 4383   3.900   6.091   0.680
 1483TIP3   OH2 4384   3.082   5.851   0.767
 1483TIP3    H1 4385   3.082   5.942   0.803
 1483TIP3    H2 4386   3.008   5.810   0.818
 1484TIP3   OH2 4387   2.274   5.810   0.113
 1484TIP3    H1 4388   2.345   5.813   0.182
 1484TIP3    H2 4389   2.200   5.783   0.170
 1485TIP3   OH2 4390   3.873   5.199   0.906
 1485TIP3    H1 4391   3.790   5.209   0.857
 1485TIP3    H2 4392   3.889   5.103   0.897
 1486TIP3   OH2 4393   2.867   4.430   0.716
 1486TIP3    H1 4394   2.778   4.399   0.690
 1486TIP3    H2 4395   2.842   4.511   0.764
 1487TIP3   OH2 4396   3.402   4.544   0.912
 1487TIP3    H1 4397   3.470   4.516   0.976
 1487TIP3    H2 4398   3.318   4.523   0.959
 1488TIP3   OH2 4399   3.641   4.974   0.831
 1488TIP3    H1 4400   3.591   4.969   0.915
 1488TIP3    H2 4401   3.615   5.061   0.796
 1489TIP3   OH2 4402   3.024   4.505  -0.299
 1489TIP3    H1 4403   2.984   4.478  -0.214
 1489TIP3    H2 4404   2.989   4.438  -0.359
 1490TIP3   OH2 4405   2.799   4.944   0.736
 1490TIP3    H1 4406   2.748   4.966   0.817
 1490TIP3    H2 4407   2.783   5.026   0.683
 1491TIP3   OH2 4408   2.682   4.830   0.248
 1491TIP3    H1 4409   2.590   4.803   0.268
 1491TIP3    H2 4410   2.695   4.789   0.160
 1492TIP3   OH2 4411   3.177   4.911  -0.032
 1492TIP3    H1 4412   3.121   4.989  -0.050
 1492TIP3    H2 4413   3.255   4.934  -0.085
 1493TIP3   OH2 4414   3.349   5.195   1.063
 1493TIP3    H1 4415   3.326   5.122   1.126
 1493TIP3    H2 4416   3.442   5.209   1.086
 1494TIP3   OH2 4417   3.335   4.944   0.218
 1494TIP3    H1 4418   3.276   4.977   0.149
 1494TIP3    H2 4419   3.367   4.862   0.174
 1495TIP3   OH2 4420   2.619   4.974   0.944
 1495TIP3    H1 4421   2.638   5.043   1.010
 1495TIP3    H2 4422   2.610   4.894   1.000
 1496TIP3   OH2 4423   2.685   4.389  -0.331
 1496TIP3    H1 4424   2.668   4.422  -0.241
 1496TIP3    H2 4425   2.638   4.452  -0.387
 1497TIP3   OH2 4426   2.212   4.495   0.524
 1497TIP3    H1 4427   2.286   4.527   0.579
 1497TIP3    H2 4428   2.256   4.462   0.444
 1498TIP3   OH2 4429   2.181   4.477   0.041
 1498TIP3    H1 4430   2.237   4.513  -0.031
 1498TIP3    H2 4431   2.125   4.554   0.062
 1499TIP3   OH2 4432   3.342   5.192   0.640
 1499TIP3    H1 4433   3.375   5.119   0.582
 1499TIP3    H2 4434   3.312   5.139   0.717
 1500TIP3   OH2 4435   3.009   4.656   0.311
 1500TIP3    H1 4436   2.928   4.652   0.366
 1500TIP3    H2 4437   3.079   4.649   0.379
 1501TIP3   OH2 4438   2.446   4.709   0.318
 1501TIP3    H1 4439   2.351   4.716   0.292
 1501TIP3    H2 4440   2.468   4.616   0.297
 1502TIP3   OH2 4441   2.715   4.707   0.006
 1502TIP3    H1 4442   2.812   4.717  -0.007
 1502TIP3    H2 4443   2.677   4.742  -0.077
 1503TIP3   OH2 4444   3.502   4.730   0.513
 1503TIP3    H1 4445   3.468   4.741   0.605
 1503TIP3    H2 4446   3.437   4.668   0.477
 1504TIP3   OH2 4447   2.538   4.760  -0.205
 1504TIP3    H1 4448   2.461   4.702  -0.214
 1504TIP3    H2 4449   2.598   4.729  -0.277
 1505TIP3   OH2 4450   3.673   6.417   0.734
 1505TIP3    H1 4451   3.672   6.443   0.641
 1505TIP3    H2 4452   3.751   6.466   0.767
 1506TIP3   OH2 4453   3.094   4.981   0.409
 1506TIP3    H1 4454   3.167   4.938   0.363
 1506TIP3    H2 4455   3.098   4.940   0.497
 1507TIP3   OH2 4456   2.617   4.468   0.287
 1507TIP3    H1 4457   2.582   4.390   0.334
 1507TIP3    H2 4458   2.667   4.427   0.215
 1508TIP3   OH2 4459   3.070   4.880   0.695
 1508TIP3    H1 4460   2.980   4.914   0.713
 1508TIP3    H2 4461   3.127   4.938   0.748
 1509TIP3   OH2 4462   2.826   5.257  -0.194
 1509TIP3    H1 4463   2.744   5.208  -0.213
 1509TIP3    H2 4464   2.799   5.307  -0.114
 1510TIP3   OH2 4465   3.705   5.504   0.425
 1510TIP3    H1 4466   3.727   5.551   0.342
 1510TIP3    H2 4467   3.621   5.460   0.402
 1511TIP3   OH2 4468   3.213   5.592   0.788
 1511TIP3    H1 4469   3.226   5.561   0.879
 1511TIP3    H2 4470   3.163   5.674   0.801
 1512TIP3   OH2 4471   2.496   5.288   0.469
 1512TIP3    H1 4472   2.540   5.257   0.387
 1512TIP3    H2 4473   2.536   5.231   0.537
 1513TIP3   OH2 4474   2.385   5.209   1.080
 1513TIP3    H1 4475   2.407   5.202   1.175
 1513TIP3    H2 4476   2.311   5.147   1.072
 1514TIP3   OH2 4477   3.105   5.325   1.103
 1514TIP3    H1 4478   3.043   5.265   1.058
 1514TIP3    H2 4479   3.192   5.289   1.074
 1515TIP3   OH2 4480   3.364   5.855   0.679
 1515TIP3    H1 4481   3.270   5.843   0.699
 1515TIP3    H2 4482   3.394   5.899   0.762
 1516TIP3   OH2 4483   3.995   5.775   0.677
 1516TIP3    H1 4484   3.897   5.770   0.671
 1516TIP3    H2 4485   4.019   5.744   0.587
 1517TIP3   OH2 4486   3.473   5.369   0.340
 1517TIP3    H1 4487   3.379   5.344   0.355
 1517TIP3    H2 4488   3.506   5.287   0.298
 1518TIP3   OH2 4489   2.604   5.588   0.100
 1518TIP3    H1 4490   2.597   5.665   0.039
 1518TIP3    H2 4491   2.511   5.568   0.114
 1519TIP3   OH2 4492   2.165   4.899  -0.206
 1519TIP3    H1 4493   2.211   4.982  -0.183
 1519TIP3    H2 4494   2.087   4.902  -0.146
 1520TIP3   OH2 4495   2.748   5.363   0.042
 1520TIP3    H1 4496   2.705   5.450   0.058
 1520TIP3    H2 4497   2.709   5.310   0.114
 1521TIP3   OH2 4498   2.867   5.940   0.554
 1521TIP3    H1 4499   2.916   6.012   0.508
 1521TIP3    H2 4500   2.937   5.903   0.610
 1522TIP3   OH2 4501   2.520   5.807  -0.035
 1522TIP3    H1 4502   2.428   5.821  -0.009
 1522TIP3    H2 4503   2.556   5.897  -0.028
 1523TIP3   OH2 4504   3.260   5.573   0.521
 1523TIP3    H1 4505   3.248   5.573   0.619
 1523TIP3    H2 4506   3.336   5.514   0.512
 1524TIP3   OH2 4507   3.509   6.096   0.581
 1524TIP3    H1 4508   3.432   6.037   0.577
 1524TIP3    H2 4509   3.489   6.162   0.511
 1525TIP3   OH2 4510   2.593   4.715   1.092
 1525TIP3    H1 4511   2.497   4.718   1.106
 1525TIP3    H2 4512   2.622   4.655   1.163
 1526TIP3   OH2 4513   2.328   5.802   0.723
 1526TIP3    H1 4514   2.381   5.721   0.736
 1526TIP3    H2 4515   2.343   5.845   0.807
 1527TIP3   OH2 4516   2.280   5.141  -0.121
 1527TIP3    H1 4517   2.212   5.188  -0.068
 1527TIP3    H2 4518   2.332   5.213  -0.157
 1528TIP3   OH2 4519   3.428   4.780   0.772
 1528TIP3    H1 4520   3.508   4.818   0.812
 1528TIP3    H2 4521   3.414   4.699   0.826
 1529TIP3   OH2 4522   3.301   4.543  -0.070
 1529TIP3    H1 4523   3.276   4.586  -0.154
 1529TIP3    H2 4524   3.352   4.614  -0.026
 1530TIP3   OH2 4525   2.993   4.710   0.038
 1530TIP3    H1 4526   3.063   4.775   0.017
 1530TIP3    H2 4527   3.001   4.702   0.136
 1531TIP3   OH2 4528   3.268   5.031   0.846
 1531TIP3    H1 4529   3.287   5.084   0.926
 1531TIP3    H2 4530   3.322   4.951   0.861
 1532TIP3   OH2 4531   3.144   4.439   0.139
 1532TIP3    H1 4532   3.144   4.511   0.203
 1532TIP3    H2 4533   3.202   4.476   0.069
 1533TIP3   OH2 4534   2.651   4.443  -0.059
 1533TIP3    H1 4535   2.656   4.534  -0.023
 1533TIP3    H2 4536   2.746   4.419  -0.055
 1534TIP3   OH2 4537   3.908   4.932   0.824
 1534TIP3    H1 4538   3.810   4.931   0.834
 1534TIP3    H2 4539   3.916   4.882   0.741
 1535TIP3   OH2 4540   3.556   5.127   0.224
 1535TIP3    H1 4541   3.481   5.066   0.235
 1535TIP3    H2 4542   3.627   5.079   0.272
 1536TIP3   OH2 4543   2.234   4.637  -0.192
 1536TIP3    H1 4544   2.217   4.734  -0.199
 1536TIP3    H2 4545   2.148   4.602  -0.218
 1537TIP3   OH2 4546   3.534   6.071   0.186
 1537TIP3    H1 4547   3.487   6.076   0.101
 1537TIP3    H2 4548   3.627   6.067   0.158
 1538TIP3   OH2 4549   2.603   4.348   0.693
 1538TIP3    H1 4550   2.572   4.314   0.607
 1538TIP3    H2 4551   2.593   4.271   0.752
 1539TIP3   OH2 4552   2.115   5.558   0.054
 1539TIP3    H1 4553   2.079   5.603   0.132
 1539TIP3    H2 4554   2.176   5.623   0.019
 1540TIP3   OH2 4555   2.298   6.107   1.142
 1540TIP3    H1 4556   2.384   6.104   1.188
 1540TIP3    H2 4557   2.276   6.012   1.142
 1541TIP3   OH2 4558   2.782   6.081   1.185
 1541TIP3    H1 4559   2.873   6.049   1.194
 1541TIP3    H2 4560   2.749   6.020   1.115
 1542TIP3   OH2 4561   3.422   5.978   0.919
 1542TIP3    H1 4562   3.410   5.909   0.989
 1542TIP3    H2 4563   3.498   6.029   0.953
 1543TIP3   OH2 4564   2.422   5.523   1.355
 1543TIP3    H1 4565   2.466   5.440   1.329
 1543TIP3    H2 4566   2.341   5.521   1.300
 1544TIP3   OH2 4567   3.034   5.601   1.113
 1544TIP3    H1 4568   2.982   5.609   1.030
 1544TIP3    H2 4569   3.064   5.508   1.110
 1545TIP3   OH2 4570   3.529   5.605   0.723
 1545TIP3    H1 4571   3.602   5.655   0.682
 1545TIP3    H2 4572   3.455   5.667   0.713
 1546TIP3   OH2 4573   2.547   5.244   1.324
 1546TIP3    H1 4574   2.630   5.200   1.303
 1546TIP3    H2 4575   2.568   5.282   1.413
 1547TIP3   OH2 4576   2.624   5.068  -0.234
 1547TIP3    H1 4577   2.585   5.030  -0.153
 1547TIP3    H2 4578   2.671   4.992  -0.271
 1548TIP3   OH2 4579   2.886   5.135   0.990
 1548TIP3    H1 4580   2.806   5.192   0.995
 1548TIP3    H2 4581   2.931   5.170   0.911
 1549TIP3   OH2 4582   3.401   5.537   1.122
 1549TIP3    H1 4583   3.482   5.511   1.077
 1549TIP3    H2 4584   3.395   5.470   1.193
 1550TIP3   OH2 4585   3.006   4.922   1.114
 1550TIP3    H1 4586   3.006   4.842   1.058
 1550TIP3    H2 4587   2.962   4.988   1.057
 1551TIP3   OH2 4588   3.009   4.709   0.921
 1551TIP3    H1 4589   3.036   4.749   0.836
 1551TIP3    H2 4590   2.915   4.686   0.903
 1552TIP3   OH2 4591   3.033   5.245   0.791
 1552TIP3    H1 4592   3.116   5.255   0.743
 1552TIP3    H2 4593   2.976   5.313   0.749
 1553TIP3   OH2 4594   3.618   5.210   1.176
 1553TIP3    H1 4595   3.665   5.127   1.190
 1553TIP3    H2 4596   3.688   5.268   1.142
 1554TIP3   OH2 4597   3.660   5.464   0.912
 1554TIP3    H1 4598   3.602   5.516   0.853
 1554TIP3    H2 4599   3.747   5.484   0.872
 1555TIP3   OH2 4600   2.885   5.034   1.346
 1555TIP3    H1 4601   2.815   4.966   1.359
 1555TIP3    H2 4602   2.919   5.009   1.258
 1556TIP3   OH2 4603   3.141   4.472   0.987
 1556TIP3    H1 4604   3.091   4.553   0.966
 1556TIP3    H2 4605   3.072   4.403   0.977
 1557TIP3   OH2 4606   3.267   4.978   1.205
 1557TIP3    H1 4607   3.257   4.964   1.301
 1557TIP3    H2 4608   3.177   4.952   1.175
 1558TIP3   OH2 4609   3.506   4.925   1.059
 1558TIP3    H1 4610   3.431   4.927   1.122
 1558TIP3    H2 4611   3.580   4.894   1.116
 1559TIP3   OH2 4612   3.735   4.866   1.209
 1559TIP3    H1 4613   3.748   4.770   1.227
 1559TIP3    H2 4614   3.731   4.904   1.299
 1560TIP3   OH2 4615   2.722   4.815   1.398
 1560TIP3    H1 4616   2.729   4.724   1.363
 1560TIP3    H2 4617   2.759   4.803   1.488
 1561TIP3   OH2 4618   3.236   4.483   1.245
 1561TIP3    H1 4619   3.303   4.412   1.241
 1561TIP3    H2 4620   3.196   4.475   1.156
 1562TIP3   OH2 4621   3.302   4.698   1.404
 1562TIP3    H1 4622   3.280   4.626   1.340
 1562TIP3    H2 4623   3.223   4.755   1.398
 1563TIP3   OH2 4624   2.008   5.310  -0.267
 1563TIP3    H1 4625   2.087   5.308  -0.321
 1563TIP3    H2 4626   1.961   5.228  -0.292
 1564TIP3   OH2 4627   1.920   5.899   0.128
 1564TIP3    H1 4628   1.832   5.932   0.155
 1564TIP3    H2 4629   1.952   5.854   0.208
 1565TIP3   OH2 4630   2.067   5.768   0.323
 1565TIP3    H1 4631   2.051   5.699   0.390
 1565TIP3    H2 4632   2.108   5.835   0.381
 1566TIP3   OH2 4633   3.809   6.194   0.408
 1566TIP3    H1 4634   3.769   6.105   0.395
 1566TIP3    H2 4635   3.887   6.168   0.459
 1567TIP3   OH2 4636   3.854   5.868   0.975
 1567TIP3    H1 4637   3.782   5.876   1.041
 1567TIP3    H2 4638   3.896   5.957   0.981
 1568TIP3   OH2 4639   3.858   5.639   0.233
 1568TIP3    H1 4640   3.898   5.570   0.177
 1568TIP3    H2 4641   3.812   5.696   0.171
 1569TIP3   OH2 4642   3.684   5.939   0.428
 1569TIP3    H1 4643   3.619   5.984   0.486
 1569TIP3    H2 4644   3.627   5.888   0.368
 1570TIP3   OH2 4645   3.616   5.087  -0.043
 1570TIP3    H1 4646   3.622   4.990  -0.046
 1570TIP3    H2 4647   3.602   5.104   0.053
 1571TIP3   OH2 4648   2.240   5.185   0.692
 1571TIP3    H1 4649   2.239   5.150   0.601
 1571TIP3    H2 4650   2.337   5.183   0.711
 1572TIP3   OH2 4651   3.902   5.530   0.803
 1572TIP3    H1 4652   3.974   5.463   0.795
 1572TIP3    H2 4653   3.933   5.600   0.743
 1573TIP3   OH2 4654   4.088   5.336   0.819
 1573TIP3    H1 4655   4.014   5.285   0.858
 1573TIP3    H2 4656   4.161   5.272   0.834
 1574TIP3   OH2 4657   3.603   4.811  -0.159
 1574TIP3    H1 4658   3.644   4.722  -0.141
 1574TIP3    H2 4659   3.673   4.851  -0.212
 1575TIP3   OH2 4660   3.762   4.991   0.342
 1575TIP3    H1 4661   3.847   5.022   0.304
 1575TIP3    H2 4662   3.775   5.024   0.433
 1576TIP3   OH2 4663   3.838   5.138   0.570
 1576TIP3    H1 4664   3.761   5.173   0.619
 1576TIP3    H2 4665   3.872   5.219   0.526
 1577TIP3   OH2 4666   2.454   4.863   1.363
 1577TIP3    H1 4667   2.552   4.860   1.367
 1577TIP3    H2 4668   2.433   4.779   1.408
 1578TIP3   OH2 4669   4.290   4.729   1.125
 1578TIP3    H1 4670   4.350   4.662   1.085
 1578TIP3    H2 4671   4.265   4.783   1.048
 1579TIP3   OH2 4672   3.703   4.569  -0.112
 1579TIP3    H1 4673   3.761   4.548  -0.037
 1579TIP3    H2 4674   3.652   4.485  -0.120
 1580TIP3   OH2 4675   2.418   4.556   0.697
 1580TIP3    H1 4676   2.480   4.482   0.709
 1580TIP3    H2 4677   2.479   4.632   0.693
 1581TIP3   OH2 4678   2.222   4.829   0.772
 1581TIP3    H1 4679   2.271   4.827   0.688
 1581TIP3    H2 4680   2.247   4.915   0.808
 1582TIP3   OH2 4681   4.164   4.871   0.928
 1582TIP3    H1 4682   4.077   4.910   0.952
 1582TIP3    H2 4683   4.134   4.797   0.872
 1583TIP3   OH2 4684   2.205   4.334   0.271
 1583TIP3    H1 4685   2.112   4.333   0.301
 1583TIP3    H2 4686   2.201   4.393   0.193
 1584TIP3   OH2 4687   2.425   4.416   1.088
 1584TIP3    H1 4688   2.374   4.411   1.171
 1584TIP3    H2 4689   2.358   4.452   1.027
 1585TIP3   OH2 4690   2.461   5.855   1.170
 1585TIP3    H1 4691   2.382   5.805   1.144
 1585TIP3    H2 4692   2.486   5.810   1.252
 1586TIP3   OH2 4693   2.646   5.907   0.727
 1586TIP3    H1 4694   2.583   5.919   0.658
 1586TIP3    H2 4695   2.727   5.885   0.678
 1587TIP3   OH2 4696   3.088   6.120   0.850
 1587TIP3    H1 4697   3.130   6.118   0.939
 1587TIP3    H2 4698   3.156   6.169   0.799
 1588TIP3   OH2 4699   3.270   6.270   0.705
 1588TIP3    H1 4700   3.344   6.217   0.673
 1588TIP3    H2 4701   3.317   6.329   0.768
 1589TIP3   OH2 4702   4.062   4.632   0.808
 1589TIP3    H1 4703   3.971   4.622   0.777
 1589TIP3    H2 4704   4.095   4.539   0.798
 1590TIP3   OH2 4705   2.322   6.166   0.719
 1590TIP3    H1 4706   2.224   6.176   0.715
 1590TIP3    H2 4707   2.335   6.155   0.814
 1591TIP3   OH2 4708   2.518   6.168   0.537
 1591TIP3    H1 4709   2.461   6.149   0.614
 1591TIP3    H2 4710   2.524   6.080   0.495
 1592TIP3   OH2 4711   2.981   6.140   0.400
 1592TIP3    H1 4712   2.939   6.158   0.314
 1592TIP3    H2 4713   2.993   6.230   0.437
 1593TIP3   OH2 4714   3.246   6.074   0.429
 1593TIP3    H1 4715   3.152   6.097   0.424
 1593TIP3    H2 4716   3.289   6.160   0.411
 1594TIP3   OH2 4717   3.457   6.263   0.374
 1594TIP3    H1 4718   3.438   6.345   0.323
 1594TIP3    H2 4719   3.486   6.201   0.304
 1595TIP3   OH2 4720   2.234   5.927   0.488
 1595TIP3    H1 4721   2.262   5.893   0.575
 1595TIP3    H2 4722   2.303   5.886   0.431
 1596TIP3   OH2 4723   2.424   5.798   0.337
 1596TIP3    H1 4724   2.434   5.711   0.383
 1596TIP3    H2 4725   2.517   5.828   0.334
 1597TIP3   OH2 4726   2.686   5.895   0.354
 1597TIP3    H1 4727   2.714   5.806   0.327
 1597TIP3    H2 4728   2.751   5.909   0.427
 1598TIP3   OH2 4729   3.262   4.545   0.421
 1598TIP3    H1 4730   3.222   4.477   0.477
 1598TIP3    H2 4731   3.339   4.499   0.383
 1599TIP3   OH2 4732   3.785   4.431   0.343
 1599TIP3    H1 4733   3.822   4.477   0.264
 1599TIP3    H2 4734   3.689   4.446   0.332
 1600TIP3   OH2 4735   3.877   4.515   0.101
 1600TIP3    H1 4736   3.950   4.465   0.058
 1600TIP3    H2 4737   3.911   4.606   0.085
 1601TIP3   OH2 4738   2.515   4.256   0.443
 1601TIP3    H1 4739   2.423   4.222   0.446
 1601TIP3    H2 4740   2.565   4.172   0.440
 1602TIP3   OH2 4741   2.283   4.125   0.087
 1602TIP3    H1 4742   2.332   4.176   0.019
 1602TIP3    H2 4743   2.270   4.193   0.156
 1603TIP3   OH2 4744   2.957   4.289   0.325
 1603TIP3    H1 4745   3.016   4.339   0.266
 1603TIP3    H2 4746   2.980   4.325   0.411
 1604TIP3   OH2 4747   3.503   4.435   0.307
 1604TIP3    H1 4748   3.507   4.398   0.218
 1604TIP3    H2 4749   3.490   4.354   0.362
 1605TIP3   OH2 4750   3.534   4.357  -0.101
 1605TIP3    H1 4751   3.444   4.393  -0.109
 1605TIP3    H2 4752   3.519   4.269  -0.062
 1606TIP3   OH2 4753   2.423   4.274  -0.100
 1606TIP3    H1 4754   2.449   4.233  -0.184
 1606TIP3    H2 4755   2.498   4.335  -0.084
 1607TIP3   OH2 4756   2.929   4.455  -0.042
 1607TIP3    H1 4757   2.991   4.411   0.018
 1607TIP3    H2 4758   2.949   4.549  -0.019
 1608TIP3   OH2 4759   2.722   4.539   1.335
 1608TIP3    H1 4760   2.688   4.467   1.392
 1608TIP3    H2 4761   2.817   4.538   1.362
 1609TIP3   OH2 4762   2.972   4.534   1.454
 1609TIP3    H1 4763   3.057   4.509   1.414
 1609TIP3    H2 4764   2.960   4.463   1.520
 1610TIP3   OH2 4765   3.796   4.596   1.243
 1610TIP3    H1 4766   3.815   4.562   1.333
 1610TIP3    H2 4767   3.884   4.590   1.201
 1611TIP3   OH2 4768   3.738   6.148   0.734
 1611TIP3    H1 4769   3.658   6.117   0.688
 1611TIP3    H2 4770   3.719   6.244   0.738
 1612TIP3   OH2 4771   4.315   5.416   0.237
 1612TIP3    H1 4772   4.338   5.350   0.305
 1612TIP3    H2 4773   4.356   5.496   0.274
 1613TIP3   OH2 4774   4.187   5.056   0.089
 1613TIP3    H1 4775   4.283   5.040   0.101
 1613TIP3    H2 4776   4.182   5.105   0.005
 1614TIP3   OH2 4777   4.548   4.888   0.373
 1614TIP3    H1 4778   4.492   4.921   0.300
 1614TIP3    H2 4779   4.490   4.907   0.450
 1615TIP3   OH2 4780   4.444   4.984   0.139
 1615TIP3    H1 4781   4.499   5.065   0.150
 1615TIP3    H2 4782   4.484   4.945   0.059
 1616TIP3   OH2 4783   4.490   5.841   0.291
 1616TIP3    H1 4784   4.465   5.911   0.228
 1616TIP3    H2 4785   4.405   5.831   0.340
 1617TIP3   OH2 4786   4.894   4.597   0.131
 1617TIP3    H1 4787   4.863   4.509   0.162
 1617TIP3    H2 4788   4.813   4.650   0.151
 1618TIP3   OH2 4789   4.652   5.945   0.484
 1618TIP3    H1 4790   4.607   6.032   0.490
 1618TIP3    H2 4791   4.594   5.900   0.419
 1619TIP3   OH2 4792   4.429   5.543   0.487
 1619TIP3    H1 4793   4.440   5.628   0.533
 1619TIP3    H2 4794   4.340   5.517   0.518
 1620TIP3   OH2 4795   4.474   6.159   0.485
 1620TIP3    H1 4796   4.432   6.161   0.398
 1620TIP3    H2 4797   4.397   6.138   0.544
 1621TIP3   OH2 4798   4.057   5.675   0.432
 1621TIP3    H1 4799   3.988   5.651   0.368
 1621TIP3    H2 4800   4.093   5.588   0.460
 1622TIP3   OH2 4801   5.644   5.459   0.434
 1622TIP3    H1 4802   5.640   5.488   0.342
 1622TIP3    H2 4803   5.625   5.364   0.423
 1623TIP3   OH2 4804   4.254   5.862   0.430
 1623TIP3    H1 4805   4.305   5.848   0.512
 1623TIP3    H2 4806   4.184   5.793   0.437
 1624TIP3   OH2 4807   4.654   4.696   0.210
 1624TIP3    H1 4808   4.565   4.663   0.186
 1624TIP3    H2 4809   4.627   4.771   0.267
 1625TIP3   OH2 4810   5.200   4.800   0.398
 1625TIP3    H1 4811   5.268   4.776   0.464
 1625TIP3    H2 4812   5.116   4.780   0.445
 1626TIP3   OH2 4813   5.463   5.248   0.346
 1626TIP3    H1 4814   5.398   5.223   0.414
 1626TIP3    H2 4815   5.410   5.253   0.264
 1627TIP3   OH2 4816   4.605   5.214   0.219
 1627TIP3    H1 4817   4.554   5.227   0.301
 1627TIP3    H2 4818   4.547   5.255   0.152
 1628TIP3   OH2 4819   5.144   5.453   0.553
 1628TIP3    H1 4820   5.122   5.377   0.611
 1628TIP3    H2 4821   5.239   5.461   0.571
 1629TIP3   OH2 4822   4.410   5.228   0.427
 1629TIP3    H1 4823   4.454   5.284   0.493
 1629TIP3    H2 4824   4.398   5.145   0.478
 1630TIP3   OH2 4825   4.010   4.737   0.026
 1630TIP3    H1 4826   4.080   4.768   0.087
 1630TIP3    H2 4827   4.029   4.788  -0.055
 1631TIP3   OH2 4828   4.423   5.783   0.639
 1631TIP3    H1 4829   4.505   5.816   0.679
 1631TIP3    H2 4830   4.364   5.781   0.717
 1632TIP3   OH2 4831   4.862   5.093   0.202
 1632TIP3    H1 4832   4.781   5.146   0.194
 1632TIP3    H2 4833   4.929   5.159   0.228
 1633TIP3   OH2 4834   5.001   5.831   0.327
 1633TIP3    H1 4835   5.018   5.816   0.422
 1633TIP3    H2 4836   4.916   5.879   0.330
 1634TIP3   OH2 4837   4.177   5.467   0.571
 1634TIP3    H1 4838   4.199   5.453   0.665
 1634TIP3    H2 4839   4.108   5.399   0.557
 1635TIP3   OH2 4840   4.902   5.578   0.594
 1635TIP3    H1 4841   4.846   5.526   0.534
 1635TIP3    H2 4842   4.991   5.543   0.571
 1636TIP3   OH2 4843   4.386   4.976   0.579
 1636TIP3    H1 4844   4.289   4.977   0.593
 1636TIP3    H2 4845   4.415   4.916   0.650
 1637TIP3   OH2 4846   4.084   6.035   0.282
 1637TIP3    H1 4847   4.121   5.953   0.317
 1637TIP3    H2 4848   4.146   6.100   0.317
 1638TIP3   OH2 4849   5.198   5.054   0.285
 1638TIP3    H1 4850   5.292   5.063   0.270
 1638TIP3    H2 4851   5.194   4.963   0.322
 1639TIP3   OH2 4852   5.039   5.289   0.335
 1639TIP3    H1 4853   5.087   5.335   0.406
 1639TIP3    H2 4854   5.098   5.212   0.319
 1640TIP3   OH2 4855   4.399   4.608   0.198
 1640TIP3    H1 4856   4.362   4.575   0.112
 1640TIP3    H2 4857   4.390   4.528   0.254
 1641TIP3   OH2 4858   4.075   6.348   0.658
 1641TIP3    H1 4859   4.168   6.351   0.688
 1641TIP3    H2 4860   4.059   6.252   0.651
 1642TIP3   OH2 4861   4.580   6.336   0.673
 1642TIP3    H1 4862   4.672   6.305   0.681
 1642TIP3    H2 4863   4.550   6.280   0.599
 1643TIP3   OH2 4864   4.225   5.772   0.833
 1643TIP3    H1 4865   4.241   5.676   0.840
 1643TIP3    H2 4866   4.138   5.774   0.789
 1644TIP3   OH2 4867   4.863   5.853   0.613
 1644TIP3    H1 4868   4.788   5.875   0.552
 1644TIP3    H2 4869   4.871   5.756   0.605
 1645TIP3   OH2 4870   4.347   5.505   0.810
 1645TIP3    H1 4871   4.418   5.443   0.795
 1645TIP3    H2 4872   4.370   5.539   0.899
 1646TIP3   OH2 4873   4.656   5.380   0.487
 1646TIP3    H1 4874   4.584   5.447   0.491
 1646TIP3    H2 4875   4.713   5.420   0.417
 1647TIP3   OH2 4876   5.194   5.793   0.606
 1647TIP3    H1 4877   5.289   5.790   0.593
 1647TIP3    H2 4878   5.182   5.726   0.676
 1648TIP3   OH2 4879   4.803   5.176   0.606
 1648TIP3    H1 4880   4.806   5.094   0.553
 1648TIP3    H2 4881   4.753   5.237   0.546
 1649TIP3   OH2 4882   4.804   4.958   0.430
 1649TIP3    H1 4883   4.833   4.998   0.345
 1649TIP3    H2 4884   4.711   4.934   0.409
 1650TIP3   OH2 4885   4.822   5.512   0.318
 1650TIP3    H1 4886   4.913   5.479   0.319
 1650TIP3    H2 4887   4.829   5.582   0.250
 1651TIP3   OH2 4888   5.423   5.469   0.661
 1651TIP3    H1 4889   5.447   5.375   0.664
 1651TIP3    H2 4890   5.504   5.506   0.623
 1652TIP3   OH2 4891   4.678   5.292   0.831
 1652TIP3    H1 4892   4.611   5.223   0.846
 1652TIP3    H2 4893   4.714   5.265   0.744
 1653TIP3   OH2 4894   4.940   4.724   0.475
 1653TIP3    H1 4895   4.890   4.807   0.460
 1653TIP3    H2 4896   4.870   4.657   0.464
 1654TIP3   OH2 4897   5.060   5.236   0.694
 1654TIP3    H1 4898   5.046   5.221   0.789
 1654TIP3    H2 4899   4.972   5.209   0.660
 1655TIP3   OH2 4900   5.305   5.191   0.558
 1655TIP3    H1 4901   5.224   5.181   0.612
 1655TIP3    H2 4902   5.373   5.148   0.612
 1656TIP3   OH2 4903   5.541   5.123   0.701
 1656TIP3    H1 4904   5.548   5.026   0.718
 1656TIP3    H2 4905   5.530   5.161   0.790
 1657TIP3   OH2 4906   4.521   5.071   0.884
 1657TIP3    H1 4907   4.526   4.980   0.850
 1657TIP3    H2 4908   4.557   5.059   0.974
 1658TIP3   OH2 4909   5.033   4.739   0.732
 1658TIP3    H1 4910   5.099   4.667   0.728
 1658TIP3    H2 4911   4.993   4.732   0.643
 1659TIP3   OH2 4912   5.100   4.955   0.890
 1659TIP3    H1 4913   5.077   4.883   0.827
 1659TIP3    H2 4914   5.020   5.012   0.884
 1660TIP3   OH2 4915   4.043   5.428   0.178
 1660TIP3    H1 4916   4.053   5.415   0.083
 1660TIP3    H2 4917   4.137   5.435   0.203
 1661TIP3   OH2 4918   4.254   5.125   0.858
 1661TIP3    H1 4919   4.352   5.116   0.858
 1661TIP3    H2 4920   4.229   5.038   0.896
 1662TIP3   OH2 4921   6.087   4.988   0.610
 1662TIP3    H1 4922   6.142   4.914   0.574
 1662TIP3    H2 4923   6.093   5.052   0.537
 1663TIP3   OH2 4924   4.206   4.799   0.218
 1663TIP3    H1 4925   4.274   4.728   0.216
 1663TIP3    H2 4926   4.259   4.875   0.188
 1664TIP3   OH2 4927   4.000   5.100   0.277
 1664TIP3    H1 4928   4.064   5.074   0.207
 1664TIP3    H2 4929   4.043   5.178   0.314
 1665TIP3   OH2 4930   5.937   5.139   0.429
 1665TIP3    H1 4931   5.868   5.150   0.497
 1665TIP3    H2 4932   5.918   5.053   0.389
 1666TIP3   OH2 4933   4.221   4.673   0.574
 1666TIP3    H1 4934   4.170   4.665   0.657
 1666TIP3    H2 4935   4.153   4.710   0.514
 1667TIP3   OH2 4936   4.263   6.098   0.652
 1667TIP3    H1 4937   4.171   6.070   0.633
 1667TIP3    H2 4938   4.270   6.081   0.746
 1668TIP3   OH2 4939   5.826   4.873   0.318
 1668TIP3    H1 4940   5.747   4.840   0.272
 1668TIP3    H2 4941   5.886   4.795   0.310
 1669TIP3   OH2 4942   4.124   6.376   0.341
 1669TIP3    H1 4943   4.079   6.456   0.313
 1669TIP3    H2 4944   4.052   6.312   0.345
 1670TIP3   OH2 4945   4.299   4.502  -0.026
 1670TIP3    H1 4946   4.207   4.468  -0.031
 1670TIP3    H2 4947   4.350   4.420  -0.043
 1671TIP3   OH2 4948   4.519   4.796   0.822
 1671TIP3    H1 4949   4.484   4.724   0.878
 1671TIP3    H2 4950   4.613   4.795   0.849
 1672TIP3   OH2 4951   4.768   4.792   0.941
 1672TIP3    H1 4952   4.852   4.763   0.902
 1672TIP3    H2 4953   4.754   4.724   1.009
 1673TIP3   OH2 4954   5.596   4.852   0.732
 1673TIP3    H1 4955   5.613   4.821   0.824
 1673TIP3    H2 4956   5.685   4.848   0.693
 1674TIP3   OH2 4957   0.396   6.045   1.812
 1674TIP3    H1 4958   0.438   5.971   1.763
 1674TIP3    H2 4959   0.315   6.058   1.760
 1675TIP3   OH2 4960   1.853   6.363   0.585
 1675TIP3    H1 4961   1.886   6.450   0.617
 1675TIP3    H2 4962   1.842   6.379   0.489
 1676TIP3   OH2 4963   1.939   6.579   0.748
 1676TIP3    H1 4964   1.868   6.634   0.710
 1676TIP3    H2 4965   1.928   6.595   0.843
 1677TIP3   OH2 4966   1.669   6.271   0.775
 1677TIP3    H1 4967   1.577   6.293   0.757
 1677TIP3    H2 4968   1.715   6.294   0.692
 1678TIP3   OH2 4969   1.715   6.755   1.060
 1678TIP3    H1 4970   1.629   6.766   1.018
 1678TIP3    H2 4971   1.730   6.659   1.050
 1679TIP3   OH2 4972   1.240   6.090   1.081
 1679TIP3    H1 4973   1.313   6.058   1.138
 1679TIP3    H2 4974   1.161   6.068   1.133
 1680TIP3   OH2 4975   1.495   6.548   0.986
 1680TIP3    H1 4976   1.450   6.516   1.067
 1680TIP3    H2 4977   1.431   6.617   0.960
 1681TIP3   OH2 4978   1.191   6.782   1.244
 1681TIP3    H1 4979   1.160   6.692   1.265
 1681TIP3    H2 4980   1.283   6.777   1.278
 1682TIP3   OH2 4981   1.349   6.290   0.933
 1682TIP3    H1 4982   1.390   6.331   1.010
 1682TIP3    H2 4983   1.308   6.211   0.976
 1683TIP3   OH2 4984   1.756   6.491   0.967
 1683TIP3    H1 4985   1.658   6.498   0.977
 1683TIP3    H2 4986   1.760   6.425   0.895
 1684TIP3   OH2 4987   1.242   7.110   1.332
 1684TIP3    H1 4988   1.299   7.106   1.255
 1684TIP3    H2 4989   1.263   7.029   1.380
 1685TIP3   OH2 4990   1.462   6.767   1.321
 1685TIP3    H1 4991   1.515   6.688   1.339
 1685TIP3    H2 4992   1.531   6.832   1.298
 1686TIP3   OH2 4993   1.512   7.019   1.060
 1686TIP3    H1 4994   1.449   7.084   1.024
 1686TIP3    H2 4995   1.591   7.044   1.008
 1687TIP3   OH2 4996   0.981   6.018   1.152
 1687TIP3    H1 4997   0.955   6.069   1.072
 1687TIP3    H2 4998   0.955   5.928   1.126
 1688TIP3   OH2 4999   1.101   6.547   1.356
 1688TIP3    H1 5000   1.120   6.546   1.452
 1688TIP3    H2 5001   1.040   6.472   1.353
 1689TIP3   OH2 5002   1.355   6.473   1.203
 1689TIP3    H1 5003   1.278   6.479   1.261
 1689TIP3    H2 5004   1.427   6.449   1.265
 1690TIP3   OH2 5005   1.574   6.422   1.359
 1690TIP3    H1 5006   1.589   6.327   1.378
 1690TIP3    H2 5007   1.571   6.462   1.449
 1691TIP3   OH2 5008   1.082   6.040   1.408
 1691TIP3    H1 5009   1.147   5.966   1.399
 1691TIP3    H2 5010   1.032   6.029   1.324
 1692TIP3   OH2 5011   1.151   6.259   1.551
 1692TIP3    H1 5012   1.130   6.181   1.495
 1692TIP3    H2 5013   1.066   6.308   1.551
 1693TIP3   OH2 5014   1.710   7.442   1.138
 1693TIP3    H1 5015   1.632   7.437   1.198
 1693TIP3    H2 5016   1.742   7.532   1.156
 1694TIP3   OH2 5017   1.766   7.100   0.938
 1694TIP3    H1 5018   1.825   7.023   0.953
 1694TIP3    H2 5019   1.786   7.119   0.845
 1695TIP3   OH2 5020   1.930   6.892   0.976
 1695TIP3    H1 5021   1.857   6.838   1.014
 1695TIP3    H2 5022   2.004   6.828   0.986
 1696TIP3   OH2 5023   2.130   6.285   1.275
 1696TIP3    H1 5024   2.191   6.219   1.235
 1696TIP3    H2 5025   2.107   6.340   1.198
 1697TIP3   OH2 5026   2.007   6.428   1.079
 1697TIP3    H1 5027   1.921   6.468   1.104
 1697TIP3    H2 5028   1.975   6.355   1.022
 1698TIP3   OH2 5029   1.905   6.189   0.958
 1698TIP3    H1 5030   1.814   6.180   0.924
 1698TIP3    H2 5031   1.937   6.096   0.949
 1699TIP3   OH2 5032   1.689   5.998   0.494
 1699TIP3    H1 5033   1.714   6.063   0.427
 1699TIP3    H2 5034   1.596   5.979   0.469
 1700TIP3   OH2 5035   6.986   2.840   7.947
 1700TIP3    H1 5036   7.002   2.834   8.043
 1700TIP3    H2 5037   7.071   2.863   7.913
 1701TIP3   OH2 5038   0.833   6.079   1.643
 1701TIP3    H1 5039   0.915   6.041   1.612
 1701TIP3    H2 5040   0.796   6.000   1.692
 1702TIP3   OH2 5041   1.638   6.154   1.392
 1702TIP3    H1 5042   1.657   6.121   1.483
 1702TIP3    H2 5043   1.726   6.148   1.350
 1703TIP3   OH2 5044   2.209   6.962   0.411
 1703TIP3    H1 5045   2.219   6.914   0.494
 1703TIP3    H2 5046   2.248   7.048   0.432
 1704TIP3   OH2 5047   2.409   6.475   0.090
 1704TIP3    H1 5048   2.348   6.528   0.035
 1704TIP3    H2 5049   2.386   6.386   0.056
 1705TIP3   OH2 5050   3.714   6.828   0.254
 1705TIP3    H1 5051   3.678   6.914   0.224
 1705TIP3    H2 5052   3.773   6.856   0.326
 1706TIP3   OH2 5053   2.529   7.226   0.303
 1706TIP3    H1 5054   2.437   7.255   0.321
 1706TIP3    H2 5055   2.564   7.302   0.254
 1707TIP3   OH2 5056   2.302   6.505   0.349
 1707TIP3    H1 5057   2.309   6.602   0.359
 1707TIP3    H2 5058   2.328   6.498   0.254
 1708TIP3   OH2 5059   3.416   6.491   0.235
 1708TIP3    H1 5060   3.319   6.498   0.224
 1708TIP3    H2 5061   3.442   6.580   0.202
 1709TIP3   OH2 5062   2.753   6.171   0.217
 1709TIP3    H1 5063   2.760   6.074   0.223
 1709TIP3    H2 5064   2.692   6.191   0.288
 1710TIP3   OH2 5065   3.261   7.065   0.379
 1710TIP3    H1 5066   3.243   7.132   0.448
 1710TIP3    H2 5067   3.171   7.053   0.341
 1711TIP3   OH2 5068   2.466   6.964   0.208
 1711TIP3    H1 5069   2.418   6.979   0.125
 1711TIP3    H2 5070   2.482   7.054   0.239
 1712TIP3   OH2 5071   2.535   7.434   0.555
 1712TIP3    H1 5072   2.512   7.528   0.570
 1712TIP3    H2 5073   2.483   7.414   0.476
 1713TIP3   OH2 5074   2.270   7.108   0.645
 1713TIP3    H1 5075   2.285   7.189   0.697
 1713TIP3    H2 5076   2.177   7.087   0.670
 1714TIP3   OH2 5077   3.502   7.007   0.532
 1714TIP3    H1 5078   3.427   7.020   0.471
 1714TIP3    H2 5079   3.513   6.910   0.530
 1715TIP3   OH2 5080   2.093   7.416   0.604
 1715TIP3    H1 5081   2.168   7.395   0.663
 1715TIP3    H2 5082   2.037   7.338   0.614
 1716TIP3   OH2 5083   3.042   6.360   0.551
 1716TIP3    H1 5084   3.114   6.333   0.612
 1716TIP3    H2 5085   2.961   6.337   0.601
 1717TIP3   OH2 5086   3.274   6.787   0.463
 1717TIP3    H1 5087   3.228   6.790   0.550
 1717TIP3    H2 5088   3.255   6.875   0.426
 1718TIP3   OH2 5089   2.432   6.755   0.388
 1718TIP3    H1 5090   2.367   6.794   0.450
 1718TIP3    H2 5091   2.431   6.825   0.318
 1719TIP3   OH2 5092   2.988   7.007   0.699
 1719TIP3    H1 5093   2.968   6.935   0.762
 1719TIP3    H2 5094   3.082   7.024   0.721
 1720TIP3   OH2 5095   2.260   6.778   0.617
 1720TIP3    H1 5096   2.307   6.826   0.686
 1720TIP3    H2 5097   2.250   6.689   0.655
 1721TIP3   OH2 5098   3.002   7.003   0.312
 1721TIP3    H1 5099   2.985   6.989   0.217
 1721TIP3    H2 5100   2.955   6.930   0.355
 1722TIP3   OH2 5101   2.663   6.462  -0.026
 1722TIP3    H1 5102   2.579   6.490   0.017
 1722TIP3    H2 5103   2.728   6.485   0.041
 1723TIP3   OH2 5104   3.141   6.512   0.194
 1723TIP3    H1 5105   3.105   6.568   0.266
 1723TIP3    H2 5106   3.058   6.476   0.157
 1724TIP3   OH2 5107   2.276   7.339   0.795
 1724TIP3    H1 5108   2.356   7.366   0.845
 1724TIP3    H2 5109   2.210   7.334   0.866
 1725TIP3   OH2 5110   2.844   6.749   0.128
 1725TIP3    H1 5111   2.775   6.745   0.060
 1725TIP3    H2 5112   2.798   6.718   0.209
 1726TIP3   OH2 5113   2.316   6.247  -0.036
 1726TIP3    H1 5114   2.279   6.159  -0.014
 1726TIP3    H2 5115   2.388   6.228  -0.098
 1727TIP3   OH2 5116   2.703   6.686   0.360
 1727TIP3    H1 5117   2.616   6.732   0.360
 1727TIP3    H2 5118   2.760   6.750   0.408
 1728TIP3   OH2 5119   2.861   7.432   0.433
 1728TIP3    H1 5120   2.877   7.369   0.504
 1728TIP3    H2 5121   2.782   7.477   0.464
 1729TIP3   OH2 5122   2.010   7.042   0.736
 1729TIP3    H1 5123   2.045   7.024   0.826
 1729TIP3    H2 5124   1.973   6.957   0.712
 1730TIP3   OH2 5125   2.746   7.129   0.743
 1730TIP3    H1 5126   2.690   7.083   0.679
 1730TIP3    H2 5127   2.835   7.099   0.714
 1731TIP3   OH2 5128   2.239   6.509   0.720
 1731TIP3    H1 5129   2.143   6.524   0.735
 1731TIP3    H2 5130   2.263   6.463   0.802
 1732TIP3   OH2 5131   3.052   6.611   0.435
 1732TIP3    H1 5132   3.141   6.645   0.459
 1732TIP3    H2 5133   3.051   6.523   0.478
 1733TIP3   OH2 5134   2.888   6.830   0.498
 1733TIP3    H1 5135   2.925   6.891   0.565
 1733TIP3    H2 5136   2.956   6.759   0.495
 1734TIP3   OH2 5137   3.541   6.735   0.477
 1734TIP3    H1 5138   3.443   6.733   0.473
 1734TIP3    H2 5139   3.564   6.737   0.383
 1735TIP3   OH2 5140   2.057   7.302   0.963
 1735TIP3    H1 5141   2.096   7.212   0.965
 1735TIP3    H2 5142   1.966   7.283   0.991
 1736TIP3   OH2 5143   2.686   7.396   0.776
 1736TIP3    H1 5144   2.640   7.403   0.690
 1736TIP3    H2 5145   2.723   7.306   0.770
 1737TIP3   OH2 5146   3.153   7.433   0.385
 1737TIP3    H1 5147   3.193   7.489   0.318
 1737TIP3    H2 5148   3.061   7.466   0.387
 1738TIP3   OH2 5149   2.190   7.058   0.962
 1738TIP3    H1 5150   2.267   7.002   0.944
 1738TIP3    H2 5151   2.212   7.091   1.052
 1739TIP3   OH2 5152   2.516   6.944   0.623
 1739TIP3    H1 5153   2.445   7.012   0.623
 1739TIP3    H2 5154   2.573   6.976   0.549
 1740TIP3   OH2 5155   3.041   7.344   0.758
 1740TIP3    H1 5156   3.120   7.322   0.705
 1740TIP3    H2 5157   3.045   7.278   0.829
 1741TIP3   OH2 5158   2.639   6.741   0.759
 1741TIP3    H1 5159   2.650   6.662   0.704
 1741TIP3    H2 5160   2.601   6.807   0.697
 1742TIP3   OH2 5161   2.593   6.506   0.534
 1742TIP3    H1 5162   2.664   6.534   0.472
 1742TIP3    H2 5163   2.543   6.589   0.533
 1743TIP3   OH2 5164   2.685   7.055   0.444
 1743TIP3    H1 5165   2.770   7.057   0.399
 1743TIP3    H2 5166   2.633   7.120   0.392
 1744TIP3   OH2 5167   3.255   7.027   0.815
 1744TIP3    H1 5168   3.308   6.945   0.820
 1744TIP3    H2 5169   3.320   7.090   0.781
 1745TIP3   OH2 5170   3.273   7.274   0.565
 1745TIP3    H1 5171   3.225   7.334   0.503
 1745TIP3    H2 5172   3.366   7.289   0.535
 1746TIP3   OH2 5173   2.513   6.853   0.982
 1746TIP3    H1 5174   2.451   6.780   0.997
 1746TIP3    H2 5175   2.554   6.827   0.897
 1747TIP3   OH2 5176   2.774   6.292   0.621
 1747TIP3    H1 5177   2.721   6.370   0.598
 1747TIP3    H2 5178   2.712   6.220   0.603
 1748TIP3   OH2 5179   2.906   6.791   0.843
 1748TIP3    H1 5180   2.900   6.779   0.940
 1748TIP3    H2 5181   2.814   6.771   0.818
 1749TIP3   OH2 5182   3.146   6.743   0.698
 1749TIP3    H1 5183   3.070   6.743   0.760
 1749TIP3    H2 5184   3.220   6.712   0.754
 1750TIP3   OH2 5185   3.371   6.680   0.849
 1750TIP3    H1 5186   3.385   6.584   0.867
 1750TIP3    H2 5187   3.368   6.719   0.939
 1751TIP3   OH2 5188   2.363   6.627   1.033
 1751TIP3    H1 5189   2.369   6.534   1.003
 1751TIP3    H2 5190   2.398   6.619   1.124
 1752TIP3   OH2 5191   2.875   6.299   0.881
 1752TIP3    H1 5192   2.941   6.226   0.882
 1752TIP3    H2 5193   2.836   6.288   0.793
 1753TIP3   OH2 5194   2.939   6.513   1.042
 1753TIP3    H1 5195   2.918   6.440   0.979
 1753TIP3    H2 5196   2.860   6.570   1.036
 1754TIP3   OH2 5197   3.512   7.701   0.580
 1754TIP3    H1 5198   3.439   7.682   0.643
 1754TIP3    H2 5199   3.559   7.772   0.627
 1755TIP3   OH2 5200   3.530   7.337   0.496
 1755TIP3    H1 5201   3.607   7.275   0.496
 1755TIP3    H2 5202   3.544   7.377   0.409
 1756TIP3   OH2 5203   3.727   7.150   0.530
 1756TIP3    H1 5204   3.648   7.093   0.524
 1756TIP3    H2 5205   3.794   7.092   0.491
 1757TIP3   OH2 5206   2.097   6.681   1.006
 1757TIP3    H1 5207   2.195   6.672   1.010
 1757TIP3    H2 5208   2.071   6.594   1.042
 1758TIP3   OH2 5209   3.925   6.546   0.769
 1758TIP3    H1 5210   3.980   6.475   0.730
 1758TIP3    H2 5211   3.901   6.599   0.690
 1759TIP3   OH2 5212   2.054   6.362   0.322
 1759TIP3    H1 5213   2.106   6.299   0.372
 1759TIP3    H2 5214   2.112   6.440   0.318
 1760TIP3   OH2 5215   3.798   6.686   0.572
 1760TIP3    H1 5216   3.712   6.726   0.593
 1760TIP3    H2 5217   3.768   6.615   0.512
 1761TIP3   OH2 5218   2.056   6.228   0.720
 1761TIP3    H1 5219   2.010   6.220   0.805
 1761TIP3    H2 5220   1.986   6.266   0.664
 1762TIP3   OH2 5221   3.699   6.444   0.449
 1762TIP3    H1 5222   3.605   6.437   0.426
 1762TIP3    H2 5223   3.728   6.351   0.441
 1763TIP3   OH2 5224   2.936   6.345   0.072
 1763TIP3    H1 5225   2.867   6.297   0.121
 1763TIP3    H2 5226   2.944   6.289  -0.006
 1764TIP3   OH2 5227   2.143   6.047   0.063
 1764TIP3    H1 5228   2.059   6.000   0.080
 1764TIP3    H2 5229   2.207   5.975   0.079
 1765TIP3   OH2 5230   2.596   6.065   0.009
 1765TIP3    H1 5231   2.664   6.061  -0.061
 1765TIP3    H2 5232   2.642   6.120   0.074
 1766TIP3   OH2 5233   2.362   6.354   0.971
 1766TIP3    H1 5234   2.325   6.282   1.025
 1766TIP3    H2 5235   2.455   6.351   1.001
 1767TIP3   OH2 5236   2.609   6.348   1.088
 1767TIP3    H1 5237   2.696   6.319   1.055
 1767TIP3    H2 5238   2.594   6.282   1.159
 1768TIP3   OH2 5239   3.433   6.408   0.879
 1768TIP3    H1 5240   3.452   6.378   0.970
 1768TIP3    H2 5241   3.522   6.405   0.838
 1769TIP3   OH2 5242   3.859   7.550   0.501
 1769TIP3    H1 5243   3.890   7.463   0.469
 1769TIP3    H2 5244   3.809   7.583   0.424
 1770TIP3   OH2 5245   3.987   7.316   0.455
 1770TIP3    H1 5246   4.030   7.231   0.449
 1770TIP3    H2 5247   4.011   7.346   0.545
 1771TIP3   OH2 5248   4.324   7.103   0.457
 1771TIP3    H1 5249   4.256   7.042   0.492
 1771TIP3    H2 5250   4.365   7.045   0.389
 1772TIP3   OH2 5251   4.153   6.902   0.528
 1772TIP3    H1 5252   4.152   6.809   0.494
 1772TIP3    H2 5253   4.189   6.886   0.618
 1773TIP3   OH2 5254   4.732   6.767   0.523
 1773TIP3    H1 5255   4.703   6.700   0.458
 1773TIP3    H2 5256   4.654   6.826   0.531
 1774TIP3   OH2 5257   3.887   6.929   0.469
 1774TIP3    H1 5258   3.984   6.931   0.486
 1774TIP3    H2 5259   3.862   6.851   0.522
 1775TIP3   OH2 5260   3.824   6.491   0.206
 1775TIP3    H1 5261   3.789   6.474   0.295
 1775TIP3    H2 5262   3.801   6.585   0.195
 1776TIP3   OH2 5263   4.158   6.636   0.474
 1776TIP3    H1 5264   4.131   6.546   0.492
 1776TIP3    H2 5265   4.253   6.631   0.499
 1777TIP3   OH2 5266   4.406   6.605   0.589
 1777TIP3    H1 5267   4.492   6.570   0.562
 1777TIP3    H2 5268   4.379   6.537   0.654
 1778TIP3   OH2 5269   1.387   0.041   3.985
 1778TIP3    H1 5270   1.385  -0.011   4.066
 1778TIP3    H2 5271   1.416   0.128   4.017
 1779TIP3   OH2 5272   1.052   0.512   3.977
 1779TIP3    H1 5273   1.085   0.427   3.946
 1779TIP3    H2 5274   1.028   0.491   4.068
 1780TIP3   OH2 5275   1.994  -0.510   4.523
 1780TIP3    H1 5276   1.922  -0.449   4.500
 1780TIP3    H2 5277   2.057  -0.454   4.571
 1781TIP3   OH2 5278   1.459   0.296   4.137
 1781TIP3    H1 5279   1.366   0.293   4.169
 1781TIP3    H2 5280   1.459   0.383   4.092
 1782TIP3   OH2 5281   1.683   0.209   4.481
 1782TIP3    H1 5282   1.678   0.134   4.419
 1782TIP3    H2 5283   1.669   0.286   4.421
 1783TIP3   OH2 5284   1.880  -0.155   4.323
 1783TIP3    H1 5285   1.798  -0.101   4.329
 1783TIP3    H2 5286   1.911  -0.131   4.233
 1784TIP3   OH2 5287   1.208   0.313   4.233
 1784TIP3    H1 5288   1.197   0.395   4.285
 1784TIP3    H2 5289   1.199   0.243   4.299
 1785TIP3   OH2 5290   1.922   0.553   4.524
 1785TIP3    H1 5291   1.922   0.457   4.542
 1785TIP3    H2 5292   1.840   0.579   4.571
 1786TIP3   OH2 5293   1.057   0.368   4.627
 1786TIP3    H1 5294   1.046   0.452   4.676
 1786TIP3    H2 5295   0.983   0.315   4.664
 1787TIP3   OH2 5296   1.819  -0.325   4.798
 1787TIP3    H1 5297   1.735  -0.280   4.786
 1787TIP3    H2 5298   1.795  -0.418   4.788
 1788TIP3   OH2 5299   1.613   0.906   4.624
 1788TIP3    H1 5300   1.613   0.930   4.529
 1788TIP3    H2 5301   1.694   0.951   4.655
 1789TIP3   OH2 5302   1.647  -0.003   4.310
 1789TIP3    H1 5303   1.684   0.048   4.233
 1789TIP3    H2 5304   1.564  -0.037   4.273
 1790TIP3   OH2 5305   1.325   0.333   4.593
 1790TIP3    H1 5306   1.228   0.343   4.591
 1790TIP3    H2 5307   1.346   0.393   4.668
 1791TIP3   OH2 5308   1.936   0.268   4.567
 1791TIP3    H1 5309   1.838   0.260   4.562
 1791TIP3    H2 5310   1.960   0.238   4.476
 1792TIP3   OH2 5311   1.424  -0.151   4.216
 1792TIP3    H1 5312   1.333  -0.174   4.241
 1792TIP3    H2 5313   1.448  -0.221   4.155
 1793TIP3   OH2 5314   0.827   0.447   4.479
 1793TIP3    H1 5315   0.852   0.510   4.410
 1793TIP3    H2 5316   0.912   0.424   4.519
 1794TIP3   OH2 5317   1.245   0.098   4.409
 1794TIP3    H1 5318   1.215   0.103   4.499
 1794TIP3    H2 5319   1.341   0.092   4.421
 1795TIP3   OH2 5320   1.445   0.594   4.465
 1795TIP3    H1 5321   1.363   0.542   4.452
 1795TIP3    H2 5322   1.435   0.660   4.393
 1796TIP3   OH2 5323   1.470   0.562   4.058
 1796TIP3    H1 5324   1.425   0.616   3.989
 1796TIP3    H2 5325   1.563   0.586   4.038
 1797TIP3   OH2 5326   1.363   0.468   4.837
 1797TIP3    H1 5327   1.396   0.392   4.887
 1797TIP3    H2 5328   1.436   0.532   4.851
 1798TIP3   OH2 5329   1.469   0.105   4.619
 1798TIP3    H1 5330   1.554   0.135   4.581
 1798TIP3    H2 5331   1.419   0.189   4.614
 1799TIP3   OH2 5332   1.632  -0.064   4.787
 1799TIP3    H1 5333   1.576  -0.008   4.730
 1799TIP3    H2 5334   1.720  -0.039   4.752
 1800TIP3   OH2 5335   1.718   0.663   4.015
 1800TIP3    H1 5336   1.747   0.694   4.103
 1800TIP3    H2 5337   1.784   0.702   3.956
 1801TIP3   OH2 5338   1.750   0.680   4.297
 1801TIP3    H1 5339   1.709   0.591   4.293
 1801TIP3    H2 5340   1.826   0.660   4.353
 1802TIP3   OH2 5341   1.792   0.355   4.867
 1802TIP3    H1 5342   1.723   0.362   4.935
 1802TIP3    H2 5343   1.836   0.443   4.874
 1803TIP3   OH2 5344   1.793   0.128   4.123
 1803TIP3    H1 5345   1.847   0.064   4.073
 1803TIP3    H2 5346   1.790   0.205   4.062
 1804TIP3   OH2 5347   1.625   0.429   4.322
 1804TIP3    H1 5348   1.555   0.473   4.373
 1804TIP3    H2 5349   1.574   0.382   4.252
 1805TIP3   OH2 5350   1.861   0.025   4.682
 1805TIP3    H1 5351   1.933  -0.043   4.679
 1805TIP3    H2 5352   1.898   0.098   4.630
 1806TIP3   OH2 5353   2.031  -0.177   4.710
 1806TIP3    H1 5354   1.959  -0.232   4.748
 1806TIP3    H2 5355   2.107  -0.237   4.728
 1807TIP3   OH2 5356   1.707  -0.510   4.241
 1807TIP3    H1 5357   1.789  -0.485   4.193
 1807TIP3    H2 5358   1.726  -0.468   4.327
 1808TIP3   OH2 5359   1.762  -0.359   4.466
 1808TIP3    H1 5360   1.679  -0.320   4.497
 1808TIP3    H2 5361   1.806  -0.284   4.421
 1809TIP3   OH2 5362   1.293   0.560   3.659
 1809TIP3    H1 5363   1.324   0.487   3.603
 1809TIP3    H2 5364   1.363   0.569   3.725
 1810TIP3   OH2 5365   1.031   0.617   4.747
 1810TIP3    H1 5366   1.070   0.608   4.836
 1810TIP3    H2 5367   1.100   0.668   4.699
 1811TIP3   OH2 5368   1.215   0.758   4.602
 1811TIP3    H1 5369   1.287   0.709   4.560
 1811TIP3    H2 5370   1.266   0.817   4.663
 1812TIP3   OH2 5371   0.931   0.632   4.277
 1812TIP3    H1 5372   0.852   0.650   4.222
 1812TIP3    H2 5373   0.943   0.718   4.322
 1813TIP3   OH2 5374   1.194   0.569   4.336
 1813TIP3    H1 5375   1.099   0.586   4.319
 1813TIP3    H2 5376   1.235   0.648   4.296
 1814TIP3   OH2 5377   1.400   0.758   4.251
 1814TIP3    H1 5378   1.385   0.842   4.203
 1814TIP3    H2 5379   1.426   0.698   4.177
 1815TIP3   OH2 5380   1.677   0.637   4.623
 1815TIP3    H1 5381   1.597   0.607   4.576
 1815TIP3    H2 5382   1.658   0.733   4.630
 1816TIP3   OH2 5383   2.940   0.002   3.399
 1816TIP3    H1 5384   2.915   0.095   3.379
 1816TIP3    H2 5385   2.867  -0.044   3.353
 1817TIP3   OH2 5386   2.923   0.009   3.773
 1817TIP3    H1 5387   2.958  -0.023   3.858
 1817TIP3    H2 5388   2.901  -0.074   3.728
 1818TIP3   OH2 5389   2.239  -0.096   4.138
 1818TIP3    H1 5390   2.270  -0.164   4.201
 1818TIP3    H2 5391   2.313  -0.033   4.141
 1819TIP3   OH2 5392   3.182   0.309   3.458
 1819TIP3    H1 5393   3.178   0.241   3.527
 1819TIP3    H2 5394   3.214   0.386   3.508
 1820TIP3   OH2 5395   2.209   0.310   3.863
 1820TIP3    H1 5396   2.202   0.213   3.867
 1820TIP3    H2 5397   2.306   0.322   3.858
 1821TIP3   OH2 5398   1.987  -0.186   3.800
 1821TIP3    H1 5399   2.023  -0.266   3.842
 1821TIP3    H2 5400   2.065  -0.132   3.782
 1822TIP3   OH2 5401   2.832   0.771   3.472
 1822TIP3    H1 5402   2.878   0.700   3.423
 1822TIP3    H2 5403   2.834   0.737   3.562
 1823TIP3   OH2 5404   2.743   0.230   3.826
 1823TIP3    H1 5405   2.784   0.153   3.782
 1823TIP3    H2 5406   2.825   0.279   3.847
 1824TIP3   OH2 5407   3.147  -0.253   3.868
 1824TIP3    H1 5408   3.178  -0.338   3.901
 1824TIP3    H2 5409   3.117  -0.271   3.777
 1825TIP3   OH2 5410   2.437  -0.646   3.807
 1825TIP3    H1 5411   2.435  -0.561   3.759
 1825TIP3    H2 5412   2.402  -0.708   3.743
 1826TIP3   OH2 5413   3.156  -0.470   3.485
 1826TIP3    H1 5414   3.214  -0.530   3.535
 1826TIP3    H2 5415   3.197  -0.472   3.397
 1827TIP3   OH2 5416   2.099  -0.407   3.912
 1827TIP3    H1 5417   2.190  -0.399   3.952
 1827TIP3    H2 5418   2.113  -0.486   3.859
 1828TIP3   OH2 5419   2.562  -0.207   3.717
 1828TIP3    H1 5420   2.657  -0.226   3.735
 1828TIP3    H2 5421   2.530  -0.297   3.700
 1829TIP3   OH2 5422   2.828   0.223   3.264
 1829TIP3    H1 5423   2.799   0.215   3.172
 1829TIP3    H2 5424   2.789   0.309   3.290
 1830TIP3   OH2 5425   2.614   0.146   4.061
 1830TIP3    H1 5426   2.548   0.207   4.099
 1830TIP3    H2 5427   2.643   0.196   3.983
 1831TIP3   OH2 5428   2.353  -0.430   3.989
 1831TIP3    H1 5429   2.427  -0.394   4.042
 1831TIP3    H2 5430   2.377  -0.524   3.989
 1832TIP3   OH2 5431   2.423   0.340   4.144
 1832TIP3    H1 5432   2.399   0.427   4.105
 1832TIP3    H2 5433   2.344   0.327   4.202
 1833TIP3   OH2 5434   3.251   0.552   3.620
 1833TIP3    H1 5435   3.161   0.545   3.660
 1833TIP3    H2 5436   3.246   0.640   3.578
 1834TIP3   OH2 5437   2.954   0.599   3.295
 1834TIP3    H1 5438   3.006   0.517   3.276
 1834TIP3    H2 5439   3.016   0.665   3.256
 1835TIP3   OH2 5440   3.096   0.383   3.206
 1835TIP3    H1 5441   3.071   0.302   3.161
 1835TIP3    H2 5442   3.133   0.349   3.291
 1836TIP3   OH2 5443   3.498   0.468   3.968
 1836TIP3    H1 5444   3.467   0.386   3.924
 1836TIP3    H2 5445   3.470   0.537   3.905
 1837TIP3   OH2 5446   2.778  -0.142   3.220
 1837TIP3    H1 5447   2.700  -0.090   3.194
 1837TIP3    H2 5448   2.822  -0.157   3.134
 1838TIP3   OH2 5449   3.679   0.094   3.807
 1838TIP3    H1 5450   3.597   0.147   3.818
 1838TIP3    H2 5451   3.708   0.127   3.720
 1839TIP3   OH2 5452   3.123  -0.050   3.199
 1839TIP3    H1 5453   3.069  -0.031   3.278
 1839TIP3    H2 5454   3.208  -0.077   3.241
 1840TIP3   OH2 5455   2.352  -0.064   3.613
 1840TIP3    H1 5456   2.333  -0.107   3.528
 1840TIP3    H2 5457   2.431  -0.113   3.644
 1841TIP3   OH2 5458   2.480   0.347   3.764
 1841TIP3    H1 5459   2.464   0.313   3.675
 1841TIP3    H2 5460   2.571   0.317   3.781
 1842TIP3   OH2 5461   2.492  -0.087   3.968
 1842TIP3    H1 5462   2.526  -0.111   3.879
 1842TIP3    H2 5463   2.541  -0.004   3.988
 1843TIP3   OH2 5464   3.009   0.547   3.745
 1843TIP3    H1 5465   3.005   0.631   3.795
 1843TIP3    H2 5466   2.999   0.481   3.815
 1844TIP3   OH2 5467   2.627   0.467   4.288
 1844TIP3    H1 5468   2.570   0.531   4.337
 1844TIP3    H2 5469   2.559   0.414   4.242
 1845TIP3   OH2 5470   2.975  -0.198   3.023
 1845TIP3    H1 5471   3.032  -0.138   3.076
 1845TIP3    H2 5472   2.999  -0.173   2.931
 1846TIP3   OH2 5473   2.379   0.030   4.387
 1846TIP3    H1 5474   2.385   0.114   4.437
 1846TIP3    H2 5475   2.285   0.006   4.405
 1847TIP3   OH2 5476   2.703   0.481   3.307
 1847TIP3    H1 5477   2.785   0.533   3.315
 1847TIP3    H2 5478   2.646   0.539   3.254
 1848TIP3   OH2 5479   2.421   0.635   4.376
 1848TIP3    H1 5480   2.385   0.635   4.286
 1848TIP3    H2 5481   2.342   0.616   4.431
 1849TIP3   OH2 5482   3.276   0.408   2.618
 1849TIP3    H1 5483   3.284   0.505   2.603
 1849TIP3    H2 5484   3.370   0.380   2.606
 1850TIP3   OH2 5485   2.000   0.166   4.325
 1850TIP3    H1 5486   1.938   0.141   4.253
 1850TIP3    H2 5487   2.039   0.080   4.351
 1851TIP3   OH2 5488   1.856   0.356   3.961
 1851TIP3    H1 5489   1.952   0.353   3.949
 1851TIP3    H2 5490   1.847   0.437   4.013
 1852TIP3   OH2 5491   3.717   0.813   4.010
 1852TIP3    H1 5492   3.720   0.716   4.023
 1852TIP3    H2 5493   3.634   0.834   4.058
 1853TIP3   OH2 5494   2.823   0.595   4.145
 1853TIP3    H1 5495   2.825   0.688   4.179
 1853TIP3    H2 5496   2.754   0.556   4.203
 1854TIP3   OH2 5497   2.580   0.726   3.104
 1854TIP3    H1 5498   2.546   0.710   3.014
 1854TIP3    H2 5499   2.554   0.819   3.120
 1855TIP3   OH2 5500   2.030   0.595   3.485
 1855TIP3    H1 5501   2.076   0.578   3.570
 1855TIP3    H2 5502   1.979   0.511   3.476
 1856TIP3   OH2 5503   2.787   0.626   2.745
 1856TIP3    H1 5504   2.845   0.556   2.709
 1856TIP3    H2 5505   2.820   0.634   2.837
 1857TIP3   OH2 5506   2.835   0.676   3.013
 1857TIP3    H1 5507   2.747   0.681   3.057
 1857TIP3    H2 5508   2.890   0.639   3.084
 1858TIP3   OH2 5509   3.603  -0.053   4.288
 1858TIP3    H1 5510   3.524  -0.005   4.254
 1858TIP3    H2 5511   3.570  -0.143   4.277
 1859TIP3   OH2 5512   2.207   0.348   4.311
 1859TIP3    H1 5513   2.257   0.335   4.394
 1859TIP3    H2 5514   2.132   0.286   4.323
 1860TIP3   OH2 5515   3.416  -0.287   4.233
 1860TIP3    H1 5516   3.373  -0.257   4.314
 1860TIP3    H2 5517   3.385  -0.212   4.176
 1861TIP3   OH2 5518   3.045  -0.134   2.757
 1861TIP3    H1 5519   3.039  -0.162   2.665
 1861TIP3    H2 5520   3.128  -0.083   2.754
 1862TIP3   OH2 5521   2.553  -0.295   4.136
 1862TIP3    H1 5522   2.483  -0.287   4.205
 1862TIP3    H2 5523   2.527  -0.225   4.072
 1863TIP3   OH2 5524   2.420  -0.443   3.620
 1863TIP3    H1 5525   2.324  -0.437   3.610
 1863TIP3    H2 5526   2.451  -0.452   3.529
 1864TIP3   OH2 5527   2.906  -0.344   3.352
 1864TIP3    H1 5528   2.863  -0.268   3.306
 1864TIP3    H2 5529   2.968  -0.375   3.282
 1865TIP3   OH2 5530   3.094  -0.035   4.438
 1865TIP3    H1 5531   3.074  -0.109   4.500
 1865TIP3    H2 5532   3.191  -0.031   4.447
 1866TIP3   OH2 5533   3.042  -0.269   3.617
 1866TIP3    H1 5534   2.993  -0.228   3.543
 1866TIP3    H2 5535   3.076  -0.348   3.568
 1867TIP3   OH2 5536   2.354  -0.276   4.328
 1867TIP3    H1 5537   2.371  -0.217   4.402
 1867TIP3    H2 5538   2.341  -0.361   4.373
 1868TIP3   OH2 5539   3.041  -0.051   4.019
 1868TIP3    H1 5540   3.078  -0.126   3.967
 1868TIP3    H2 5541   3.123  -0.036   4.072
 1869TIP3   OH2 5542   3.407   1.163   4.112
 1869TIP3    H1 5543   3.403   1.185   4.017
 1869TIP3    H2 5544   3.489   1.209   4.139
 1870TIP3   OH2 5545   2.368   0.271   4.532
 1870TIP3    H1 5546   2.449   0.300   4.580
 1870TIP3    H2 5547   2.304   0.271   4.606
 1871TIP3   OH2 5548   2.814  -0.280   3.789
 1871TIP3    H1 5549   2.900  -0.300   3.746
 1871TIP3    H2 5550   2.828  -0.314   3.881
 1872TIP3   OH2 5551   2.827  -0.350   4.056
 1872TIP3    H1 5552   2.737  -0.356   4.093
 1872TIP3    H2 5553   2.877  -0.309   4.130
 1873TIP3   OH2 5554   2.537   0.001   3.182
 1873TIP3    H1 5555   2.441  -0.009   3.181
 1873TIP3    H2 5556   2.545   0.043   3.272
 1874TIP3   OH2 5557   3.449   0.247   3.804
 1874TIP3    H1 5558   3.473   0.300   3.725
 1874TIP3    H2 5559   3.363   0.208   3.779
 1875TIP3   OH2 5560   2.930   0.303   4.196
 1875TIP3    H1 5561   2.976   0.317   4.280
 1875TIP3    H2 5562   2.895   0.393   4.179
 1876TIP3   OH2 5563   3.071  -0.426   3.150
 1876TIP3    H1 5564   3.168  -0.418   3.148
 1876TIP3    H2 5565   3.042  -0.355   3.088
 1877TIP3   OH2 5566   2.227   0.021   3.849
 1877TIP3    H1 5567   2.274   0.001   3.765
 1877TIP3    H2 5568   2.281  -0.028   3.914
 1878TIP3   OH2 5569   2.689   0.165   3.015
 1878TIP3    H1 5570   2.647   0.253   3.024
 1878TIP3    H2 5571   2.631   0.110   3.072
 1879TIP3   OH2 5572   2.118  -0.044   4.463
 1879TIP3    H1 5573   2.146  -0.056   4.556
 1879TIP3    H2 5574   2.050  -0.112   4.454
 1880TIP3   OH2 5575   2.842   0.086   4.426
 1880TIP3    H1 5576   2.780   0.013   4.441
 1880TIP3    H2 5577   2.926   0.048   4.460
 1881TIP3   OH2 5578   3.087   0.612   4.049
 1881TIP3    H1 5579   2.995   0.609   4.079
 1881TIP3    H2 5580   3.131   0.645   4.131
 1882TIP3   OH2 5581   3.511  -0.341   2.963
 1882TIP3    H1 5582   3.456  -0.393   2.901
 1882TIP3    H2 5583   3.496  -0.251   2.925
 1883TIP3   OH2 5584   3.742   0.534   4.052
 1883TIP3    H1 5585   3.645   0.520   4.049
 1883TIP3    H2 5586   3.765   0.495   3.965
 1884TIP3   OH2 5587   3.207   0.481   2.880
 1884TIP3    H1 5588   3.191   0.409   2.942
 1884TIP3    H2 5589   3.227   0.436   2.797
 1885TIP3   OH2 5590   3.204   0.121   3.710
 1885TIP3    H1 5591   3.114   0.088   3.728
 1885TIP3    H2 5592   3.247   0.040   3.675
 1886TIP3   OH2 5593   2.336   0.337   3.473
 1886TIP3    H1 5594   2.340   0.419   3.420
 1886TIP3    H2 5595   2.242   0.319   3.473
 1887TIP3   OH2 5596   2.475   0.106   3.421
 1887TIP3    H1 5597   2.442   0.198   3.434
 1887TIP3    H2 5598   2.442   0.063   3.502
 1888TIP3   OH2 5599   2.606   0.681   3.942
 1888TIP3    H1 5600   2.648   0.755   3.892
 1888TIP3    H2 5601   2.682   0.649   3.993
 1889TIP3   OH2 5602   2.256   0.578   3.324
 1889TIP3    H1 5603   2.172   0.587   3.373
 1889TIP3    H2 5604   2.290   0.670   3.328
 1890TIP3   OH2 5605   3.000   0.308   3.908
 1890TIP3    H1 5606   3.027   0.332   3.998
 1890TIP3    H2 5607   3.082   0.270   3.872
 1891TIP3   OH2 5608   2.975   0.209   2.780
 1891TIP3    H1 5609   3.020   0.184   2.864
 1891TIP3    H2 5610   2.883   0.184   2.799
 1892TIP3   OH2 5611   3.242   0.851   3.956
 1892TIP3    H1 5612   3.166   0.789   3.952
 1892TIP3    H2 5613   3.224   0.911   3.881
 1893TIP3   OH2 5614   3.308   0.683   2.604
 1893TIP3    H1 5615   3.349   0.753   2.552
 1893TIP3    H2 5616   3.229   0.731   2.636
 1894TIP3   OH2 5617   3.129   0.144   3.003
 1894TIP3    H1 5618   3.120   0.078   3.075
 1894TIP3    H2 5619   3.226   0.142   2.989
 1895TIP3   OH2 5620   2.043   0.544   4.102
 1895TIP3    H1 5621   2.099   0.472   4.134
 1895TIP3    H2 5622   2.072   0.616   4.161
 1896TIP3   OH2 5623   2.289   0.198   3.039
 1896TIP3    H1 5624   2.335   0.181   3.121
 1896TIP3    H2 5625   2.282   0.296   3.044
 1897TIP3   OH2 5626   2.554   0.395   3.026
 1897TIP3    H1 5627   2.466   0.429   3.052
 1897TIP3    H2 5628   2.555   0.414   2.931
 1898TIP3   OH2 5629   2.720  -0.531   3.408
 1898TIP3    H1 5630   2.787  -0.462   3.388
 1898TIP3    H2 5631   2.762  -0.576   3.482
 1899TIP3   OH2 5632   2.981  -0.225   4.254
 1899TIP3    H1 5633   3.008  -0.167   4.328
 1899TIP3    H2 5634   3.057  -0.284   4.252
 1900TIP3   OH2 5635   2.289   0.467   3.071
 1900TIP3    H1 5636   2.260   0.539   3.011
 1900TIP3    H2 5637   2.273   0.507   3.160
 1901TIP3   OH2 5638   3.299  -0.132   3.597
 1901TIP3    H1 5639   3.219  -0.181   3.621
 1901TIP3    H2 5640   3.369  -0.179   3.647
 1902TIP3   OH2 5641   3.263   0.823   3.543
 1902TIP3    H1 5642   3.221   0.871   3.468
 1902TIP3    H2 5643   3.357   0.843   3.524
 1903TIP3   OH2 5644   1.900   0.359   3.455
 1903TIP3    H1 5645   1.822   0.305   3.477
 1903TIP3    H2 5646   1.930   0.312   3.375
 1904TIP3   OH2 5647   2.035   0.855   4.527
 1904TIP3    H1 5648   2.121   0.856   4.573
 1904TIP3    H2 5649   2.017   0.759   4.525
 1905TIP3   OH2 5650   2.514   0.820   4.568
 1905TIP3    H1 5651   2.609   0.804   4.580
 1905TIP3    H2 5652   2.494   0.759   4.494
 1906TIP3   OH2 5653   2.517   0.403   2.753
 1906TIP3    H1 5654   2.448   0.335   2.754
 1906TIP3    H2 5655   2.549   0.388   2.662
 1907TIP3   OH2 5656   3.157   0.720   4.299
 1907TIP3    H1 5657   3.146   0.652   4.369
 1907TIP3    H2 5658   3.233   0.772   4.331
 1908TIP3   OH2 5659   2.935   0.436   2.610
 1908TIP3    H1 5660   2.983   0.376   2.670
 1908TIP3    H2 5661   2.995   0.441   2.534
 1909TIP3   OH2 5662   2.168   0.262   4.723
 1909TIP3    H1 5663   2.183   0.166   4.735
 1909TIP3    H2 5664   2.079   0.263   4.681
 1910TIP3   OH2 5665   2.774   0.350   4.497
 1910TIP3    H1 5666   2.733   0.370   4.411
 1910TIP3    H2 5667   2.807   0.259   4.484
 1911TIP3   OH2 5668   2.684   0.112   2.744
 1911TIP3    H1 5669   2.678   0.132   2.840
 1911TIP3    H2 5670   2.680   0.015   2.745
 1912TIP3   OH2 5671   2.293  -0.011   4.702
 1912TIP3    H1 5672   2.373  -0.064   4.692
 1912TIP3    H2 5673   2.308   0.025   4.792
 1913TIP3   OH2 5674   2.625  -0.086   4.349
 1913TIP3    H1 5675   2.544  -0.034   4.370
 1913TIP3    H2 5676   2.610  -0.106   4.256
 1914TIP3   OH2 5677   3.130   0.280   4.492
 1914TIP3    H1 5678   3.216   0.258   4.454
 1914TIP3    H2 5679   3.120   0.208   4.557
 1915TIP3   OH2 5680   3.285  -0.052   2.641
 1915TIP3    H1 5681   3.256  -0.098   2.559
 1915TIP3    H2 5682   3.251   0.038   2.619
 1916TIP3   OH2 5683   2.702  -0.311   4.489
 1916TIP3    H1 5684   2.661  -0.372   4.426
 1916TIP3    H2 5685   2.689  -0.226   4.442
 1917TIP3   OH2 5686   3.359  -0.049   4.513
 1917TIP3    H1 5687   3.373  -0.103   4.595
 1917TIP3    H2 5688   3.422   0.021   4.527
 1918TIP3   OH2 5689   2.576  -0.185   4.707
 1918TIP3    H1 5690   2.554  -0.257   4.768
 1918TIP3    H2 5691   2.641  -0.228   4.648
 1919TIP3   OH2 5692   2.993  -0.259   4.549
 1919TIP3    H1 5693   3.037  -0.241   4.635
 1919TIP3    H2 5694   2.903  -0.276   4.578
 1920TIP3   OH2 5695   2.257   0.669   2.887
 1920TIP3    H1 5696   2.354   0.669   2.878
 1920TIP3    H2 5697   2.235   0.718   2.806
 1921TIP3   OH2 5698   1.650   0.652   3.501
 1921TIP3    H1 5699   1.577   0.591   3.486
 1921TIP3    H2 5700   1.699   0.607   3.575
 1922TIP3   OH2 5701   1.773   0.536   3.710
 1922TIP3    H1 5702   1.780   0.449   3.752
 1922TIP3    H2 5703   1.834   0.587   3.766
 1923TIP3   OH2 5704   3.514   0.919   3.501
 1923TIP3    H1 5705   3.544   0.948   3.589
 1923TIP3    H2 5706   3.580   0.958   3.442
 1924TIP3   OH2 5707   3.546   0.935   3.782
 1924TIP3    H1 5708   3.501   0.847   3.778
 1924TIP3    H2 5709   3.621   0.911   3.840
 1925TIP3   OH2 5710   3.593   0.614   4.359
 1925TIP3    H1 5711   3.519   0.622   4.422
 1925TIP3    H2 5712   3.633   0.703   4.362
 1926TIP3   OH2 5713   3.408   0.125   2.973
 1926TIP3    H1 5714   3.475   0.190   2.944
 1926TIP3    H2 5715   3.452   0.088   3.053
 1927TIP3   OH2 5716   3.534  -0.005   3.176
 1927TIP3    H1 5717   3.470  -0.044   3.240
 1927TIP3    H2 5718   3.602   0.035   3.235
 1928TIP3   OH2 5719   3.587   0.385   3.607
 1928TIP3    H1 5720   3.643   0.321   3.559
 1928TIP3    H2 5721   3.585   0.461   3.546
 1929TIP3   OH2 5722   3.420   0.686   3.804
 1929TIP3    H1 5723   3.349   0.724   3.860
 1929TIP3    H2 5724   3.369   0.637   3.736
 1930TIP3   OH2 5725   3.468  -0.105   2.829
 1930TIP3    H1 5726   3.404  -0.088   2.756
 1930TIP3    H2 5727   3.447  -0.028   2.886
 1931TIP3   OH2 5728   3.339  -0.446   2.769
 1931TIP3    H1 5729   3.322  -0.359   2.731
 1931TIP3    H2 5730   3.246  -0.477   2.783
 1932TIP3   OH2 5731   3.350  -0.143   3.326
 1932TIP3    H1 5732   3.351  -0.239   3.308
 1932TIP3    H2 5733   3.338  -0.138   3.423
 1933TIP3   OH2 5734   1.974  -0.078   4.071
 1933TIP3    H1 5735   1.971  -0.106   3.977
 1933TIP3    H2 5736   2.071  -0.077   4.087
 1934TIP3   OH2 5737   3.644   0.279   4.197
 1934TIP3    H1 5738   3.710   0.211   4.175
 1934TIP3    H2 5739   3.640   0.333   4.117
 1935TIP3   OH2 5740   3.825   0.077   4.195
 1935TIP3    H1 5741   3.749   0.028   4.232
 1935TIP3    H2 5742   3.896   0.011   4.207
 1936TIP3   OH2 5743   3.347  -0.405   3.190
 1936TIP3    H1 5744   3.376  -0.486   3.236
 1936TIP3    H2 5745   3.415  -0.395   3.120
 1937TIP3   OH2 5746   3.511  -0.259   3.724
 1937TIP3    H1 5747   3.597  -0.229   3.687
 1937TIP3    H2 5748   3.513  -0.213   3.811
 1938TIP3   OH2 5749   3.565  -0.117   3.950
 1938TIP3    H1 5750   3.490  -0.080   4.002
 1938TIP3    H2 5751   3.604  -0.035   3.915
 1939TIP3   OH2 5752   2.191  -0.395   4.737
 1939TIP3    H1 5753   2.286  -0.392   4.747
 1939TIP3    H2 5754   2.168  -0.475   4.787
 1940TIP3   OH2 5755   1.953  -0.422   4.150
 1940TIP3    H1 5756   2.002  -0.419   4.065
 1940TIP3    H2 5757   1.985  -0.342   4.194
 1941TIP3   OH2 5758   3.098   0.783   3.158
 1941TIP3    H1 5759   3.150   0.771   3.076
 1941TIP3    H2 5760   3.153   0.848   3.206
 1942TIP3   OH2 5761   2.201   0.587   4.542
 1942TIP3    H1 5762   2.108   0.559   4.530
 1942TIP3    H2 5763   2.215   0.568   4.636
 1943TIP3   OH2 5764   2.379   0.615   4.089
 1943TIP3    H1 5765   2.333   0.692   4.051
 1943TIP3    H2 5766   2.466   0.629   4.047
 1944TIP3   OH2 5767   2.824   0.862   4.228
 1944TIP3    H1 5768   2.866   0.863   4.317
 1944TIP3    H2 5769   2.890   0.913   4.176
 1945TIP3   OH2 5770   3.003   1.013   4.086
 1945TIP3    H1 5771   3.077   0.963   4.047
 1945TIP3    H2 5772   3.053   1.071   4.148
 1946TIP3   OH2 5773   2.053   0.875   4.114
 1946TIP3    H1 5774   1.964   0.911   4.094
 1946TIP3    H2 5775   2.069   0.914   4.201
 1947TIP3   OH2 5776   2.291   0.851   3.972
 1947TIP3    H1 5777   2.204   0.866   4.017
 1947TIP3    H2 5778   2.273   0.886   3.883
 1948TIP3   OH2 5779   2.715   0.883   3.771
 1948TIP3    H1 5780   2.651   0.908   3.703
 1948TIP3    H2 5781   2.731   0.968   3.816
 1949TIP3   OH2 5782   2.986   0.820   3.815
 1949TIP3    H1 5783   2.892   0.842   3.799
 1949TIP3    H2 5784   3.031   0.900   3.781
 1950TIP3   OH2 5785   3.192   1.012   3.737
 1950TIP3    H1 5786   3.180   1.097   3.691
 1950TIP3    H2 5787   3.220   0.953   3.664
 1951TIP3   OH2 5788   1.967   0.669   3.861
 1951TIP3    H1 5789   1.995   0.645   3.952
 1951TIP3    H2 5790   2.039   0.625   3.810
 1952TIP3   OH2 5791   2.162   0.542   3.718
 1952TIP3    H1 5792   2.177   0.457   3.765
 1952TIP3    H2 5793   2.253   0.579   3.715
 1953TIP3   OH2 5794   2.426   0.637   3.721
 1953TIP3    H1 5795   2.461   0.547   3.707
 1953TIP3    H2 5796   2.472   0.660   3.804
 1954TIP3   OH2 5797   1.715   0.446   3.227
 1954TIP3    H1 5798   1.632   0.408   3.258
 1954TIP3    H2 5799   1.728   0.519   3.287
 1955TIP3   OH2 5800   2.526   0.661   2.836
 1955TIP3    H1 5801   2.616   0.679   2.801
 1955TIP3    H2 5802   2.515   0.571   2.798
 1956TIP3   OH2 5803   3.243   0.748   2.926
 1956TIP3    H1 5804   3.234   0.650   2.912
 1956TIP3    H2 5805   3.202   0.781   2.844
 1957TIP3   OH2 5806   3.472   0.894   4.115
 1957TIP3    H1 5807   3.394   0.861   4.066
 1957TIP3    H2 5808   3.451   0.989   4.118
 1958TIP3   OH2 5809   4.736   0.260   2.885
 1958TIP3    H1 5810   4.715   0.354   2.864
 1958TIP3    H2 5811   4.659   0.217   2.844
 1959TIP3   OH2 5812   4.740   0.265   3.260
 1959TIP3    H1 5813   4.765   0.237   3.350
 1959TIP3    H2 5814   4.697   0.187   3.225
 1960TIP3   OH2 5815   4.035   0.162   3.627
 1960TIP3    H1 5816   4.067   0.093   3.688
 1960TIP3    H2 5817   4.115   0.216   3.618
 1961TIP3   OH2 5818   4.974   0.566   2.946
 1961TIP3    H1 5819   4.966   0.499   3.014
 1961TIP3    H2 5820   5.008   0.642   2.996
 1962TIP3   OH2 5821   4.007   0.568   3.352
 1962TIP3    H1 5822   4.000   0.470   3.354
 1962TIP3    H2 5823   4.104   0.578   3.343
 1963TIP3   OH2 5824   3.704  -0.225   3.148
 1963TIP3    H1 5825   3.657  -0.140   3.159
 1963TIP3    H2 5826   3.642  -0.274   3.093
 1964TIP3   OH2 5827   3.768   0.067   3.299
 1964TIP3    H1 5828   3.810  -0.014   3.337
 1964TIP3    H2 5829   3.839   0.103   3.244
 1965TIP3   OH2 5830   4.642   1.032   2.972
 1965TIP3    H1 5831   4.663   0.984   2.890
 1965TIP3    H2 5832   4.648   0.963   3.039
 1966TIP3   OH2 5833   4.536   0.491   3.310
 1966TIP3    H1 5834   4.575   0.416   3.262
 1966TIP3    H2 5835   4.620   0.536   3.334
 1967TIP3   OH2 5836   4.955  -0.007   3.356
 1967TIP3    H1 5837   4.974  -0.098   3.381
 1967TIP3    H2 5838   4.916  -0.015   3.267
 1968TIP3   OH2 5839   4.260  -0.385   3.289
 1968TIP3    H1 5840   4.241  -0.297   3.250
 1968TIP3    H2 5841   4.194  -0.440   3.247
 1969TIP3   OH2 5842   4.950  -0.218   2.972
 1969TIP3    H1 5843   5.010  -0.271   3.029
 1969TIP3    H2 5844   4.998  -0.219   2.888
 1970TIP3   OH2 5845   3.890  -0.151   3.410
 1970TIP3    H1 5846   3.982  -0.146   3.446
 1970TIP3    H2 5847   3.909  -0.206   3.332
 1971TIP3   OH2 5848   4.360   0.053   3.206
 1971TIP3    H1 5849   4.453   0.027   3.224
 1971TIP3    H2 5850   4.321  -0.033   3.181
 1972TIP3   OH2 5851   5.591   0.002   3.499
 1972TIP3    H1 5852   5.517   0.056   3.465
 1972TIP3    H2 5853   5.643   0.066   3.549
 1973TIP3   OH2 5854   4.636   0.489   2.748
 1973TIP3    H1 5855   4.592   0.472   2.663
 1973TIP3    H2 5856   4.592   0.572   2.776
 1974TIP3   OH2 5857   4.388   0.411   3.537
 1974TIP3    H1 5858   4.326   0.477   3.575
 1974TIP3    H2 5859   4.429   0.462   3.464
 1975TIP3   OH2 5860   4.145  -0.180   3.477
 1975TIP3    H1 5861   4.216  -0.140   3.531
 1975TIP3    H2 5862   4.182  -0.268   3.462
 1976TIP3   OH2 5863   4.216   0.605   3.635
 1976TIP3    H1 5864   4.190   0.691   3.595
 1976TIP3    H2 5865   4.137   0.589   3.692
 1977TIP3   OH2 5866   3.611   0.294   2.870
 1977TIP3    H1 5867   3.574   0.324   2.785
 1977TIP3    H2 5868   3.643   0.379   2.908
 1978TIP3   OH2 5869   5.054   0.811   3.113
 1978TIP3    H1 5870   4.964   0.802   3.151
 1978TIP3    H2 5871   5.045   0.895   3.064
 1979TIP3   OH2 5872   4.929   0.608   2.666
 1979TIP3    H1 5873   4.842   0.567   2.658
 1979TIP3    H2 5874   4.944   0.604   2.762
 1980TIP3   OH2 5875   5.280   0.723   3.453
 1980TIP3    H1 5876   5.267   0.645   3.395
 1980TIP3    H2 5877   5.260   0.797   3.393
 1981TIP3   OH2 5878   4.568   0.120   2.708
 1981TIP3    H1 5879   4.488   0.172   2.687
 1981TIP3    H2 5880   4.614   0.118   2.622
 1982TIP3   OH2 5881   4.528  -0.103   2.431
 1982TIP3    H1 5882   4.599  -0.051   2.473
 1982TIP3    H2 5883   4.580  -0.167   2.380
 1983TIP3   OH2 5884   5.476   0.364   3.299
 1983TIP3    H1 5885   5.391   0.413   3.304
 1983TIP3    H2 5886   5.503   0.386   3.208
 1984TIP3   OH2 5887   4.914   0.195   2.686
 1984TIP3    H1 5888   4.861   0.222   2.764
 1984TIP3    H2 5889   5.001   0.177   2.727
 1985TIP3   OH2 5890   5.151   0.241   3.594
 1985TIP3    H1 5891   5.146   0.320   3.650
 1985TIP3    H2 5892   5.063   0.245   3.550
 1986TIP3   OH2 5893   4.148   0.197   3.100
 1986TIP3    H1 5894   4.109   0.139   3.032
 1986TIP3    H2 5895   4.226   0.145   3.129
 1987TIP3   OH2 5896   4.276   0.604   3.251
 1987TIP3    H1 5897   4.258   0.569   3.162
 1987TIP3    H2 5898   4.367   0.572   3.267
 1988TIP3   OH2 5899   4.286   0.166   3.457
 1988TIP3    H1 5900   4.318   0.144   3.367
 1988TIP3    H2 5901   4.331   0.251   3.476
 1989TIP3   OH2 5902   4.810   0.807   3.230
 1989TIP3    H1 5903   4.797   0.886   3.285
 1989TIP3    H2 5904   4.795   0.733   3.292
 1990TIP3   OH2 5905   4.422   0.728   3.775
 1990TIP3    H1 5906   4.361   0.790   3.821
 1990TIP3    H2 5907   4.358   0.673   3.726
 1991TIP3   OH2 5908   4.758   0.055   2.508
 1991TIP3    H1 5909   4.815   0.117   2.559
 1991TIP3    H2 5910   4.784   0.078   2.416
 1992TIP3   OH2 5911   4.170   0.290   3.872
 1992TIP3    H1 5912   4.176   0.373   3.923
 1992TIP3    H2 5913   4.077   0.266   3.888
 1993TIP3   OH2 5914   4.502   0.750   2.786
 1993TIP3    H1 5915   4.574   0.814   2.773
 1993TIP3    H2 5916   4.434   0.790   2.731
 1994TIP3   OH2 5917   4.216   0.895   3.864
 1994TIP3    H1 5918   4.182   0.893   3.773
 1994TIP3    H2 5919   4.136   0.873   3.917
 1995TIP3   OH2 5920   4.015   0.037   2.904
 1995TIP3    H1 5921   3.952   0.086   2.847
 1995TIP3    H2 5922   3.971  -0.047   2.914
 1996TIP3   OH2 5923   5.069   0.664   2.101
 1996TIP3    H1 5924   5.077   0.761   2.091
 1996TIP3    H2 5925   5.163   0.637   2.092
 1997TIP3   OH2 5926   3.799   0.424   3.809
 1997TIP3    H1 5927   3.729   0.400   3.745
 1997TIP3    H2 5928   3.835   0.337   3.836
 1998TIP3   OH2 5929   3.651   0.616   3.444
 1998TIP3    H1 5930   3.747   0.609   3.433
 1998TIP3    H2 5931   3.644   0.695   3.499
 1999TIP3   OH2 5932   5.516   1.069   3.500
 1999TIP3    H1 5933   5.513   0.972   3.511
 1999TIP3    H2 5934   5.431   1.093   3.545
 2000TIP3   OH2 5935   4.621   0.855   3.633
 2000TIP3    H1 5936   4.619   0.947   3.667
 2000TIP3    H2 5937   4.549   0.814   3.687
 2001TIP3   OH2 5938   4.304   0.980   2.592
 2001TIP3    H1 5939   4.329   0.955   2.501
 2001TIP3    H2 5940   4.366   1.051   2.611
 2002TIP3   OH2 5941   3.816   0.833   2.972
 2002TIP3    H1 5942   3.868   0.824   3.054
 2002TIP3    H2 5943   3.760   0.754   2.978
 2003TIP3   OH2 5944   4.588   0.881   2.234
 2003TIP3    H1 5945   4.642   0.811   2.192
 2003TIP3    H2 5946   4.636   0.894   2.317
 2004TIP3   OH2 5947   5.409   0.188   3.769
 2004TIP3    H1 5948   5.325   0.224   3.738
 2004TIP3    H2 5949   5.388   0.093   3.767
 2005TIP3   OH2 5950   4.000   0.610   3.802
 2005TIP3    H1 5951   4.051   0.589   3.883
 2005TIP3    H2 5952   3.927   0.545   3.807
 2006TIP3   OH2 5953   5.185  -0.017   3.718
 2006TIP3    H1 5954   5.150   0.007   3.804
 2006TIP3    H2 5955   5.161   0.060   3.663
 2007TIP3   OH2 5956   4.835   0.096   2.252
 2007TIP3    H1 5957   4.801   0.078   2.163
 2007TIP3    H2 5958   4.909   0.156   2.232
 2008TIP3   OH2 5959   4.347  -0.052   3.617
 2008TIP3    H1 5960   4.290  -0.026   3.691
 2008TIP3    H2 5961   4.336   0.026   3.558
 2009TIP3   OH2 5962   4.219  -0.171   3.124
 2009TIP3    H1 5963   4.123  -0.185   3.133
 2009TIP3    H2 5964   4.233  -0.200   3.031
 2010TIP3   OH2 5965   4.699  -0.080   2.840
 2010TIP3    H1 5966   4.652  -0.006   2.796
 2010TIP3    H2 5967   4.767  -0.103   2.774
 2011TIP3   OH2 5968   4.842  -0.013   3.106
 2011TIP3    H1 5969   4.791   0.032   3.036
 2011TIP3    H2 5970   4.872  -0.092   3.055
 2012TIP3   OH2 5971   4.152  -0.019   3.816
 2012TIP3    H1 5972   4.187   0.049   3.876
 2012TIP3    H2 5973   4.151  -0.098   3.872
 2013TIP3   OH2 5974   3.779  -0.421   2.944
 2013TIP3    H1 5975   3.795  -0.410   2.848
 2013TIP3    H2 5976   3.685  -0.396   2.947
 2014TIP3   OH2 5977   4.868   0.196   3.511
 2014TIP3    H1 5978   4.907   0.125   3.455
 2014TIP3    H2 5979   4.847   0.145   3.591
 2015TIP3   OH2 5980   3.965  -0.289   3.172
 2015TIP3    H1 5981   3.872  -0.262   3.154
 2015TIP3    H2 5982   3.967  -0.373   3.127
 2016TIP3   OH2 5983   4.260  -0.274   2.874
 2016TIP3    H1 5984   4.351  -0.285   2.841
 2016TIP3    H2 5985   4.206  -0.279   2.793
 2017TIP3   OH2 5986   4.087  -0.284   2.651
 2017TIP3    H1 5987   4.015  -0.306   2.588
 2017TIP3    H2 5988   4.147  -0.237   2.589
 2018TIP3   OH2 5989   5.205   1.418   3.597
 2018TIP3    H1 5990   5.200   1.440   3.502
 2018TIP3    H2 5991   5.282   1.470   3.626
 2019TIP3   OH2 5992   4.161   0.530   4.021
 2019TIP3    H1 5993   4.242   0.558   4.067
 2019TIP3    H2 5994   4.098   0.527   4.095
 2020TIP3   OH2 5995   4.613  -0.024   3.277
 2020TIP3    H1 5996   4.699  -0.043   3.236
 2020TIP3    H2 5997   4.625  -0.056   3.369
 2021TIP3   OH2 5998   4.624  -0.094   3.544
 2021TIP3    H1 5999   4.532  -0.095   3.577
 2021TIP3    H2 6000   4.671  -0.046   3.614
 2022TIP3   OH2 6001   4.339   0.269   2.659
 2022TIP3    H1 6002   4.265   0.206   2.648
 2022TIP3    H2 6003   4.321   0.303   2.750
 2023TIP3   OH2 6004   5.241   0.504   3.290
 2023TIP3    H1 6005   5.264   0.555   3.210
 2023TIP3    H2 6006   5.155   0.464   3.266
 2024TIP3   OH2 6007   4.770  -0.349   2.478
 2024TIP3    H1 6008   4.712  -0.398   2.540
 2024TIP3    H2 6009   4.809  -0.284   2.539
 2025TIP3   OH2 6010   4.744   0.587   3.655
 2025TIP3    H1 6011   4.755   0.551   3.744
 2025TIP3    H2 6012   4.702   0.673   3.671
 2026TIP3   OH2 6013   4.877  -0.158   2.640
 2026TIP3    H1 6014   4.974  -0.149   2.646
 2026TIP3    H2 6015   4.853  -0.080   2.585
 2027TIP3   OH2 6016   4.028   0.285   3.336
 2027TIP3    H1 6017   4.069   0.262   3.251
 2027TIP3    H2 6018   4.078   0.229   3.398
 2028TIP3   OH2 6019   4.484   0.419   2.480
 2028TIP3    H1 6020   4.437   0.505   2.485
 2028TIP3    H2 6021   4.431   0.364   2.541
 2029TIP3   OH2 6022   3.910   0.213   3.951
 2029TIP3    H1 6023   3.934   0.200   4.045
 2029TIP3    H2 6024   3.841   0.146   3.939
 2030TIP3   OH2 6025   4.625   0.351   3.935
 2030TIP3    H1 6026   4.569   0.281   3.900
 2030TIP3    H2 6027   4.678   0.299   4.000
 2031TIP3   OH2 6028   4.901   0.851   3.551
 2031TIP3    H1 6029   4.804   0.844   3.564
 2031TIP3    H2 6030   4.926   0.901   3.631
 2032TIP3   OH2 6031   5.308  -0.081   2.451
 2032TIP3    H1 6032   5.248  -0.130   2.391
 2032TIP3    H2 6033   5.294   0.010   2.415
 2033TIP3   OH2 6034   5.530   0.779   3.541
 2033TIP3    H1 6035   5.432   0.773   3.533
 2033TIP3    H2 6036   5.555   0.748   3.451
 2034TIP3   OH2 6037   5.011   0.740   2.373
 2034TIP3    H1 6038   4.981   0.680   2.444
 2034TIP3    H2 6039   5.019   0.683   2.295
 2035TIP3   OH2 6040   5.006   0.369   3.209
 2035TIP3    H1 6041   4.913   0.343   3.222
 2035TIP3    H2 6042   5.041   0.291   3.162
 2036TIP3   OH2 6043   4.135   0.595   2.962
 2036TIP3    H1 6044   4.140   0.676   2.908
 2036TIP3    H2 6045   4.040   0.581   2.967
 2037TIP3   OH2 6046   3.695  -0.097   2.666
 2037TIP3    H1 6047   3.745  -0.015   2.685
 2037TIP3    H2 6048   3.621  -0.089   2.729
 2038TIP3   OH2 6049   4.271   0.360   2.904
 2038TIP3    H1 6050   4.238   0.450   2.922
 2038TIP3    H2 6051   4.235   0.311   2.981
 2039TIP3   OH2 6052   4.402   0.938   3.430
 2039TIP3    H1 6053   4.443   1.011   3.378
 2039TIP3    H2 6054   4.479   0.904   3.477
 2040TIP3   OH2 6055   4.054   0.832   2.816
 2040TIP3    H1 6056   3.968   0.846   2.859
 2040TIP3    H2 6057   4.087   0.924   2.810
 2041TIP3   OH2 6058   4.791   0.573   3.387
 2041TIP3    H1 6059   4.782   0.572   3.485
 2041TIP3    H2 6060   4.871   0.519   3.375
 2042TIP3   OH2 6061   4.762   0.464   2.269
 2042TIP3    H1 6062   4.818   0.433   2.344
 2042TIP3    H2 6063   4.674   0.442   2.303
 2043TIP3   OH2 6064   5.040   1.109   3.439
 2043TIP3    H1 6065   4.961   1.051   3.432
 2043TIP3    H2 6066   5.023   1.172   3.365
 2044TIP3   OH2 6067   5.106   0.939   2.088
 2044TIP3    H1 6068   5.143   1.013   2.038
 2044TIP3    H2 6069   5.027   0.983   2.127
 2045TIP3   OH2 6070   4.921   0.374   2.471
 2045TIP3    H1 6071   4.914   0.327   2.556
 2045TIP3    H2 6072   5.016   0.397   2.472
 2046TIP3   OH2 6073   3.839   0.801   3.590
 2046TIP3    H1 6074   3.893   0.725   3.618
 2046TIP3    H2 6075   3.871   0.869   3.650
 2047TIP3   OH2 6076   4.131   0.448   2.271
 2047TIP3    H1 6077   4.148   0.356   2.242
 2047TIP3    H2 6078   4.112   0.435   2.366
 2048TIP3   OH2 6079   4.076   0.450   2.545
 2048TIP3    H1 6080   4.153   0.429   2.601
 2048TIP3    H2 6081   4.077   0.549   2.548
 2049TIP3   OH2 6082   3.811   0.144   2.746
 2049TIP3    H1 6083   3.747   0.192   2.803
 2049TIP3    H2 6084   3.829   0.213   2.679
 2050TIP3   OH2 6085   4.341   0.648   2.495
 2050TIP3    H1 6086   4.254   0.679   2.527
 2050TIP3    H2 6087   4.364   0.721   2.436
 2051TIP3   OH2 6088   4.551  -0.302   2.875
 2051TIP3    H1 6089   4.601  -0.218   2.862
 2051TIP3    H2 6090   4.547  -0.306   2.971
 2052TIP3   OH2 6091   4.811   0.040   3.733
 2052TIP3    H1 6092   4.789   0.086   3.815
 2052TIP3    H2 6093   4.872  -0.028   3.764
 2053TIP3   OH2 6094   4.080   0.722   2.558
 2053TIP3    H1 6095   4.056   0.793   2.494
 2053TIP3    H2 6096   4.073   0.770   2.643
 2054TIP3   OH2 6097   5.093   0.128   3.083
 2054TIP3    H1 6098   5.014   0.077   3.105
 2054TIP3    H2 6099   5.164   0.081   3.132
 2055TIP3   OH2 6100   3.802   0.355   2.553
 2055TIP3    H1 6101   3.867   0.428   2.562
 2055TIP3    H2 6102   3.849   0.302   2.484
 2056TIP3   OH2 6103   3.749  -0.366   2.678
 2056TIP3    H1 6104   3.746  -0.269   2.666
 2056TIP3    H2 6105   3.658  -0.392   2.658
 2057TIP3   OH2 6106   5.058   1.083   3.030
 2057TIP3    H1 6107   5.014   1.132   2.958
 2057TIP3    H2 6108   5.152   1.099   3.007
 2058TIP3   OH2 6109   3.674   0.563   2.940
 2058TIP3    H1 6110   3.602   0.600   2.993
 2058TIP3    H2 6111   3.656   0.605   2.853
 2059TIP3   OH2 6112   3.829   1.109   4.014
 2059TIP3    H1 6113   3.917   1.104   4.056
 2059TIP3    H2 6114   3.806   1.015   4.008
 2060TIP3   OH2 6115   4.312   1.076   4.055
 2060TIP3    H1 6116   4.406   1.054   4.062
 2060TIP3    H2 6117   4.286   1.017   3.981
 2061TIP3   OH2 6118   4.295   0.651   2.182
 2061TIP3    H1 6119   4.239   0.580   2.221
 2061TIP3    H2 6120   4.370   0.598   2.149
 2062TIP3   OH2 6121   4.950   0.982   3.790
 2062TIP3    H1 6122   4.941   0.911   3.857
 2062TIP3    H2 6123   5.029   1.030   3.822
 2063TIP3   OH2 6124   4.730   0.692   2.093
 2063TIP3    H1 6125   4.778   0.632   2.153
 2063TIP3    H2 6126   4.786   0.693   2.013
 2064TIP3   OH2 6127   3.964   0.516   4.214
 2064TIP3    H1 6128   3.977   0.420   4.218
 2064TIP3    H2 6129   3.877   0.521   4.167
 2065TIP3   OH2 6130   3.938   0.166   2.405
 2065TIP3    H1 6131   3.996   0.137   2.478
 2065TIP3    H2 6132   4.003   0.172   2.332
 2066TIP3   OH2 6133   4.568   0.615   3.983
 2066TIP3    H1 6134   4.525   0.633   3.897
 2066TIP3    H2 6135   4.600   0.522   3.970
 2067TIP3   OH2 6136   4.446   0.366   2.211
 2067TIP3    H1 6137   4.451   0.380   2.308
 2067TIP3    H2 6138   4.448   0.268   2.207
 2068TIP3   OH2 6139   5.063   0.607   3.589
 2068TIP3    H1 6140   5.135   0.656   3.545
 2068TIP3    H2 6141   4.989   0.670   3.579
 2069TIP3   OH2 6142   4.088   0.247   4.191
 2069TIP3    H1 6143   4.171   0.201   4.172
 2069TIP3    H2 6144   4.108   0.283   4.280
 2070TIP3   OH2 6145   4.143   0.071   2.626
 2070TIP3    H1 6146   4.125   0.029   2.712
 2070TIP3    H2 6147   4.182  -0.003   2.575
 2071TIP3   OH2 6148   4.410   0.160   3.843
 2071TIP3    H1 6149   4.333   0.220   3.838
 2071TIP3    H2 6150   4.461   0.183   3.762
 2072TIP3   OH2 6151   4.246  -0.138   2.474
 2072TIP3    H1 6152   4.219  -0.134   2.379
 2072TIP3    H2 6153   4.344  -0.132   2.464
 2073TIP3   OH2 6154   4.937   0.539   3.988
 2073TIP3    H1 6155   5.010   0.495   3.945
 2073TIP3    H2 6156   4.919   0.478   4.063
 2074TIP3   OH2 6157   5.072   0.192   2.128
 2074TIP3    H1 6158   5.051   0.149   2.043
 2074TIP3    H2 6159   5.040   0.283   2.108
 2075TIP3   OH2 6160   4.473  -0.064   3.980
 2075TIP3    H1 6161   4.452  -0.120   3.903
 2075TIP3    H2 6162   4.462   0.026   3.940
 2076TIP3   OH2 6163   4.572   0.234   3.637
 2076TIP3    H1 6164   4.659   0.254   3.602
 2076TIP3    H2 6165   4.518   0.308   3.602
 2077TIP3   OH2 6166   5.174   0.216   4.000
 2077TIP3    H1 6167   5.173   0.168   4.086
 2077TIP3    H2 6168   5.247   0.276   4.011
 2078TIP3   OH2 6169   5.197   0.468   3.777
 2078TIP3    H1 6170   5.135   0.519   3.720
 2078TIP3    H2 6171   5.282   0.492   3.735
 2079TIP3   OH2 6172   4.381   0.069   4.211
 2079TIP3    H1 6173   4.351  -0.021   4.224
 2079TIP3    H2 6174   4.453   0.054   4.147
 2080TIP3   OH2 6175   4.053   0.920   2.367
 2080TIP3    H1 6176   4.150   0.925   2.362
 2080TIP3    H2 6177   4.030   0.973   2.288
 2081TIP3   OH2 6178   3.535   0.307   2.589
 2081TIP3    H1 6179   3.629   0.332   2.575
 2081TIP3    H2 6180   3.531   0.219   2.546
 2082TIP3   OH2 6181   3.447   0.920   3.003
 2082TIP3    H1 6182   3.382   0.857   2.966
 2082TIP3    H2 6183   3.493   0.863   3.068
 2083TIP3   OH2 6184   3.585   0.772   3.188
 2083TIP3    H1 6185   3.576   0.698   3.251
 2083TIP3    H2 6186   3.637   0.834   3.242
 2084TIP3   OH2 6187   5.314   1.167   2.988
 2084TIP3    H1 6188   5.340   1.205   3.073
 2084TIP3    H2 6189   5.368   1.217   2.925
 2085TIP3   OH2 6190   5.342   1.194   3.272
 2085TIP3    H1 6191   5.296   1.108   3.264
 2085TIP3    H2 6192   5.417   1.168   3.326
 2086TIP3   OH2 6193   5.391   0.868   3.846
 2086TIP3    H1 6194   5.315   0.876   3.908
 2086TIP3    H2 6195   5.429   0.958   3.849
 2087TIP3   OH2 6196   5.207   0.380   2.461
 2087TIP3    H1 6197   5.272   0.448   2.434
 2087TIP3    H2 6198   5.250   0.344   2.542
 2088TIP3   OH2 6199   5.334   0.249   2.666
 2088TIP3    H1 6200   5.265   0.212   2.725
 2088TIP3    H2 6201   5.394   0.294   2.728
 2089TIP3   OH2 6202   5.387   0.642   3.101
 2089TIP3    H1 6203   5.437   0.577   3.049
 2089TIP3    H2 6204   5.381   0.718   3.040
 2090TIP3   OH2 6205   5.219   0.943   3.295
 2090TIP3    H1 6206   5.146   0.985   3.344
 2090TIP3    H2 6207   5.170   0.896   3.224
 2091TIP3   OH2 6208   5.264   0.154   2.314
 2091TIP3    H1 6209   5.196   0.163   2.244
 2091TIP3    H2 6210   5.239   0.232   2.369
 2092TIP3   OH2 6211   5.135  -0.185   2.260
 2092TIP3    H1 6212   5.117  -0.106   2.208
 2092TIP3    H2 6213   5.082  -0.251   2.212
 2093TIP3   OH2 6214   5.148   0.115   2.813
 2093TIP3    H1 6215   5.150   0.019   2.796
 2093TIP3    H2 6216   5.133   0.121   2.910
 2094TIP3   OH2 6217   3.772   0.177   3.559
 2094TIP3    H1 6218   3.773   0.153   3.465
 2094TIP3    H2 6219   3.869   0.182   3.578
 2095TIP3   OH2 6220   5.438   0.533   3.669
 2095TIP3    H1 6221   5.510   0.467   3.659
 2095TIP3    H2 6222   5.462   0.601   3.603
 2096TIP3   OH2 6223   5.621   0.337   3.690
 2096TIP3    H1 6224   5.545   0.283   3.722
 2096TIP3    H2 6225   5.694   0.273   3.708
 2097TIP3   OH2 6226   5.148  -0.147   2.681
 2097TIP3    H1 6227   5.179  -0.228   2.725
 2097TIP3    H2 6228   5.211  -0.138   2.606
 2098TIP3   OH2 6229   5.303   0.002   3.209
 2098TIP3    H1 6230   5.388   0.027   3.168
 2098TIP3    H2 6231   5.317   0.038   3.299
 2099TIP3   OH2 6232   5.368   0.147   3.436
 2099TIP3    H1 6233   5.291   0.181   3.486
 2099TIP3    H2 6234   5.400   0.228   3.391
 2100TIP3   OH2 6235   3.988  -0.140   4.230
 2100TIP3    H1 6236   4.084  -0.141   4.236
 2100TIP3    H2 6237   3.962  -0.207   4.295
 2101TIP3   OH2 6238   3.768  -0.177   3.660
 2101TIP3    H1 6239   3.805  -0.175   3.569
 2101TIP3    H2 6240   3.774  -0.082   3.682
 2102TIP3   OH2 6241   3.996   0.848   4.033
 2102TIP3    H1 6242   3.906   0.816   4.013
 2102TIP3    H2 6243   4.007   0.820   4.124
 2103TIP3   OH2 6244   4.175   0.876   3.579
 2103TIP3    H1 6245   4.128   0.952   3.538
 2103TIP3    H2 6246   4.261   0.888   3.535
 2104TIP3   OH2 6247   4.620   1.121   3.719
 2104TIP3    H1 6248   4.664   1.121   3.806
 2104TIP3    H2 6249   4.686   1.170   3.665
 2105TIP3   OH2 6250   4.798   1.272   3.575
 2105TIP3    H1 6251   4.867   1.221   3.530
 2105TIP3    H2 6252   4.852   1.328   3.635
 2106TIP3   OH2 6253   3.850   1.133   3.599
 2106TIP3    H1 6254   3.762   1.170   3.576
 2106TIP3    H2 6255   3.857   1.161   3.691
 2107TIP3   OH2 6256   4.089   1.111   3.460
 2107TIP3    H1 6257   4.002   1.125   3.503
 2107TIP3    H2 6258   4.071   1.143   3.370
 2108TIP3   OH2 6259   4.512   1.138   3.264
 2108TIP3    H1 6260   4.450   1.156   3.191
 2108TIP3    H2 6261   4.524   1.228   3.301
 2109TIP3   OH2 6262   4.783   1.081   3.311
 2109TIP3    H1 6263   4.689   1.094   3.289
 2109TIP3    H2 6264   4.825   1.153   3.261
 2110TIP3   OH2 6265   4.993   1.273   3.223
 2110TIP3    H1 6266   4.976   1.357   3.175
 2110TIP3    H2 6267   5.016   1.212   3.149
 2111TIP3   OH2 6268   3.762   0.925   3.347
 2111TIP3    H1 6269   3.791   0.900   3.438
 2111TIP3    H2 6270   3.834   0.883   3.296
 2112TIP3   OH2 6271   3.956   0.797   3.204
 2112TIP3    H1 6272   3.974   0.713   3.252
 2112TIP3    H2 6273   4.047   0.835   3.198
 2113TIP3   OH2 6274   4.221   0.894   3.207
 2113TIP3    H1 6275   4.255   0.805   3.189
 2113TIP3    H2 6276   4.267   0.914   3.291
 2114TIP3   OH2 6277   3.549   0.698   2.742
 2114TIP3    H1 6278   3.465   0.667   2.705
 2114TIP3    H2 6279   3.542   0.793   2.721
 2115TIP3   OH2 6280   4.328   0.886   2.322
 2115TIP3    H1 6281   4.417   0.906   2.288
 2115TIP3    H2 6282   4.303   0.813   2.261
 2116TIP3   OH2 6283   5.065   1.008   2.396
 2116TIP3    H1 6284   5.044   0.912   2.401
 2116TIP3    H2 6285   5.000   1.038   2.330
 2117TIP3   OH2 6286   3.626   0.719   2.377
 2117TIP3    H1 6287   3.635   0.753   2.467
 2117TIP3    H2 6288   3.714   0.679   2.361
 2118TIP3   OH2 6289   5.268   1.149   3.602
 2118TIP3    H1 6290   5.191   1.116   3.551
 2118TIP3    H2 6291   5.248   1.244   3.604
 2119TIP3   OH2 6292   6.528   0.520   2.376
 2119TIP3    H1 6293   6.504   0.613   2.353
 2119TIP3    H2 6294   6.454   0.474   2.334
 2120TIP3   OH2 6295   6.537   0.521   2.745
 2120TIP3    H1 6296   6.564   0.491   2.834
 2120TIP3    H2 6297   6.491   0.443   2.710
 2121TIP3   OH2 6298   5.833   0.419   3.111
 2121TIP3    H1 6299   5.866   0.349   3.171
 2121TIP3    H2 6300   5.913   0.473   3.101
 2122TIP3   OH2 6301   6.778   0.821   2.430
 2122TIP3    H1 6302   6.761   0.755   2.497
 2122TIP3    H2 6303   6.805   0.898   2.482
 2123TIP3   OH2 6304   5.806   0.827   2.840
 2123TIP3    H1 6305   5.796   0.730   2.842
 2123TIP3    H2 6306   5.902   0.835   2.830
 2124TIP3   OH2 6307   5.505   0.036   2.632
 2124TIP3    H1 6308   5.453   0.118   2.646
 2124TIP3    H2 6309   5.441  -0.016   2.582
 2125TIP3   OH2 6310   5.567   0.327   2.792
 2125TIP3    H1 6311   5.607   0.244   2.827
 2125TIP3    H2 6312   5.629   0.353   2.723
 2126TIP3   OH2 6313   6.426   1.287   2.445
 2126TIP3    H1 6314   6.472   1.216   2.395
 2126TIP3    H2 6315   6.418   1.247   2.532
 2127TIP3   OH2 6316   6.332   0.747   2.797
 2127TIP3    H1 6317   6.369   0.672   2.747
 2127TIP3    H2 6318   6.416   0.792   2.821
 2128TIP3   OH2 6319   6.747   0.248   2.837
 2128TIP3    H1 6320   6.770   0.159   2.868
 2128TIP3    H2 6321   6.714   0.232   2.747
 2129TIP3   OH2 6322   6.064  -0.129   2.769
 2129TIP3    H1 6323   6.040  -0.040   2.737
 2129TIP3    H2 6324   5.986  -0.180   2.743
 2130TIP3   OH2 6325   3.532   6.589   8.972
 2130TIP3    H1 6326   3.579   6.525   9.030
 2130TIP3    H2 6327   3.533   6.545   8.886
 2131TIP3   OH2 6328   5.692   0.109   2.891
 2131TIP3    H1 6329   5.784   0.112   2.929
 2131TIP3    H2 6330   5.710   0.049   2.817
 2132TIP3   OH2 6331   6.158   0.313   2.694
 2132TIP3    H1 6332   6.251   0.285   2.711
 2132TIP3    H2 6333   6.116   0.227   2.672
 2133TIP3   OH2 6334   7.383   0.257   2.984
 2133TIP3    H1 6335   7.310   0.315   2.956
 2133TIP3    H2 6336   7.443   0.317   3.030
 2134TIP3   OH2 6337   6.424   0.740   2.239
 2134TIP3    H1 6338   6.387   0.726   2.150
 2134TIP3    H2 6339   6.383   0.825   2.263
 2135TIP3   OH2 6340   6.188   0.667   3.025
 2135TIP3    H1 6341   6.124   0.732   3.062
 2135TIP3    H2 6342   6.226   0.717   2.950
 2136TIP3   OH2 6343   5.949   0.078   2.959
 2136TIP3    H1 6344   6.018   0.116   3.016
 2136TIP3    H2 6345   5.976  -0.015   2.959
 2137TIP3   OH2 6346   6.015   0.860   3.122
 2137TIP3    H1 6347   5.988   0.945   3.081
 2137TIP3    H2 6348   5.935   0.844   3.177
 2138TIP3   OH2 6349   5.410   0.551   2.357
 2138TIP3    H1 6350   5.367   0.576   2.273
 2138TIP3    H2 6351   5.437   0.638   2.392
 2139TIP3   OH2 6352   6.850   1.066   2.597
 2139TIP3    H1 6353   6.760   1.058   2.636
 2139TIP3    H2 6354   6.841   1.152   2.550
 2140TIP3   OH2 6355   6.551   1.113   2.273
 2140TIP3    H1 6356   6.599   1.031   2.250
 2140TIP3    H2 6357   6.612   1.179   2.231
 2141TIP3   OH2 6358   6.691   0.898   2.179
 2141TIP3    H1 6359   6.662   0.817   2.135
 2141TIP3    H2 6360   6.728   0.863   2.263
 2142TIP3   OH2 6361   7.076   0.979   2.941
 2142TIP3    H1 6362   7.062   0.902   2.882
 2142TIP3    H2 6363   7.056   1.054   2.881
 2143TIP3   OH2 6364   6.363   0.375   2.197
 2143TIP3    H1 6365   6.286   0.431   2.174
 2143TIP3    H2 6366   6.407   0.362   2.111
 2144TIP3   OH2 6367   7.264   0.610   2.780
 2144TIP3    H1 6368   7.183   0.666   2.787
 2144TIP3    H2 6369   7.299   0.639   2.694
 2145TIP3   OH2 6370   6.706   0.453   2.179
 2145TIP3    H1 6371   6.659   0.480   2.261
 2145TIP3    H2 6372   6.796   0.433   2.212
 2146TIP3   OH2 6373   6.945   0.497   3.082
 2146TIP3    H1 6374   6.941   0.581   3.131
 2146TIP3    H2 6375   6.858   0.498   3.037
 2147TIP3   OH2 6376   5.944   0.452   2.584
 2147TIP3    H1 6377   5.907   0.394   2.515
 2147TIP3    H2 6378   6.022   0.401   2.615
 2148TIP3   OH2 6379   6.074   0.863   2.736
 2148TIP3    H1 6380   6.052   0.826   2.649
 2148TIP3    H2 6381   6.164   0.829   2.752
 2149TIP3   OH2 6382   6.087   0.421   2.946
 2149TIP3    H1 6383   6.114   0.400   2.854
 2149TIP3    H2 6384   6.127   0.509   2.961
 2150TIP3   OH2 6385   6.609   1.062   2.718
 2150TIP3    H1 6386   6.593   1.143   2.770
 2150TIP3    H2 6387   6.592   0.990   2.781
 2151TIP3   OH2 6388   6.219   0.981   3.265
 2151TIP3    H1 6389   6.158   1.044   3.310
 2151TIP3    H2 6390   6.154   0.928   3.214
 2152TIP3   OH2 6391   6.568   0.289   2.009
 2152TIP3    H1 6392   6.626   0.347   2.065
 2152TIP3    H2 6393   6.591   0.322   1.921
 2153TIP3   OH2 6394   5.967   0.544   3.362
 2153TIP3    H1 6395   5.971   0.629   3.411
 2153TIP3    H2 6396   5.873   0.522   3.373
 2154TIP3   OH2 6397   6.297   0.993   2.274
 2154TIP3    H1 6398   6.375   1.049   2.287
 2154TIP3    H2 6399   6.235   1.052   2.228
 2155TIP3   OH2 6400   6.014   1.152   3.352
 2155TIP3    H1 6401   5.980   1.150   3.260
 2155TIP3    H2 6402   5.934   1.128   3.403
 2156TIP3   OH2 6403   5.816   0.292   2.378
 2156TIP3    H1 6404   5.748   0.343   2.329
 2156TIP3    H2 6405   5.763   0.218   2.411
 2157TIP3   OH2 6406   6.800   0.944   1.642
 2157TIP3    H1 6407   6.831   1.033   1.617
 2157TIP3    H2 6408   6.878   0.891   1.619
 2158TIP3   OH2 6409   5.593   0.680   3.297
 2158TIP3    H1 6410   5.526   0.661   3.229
 2158TIP3    H2 6411   5.629   0.591   3.317
 2159TIP3   OH2 6412   5.446   0.870   2.938
 2159TIP3    H1 6413   5.541   0.871   2.920
 2159TIP3    H2 6414   5.432   0.955   2.983
 2160TIP3   OH2 6415   7.316   1.327   2.989
 2160TIP3    H1 6416   7.313   1.230   2.999
 2160TIP3    H2 6417   7.231   1.351   3.032
 2161TIP3   OH2 6418   6.418   1.109   3.123
 2161TIP3    H1 6419   6.416   1.202   3.154
 2161TIP3    H2 6420   6.345   1.070   3.176
 2162TIP3   OH2 6421   6.179   1.239   2.074
 2162TIP3    H1 6422   6.134   1.219   1.990
 2162TIP3    H2 6423   6.145   1.328   2.096
 2163TIP3   OH2 6424   5.616   1.089   2.456
 2163TIP3    H1 6425   5.661   1.078   2.542
 2163TIP3    H2 6426   5.554   1.014   2.459
 2164TIP3   OH2 6427   6.378   1.147   1.716
 2164TIP3    H1 6428   6.433   1.074   1.684
 2164TIP3    H2 6429   6.409   1.156   1.809
 2165TIP3   OH2 6430   6.430   1.188   1.985
 2165TIP3    H1 6431   6.341   1.198   2.025
 2165TIP3    H2 6432   6.479   1.148   2.058
 2166TIP3   OH2 6433   7.199   0.443   3.262
 2166TIP3    H1 6434   7.122   0.476   3.214
 2166TIP3    H2 6435   7.186   0.347   3.251
 2167TIP3   OH2 6436   5.797   0.864   3.288
 2167TIP3    H1 6437   5.847   0.844   3.370
 2167TIP3    H2 6438   5.723   0.800   3.293
 2168TIP3   OH2 6439   6.986   0.240   3.201
 2168TIP3    H1 6440   6.943   0.258   3.285
 2168TIP3    H2 6441   6.958   0.315   3.146
 2169TIP3   OH2 6442   6.147   0.207   3.106
 2169TIP3    H1 6443   6.084   0.225   3.179
 2169TIP3    H2 6444   6.131   0.283   3.047
 2170TIP3   OH2 6445   6.013   0.093   2.612
 2170TIP3    H1 6446   5.919   0.070   2.625
 2170TIP3    H2 6447   6.028   0.062   2.520
 2171TIP3   OH2 6448   6.502   0.180   2.320
 2171TIP3    H1 6449   6.440   0.250   2.291
 2171TIP3    H2 6450   6.569   0.187   2.250
 2172TIP3   OH2 6451   6.687   0.483   3.410
 2172TIP3    H1 6452   6.663   0.400   3.458
 2172TIP3    H2 6453   6.782   0.487   3.430
 2173TIP3   OH2 6454   6.655   0.214   2.581
 2173TIP3    H1 6455   6.595   0.248   2.512
 2173TIP3    H2 6456   6.704   0.146   2.528
 2174TIP3   OH2 6457   5.948   0.236   3.297
 2174TIP3    H1 6458   5.961   0.297   3.371
 2174TIP3    H2 6459   5.925   0.153   3.342
 2175TIP3   OH2 6460   5.573  -0.163   2.430
 2175TIP3    H1 6461   5.586  -0.155   2.334
 2175TIP3    H2 6462   5.479  -0.137   2.437
 2176TIP3   OH2 6463   6.671   0.453   2.993
 2176TIP3    H1 6464   6.705   0.382   2.935
 2176TIP3    H2 6465   6.645   0.400   3.071
 2177TIP3   OH2 6466   5.764  -0.035   2.657
 2177TIP3    H1 6467   5.671  -0.004   2.641
 2177TIP3    H2 6468   5.759  -0.122   2.618
 2178TIP3   OH2 6469   6.052  -0.014   2.362
 2178TIP3    H1 6470   6.134  -0.049   2.321
 2178TIP3    H2 6471   5.992  -0.023   2.287
 2179TIP3   OH2 6472   5.860  -0.043   2.132
 2179TIP3    H1 6473   5.762  -0.045   2.129
 2179TIP3    H2 6474   5.881   0.027   2.070
 2180TIP3   OH2 6475   7.001   1.674   3.084
 2180TIP3    H1 6476   6.997   1.697   2.989
 2180TIP3    H2 6477   7.079   1.726   3.113
 2181TIP3   OH2 6478   5.958   0.785   3.508
 2181TIP3    H1 6479   6.038   0.816   3.555
 2181TIP3    H2 6480   5.893   0.784   3.581
 2182TIP3   OH2 6481   6.416   0.233   2.760
 2182TIP3    H1 6482   6.500   0.203   2.724
 2182TIP3    H2 6483   6.422   0.203   2.854
 2183TIP3   OH2 6484   6.420   0.166   3.025
 2183TIP3    H1 6485   6.329   0.158   3.060
 2183TIP3    H2 6486   6.467   0.209   3.099
 2184TIP3   OH2 6487   6.136   0.523   2.149
 2184TIP3    H1 6488   6.058   0.466   2.137
 2184TIP3    H2 6489   6.119   0.560   2.239
 2185TIP3   OH2 6490   7.035   0.762   2.777
 2185TIP3    H1 6491   7.059   0.811   2.696
 2185TIP3    H2 6492   6.950   0.720   2.752
 2186TIP3   OH2 6493   6.540   0.847   3.142
 2186TIP3    H1 6494   6.553   0.821   3.234
 2186TIP3    H2 6495   6.498   0.934   3.150
 2187TIP3   OH2 6496   5.831   0.549   2.823
 2187TIP3    H1 6497   5.867   0.520   2.737
 2187TIP3    H2 6498   5.867   0.482   2.884
 2188TIP3   OH2 6499   6.287   0.682   1.987
 2188TIP3    H1 6500   6.239   0.768   1.988
 2188TIP3    H2 6501   6.229   0.628   2.045
 2189TIP3   OH2 6502   5.709   0.466   3.436
 2189TIP3    H1 6503   5.724   0.451   3.531
 2189TIP3    H2 6504   5.636   0.404   3.416
 2190TIP3   OH2 6505   6.432   0.584   3.459
 2190TIP3    H1 6506   6.371   0.531   3.405
 2190TIP3    H2 6507   6.520   0.554   3.425
 2191TIP3   OH2 6508   6.698   1.103   3.040
 2191TIP3    H1 6509   6.601   1.100   3.051
 2191TIP3    H2 6510   6.723   1.157   3.118
 2192TIP3   OH2 6511   7.327   1.035   3.027
 2192TIP3    H1 6512   7.229   1.028   3.016
 2192TIP3    H2 6513   7.356   1.007   2.938
 2193TIP3   OH2 6514   6.797   1.004   1.907
 2193TIP3    H1 6515   6.784   0.937   1.976
 2193TIP3    H2 6516   6.792   0.954   1.824
 2194TIP3   OH2 6517   6.802   0.625   2.697
 2194TIP3    H1 6518   6.709   0.599   2.710
 2194TIP3    H2 6519   6.836   0.546   2.651
 2195TIP3   OH2 6520   5.929   0.852   2.448
 2195TIP3    H1 6521   5.929   0.933   2.394
 2195TIP3    H2 6522   5.835   0.835   2.456
 2196TIP3   OH2 6523   5.495   0.160   2.164
 2196TIP3    H1 6524   5.535   0.249   2.179
 2196TIP3    H2 6525   5.414   0.167   2.219
 2197TIP3   OH2 6526   6.067   0.617   2.391
 2197TIP3    H1 6527   6.033   0.708   2.408
 2197TIP3    H2 6528   6.030   0.569   2.468
 2198TIP3   OH2 6529   6.198   1.196   2.917
 2198TIP3    H1 6530   6.238   1.269   2.864
 2198TIP3    H2 6531   6.276   1.161   2.963
 2199TIP3   OH2 6532   5.851   1.089   2.301
 2199TIP3    H1 6533   5.764   1.098   2.345
 2199TIP3    H2 6534   5.882   1.182   2.302
 2200TIP3   OH2 6535   6.587   0.829   2.874
 2200TIP3    H1 6536   6.578   0.828   2.972
 2200TIP3    H2 6537   6.666   0.775   2.861
 2201TIP3   OH2 6538   6.537   0.711   1.795
 2201TIP3    H1 6539   6.578   0.717   1.884
 2201TIP3    H2 6540   6.443   0.714   1.816
 2202TIP3   OH2 6541   6.836   1.365   2.925
 2202TIP3    H1 6542   6.756   1.309   2.916
 2202TIP3    H2 6543   6.821   1.429   2.852
 2203TIP3   OH2 6544   6.892   1.192   1.576
 2203TIP3    H1 6545   6.930   1.259   1.517
 2203TIP3    H2 6546   6.817   1.245   1.610
 2204TIP3   OH2 6547   6.700   0.673   2.011
 2204TIP3    H1 6548   6.696   0.595   2.070
 2204TIP3    H2 6549   6.797   0.684   2.003
 2205TIP3   OH2 6550   5.639   1.060   3.075
 2205TIP3    H1 6551   5.687   0.981   3.104
 2205TIP3    H2 6552   5.670   1.126   3.138
 2206TIP3   OH2 6553   5.935   0.711   1.759
 2206TIP3    H1 6554   5.935   0.628   1.709
 2206TIP3    H2 6555   5.908   0.681   1.848
 2207TIP3   OH2 6556   5.875   0.705   2.033
 2207TIP3    H1 6557   5.944   0.689   2.099
 2207TIP3    H2 6558   5.874   0.803   2.031
 2208TIP3   OH2 6559   5.611   0.406   2.235
 2208TIP3    H1 6560   5.543   0.451   2.290
 2208TIP3    H2 6561   5.621   0.474   2.164
 2209TIP3   OH2 6562   6.141   0.907   1.984
 2209TIP3    H1 6563   6.053   0.934   2.016
 2209TIP3    H2 6564   6.150   0.963   1.906
 2210TIP3   OH2 6565   6.388  -0.038   2.436
 2210TIP3    H1 6566   6.419   0.040   2.385
 2210TIP3    H2 6567   6.337   0.004   2.506
 2211TIP3   OH2 6568   6.611   0.292   3.204
 2211TIP3    H1 6569   6.602   0.352   3.280
 2211TIP3    H2 6570   6.658   0.218   3.245
 2212TIP3   OH2 6571   5.883   0.978   2.045
 2212TIP3    H1 6572   5.852   1.047   1.981
 2212TIP3    H2 6573   5.866   1.023   2.131
 2213TIP3   OH2 6574   6.888   0.385   2.573
 2213TIP3    H1 6575   6.811   0.326   2.588
 2213TIP3    H2 6576   6.960   0.337   2.620
 2214TIP3   OH2 6577   5.596   0.613   2.043
 2214TIP3    H1 6578   5.658   0.688   2.046
 2214TIP3    H2 6579   5.640   0.558   1.974
 2215TIP3   OH2 6580   5.583  -0.095   2.158
 2215TIP3    H1 6581   5.544  -0.004   2.160
 2215TIP3    H2 6582   5.508  -0.147   2.125
 2216TIP3   OH2 6583   6.855   1.337   2.519
 2216TIP3    H1 6584   6.812   1.384   2.444
 2216TIP3    H2 6585   6.949   1.358   2.498
 2217TIP3   OH2 6586   5.469   0.823   2.426
 2217TIP3    H1 6587   5.398   0.855   2.483
 2217TIP3    H2 6588   5.443   0.863   2.340
 2218TIP3   OH2 6589   5.626   1.365   3.499
 2218TIP3    H1 6590   5.713   1.361   3.543
 2218TIP3    H2 6591   5.603   1.270   3.495
 2219TIP3   OH2 6592   6.111   1.330   3.544
 2219TIP3    H1 6593   6.206   1.309   3.545
 2219TIP3    H2 6594   6.081   1.273   3.470
 2220TIP3   OH2 6595   6.090   0.919   1.688
 2220TIP3    H1 6596   6.036   0.841   1.716
 2220TIP3    H2 6597   6.157   0.875   1.630
 2221TIP3   OH2 6598   6.746   1.240   3.277
 2221TIP3    H1 6599   6.738   1.169   3.345
 2221TIP3    H2 6600   6.825   1.289   3.307
 2222TIP3   OH2 6601   6.534   0.961   1.586
 2222TIP3    H1 6602   6.609   0.930   1.642
 2222TIP3    H2 6603   6.583   1.021   1.527
 2223TIP3   OH2 6604   5.758   0.773   3.699
 2223TIP3    H1 6605   5.774   0.677   3.702
 2223TIP3    H2 6606   5.671   0.777   3.654
 2224TIP3   OH2 6607   5.729   0.424   1.901
 2224TIP3    H1 6608   5.793   0.404   1.971
 2224TIP3    H2 6609   5.790   0.429   1.824
 2225TIP3   OH2 6610   6.365   0.858   3.472
 2225TIP3    H1 6611   6.322   0.874   3.385
 2225TIP3    H2 6612   6.393   0.764   3.464
 2226TIP3   OH2 6613   6.259   0.630   1.712
 2226TIP3    H1 6614   6.241   0.638   1.807
 2226TIP3    H2 6615   6.193   0.567   1.680
 2227TIP3   OH2 6616   6.859   0.865   3.079
 2227TIP3    H1 6617   6.932   0.912   3.034
 2227TIP3    H2 6618   6.786   0.928   3.065
 2228TIP3   OH2 6619   5.879   0.508   3.681
 2228TIP3    H1 6620   5.957   0.455   3.660
 2228TIP3    H2 6621   5.902   0.541   3.770
 2229TIP3   OH2 6622   5.938   0.326   2.118
 2229TIP3    H1 6623   5.915   0.302   2.210
 2229TIP3    H2 6624   5.993   0.253   2.089
 2230TIP3   OH2 6625   6.212   0.422   3.341
 2230TIP3    H1 6626   6.126   0.471   3.336
 2230TIP3    H2 6627   6.255   0.446   3.256
 2231TIP3   OH2 6628   6.734   0.798   3.479
 2231TIP3    H1 6629   6.804   0.766   3.420
 2231TIP3    H2 6630   6.721   0.722   3.538
 2232TIP3   OH2 6631   6.299   0.202   3.464
 2232TIP3    H1 6632   6.248   0.141   3.406
 2232TIP3    H2 6633   6.274   0.288   3.422
 2233TIP3   OH2 6634   6.378   0.510   3.144
 2233TIP3    H1 6635   6.455   0.513   3.086
 2233TIP3    H2 6636   6.317   0.574   3.100
 2234TIP3   OH2 6637   6.940   0.475   3.507
 2234TIP3    H1 6638   6.974   0.416   3.578
 2234TIP3    H2 6639   7.018   0.525   3.482
 2235TIP3   OH2 6640   6.991   0.724   3.266
 2235TIP3    H1 6641   6.931   0.776   3.207
 2235TIP3    H2 6642   7.077   0.746   3.225
 2236TIP3   OH2 6643   6.187   0.322   3.695
 2236TIP3    H1 6644   6.136   0.245   3.720
 2236TIP3    H2 6645   6.244   0.286   3.625
 2237TIP3   OH2 6646   6.581   0.254   3.497
 2237TIP3    H1 6647   6.605   0.228   3.589
 2237TIP3    H2 6648   6.485   0.238   3.499
 2238TIP3   OH2 6649   5.850   1.182   1.860
 2238TIP3    H1 6650   5.946   1.182   1.840
 2238TIP3    H2 6651   5.818   1.230   1.781
 2239TIP3   OH2 6652   5.330   0.565   2.082
 2239TIP3    H1 6653   5.424   0.588   2.064
 2239TIP3    H2 6654   5.322   0.478   2.037
 2240TIP3   OH2 6655   5.248   1.184   2.490
 2240TIP3    H1 6656   5.182   1.124   2.449
 2240TIP3    H2 6657   5.290   1.123   2.554
 2241TIP3   OH2 6658   5.386   1.029   2.672
 2241TIP3    H1 6659   5.362   0.957   2.731
 2241TIP3    H2 6660   5.435   1.088   2.732
 2242TIP3   OH2 6661   7.107   1.430   2.476
 2242TIP3    H1 6662   7.140   1.470   2.558
 2242TIP3    H2 6663   7.171   1.462   2.410
 2243TIP3   OH2 6664   7.136   1.452   2.761
 2243TIP3    H1 6665   7.093   1.364   2.751
 2243TIP3    H2 6666   7.217   1.426   2.805
 2244TIP3   OH2 6667   7.186   1.124   3.332
 2244TIP3    H1 6668   7.111   1.134   3.394
 2244TIP3    H2 6669   7.224   1.214   3.334
 2245TIP3   OH2 6670   6.966   0.684   1.988
 2245TIP3    H1 6671   7.031   0.753   1.961
 2245TIP3    H2 6672   7.026   0.627   2.041
 2246TIP3   OH2 6673   7.120   0.521   2.151
 2246TIP3    H1 6674   7.057   0.463   2.199
 2246TIP3    H2 6675   7.184   0.543   2.220
 2247TIP3   OH2 6676   7.184   0.897   2.588
 2247TIP3    H1 6677   7.226   0.839   2.523
 2247TIP3    H2 6678   7.173   0.979   2.535
 2248TIP3   OH2 6679   7.014   1.198   2.782
 2248TIP3    H1 6680   6.942   1.243   2.831
 2248TIP3    H2 6681   6.964   1.152   2.711
 2249TIP3   OH2 6682   6.946   0.367   2.305
 2249TIP3    H1 6683   6.956   0.272   2.306
 2249TIP3    H2 6684   6.926   0.386   2.400
 2250TIP3   OH2 6685   5.568   0.434   3.048
 2250TIP3    H1 6686   5.566   0.407   2.954
 2250TIP3    H2 6687   5.666   0.437   3.064
 2251TIP3   OH2 6688   7.233   0.788   3.156
 2251TIP3    H1 6689   7.306   0.724   3.148
 2251TIP3    H2 6690   7.258   0.857   3.091
 2252TIP3   OH2 6691   7.413   0.591   3.185
 2252TIP3    H1 6692   7.338   0.536   3.217
 2252TIP3    H2 6693   7.486   0.527   3.196
 2253TIP3   OH2 6694   7.102   0.261   2.695
 2253TIP3    H1 6695   7.185   0.289   2.652
 2253TIP3    H2 6696   7.116   0.295   2.785
 2254TIP3   OH2 6697   7.162   0.404   2.926
 2254TIP3    H1 6698   7.083   0.439   2.972
 2254TIP3    H2 6699   7.193   0.483   2.877
 2255TIP3   OH2 6700   5.784   0.121   3.727
 2255TIP3    H1 6701   5.873   0.093   3.704
 2255TIP3    H2 6702   5.747   0.039   3.764
 2256TIP3   OH2 6703   5.548   0.090   3.125
 2256TIP3    H1 6704   5.593   0.090   3.038
 2256TIP3    H2 6705   5.575   0.175   3.162
 2257TIP3   OH2 6706   6.695   1.296   2.135
 2257TIP3    H1 6707   6.743   1.282   2.050
 2257TIP3    H2 6708   6.749   1.365   2.176
 2258TIP3   OH2 6709   5.794   1.100   3.519
 2258TIP3    H1 6710   5.703   1.073   3.498
 2258TIP3    H2 6711   5.800   1.079   3.613
 2259TIP3   OH2 6712   5.973   1.133   3.067
 2259TIP3    H1 6713   5.922   1.206   3.026
 2259TIP3    H2 6714   6.058   1.147   3.021
 2260TIP3   OH2 6715   6.418   1.376   3.205
 2260TIP3    H1 6716   6.460   1.379   3.293
 2260TIP3    H2 6717   6.482   1.426   3.151
 2261TIP3   OH2 6718   6.595   1.527   3.063
 2261TIP3    H1 6719   6.665   1.478   3.017
 2261TIP3    H2 6720   6.648   1.585   3.122
 2262TIP3   OH2 6721   5.650   1.391   3.088
 2262TIP3    H1 6722   5.561   1.424   3.061
 2262TIP3    H2 6723   5.651   1.422   3.179
 2263TIP3   OH2 6724   5.886   1.368   2.946
 2263TIP3    H1 6725   5.799   1.381   2.991
 2263TIP3    H2 6726   5.866   1.400   2.856
 2264TIP3   OH2 6727   6.310   1.396   2.745
 2264TIP3    H1 6728   6.242   1.414   2.678
 2264TIP3    H2 6729   6.322   1.485   2.784
 2265TIP3   OH2 6730   6.579   1.336   2.798
 2265TIP3    H1 6731   6.485   1.353   2.777
 2265TIP3    H2 6732   6.622   1.410   2.751
 2266TIP3   OH2 6733   6.788   1.528   2.710
 2266TIP3    H1 6734   6.772   1.613   2.663
 2266TIP3    H2 6735   6.813   1.469   2.637
 2267TIP3   OH2 6736   5.560   1.184   2.834
 2267TIP3    H1 6737   5.587   1.158   2.925
 2267TIP3    H2 6738   5.632   1.140   2.783
 2268TIP3   OH2 6739   5.753   1.054   2.691
 2268TIP3    H1 6740   5.769   0.970   2.741
 2268TIP3    H2 6741   5.843   1.091   2.684
 2269TIP3   OH2 6742   6.019   1.150   2.693
 2269TIP3    H1 6743   6.051   1.059   2.678
 2269TIP3    H2 6744   6.063   1.170   2.777
 2270TIP3   OH2 6745   5.351   0.952   2.223
 2270TIP3    H1 6746   5.264   0.918   2.194
 2270TIP3    H2 6747   5.335   1.047   2.209
 2271TIP3   OH2 6748   6.119   1.155   1.810
 2271TIP3    H1 6749   6.206   1.175   1.771
 2271TIP3    H2 6750   6.095   1.076   1.755
 2272TIP3   OH2 6751   6.839   1.269   1.901
 2272TIP3    H1 6752   6.827   1.171   1.900
 2272TIP3    H2 6753   6.792   1.296   1.820
 2273TIP3   OH2 6754   5.424   0.983   1.862
 2273TIP3    H1 6755   5.420   1.005   1.956
 2273TIP3    H2 6756   5.512   0.940   1.854
 2274TIP3   OH2 6757   7.065   1.405   3.088
 2274TIP3    H1 6758   6.988   1.373   3.037
 2274TIP3    H2 6759   7.045   1.501   3.090
 2275TIP3   OH2 6760   7.589   1.055   2.374
 2275TIP3    H1 6761   7.553   0.998   2.305
 2275TIP3    H2 6762   7.680   1.068   2.340
 2276TIP3   OH2 6763   7.384   0.574   2.282
 2276TIP3    H1 6764   7.435   0.492   2.282
 2276TIP3    H2 6765   7.393   0.603   2.190
 2277TIP3   OH2 6766   7.175   0.841   1.924
 2277TIP3    H1 6767   7.219   0.805   1.845
 2277TIP3    H2 6768   7.218   0.928   1.935
 2278TIP3   OH2 6769   7.776   1.430   2.806
 2278TIP3    H1 6770   7.740   1.436   2.717
 2278TIP3    H2 6771   7.697   1.430   2.862
 2279TIP3   OH2 6772   7.394   0.943   2.780
 2279TIP3    H1 6773   7.323   0.917   2.718
 2279TIP3    H2 6774   7.427   0.857   2.816
 2280TIP3   OH2 6775   7.246   1.127   2.425
 2280TIP3    H1 6776   7.342   1.133   2.414
 2280TIP3    H2 6777   7.228   1.210   2.472
 2281TIP3   OH2 6778   7.387   1.347   1.940
 2281TIP3    H1 6779   7.466   1.359   1.994
 2281TIP3    H2 6780   7.357   1.259   1.967
 2282TIP3   OH2 6781   7.603   1.122   2.765
 2282TIP3    H1 6782   7.653   1.090   2.843
 2282TIP3    H2 6783   7.525   1.063   2.767
 2283TIP3   OH2 6784   7.743   1.027   2.981
 2283TIP3    H1 6785   7.818   1.086   3.002
 2283TIP3    H2 6786   7.694   1.026   3.064
 2284TIP3   OH2 6787   7.486   0.732   2.926
 2284TIP3    H1 6788   7.530   0.722   3.012
 2284TIP3    H2 6789   7.429   0.654   2.920
 2285TIP3   OH2 6790   7.428   1.314   2.567
 2285TIP3    H1 6791   7.488   1.243   2.597
 2285TIP3    H2 6792   7.466   1.392   2.609
 2286TIP3   OH2 6793   7.267   1.096   1.922
 2286TIP3    H1 6794   7.187   1.129   1.966
 2286TIP3    H2 6795   7.255   1.135   1.833
 2287TIP3   OH2 6796   7.421   1.619   2.987
 2287TIP3    H1 6797   7.509   1.611   3.028
 2287TIP3    H2 6798   7.393   1.526   2.982
 2288TIP3   OH2 6799   7.551   1.027   3.190
 2288TIP3    H1 6800   7.570   0.932   3.186
 2288TIP3    H2 6801   7.467   1.032   3.140
 2289TIP3   OH2 6802   7.664   0.765   3.167
 2289TIP3    H1 6803   7.735   0.702   3.148
 2289TIP3    H2 6804   7.692   0.798   3.255
 2290TIP3   OH2 6805   7.043   1.438   1.975
 2290TIP3    H1 6806   6.975   1.376   1.939
 2290TIP3    H2 6807   7.089   1.380   2.039
 2291TIP3   OH2 6808   7.172   1.286   2.163
 2291TIP3    H1 6809   7.167   1.212   2.225
 2291TIP3    H2 6810   7.229   1.347   2.212
 2292TIP3   OH2 6811   7.379   0.680   2.536
 2292TIP3    H1 6812   7.368   0.648   2.444
 2292TIP3    H2 6813   7.467   0.720   2.532
 2293TIP3   OH2 6814   7.578   0.376   3.210
 2293TIP3    H1 6815   7.673   0.360   3.209
 2293TIP3    H2 6816   7.545   0.293   3.249
 2294TIP3   OH2 6817   7.347   0.346   2.599
 2294TIP3    H1 6818   7.418   0.330   2.537
 2294TIP3    H2 6819   7.368   0.434   2.634
 2295TIP3   OH2 6820   7.595   1.353   3.010
 2295TIP3    H1 6821   7.506   1.324   2.981
 2295TIP3    H2 6822   7.591   1.332   3.104
 2296TIP3   OH2 6823   7.434   1.632   2.584
 2296TIP3    H1 6824   7.352   1.674   2.550
 2296TIP3    H2 6825   7.447   1.685   2.664
 2297TIP3   OH2 6826   7.690   1.618   2.450
 2297TIP3    H1 6827   7.598   1.628   2.481
 2297TIP3    H2 6828   7.682   1.653   2.358
 2298TIP3   OH2 6829   7.346   1.442   2.324
 2298TIP3    H1 6830   7.379   1.423   2.414
 2298TIP3    H2 6831   7.419   1.401   2.271
 2299TIP3   OH2 6832   7.535   1.308   2.184
 2299TIP3    H1 6833   7.548   1.215   2.205
 2299TIP3    H2 6834   7.624   1.333   2.152
 2300TIP3   OH2 6835   7.146   1.207   1.703
 2300TIP3    H1 6836   7.057   1.179   1.674
 2300TIP3    H2 6837   7.135   1.303   1.698
 2301TIP3   OH2 6838   7.200   1.267   1.372
 2301TIP3    H1 6839   7.193   1.299   1.463
 2301TIP3    H2 6840   7.271   1.201   1.376
 2302TIP3   OH2 6841   0.783   1.570   3.544
 2302TIP3    H1 6842   0.766   1.662   3.515
 2302TIP3    H2 6843   0.692   1.545   3.564
 2303TIP3   OH2 6844   0.790   1.558   3.919
 2303TIP3    H1 6845   0.815   1.543   4.012
 2303TIP3    H2 6846   0.742   1.476   3.899
 2304TIP3   OH2 6847   0.089   1.463   4.292
 2304TIP3    H1 6848   0.128   1.398   4.354
 2304TIP3    H2 6849   0.161   1.527   4.285
 2305TIP3   OH2 6850   1.032   1.856   3.611
 2305TIP3    H1 6851   1.009   1.804   3.689
 2305TIP3    H2 6852   1.057   1.941   3.650
 2306TIP3   OH2 6853   0.054   1.867   4.017
 2306TIP3    H1 6854   0.047   1.770   4.020
 2306TIP3    H2 6855   0.151   1.878   4.006
 2307TIP3   OH2 6856   0.671   2.332   3.621
 2307TIP3    H1 6857   0.718   2.262   3.571
 2307TIP3    H2 6858   0.669   2.295   3.709
 2308TIP3   OH2 6859   0.580   1.791   3.974
 2308TIP3    H1 6860   0.618   1.723   3.916
 2308TIP3    H2 6861   0.664   1.834   4.002
 2309TIP3   OH2 6862   1.583   1.117   3.961
 2309TIP3    H1 6863   1.610   1.195   4.013
 2309TIP3    H2 6864   1.616   1.142   3.873
 2310TIP3   OH2 6865   1.026   1.304   3.987
 2310TIP3    H1 6866   1.037   1.213   4.023
 2310TIP3    H2 6867   0.959   1.290   3.918
 2311TIP3   OH2 6868   1.029   1.053   3.609
 2311TIP3    H1 6869   1.100   0.998   3.643
 2311TIP3    H2 6870   1.052   1.057   3.514
 2312TIP3   OH2 6871   0.414   1.349   3.861
 2312TIP3    H1 6872   0.509   1.340   3.882
 2312TIP3    H2 6873   0.388   1.256   3.855
 2313TIP3   OH2 6874   1.663   1.311   4.144
 2313TIP3    H1 6875   1.582   1.364   4.124
 2313TIP3    H2 6876   1.690   1.352   4.227
 2314TIP3   OH2 6877   0.352   0.932   4.397
 2314TIP3    H1 6878   0.292   0.972   4.330
 2314TIP3    H2 6879   0.294   0.931   4.476
 2315TIP3   OH2 6880   0.661   1.780   3.419
 2315TIP3    H1 6881   0.650   1.785   3.323
 2315TIP3    H2 6882   0.628   1.868   3.445
 2316TIP3   OH2 6883   0.432   1.711   4.200
 2316TIP3    H1 6884   0.371   1.778   4.239
 2316TIP3    H2 6885   0.475   1.762   4.129
 2317TIP3   OH2 6886   1.260   1.078   3.786
 2317TIP3    H1 6887   1.216   1.008   3.838
 2317TIP3    H2 6888   1.353   1.053   3.789
 2318TIP3   OH2 6889   0.202   1.040   4.201
 2318TIP3    H1 6890   0.254   1.123   4.208
 2318TIP3    H2 6891   0.224   1.010   4.112
 2319TIP3   OH2 6892   0.260   1.905   4.297
 2319TIP3    H1 6893   0.237   1.991   4.257
 2319TIP3    H2 6894   0.181   1.893   4.355
 2320TIP3   OH2 6895   1.097   2.109   3.772
 2320TIP3    H1 6896   1.007   2.103   3.811
 2320TIP3    H2 6897   1.091   2.195   3.726
 2321TIP3   OH2 6898   1.388   1.009   4.136
 2321TIP3    H1 6899   1.301   1.043   4.110
 2321TIP3    H2 6900   1.447   1.045   4.067
 2322TIP3   OH2 6901   0.702   0.673   4.123
 2322TIP3    H1 6902   0.676   0.580   4.120
 2322TIP3    H2 6903   0.618   0.713   4.155
 2323TIP3   OH2 6904   0.801   2.156   3.455
 2323TIP3    H1 6905   0.842   2.072   3.426
 2323TIP3    H2 6906   0.865   2.219   3.413
 2324TIP3   OH2 6907   0.930   1.935   3.361
 2324TIP3    H1 6908   0.939   1.863   3.296
 2324TIP3    H2 6909   0.973   1.896   3.440
 2325TIP3   OH2 6910   1.322   2.023   4.118
 2325TIP3    H1 6911   1.313   1.948   4.056
 2325TIP3    H2 6912   1.303   2.100   4.059
 2326TIP3   OH2 6913   1.516   1.654   3.956
 2326TIP3    H1 6914   1.436   1.711   3.963
 2326TIP3    H2 6915   1.550   1.684   3.869
 2327TIP3   OH2 6916   0.972   1.509   3.356
 2327TIP3    H1 6917   0.906   1.542   3.421
 2327TIP3    H2 6918   0.997   1.425   3.393
 2328TIP3   OH2 6919   1.193   1.540   4.258
 2328TIP3    H1 6920   1.197   1.623   4.310
 2328TIP3    H2 6921   1.104   1.548   4.218
 2329TIP3   OH2 6922   0.185   1.488   3.764
 2329TIP3    H1 6923   0.167   1.450   3.676
 2329TIP3    H2 6924   0.271   1.448   3.786
 2330TIP3   OH2 6925   0.318   1.899   3.914
 2330TIP3    H1 6926   0.304   1.870   3.823
 2330TIP3    H2 6927   0.410   1.871   3.931
 2331TIP3   OH2 6928   0.331   1.472   4.112
 2331TIP3    H1 6929   0.366   1.461   4.022
 2331TIP3    H2 6930   0.372   1.557   4.140
 2332TIP3   OH2 6931   0.857   2.105   3.895
 2332TIP3    H1 6932   0.841   2.189   3.943
 2332TIP3    H2 6933   0.838   2.037   3.962
 2333TIP3   OH2 6934   0.469   2.024   4.440
 2333TIP3    H1 6935   0.410   2.088   4.487
 2333TIP3    H2 6936   0.402   1.972   4.391
 2334TIP3   OH2 6937   0.238   1.589   4.532
 2334TIP3    H1 6938   0.236   1.676   4.578
 2334TIP3    H2 6939   0.145   1.561   4.542
 2335TIP3   OH2 6940   0.543   2.041   3.451
 2335TIP3    H1 6941   0.627   2.091   3.461
 2335TIP3    H2 6942   0.486   2.108   3.412
 2336TIP3   OH2 6943   0.264   2.193   4.527
 2336TIP3    H1 6944   0.228   2.196   4.436
 2336TIP3    H2 6945   0.185   2.175   4.581
 2337TIP3   OH2 6946   1.117   1.980   2.760
 2337TIP3    H1 6947   1.122   2.078   2.753
 2337TIP3    H2 6948   1.212   1.956   2.757
 2338TIP3   OH2 6949  -0.138   1.715   4.471
 2338TIP3    H1 6950  -0.208   1.706   4.404
 2338TIP3    H2 6951  -0.127   1.623   4.500
 2339TIP3   OH2 6952  -0.297   1.932   4.095
 2339TIP3    H1 6953  -0.205   1.903   4.086
 2339TIP3    H2 6954  -0.288   1.999   4.164
 2340TIP3   OH2 6955   1.561   2.369   4.164
 2340TIP3    H1 6956   1.558   2.272   4.179
 2340TIP3    H2 6957   1.477   2.396   4.209
 2341TIP3   OH2 6958   0.667   2.154   4.297
 2341TIP3    H1 6959   0.666   2.247   4.330
 2341TIP3    H2 6960   0.595   2.115   4.353
 2342TIP3   OH2 6961   0.422   2.281   3.262
 2342TIP3    H1 6962   0.390   2.266   3.170
 2342TIP3    H2 6963   0.397   2.374   3.277
 2343TIP3   OH2 6964  -0.138   2.144   3.628
 2343TIP3    H1 6965  -0.101   2.117   3.715
 2343TIP3    H2 6966  -0.189   2.064   3.602
 2344TIP3   OH2 6967   0.627   2.179   2.894
 2344TIP3    H1 6968   0.691   2.114   2.857
 2344TIP3    H2 6969   0.664   2.192   2.984
 2345TIP3   OH2 6970   0.664   2.186   3.167
 2345TIP3    H1 6971   0.586   2.224   3.211
 2345TIP3    H2 6972   0.735   2.204   3.230
 2346TIP3   OH2 6973   1.449   1.496   4.444
 2346TIP3    H1 6974   1.375   1.517   4.385
 2346TIP3    H2 6975   1.464   1.401   4.424
 2347TIP3   OH2 6976   0.046   1.913   4.469
 2347TIP3    H1 6977   0.100   1.891   4.547
 2347TIP3    H2 6978  -0.024   1.844   4.473
 2348TIP3   OH2 6979   0.452   0.753   4.209
 2348TIP3    H1 6980   0.371   0.698   4.205
 2348TIP3    H2 6981   0.427   0.816   4.279
 2349TIP3   OH2 6982   1.012   0.851   4.431
 2349TIP3    H1 6983   1.074   0.819   4.499
 2349TIP3    H2 6984   0.924   0.834   4.473
 2350TIP3   OH2 6985   1.216   1.275   4.358
 2350TIP3    H1 6986   1.168   1.273   4.444
 2350TIP3    H2 6987   1.196   1.364   4.325
 2351TIP3   OH2 6988   0.378   1.247   4.257
 2351TIP3    H1 6989   0.333   1.268   4.341
 2351TIP3    H2 6990   0.362   1.330   4.207
 2352TIP3   OH2 6991   0.776   1.250   3.494
 2352TIP3    H1 6992   0.689   1.285   3.472
 2352TIP3    H2 6993   0.812   1.233   3.405
 2353TIP3   OH2 6994   0.922   1.493   4.588
 2353TIP3    H1 6995   0.901   1.424   4.655
 2353TIP3    H2 6996   1.009   1.522   4.618
 2354TIP3   OH2 6997   0.934   1.268   3.730
 2354TIP3    H1 6998   0.871   1.308   3.667
 2354TIP3    H2 6999   0.941   1.179   3.689
 2355TIP3   OH2 7000   0.204   1.285   4.467
 2355TIP3    H1 7001   0.232   1.346   4.537
 2355TIP3    H2 7002   0.170   1.210   4.517
 2356TIP3   OH2 7003   0.920   1.490   4.166
 2356TIP3    H1 7004   0.959   1.420   4.111
 2356TIP3    H2 7005   0.890   1.439   4.244
 2357TIP3   OH2 7006   0.584   0.992   3.865
 2357TIP3    H1 7007   0.515   0.928   3.885
 2357TIP3    H2 7008   0.664   0.948   3.899
 2358TIP3   OH2 7009   1.067   1.034   4.036
 2358TIP3    H1 7010   1.044   1.045   4.131
 2358TIP3    H2 7011   1.002   0.966   4.009
 2359TIP3   OH2 7012   1.250   2.719   4.262
 2359TIP3    H1 7013   1.248   2.744   4.167
 2359TIP3    H2 7014   1.329   2.768   4.293
 2360TIP3   OH2 7015   0.209   1.829   4.683
 2360TIP3    H1 7016   0.291   1.857   4.728
 2360TIP3    H2 7017   0.146   1.834   4.758
 2361TIP3   OH2 7018   0.679   1.289   3.945
 2361TIP3    H1 7019   0.709   1.213   3.893
 2361TIP3    H2 7020   0.670   1.248   4.033
 2362TIP3   OH2 7021   0.650   1.189   4.218
 2362TIP3    H1 7022   0.559   1.219   4.239
 2362TIP3    H2 7023   0.706   1.245   4.275
 2363TIP3   OH2 7024   1.285   1.806   3.949
 2363TIP3    H1 7025   1.316   1.859   3.872
 2363TIP3    H2 7026   1.194   1.782   3.923
 2364TIP3   OH2 7027   0.780   1.886   4.323
 2364TIP3    H1 7028   0.811   1.871   4.413
 2364TIP3    H2 7029   0.747   1.978   4.327
 2365TIP3   OH2 7030   0.069   1.584   4.003
 2365TIP3    H1 7031   0.102   1.557   3.915
 2365TIP3    H2 7032   0.122   1.529   4.062
 2366TIP3   OH2 7033   0.519   1.713   3.150
 2366TIP3    H1 7034   0.493   1.808   3.142
 2366TIP3    H2 7035   0.464   1.687   3.224
 2367TIP3   OH2 7036  -0.001   1.473   4.616
 2367TIP3    H1 7037   0.032   1.499   4.704
 2367TIP3    H2 7038  -0.098   1.475   4.632
 2368TIP3   OH2 7039   0.683   1.628   4.631
 2368TIP3    H1 7040   0.624   1.565   4.586
 2368TIP3    H2 7041   0.771   1.595   4.603
 2369TIP3   OH2 7042   0.944   2.138   4.221
 2369TIP3    H1 7043   0.848   2.147   4.231
 2369TIP3    H2 7044   0.975   2.195   4.295
 2370TIP3   OH2 7045   1.359   1.210   3.110
 2370TIP3    H1 7046   1.279   1.167   3.078
 2370TIP3    H2 7047   1.347   1.300   3.072
 2371TIP3   OH2 7048   1.572   2.075   4.208
 2371TIP3    H1 7049   1.474   2.072   4.198
 2371TIP3    H2 7050   1.598   2.048   4.117
 2372TIP3   OH2 7051   1.108   1.988   3.047
 2372TIP3    H1 7052   1.027   1.992   3.100
 2372TIP3    H2 7053   1.076   2.008   2.958
 2373TIP3   OH2 7054   1.038   1.678   3.875
 2373TIP3    H1 7055   0.942   1.659   3.878
 2373TIP3    H2 7056   1.074   1.592   3.895
 2374TIP3   OH2 7057   0.173   1.897   3.630
 2374TIP3    H1 7058   0.177   1.988   3.592
 2374TIP3    H2 7059   0.084   1.897   3.666
 2375TIP3   OH2 7060   0.342   1.665   3.609
 2375TIP3    H1 7061   0.307   1.754   3.590
 2375TIP3    H2 7062   0.272   1.627   3.663
 2376TIP3   OH2 7063   0.447   2.239   4.093
 2376TIP3    H1 7064   0.486   2.314   4.042
 2376TIP3    H2 7065   0.524   2.208   4.142
 2377TIP3   OH2 7066   0.115   2.136   3.514
 2377TIP3    H1 7067   0.021   2.151   3.533
 2377TIP3    H2 7068   0.143   2.226   3.489
 2378TIP3   OH2 7069   0.833   1.869   4.054
 2378TIP3    H1 7070   0.822   1.872   4.152
 2378TIP3    H2 7071   0.922   1.832   4.046
 2379TIP3   OH2 7072   0.827   1.781   2.948
 2379TIP3    H1 7073   0.868   1.763   3.036
 2379TIP3    H2 7074   0.735   1.757   2.964
 2380TIP3   OH2 7075   1.084   2.407   4.099
 2380TIP3    H1 7076   1.002   2.355   4.089
 2380TIP3    H2 7077   1.072   2.474   4.028
 2381TIP3   OH2 7078   1.141   2.252   2.768
 2381TIP3    H1 7079   1.163   2.326   2.709
 2381TIP3    H2 7080   1.080   2.298   2.830
 2382TIP3   OH2 7081   0.969   1.727   3.177
 2382TIP3    H1 7082   0.960   1.641   3.225
 2382TIP3    H2 7083   1.059   1.717   3.141
 2383TIP3   OH2 7084  -0.119   2.098   4.257
 2383TIP3    H1 7085  -0.055   2.033   4.289
 2383TIP3    H2 7086  -0.091   2.178   4.303
 2384TIP3   OH2 7087   1.009   1.088   4.297
 2384TIP3    H1 7088   1.088   1.130   4.336
 2384TIP3    H2 7089   1.002   1.005   4.349
 2385TIP3   OH2 7090   0.396   1.950   3.146
 2385TIP3    H1 7091   0.348   1.982   3.224
 2385TIP3    H2 7092   0.413   2.034   3.099
 2386TIP3   OH2 7093   0.845   1.332   4.375
 2386TIP3    H1 7094   0.864   1.388   4.453
 2386TIP3    H2 7095   0.899   1.253   4.392
 2387TIP3   OH2 7096   1.484   1.231   4.364
 2387TIP3    H1 7097   1.386   1.228   4.365
 2387TIP3    H2 7098   1.502   1.204   4.273
 2388TIP3   OH2 7099   1.106   2.378   3.695
 2388TIP3    H1 7100   1.060   2.428   3.623
 2388TIP3    H2 7101   1.199   2.398   3.672
 2389TIP3   OH2 7102  -0.101   2.424   4.652
 2389TIP3    H1 7103  -0.024   2.429   4.712
 2389TIP3    H2 7104  -0.137   2.337   4.675
 2390TIP3   OH2 7105   0.357   2.377   4.720
 2390TIP3    H1 7106   0.452   2.360   4.729
 2390TIP3    H2 7107   0.335   2.318   4.645
 2391TIP3   OH2 7108   1.000   2.281   4.449
 2391TIP3    H1 7109   0.988   2.212   4.518
 2391TIP3    H2 7110   1.076   2.332   4.483
 2392TIP3   OH2 7111   0.785   1.994   2.758
 2392TIP3    H1 7112   0.820   1.925   2.817
 2392TIP3    H2 7113   0.855   2.000   2.690
 2393TIP3   OH2 7114   0.004   1.810   4.872
 2393TIP3    H1 7115   0.033   1.717   4.870
 2393TIP3    H2 7116  -0.091   1.802   4.856
 2394TIP3   OH2 7117   0.613   1.902   4.649
 2394TIP3    H1 7118   0.575   1.921   4.561
 2394TIP3    H2 7119   0.646   1.810   4.640
 2395TIP3   OH2 7120   1.105   1.908   4.249
 2395TIP3    H1 7121   1.182   1.954   4.209
 2395TIP3    H2 7122   1.037   1.978   4.242
 2396TIP3   OH2 7123   0.112   1.553   4.857
 2396TIP3    H1 7124   0.180   1.484   4.849
 2396TIP3    H2 7125   0.130   1.577   4.950
 2397TIP3   OH2 7126   0.465   1.433   4.513
 2397TIP3    H1 7127   0.391   1.497   4.518
 2397TIP3    H2 7128   0.517   1.469   4.437
 2398TIP3   OH2 7129   0.972   1.832   4.647
 2398TIP3    H1 7130   1.062   1.824   4.615
 2398TIP3    H2 7131   0.973   1.775   4.726
 2399TIP3   OH2 7132   0.586   1.219   4.635
 2399TIP3    H1 7133   0.592   1.143   4.574
 2399TIP3    H2 7134   0.544   1.288   4.580
 2400TIP3   OH2 7135   0.604   1.019   4.447
 2400TIP3    H1 7136   0.624   1.056   4.359
 2400TIP3    H2 7137   0.514   0.982   4.432
 2401TIP3   OH2 7138   0.613   1.543   4.319
 2401TIP3    H1 7139   0.699   1.561   4.279
 2401TIP3    H2 7140   0.557   1.614   4.280
 2402TIP3   OH2 7141   1.217   1.506   4.728
 2402TIP3    H1 7142   1.255   1.428   4.686
 2402TIP3    H2 7143   1.265   1.578   4.685
 2403TIP3   OH2 7144   1.237   1.762   4.436
 2403TIP3    H1 7145   1.178   1.817   4.380
 2403TIP3    H2 7146   1.325   1.787   4.397
 2404TIP3   OH2 7147   0.490   1.334   4.867
 2404TIP3    H1 7148   0.398   1.314   4.892
 2404TIP3    H2 7149   0.502   1.290   4.780
 2405TIP3   OH2 7150   0.756   0.794   4.493
 2405TIP3    H1 7151   0.704   0.877   4.479
 2405TIP3    H2 7152   0.683   0.731   4.502
 2406TIP3   OH2 7153   0.844   1.278   4.735
 2406TIP3    H1 7154   0.828   1.267   4.831
 2406TIP3    H2 7155   0.755   1.253   4.703
 2407TIP3   OH2 7156   1.087   1.230   4.593
 2407TIP3    H1 7157   1.008   1.232   4.650
 2407TIP3    H2 7158   1.156   1.197   4.654
 2408TIP3   OH2 7159   1.315   1.171   4.756
 2408TIP3    H1 7160   1.327   1.074   4.764
 2408TIP3    H2 7161   1.309   1.199   4.849
 2409TIP3   OH2 7162   0.802   0.769   4.764
 2409TIP3    H1 7163   0.880   0.710   4.767
 2409TIP3    H2 7164   0.790   0.780   4.668
 2410TIP3   OH2 7165   0.882   1.001   4.914
 2410TIP3    H1 7166   0.845   0.927   4.862
 2410TIP3    H2 7167   0.803   1.060   4.923
 2411TIP3   OH2 7168  -0.397   2.092   3.864
 2411TIP3    H1 7169  -0.376   2.010   3.911
 2411TIP3    H2 7170  -0.335   2.153   3.908
 2412TIP3   OH2 7171   1.361   2.465   3.652
 2412TIP3    H1 7172   1.384   2.505   3.738
 2412TIP3    H2 7173   1.408   2.522   3.590
 2413TIP3   OH2 7174   1.386   2.495   3.934
 2413TIP3    H1 7175   1.344   2.406   3.928
 2413TIP3    H2 7176   1.461   2.474   3.991
 2414TIP3   OH2 7177   1.433   2.168   4.508
 2414TIP3    H1 7178   1.360   2.178   4.573
 2414TIP3    H2 7179   1.474   2.257   4.511
 2415TIP3   OH2 7180   1.257   1.673   3.119
 2415TIP3    H1 7181   1.310   1.751   3.094
 2415TIP3    H2 7182   1.299   1.646   3.203
 2416TIP3   OH2 7183   1.381   1.544   3.335
 2416TIP3    H1 7184   1.312   1.553   3.402
 2416TIP3    H2 7185   1.458   1.588   3.378
 2417TIP3   OH2 7186   1.429   1.941   3.762
 2417TIP3    H1 7187   1.484   1.882   3.708
 2417TIP3    H2 7188   1.424   2.021   3.705
 2418TIP3   OH2 7189   1.262   2.242   3.959
 2418TIP3    H1 7190   1.192   2.289   4.008
 2418TIP3    H2 7191   1.211   2.198   3.888
 2419TIP3   OH2 7192   1.300   1.447   2.974
 2419TIP3    H1 7193   1.217   1.457   2.925
 2419TIP3    H2 7194   1.290   1.527   3.032
 2420TIP3   OH2 7195  -0.175   1.467   4.236
 2420TIP3    H1 7196  -0.179   1.492   4.143
 2420TIP3    H2 7197  -0.079   1.476   4.253
 2421TIP3   OH2 7198   1.479   1.832   4.331
 2421TIP3    H1 7199   1.553   1.768   4.324
 2421TIP3    H2 7200   1.508   1.904   4.274
 2422TIP3   OH2 7201   1.663   1.636   4.351
 2422TIP3    H1 7202   1.590   1.585   4.393
 2422TIP3    H2 7203   1.737   1.574   4.364
 2423TIP3   OH2 7204   1.185   1.144   3.394
 2423TIP3    H1 7205   1.227   1.059   3.423
 2423TIP3    H2 7206   1.237   1.164   3.316
 2424TIP3   OH2 7207   1.426   1.446   4.114
 2424TIP3    H1 7208   1.341   1.479   4.150
 2424TIP3    H2 7209   1.453   1.519   4.055
 2425TIP3   OH2 7210   1.862   1.031   4.657
 2425TIP3    H1 7211   1.926   0.967   4.618
 2425TIP3    H2 7212   1.840   1.087   4.580
 2426TIP3   OH2 7213   1.281   0.906   3.469
 2426TIP3    H1 7214   1.338   0.853   3.528
 2426TIP3    H2 7215   1.265   0.846   3.393
 2427TIP3   OH2 7216   1.737   1.173   4.460
 2427TIP3    H1 7217   1.647   1.212   4.467
 2427TIP3    H2 7218   1.717   1.098   4.402
 2428TIP3   OH2 7219   0.943   2.333   3.308
 2428TIP3    H1 7220   0.950   2.344   3.210
 2428TIP3    H2 7221   0.996   2.409   3.335
 2429TIP3   OH2 7222   0.045   2.141   4.699
 2429TIP3    H1 7223  -0.028   2.082   4.680
 2429TIP3    H2 7224   0.055   2.136   4.795
 2430TIP3   OH2 7225   0.219   2.175   4.239
 2430TIP3    H1 7226   0.173   2.252   4.201
 2430TIP3    H2 7227   0.306   2.189   4.196
 2431TIP3   OH2 7228   0.665   2.420   4.378
 2431TIP3    H1 7229   0.707   2.421   4.467
 2431TIP3    H2 7230   0.731   2.472   4.327
 2432TIP3   OH2 7231   0.845   2.572   4.239
 2432TIP3    H1 7232   0.917   2.524   4.197
 2432TIP3    H2 7233   0.896   2.630   4.300
 2433TIP3   OH2 7234   1.641   0.934   4.338
 2433TIP3    H1 7235   1.549   0.928   4.306
 2433TIP3    H2 7236   1.672   0.841   4.327
 2434TIP3   OH2 7237  -0.105   2.428   4.269
 2434TIP3    H1 7238  -0.193   2.460   4.243
 2434TIP3    H2 7239  -0.094   2.472   4.354
 2435TIP3   OH2 7240   0.133   2.410   4.123
 2435TIP3    H1 7241   0.046   2.425   4.168
 2435TIP3    H2 7242   0.115   2.444   4.034
 2436TIP3   OH2 7243   0.558   2.440   3.923
 2436TIP3    H1 7244   0.492   2.460   3.854
 2436TIP3    H2 7245   0.571   2.528   3.963
 2437TIP3   OH2 7246   0.828   2.378   3.971
 2437TIP3    H1 7247   0.733   2.397   3.953
 2437TIP3    H2 7248   0.871   2.453   3.928
 2438TIP3   OH2 7249   1.036   2.572   3.886
 2438TIP3    H1 7250   1.019   2.658   3.841
 2438TIP3    H2 7251   1.060   2.514   3.811
 2439TIP3   OH2 7252  -0.192   2.226   4.004
 2439TIP3    H1 7253  -0.173   2.205   4.097
 2439TIP3    H2 7254  -0.120   2.177   3.959
 2440TIP3   OH2 7255   0.001   2.090   3.864
 2440TIP3    H1 7256   0.021   2.013   3.920
 2440TIP3    H2 7257   0.088   2.135   3.858
 2441TIP3   OH2 7258   0.264   2.195   3.872
 2441TIP3    H1 7259   0.302   2.108   3.854
 2441TIP3    H2 7260   0.310   2.217   3.955
 2442TIP3   OH2 7261   0.845   0.857   3.959
 2442TIP3    H1 7262   0.801   0.791   4.016
 2442TIP3    H2 7263   0.908   0.802   3.909
 2443TIP3   OH2 7264   1.369   0.735   3.877
 2443TIP3    H1 7265   1.412   0.774   3.797
 2443TIP3    H2 7266   1.275   0.740   3.854
 2444TIP3   OH2 7267   1.482   0.828   3.644
 2444TIP3    H1 7268   1.550   0.776   3.598
 2444TIP3    H2 7269   1.511   0.919   3.620
 2445TIP3   OH2 7270   1.089   0.737   3.828
 2445TIP3    H1 7271   1.091   0.693   3.743
 2445TIP3    H2 7272   1.079   0.660   3.888
 2446TIP3   OH2 7273   0.376   2.193   3.002
 2446TIP3    H1 7274   0.463   2.197   2.956
 2446TIP3    H2 7275   0.317   2.165   2.930
 2447TIP3   OH2 7276   1.377   0.901   4.772
 2447TIP3    H1 7277   1.396   0.869   4.863
 2447TIP3    H2 7278   1.465   0.896   4.731
 2448TIP3   OH2 7279   1.314   2.450   4.262
 2448TIP3    H1 7280   1.235   2.420   4.214
 2448TIP3    H2 7281   1.295   2.546   4.267
 2449TIP3   OH2 7282   2.580   1.826   3.031
 2449TIP3    H1 7283   2.544   1.914   3.005
 2449TIP3    H2 7284   2.506   1.770   3.002
 2450TIP3   OH2 7285   2.579   1.825   3.410
 2450TIP3    H1 7286   2.613   1.801   3.498
 2450TIP3    H2 7287   2.541   1.741   3.380
 2451TIP3   OH2 7288   1.878   1.718   3.778
 2451TIP3    H1 7289   1.909   1.651   3.842
 2451TIP3    H2 7290   1.955   1.776   3.774
 2452TIP3   OH2 7291   2.840   2.111   3.108
 2452TIP3    H1 7292   2.762   2.062   3.139
 2452TIP3    H2 7293   2.819   2.202   3.134
 2453TIP3   OH2 7294   1.849   2.125   3.500
 2453TIP3    H1 7295   1.839   2.028   3.503
 2453TIP3    H2 7296   1.945   2.134   3.496
 2454TIP3   OH2 7297   1.558   1.325   3.284
 2454TIP3    H1 7298   1.514   1.410   3.305
 2454TIP3    H2 7299   1.484   1.275   3.247
 2455TIP3   OH2 7300   1.616   1.617   3.449
 2455TIP3    H1 7301   1.666   1.544   3.491
 2455TIP3    H2 7302   1.686   1.663   3.400
 2456TIP3   OH2 7303   2.467   2.586   3.109
 2456TIP3    H1 7304   2.517   2.516   3.061
 2456TIP3    H2 7305   2.467   2.552   3.199
 2457TIP3   OH2 7306   2.379   2.048   3.459
 2457TIP3    H1 7307   2.418   1.970   3.415
 2457TIP3    H2 7308   2.462   2.092   3.485
 2458TIP3   OH2 7309   3.390   1.371   3.456
 2458TIP3    H1 7310   3.420   1.453   3.498
 2458TIP3    H2 7311   3.416   1.386   3.364
 2459TIP3   OH2 7312   2.786   1.552   3.490
 2459TIP3    H1 7313   2.832   1.470   3.515
 2459TIP3    H2 7314   2.760   1.531   3.399
 2460TIP3   OH2 7315   2.120   1.205   3.457
 2460TIP3    H1 7316   2.109   1.280   3.395
 2460TIP3    H2 7317   2.062   1.139   3.416
 2461TIP3   OH2 7318   2.822   1.300   3.078
 2461TIP3    H1 7319   2.893   1.284   3.144
 2461TIP3    H2 7320   2.876   1.335   3.004
 2462TIP3   OH2 7321   1.761   1.413   3.562
 2462TIP3    H1 7322   1.842   1.396   3.614
 2462TIP3    H2 7323   1.778   1.355   3.485
 2463TIP3   OH2 7324   2.204   1.609   3.356
 2463TIP3    H1 7325   2.298   1.585   3.369
 2463TIP3    H2 7326   2.167   1.524   3.324
 2464TIP3   OH2 7327   3.466   1.579   3.626
 2464TIP3    H1 7328   3.381   1.623   3.605
 2464TIP3    H2 7329   3.462   1.582   3.723
 2465TIP3   OH2 7330   2.123   1.191   3.890
 2465TIP3    H1 7331   2.064   1.232   3.824
 2465TIP3    H2 7332   2.073   1.210   3.973
 2466TIP3   OH2 7333   2.463   2.041   2.908
 2466TIP3    H1 7334   2.436   2.027   2.816
 2466TIP3    H2 7335   2.423   2.128   2.926
 2467TIP3   OH2 7336   2.229   1.968   3.686
 2467TIP3    H1 7337   2.168   2.034   3.725
 2467TIP3    H2 7338   2.273   2.020   3.615
 2468TIP3   OH2 7339   3.030   1.302   3.252
 2468TIP3    H1 7340   3.021   1.258   3.337
 2468TIP3    H2 7341   3.088   1.377   3.275
 2469TIP3   OH2 7342   1.994   1.309   3.677
 2469TIP3    H1 7343   2.053   1.383   3.702
 2469TIP3    H2 7344   2.046   1.269   3.603
 2470TIP3   OH2 7345   2.057   2.162   3.783
 2470TIP3    H1 7346   2.033   2.249   3.746
 2470TIP3    H2 7347   1.978   2.147   3.840
 2471TIP3   OH2 7348   1.457   1.854   3.019
 2471TIP3    H1 7349   1.406   1.883   2.942
 2471TIP3    H2 7350   1.483   1.940   3.058
 2472TIP3   OH2 7351   2.896   2.352   3.258
 2472TIP3    H1 7352   2.809   2.356   3.303
 2472TIP3    H2 7353   2.896   2.439   3.212
 2473TIP3   OH2 7354   3.185   1.266   3.621
 2473TIP3    H1 7355   3.098   1.301   3.596
 2473TIP3    H2 7356   3.244   1.300   3.550
 2474TIP3   OH2 7357   2.476   0.910   3.598
 2474TIP3    H1 7358   2.469   0.817   3.624
 2474TIP3    H2 7359   2.401   0.949   3.649
 2475TIP3   OH2 7360   2.596   2.414   2.939
 2475TIP3    H1 7361   2.642   2.331   2.912
 2475TIP3    H2 7362   2.656   2.480   2.896
 2476TIP3   OH2 7363   2.731   2.193   2.849
 2476TIP3    H1 7364   2.717   2.128   2.779
 2476TIP3    H2 7365   2.788   2.144   2.910
 2477TIP3   OH2 7366   3.127   2.294   3.611
 2477TIP3    H1 7367   3.096   2.221   3.557
 2477TIP3    H2 7368   3.102   2.372   3.556
 2478TIP3   OH2 7369   2.411   1.674   2.861
 2478TIP3    H1 7370   2.333   1.728   2.839
 2478TIP3    H2 7371   2.459   1.673   2.776
 2479TIP3   OH2 7372   2.369   1.455   2.581
 2479TIP3    H1 7373   2.435   1.509   2.629
 2479TIP3    H2 7374   2.430   1.397   2.531
 2480TIP3   OH2 7375   3.286   1.918   3.440
 2480TIP3    H1 7376   3.297   2.003   3.485
 2480TIP3    H2 7377   3.331   1.935   3.354
 2481TIP3   OH2 7378   2.757   1.753   2.833
 2481TIP3    H1 7379   2.704   1.778   2.912
 2481TIP3    H2 7380   2.842   1.728   2.875
 2482TIP3   OH2 7381   2.993   1.798   3.725
 2482TIP3    H1 7382   3.003   1.857   3.802
 2482TIP3    H2 7383   2.903   1.819   3.696
 2483TIP3   OH2 7384   1.990   1.753   3.251
 2483TIP3    H1 7385   1.952   1.696   3.181
 2483TIP3    H2 7386   2.069   1.702   3.279
 2484TIP3   OH2 7387   2.120   2.165   3.399
 2484TIP3    H1 7388   2.100   2.125   3.313
 2484TIP3    H2 7389   2.210   2.132   3.417
 2485TIP3   OH2 7390   2.124   1.728   3.601
 2485TIP3    H1 7391   2.161   1.706   3.513
 2485TIP3    H2 7392   2.169   1.812   3.624
 2486TIP3   OH2 7393   2.658   2.360   3.381
 2486TIP3    H1 7394   2.641   2.444   3.428
 2486TIP3    H2 7395   2.638   2.292   3.448
 2487TIP3   OH2 7396   2.264   2.283   3.926
 2487TIP3    H1 7397   2.205   2.345   3.974
 2487TIP3    H2 7398   2.198   2.230   3.878
 2488TIP3   OH2 7399   2.595   1.616   2.658
 2488TIP3    H1 7400   2.657   1.674   2.709
 2488TIP3    H2 7401   2.623   1.638   2.565
 2489TIP3   OH2 7402   2.018   1.839   4.028
 2489TIP3    H1 7403   2.023   1.927   4.072
 2489TIP3    H2 7404   1.923   1.821   4.039
 2490TIP3   OH2 7405   2.342   2.295   2.936
 2490TIP3    H1 7406   2.421   2.351   2.952
 2490TIP3    H2 7407   2.280   2.357   2.896
 2491TIP3   OH2 7408   2.058   2.450   4.014
 2491TIP3    H1 7409   2.022   2.450   3.924
 2491TIP3    H2 7410   1.979   2.428   4.068
 2492TIP3   OH2 7411   3.114   0.856   2.706
 2492TIP3    H1 7412   3.033   0.878   2.756
 2492TIP3    H2 7413   3.129   0.939   2.656
 2493TIP3   OH2 7414   1.859   1.595   3.049
 2493TIP3    H1 7415   1.795   1.646   2.994
 2493TIP3    H2 7416   1.807   1.516   3.068
 2494TIP3   OH2 7417   1.636   1.981   3.963
 2494TIP3    H1 7418   1.573   1.959   3.892
 2494TIP3    H2 7419   1.674   1.894   3.987
 2495TIP3   OH2 7420   1.492   2.169   3.604
 2495TIP3    H1 7421   1.587   2.175   3.588
 2495TIP3    H2 7422   1.475   2.255   3.647
 2496TIP3   OH2 7423   3.358   2.626   3.654
 2496TIP3    H1 7424   3.356   2.530   3.669
 2496TIP3    H2 7425   3.274   2.653   3.696
 2497TIP3   OH2 7426   2.460   2.413   3.783
 2497TIP3    H1 7427   2.461   2.505   3.817
 2497TIP3    H2 7428   2.390   2.373   3.839
 2498TIP3   OH2 7429   2.217   2.541   2.736
 2498TIP3    H1 7430   2.179   2.515   2.650
 2498TIP3    H2 7431   2.184   2.631   2.748
 2499TIP3   OH2 7432   1.661   2.391   3.120
 2499TIP3    H1 7433   1.707   2.380   3.206
 2499TIP3    H2 7434   1.595   2.320   3.125
 2500TIP3   OH2 7435   2.423   2.440   2.376
 2500TIP3    H1 7436   2.482   2.371   2.338
 2500TIP3    H2 7437   2.462   2.450   2.466
 2501TIP3   OH2 7438   2.472   2.492   2.647
 2501TIP3    H1 7439   2.386   2.497   2.694
 2501TIP3    H2 7440   2.529   2.452   2.714
 2502TIP3   OH2 7441   1.842   2.163   3.950
 2502TIP3    H1 7442   1.892   2.149   4.033
 2502TIP3    H2 7443   1.768   2.101   3.959
 2503TIP3   OH2 7444   2.241   0.987   3.735
 2503TIP3    H1 7445   2.150   0.958   3.711
 2503TIP3    H2 7446   2.219   1.070   3.781
 2504TIP3   OH2 7447   2.776   1.100   3.927
 2504TIP3    H1 7448   2.847   1.078   3.991
 2504TIP3    H2 7449   2.694   1.083   3.977
 2505TIP3   OH2 7450   3.021   1.537   3.847
 2505TIP3    H1 7451   2.977   1.536   3.935
 2505TIP3    H2 7452   3.011   1.630   3.821
 2506TIP3   OH2 7453   2.672   1.662   2.403
 2506TIP3    H1 7454   2.641   1.638   2.314
 2506TIP3    H2 7455   2.755   1.710   2.380
 2507TIP3   OH2 7456   2.368   1.047   2.701
 2507TIP3    H1 7457   2.353   1.040   2.797
 2507TIP3    H2 7458   2.359   0.954   2.675
 2508TIP3   OH2 7459   2.169   1.504   3.750
 2508TIP3    H1 7460   2.126   1.529   3.834
 2508TIP3    H2 7461   2.155   1.586   3.697
 2509TIP3   OH2 7462   2.058   1.389   3.269
 2509TIP3    H1 7463   1.963   1.367   3.282
 2509TIP3    H2 7464   2.073   1.349   3.180
 2510TIP3   OH2 7465   2.547   1.472   2.992
 2510TIP3    H1 7466   2.495   1.544   2.949
 2510TIP3    H2 7467   2.604   1.443   2.918
 2511TIP3   OH2 7468   2.707   1.754   4.072
 2511TIP3    H1 7469   2.708   1.683   4.140
 2511TIP3    H2 7470   2.801   1.781   4.070
 2512TIP3   OH2 7471   2.705   1.504   3.231
 2512TIP3    H1 7472   2.645   1.532   3.159
 2512TIP3    H2 7473   2.740   1.422   3.189
 2513TIP3   OH2 7474   1.990   1.533   3.963
 2513TIP3    H1 7475   2.026   1.597   4.026
 2513TIP3    H2 7476   1.984   1.452   4.017
 2514TIP3   OH2 7477   2.048   0.997   2.688
 2514TIP3    H1 7478   2.099   1.047   2.753
 2514TIP3    H2 7479   1.971   1.056   2.673
 2515TIP3   OH2 7480   1.581   1.056   3.548
 2515TIP3    H1 7481   1.658   1.091   3.598
 2515TIP3    H2 7482   1.619   1.031   3.462
 2516TIP3   OH2 7483   1.597   1.062   3.068
 2516TIP3    H1 7484   1.618   1.095   2.979
 2516TIP3    H2 7485   1.520   1.119   3.089
 2517TIP3   OH2 7486   2.702   1.750   3.654
 2517TIP3    H1 7487   2.744   1.680   3.599
 2517TIP3    H2 7488   2.685   1.699   3.736
 2518TIP3   OH2 7489   2.380   1.215   3.328
 2518TIP3    H1 7490   2.305   1.214   3.390
 2518TIP3    H2 7491   2.457   1.208   3.388
 2519TIP3   OH2 7492   1.816   1.261   3.336
 2519TIP3    H1 7493   1.722   1.281   3.312
 2519TIP3    H2 7494   1.824   1.169   3.308
 2520TIP3   OH2 7495   2.087   1.254   3.034
 2520TIP3    H1 7496   2.182   1.270   3.017
 2520TIP3    H2 7497   2.045   1.278   2.948
 2521TIP3   OH2 7498   2.877   1.289   3.527
 2521TIP3    H1 7499   2.847   1.301   3.620
 2521TIP3    H2 7500   2.811   1.228   3.493
 2522TIP3   OH2 7501   1.939   1.286   2.809
 2522TIP3    H1 7502   1.863   1.251   2.760
 2522TIP3    H2 7503   1.986   1.334   2.737
 2523TIP3   OH2 7504   3.047   2.977   3.746
 2523TIP3    H1 7505   3.046   3.005   3.653
 2523TIP3    H2 7506   3.124   3.027   3.779
 2524TIP3   OH2 7507   2.004   2.084   4.171
 2524TIP3    H1 7508   2.084   2.116   4.218
 2524TIP3    H2 7509   1.940   2.088   4.244
 2525TIP3   OH2 7510   2.467   1.538   3.423
 2525TIP3    H1 7511   2.543   1.503   3.374
 2525TIP3    H2 7512   2.480   1.500   3.512
 2526TIP3   OH2 7513   2.004   0.998   3.273
 2526TIP3    H1 7514   1.967   0.936   3.339
 2526TIP3    H2 7515   2.100   0.984   3.285
 2527TIP3   OH2 7516   2.444   1.434   3.720
 2527TIP3    H1 7517   2.358   1.477   3.732
 2527TIP3    H2 7518   2.506   1.494   3.767
 2528TIP3   OH2 7519   2.181   1.827   2.810
 2528TIP3    H1 7520   2.107   1.764   2.799
 2528TIP3    H2 7521   2.164   1.862   2.901
 2529TIP3   OH2 7522   2.636   1.139   2.677
 2529TIP3    H1 7523   2.538   1.135   2.675
 2529TIP3    H2 7524   2.654   1.233   2.694
 2530TIP3   OH2 7525   2.577   2.147   3.806
 2530TIP3    H1 7526   2.607   2.123   3.895
 2530TIP3    H2 7527   2.541   2.236   3.819
 2531TIP3   OH2 7528   2.710   1.387   2.773
 2531TIP3    H1 7529   2.807   1.392   2.789
 2531TIP3    H2 7530   2.694   1.466   2.718
 2532TIP3   OH2 7531   1.866   1.838   3.486
 2532TIP3    H1 7532   1.909   1.817   3.401
 2532TIP3    H2 7533   1.921   1.788   3.549
 2533TIP3   OH2 7534   2.325   1.976   2.629
 2533TIP3    H1 7535   2.279   2.063   2.635
 2533TIP3    H2 7536   2.272   1.922   2.692
 2534TIP3   OH2 7537   1.753   1.771   4.100
 2534TIP3    H1 7538   1.779   1.759   4.194
 2534TIP3    H2 7539   1.686   1.701   4.090
 2535TIP3   OH2 7540   2.474   1.885   4.120
 2535TIP3    H1 7541   2.418   1.826   4.067
 2535TIP3    H2 7542   2.563   1.851   4.096
 2536TIP3   OH2 7543   2.737   2.408   3.702
 2536TIP3    H1 7544   2.641   2.408   3.718
 2536TIP3    H2 7545   2.768   2.458   3.780
 2537TIP3   OH2 7546   3.149   1.479   2.614
 2537TIP3    H1 7547   3.087   1.434   2.552
 2537TIP3    H2 7548   3.147   1.568   2.571
 2538TIP3   OH2 7549   3.377   2.335   3.694
 2538TIP3    H1 7550   3.278   2.334   3.697
 2538TIP3    H2 7551   3.390   2.303   3.602
 2539TIP3   OH2 7552   2.843   2.293   2.500
 2539TIP3    H1 7553   2.854   2.214   2.553
 2539TIP3    H2 7554   2.906   2.271   2.426
 2540TIP3   OH2 7555   2.864   1.926   3.340
 2540TIP3    H1 7556   2.774   1.914   3.374
 2540TIP3    H2 7557   2.884   1.835   3.310
 2541TIP3   OH2 7558   1.973   2.152   3.109
 2541TIP3    H1 7559   1.974   2.234   3.056
 2541TIP3    H2 7560   1.879   2.138   3.121
 2542TIP3   OH2 7561   1.548   1.456   2.831
 2542TIP3    H1 7562   1.589   1.544   2.844
 2542TIP3    H2 7563   1.463   1.467   2.878
 2543TIP3   OH2 7564   2.111   1.917   3.054
 2543TIP3    H1 7565   2.077   2.008   3.070
 2543TIP3    H2 7566   2.076   1.870   3.131
 2544TIP3   OH2 7567   2.243   2.497   3.580
 2544TIP3    H1 7568   2.286   2.569   3.530
 2544TIP3    H2 7569   2.319   2.462   3.631
 2545TIP3   OH2 7570   1.893   2.392   2.963
 2545TIP3    H1 7571   1.807   2.398   3.009
 2545TIP3    H2 7572   1.921   2.486   2.965
 2546TIP3   OH2 7573   2.633   2.127   3.542
 2546TIP3    H1 7574   2.611   2.131   3.637
 2546TIP3    H2 7575   2.724   2.093   3.549
 2547TIP3   OH2 7576   2.606   2.020   2.425
 2547TIP3    H1 7577   2.662   2.002   2.503
 2547TIP3    H2 7578   2.519   1.996   2.459
 2548TIP3   OH2 7579   2.881   2.664   3.587
 2548TIP3    H1 7580   2.801   2.608   3.580
 2548TIP3    H2 7581   2.865   2.730   3.516
 2549TIP3   OH2 7582   2.940   2.520   2.244
 2549TIP3    H1 7583   2.987   2.592   2.199
 2549TIP3    H2 7584   2.857   2.564   2.270
 2550TIP3   OH2 7585   1.968   1.274   4.108
 2550TIP3    H1 7586   1.872   1.277   4.123
 2550TIP3    H2 7587   1.998   1.216   4.180
 2551TIP3   OH2 7588   2.765   1.966   2.650
 2551TIP3    H1 7589   2.760   1.890   2.711
 2551TIP3    H2 7590   2.861   1.961   2.625
 2552TIP3   OH2 7591   1.684   2.360   3.738
 2552TIP3    H1 7592   1.736   2.286   3.773
 2552TIP3    H2 7593   1.709   2.431   3.799
 2553TIP3   OH2 7594   1.970   2.005   2.419
 2553TIP3    H1 7595   1.991   1.913   2.394
 2553TIP3    H2 7596   1.953   1.994   2.515
 2554TIP3   OH2 7597   1.921   2.009   2.693
 2554TIP3    H1 7598   1.992   1.986   2.754
 2554TIP3    H2 7599   1.921   2.107   2.698
 2555TIP3   OH2 7600   1.654   1.705   2.896
 2555TIP3    H1 7601   1.588   1.752   2.952
 2555TIP3    H2 7602   1.667   1.772   2.827
 2556TIP3   OH2 7603   2.806   1.337   3.784
 2556TIP3    H1 7604   2.878   1.386   3.829
 2556TIP3    H2 7605   2.794   1.260   3.843
 2557TIP3   OH2 7606   2.678   1.093   2.954
 2557TIP3    H1 7607   2.669   1.115   2.860
 2557TIP3    H2 7608   2.721   1.174   2.990
 2558TIP3   OH2 7609   2.184   2.206   2.643
 2558TIP3    H1 7610   2.097   2.234   2.677
 2558TIP3    H2 7611   2.201   2.275   2.578
 2559TIP3   OH2 7612   2.365   1.271   3.056
 2559TIP3    H1 7613   2.432   1.340   3.036
 2559TIP3    H2 7614   2.376   1.261   3.153
 2560TIP3   OH2 7615   2.640   1.586   3.865
 2560TIP3    H1 7616   2.657   1.646   3.942
 2560TIP3    H2 7617   2.703   1.514   3.883
 2561TIP3   OH2 7618   2.513   0.996   3.155
 2561TIP3    H1 7619   2.522   1.065   3.223
 2561TIP3    H2 7620   2.573   1.033   3.086
 2562TIP3   OH2 7621   1.926   2.281   2.709
 2562TIP3    H1 7622   1.896   2.351   2.646
 2562TIP3    H2 7623   1.909   2.325   2.795
 2563TIP3   OH2 7624   3.290   1.480   3.837
 2563TIP3    H1 7625   3.198   1.502   3.862
 2563TIP3    H2 7626   3.273   1.439   3.751
 2564TIP3   OH2 7627   2.933   1.682   3.234
 2564TIP3    H1 7628   2.859   1.621   3.245
 2564TIP3    H2 7629   3.006   1.634   3.281
 2565TIP3   OH2 7630   1.644   1.913   2.703
 2565TIP3    H1 7631   1.704   1.988   2.713
 2565TIP3    H2 7632   1.695   1.860   2.638
 2566TIP3   OH2 7633   1.619   1.189   2.826
 2566TIP3    H1 7634   1.611   1.286   2.835
 2566TIP3    H2 7635   1.534   1.166   2.785
 2567TIP3   OH2 7636   2.904   2.627   3.179
 2567TIP3    H1 7637   2.860   2.676   3.107
 2567TIP3    H2 7638   2.997   2.654   3.161
 2568TIP3   OH2 7639   1.975   0.907   3.711
 2568TIP3    H1 7640   1.945   0.872   3.625
 2568TIP3    H2 7641   1.967   0.829   3.770
 2569TIP3   OH2 7642   1.514   2.122   3.089
 2569TIP3    H1 7643   1.442   2.153   3.146
 2569TIP3    H2 7644   1.488   2.164   3.004
 2570TIP3   OH2 7645   1.673   2.668   4.161
 2570TIP3    H1 7646   1.758   2.669   4.209
 2570TIP3    H2 7647   1.652   2.573   4.161
 2571TIP3   OH2 7648   2.153   2.633   4.206
 2571TIP3    H1 7649   2.248   2.617   4.214
 2571TIP3    H2 7650   2.130   2.573   4.132
 2572TIP3   OH2 7651   2.136   2.209   2.334
 2572TIP3    H1 7652   2.081   2.136   2.371
 2572TIP3    H2 7653   2.212   2.160   2.299
 2573TIP3   OH2 7654   2.794   2.537   3.938
 2573TIP3    H1 7655   2.785   2.469   4.008
 2573TIP3    H2 7656   2.871   2.589   3.969
 2574TIP3   OH2 7657   2.568   2.247   2.243
 2574TIP3    H1 7658   2.622   2.197   2.307
 2574TIP3    H2 7659   2.628   2.250   2.166
 2575TIP3   OH2 7660   1.803   2.074   4.361
 2575TIP3    H1 7661   1.818   1.978   4.368
 2575TIP3    H2 7662   1.715   2.078   4.318
 2576TIP3   OH2 7663   1.786   1.730   2.562
 2576TIP3    H1 7664   1.847   1.702   2.632
 2576TIP3    H2 7665   1.848   1.734   2.485
 2577TIP3   OH2 7666   2.410   2.160   4.135
 2577TIP3    H1 7667   2.371   2.177   4.047
 2577TIP3    H2 7668   2.441   2.067   4.128
 2578TIP3   OH2 7669   2.282   1.920   2.361
 2578TIP3    H1 7670   2.292   1.935   2.457
 2578TIP3    H2 7671   2.286   1.822   2.358
 2579TIP3   OH2 7672   2.894   2.153   3.689
 2579TIP3    H1 7673   2.978   2.197   3.712
 2579TIP3    H2 7674   2.830   2.219   3.720
 2580TIP3   OH2 7675   1.922   1.801   4.344
 2580TIP3    H1 7676   2.004   1.757   4.319
 2580TIP3    H2 7677   1.946   1.840   4.430
 2581TIP3   OH2 7678   1.985   1.629   2.775
 2581TIP3    H1 7679   1.962   1.592   2.862
 2581TIP3    H2 7680   2.025   1.553   2.729
 2582TIP3   OH2 7681   2.252   1.687   3.999
 2582TIP3    H1 7682   2.180   1.753   4.003
 2582TIP3    H2 7683   2.307   1.723   3.925
 2583TIP3   OH2 7684   2.090   1.415   2.622
 2583TIP3    H1 7685   2.065   1.426   2.528
 2583TIP3    H2 7686   2.188   1.424   2.615
 2584TIP3   OH2 7687   2.774   2.094   4.137
 2584TIP3    H1 7688   2.856   2.066   4.093
 2584TIP3    H2 7689   2.769   2.025   4.206
 2585TIP3   OH2 7690   2.906   1.753   2.282
 2585TIP3    H1 7691   2.886   1.711   2.196
 2585TIP3    H2 7692   2.886   1.847   2.259
 2586TIP3   OH2 7693   2.376   1.480   4.133
 2586TIP3    H1 7694   2.383   1.401   4.077
 2586TIP3    H2 7695   2.336   1.546   4.073
 2587TIP3   OH2 7696   2.382   1.266   3.939
 2587TIP3    H1 7697   2.412   1.310   3.857
 2587TIP3    H2 7698   2.289   1.246   3.918
 2588TIP3   OH2 7699   2.408   1.799   3.811
 2588TIP3    H1 7700   2.494   1.807   3.769
 2588TIP3    H2 7701   2.356   1.868   3.765
 2589TIP3   OH2 7702   2.253   1.595   4.361
 2589TIP3    H1 7703   2.187   1.524   4.374
 2589TIP3    H2 7704   2.292   1.569   4.275
 2590TIP3   OH2 7705   2.514   1.030   4.005
 2590TIP3    H1 7706   2.467   1.113   3.983
 2590TIP3    H2 7707   2.445   0.963   3.994
 2591TIP3   OH2 7708   2.645   1.533   4.223
 2591TIP3    H1 7709   2.638   1.524   4.320
 2591TIP3    H2 7710   2.554   1.510   4.197
 2592TIP3   OH2 7711   2.875   1.467   4.071
 2592TIP3    H1 7712   2.803   1.478   4.135
 2592TIP3    H2 7713   2.953   1.459   4.129
 2593TIP3   OH2 7714   3.130   1.427   4.227
 2593TIP3    H1 7715   3.128   1.331   4.249
 2593TIP3    H2 7716   3.116   1.470   4.314
 2594TIP3   OH2 7717   2.095   1.373   4.416
 2594TIP3    H1 7718   2.108   1.283   4.380
 2594TIP3    H2 7719   2.135   1.362   4.505
 2595TIP3   OH2 7720   2.608   1.039   4.263
 2595TIP3    H1 7721   2.678   0.970   4.258
 2595TIP3    H2 7722   2.571   1.034   4.173
 2596TIP3   OH2 7723   2.673   1.254   4.423
 2596TIP3    H1 7724   2.653   1.184   4.357
 2596TIP3    H2 7725   2.596   1.314   4.414
 2597TIP3   OH2 7726   1.897   2.488   2.524
 2597TIP3    H1 7727   1.992   2.482   2.502
 2597TIP3    H2 7728   1.865   2.533   2.444
 2598TIP3   OH2 7729   1.376   1.871   2.739
 2598TIP3    H1 7730   1.471   1.893   2.729
 2598TIP3    H2 7731   1.373   1.781   2.700
 2599TIP3   OH2 7732   1.290   2.475   3.133
 2599TIP3    H1 7733   1.204   2.441   3.101
 2599TIP3    H2 7734   1.315   2.412   3.203
 2600TIP3   OH2 7735   1.427   2.331   3.333
 2600TIP3    H1 7736   1.405   2.261   3.396
 2600TIP3    H2 7737   1.474   2.394   3.391
 2601TIP3   OH2 7738   3.148   2.735   3.138
 2601TIP3    H1 7739   3.181   2.770   3.223
 2601TIP3    H2 7740   3.214   2.770   3.076
 2602TIP3   OH2 7741   3.180   2.749   3.420
 2602TIP3    H1 7742   3.146   2.657   3.416
 2602TIP3    H2 7743   3.261   2.736   3.470
 2603TIP3   OH2 7744   3.232   2.426   3.994
 2603TIP3    H1 7745   3.157   2.434   4.057
 2603TIP3    H2 7746   3.271   2.516   3.999
 2604TIP3   OH2 7747   3.039   1.942   2.615
 2604TIP3    H1 7748   3.103   2.005   2.574
 2604TIP3    H2 7749   3.093   1.906   2.688
 2605TIP3   OH2 7750   3.173   1.809   2.816
 2605TIP3    H1 7751   3.111   1.764   2.877
 2605TIP3    H2 7752   3.243   1.842   2.875
 2606TIP3   OH2 7753   3.055   2.500   3.449
 2606TIP3    H1 7754   2.989   2.552   3.498
 2606TIP3    H2 7755   3.002   2.463   3.376
 2607TIP3   OH2 7756   3.108   1.714   2.466
 2607TIP3    H1 7757   3.038   1.719   2.396
 2607TIP3    H2 7758   3.084   1.795   2.516
 2608TIP3   OH2 7759   2.977   1.389   2.424
 2608TIP3    H1 7760   2.947   1.431   2.343
 2608TIP3    H2 7761   2.953   1.295   2.408
 2609TIP3   OH2 7762   2.986   1.663   2.965
 2609TIP3    H1 7763   2.998   1.567   2.953
 2609TIP3    H2 7764   2.974   1.671   3.062
 2610TIP3   OH2 7765   1.615   1.735   3.709
 2610TIP3    H1 7766   1.616   1.711   3.615
 2610TIP3    H2 7767   1.712   1.738   3.728
 2611TIP3   OH2 7768   3.277   2.095   3.816
 2611TIP3    H1 7769   3.340   2.020   3.810
 2611TIP3    H2 7770   3.319   2.164   3.762
 2612TIP3   OH2 7771   3.440   1.878   3.837
 2612TIP3    H1 7772   3.374   1.827   3.885
 2612TIP3    H2 7773   3.521   1.826   3.857
 2613TIP3   OH2 7774   2.925   1.122   2.405
 2613TIP3    H1 7775   3.004   1.094   2.455
 2613TIP3    H2 7776   2.857   1.059   2.431
 2614TIP3   OH2 7777   2.984   1.381   2.858
 2614TIP3    H1 7778   3.024   1.293   2.874
 2614TIP3    H2 7779   3.042   1.413   2.787
 2615TIP3   OH2 7780   3.145   1.556   3.352
 2615TIP3    H1 7781   3.232   1.581   3.314
 2615TIP3    H2 7782   3.159   1.589   3.443
 2616TIP3   OH2 7783   3.215   1.693   3.584
 2616TIP3    H1 7784   3.139   1.723   3.639
 2616TIP3    H2 7785   3.235   1.775   3.535
 2617TIP3   OH2 7786   1.829   1.422   4.380
 2617TIP3    H1 7787   1.927   1.419   4.385
 2617TIP3    H2 7788   1.807   1.338   4.425
 2618TIP3   OH2 7789   3.664   1.285   4.149
 2618TIP3    H1 7790   3.721   1.223   4.099
 2618TIP3    H2 7791   3.637   1.348   4.080
 2619TIP3   OH2 7792   3.090   1.131   2.898
 2619TIP3    H1 7793   3.142   1.115   2.979
 2619TIP3    H2 7794   3.032   1.052   2.897
 2620TIP3   OH2 7795   1.792   1.116   3.714
 2620TIP3    H1 7796   1.855   1.042   3.729
 2620TIP3    H2 7797   1.853   1.192   3.710
 2621TIP3   OH2 7798   1.582   1.384   3.780
 2621TIP3    H1 7799   1.637   1.391   3.700
 2621TIP3    H2 7800   1.602   1.466   3.826
 2622TIP3   OH2 7801   3.537   1.430   3.952
 2622TIP3    H1 7802   3.448   1.470   3.960
 2622TIP3    H2 7803   3.514   1.356   3.892
 2623TIP3   OH2 7804   3.173   1.065   2.528
 2623TIP3    H1 7805   3.215   0.994   2.476
 2623TIP3    H2 7806   3.240   1.136   2.524
 2624TIP3   OH2 7807   1.583   0.909   3.293
 2624TIP3    H1 7808   1.489   0.899   3.314
 2624TIP3    H2 7809   1.579   0.958   3.207
 2625TIP3   OH2 7810   2.733   2.598   2.794
 2625TIP3    H1 7811   2.783   2.582   2.710
 2625TIP3    H2 7812   2.792   2.660   2.840
 2626TIP3   OH2 7813   1.796   0.975   4.102
 2626TIP3    H1 7814   1.747   0.969   4.186
 2626TIP3    H2 7815   1.728   1.012   4.043
 2627TIP3   OH2 7816   1.839   2.397   4.180
 2627TIP3    H1 7817   1.746   2.373   4.166
 2627TIP3    H2 7818   1.848   2.385   4.276
 2628TIP3   OH2 7819   2.016   2.432   3.727
 2628TIP3    H1 7820   1.968   2.507   3.689
 2628TIP3    H2 7821   2.103   2.447   3.684
 2629TIP3   OH2 7822   2.462   2.679   3.865
 2629TIP3    H1 7823   2.503   2.678   3.955
 2629TIP3    H2 7824   2.529   2.729   3.814
 2630TIP3   OH2 7825   2.642   2.830   3.724
 2630TIP3    H1 7826   2.715   2.780   3.684
 2630TIP3    H2 7827   2.691   2.888   3.785
 2631TIP3   OH2 7828   3.438   1.190   3.827
 2631TIP3    H1 7829   3.347   1.190   3.793
 2631TIP3    H2 7830   3.465   1.097   3.813
 2632TIP3   OH2 7831   1.693   2.691   3.752
 2632TIP3    H1 7832   1.603   2.723   3.729
 2632TIP3    H2 7833   1.704   2.729   3.840
 2633TIP3   OH2 7834   1.929   2.669   3.609
 2633TIP3    H1 7835   1.843   2.681   3.655
 2633TIP3    H2 7836   1.908   2.700   3.520
 2634TIP3   OH2 7837   2.355   2.698   3.407
 2634TIP3    H1 7838   2.285   2.720   3.343
 2634TIP3    H2 7839   2.368   2.785   3.452
 2635TIP3   OH2 7840   2.625   2.632   3.454
 2635TIP3    H1 7841   2.531   2.656   3.437
 2635TIP3    H2 7842   2.672   2.709   3.418
 2636TIP3   OH2 7843   2.823   2.823   3.372
 2636TIP3    H1 7844   2.814   2.910   3.328
 2636TIP3    H2 7845   2.858   2.768   3.299
 2637TIP3   OH2 7846   1.607   2.486   3.496
 2637TIP3    H1 7847   1.630   2.460   3.587
 2637TIP3    H2 7848   1.677   2.440   3.446
 2638TIP3   OH2 7849   1.799   2.354   3.354
 2638TIP3    H1 7850   1.814   2.270   3.403
 2638TIP3    H2 7851   1.890   2.391   3.350
 2639TIP3   OH2 7852   2.065   2.452   3.357
 2639TIP3    H1 7853   2.096   2.360   3.344
 2639TIP3    H2 7854   2.109   2.473   3.441
 2640TIP3   OH2 7855   2.631   1.102   3.430
 2640TIP3    H1 7856   2.595   1.034   3.489
 2640TIP3    H2 7857   2.713   1.061   3.397
 2641TIP3   OH2 7858   3.162   0.984   3.348
 2641TIP3    H1 7859   3.201   1.036   3.274
 2641TIP3    H2 7860   3.068   1.009   3.343
 2642TIP3   OH2 7861   3.257   1.087   3.113
 2642TIP3    H1 7862   3.330   1.035   3.073
 2642TIP3    H2 7863   3.292   1.178   3.098
 2643TIP3   OH2 7864   1.888   0.824   3.453
 2643TIP3    H1 7865   1.799   0.786   3.458
 2643TIP3    H2 7866   1.943   0.742   3.456
 2644TIP3   OH2 7867   1.791   0.799   3.129
 2644TIP3    H1 7868   1.735   0.730   3.086
 2644TIP3    H2 7869   1.731   0.823   3.203
 2645TIP3   OH2 7870   2.317   0.867   3.341
 2645TIP3    H1 7871   2.382   0.902   3.279
 2645TIP3    H2 7872   2.359   0.887   3.426
 2646TIP3   OH2 7873   2.873   0.994   3.327
 2646TIP3    H1 7874   2.884   0.957   3.238
 2646TIP3    H2 7875   2.862   0.913   3.381
 2647TIP3   OH2 7876   2.909   0.916   2.887
 2647TIP3    H1 7877   2.821   0.957   2.897
 2647TIP3    H2 7878   2.895   0.831   2.934
 2648TIP3   OH2 7879   1.396   2.254   2.886
 2648TIP3    H1 7880   1.308   2.224   2.859
 2648TIP3    H2 7881   1.384   2.350   2.873
 2649TIP3   OH2 7882   2.298   1.021   2.968
 2649TIP3    H1 7883   2.358   0.973   3.027
 2649TIP3    H2 7884   2.318   1.112   2.997
 2650TIP3   OH2 7885   2.166   2.445   2.472
 2650TIP3    H1 7886   2.255   2.466   2.436
 2650TIP3    H2 7887   2.143   2.371   2.411
 2651TIP3   OH2 7888   2.874   2.556   2.560
 2651TIP3    H1 7889   2.868   2.460   2.539
 2651TIP3    H2 7890   2.843   2.593   2.475
 2652TIP3   OH2 7891   2.096   1.093   4.350
 2652TIP3    H1 7892   2.063   1.024   4.409
 2652TIP3    H2 7893   2.190   1.095   4.377
 2653TIP3   OH2 7894   2.344   1.093   4.469
 2653TIP3    H1 7895   2.431   1.072   4.431
 2653TIP3    H2 7896   2.335   1.023   4.537
 2654TIP3   OH2 7897   1.469   2.285   2.526
 2654TIP3    H1 7898   1.460   2.309   2.619
 2654TIP3    H2 7899   1.559   2.244   2.522
 2655TIP3   OH2 7900   3.168   1.149   4.259
 2655TIP3    H1 7901   3.188   1.119   4.350
 2655TIP3    H2 7902   3.256   1.147   4.217
 2656TIP3   OH2 7903   3.110   2.708   3.751
 2656TIP3    H1 7904   3.031   2.679   3.701
 2656TIP3    H2 7905   3.094   2.805   3.752
 2657TIP3   OH2 7906   4.374   2.073   2.526
 2657TIP3    H1 7907   4.346   2.163   2.505
 2657TIP3    H2 7908   4.307   2.021   2.477
 2658TIP3   OH2 7909   4.398   2.039   2.878
 2658TIP3    H1 7910   4.397   2.045   2.974
 2658TIP3    H2 7911   4.310   2.073   2.852
 2659TIP3   OH2 7912   3.670   1.982   3.276
 2659TIP3    H1 7913   3.709   1.910   3.329
 2659TIP3    H2 7914   3.748   2.031   3.248
 2660TIP3   OH2 7915   4.617   2.390   2.575
 2660TIP3    H1 7916   4.605   2.316   2.636
 2660TIP3    H2 7917   4.641   2.462   2.635
 2661TIP3   OH2 7918   3.631   2.378   2.998
 2661TIP3    H1 7919   3.633   2.280   2.994
 2661TIP3    H2 7920   3.728   2.396   2.988
 2662TIP3   OH2 7921   3.350   1.583   2.775
 2662TIP3    H1 7922   3.307   1.670   2.784
 2662TIP3    H2 7923   3.280   1.533   2.730
 2663TIP3   OH2 7924   3.405   1.875   2.948
 2663TIP3    H1 7925   3.459   1.801   2.981
 2663TIP3    H2 7926   3.466   1.919   2.887
 2664TIP3   OH2 7927   4.267   2.842   2.593
 2664TIP3    H1 7928   4.318   2.771   2.550
 2664TIP3    H2 7929   4.254   2.806   2.682
 2665TIP3   OH2 7930   5.188   1.625   2.944
 2665TIP3    H1 7931   5.218   1.709   2.983
 2665TIP3    H2 7932   5.208   1.640   2.850
 2666TIP3   OH2 7933   4.562   1.789   2.954
 2666TIP3    H1 7934   4.617   1.717   2.988
 2666TIP3    H2 7935   4.627   1.845   2.905
 2667TIP3   OH2 7936   3.924   1.466   2.943
 2667TIP3    H1 7937   3.902   1.536   2.879
 2667TIP3    H2 7938   3.879   1.390   2.900
 2668TIP3   OH2 7939   4.594   1.607   2.591
 2668TIP3    H1 7940   4.669   1.571   2.645
 2668TIP3    H2 7941   4.641   1.619   2.506
 2669TIP3   OH2 7942   3.557   1.668   3.051
 2669TIP3    H1 7943   3.641   1.648   3.097
 2669TIP3    H2 7944   3.570   1.614   2.970
 2670TIP3   OH2 7945   3.995   1.859   2.840
 2670TIP3    H1 7946   4.069   1.813   2.882
 2670TIP3    H2 7947   3.948   1.783   2.798
 2671TIP3   OH2 7948   5.263   1.834   3.114
 2671TIP3    H1 7949   5.180   1.881   3.090
 2671TIP3    H2 7950   5.269   1.858   3.208
 2672TIP3   OH2 7951   3.919   1.450   3.379
 2672TIP3    H1 7952   3.860   1.485   3.310
 2672TIP3    H2 7953   3.866   1.470   3.459
 2673TIP3   OH2 7954   4.287   2.310   2.375
 2673TIP3    H1 7955   4.226   2.271   2.311
 2673TIP3    H2 7956   4.234   2.388   2.403
 2674TIP3   OH2 7957   4.029   2.232   3.167
 2674TIP3    H1 7958   3.968   2.287   3.220
 2674TIP3    H2 7959   4.026   2.289   3.086
 2675TIP3   OH2 7960   4.810   1.562   2.742
 2675TIP3    H1 7961   4.842   1.488   2.795
 2675TIP3    H2 7962   4.878   1.629   2.757
 2676TIP3   OH2 7963   3.791   1.563   3.162
 2676TIP3    H1 7964   3.854   1.636   3.184
 2676TIP3    H2 7965   3.840   1.522   3.087
 2677TIP3   OH2 7966   3.857   2.410   3.287
 2677TIP3    H1 7967   3.842   2.470   3.212
 2677TIP3    H2 7968   3.770   2.414   3.332
 2678TIP3   OH2 7969   3.251   2.101   2.514
 2678TIP3    H1 7970   3.196   2.129   2.436
 2678TIP3    H2 7971   3.285   2.187   2.545
 2679TIP3   OH2 7972   4.692   2.624   2.745
 2679TIP3    H1 7973   4.603   2.615   2.787
 2679TIP3    H2 7974   4.682   2.711   2.702
 2680TIP3   OH2 7975   4.980   1.530   3.113
 2680TIP3    H1 7976   4.892   1.550   3.078
 2680TIP3    H2 7977   5.039   1.556   3.039
 2681TIP3   OH2 7978   4.278   1.170   3.089
 2681TIP3    H1 7979   4.266   1.075   3.107
 2681TIP3    H2 7980   4.200   1.206   3.136
 2682TIP3   OH2 7981   4.400   2.669   2.426
 2682TIP3    H1 7982   4.450   2.587   2.405
 2682TIP3    H2 7983   4.458   2.735   2.381
 2683TIP3   OH2 7984   4.537   2.440   2.316
 2683TIP3    H1 7985   4.457   2.384   2.319
 2683TIP3    H2 7986   4.578   2.418   2.403
 2684TIP3   OH2 7987   4.918   2.537   3.091
 2684TIP3    H1 7988   4.904   2.460   3.032
 2684TIP3    H2 7989   4.896   2.612   3.032
 2685TIP3   OH2 7990   4.211   1.936   2.356
 2685TIP3    H1 7991   4.129   1.981   2.327
 2685TIP3    H2 7992   4.255   1.914   2.273
 2686TIP3   OH2 7993   4.165   1.715   2.063
 2686TIP3    H1 7994   4.232   1.765   2.114
 2686TIP3    H2 7995   4.223   1.652   2.017
 2687TIP3   OH2 7996   5.111   2.176   2.937
 2687TIP3    H1 7997   5.027   2.227   2.941
 2687TIP3    H2 7998   5.140   2.198   2.846
 2688TIP3   OH2 7999   4.546   2.013   2.318
 2688TIP3    H1 8000   4.510   2.033   2.407
 2688TIP3    H2 8001   4.644   2.012   2.333
 2689TIP3   OH2 8002   4.789   2.054   3.230
 2689TIP3    H1 8003   4.786   2.139   3.278
 2689TIP3    H2 8004   4.700   2.055   3.187
 2690TIP3   OH2 8005   3.778   2.006   2.741
 2690TIP3    H1 8006   3.740   1.955   2.668
 2690TIP3    H2 8007   3.862   1.959   2.759
 2691TIP3   OH2 8008   3.921   1.992   3.090
 2691TIP3    H1 8009   3.944   1.982   2.996
 2691TIP3    H2 8010   3.964   2.078   3.112
 2692TIP3   OH2 8011   4.452   2.622   2.865
 2692TIP3    H1 8012   4.432   2.699   2.919
 2692TIP3    H2 8013   4.437   2.547   2.926
 2693TIP3   OH2 8014   4.062   2.537   3.419
 2693TIP3    H1 8015   4.000   2.601   3.460
 2693TIP3    H2 8016   3.998   2.484   3.366
 2694TIP3   OH2 8017   4.392   1.869   2.147
 2694TIP3    H1 8018   4.452   1.925   2.202
 2694TIP3    H2 8019   4.421   1.895   2.056
 2695TIP3   OH2 8020   3.819   2.091   3.525
 2695TIP3    H1 8021   3.822   2.182   3.561
 2695TIP3    H2 8022   3.723   2.078   3.515
 2696TIP3   OH2 8023   4.143   2.546   2.412
 2696TIP3    H1 8024   4.210   2.605   2.448
 2696TIP3    H2 8025   4.072   2.606   2.384
 2697TIP3   OH2 8026   3.856   2.707   3.500
 2697TIP3    H1 8027   3.824   2.708   3.408
 2697TIP3    H2 8028   3.775   2.684   3.550
 2698TIP3   OH2 8029   4.906   1.109   2.188
 2698TIP3    H1 8030   4.827   1.129   2.241
 2698TIP3    H2 8031   4.921   1.195   2.143
 2699TIP3   OH2 8032   3.653   1.853   2.537
 2699TIP3    H1 8033   3.589   1.905   2.483
 2699TIP3    H2 8034   3.606   1.770   2.545
 2700TIP3   OH2 8035   4.701   2.486   1.737
 2700TIP3    H1 8036   4.717   2.583   1.726
 2700TIP3    H2 8037   4.792   2.452   1.726
 2701TIP3   OH2 8038   3.422   2.221   3.447
 2701TIP3    H1 8039   3.430   2.209   3.351
 2701TIP3    H2 8040   3.474   2.146   3.482
 2702TIP3   OH2 8041   3.291   2.430   3.084
 2702TIP3    H1 8042   3.385   2.414   3.069
 2702TIP3    H2 8043   3.292   2.508   3.140
 2703TIP3   OH2 8044   5.155   2.883   3.140
 2703TIP3    H1 8045   5.150   2.786   3.149
 2703TIP3    H2 8046   5.070   2.909   3.182
 2704TIP3   OH2 8047   4.266   2.663   3.278
 2704TIP3    H1 8048   4.259   2.757   3.303
 2704TIP3    H2 8049   4.189   2.626   3.326
 2705TIP3   OH2 8050   4.021   2.802   2.219
 2705TIP3    H1 8051   3.968   2.782   2.139
 2705TIP3    H2 8052   3.986   2.889   2.246
 2706TIP3   OH2 8053   3.458   2.648   2.608
 2706TIP3    H1 8054   3.505   2.635   2.693
 2706TIP3    H2 8055   3.405   2.566   2.604
 2707TIP3   OH2 8056   4.216   2.699   1.866
 2707TIP3    H1 8057   4.277   2.635   1.824
 2707TIP3    H2 8058   4.252   2.706   1.957
 2708TIP3   OH2 8059   4.272   2.743   2.136
 2708TIP3    H1 8060   4.181   2.756   2.172
 2708TIP3    H2 8061   4.315   2.704   2.213
 2709TIP3   OH2 8062   5.043   2.013   3.411
 2709TIP3    H1 8063   4.962   2.029   3.359
 2709TIP3    H2 8064   5.057   1.917   3.397
 2710TIP3   OH2 8065   3.631   2.416   3.440
 2710TIP3    H1 8066   3.687   2.407   3.520
 2710TIP3    H2 8067   3.554   2.360   3.461
 2711TIP3   OH2 8068   4.038   1.243   3.222
 2711TIP3    H1 8069   3.949   1.213   3.194
 2711TIP3    H2 8070   4.014   1.327   3.266
 2712TIP3   OH2 8071   4.572   1.362   3.416
 2712TIP3    H1 8072   4.640   1.330   3.479
 2712TIP3    H2 8073   4.488   1.339   3.461
 2713TIP3   OH2 8074   4.813   1.791   3.335
 2713TIP3    H1 8075   4.761   1.787   3.418
 2713TIP3    H2 8076   4.787   1.878   3.298
 2714TIP3   OH2 8077   4.469   1.924   1.889
 2714TIP3    H1 8078   4.435   1.894   1.803
 2714TIP3    H2 8079   4.554   1.964   1.863
 2715TIP3   OH2 8080   4.179   1.294   2.192
 2715TIP3    H1 8081   4.147   1.288   2.284
 2715TIP3    H2 8082   4.144   1.210   2.157
 2716TIP3   OH2 8083   3.966   1.763   3.234
 2716TIP3    H1 8084   3.919   1.784   3.317
 2716TIP3    H2 8085   3.953   1.847   3.183
 2717TIP3   OH2 8086   3.852   1.645   2.753
 2717TIP3    H1 8087   3.758   1.622   2.769
 2717TIP3    H2 8088   3.864   1.605   2.663
 2718TIP3   OH2 8089   4.519   2.010   3.567
 2718TIP3    H1 8090   4.497   1.937   3.630
 2718TIP3    H2 8091   4.613   2.025   3.588
 2719TIP3   OH2 8092   3.788   1.791   3.449
 2719TIP3    H1 8093   3.823   1.853   3.514
 2719TIP3    H2 8094   3.779   1.709   3.501
 2720TIP3   OH2 8095   3.836   1.265   2.157
 2720TIP3    H1 8096   3.830   1.263   2.255
 2720TIP3    H2 8097   3.760   1.321   2.135
 2721TIP3   OH2 8098   3.382   1.310   3.031
 2721TIP3    H1 8099   3.457   1.344   3.083
 2721TIP3    H2 8100   3.423   1.282   2.947
 2722TIP3   OH2 8101   3.353   1.292   2.549
 2722TIP3    H1 8102   3.399   1.329   2.470
 2722TIP3    H2 8103   3.294   1.367   2.569
 2723TIP3   OH2 8104   4.517   2.000   3.142
 2723TIP3    H1 8105   4.526   1.927   3.079
 2723TIP3    H2 8106   4.484   1.952   3.221
 2724TIP3   OH2 8107   4.193   1.510   2.819
 2724TIP3    H1 8108   4.108   1.487   2.861
 2724TIP3    H2 8109   4.256   1.463   2.877
 2725TIP3   OH2 8110   3.614   1.523   2.826
 2725TIP3    H1 8111   3.520   1.529   2.796
 2725TIP3    H2 8112   3.640   1.433   2.798
 2726TIP3   OH2 8113   3.880   1.519   2.512
 2726TIP3    H1 8114   3.973   1.540   2.490
 2726TIP3    H2 8115   3.832   1.542   2.429
 2727TIP3   OH2 8116   4.677   1.550   3.025
 2727TIP3    H1 8117   4.634   1.554   3.112
 2727TIP3    H2 8118   4.632   1.475   2.982
 2728TIP3   OH2 8119   3.726   1.550   2.289
 2728TIP3    H1 8120   3.653   1.509   2.238
 2728TIP3    H2 8121   3.779   1.589   2.216
 2729TIP3   OH2 8122   4.844   3.231   3.235
 2729TIP3    H1 8123   4.839   3.257   3.141
 2729TIP3    H2 8124   4.918   3.285   3.267
 2730TIP3   OH2 8125   3.798   2.339   3.659
 2730TIP3    H1 8126   3.880   2.373   3.701
 2730TIP3    H2 8127   3.735   2.348   3.733
 2731TIP3   OH2 8128   3.787   1.285   2.789
 2731TIP3    H1 8129   3.756   1.204   2.835
 2731TIP3    H2 8130   3.841   1.247   2.718
 2732TIP3   OH2 8131   4.236   1.679   3.223
 2732TIP3    H1 8132   4.151   1.726   3.217
 2732TIP3    H2 8133   4.298   1.750   3.249
 2733TIP3   OH2 8134   3.981   2.083   2.298
 2733TIP3    H1 8135   3.908   2.019   2.284
 2733TIP3    H2 8136   3.961   2.115   2.389
 2734TIP3   OH2 8137   4.878   2.319   2.927
 2734TIP3    H1 8138   4.902   2.370   2.847
 2734TIP3    H2 8139   4.791   2.281   2.902
 2735TIP3   OH2 8140   4.435   1.388   2.157
 2735TIP3    H1 8141   4.337   1.378   2.166
 2735TIP3    H2 8142   4.450   1.483   2.180
 2736TIP3   OH2 8143   4.379   2.399   3.295
 2736TIP3    H1 8144   4.396   2.388   3.389
 2736TIP3    H2 8145   4.336   2.486   3.291
 2737TIP3   OH2 8146   4.504   1.632   2.251
 2737TIP3    H1 8147   4.598   1.643   2.275
 2737TIP3    H2 8148   4.479   1.721   2.220
 2738TIP3   OH2 8149   3.657   2.093   2.975
 2738TIP3    H1 8150   3.696   2.082   2.886
 2738TIP3    H2 8151   3.718   2.039   3.028
 2739TIP3   OH2 8152   4.119   2.233   2.113
 2739TIP3    H1 8153   4.073   2.320   2.123
 2739TIP3    H2 8154   4.067   2.178   2.176
 2740TIP3   OH2 8155   3.542   2.025   3.593
 2740TIP3    H1 8156   3.582   2.027   3.682
 2740TIP3    H2 8157   3.498   1.939   3.596
 2741TIP3   OH2 8158   4.275   2.137   3.609
 2741TIP3    H1 8159   4.217   2.084   3.551
 2741TIP3    H2 8160   4.364   2.106   3.580
 2742TIP3   OH2 8161   4.542   2.665   3.190
 2742TIP3    H1 8162   4.445   2.659   3.199
 2742TIP3    H2 8163   4.565   2.716   3.270
 2743TIP3   OH2 8164   4.962   1.721   2.089
 2743TIP3    H1 8165   4.888   1.685   2.035
 2743TIP3    H2 8166   4.956   1.815   2.066
 2744TIP3   OH2 8167   5.167   2.592   3.179
 2744TIP3    H1 8168   5.070   2.586   3.170
 2744TIP3    H2 8169   5.193   2.561   3.090
 2745TIP3   OH2 8170   4.688   2.514   2.019
 2745TIP3    H1 8171   4.609   2.496   2.073
 2745TIP3    H2 8172   4.655   2.503   1.928
 2746TIP3   OH2 8173   4.645   2.176   2.851
 2746TIP3    H1 8174   4.551   2.151   2.857
 2746TIP3    H2 8175   4.680   2.093   2.815
 2747TIP3   OH2 8176   3.758   2.398   2.562
 2747TIP3    H1 8177   3.765   2.491   2.534
 2747TIP3    H2 8178   3.672   2.395   2.604
 2748TIP3   OH2 8179   3.334   1.714   2.299
 2748TIP3    H1 8180   3.378   1.801   2.312
 2748TIP3    H2 8181   3.257   1.724   2.357
 2749TIP3   OH2 8182   3.914   2.172   2.545
 2749TIP3    H1 8183   3.876   2.263   2.553
 2749TIP3    H2 8184   3.879   2.133   2.627
 2750TIP3   OH2 8185   4.037   2.766   3.076
 2750TIP3    H1 8186   4.082   2.830   3.018
 2750TIP3    H2 8187   4.110   2.711   3.106
 2751TIP3   OH2 8188   3.687   2.656   2.445
 2751TIP3    H1 8189   3.603   2.660   2.494
 2751TIP3    H2 8190   3.717   2.749   2.451
 2752TIP3   OH2 8191   4.454   2.395   3.027
 2752TIP3    H1 8192   4.426   2.387   3.121
 2752TIP3    H2 8193   4.524   2.329   3.021
 2753TIP3   OH2 8194   4.397   2.293   1.908
 2753TIP3    H1 8195   4.451   2.255   1.982
 2753TIP3    H2 8196   4.310   2.259   1.932
 2754TIP3   OH2 8197   4.678   2.921   3.075
 2754TIP3    H1 8198   4.599   2.864   3.070
 2754TIP3    H2 8199   4.661   2.985   3.003
 2755TIP3   OH2 8200   4.739   2.756   1.731
 2755TIP3    H1 8201   4.778   2.821   1.670
 2755TIP3    H2 8202   4.662   2.809   1.761
 2756TIP3   OH2 8203   3.760   1.535   3.597
 2756TIP3    H1 8204   3.663   1.537   3.606
 2756TIP3    H2 8205   3.785   1.467   3.663
 2757TIP3   OH2 8206   4.561   2.200   2.117
 2757TIP3    H1 8207   4.529   2.130   2.178
 2757TIP3    H2 8208   4.632   2.234   2.173
 2758TIP3   OH2 8209   3.473   2.618   3.229
 2758TIP3    H1 8210   3.537   2.548   3.246
 2758TIP3    H2 8211   3.511   2.691   3.281
 2759TIP3   OH2 8212   3.769   2.261   1.900
 2759TIP3    H1 8213   3.781   2.167   1.876
 2759TIP3    H2 8214   3.759   2.254   1.997
 2760TIP3   OH2 8215   3.736   2.268   2.169
 2760TIP3    H1 8216   3.776   2.236   2.250
 2760TIP3    H2 8217   3.731   2.365   2.185
 2761TIP3   OH2 8218   3.448   1.957   2.385
 2761TIP3    H1 8219   3.377   2.000   2.439
 2761TIP3    H2 8220   3.459   2.028   2.318
 2762TIP3   OH2 8221   4.594   1.601   3.281
 2762TIP3    H1 8222   4.680   1.632   3.314
 2762TIP3    H2 8223   4.582   1.518   3.333
 2763TIP3   OH2 8224   4.460   1.371   2.441
 2763TIP3    H1 8225   4.457   1.371   2.344
 2763TIP3    H2 8226   4.522   1.444   2.458
 2764TIP3   OH2 8227   3.983   2.468   2.125
 2764TIP3    H1 8228   3.895   2.486   2.165
 2764TIP3    H2 8229   3.993   2.545   2.069
 2765TIP3   OH2 8230   4.162   1.525   2.538
 2765TIP3    H1 8231   4.251   1.539   2.502
 2765TIP3    H2 8232   4.177   1.518   2.634
 2766TIP3   OH2 8233   4.437   1.847   3.350
 2766TIP3    H1 8234   4.460   1.898   3.431
 2766TIP3    H2 8235   4.489   1.765   3.361
 2767TIP3   OH2 8236   4.310   1.270   2.650
 2767TIP3    H1 8237   4.350   1.317   2.725
 2767TIP3    H2 8238   4.369   1.297   2.576
 2768TIP3   OH2 8239   3.724   2.540   2.196
 2768TIP3    H1 8240   3.692   2.610   2.135
 2768TIP3    H2 8241   3.707   2.581   2.284
 2769TIP3   OH2 8242   3.821   1.252   2.434
 2769TIP3    H1 8243   3.821   1.343   2.469
 2769TIP3    H2 8244   3.917   1.231   2.442
 2770TIP3   OH2 8245   5.080   1.746   3.329
 2770TIP3    H1 8246   4.982   1.745   3.339
 2770TIP3    H2 8247   5.087   1.702   3.243
 2771TIP3   OH2 8248   4.704   1.905   2.756
 2771TIP3    H1 8249   4.715   1.910   2.660
 2771TIP3    H2 8250   4.794   1.877   2.784
 2772TIP3   OH2 8251   3.461   2.165   2.207
 2772TIP3    H1 8252   3.503   2.250   2.197
 2772TIP3    H2 8253   3.493   2.118   2.128
 2773TIP3   OH2 8254   3.383   1.444   2.325
 2773TIP3    H1 8255   3.386   1.542   2.320
 2773TIP3    H2 8256   3.305   1.425   2.271
 2774TIP3   OH2 8257   4.697   2.895   2.668
 2774TIP3    H1 8258   4.654   2.941   2.593
 2774TIP3    H2 8259   4.791   2.915   2.647
 2775TIP3   OH2 8260   3.771   1.166   3.197
 2775TIP3    H1 8261   3.742   1.132   3.109
 2775TIP3    H2 8262   3.762   1.086   3.253
 2776TIP3   OH2 8263   3.319   2.392   2.585
 2776TIP3    H1 8264   3.233   2.421   2.617
 2776TIP3    H2 8265   3.310   2.416   2.491
 2777TIP3   OH2 8266   3.469   2.922   3.650
 2777TIP3    H1 8267   3.556   2.925   3.696
 2777TIP3    H2 8268   3.451   2.827   3.647
 2778TIP3   OH2 8269   3.948   2.888   3.696
 2778TIP3    H1 8270   4.044   2.877   3.700
 2778TIP3    H2 8271   3.925   2.830   3.620
 2779TIP3   OH2 8272   3.931   2.465   1.819
 2779TIP3    H1 8273   3.871   2.396   1.858
 2779TIP3    H2 8274   4.006   2.410   1.795
 2780TIP3   OH2 8275   4.590   2.797   3.427
 2780TIP3    H1 8276   4.580   2.727   3.495
 2780TIP3    H2 8277   4.665   2.849   3.460
 2781TIP3   OH2 8278   4.380   2.503   1.727
 2781TIP3    H1 8279   4.391   2.434   1.796
 2781TIP3    H2 8280   4.469   2.505   1.687
 2782TIP3   OH2 8281   3.601   2.330   3.854
 2782TIP3    H1 8282   3.613   2.233   3.855
 2782TIP3    H2 8283   3.514   2.338   3.808
 2783TIP3   OH2 8284   3.578   1.980   2.033
 2783TIP3    H1 8285   3.627   1.956   2.113
 2783TIP3    H2 8286   3.650   1.983   1.967
 2784TIP3   OH2 8287   4.206   2.415   3.623
 2784TIP3    H1 8288   4.165   2.437   3.536
 2784TIP3    H2 8289   4.236   2.323   3.610
 2785TIP3   OH2 8290   4.091   2.183   1.844
 2785TIP3    H1 8291   4.088   2.195   1.942
 2785TIP3    H2 8292   4.087   2.085   1.839
 2786TIP3   OH2 8293   4.702   2.422   3.230
 2786TIP3    H1 8294   4.774   2.471   3.185
 2786TIP3    H2 8295   4.626   2.482   3.212
 2787TIP3   OH2 8296   3.709   2.056   3.831
 2787TIP3    H1 8297   3.791   2.019   3.797
 2787TIP3    H2 8298   3.738   2.091   3.918
 2788TIP3   OH2 8299   3.788   1.886   2.264
 2788TIP3    H1 8300   3.757   1.847   2.347
 2788TIP3    H2 8301   3.821   1.808   2.215
 2789TIP3   OH2 8302   4.052   1.946   3.489
 2789TIP3    H1 8303   3.976   2.008   3.493
 2789TIP3    H2 8304   4.103   1.982   3.413
 2790TIP3   OH2 8305   3.885   1.675   2.105
 2790TIP3    H1 8306   3.859   1.682   2.011
 2790TIP3    H2 8307   3.982   1.682   2.097
 2791TIP3   OH2 8308   4.568   2.350   3.627
 2791TIP3    H1 8309   4.646   2.328   3.575
 2791TIP3    H2 8310   4.569   2.283   3.697
 2792TIP3   OH2 8311   4.709   2.010   1.768
 2792TIP3    H1 8312   4.690   1.959   1.686
 2792TIP3    H2 8313   4.672   2.097   1.741
 2793TIP3   OH2 8314   4.175   1.738   3.620
 2793TIP3    H1 8315   4.177   1.658   3.564
 2793TIP3    H2 8316   4.133   1.803   3.559
 2794TIP3   OH2 8317   4.177   1.520   3.435
 2794TIP3    H1 8318   4.207   1.566   3.353
 2794TIP3    H2 8319   4.084   1.498   3.411
 2795TIP3   OH2 8320   4.201   2.064   3.299
 2795TIP3    H1 8321   4.288   2.075   3.259
 2795TIP3    H2 8322   4.149   2.133   3.252
 2796TIP3   OH2 8323   4.789   2.027   3.681
 2796TIP3    H1 8324   4.838   1.944   3.683
 2796TIP3    H2 8325   4.855   2.088   3.644
 2797TIP3   OH2 8326   4.830   2.279   3.418
 2797TIP3    H1 8327   4.772   2.332   3.359
 2797TIP3    H2 8328   4.917   2.299   3.377
 2798TIP3   OH2 8329   4.051   1.849   3.852
 2798TIP3    H1 8330   3.986   1.776   3.857
 2798TIP3    H2 8331   4.089   1.834   3.763
 2799TIP3   OH2 8332   4.312   1.287   3.493
 2799TIP3    H1 8333   4.262   1.369   3.471
 2799TIP3    H2 8334   4.244   1.218   3.479
 2800TIP3   OH2 8335   4.438   1.791   3.708
 2800TIP3    H1 8336   4.425   1.780   3.803
 2800TIP3    H2 8337   4.348   1.767   3.676
 2801TIP3   OH2 8338   4.678   1.744   3.564
 2801TIP3    H1 8339   4.602   1.744   3.625
 2801TIP3    H2 8340   4.751   1.711   3.621
 2802TIP3   OH2 8341   4.911   1.683   3.715
 2802TIP3    H1 8342   4.920   1.587   3.732
 2802TIP3    H2 8343   4.904   1.721   3.806
 2803TIP3   OH2 8344   3.894   1.629   3.901
 2803TIP3    H1 8345   3.897   1.541   3.860
 2803TIP3    H2 8346   3.934   1.610   3.988
 2804TIP3   OH2 8347   4.406   1.298   3.750
 2804TIP3    H1 8348   4.472   1.227   3.744
 2804TIP3    H2 8349   4.366   1.292   3.661
 2805TIP3   OH2 8350   4.471   1.512   3.909
 2805TIP3    H1 8351   4.451   1.441   3.844
 2805TIP3    H2 8352   4.394   1.570   3.900
 2806TIP3   OH2 8353   3.692   2.745   2.009
 2806TIP3    H1 8354   3.787   2.738   1.989
 2806TIP3    H2 8355   3.661   2.792   1.929
 2807TIP3   OH2 8356   3.077   2.736   2.640
 2807TIP3    H1 8357   3.019   2.669   2.600
 2807TIP3    H2 8358   3.127   2.682   2.705
 2808TIP3   OH2 8359   3.216   2.596   2.828
 2808TIP3    H1 8360   3.220   2.513   2.878
 2808TIP3    H2 8361   3.274   2.652   2.883
 2809TIP3   OH2 8362   4.951   2.985   2.624
 2809TIP3    H1 8363   4.973   3.020   2.712
 2809TIP3    H2 8364   5.009   3.037   2.566
 2810TIP3   OH2 8365   4.977   3.007   2.905
 2810TIP3    H1 8366   4.934   2.919   2.903
 2810TIP3    H2 8367   5.053   2.986   2.961
 2811TIP3   OH2 8368   5.029   2.682   3.483
 2811TIP3    H1 8369   4.952   2.690   3.544
 2811TIP3    H2 8370   5.064   2.773   3.483
 2812TIP3   OH2 8371   5.025   2.457   2.739
 2812TIP3    H1 8372   5.075   2.390   2.688
 2812TIP3    H2 8373   5.014   2.528   2.673
 2813TIP3   OH2 8374   4.855   2.755   2.933
 2813TIP3    H1 8375   4.783   2.799   2.982
 2813TIP3    H2 8376   4.805   2.709   2.862
 2814TIP3   OH2 8377   4.909   2.011   1.958
 2814TIP3    H1 8378   4.837   2.003   1.893
 2814TIP3    H2 8379   4.861   1.994   2.043
 2815TIP3   OH2 8380   4.775   1.650   1.899
 2815TIP3    H1 8381   4.731   1.678   1.818
 2815TIP3    H2 8382   4.753   1.554   1.899
 2816TIP3   OH2 8383   3.405   1.994   3.209
 2816TIP3    H1 8384   3.401   1.975   3.113
 2816TIP3    H2 8385   3.503   1.997   3.220
 2817TIP3   OH2 8386   5.072   2.345   3.308
 2817TIP3    H1 8387   5.146   2.281   3.298
 2817TIP3    H2 8388   5.094   2.413   3.242
 2818TIP3   OH2 8389   5.259   2.151   3.326
 2818TIP3    H1 8390   5.183   2.102   3.364
 2818TIP3    H2 8391   5.330   2.086   3.341
 2819TIP3   OH2 8392   4.722   1.383   1.893
 2819TIP3    H1 8393   4.799   1.352   1.946
 2819TIP3    H2 8394   4.651   1.322   1.918
 2820TIP3   OH2 8395   4.760   1.623   2.357
 2820TIP3    H1 8396   4.816   1.542   2.354
 2820TIP3    H2 8397   4.822   1.690   2.324
 2821TIP3   OH2 8398   4.946   1.818   2.841
 2821TIP3    H1 8399   5.032   1.839   2.798
 2821TIP3    H2 8400   4.966   1.850   2.931
 2822TIP3   OH2 8401   5.012   1.956   3.073
 2822TIP3    H1 8402   4.934   1.991   3.120
 2822TIP3    H2 8403   5.044   2.037   3.027
 2823TIP3   OH2 8404   3.627   1.687   3.886
 2823TIP3    H1 8405   3.723   1.674   3.873
 2823TIP3    H2 8406   3.601   1.598   3.916
 2824TIP3   OH2 8407   5.467   1.548   3.629
 2824TIP3    H1 8408   5.522   1.481   3.585
 2824TIP3    H2 8409   5.434   1.600   3.553
 2825TIP3   OH2 8410   4.896   1.381   2.382
 2825TIP3    H1 8411   4.938   1.364   2.469
 2825TIP3    H2 8412   4.832   1.307   2.378
 2826TIP3   OH2 8413   3.587   1.374   3.208
 2826TIP3    H1 8414   3.648   1.298   3.214
 2826TIP3    H2 8415   3.650   1.447   3.196
 2827TIP3   OH2 8416   3.391   1.646   3.273
 2827TIP3    H1 8417   3.439   1.636   3.189
 2827TIP3    H2 8418   3.426   1.731   3.303
 2828TIP3   OH2 8419   5.332   1.684   3.436
 2828TIP3    H1 8420   5.244   1.726   3.451
 2828TIP3    H2 8421   5.305   1.613   3.375
 2829TIP3   OH2 8422   4.970   1.323   2.014
 2829TIP3    H1 8423   5.009   1.249   1.963
 2829TIP3    H2 8424   5.040   1.391   2.008
 2830TIP3   OH2 8425   3.374   1.150   2.777
 2830TIP3    H1 8426   3.280   1.149   2.801
 2830TIP3    H2 8427   3.374   1.209   2.698
 2831TIP3   OH2 8428   4.536   2.852   2.281
 2831TIP3    H1 8429   4.589   2.846   2.199
 2831TIP3    H2 8430   4.583   2.922   2.330
 2832TIP3   OH2 8431   3.596   1.235   3.593
 2832TIP3    H1 8432   3.543   1.225   3.675
 2832TIP3    H2 8433   3.528   1.270   3.532
 2833TIP3   OH2 8434   3.636   2.649   3.666
 2833TIP3    H1 8435   3.542   2.629   3.652
 2833TIP3    H2 8436   3.643   2.648   3.763
 2834TIP3   OH2 8437   3.807   2.696   3.221
 2834TIP3    H1 8438   3.768   2.773   3.176
 2834TIP3    H2 8439   3.894   2.697   3.175
 2835TIP3   OH2 8440   4.257   2.934   3.352
 2835TIP3    H1 8441   4.299   2.936   3.441
 2835TIP3    H2 8442   4.322   2.985   3.300
 2836TIP3   OH2 8443   4.436   3.087   3.212
 2836TIP3    H1 8444   4.506   3.036   3.169
 2836TIP3    H2 8445   4.488   3.144   3.272
 2837TIP3   OH2 8446   5.230   1.449   3.312
 2837TIP3    H1 8447   5.140   1.443   3.276
 2837TIP3    H2 8448   5.261   1.356   3.300
 2838TIP3   OH2 8449   3.487   2.944   3.240
 2838TIP3    H1 8450   3.398   2.978   3.218
 2838TIP3    H2 8451   3.503   2.991   3.324
 2839TIP3   OH2 8452   3.724   2.927   3.097
 2839TIP3    H1 8453   3.637   2.939   3.141
 2839TIP3    H2 8454   3.706   2.959   3.006
 2840TIP3   OH2 8455   4.154   2.956   2.890
 2840TIP3    H1 8456   4.081   2.974   2.828
 2840TIP3    H2 8457   4.164   3.042   2.935
 2841TIP3   OH2 8458   4.421   2.896   2.947
 2841TIP3    H1 8459   4.326   2.911   2.927
 2841TIP3    H2 8460   4.462   2.972   2.905
 2842TIP3   OH2 8461   4.630   3.086   2.862
 2842TIP3    H1 8462   4.614   3.171   2.814
 2842TIP3    H2 8463   4.654   3.026   2.788
 2843TIP3   OH2 8464   3.401   2.738   2.983
 2843TIP3    H1 8465   3.428   2.715   3.075
 2843TIP3    H2 8466   3.474   2.695   2.934
 2844TIP3   OH2 8467   3.599   2.610   2.842
 2844TIP3    H1 8468   3.616   2.526   2.890
 2844TIP3    H2 8469   3.690   2.646   2.835
 2845TIP3   OH2 8470   3.866   2.711   2.838
 2845TIP3    H1 8471   3.896   2.618   2.832
 2845TIP3    H2 8472   3.900   2.729   2.928
 2846TIP3   OH2 8473   4.423   1.357   2.906
 2846TIP3    H1 8474   4.392   1.291   2.971
 2846TIP3    H2 8475   4.508   1.316   2.876
 2847TIP3   OH2 8476   4.955   1.265   2.852
 2847TIP3    H1 8477   4.996   1.289   2.766
 2847TIP3    H2 8478   4.862   1.252   2.826
 2848TIP3   OH2 8479   5.056   1.347   2.608
 2848TIP3    H1 8480   5.123   1.290   2.566
 2848TIP3    H2 8481   5.091   1.436   2.585
 2849TIP3   OH2 8482   3.684   1.073   2.949
 2849TIP3    H1 8483   3.592   1.040   2.949
 2849TIP3    H2 8484   3.734   0.988   2.944
 2850TIP3   OH2 8485   3.469   0.941   2.594
 2850TIP3    H1 8486   3.502   0.997   2.521
 2850TIP3    H2 8487   3.444   1.008   2.660
 2851TIP3   OH2 8488   4.119   1.110   2.832
 2851TIP3    H1 8489   4.178   1.138   2.759
 2851TIP3    H2 8490   4.165   1.145   2.909
 2852TIP3   OH2 8491   4.665   1.254   2.818
 2852TIP3    H1 8492   4.669   1.200   2.736
 2852TIP3    H2 8493   4.654   1.179   2.881
 2853TIP3   OH2 8494   4.710   1.176   2.370
 2853TIP3    H1 8495   4.615   1.197   2.375
 2853TIP3    H2 8496   4.716   1.116   2.448
 2854TIP3   OH2 8497   3.191   2.512   2.376
 2854TIP3    H1 8498   3.128   2.443   2.347
 2854TIP3    H2 8499   3.145   2.592   2.345
 2855TIP3   OH2 8500   3.588   1.098   2.361
 2855TIP3    H1 8501   3.637   1.037   2.302
 2855TIP3    H2 8502   3.662   1.154   2.395
 2856TIP3   OH2 8503   4.098   1.272   2.456
 2856TIP3    H1 8504   4.160   1.224   2.514
 2856TIP3    H2 8505   4.116   1.364   2.486
 2857TIP3   OH2 8506   3.958   2.702   1.954
 2857TIP3    H1 8507   4.048   2.722   1.920
 2857TIP3    H2 8508   3.936   2.625   1.896
 2858TIP3   OH2 8509   4.682   2.814   2.049
 2858TIP3    H1 8510   4.685   2.718   2.033
 2858TIP3    H2 8511   4.635   2.848   1.970
 2859TIP3   OH2 8512   3.891   1.355   3.842
 2859TIP3    H1 8513   3.857   1.281   3.895
 2859TIP3    H2 8514   3.986   1.354   3.867
 2860TIP3   OH2 8515   4.139   1.357   3.964
 2860TIP3    H1 8516   4.222   1.333   3.919
 2860TIP3    H2 8517   4.130   1.284   4.028
 2861TIP3   OH2 8518   3.266   2.546   2.015
 2861TIP3    H1 8519   3.257   2.550   2.111
 2861TIP3    H2 8520   3.353   2.501   2.004
 2862TIP3   OH2 8521   4.967   1.412   3.745
 2862TIP3    H1 8522   4.986   1.379   3.836
 2862TIP3    H2 8523   5.055   1.405   3.703
 2863TIP3   OH2 8524   4.906   2.963   3.238
 2863TIP3    H1 8525   4.828   2.931   3.188
 2863TIP3    H2 8526   4.887   3.059   3.240
 2864TIP3   OH2 8527   6.171   2.336   2.005
 2864TIP3    H1 8528   6.142   2.427   1.983
 2864TIP3    H2 8529   6.096   2.285   1.969
 2865TIP3   OH2 8530   6.173   2.337   2.383
 2865TIP3    H1 8531   6.201   2.303   2.470
 2865TIP3    H2 8532   6.130   2.260   2.344
 2866TIP3   OH2 8533   5.471   2.234   2.750
 2866TIP3    H1 8534   5.504   2.165   2.810
 2866TIP3    H2 8535   5.551   2.286   2.734
 2867TIP3   OH2 8536   6.416   2.636   2.065
 2867TIP3    H1 8537   6.398   2.567   2.130
 2867TIP3    H2 8538   6.442   2.712   2.121
 2868TIP3   OH2 8539   5.443   2.645   2.476
 2868TIP3    H1 8540   5.436   2.547   2.478
 2868TIP3    H2 8541   5.540   2.654   2.468
 2869TIP3   OH2 8542   5.143   1.863   2.277
 2869TIP3    H1 8543   5.076   1.926   2.311
 2869TIP3    H2 8544   5.083   1.801   2.234
 2870TIP3   OH2 8545   5.247   2.149   2.434
 2870TIP3    H1 8546   5.266   2.061   2.473
 2870TIP3    H2 8547   5.259   2.131   2.340
 2871TIP3   OH2 8548   6.064   3.102   2.083
 2871TIP3    H1 8549   6.109   3.031   2.033
 2871TIP3    H2 8550   6.054   3.061   2.170
 2872TIP3   OH2 8551   5.969   2.562   2.434
 2872TIP3    H1 8552   6.006   2.486   2.386
 2872TIP3    H2 8553   6.053   2.606   2.457
 2873TIP3   OH2 8554   6.982   1.881   2.429
 2873TIP3    H1 8555   7.012   1.965   2.469
 2873TIP3    H2 8556   7.008   1.893   2.336
 2874TIP3   OH2 8557   6.382   2.063   2.466
 2874TIP3    H1 8558   6.425   1.977   2.484
 2874TIP3    H2 8559   6.351   2.049   2.375
 2875TIP3   OH2 8560   5.721   1.723   2.430
 2875TIP3    H1 8561   5.699   1.795   2.368
 2875TIP3    H2 8562   5.674   1.649   2.386
 2876TIP3   OH2 8563   6.414   1.816   2.053
 2876TIP3    H1 8564   6.487   1.799   2.117
 2876TIP3    H2 8565   6.465   1.849   1.977
 2877TIP3   OH2 8566   5.349   1.917   2.541
 2877TIP3    H1 8567   5.435   1.900   2.585
 2877TIP3    H2 8568   5.361   1.866   2.458
 2878TIP3   OH2 8569   5.793   2.123   2.330
 2878TIP3    H1 8570   5.887   2.097   2.343
 2878TIP3    H2 8571   5.754   2.039   2.298
 2879TIP3   OH2 8572   7.057   2.089   2.601
 2879TIP3    H1 8573   6.974   2.136   2.577
 2879TIP3    H2 8574   7.066   2.115   2.694
 2880TIP3   OH2 8575   5.717   1.707   2.866
 2880TIP3    H1 8576   5.657   1.742   2.797
 2880TIP3    H2 8577   5.664   1.726   2.946
 2881TIP3   OH2 8578   6.062   2.556   1.875
 2881TIP3    H1 8579   6.024   2.538   1.788
 2881TIP3    H2 8580   6.018   2.640   1.898
 2882TIP3   OH2 8581   5.825   2.482   2.662
 2882TIP3    H1 8582   5.761   2.548   2.698
 2882TIP3    H2 8583   5.864   2.531   2.587
 2883TIP3   OH2 8584   6.624   1.816   2.224
 2883TIP3    H1 8585   6.619   1.764   2.305
 2883TIP3    H2 8586   6.680   1.891   2.250
 2884TIP3   OH2 8587   5.588   1.820   2.650
 2884TIP3    H1 8588   5.651   1.893   2.672
 2884TIP3    H2 8589   5.636   1.780   2.573
 2885TIP3   OH2 8590   5.652   2.675   2.759
 2885TIP3    H1 8591   5.626   2.760   2.718
 2885TIP3    H2 8592   5.572   2.659   2.814
 2886TIP3   OH2 8593   6.487   2.882   2.236
 2886TIP3    H1 8594   6.397   2.872   2.275
 2886TIP3    H2 8595   6.478   2.966   2.188
 2887TIP3   OH2 8596   6.776   1.783   2.598
 2887TIP3    H1 8597   6.688   1.808   2.565
 2887TIP3    H2 8598   6.835   1.814   2.526
 2888TIP3   OH2 8599   6.075   1.425   2.581
 2888TIP3    H1 8600   6.058   1.330   2.594
 2888TIP3    H2 8601   5.996   1.463   2.626
 2889TIP3   OH2 8602   6.187   2.928   1.910
 2889TIP3    H1 8603   6.235   2.845   1.888
 2889TIP3    H2 8604   6.248   2.992   1.868
 2890TIP3   OH2 8605   6.327   2.713   1.815
 2890TIP3    H1 8606   6.299   2.633   1.768
 2890TIP3    H2 8607   6.364   2.675   1.898
 2891TIP3   OH2 8608   6.713   2.794   2.578
 2891TIP3    H1 8609   6.700   2.716   2.518
 2891TIP3    H2 8610   6.693   2.868   2.518
 2892TIP3   OH2 8611   6.004   2.189   1.834
 2892TIP3    H1 8612   5.924   2.240   1.812
 2892TIP3    H2 8613   6.049   2.184   1.748
 2893TIP3   OH2 8614   5.963   1.969   1.553
 2893TIP3    H1 8615   6.030   2.023   1.598
 2893TIP3    H2 8616   6.020   1.906   1.505
 2894TIP3   OH2 8617   6.907   2.434   2.425
 2894TIP3    H1 8618   6.823   2.484   2.428
 2894TIP3    H2 8619   6.936   2.454   2.333
 2895TIP3   OH2 8620   6.350   2.270   1.807
 2895TIP3    H1 8621   6.295   2.294   1.885
 2895TIP3    H2 8622   6.434   2.245   1.850
 2896TIP3   OH2 8623   6.585   2.310   2.717
 2896TIP3    H1 8624   6.580   2.395   2.763
 2896TIP3    H2 8625   6.498   2.310   2.672
 2897TIP3   OH2 8626   5.582   2.269   2.222
 2897TIP3    H1 8627   5.539   2.209   2.158
 2897TIP3    H2 8628   5.658   2.215   2.252
 2898TIP3   OH2 8629   5.712   2.680   2.372
 2898TIP3    H1 8630   5.689   2.637   2.288
 2898TIP3    H2 8631   5.802   2.644   2.389
 2899TIP3   OH2 8632   5.728   2.235   2.583
 2899TIP3    H1 8633   5.750   2.217   2.489
 2899TIP3    H2 8634   5.763   2.325   2.597
 2900TIP3   OH2 8635   6.246   2.877   2.355
 2900TIP3    H1 8636   6.230   2.957   2.408
 2900TIP3    H2 8637   6.229   2.804   2.417
 2901TIP3   OH2 8638   5.856   2.795   2.903
 2901TIP3    H1 8639   5.795   2.858   2.946
 2901TIP3    H2 8640   5.792   2.742   2.851
 2902TIP3   OH2 8641   6.190   2.128   1.632
 2902TIP3    H1 8642   6.250   2.188   1.682
 2902TIP3    H2 8643   6.216   2.150   1.539
 2903TIP3   OH2 8644   5.612   2.349   3.006
 2903TIP3    H1 8645   5.615   2.438   3.047
 2903TIP3    H2 8646   5.516   2.331   3.009
 2904TIP3   OH2 8647   5.933   2.809   1.912
 2904TIP3    H1 8648   6.012   2.863   1.925
 2904TIP3    H2 8649   5.873   2.869   1.865
 2905TIP3   OH2 8650   5.652   2.964   2.988
 2905TIP3    H1 8651   5.617   2.965   2.897
 2905TIP3    H2 8652   5.572   2.940   3.040
 2906TIP3   OH2 8653   6.705   1.365   1.679
 2906TIP3    H1 8654   6.624   1.389   1.728
 2906TIP3    H2 8655   6.721   1.448   1.628
 2907TIP3   OH2 8656   5.444   2.109   2.033
 2907TIP3    H1 8657   5.383   2.144   1.965
 2907TIP3    H2 8658   5.410   2.019   2.044
 2908TIP3   OH2 8659   6.506   2.737   1.231
 2908TIP3    H1 8660   6.513   2.833   1.213
 2908TIP3    H2 8661   6.598   2.707   1.217
 2909TIP3   OH2 8662   5.230   2.495   2.935
 2909TIP3    H1 8663   5.163   2.475   2.866
 2909TIP3    H2 8664   5.266   2.406   2.955
 2910TIP3   OH2 8665   5.083   2.690   2.562
 2910TIP3    H1 8666   5.179   2.683   2.559
 2910TIP3    H2 8667   5.070   2.768   2.618
 2911TIP3   OH2 8668   6.950   3.140   2.624
 2911TIP3    H1 8669   6.946   3.043   2.634
 2911TIP3    H2 8670   6.866   3.165   2.669
 2912TIP3   OH2 8671   6.056   2.922   2.760
 2912TIP3    H1 8672   6.054   3.016   2.790
 2912TIP3    H2 8673   5.982   2.885   2.813
 2913TIP3   OH2 8674   5.815   3.053   1.710
 2913TIP3    H1 8675   5.771   3.033   1.625
 2913TIP3    H2 8676   5.782   3.142   1.731
 2914TIP3   OH2 8677   5.252   2.903   2.094
 2914TIP3    H1 8678   5.303   2.894   2.178
 2914TIP3    H2 8679   5.186   2.834   2.108
 2915TIP3   OH2 8680   6.017   2.955   1.351
 2915TIP3    H1 8681   6.076   2.886   1.312
 2915TIP3    H2 8682   6.052   2.962   1.442
 2916TIP3   OH2 8683   6.067   3.004   1.622
 2916TIP3    H1 8684   5.978   3.013   1.661
 2916TIP3    H2 8685   6.115   2.959   1.693
 2917TIP3   OH2 8686   6.838   2.270   2.897
 2917TIP3    H1 8687   6.758   2.284   2.844
 2917TIP3    H2 8688   6.853   2.174   2.885
 2918TIP3   OH2 8689   5.434   2.677   2.923
 2918TIP3    H1 8690   5.483   2.660   3.006
 2918TIP3    H2 8691   5.360   2.614   2.929
 2919TIP3   OH2 8692   5.835   1.501   2.707
 2919TIP3    H1 8693   5.746   1.469   2.680
 2919TIP3    H2 8694   5.809   1.583   2.752
 2920TIP3   OH2 8695   6.367   1.617   2.902
 2920TIP3    H1 8696   6.434   1.587   2.966
 2920TIP3    H2 8697   6.283   1.596   2.947
 2921TIP3   OH2 8698   6.610   2.047   2.822
 2921TIP3    H1 8699   6.557   2.043   2.905
 2921TIP3    H2 8700   6.583   2.131   2.783
 2922TIP3   OH2 8701   6.268   2.176   1.378
 2922TIP3    H1 8702   6.232   2.151   1.291
 2922TIP3    H2 8703   6.349   2.223   1.350
 2923TIP3   OH2 8704   5.979   1.550   1.678
 2923TIP3    H1 8705   5.945   1.546   1.770
 2923TIP3    H2 8706   5.940   1.467   1.643
 2924TIP3   OH2 8707   5.768   2.013   2.729
 2924TIP3    H1 8708   5.714   2.035   2.807
 2924TIP3    H2 8709   5.755   2.095   2.674
 2925TIP3   OH2 8710   5.649   1.903   2.240
 2925TIP3    H1 8711   5.556   1.876   2.258
 2925TIP3    H2 8712   5.662   1.862   2.151
 2926TIP3   OH2 8713   6.141   1.989   1.968
 2926TIP3    H1 8714   6.088   2.060   1.925
 2926TIP3    H2 8715   6.195   1.957   1.893
 2927TIP3   OH2 8716   6.315   2.268   3.056
 2927TIP3    H1 8717   6.293   2.194   3.117
 2927TIP3    H2 8718   6.410   2.279   3.075
 2928TIP3   OH2 8719   6.297   2.018   2.207
 2928TIP3    H1 8720   6.237   2.048   2.135
 2928TIP3    H2 8721   6.331   1.937   2.164
 2929TIP3   OH2 8722   5.586   2.046   2.934
 2929TIP3    H1 8723   5.606   2.111   3.003
 2929TIP3    H2 8724   5.573   1.964   2.985
 2930TIP3   OH2 8725   5.636   1.524   1.645
 2930TIP3    H1 8726   5.625   1.520   1.742
 2930TIP3    H2 8727   5.556   1.574   1.619
 2931TIP3   OH2 8728   5.179   1.568   2.516
 2931TIP3    H1 8729   5.257   1.598   2.566
 2931TIP3    H2 8730   5.215   1.532   2.433
 2932TIP3   OH2 8731   5.160   1.544   2.034
 2932TIP3    H1 8732   5.200   1.586   1.955
 2932TIP3    H2 8733   5.093   1.612   2.056
 2933TIP3   OH2 8734   6.312   2.263   2.632
 2933TIP3    H1 8735   6.342   2.191   2.572
 2933TIP3    H2 8736   6.279   2.209   2.707
 2934TIP3   OH2 8737   5.978   1.725   2.302
 2934TIP3    H1 8738   5.894   1.723   2.352
 2934TIP3    H2 8739   6.043   1.725   2.373
 2935TIP3   OH2 8740   5.410   1.783   2.307
 2935TIP3    H1 8741   5.315   1.793   2.283
 2935TIP3    H2 8742   5.428   1.690   2.285
 2936TIP3   OH2 8743   5.681   1.779   1.997
 2936TIP3    H1 8744   5.775   1.792   1.974
 2936TIP3    H2 8745   5.634   1.800   1.913
 2937TIP3   OH2 8746   6.470   1.800   2.507
 2937TIP3    H1 8747   6.430   1.813   2.596
 2937TIP3    H2 8748   6.405   1.739   2.467
 2938TIP3   OH2 8749   5.521   1.814   1.778
 2938TIP3    H1 8750   5.451   1.766   1.730
 2938TIP3    H2 8751   5.573   1.848   1.702
 2939TIP3   OH2 8752   6.639   3.488   2.722
 2939TIP3    H1 8753   6.634   3.512   2.627
 2939TIP3    H2 8754   6.714   3.542   2.752
 2940TIP3   OH2 8755   5.596   2.598   3.144
 2940TIP3    H1 8756   5.674   2.630   3.191
 2940TIP3    H2 8757   5.530   2.600   3.216
 2941TIP3   OH2 8758   6.060   2.053   2.399
 2941TIP3    H1 8759   6.132   2.014   2.347
 2941TIP3    H2 8760   6.070   2.008   2.485
 2942TIP3   OH2 8761   5.587   1.540   2.278
 2942TIP3    H1 8762   5.549   1.461   2.323
 2942TIP3    H2 8763   5.630   1.500   2.201
 2943TIP3   OH2 8764   6.037   1.947   2.691
 2943TIP3    H1 8765   5.947   1.983   2.702
 2943TIP3    H2 8766   6.093   2.011   2.739
 2944TIP3   OH2 8767   5.771   2.340   1.783
 2944TIP3    H1 8768   5.698   2.275   1.773
 2944TIP3    H2 8769   5.754   2.374   1.875
 2945TIP3   OH2 8770   6.673   2.576   2.414
 2945TIP3    H1 8771   6.697   2.626   2.333
 2945TIP3    H2 8772   6.588   2.534   2.388
 2946TIP3   OH2 8773   6.232   1.650   1.651
 2946TIP3    H1 8774   6.135   1.634   1.654
 2946TIP3    H2 8775   6.241   1.746   1.668
 2947TIP3   OH2 8776   6.178   2.661   2.780
 2947TIP3    H1 8777   6.190   2.637   2.872
 2947TIP3    H2 8778   6.135   2.748   2.785
 2948TIP3   OH2 8779   6.301   1.901   1.751
 2948TIP3    H1 8780   6.398   1.907   1.763
 2948TIP3    H2 8781   6.282   1.979   1.695
 2949TIP3   OH2 8782   5.480   2.375   2.463
 2949TIP3    H1 8783   5.506   2.338   2.375
 2949TIP3    H2 8784   5.483   2.296   2.518
 2950TIP3   OH2 8785   5.921   2.490   1.609
 2950TIP3    H1 8786   5.873   2.577   1.613
 2950TIP3    H2 8787   5.865   2.435   1.667
 2951TIP3   OH2 8788   5.345   2.281   3.071
 2951TIP3    H1 8789   5.361   2.265   3.166
 2951TIP3    H2 8790   5.274   2.217   3.052
 2952TIP3   OH2 8791   6.070   2.396   3.095
 2952TIP3    H1 8792   6.009   2.340   3.044
 2952TIP3    H2 8793   6.157   2.362   3.064
 2953TIP3   OH2 8794   6.335   2.918   2.676
 2953TIP3    H1 8795   6.238   2.915   2.688
 2953TIP3    H2 8796   6.361   2.971   2.755
 2954TIP3   OH2 8797   6.743   1.991   1.587
 2954TIP3    H1 8798   6.681   1.946   1.524
 2954TIP3    H2 8799   6.741   2.079   1.544
 2955TIP3   OH2 8800   6.964   2.850   2.665
 2955TIP3    H1 8801   6.866   2.843   2.657
 2955TIP3    H2 8802   6.989   2.818   2.576
 2956TIP3   OH2 8803   6.448   2.808   1.496
 2956TIP3    H1 8804   6.416   2.736   1.552
 2956TIP3    H2 8805   6.456   2.766   1.408
 2957TIP3   OH2 8806   6.440   2.437   2.335
 2957TIP3    H1 8807   6.346   2.413   2.346
 2957TIP3    H2 8808   6.473   2.359   2.288
 2958TIP3   OH2 8809   5.567   2.666   2.085
 2958TIP3    H1 8810   5.570   2.747   2.029
 2958TIP3    H2 8811   5.472   2.654   2.095
 2959TIP3   OH2 8812   5.128   1.970   1.789
 2959TIP3    H1 8813   5.178   2.052   1.805
 2959TIP3    H2 8814   5.052   1.984   1.850
 2960TIP3   OH2 8815   5.705   2.431   2.029
 2960TIP3    H1 8816   5.671   2.521   2.047
 2960TIP3    H2 8817   5.669   2.381   2.104
 2961TIP3   OH2 8818   5.835   3.011   2.554
 2961TIP3    H1 8819   5.875   3.084   2.502
 2961TIP3    H2 8820   5.913   2.976   2.600
 2962TIP3   OH2 8821   5.487   2.905   1.937
 2962TIP3    H1 8822   5.401   2.915   1.982
 2962TIP3    H2 8823   5.519   2.998   1.939
 2963TIP3   OH2 8824   6.225   2.644   2.511
 2963TIP3    H1 8825   6.216   2.642   2.609
 2963TIP3    H2 8826   6.302   2.588   2.497
 2964TIP3   OH2 8827   6.198   2.538   1.394
 2964TIP3    H1 8828   6.249   2.512   1.474
 2964TIP3    H2 8829   6.109   2.511   1.419
 2965TIP3   OH2 8830   6.473   3.178   2.563
 2965TIP3    H1 8831   6.394   3.122   2.555
 2965TIP3    H2 8832   6.458   3.243   2.490
 2966TIP3   OH2 8833   6.538   3.012   1.214
 2966TIP3    H1 8834   6.573   3.083   1.158
 2966TIP3    H2 8835   6.458   3.057   1.248
 2967TIP3   OH2 8836   5.555   1.789   3.082
 2967TIP3    H1 8837   5.458   1.793   3.091
 2967TIP3    H2 8838   5.580   1.725   3.150
 2968TIP3   OH2 8839   6.358   2.475   1.616
 2968TIP3    H1 8840   6.348   2.406   1.684
 2968TIP3    H2 8841   6.454   2.470   1.599
 2969TIP3   OH2 8842   5.273   2.871   2.712
 2969TIP3    H1 8843   5.328   2.799   2.746
 2969TIP3    H2 8844   5.300   2.944   2.770
 2970TIP3   OH2 8845   5.563   2.519   1.396
 2970TIP3    H1 8846   5.578   2.429   1.362
 2970TIP3    H2 8847   5.544   2.501   1.490
 2971TIP3   OH2 8848   5.508   2.521   1.673
 2971TIP3    H1 8849   5.588   2.498   1.723
 2971TIP3    H2 8850   5.512   2.620   1.675
 2972TIP3   OH2 8851   5.248   2.220   1.864
 2972TIP3    H1 8852   5.242   2.295   1.923
 2972TIP3    H2 8853   5.265   2.266   1.780
 2973TIP3   OH2 8854   6.392   1.857   2.766
 2973TIP3    H1 8855   6.477   1.889   2.800
 2973TIP3    H2 8856   6.378   1.774   2.817
 2974TIP3   OH2 8857   6.274   1.604   1.928
 2974TIP3    H1 8858   6.259   1.624   1.833
 2974TIP3    H2 8859   6.312   1.688   1.961
 2975TIP3   OH2 8860   5.776   2.719   1.619
 2975TIP3    H1 8861   5.689   2.749   1.651
 2975TIP3    H2 8862   5.790   2.778   1.545
 2976TIP3   OH2 8863   5.965   1.783   2.029
 2976TIP3    H1 8864   6.029   1.855   2.011
 2976TIP3    H2 8865   5.970   1.778   2.127
 2977TIP3   OH2 8866   6.232   2.102   2.837
 2977TIP3    H1 8867   6.254   2.154   2.916
 2977TIP3    H2 8868   6.287   2.023   2.846
 2978TIP3   OH2 8869   6.109   1.512   2.133
 2978TIP3    H1 8870   6.097   1.591   2.188
 2978TIP3    H2 8871   6.169   1.546   2.063
 2979TIP3   OH2 8872   5.518   2.795   1.682
 2979TIP3    H1 8873   5.489   2.864   1.618
 2979TIP3    H2 8874   5.504   2.840   1.768
 2980TIP3   OH2 8875   5.619   1.509   1.922
 2980TIP3    H1 8876   5.617   1.599   1.958
 2980TIP3    H2 8877   5.715   1.490   1.929
 2981TIP3   OH2 8878   6.877   2.003   2.818
 2981TIP3    H1 8879   6.778   2.002   2.826
 2981TIP3    H2 8880   6.886   1.961   2.731
 2982TIP3   OH2 8881   6.524   2.197   2.207
 2982TIP3    H1 8882   6.449   2.137   2.216
 2982TIP3    H2 8883   6.596   2.149   2.254
 2983TIP3   OH2 8884   5.232   2.428   1.673
 2983TIP3    H1 8885   5.299   2.498   1.683
 2983TIP3    H2 8886   5.279   2.373   1.606
 2984TIP3   OH2 8887   5.184   1.699   1.809
 2984TIP3    H1 8888   5.180   1.796   1.804
 2984TIP3    H2 8889   5.102   1.673   1.765
 2985TIP3   OH2 8890   6.493   3.153   2.156
 2985TIP3    H1 8891   6.449   3.200   2.081
 2985TIP3    H2 8892   6.587   3.170   2.134
 2986TIP3   OH2 8893   5.571   1.421   2.682
 2986TIP3    H1 8894   5.538   1.388   2.595
 2986TIP3    H2 8895   5.559   1.342   2.739
 2987TIP3   OH2 8896   5.092   2.618   2.067
 2987TIP3    H1 8897   5.039   2.677   2.122
 2987TIP3    H2 8898   5.088   2.665   1.981
 2988TIP3   OH2 8899   5.265   3.179   3.134
 2988TIP3    H1 8900   5.351   3.178   3.181
 2988TIP3    H2 8901   5.243   3.084   3.132
 2989TIP3   OH2 8902   5.746   3.142   3.185
 2989TIP3    H1 8903   5.842   3.131   3.183
 2989TIP3    H2 8904   5.719   3.086   3.109
 2990TIP3   OH2 8905   5.730   2.724   1.315
 2990TIP3    H1 8906   5.677   2.647   1.344
 2990TIP3    H2 8907   5.803   2.680   1.267
 2991TIP3   OH2 8908   6.385   3.053   2.913
 2991TIP3    H1 8909   6.377   2.983   2.981
 2991TIP3    H2 8910   6.462   3.104   2.944
 2992TIP3   OH2 8911   6.169   2.767   1.220
 2992TIP3    H1 8912   6.212   2.698   1.274
 2992TIP3    H2 8913   6.219   2.763   1.136
 2993TIP3   OH2 8914   5.396   2.587   3.337
 2993TIP3    H1 8915   5.412   2.491   3.336
 2993TIP3    H2 8916   5.309   2.592   3.291
 2994TIP3   OH2 8917   5.371   2.239   1.532
 2994TIP3    H1 8918   5.432   2.203   1.598
 2994TIP3    H2 8919   5.432   2.244   1.455
 2995TIP3   OH2 8920   6.000   2.671   3.110
 2995TIP3    H1 8921   5.959   2.690   3.023
 2995TIP3    H2 8922   6.030   2.579   3.100
 2996TIP3   OH2 8923   5.881   2.434   1.338
 2996TIP3    H1 8924   5.884   2.447   1.434
 2996TIP3    H2 8925   5.881   2.336   1.332
 2997TIP3   OH2 8926   6.497   2.680   2.717
 2997TIP3    H1 8927   6.569   2.726   2.670
 2997TIP3    H2 8928   6.424   2.742   2.702
 2998TIP3   OH2 8929   5.512   2.323   3.315
 2998TIP3    H1 8930   5.586   2.266   3.289
 2998TIP3    H2 8931   5.540   2.352   3.405
 2999TIP3   OH2 8932   5.577   2.139   1.751
 2999TIP3    H1 8933   5.562   2.090   1.833
 2999TIP3    H2 8934   5.617   2.069   1.694
 3000TIP3   OH2 8935   5.852   2.209   2.982
 3000TIP3    H1 8936   5.771   2.265   2.981
 3000TIP3    H2 8937   5.900   2.241   2.902
 3001TIP3   OH2 8938   5.681   1.938   1.591
 3001TIP3    H1 8939   5.655   1.939   1.497
 3001TIP3    H2 8940   5.779   1.940   1.583
 3002TIP3   OH2 8941   6.368   2.610   3.115
 3002TIP3    H1 8942   6.442   2.582   3.060
 3002TIP3    H2 8943   6.363   2.538   3.181
 3003TIP3   OH2 8944   6.505   2.266   1.255
 3003TIP3    H1 8945   6.483   2.220   1.171
 3003TIP3    H2 8946   6.472   2.356   1.232
 3004TIP3   OH2 8947   5.974   1.995   3.104
 3004TIP3    H1 8948   5.972   1.915   3.048
 3004TIP3    H2 8949   5.930   2.061   3.047
 3005TIP3   OH2 8950   5.975   1.780   2.913
 3005TIP3    H1 8951   6.003   1.822   2.829
 3005TIP3    H2 8952   5.882   1.758   2.894
 3006TIP3   OH2 8953   6.004   2.319   2.788
 3006TIP3    H1 8954   6.085   2.325   2.735
 3006TIP3    H2 8955   5.945   2.383   2.743
 3007TIP3   OH2 8956   6.587   2.284   3.169
 3007TIP3    H1 8957   6.633   2.199   3.170
 3007TIP3    H2 8958   6.653   2.342   3.129
 3008TIP3   OH2 8959   6.626   2.538   2.907
 3008TIP3    H1 8960   6.568   2.590   2.846
 3008TIP3    H2 8961   6.713   2.557   2.865
 3009TIP3   OH2 8962   5.854   2.105   3.339
 3009TIP3    H1 8963   5.784   2.037   3.350
 3009TIP3    H2 8964   5.885   2.085   3.248
 3010TIP3   OH2 8965   6.108   1.545   2.980
 3010TIP3    H1 8966   6.058   1.626   2.956
 3010TIP3    H2 8967   6.039   1.476   2.966
 3011TIP3   OH2 8968   6.233   2.048   3.195
 3011TIP3    H1 8969   6.217   2.036   3.290
 3011TIP3    H2 8970   6.144   2.024   3.161
 3012TIP3   OH2 8971   6.474   2.003   3.052
 3012TIP3    H1 8972   6.397   2.001   3.112
 3012TIP3    H2 8973   6.546   1.968   3.109
 3013TIP3   OH2 8974   6.706   1.940   3.203
 3013TIP3    H1 8975   6.716   1.844   3.219
 3013TIP3    H2 8976   6.700   1.977   3.293
 3014TIP3   OH2 8977   5.691   1.887   3.387
 3014TIP3    H1 8978   5.694   1.796   3.350
 3014TIP3    H2 8979   5.726   1.871   3.477
 3015TIP3   OH2 8980   6.202   1.554   3.237
 3015TIP3    H1 8981   6.269   1.482   3.229
 3015TIP3    H2 8982   6.162   1.550   3.148
 3016TIP3   OH2 8983   6.268   1.768   3.396
 3016TIP3    H1 8984   6.247   1.698   3.331
 3016TIP3    H2 8985   6.190   1.828   3.388
 3017TIP3   OH2 8986   5.489   2.998   1.496
 3017TIP3    H1 8987   5.584   2.993   1.476
 3017TIP3    H2 8988   5.458   3.046   1.417
 3018TIP3   OH2 8989   4.968   2.360   1.747
 3018TIP3    H1 8990   5.055   2.394   1.719
 3018TIP3    H2 8991   4.960   2.281   1.688
 3019TIP3   OH2 8992   4.884   2.990   2.125
 3019TIP3    H1 8993   4.816   2.930   2.089
 3019TIP3    H2 8994   4.927   2.933   2.192
 3020TIP3   OH2 8995   5.022   2.839   2.310
 3020TIP3    H1 8996   5.009   2.771   2.378
 3020TIP3    H2 8997   5.070   2.905   2.364
 3021TIP3   OH2 8998   6.747   3.241   2.112
 3021TIP3    H1 8999   6.773   3.277   2.198
 3021TIP3    H2 9000   6.805   3.288   2.051
 3022TIP3   OH2 9001   6.775   3.265   2.394
 3022TIP3    H1 9002   6.730   3.178   2.388
 3022TIP3    H2 9003   6.850   3.239   2.450
 3023TIP3   OH2 9004   6.824   2.939   2.969
 3023TIP3    H1 9005   6.748   2.948   3.031
 3023TIP3    H2 9006   6.862   3.029   2.971
 3024TIP3   OH2 9007   6.636   2.453   1.588
 3024TIP3    H1 9008   6.704   2.517   1.557
 3024TIP3    H2 9009   6.681   2.415   1.666
 3025TIP3   OH2 9010   6.766   2.322   1.792
 3025TIP3    H1 9011   6.699   2.279   1.849
 3025TIP3    H2 9012   6.828   2.360   1.857
 3026TIP3   OH2 9013   6.821   2.713   2.226
 3026TIP3    H1 9014   6.871   2.647   2.174
 3026TIP3    H2 9015   6.813   2.787   2.161
 3027TIP3   OH2 9016   6.652   3.014   2.419
 3027TIP3    H1 9017   6.579   3.056   2.469
 3027TIP3    H2 9018   6.603   2.966   2.348
 3028TIP3   OH2 9019   6.705   2.229   1.438
 3028TIP3    H1 9020   6.634   2.229   1.369
 3028TIP3    H2 9021   6.674   2.305   1.492
 3029TIP3   OH2 9022   6.575   1.905   1.392
 3029TIP3    H1 9023   6.532   1.940   1.314
 3029TIP3    H2 9024   6.549   1.810   1.387
 3030TIP3   OH2 9025   6.580   2.178   1.937
 3030TIP3    H1 9026   6.587   2.081   1.928
 3030TIP3    H2 9027   6.566   2.190   2.033
 3031TIP3   OH2 9028   5.205   2.248   2.686
 3031TIP3    H1 9029   5.208   2.223   2.591
 3031TIP3    H2 9030   5.302   2.252   2.704
 3032TIP3   OH2 9031   6.869   2.602   2.796
 3032TIP3    H1 9032   6.941   2.537   2.785
 3032TIP3    H2 9033   6.890   2.668   2.728
 3033TIP3   OH2 9034   7.056   2.409   2.815
 3033TIP3    H1 9035   6.979   2.359   2.850
 3033TIP3    H2 9036   7.126   2.342   2.829
 3034TIP3   OH2 9037   6.513   1.642   1.392
 3034TIP3    H1 9038   6.591   1.602   1.434
 3034TIP3    H2 9039   6.444   1.574   1.398
 3035TIP3   OH2 9040   6.577   1.895   1.833
 3035TIP3    H1 9041   6.617   1.806   1.848
 3035TIP3    H2 9042   6.634   1.926   1.760
 3036TIP3   OH2 9043   6.738   2.068   2.328
 3036TIP3    H1 9044   6.823   2.094   2.286
 3036TIP3    H2 9045   6.752   2.104   2.417
 3037TIP3   OH2 9046   6.808   2.213   2.561
 3037TIP3    H1 9047   6.728   2.246   2.606
 3037TIP3    H2 9048   6.840   2.293   2.514
 3038TIP3   OH2 9049   5.424   1.939   3.366
 3038TIP3    H1 9050   5.521   1.930   3.361
 3038TIP3    H2 9051   5.399   1.852   3.402
 3039TIP3   OH2 9052   7.262   1.805   3.115
 3039TIP3    H1 9053   7.317   1.737   3.071
 3039TIP3    H2 9054   7.229   1.857   3.039
 3040TIP3   OH2 9055   6.684   1.644   1.871
 3040TIP3    H1 9056   6.734   1.626   1.954
 3040TIP3    H2 9057   6.624   1.567   1.869
 3041TIP3   OH2 9058   5.386   1.628   2.692
 3041TIP3    H1 9059   5.449   1.554   2.698
 3041TIP3    H2 9060   5.446   1.704   2.683
 3042TIP3   OH2 9061   5.194   1.903   2.768
 3042TIP3    H1 9062   5.237   1.892   2.680
 3042TIP3    H2 9063   5.217   1.995   2.787
 3043TIP3   OH2 9064   7.128   1.942   2.923
 3043TIP3    H1 9065   7.040   1.982   2.935
 3043TIP3    H2 9066   7.103   1.870   2.861
 3044TIP3   OH2 9067   6.768   1.574   1.505
 3044TIP3    H1 9068   6.808   1.506   1.448
 3044TIP3    H2 9069   6.831   1.649   1.496
 3045TIP3   OH2 9070   5.172   1.412   2.269
 3045TIP3    H1 9071   5.078   1.404   2.292
 3045TIP3    H2 9072   5.169   1.466   2.187
 3046TIP3   OH2 9073   6.332   3.110   1.771
 3046TIP3    H1 9074   6.379   3.094   1.686
 3046TIP3    H2 9075   6.387   3.178   1.811
 3047TIP3   OH2 9076   5.392   1.489   3.080
 3047TIP3    H1 9077   5.338   1.482   3.160
 3047TIP3    H2 9078   5.327   1.526   3.017
 3048TIP3   OH2 9079   5.433   2.908   3.153
 3048TIP3    H1 9080   5.341   2.884   3.132
 3048TIP3    H2 9081   5.432   2.904   3.250
 3049TIP3   OH2 9082   5.609   2.947   2.703
 3049TIP3    H1 9083   5.560   3.021   2.664
 3049TIP3    H2 9084   5.694   2.961   2.657
 3050TIP3   OH2 9085   6.054   3.189   2.840
 3050TIP3    H1 9086   6.096   3.193   2.928
 3050TIP3    H2 9087   6.119   3.241   2.787
 3051TIP3   OH2 9088   6.232   3.342   2.699
 3051TIP3    H1 9089   6.303   3.292   2.655
 3051TIP3    H2 9090   6.284   3.399   2.760
 3052TIP3   OH2 9091   7.025   1.705   2.801
 3052TIP3    H1 9092   6.936   1.699   2.764
 3052TIP3    H2 9093   7.057   1.612   2.788
 3053TIP3   OH2 9094   5.285   3.202   2.727
 3053TIP3    H1 9095   5.196   3.234   2.702
 3053TIP3    H2 9096   5.295   3.246   2.813
 3054TIP3   OH2 9097   5.521   3.181   2.584
 3054TIP3    H1 9098   5.435   3.195   2.628
 3054TIP3    H2 9099   5.502   3.215   2.494
 3055TIP3   OH2 9100   5.948   3.210   2.382
 3055TIP3    H1 9101   5.879   3.229   2.315
 3055TIP3    H2 9102   5.959   3.298   2.423
 3056TIP3   OH2 9103   6.216   3.151   2.434
 3056TIP3    H1 9104   6.122   3.166   2.414
 3056TIP3    H2 9105   6.258   3.226   2.389
 3057TIP3   OH2 9106   6.428   3.344   2.348
 3057TIP3    H1 9107   6.410   3.427   2.300
 3057TIP3    H2 9108   6.450   3.283   2.275
 3058TIP3   OH2 9109   5.197   2.998   2.468
 3058TIP3    H1 9110   5.221   2.972   2.560
 3058TIP3    H2 9111   5.269   2.953   2.419
 3059TIP3   OH2 9112   5.390   2.868   2.326
 3059TIP3    H1 9113   5.406   2.785   2.377
 3059TIP3    H2 9114   5.481   2.905   2.322
 3060TIP3   OH2 9115   5.655   2.963   2.330
 3060TIP3    H1 9116   5.688   2.872   2.317
 3060TIP3    H2 9117   5.699   2.985   2.414
 3061TIP3   OH2 9118   6.235   1.622   2.423
 3061TIP3    H1 9119   6.189   1.551   2.471
 3061TIP3    H2 9120   6.303   1.572   2.373
 3062TIP3   OH2 9121   6.756   1.503   2.327
 3062TIP3    H1 9122   6.794   1.552   2.250
 3062TIP3    H2 9123   6.661   1.517   2.315
 3063TIP3   OH2 9124   6.851   1.600   2.089
 3063TIP3    H1 9125   6.924   1.549   2.047
 3063TIP3    H2 9126   6.883   1.691   2.072
 3064TIP3   OH2 9127   5.481   1.330   2.435
 3064TIP3    H1 9128   5.388   1.298   2.438
 3064TIP3    H2 9129   5.529   1.245   2.429
 3065TIP3   OH2 9130   5.267   1.199   2.081
 3065TIP3    H1 9131   5.296   1.257   2.008
 3065TIP3    H2 9132   5.238   1.263   2.148
 3066TIP3   OH2 9133   5.926   1.358   2.314
 3066TIP3    H1 9134   5.983   1.409   2.254
 3066TIP3    H2 9135   5.943   1.402   2.399
 3067TIP3   OH2 9136   6.474   1.508   2.298
 3067TIP3    H1 9137   6.468   1.473   2.208
 3067TIP3    H2 9138   6.459   1.427   2.352
 3068TIP3   OH2 9139   6.503   1.430   1.861
 3068TIP3    H1 9140   6.415   1.472   1.869
 3068TIP3    H2 9141   6.486   1.345   1.908
 3069TIP3   OH2 9142   4.982   2.770   1.868
 3069TIP3    H1 9143   4.898   2.742   1.828
 3069TIP3    H2 9144   4.978   2.865   1.846
 3070TIP3   OH2 9145   5.384   1.358   1.844
 3070TIP3    H1 9146   5.432   1.294   1.788
 3070TIP3    H2 9147   5.458   1.411   1.881
 3071TIP3   OH2 9148   5.897   1.533   1.944
 3071TIP3    H1 9149   5.956   1.484   2.003
 3071TIP3    H2 9150   5.920   1.625   1.969
 3072TIP3   OH2 9151   5.757   2.961   1.444
 3072TIP3    H1 9152   5.845   2.982   1.407
 3072TIP3    H2 9153   5.734   2.885   1.385
 3073TIP3   OH2 9154   6.476   3.076   1.537
 3073TIP3    H1 9155   6.469   2.978   1.525
 3073TIP3    H2 9156   6.431   3.107   1.456
 3074TIP3   OH2 9157   5.688   1.612   3.329
 3074TIP3    H1 9158   5.654   1.539   3.383
 3074TIP3    H2 9159   5.783   1.611   3.354
 3075TIP3   OH2 9160   5.939   1.609   3.446
 3075TIP3    H1 9161   6.021   1.582   3.403
 3075TIP3    H2 9162   5.926   1.536   3.511
 3076TIP3   OH2 9163   5.064   2.793   1.502
 3076TIP3    H1 9164   5.068   2.826   1.592
 3076TIP3    H2 9165   5.153   2.752   1.488
 3077TIP3   OH2 9166   6.763   1.668   3.232
 3077TIP3    H1 9167   6.783   1.636   3.323
 3077TIP3    H2 9168   6.851   1.663   3.189
 3078TIP3   OH2 9169   6.702   3.219   2.725
 3078TIP3    H1 9170   6.624   3.187   2.675
 3078TIP3    H2 9171   6.682   3.315   2.727
 3079TIP3   OH2 9172   7.266   2.490   2.238
 3079TIP3    H1 9173   7.294   2.420   2.299
 3079TIP3    H2 9174   7.348   2.539   2.225
 3080TIP3   OH2 9175   7.237   2.900   1.966
 3080TIP3    H1 9176   7.229   2.802   1.966
 3080TIP3    H2 9177   7.333   2.908   1.954
 3081TIP3   OH2 9178   6.942   2.102   1.748
 3081TIP3    H1 9179   6.891   2.184   1.760
 3081TIP3    H2 9180   6.874   2.045   1.707
 3082TIP3   OH2 9181   7.007   2.390   1.920
 3082TIP3    H1 9182   7.054   2.310   1.955
 3082TIP3    H2 9183   7.057   2.407   1.839
 3083TIP3   OH2 9184   7.868   3.323   1.550
 3083TIP3    H1 9185   7.963   3.296   1.550
 3083TIP3    H2 9186   7.852   3.330   1.644
 3084TIP3   OH2 9187   7.773   2.803   1.922
 3084TIP3    H1 9188   7.772   2.765   1.833
 3084TIP3    H2 9189   7.852   2.859   1.923
 3085TIP3   OH2 9190   7.491   1.980   1.929
 3085TIP3    H1 9191   7.504   2.046   1.859
 3085TIP3    H2 9192   7.460   1.904   1.876
 3086TIP3   OH2 9193   7.150   2.181   2.024
 3086TIP3    H1 9194   7.232   2.159   2.073
 3086TIP3    H2 9195   7.164   2.126   1.943
 3087TIP3   OH2 9196   7.576   2.383   1.816
 3087TIP3    H1 9197   7.667   2.349   1.831
 3087TIP3    H2 9198   7.533   2.301   1.785
 3088TIP3   OH2 9199   7.514   1.973   2.362
 3088TIP3    H1 9200   7.456   2.001   2.289
 3088TIP3    H2 9201   7.457   1.993   2.439
 3089TIP3   OH2 9202   7.624   2.736   2.157
 3089TIP3    H1 9203   7.557   2.800   2.192
 3089TIP3    H2 9204   7.663   2.787   2.084
 3090TIP3   OH2 9205   7.378   2.081   2.147
 3090TIP3    H1 9206   7.446   2.149   2.165
 3090TIP3    H2 9207   7.420   2.038   2.067
 3091TIP3   OH2 9208   7.449   2.930   2.247
 3091TIP3    H1 9209   7.422   3.014   2.205
 3091TIP3    H2 9210   7.369   2.913   2.300
 3092TIP3   OH2 9211   6.841   2.620   1.480
 3092TIP3    H1 9212   6.800   2.645   1.395
 3092TIP3    H2 9213   6.870   2.707   1.514
 3093TIP3   OH2 9214   7.369   2.529   1.708
 3093TIP3    H1 9215   7.327   2.470   1.641
 3093TIP3    H2 9216   7.446   2.474   1.737
 3094TIP3   OH2 9217   7.500   2.937   1.857
 3094TIP3    H1 9218   7.475   2.900   1.770
 3094TIP3    H2 9219   7.587   2.897   1.873
 3095TIP3   OH2 9220   7.514   2.496   2.065
 3095TIP3    H1 9221   7.540   2.471   1.973
 3095TIP3    H2 9222   7.555   2.583   2.077
 3096TIP3   OH2 9223   7.650   3.052   2.397
 3096TIP3    H1 9224   7.587   3.117   2.436
 3096TIP3    H2 9225   7.588   2.998   2.344
 3097TIP3   OH2 9226   7.404   2.614   2.489
 3097TIP3    H1 9227   7.404   2.701   2.535
 3097TIP3    H2 9228   7.310   2.590   2.495
 3098TIP3   OH2 9229   7.735   3.098   1.427
 3098TIP3    H1 9230   7.764   3.188   1.448
 3098TIP3    H2 9231   7.677   3.112   1.352
 3099TIP3   OH2 9232   7.446   3.223   2.476
 3099TIP3    H1 9233   7.412   3.222   2.384
 3099TIP3    H2 9234   7.365   3.199   2.527
 3100TIP3   OH2 9235   7.242   2.369   1.518
 3100TIP3    H1 9236   7.177   2.411   1.459
 3100TIP3    H2 9237   7.205   2.280   1.526
 3101TIP3   OH2 9238   7.026   2.752   2.421
 3101TIP3    H1 9239   6.959   2.732   2.352
 3101TIP3    H2 9240   7.062   2.664   2.443
 3102TIP3   OH2 9241   6.879   2.943   2.057
 3102TIP3    H1 9242   6.975   2.939   2.045
 3102TIP3    H2 9243   6.868   3.025   2.107
 3103TIP3   OH2 9244   7.837   3.171   2.234
 3103TIP3    H1 9245   7.843   3.262   2.270
 3103TIP3    H2 9246   7.771   3.132   2.296
 3104TIP3   OH2 9247   7.613   3.309   1.194
 3104TIP3    H1 9248   7.567   3.287   1.112
 3104TIP3    H2 9249   7.578   3.397   1.216
 3105TIP3   OH2 9250   7.048   3.161   1.580
 3105TIP3    H1 9251   7.094   3.150   1.666
 3105TIP3    H2 9252   6.993   3.080   1.579
 3106TIP3   OH2 9253   7.886   3.288   1.133
 3106TIP3    H1 9254   7.791   3.287   1.156
 3106TIP3    H2 9255   7.910   3.195   1.150
 3107TIP3   OH2 9256   7.231   2.934   2.410
 3107TIP3    H1 9257   7.279   2.915   2.492
 3107TIP3    H2 9258   7.156   2.871   2.415
 3108TIP3   OH2 9259   7.620   1.745   2.216
 3108TIP3    H1 9260   7.533   1.723   2.176
 3108TIP3    H2 9261   7.607   1.838   2.236
 3109TIP3   OH2 9262   7.557   2.277   2.216
 3109TIP3    H1 9263   7.502   2.295   2.295
 3109TIP3    H2 9264   7.540   2.357   2.161
 3110TIP3   OH2 9265   7.446   2.162   1.723
 3110TIP3    H1 9266   7.356   2.128   1.745
 3110TIP3    H2 9267   7.460   2.119   1.636
 3111TIP3   OH2 9268   7.373   2.303   2.423
 3111TIP3    H1 9269   7.415   2.359   2.489
 3111TIP3    H2 9270   7.364   2.218   2.470
 3112TIP3   OH2 9271   7.417   1.751   1.125
 3112TIP3    H1 9272   7.446   1.759   1.218
 3112TIP3    H2 9273   7.355   1.824   1.116
 3113TIP3   OH2 9274   6.974   1.823   2.004
 3113TIP3    H1 9275   7.050   1.856   2.056
 3113TIP3    H2 9276   7.014   1.791   1.922
 3114TIP3   OH2 9277   6.947   1.805   1.524
 3114TIP3    H1 9278   6.990   1.844   1.445
 3114TIP3    H2 9279   6.885   1.878   1.545
 3115TIP3   OH2 9280   7.207   2.039   1.795
 3115TIP3    H1 9281   7.113   2.042   1.767
 3115TIP3    H2 9282   7.233   1.947   1.775
 3116TIP3   OH2 9283   7.488   2.039   1.476
 3116TIP3    H1 9284   7.570   2.040   1.426
 3116TIP3    H2 9285   7.421   2.053   1.405
 3117TIP3   OH2 9286   7.321   2.068   1.266
 3117TIP3    H1 9287   7.246   2.028   1.219
 3117TIP3    H2 9288   7.373   2.103   1.190
 3118TIP3   OH2 9289   7.389   2.857   2.630
 3118TIP3    H1 9290   7.467   2.893   2.676
 3118TIP3    H2 9291   7.324   2.855   2.703
 3119TIP3   OH2 9292   7.379   1.798   1.758
 3119TIP3    H1 9293   7.347   1.720   1.810
 3119TIP3    H2 9294   7.428   1.755   1.687
 3120TIP3   OH2 9295   7.826   2.205   2.231
 3120TIP3    H1 9296   7.736   2.230   2.200
 3120TIP3    H2 9297   7.875   2.289   2.226
 3121TIP3   OH2 9298   7.543   2.622   1.271
 3121TIP3    H1 9299   7.494   2.537   1.264
 3121TIP3    H2 9300   7.550   2.634   1.367
 3122TIP3   OH2 9301   7.924   2.887   2.309
 3122TIP3    H1 9302   7.981   2.884   2.386
 3122TIP3    H2 9303   7.922   2.982   2.288
 3123TIP3   OH2 9304   7.267   2.626   1.948
 3123TIP3    H1 9305   7.297   2.594   1.860
 3123TIP3    H2 9306   7.293   2.552   2.005
 3124TIP3   OH2 9307   7.686   2.745   1.072
 3124TIP3    H1 9308   7.655   2.835   1.097
 3124TIP3    H2 9309   7.651   2.693   1.146
 3125TIP3   OH2 9310   7.141   2.540   2.559
 3125TIP3    H1 9311   7.157   2.521   2.654
 3125TIP3    H2 9312   7.072   2.474   2.537
 3126TIP3   OH2 9313   7.868   2.649   2.583
 3126TIP3    H1 9314   7.808   2.603   2.520
 3126TIP3    H2 9315   7.953   2.612   2.556
 3127TIP3   OH2 9316   7.362   2.924   1.577
 3127TIP3    H1 9317   7.363   3.003   1.519
 3127TIP3    H2 9318   7.268   2.902   1.576
 3128TIP3   OH2 9319   6.925   2.229   1.273
 3128TIP3    H1 9320   6.971   2.313   1.294
 3128TIP3    H2 9321   6.848   2.233   1.334
 3129TIP3   OH2 9322   7.519   2.694   1.541
 3129TIP3    H1 9323   7.473   2.780   1.542
 3129TIP3    H2 9324   7.463   2.640   1.600
 3130TIP3   OH2 9325   7.630   3.263   2.041
 3130TIP3    H1 9326   7.666   3.339   1.992
 3130TIP3    H2 9327   7.708   3.235   2.093
 3131TIP3   OH2 9328   7.283   3.161   1.425
 3131TIP3    H1 9329   7.196   3.171   1.470
 3131TIP3    H2 9330   7.314   3.255   1.425
 3132TIP3   OH2 9331   7.349   2.051   2.574
 3132TIP3    H1 9332   7.252   2.049   2.579
 3132TIP3    H2 9333   7.375   1.981   2.636
 3133TIP3   OH2 9334   7.071   3.131   2.199
 3133TIP3    H1 9335   7.121   3.052   2.227
 3133TIP3    H2 9336   7.101   3.196   2.263
 3134TIP3   OH2 9337   7.357   2.774   0.883
 3134TIP3    H1 9338   7.361   2.683   0.851
 3134TIP3    H2 9339   7.340   2.761   0.979
 3135TIP3   OH2 9340   7.309   2.777   1.156
 3135TIP3    H1 9341   7.389   2.745   1.201
 3135TIP3    H2 9342   7.316   2.874   1.166
 3136TIP3   OH2 9343   7.043   2.473   1.356
 3136TIP3    H1 9344   6.975   2.517   1.412
 3136TIP3    H2 9345   7.056   2.542   1.289
 3137TIP3   OH2 9346   7.575   2.988   1.115
 3137TIP3    H1 9347   7.484   3.014   1.140
 3137TIP3    H2 9348   7.593   3.054   1.046
 3138TIP3   OH2 9349   7.314   3.054   1.168
 3138TIP3    H1 9350   7.280   3.122   1.106
 3138TIP3    H2 9351   7.298   3.096   1.255
 3139TIP3   OH2 9352   7.415   1.758   1.411
 3139TIP3    H1 9353   7.437   1.845   1.447
 3139TIP3    H2 9354   7.505   1.716   1.405
 3140TIP3   OH2 9355   7.035   2.681   1.162
 3140TIP3    H1 9356   7.102   2.750   1.172
 3140TIP3    H2 9357   7.078   2.627   1.093
 3141TIP3   OH2 9358   6.977   1.962   1.306
 3141TIP3    H1 9359   6.972   2.059   1.294
 3141TIP3    H2 9360   6.906   1.931   1.248
 3142TIP3   OH2 9361   7.350   1.681   2.171
 3142TIP3    H1 9362   7.334   1.646   2.081
 3142TIP3    H2 9363   7.349   1.600   2.225
 3143TIP3   OH2 9364   6.908   2.901   1.551
 3143TIP3    H1 9365   6.832   2.928   1.605
 3143TIP3    H2 9366   6.881   2.938   1.464
 3144TIP3   OH2 9367   7.060   3.436   2.621
 3144TIP3    H1 9368   7.146   3.434   2.667
 3144TIP3    H2 9369   7.036   3.342   2.619
 3145TIP3   OH2 9370   7.546   3.399   2.669
 3145TIP3    H1 9371   7.641   3.381   2.668
 3145TIP3    H2 9372   7.516   3.344   2.594
 3146TIP3   OH2 9373   7.520   2.975   0.797
 3146TIP3    H1 9374   7.456   2.908   0.829
 3146TIP3    H2 9375   7.602   2.924   0.804
 3147TIP3   OH2 9376   7.192   2.843   2.824
 3147TIP3    H1 9377   7.207   2.746   2.822
 3147TIP3    H2 9378   7.105   2.848   2.778
 3148TIP3   OH2 9379   7.173   2.497   1.010
 3148TIP3    H1 9380   7.225   2.462   1.085
 3148TIP3    H2 9381   7.241   2.499   0.941
 3149TIP3   OH2 9382   7.805   2.924   2.594
 3149TIP3    H1 9383   7.765   2.945   2.507
 3149TIP3    H2 9384   7.825   2.829   2.585
 3150TIP3   OH2 9385   7.666   2.682   0.813
 3150TIP3    H1 9386   7.683   2.712   0.906
 3150TIP3    H2 9387   7.599   2.615   0.830
 3151TIP3   OH2 9388   7.311   2.583   2.804
 3151TIP3    H1 9389   7.379   2.519   2.779
 3151TIP3    H2 9390   7.339   2.609   2.894
 3152TIP3   OH2 9391   7.381   2.395   1.238
 3152TIP3    H1 9392   7.350   2.349   1.318
 3152TIP3    H2 9393   7.420   2.322   1.185
 3153TIP3   OH2 9394   7.618   2.452   2.487
 3153TIP3    H1 9395   7.545   2.518   2.483
 3153TIP3    H2 9396   7.677   2.487   2.415
 3154TIP3   OH2 9397   7.481   2.189   1.075
 3154TIP3    H1 9398   7.447   2.196   0.983
 3154TIP3    H2 9399   7.575   2.169   1.054
 3155TIP3   OH2 9400   7.772   2.252   2.593
 3155TIP3    H1 9401   7.773   2.167   2.543
 3155TIP3    H2 9402   7.713   2.307   2.537
 3156TIP3   OH2 9403   7.779   2.023   2.422
 3156TIP3    H1 9404   7.789   2.077   2.340
 3156TIP3    H2 9405   7.690   1.986   2.406
 3157TIP3   OH2 9406   7.776   2.570   2.309
 3157TIP3    H1 9407   7.839   2.548   2.239
 3157TIP3    H2 9408   7.722   2.639   2.265
 3158TIP3   OH2 9409   7.653   2.365   2.826
 3158TIP3    H1 9410   7.584   2.297   2.837
 3158TIP3    H2 9411   7.685   2.346   2.735
 3159TIP3   OH2 9412   7.487   2.147   2.874
 3159TIP3    H1 9413   7.490   2.058   2.832
 3159TIP3    H2 9414   7.521   2.127   2.964
 3160TIP3   OH2 9415   7.275   3.260   0.984
 3160TIP3    H1 9416   7.372   3.256   0.969
 3160TIP3    H2 9417   7.248   3.304   0.902
 3161TIP3   OH2 9418   6.765   2.635   1.202
 3161TIP3    H1 9419   6.860   2.657   1.185
 3161TIP3    H2 9420   6.758   2.547   1.160
 3162TIP3   OH2 9421   6.678   3.250   1.611
 3162TIP3    H1 9422   6.611   3.188   1.574
 3162TIP3    H2 9423   6.723   3.192   1.676
 3163TIP3   OH2 9424   6.814   3.103   1.799
 3163TIP3    H1 9425   6.801   3.027   1.857
 3163TIP3    H2 9426   6.865   3.162   1.857
 3164TIP3   OH2 9427   7.001   2.505   2.172
 3164TIP3    H1 9428   6.999   2.474   2.079
 3164TIP3    H2 9429   7.098   2.508   2.188
 3165TIP3   OH2 9430   7.219   2.197   2.854
 3165TIP3    H1 9431   7.316   2.186   2.846
 3165TIP3    H2 9432   7.195   2.109   2.889
 3166TIP3   OH2 9433   7.175   1.891   2.184
 3166TIP3    H1 9434   7.235   1.813   2.186
 3166TIP3    H2 9435   7.241   1.962   2.175
 3167TIP3   OH2 9436   6.984   2.162   2.250
 3167TIP3    H1 9437   7.032   2.147   2.166
 3167TIP3    H2 9438   7.017   2.249   2.275
 3168TIP3   OH2 9439   6.965   1.663   1.752
 3168TIP3    H1 9440   6.870   1.661   1.774
 3168TIP3    H2 9441   6.965   1.721   1.673
 3169TIP3   OH2 9442   7.187   1.753   2.570
 3169TIP3    H1 9443   7.130   1.742   2.648
 3169TIP3    H2 9444   7.121   1.784   2.504
 3170TIP3   OH2 9445   7.228   3.168   2.643
 3170TIP3    H1 9446   7.137   3.143   2.620
 3170TIP3    H2 9447   7.229   3.153   2.739
 3171TIP3   OH2 9448   7.406   3.203   2.192
 3171TIP3    H1 9449   7.356   3.276   2.150
 3171TIP3    H2 9450   7.491   3.216   2.145
 3172TIP3   OH2 9451   7.836   3.434   2.331
 3172TIP3    H1 9452   7.883   3.442   2.417
 3172TIP3    H2 9453   7.890   3.493   2.273
 3173TIP3   OH2 9454   7.977   3.597   2.155
 3173TIP3    H1 9455   8.033   3.579   2.077
 3173TIP3    H2 9456   8.041   3.644   2.212
 3174TIP3   OH2 9457   7.083   3.463   2.211
 3174TIP3    H1 9458   6.994   3.495   2.186
 3174TIP3    H2 9459   7.086   3.494   2.303
 3175TIP3   OH2 9460   7.318   3.438   2.070
 3175TIP3    H1 9461   7.232   3.451   2.115
 3175TIP3    H2 9462   7.298   3.469   1.980
 3176TIP3   OH2 9463   7.717   3.474   1.875
 3176TIP3    H1 9464   7.647   3.489   1.808
 3176TIP3    H2 9465   7.732   3.565   1.908
 3177TIP3   OH2 9466   7.967   3.372   1.855
 3177TIP3    H1 9467   7.877   3.410   1.863
 3177TIP3    H2 9468   8.023   3.445   1.890
 3178TIP3   OH2 9469   6.993   3.256   1.958
 3178TIP3    H1 9470   7.020   3.228   2.049
 3178TIP3    H2 9471   7.064   3.211   1.906
 3179TIP3   OH2 9472   7.185   3.126   1.815
 3179TIP3    H1 9473   7.202   3.041   1.864
 3179TIP3    H2 9474   7.276   3.162   1.808
 3180TIP3   OH2 9475   7.452   3.223   1.816
 3180TIP3    H1 9476   7.481   3.132   1.798
 3180TIP3    H2 9477   7.497   3.240   1.900
 3181TIP3   OH2 9478   7.277   1.592   1.917
 3181TIP3    H1 9479   7.187   1.555   1.921
 3181TIP3    H2 9480   7.329   1.508   1.913
 3182TIP3   OH2 9481   7.067   1.453   1.573
 3182TIP3    H1 9482   7.088   1.511   1.498
 3182TIP3    H2 9483   7.036   1.518   1.640
 3183TIP3   OH2 9484   6.781   3.026   1.349
 3183TIP3    H1 9485   6.696   2.991   1.315
 3183TIP3    H2 9486   6.769   3.120   1.326
 3184TIP3   OH2 9487   7.181   1.613   1.341
 3184TIP3    H1 9488   7.238   1.553   1.292
 3184TIP3    H2 9489   7.247   1.678   1.373
 3185TIP3   OH2 9490   7.541   3.215   0.937
 3185TIP3    H1 9491   7.634   3.224   0.906
 3185TIP3    H2 9492   7.515   3.142   0.876
 3186TIP3   OH2 9493   7.478   1.868   2.810
 3186TIP3    H1 9494   7.448   1.796   2.867
 3186TIP3    H2 9495   7.573   1.871   2.834
 3187TIP3   OH2 9496   7.720   1.870   2.940
 3187TIP3    H1 9497   7.797   1.831   2.892
 3187TIP3    H2 9498   7.704   1.797   3.004
 3188TIP3   OH2 9499   6.859   3.055   0.987
 3188TIP3    H1 9500   6.858   3.076   1.081
 3188TIP3    H2 9501   6.947   3.011   0.976
 3189TIP3   OH2 9502   0.421   3.382   3.180
 3189TIP3    H1 9503   0.391   3.473   3.158
 3189TIP3    H2 9504   0.346   3.331   3.147
 3190TIP3   OH2 9505   0.424   3.381   3.559
 3190TIP3    H1 9506   0.449   3.347   3.647
 3190TIP3    H2 9507   0.377   3.305   3.521
 3191TIP3   OH2 9508  -0.247   3.253   3.889
 3191TIP3    H1 9509  -0.266   3.205   3.971
 3191TIP3    H2 9510  -0.215   3.338   3.921
 3192TIP3   OH2 9511   0.665   3.681   3.242
 3192TIP3    H1 9512   0.645   3.612   3.306
 3192TIP3    H2 9513   0.691   3.756   3.298
 3193TIP3   OH2 9514  -0.304   3.672   3.602
 3193TIP3    H1 9515  -0.319   3.577   3.619
 3193TIP3    H2 9516  -0.209   3.678   3.621
 3194TIP3   OH2 9517  -0.541   3.163   3.577
 3194TIP3    H1 9518  -0.488   3.134   3.653
 3194TIP3    H2 9519  -0.482   3.225   3.534
 3195TIP3   OH2 9520   0.311   4.141   3.263
 3195TIP3    H1 9521   0.357   4.074   3.207
 3195TIP3    H2 9522   0.310   4.096   3.348
 3196TIP3   OH2 9523   0.218   3.607   3.611
 3196TIP3    H1 9524   0.252   3.530   3.562
 3196TIP3    H2 9525   0.304   3.648   3.634
 3197TIP3   OH2 9526   1.233   2.926   3.610
 3197TIP3    H1 9527   1.261   3.010   3.650
 3197TIP3    H2 9528   1.247   2.944   3.515
 3198TIP3   OH2 9529   0.631   3.108   3.643
 3198TIP3    H1 9530   0.674   3.022   3.661
 3198TIP3    H2 9531   0.599   3.094   3.551
 3199TIP3   OH2 9532  -0.030   2.763   3.606
 3199TIP3    H1 9533  -0.050   2.838   3.546
 3199TIP3    H2 9534  -0.078   2.692   3.560
 3200TIP3   OH2 9535   0.661   2.857   3.232
 3200TIP3    H1 9536   0.735   2.842   3.296
 3200TIP3    H2 9537   0.710   2.895   3.157
 3201TIP3   OH2 9538  -0.393   2.968   3.722
 3201TIP3    H1 9539  -0.310   2.959   3.772
 3201TIP3    H2 9540  -0.369   2.923   3.638
 3202TIP3   OH2 9541   0.046   3.168   3.493
 3202TIP3    H1 9542   0.137   3.141   3.517
 3202TIP3    H2 9543   0.006   3.082   3.468
 3203TIP3   OH2 9544   1.306   3.136   3.777
 3203TIP3    H1 9545   1.222   3.182   3.758
 3203TIP3    H2 9546   1.319   3.160   3.870
 3204TIP3   OH2 9547  -0.035   2.748   4.045
 3204TIP3    H1 9548  -0.089   2.791   3.976
 3204TIP3    H2 9549  -0.087   2.770   4.125
 3205TIP3   OH2 9550   0.317   3.605   3.048
 3205TIP3    H1 9551   0.265   3.577   2.971
 3205TIP3    H2 9552   0.269   3.687   3.073
 3206TIP3   OH2 9553   0.072   3.533   3.844
 3206TIP3    H1 9554   0.009   3.596   3.881
 3206TIP3    H2 9555   0.109   3.581   3.767
 3207TIP3   OH2 9556   0.874   2.864   3.400
 3207TIP3    H1 9557   0.873   2.805   3.475
 3207TIP3    H2 9558   0.928   2.939   3.432
 3208TIP3   OH2 9559  -0.155   2.864   3.827
 3208TIP3    H1 9560  -0.098   2.941   3.851
 3208TIP3    H2 9561  -0.105   2.828   3.750
 3209TIP3   OH2 9562  -0.113   3.712   3.956
 3209TIP3    H1 9563  -0.167   3.763   3.893
 3209TIP3    H2 9564  -0.186   3.670   4.007
 3210TIP3   OH2 9565   0.735   3.926   3.412
 3210TIP3    H1 9566   0.645   3.917   3.451
 3210TIP3    H2 9567   0.726   4.011   3.365
 3211TIP3   OH2 9568   1.024   2.827   3.776
 3211TIP3    H1 9569   0.935   2.852   3.743
 3211TIP3    H2 9570   1.082   2.857   3.703
 3212TIP3   OH2 9571   0.322   2.469   3.755
 3212TIP3    H1 9572   0.306   2.375   3.771
 3212TIP3    H2 9573   0.245   2.509   3.801
 3213TIP3   OH2 9574   0.438   3.973   3.087
 3213TIP3    H1 9575   0.486   3.890   3.066
 3213TIP3    H2 9576   0.499   4.038   3.044
 3214TIP3   OH2 9577   0.579   3.757   2.990
 3214TIP3    H1 9578   0.530   3.681   2.956
 3214TIP3    H2 9579   0.616   3.721   3.074
 3215TIP3   OH2 9580   0.960   3.839   3.754
 3215TIP3    H1 9581   0.948   3.761   3.695
 3215TIP3    H2 9582   0.942   3.913   3.692
 3216TIP3   OH2 9583   0.255   3.231   3.013
 3216TIP3    H1 9584   0.172   3.282   2.997
 3216TIP3    H2 9585   0.294   3.230   2.924
 3217TIP3   OH2 9586   0.210   3.021   2.732
 3217TIP3    H1 9587   0.280   3.068   2.781
 3217TIP3    H2 9588   0.264   2.953   2.686
 3218TIP3   OH2 9589   1.155   3.476   3.599
 3218TIP3    H1 9590   1.071   3.527   3.604
 3218TIP3    H2 9591   1.184   3.501   3.508
 3219TIP3   OH2 9592   0.599   3.316   2.983
 3219TIP3    H1 9593   0.542   3.340   3.060
 3219TIP3    H2 9594   0.682   3.290   3.028
 3220TIP3   OH2 9595   0.834   3.354   3.894
 3220TIP3    H1 9596   0.830   3.439   3.942
 3220TIP3    H2 9597   0.747   3.355   3.849
 3221TIP3   OH2 9598  -0.167   3.313   3.401
 3221TIP3    H1 9599  -0.214   3.256   3.336
 3221TIP3    H2 9600  -0.089   3.258   3.422
 3222TIP3   OH2 9601  -0.027   3.734   3.546
 3222TIP3    H1 9602  -0.059   3.690   3.465
 3222TIP3    H2 9603   0.060   3.692   3.559
 3223TIP3   OH2 9604   0.021   3.274   3.751
 3223TIP3    H1 9605   0.013   3.267   3.655
 3223TIP3    H2 9606   0.022   3.370   3.767
 3224TIP3   OH2 9607   0.492   3.922   3.531
 3224TIP3    H1 9608   0.481   4.000   3.588
 3224TIP3    H2 9609   0.478   3.847   3.593
 3225TIP3   OH2 9610   0.101   3.845   4.076
 3225TIP3    H1 9611   0.045   3.904   4.128
 3225TIP3    H2 9612   0.034   3.789   4.033
 3226TIP3   OH2 9613   0.442   3.171   2.809
 3226TIP3    H1 9614   0.498   3.233   2.861
 3226TIP3    H2 9615   0.468   3.195   2.717
 3227TIP3   OH2 9616  -0.152   3.395   4.183
 3227TIP3    H1 9617  -0.146   3.478   4.234
 3227TIP3    H2 9618  -0.246   3.396   4.159
 3228TIP3   OH2 9619   0.182   3.852   3.090
 3228TIP3    H1 9620   0.260   3.910   3.102
 3228TIP3    H2 9621   0.122   3.908   3.039
 3229TIP3   OH2 9622  -0.115   4.020   4.163
 3229TIP3    H1 9623  -0.133   4.020   4.067
 3229TIP3    H2 9624  -0.190   3.970   4.199
 3230TIP3   OH2 9625  -0.302   3.154   3.226
 3230TIP3    H1 9626  -0.350   3.213   3.164
 3230TIP3    H2 9627  -0.356   3.075   3.217
 3231TIP3   OH2 9628   0.752   3.781   2.403
 3231TIP3    H1 9629   0.760   3.878   2.391
 3231TIP3    H2 9630   0.845   3.752   2.392
 3232TIP3   OH2 9631   1.196   4.183   3.800
 3232TIP3    H1 9632   1.195   4.086   3.813
 3232TIP3    H2 9633   1.112   4.207   3.846
 3233TIP3   OH2 9634   0.303   3.969   3.934
 3233TIP3    H1 9635   0.302   4.062   3.967
 3233TIP3    H2 9636   0.230   3.930   3.988
 3234TIP3   OH2 9637   0.063   4.099   2.886
 3234TIP3    H1 9638   0.016   4.079   2.803
 3234TIP3    H2 9639   0.033   4.190   2.907
 3235TIP3   OH2 9640   0.265   4.001   2.525
 3235TIP3    H1 9641   0.324   3.931   2.490
 3235TIP3    H2 9642   0.298   4.009   2.617
 3236TIP3   OH2 9643   0.314   4.046   2.796
 3236TIP3    H1 9644   0.225   4.056   2.837
 3236TIP3    H2 9645   0.362   4.003   2.869
 3237TIP3   OH2 9646   1.086   3.314   4.074
 3237TIP3    H1 9647   1.005   3.327   4.022
 3237TIP3    H2 9648   1.102   3.218   4.063
 3238TIP3   OH2 9649   0.084   2.543   3.886
 3238TIP3    H1 9650  -0.005   2.513   3.859
 3238TIP3    H2 9651   0.059   2.627   3.929
 3239TIP3   OH2 9652   0.617   2.660   4.078
 3239TIP3    H1 9653   0.684   2.633   4.144
 3239TIP3    H2 9654   0.532   2.641   4.124
 3240TIP3   OH2 9655   0.857   3.091   3.998
 3240TIP3    H1 9656   0.806   3.087   4.082
 3240TIP3    H2 9657   0.831   3.176   3.961
 3241TIP3   OH2 9658   0.517   3.222   2.555
 3241TIP3    H1 9659   0.482   3.198   2.467
 3241TIP3    H2 9660   0.597   3.272   2.529
 3242TIP3   OH2 9661   0.241   2.642   2.871
 3242TIP3    H1 9662   0.205   2.615   2.958
 3242TIP3    H2 9663   0.201   2.576   2.811
 3243TIP3   OH2 9664   0.016   3.058   3.908
 3243TIP3    H1 9665  -0.042   3.083   3.983
 3243TIP3    H2 9666   0.010   3.139   3.851
 3244TIP3   OH2 9667  -0.099   2.946   3.422
 3244TIP3    H1 9668  -0.196   2.936   3.429
 3244TIP3    H2 9669  -0.084   2.910   3.332
 3245TIP3   OH2 9670   0.390   3.033   3.147
 3245TIP3    H1 9671   0.337   3.103   3.104
 3245TIP3    H2 9672   0.442   2.999   3.071
 3246TIP3   OH2 9673   0.564   3.313   4.233
 3246TIP3    H1 9674   0.542   3.239   4.293
 3246TIP3    H2 9675   0.659   3.324   4.252
 3247TIP3   OH2 9676   0.546   3.063   3.383
 3247TIP3    H1 9677   0.485   3.090   3.312
 3247TIP3    H2 9678   0.579   2.980   3.342
 3248TIP3   OH2 9679  -0.158   3.082   4.121
 3248TIP3    H1 9680  -0.153   3.157   4.183
 3248TIP3    H2 9681  -0.169   3.006   4.180
 3249TIP3   OH2 9682  -0.564   2.614   3.714
 3249TIP3    H1 9683  -0.482   2.645   3.756
 3249TIP3    H2 9684  -0.536   2.595   3.624
 3250TIP3   OH2 9685   0.561   3.308   3.809
 3250TIP3    H1 9686   0.592   3.236   3.749
 3250TIP3    H2 9687   0.528   3.255   3.884
 3251TIP3   OH2 9688   0.228   2.769   3.480
 3251TIP3    H1 9689   0.144   2.768   3.530
 3251TIP3    H2 9690   0.294   2.771   3.551
 3252TIP3   OH2 9691  -0.343   2.817   3.492
 3252TIP3    H1 9692  -0.430   2.807   3.450
 3252TIP3    H2 9693  -0.296   2.735   3.465
 3253TIP3   OH2 9694  -0.064   2.823   3.184
 3253TIP3    H1 9695   0.030   2.839   3.163
 3253TIP3    H2 9696  -0.109   2.848   3.101
 3254TIP3   OH2 9697   0.719   2.845   3.683
 3254TIP3    H1 9698   0.680   2.858   3.772
 3254TIP3    H2 9699   0.654   2.784   3.644
 3255TIP3   OH2 9700  -0.211   2.852   2.960
 3255TIP3    H1 9701  -0.305   2.849   2.942
 3255TIP3    H2 9702  -0.172   2.894   2.880
 3256TIP3   OH2 9703   0.886   4.535   3.898
 3256TIP3    H1 9704   0.883   4.556   3.803
 3256TIP3    H2 9705   0.966   4.583   3.927
 3257TIP3   OH2 9706  -0.157   3.630   4.341
 3257TIP3    H1 9707  -0.080   3.667   4.388
 3257TIP3    H2 9708  -0.229   3.681   4.381
 3258TIP3   OH2 9709   0.309   3.097   3.576
 3258TIP3    H1 9710   0.381   3.058   3.524
 3258TIP3    H2 9711   0.319   3.054   3.662
 3259TIP3   OH2 9712  -0.175   2.590   3.446
 3259TIP3    H1 9713  -0.187   2.504   3.490
 3259TIP3    H2 9714  -0.131   2.566   3.363
 3260TIP3   OH2 9715   0.284   2.991   3.870
 3260TIP3    H1 9716   0.195   3.029   3.879
 3260TIP3    H2 9717   0.341   3.056   3.916
 3261TIP3   OH2 9718   0.035   3.390   2.967
 3261TIP3    H1 9719  -0.029   3.316   2.960
 3261TIP3    H2 9720   0.011   3.426   3.056
 3262TIP3   OH2 9721   0.922   3.620   3.591
 3262TIP3    H1 9722   0.945   3.670   3.509
 3262TIP3    H2 9723   0.837   3.578   3.565
 3263TIP3   OH2 9724   0.491   2.712   2.807
 3263TIP3    H1 9725   0.398   2.696   2.833
 3263TIP3    H2 9726   0.509   2.799   2.847
 3264TIP3   OH2 9727   0.429   3.708   3.955
 3264TIP3    H1 9728   0.440   3.677   4.046
 3264TIP3    H2 9729   0.383   3.792   3.966
 3265TIP3   OH2 9730   0.553   2.949   2.930
 3265TIP3    H1 9731   0.649   2.957   2.942
 3265TIP3    H2 9732   0.530   3.027   2.876
 3266TIP3   OH2 9733  -0.269   3.405   3.645
 3266TIP3    H1 9734  -0.236   3.361   3.564
 3266TIP3    H2 9735  -0.270   3.334   3.711
 3267TIP3   OH2 9736   0.166   3.537   2.779
 3267TIP3    H1 9737   0.120   3.624   2.787
 3267TIP3    H2 9738   0.112   3.483   2.841
 3268TIP3   OH2 9739   0.319   3.441   4.272
 3268TIP3    H1 9740   0.257   3.385   4.222
 3268TIP3    H2 9741   0.405   3.406   4.240
 3269TIP3   OH2 9742   0.583   3.968   3.851
 3269TIP3    H1 9743   0.487   3.959   3.864
 3269TIP3    H2 9744   0.608   4.017   3.932
 3270TIP3   OH2 9745   0.995   3.032   2.761
 3270TIP3    H1 9746   0.933   2.986   2.699
 3270TIP3    H2 9747   0.989   3.121   2.722
 3271TIP3   OH2 9748   1.209   3.893   3.842
 3271TIP3    H1 9749   1.112   3.887   3.833
 3271TIP3    H2 9750   1.236   3.862   3.752
 3272TIP3   OH2 9751   0.696   3.853   2.671
 3272TIP3    H1 9752   0.664   3.786   2.733
 3272TIP3    H2 9753   0.703   3.805   2.587
 3273TIP3   OH2 9754   0.688   3.482   3.511
 3273TIP3    H1 9755   0.595   3.457   3.523
 3273TIP3    H2 9756   0.722   3.403   3.464
 3274TIP3   OH2 9757  -0.178   3.714   3.265
 3274TIP3    H1 9758  -0.187   3.791   3.206
 3274TIP3    H2 9759  -0.270   3.691   3.282
 3275TIP3   OH2 9760  -0.661   3.011   2.997
 3275TIP3    H1 9761  -0.589   3.079   3.001
 3275TIP3    H2 9762  -0.729   3.063   3.043
 3276TIP3   OH2 9763  -0.039   3.479   3.211
 3276TIP3    H1 9764  -0.077   3.567   3.228
 3276TIP3    H2 9765  -0.082   3.426   3.281
 3277TIP3   OH2 9766   0.090   4.058   3.732
 3277TIP3    H1 9767   0.133   4.126   3.676
 3277TIP3    H2 9768   0.168   4.018   3.775
 3278TIP3   OH2 9769  -0.267   3.953   3.118
 3278TIP3    H1 9770  -0.351   3.969   3.160
 3278TIP3    H2 9771  -0.229   4.044   3.116
 3279TIP3   OH2 9772   0.475   3.689   3.687
 3279TIP3    H1 9773   0.466   3.687   3.785
 3279TIP3    H2 9774   0.551   3.631   3.673
 3280TIP3   OH2 9775   0.446   3.582   2.570
 3280TIP3    H1 9776   0.498   3.556   2.650
 3280TIP3    H2 9777   0.357   3.555   2.598
 3281TIP3   OH2 9778   0.721   4.225   3.741
 3281TIP3    H1 9779   0.643   4.166   3.733
 3281TIP3    H2 9780   0.705   4.287   3.666
 3282TIP3   OH2 9781   0.787   4.057   2.391
 3282TIP3    H1 9782   0.822   4.130   2.339
 3282TIP3    H2 9783   0.706   4.101   2.425
 3283TIP3   OH2 9784  -0.188   2.824   4.269
 3283TIP3    H1 9785  -0.282   2.815   4.289
 3283TIP3    H2 9786  -0.149   2.767   4.338
 3284TIP3   OH2 9787   0.607   3.514   2.785
 3284TIP3    H1 9788   0.595   3.450   2.859
 3284TIP3    H2 9789   0.704   3.512   2.776
 3285TIP3   OH2 9790  -0.186   3.560   2.559
 3285TIP3    H1 9791  -0.171   3.464   2.541
 3285TIP3    H2 9792  -0.199   3.556   2.657
 3286TIP3   OH2 9793  -0.215   3.569   2.825
 3286TIP3    H1 9794  -0.200   3.523   2.908
 3286TIP3    H2 9795  -0.230   3.662   2.853
 3287TIP3   OH2 9796   0.641   2.899   3.941
 3287TIP3    H1 9797   0.724   2.935   3.978
 3287TIP3    H2 9798   0.628   2.817   3.993
 3288TIP3   OH2 9799   0.494   2.665   3.109
 3288TIP3    H1 9800   0.509   2.666   3.013
 3288TIP3    H2 9801   0.551   2.738   3.141
 3289TIP3   OH2 9802   0.032   3.773   2.795
 3289TIP3    H1 9803  -0.059   3.785   2.828
 3289TIP3    H2 9804   0.035   3.843   2.728
 3290TIP3   OH2 9805   0.213   2.827   3.207
 3290TIP3    H1 9806   0.279   2.895   3.186
 3290TIP3    H2 9807   0.219   2.822   3.304
 3291TIP3   OH2 9808   0.481   3.147   4.013
 3291TIP3    H1 9809   0.501   3.201   4.092
 3291TIP3    H2 9810   0.536   3.068   4.025
 3292TIP3   OH2 9811   0.355   2.556   3.314
 3292TIP3    H1 9812   0.344   2.636   3.369
 3292TIP3    H2 9813   0.408   2.594   3.239
 3293TIP3   OH2 9814  -0.233   3.841   2.861
 3293TIP3    H1 9815  -0.260   3.910   2.797
 3293TIP3    H2 9816  -0.248   3.887   2.946
 3294TIP3   OH2 9817  -0.127   2.550   3.132
 3294TIP3    H1 9818  -0.130   2.647   3.131
 3294TIP3    H2 9819  -0.032   2.536   3.115
 3295TIP3   OH2 9820   1.123   3.047   3.993
 3295TIP3    H1 9821   1.025   3.046   4.002
 3295TIP3    H2 9822   1.132   3.004   3.906
 3296TIP3   OH2 9823   0.774   3.241   3.383
 3296TIP3    H1 9824   0.697   3.183   3.393
 3296TIP3    H2 9825   0.844   3.192   3.431
 3297TIP3   OH2 9826   0.741   4.198   3.333
 3297TIP3    H1 9827   0.697   4.244   3.258
 3297TIP3    H2 9828   0.835   4.215   3.310
 3298TIP3   OH2 9829  -0.181   2.462   3.857
 3298TIP3    H1 9830  -0.216   2.427   3.773
 3298TIP3    H2 9831  -0.193   2.384   3.917
 3299TIP3   OH2 9832  -0.009   4.192   4.361
 3299TIP3    H1 9833   0.087   4.179   4.364
 3299TIP3    H2 9834  -0.033   4.133   4.287
 3300TIP3   OH2 9835  -0.024   3.764   2.485
 3300TIP3    H1 9836  -0.085   3.694   2.520
 3300TIP3    H2 9837   0.051   3.709   2.459
 3301TIP3   OH2 9838   0.631   4.099   4.092
 3301TIP3    H1 9839   0.623   4.027   4.158
 3301TIP3    H2 9840   0.711   4.146   4.121
 3302TIP3   OH2 9841   0.414   3.807   2.396
 3302TIP3    H1 9842   0.455   3.742   2.455
 3302TIP3    H2 9843   0.472   3.806   2.318
 3303TIP3   OH2 9844   0.249   3.716   4.285
 3303TIP3    H1 9845   0.209   3.729   4.197
 3303TIP3    H2 9846   0.281   3.623   4.280
 3304TIP3   OH2 9847   0.136   3.482   2.511
 3304TIP3    H1 9848   0.132   3.498   2.607
 3304TIP3    H2 9849   0.126   3.385   2.509
 3305TIP3   OH2 9850   0.746   3.724   3.894
 3305TIP3    H1 9851   0.818   3.771   3.847
 3305TIP3    H2 9852   0.672   3.785   3.878
 3306TIP3   OH2 9853  -0.241   3.349   4.513
 3306TIP3    H1 9854  -0.177   3.311   4.453
 3306TIP3    H2 9855  -0.186   3.395   4.578
 3307TIP3   OH2 9856  -0.126   3.175   2.952
 3307TIP3    H1 9857  -0.214   3.171   2.993
 3307TIP3    H2 9858  -0.131   3.109   2.881
 3308TIP3   OH2 9859   0.102   3.258   4.163
 3308TIP3    H1 9860   0.018   3.308   4.159
 3308TIP3    H2 9861   0.146   3.287   4.080
 3309TIP3   OH2 9862  -0.074   2.971   2.748
 3309TIP3    H1 9863  -0.066   2.949   2.654
 3309TIP3    H2 9864   0.021   2.987   2.769
 3310TIP3   OH2 9865   0.617   3.655   4.292
 3310TIP3    H1 9866   0.693   3.627   4.238
 3310TIP3    H2 9867   0.612   3.584   4.358
 3311TIP3   OH2 9868   0.755   3.313   2.428
 3311TIP3    H1 9869   0.731   3.265   2.347
 3311TIP3    H2 9870   0.721   3.402   2.405
 3312TIP3   OH2 9871   0.224   3.042   4.282
 3312TIP3    H1 9872   0.221   2.961   4.227
 3312TIP3    H2 9873   0.178   3.107   4.225
 3313TIP3   OH2 9874   0.224   2.823   4.090
 3313TIP3    H1 9875   0.251   2.868   4.007
 3313TIP3    H2 9876   0.130   2.802   4.071
 3314TIP3   OH2 9877   0.255   3.369   3.966
 3314TIP3    H1 9878   0.332   3.369   3.907
 3314TIP3    H2 9879   0.193   3.428   3.918
 3315TIP3   OH2 9880   0.834   3.328   4.344
 3315TIP3    H1 9881   0.882   3.244   4.352
 3315TIP3    H2 9882   0.902   3.386   4.307
 3316TIP3   OH2 9883   0.875   3.582   4.082
 3316TIP3    H1 9884   0.817   3.634   4.022
 3316TIP3    H2 9885   0.962   3.601   4.041
 3317TIP3   OH2 9886   0.100   3.165   4.512
 3317TIP3    H1 9887   0.043   3.085   4.520
 3317TIP3    H2 9888   0.135   3.153   4.422
 3318TIP3   OH2 9889   0.356   2.588   4.156
 3318TIP3    H1 9890   0.308   2.671   4.132
 3318TIP3    H2 9891   0.287   2.521   4.143
 3319TIP3   OH2 9892   0.483   3.094   4.372
 3319TIP3    H1 9893   0.468   3.081   4.467
 3319TIP3    H2 9894   0.394   3.070   4.338
 3320TIP3   OH2 9895   0.722   3.044   4.227
 3320TIP3    H1 9896   0.646   3.045   4.289
 3320TIP3    H2 9897   0.795   3.012   4.284
 3321TIP3   OH2 9898   0.950   2.983   4.378
 3321TIP3    H1 9899   0.963   2.887   4.396
 3321TIP3    H2 9900   0.947   3.022   4.468
 3322TIP3   OH2 9901  -0.033   2.933   4.559
 3322TIP3    H1 9902  -0.043   2.844   4.520
 3322TIP3    H2 9903  -0.016   2.911   4.652
 3323TIP3   OH2 9904   0.450   2.598   4.414
 3323TIP3    H1 9905   0.518   2.527   4.407
 3323TIP3    H2 9906   0.411   2.593   4.324
 3324TIP3   OH2 9907   0.517   2.813   4.572
 3324TIP3    H1 9908   0.494   2.742   4.507
 3324TIP3    H2 9909   0.440   2.873   4.565
 3325TIP3   OH2 9910  -0.261   4.039   2.672
 3325TIP3    H1 9911  -0.167   4.042   2.649
 3325TIP3    H2 9912  -0.299   4.088   2.596
 3326TIP3   OH2 9913   0.995   4.285   3.289
 3326TIP3    H1 9914   1.023   4.321   3.375
 3326TIP3    H2 9915   1.052   4.333   3.227
 3327TIP3   OH2 9916   1.024   4.310   3.572
 3327TIP3    H1 9917   0.979   4.223   3.565
 3327TIP3    H2 9918   1.099   4.284   3.627
 3328TIP3   OH2 9919   1.070   3.986   4.143
 3328TIP3    H1 9920   0.997   3.994   4.208
 3328TIP3    H2 9921   1.111   4.074   4.149
 3329TIP3   OH2 9922   0.887   3.497   2.764
 3329TIP3    H1 9923   0.955   3.562   2.736
 3329TIP3    H2 9924   0.930   3.458   2.844
 3330TIP3   OH2 9925   1.015   3.364   2.968
 3330TIP3    H1 9926   0.947   3.321   3.025
 3330TIP3    H2 9927   1.075   3.405   3.033
 3331TIP3   OH2 9928   1.069   3.758   3.401
 3331TIP3    H1 9929   1.120   3.693   3.349
 3331TIP3    H2 9930   1.060   3.832   3.338
 3332TIP3   OH2 9931   0.900   4.059   3.595
 3332TIP3    H1 9932   0.828   4.100   3.645
 3332TIP3    H2 9933   0.851   4.011   3.524
 3333TIP3   OH2 9934   0.953   3.273   2.613
 3333TIP3    H1 9935   0.882   3.275   2.545
 3333TIP3    H2 9936   0.924   3.349   2.669
 3334TIP3   OH2 9937   0.825   2.946   2.567
 3334TIP3    H1 9938   0.775   2.979   2.491
 3334TIP3    H2 9939   0.804   2.850   2.560
 3335TIP3   OH2 9940   0.829   3.222   3.114
 3335TIP3    H1 9941   0.834   3.125   3.107
 3335TIP3    H2 9942   0.815   3.235   3.210
 3336TIP3   OH2 9943   1.117   3.647   3.971
 3336TIP3    H1 9944   1.189   3.581   3.962
 3336TIP3    H2 9945   1.144   3.715   3.908
 3337TIP3   OH2 9946   1.302   3.452   3.987
 3337TIP3    H1 9947   1.228   3.401   4.026
 3337TIP3    H2 9948   1.375   3.388   4.001
 3338TIP3   OH2 9949   0.771   2.680   2.549
 3338TIP3    H1 9950   0.842   2.653   2.611
 3338TIP3    H2 9951   0.694   2.625   2.576
 3339TIP3   OH2 9952   0.827   2.938   3.010
 3339TIP3    H1 9953   0.865   2.851   3.029
 3339TIP3    H2 9954   0.884   2.968   2.937
 3340TIP3   OH2 9955   0.988   3.112   3.505
 3340TIP3    H1 9956   1.073   3.139   3.465
 3340TIP3    H2 9957   1.000   3.149   3.594
 3341TIP3   OH2 9958   1.056   3.256   3.737
 3341TIP3    H1 9959   0.977   3.289   3.784
 3341TIP3    H2 9960   1.087   3.338   3.691
 3342TIP3   OH2 9961  -0.307   2.904   4.653
 3342TIP3    H1 9962  -0.251   2.941   4.583
 3342TIP3    H2 9963  -0.395   2.929   4.619
 3343TIP3   OH2 9964   1.504   2.845   4.292
 3343TIP3    H1 9965   1.565   2.781   4.249
 3343TIP3    H2 9966   1.477   2.901   4.216
 3344TIP3   OH2 9967  -0.352   2.677   3.870
 3344TIP3    H1 9968  -0.289   2.603   3.876
 3344TIP3    H2 9969  -0.290   2.752   3.854
 3345TIP3   OH2 9970   1.378   2.987   4.097
 3345TIP3    H1 9971   1.292   3.028   4.119
 3345TIP3    H2 9972   1.347   2.915   4.039
 3346TIP3   OH2 9973   1.022   2.645   2.664
 3346TIP3    H1 9974   1.052   2.557   2.635
 3346TIP3    H2 9975   1.101   2.700   2.658
 3347TIP3   OH2 9976   0.582   4.154   2.947
 3347TIP3    H1 9977   0.630   4.141   2.862
 3347TIP3    H2 9978   0.632   4.227   2.986
 3348TIP3   OH2 9979  -0.365   2.537   4.264
 3348TIP3    H1 9980  -0.409   2.537   4.350
 3348TIP3    H2 9981  -0.427   2.587   4.209
 3349TIP3   OH2 9982  -0.142   4.025   3.880
 3349TIP3    H1 9983  -0.161   4.096   3.816
 3349TIP3    H2 9984  -0.051   4.003   3.851
 3350TIP3   OH2 9985   0.303   4.235   4.019
 3350TIP3    H1 9986   0.347   4.237   4.107
 3350TIP3    H2 9987   0.369   4.285   3.965
 3351TIP3   OH2 9988   0.480   4.387   3.875
 3351TIP3    H1 9989   0.550   4.336   3.831
 3351TIP3    H2 9990   0.534   4.444   3.935
 3352TIP3   OH2 9991   1.276   2.751   3.975
 3352TIP3    H1 9992   1.185   2.747   3.940
 3352TIP3    H2 9993   1.305   2.658   3.963
 3353TIP3   OH2 9994  -0.227   4.246   3.731
 3353TIP3    H1 9995  -0.260   4.332   3.763
 3353TIP3    H2 9996  -0.276   4.235   3.649
 3354TIP3   OH2 9997   0.196   4.254   3.563
 3354TIP3    H1 9998   0.142   4.275   3.484
 3354TIP3    H2 9999   0.211   4.343   3.600
 3355TIP3   OH210000   0.466   4.197   3.612
 3355TIP3    H110001   0.372   4.211   3.590
 3355TIP3    H210002   0.509   4.269   3.564
 3356TIP3   OH210003   0.674   4.388   3.524
 3356TIP3    H110004   0.658   4.472   3.476
 3356TIP3    H210005   0.699   4.328   3.451
 3357TIP3   OH210006  -0.358   3.919   3.505
 3357TIP3    H110007  -0.352   3.828   3.542
 3357TIP3    H210008  -0.264   3.942   3.498
 3358TIP3   OH210009  -0.082   4.017   3.506
 3358TIP3    H110010  -0.059   3.925   3.482
 3358TIP3    H210011  -0.035   4.023   3.591
 3359TIP3   OH210012   0.485   2.667   3.600
 3359TIP3    H110013   0.439   2.595   3.647
 3359TIP3    H210014   0.551   2.619   3.547
 3360TIP3   OH210015   1.005   2.553   3.516
 3360TIP3    H110016   1.049   2.597   3.439
 3360TIP3    H210017   0.910   2.565   3.494
 3361TIP3   OH210018   1.124   2.651   3.293
 3361TIP3    H110019   1.159   2.598   3.219
 3361TIP3    H210020   1.132   2.741   3.256
 3362TIP3   OH210021  -0.282   2.369   3.605
 3362TIP3    H110022  -0.362   2.316   3.615
 3362TIP3    H210023  -0.215   2.297   3.606
 3363TIP3   OH210024   0.171   2.409   3.490
 3363TIP3    H110025   0.229   2.456   3.428
 3363TIP3    H210026   0.198   2.447   3.574
 3364TIP3   OH210027   0.724   2.553   3.471
 3364TIP3    H110028   0.717   2.521   3.380
 3364TIP3    H210029   0.707   2.471   3.523
 3365TIP3   OH210030   0.151   2.573   3.124
 3365TIP3    H110031   0.213   2.531   3.186
 3365TIP3    H210032   0.168   2.667   3.147
 3366TIP3   OH210033   0.006   4.003   2.619
 3366TIP3    H110034   0.095   4.024   2.583
 3366TIP3    H210035  -0.018   3.929   2.559
 3367TIP3   OH210036   0.725   4.121   2.712
 3367TIP3    H110037   0.717   4.024   2.700
 3367TIP3    H210038   0.678   4.155   2.634
 3368TIP3   OH210039  -0.064   2.656   4.497
 3368TIP3    H110040  -0.100   2.584   4.552
 3368TIP3    H210041   0.029   2.656   4.528
 3369TIP3   OH210042   0.184   2.652   4.625
 3369TIP3    H110043   0.268   2.631   4.582
 3369TIP3    H210044   0.174   2.577   4.686
 3370TIP3   OH210045   1.012   2.712   4.409
 3370TIP3    H110046   1.031   2.681   4.500
 3370TIP3    H210047   1.100   2.708   4.367
 3371TIP3   OH210048   0.949   4.265   3.903
 3371TIP3    H110049   0.872   4.233   3.852
 3371TIP3    H210050   0.930   4.361   3.904
 3372TIP3   OH210051   2.214   3.634   2.671
 3372TIP3    H110052   2.189   3.726   2.651
 3372TIP3    H210053   2.138   3.587   2.632
 3373TIP3   OH210054   2.207   3.644   3.050
 3373TIP3    H110055   2.246   3.613   3.135
 3373TIP3    H210056   2.193   3.563   3.000
 3374TIP3   OH210057   1.521   3.531   3.406
 3374TIP3    H110058   1.547   3.464   3.472
 3374TIP3    H210059   1.588   3.599   3.422
 3375TIP3   OH210060   2.457   3.939   2.731
 3375TIP3    H110061   2.449   3.871   2.799
 3375TIP3    H210062   2.488   4.015   2.782
 3376TIP3   OH210063   1.486   3.944   3.139
 3376TIP3    H110064   1.478   3.846   3.141
 3376TIP3    H210065   1.583   3.953   3.133
 3377TIP3   OH210066   1.202   3.152   2.923
 3377TIP3    H110067   1.145   3.230   2.938
 3377TIP3    H210068   1.135   3.089   2.891
 3378TIP3   OH210069   1.253   3.437   3.097
 3378TIP3    H110070   1.301   3.358   3.132
 3378TIP3    H210071   1.306   3.460   3.020
 3379TIP3   OH210072   2.107   4.401   2.745
 3379TIP3    H110073   2.154   4.330   2.697
 3379TIP3    H210074   2.103   4.365   2.834
 3380TIP3   OH210075   2.015   3.863   3.097
 3380TIP3    H110076   2.058   3.786   3.054
 3380TIP3    H210077   2.096   3.911   3.122
 3381TIP3   OH210078   3.024   3.187   3.097
 3381TIP3    H110079   3.055   3.268   3.143
 3381TIP3    H210080   3.052   3.205   3.006
 3382TIP3   OH210081   2.412   3.364   3.129
 3382TIP3    H110082   2.463   3.285   3.156
 3382TIP3    H210083   2.398   3.344   3.034
 3383TIP3   OH210084   1.775   3.025   3.090
 3383TIP3    H110085   1.714   3.081   3.038
 3383TIP3    H210086   1.740   2.937   3.062
 3384TIP3   OH210087   2.458   3.117   2.718
 3384TIP3    H110088   2.530   3.101   2.784
 3384TIP3    H210089   2.512   3.150   2.643
 3385TIP3   OH210090   1.398   3.227   3.200
 3385TIP3    H110091   1.479   3.204   3.249
 3385TIP3    H210092   1.404   3.166   3.125
 3386TIP3   OH210093   1.839   3.432   2.982
 3386TIP3    H110094   1.927   3.403   3.012
 3386TIP3    H210095   1.793   3.350   2.960
 3387TIP3   OH210096   3.094   3.391   3.276
 3387TIP3    H110097   3.014   3.442   3.251
 3387TIP3    H210098   3.107   3.422   3.367
 3388TIP3   OH210099   1.761   3.006   3.528
 3388TIP3    H110100   1.697   3.043   3.464
 3388TIP3    H210101   1.712   3.022   3.611
 3389TIP3   OH210102   2.107   3.856   2.538
 3389TIP3    H110103   2.066   3.841   2.451
 3389TIP3    H210104   2.066   3.941   2.563
 3390TIP3   OH210105   1.865   3.782   3.325
 3390TIP3    H110106   1.803   3.849   3.363
 3390TIP3    H210107   1.908   3.834   3.253
 3391TIP3   OH210108   2.666   3.119   2.891
 3391TIP3    H110109   2.670   3.071   2.975
 3391TIP3    H210110   2.725   3.195   2.910
 3392TIP3   OH210111   1.632   3.121   3.310
 3392TIP3    H110112   1.690   3.195   3.339
 3392TIP3    H210113   1.689   3.079   3.242
 3393TIP3   OH210114   1.694   3.976   3.422
 3393TIP3    H110115   1.669   4.062   3.383
 3393TIP3    H210116   1.615   3.961   3.478
 3394TIP3   OH210117   1.093   3.666   2.657
 3394TIP3    H110118   1.047   3.693   2.575
 3394TIP3    H210119   1.121   3.752   2.694
 3395TIP3   OH210120   2.528   4.181   2.896
 3395TIP3    H110121   2.438   4.173   2.935
 3395TIP3    H210122   2.522   4.268   2.852
 3396TIP3   OH210123   2.818   3.069   3.248
 3396TIP3    H110124   2.738   3.121   3.231
 3396TIP3    H210125   2.883   3.109   3.187
 3397TIP3   OH210126   2.115   2.727   3.240
 3397TIP3    H110127   2.106   2.632   3.261
 3397TIP3    H210128   2.039   2.764   3.290
 3398TIP3   OH210129   2.231   4.228   2.571
 3398TIP3    H110130   2.281   4.146   2.551
 3398TIP3    H210131   2.292   4.294   2.531
 3399TIP3   OH210132   2.373   4.013   2.479
 3399TIP3    H110133   2.340   3.932   2.437
 3399TIP3    H210134   2.409   3.978   2.563
 3400TIP3   OH210135   2.754   4.095   3.243
 3400TIP3    H110136   2.747   4.018   3.183
 3400TIP3    H210137   2.741   4.170   3.181
 3401TIP3   OH210138   2.045   3.487   2.497
 3401TIP3    H110139   1.967   3.542   2.475
 3401TIP3    H210140   2.093   3.487   2.412
 3402TIP3   OH210141   2.006   3.272   2.217
 3402TIP3    H110142   2.074   3.325   2.263
 3402TIP3    H210143   2.063   3.209   2.169
 3403TIP3   OH210144   2.949   3.727   3.082
 3403TIP3    H110145   2.868   3.783   3.090
 3403TIP3    H210146   2.981   3.755   2.994
 3404TIP3   OH210147   2.393   3.570   2.471
 3404TIP3    H110148   2.340   3.595   2.551
 3404TIP3    H210149   2.478   3.545   2.513
 3405TIP3   OH210150   2.623   3.606   3.376
 3405TIP3    H110151   2.638   3.686   3.429
 3405TIP3    H210152   2.538   3.626   3.333
 3406TIP3   OH210153   1.621   3.569   2.885
 3406TIP3    H110154   1.581   3.512   2.816
 3406TIP3    H210155   1.705   3.522   2.906
 3407TIP3   OH210156   1.757   3.980   3.036
 3407TIP3    H110157   1.737   3.940   2.950
 3407TIP3    H210158   1.847   3.946   3.053
 3408TIP3   OH210159   1.780   3.539   3.238
 3408TIP3    H110160   1.796   3.544   3.142
 3408TIP3    H210161   1.810   3.627   3.268
 3409TIP3   OH210162   2.287   4.178   3.017
 3409TIP3    H110163   2.275   4.258   3.071
 3409TIP3    H210164   2.273   4.106   3.082
 3410TIP3   OH210165   1.901   4.097   3.564
 3410TIP3    H110166   1.842   4.160   3.611
 3410TIP3    H210167   1.835   4.044   3.515
 3411TIP3   OH210168   2.235   3.429   2.296
 3411TIP3    H110169   2.294   3.489   2.348
 3411TIP3    H210170   2.262   3.453   2.204
 3412TIP3   OH210171   1.652   3.654   3.661
 3412TIP3    H110172   1.660   3.740   3.707
 3412TIP3    H210173   1.559   3.633   3.680
 3413TIP3   OH210174   1.978   4.109   2.571
 3413TIP3    H110175   2.058   4.162   2.588
 3413TIP3    H210176   1.917   4.173   2.533
 3414TIP3   OH210177   1.695   4.266   3.652
 3414TIP3    H110178   1.661   4.264   3.560
 3414TIP3    H210179   1.616   4.245   3.705
 3415TIP3   OH210180   2.745   2.683   2.344
 3415TIP3    H110181   2.666   2.701   2.398
 3415TIP3    H210182   2.757   2.766   2.295
 3416TIP3   OH210183   1.494   3.406   2.690
 3416TIP3    H110184   1.432   3.458   2.635
 3416TIP3    H210185   1.441   3.327   2.706
 3417TIP3   OH210186   2.550   4.037   1.892
 3417TIP3    H110187   2.558   4.134   1.877
 3417TIP3    H210188   2.643   4.008   1.882
 3418TIP3   OH210189   1.275   3.795   3.598
 3418TIP3    H110190   1.208   3.774   3.530
 3418TIP3    H210191   1.310   3.707   3.622
 3419TIP3   OH210192   1.128   3.988   3.233
 3419TIP3    H110193   1.224   3.985   3.222
 3419TIP3    H210194   1.116   4.069   3.284
 3420TIP3   OH210195   2.992   4.438   3.286
 3420TIP3    H110196   2.991   4.341   3.300
 3420TIP3    H210197   2.909   4.463   3.333
 3421TIP3   OH210198   2.099   4.226   3.421
 3421TIP3    H110199   2.098   4.319   3.454
 3421TIP3    H210200   2.028   4.186   3.476
 3422TIP3   OH210201   1.859   4.355   2.374
 3422TIP3    H110202   1.814   4.338   2.289
 3422TIP3    H210203   1.828   4.444   2.398
 3423TIP3   OH210204   1.298   4.205   2.757
 3423TIP3    H110205   1.345   4.195   2.843
 3423TIP3    H210206   1.237   4.129   2.761
 3424TIP3   OH210207   2.061   4.255   2.013
 3424TIP3    H110208   2.120   4.186   1.977
 3424TIP3    H210209   2.096   4.266   2.104
 3425TIP3   OH210210   2.111   4.304   2.283
 3425TIP3    H110211   2.023   4.313   2.326
 3425TIP3    H210212   2.163   4.266   2.356
 3426TIP3   OH210213   1.479   3.979   3.589
 3426TIP3    H110214   1.529   3.961   3.671
 3426TIP3    H210215   1.405   3.915   3.596
 3427TIP3   OH210216   1.878   2.806   3.369
 3427TIP3    H110217   1.789   2.771   3.345
 3427TIP3    H210218   1.851   2.883   3.423
 3428TIP3   OH210219   2.414   2.916   3.565
 3428TIP3    H110220   2.483   2.890   3.630
 3428TIP3    H210221   2.331   2.897   3.614
 3429TIP3   OH210222   2.649   3.342   3.476
 3429TIP3    H110223   2.607   3.345   3.564
 3429TIP3    H210224   2.641   3.434   3.445
 3430TIP3   OH210225   2.312   3.473   2.040
 3430TIP3    H110226   2.280   3.451   1.951
 3430TIP3    H210227   2.390   3.527   2.018
 3431TIP3   OH210228   2.024   2.851   2.342
 3431TIP3    H110229   1.989   2.842   2.433
 3431TIP3    H210230   1.986   2.770   2.302
 3432TIP3   OH210231   1.808   3.316   3.387
 3432TIP3    H110232   1.760   3.338   3.470
 3432TIP3    H210233   1.797   3.399   3.336
 3433TIP3   OH210234   1.708   3.201   2.896
 3433TIP3    H110235   1.612   3.186   2.912
 3433TIP3    H210236   1.714   3.172   2.802
 3434TIP3   OH210237   2.181   3.292   2.639
 3434TIP3    H110238   2.128   3.360   2.592
 3434TIP3    H210239   2.232   3.254   2.565
 3435TIP3   OH210240   2.355   3.567   3.716
 3435TIP3    H110241   2.335   3.495   3.779
 3435TIP3    H210242   2.449   3.579   3.731
 3436TIP3   OH210243   2.335   3.318   2.870
 3436TIP3    H110244   2.279   3.345   2.794
 3436TIP3    H210245   2.373   3.237   2.829
 3437TIP3   OH210246   1.630   3.345   3.598
 3437TIP3    H110247   1.656   3.410   3.666
 3437TIP3    H210248   1.617   3.264   3.651
 3438TIP3   OH210249   1.682   2.826   2.308
 3438TIP3    H110250   1.666   2.817   2.404
 3438TIP3    H210251   1.601   2.875   2.281
 3439TIP3   OH210252   1.217   2.884   3.171
 3439TIP3    H110253   1.296   2.896   3.226
 3439TIP3    H210254   1.247   2.831   3.095
 3440TIP3   OH210255   1.209   2.856   2.700
 3440TIP3    H110256   1.245   2.896   2.618
 3440TIP3    H210257   1.138   2.921   2.720
 3441TIP3   OH210258   2.335   3.564   3.290
 3441TIP3    H110259   2.376   3.494   3.235
 3441TIP3    H210260   2.317   3.513   3.372
 3442TIP3   OH210261   1.464   3.085   2.967
 3442TIP3    H110262   1.369   3.099   2.945
 3442TIP3    H210263   1.474   2.990   2.952
 3443TIP3   OH210264   1.753   3.097   2.643
 3443TIP3    H110265   1.819   3.133   2.583
 3443TIP3    H210266   1.675   3.098   2.583
 3444TIP3   OH210267   2.512   3.109   3.165
 3444TIP3    H110268   2.479   3.116   3.258
 3444TIP3    H210269   2.458   3.039   3.129
 3445TIP3   OH210270   1.571   3.105   2.450
 3445TIP3    H110271   1.494   3.064   2.406
 3445TIP3    H210272   1.619   3.140   2.372
 3446TIP3   OH210273   2.683   4.791   3.386
 3446TIP3    H110274   2.682   4.814   3.291
 3446TIP3    H210275   2.763   4.838   3.417
 3447TIP3   OH210276   1.641   3.900   3.808
 3447TIP3    H110277   1.721   3.930   3.855
 3447TIP3    H210278   1.577   3.898   3.881
 3448TIP3   OH210279   2.096   3.292   3.054
 3448TIP3    H110280   2.182   3.311   3.012
 3448TIP3    H210281   2.120   3.295   3.150
 3449TIP3   OH210282   1.643   2.836   2.946
 3449TIP3    H110283   1.593   2.766   2.994
 3449TIP3    H210284   1.672   2.787   2.868
 3450TIP3   OH210285   2.080   3.257   3.344
 3450TIP3    H110286   1.993   3.293   3.371
 3450TIP3    H210287   2.142   3.309   3.399
 3451TIP3   OH210288   1.819   3.643   2.447
 3451TIP3    H110289   1.746   3.577   2.436
 3451TIP3    H210290   1.800   3.677   2.538
 3452TIP3   OH210291   2.719   3.879   3.077
 3452TIP3    H110292   2.745   3.928   2.996
 3452TIP3    H210293   2.635   3.838   3.050
 3453TIP3   OH210294   2.277   2.953   2.310
 3453TIP3    H110295   2.181   2.937   2.317
 3453TIP3    H210296   2.287   3.047   2.334
 3454TIP3   OH210297   2.213   3.957   3.445
 3454TIP3    H110298   2.242   3.940   3.536
 3454TIP3    H210299   2.179   4.048   3.451
 3455TIP3   OH210300   2.344   3.200   2.414
 3455TIP3    H110301   2.440   3.207   2.432
 3455TIP3    H210302   2.326   3.283   2.365
 3456TIP3   OH210303   1.513   3.667   3.126
 3456TIP3    H110304   1.547   3.633   3.041
 3456TIP3    H210305   1.541   3.599   3.190
 3457TIP3   OH210306   1.962   3.791   2.265
 3457TIP3    H110307   1.915   3.877   2.271
 3457TIP3    H210308   1.909   3.737   2.328
 3458TIP3   OH210309   1.392   3.583   3.736
 3458TIP3    H110310   1.412   3.570   3.830
 3458TIP3    H210311   1.322   3.517   3.722
 3459TIP3   OH210312   2.115   3.699   3.754
 3459TIP3    H110313   2.056   3.637   3.708
 3459TIP3    H210314   2.203   3.665   3.729
 3460TIP3   OH210315   2.377   4.216   3.341
 3460TIP3    H110316   2.280   4.218   3.353
 3460TIP3    H210317   2.406   4.269   3.418
 3461TIP3   OH210318   2.786   3.291   2.246
 3461TIP3    H110319   2.730   3.246   2.180
 3461TIP3    H210320   2.780   3.382   2.210
 3462TIP3   OH210321   3.007   4.148   3.332
 3462TIP3    H110322   2.910   4.135   3.327
 3462TIP3    H210323   3.032   4.118   3.242
 3463TIP3   OH210324   2.483   4.111   2.155
 3463TIP3    H110325   2.466   4.039   2.217
 3463TIP3    H210326   2.502   4.065   2.071
 3464TIP3   OH210327   2.485   3.742   2.995
 3464TIP3    H110328   2.391   3.719   3.008
 3464TIP3    H210329   2.519   3.661   2.951
 3465TIP3   OH210330   1.611   3.966   2.746
 3465TIP3    H110331   1.611   4.049   2.693
 3465TIP3    H210332   1.517   3.953   2.759
 3466TIP3   OH210333   1.175   3.272   2.453
 3466TIP3    H110334   1.218   3.358   2.472
 3466TIP3    H210335   1.097   3.276   2.512
 3467TIP3   OH210336   1.749   3.732   2.692
 3467TIP3    H110337   1.716   3.823   2.707
 3467TIP3    H210338   1.709   3.686   2.768
 3468TIP3   OH210339   1.880   4.311   3.217
 3468TIP3    H110340   1.922   4.384   3.166
 3468TIP3    H210341   1.957   4.277   3.266
 3469TIP3   OH210342   1.531   4.206   2.600
 3469TIP3    H110343   1.445   4.214   2.646
 3469TIP3    H210344   1.563   4.299   2.603
 3470TIP3   OH210345   2.268   3.945   3.176
 3470TIP3    H110346   2.258   3.942   3.274
 3470TIP3    H210347   2.352   3.898   3.164
 3471TIP3   OH210348   2.242   3.833   2.060
 3471TIP3    H110349   2.297   3.810   2.138
 3471TIP3    H210350   2.153   3.813   2.094
 3472TIP3   OH210351   2.516   4.480   3.227
 3472TIP3    H110352   2.437   4.424   3.217
 3472TIP3    H210353   2.503   4.544   3.154
 3473TIP3   OH210354   2.582   4.312   1.878
 3473TIP3    H110355   2.622   4.384   1.826
 3473TIP3    H210356   2.503   4.359   1.911
 3474TIP3   OH210357   1.603   3.088   3.743
 3474TIP3    H110358   1.507   3.094   3.758
 3474TIP3    H210359   1.631   3.031   3.818
 3475TIP3   OH210360   2.403   3.770   2.275
 3475TIP3    H110361   2.395   3.705   2.348
 3475TIP3    H210362   2.501   3.769   2.263
 3476TIP3   OH210363   1.319   4.174   3.377
 3476TIP3    H110364   1.371   4.098   3.407
 3476TIP3    H210365   1.350   4.242   3.438
 3477TIP3   OH210366   1.609   3.817   2.056
 3477TIP3    H110367   1.626   3.724   2.032
 3477TIP3    H210368   1.591   3.809   2.151
 3478TIP3   OH210369   1.558   3.824   2.327
 3478TIP3    H110370   1.626   3.798   2.390
 3478TIP3    H210371   1.559   3.922   2.335
 3479TIP3   OH210372   1.294   3.520   2.535
 3479TIP3    H110373   1.226   3.562   2.591
 3479TIP3    H210374   1.304   3.589   2.466
 3480TIP3   OH210375   2.438   3.153   3.423
 3480TIP3    H110376   2.518   3.197   3.456
 3480TIP3    H210377   2.431   3.074   3.482
 3481TIP3   OH210378   2.309   2.912   2.592
 3481TIP3    H110379   2.306   2.929   2.496
 3481TIP3    H210380   2.357   2.991   2.625
 3482TIP3   OH210381   1.820   4.021   2.277
 3482TIP3    H110382   1.734   4.047   2.314
 3482TIP3    H210383   1.838   4.098   2.221
 3483TIP3   OH210384   2.278   3.400   3.501
 3483TIP3    H110385   2.296   3.456   3.580
 3483TIP3    H210386   2.338   3.326   3.516
 3484TIP3   OH210387   2.150   2.832   2.799
 3484TIP3    H110388   2.200   2.864   2.878
 3484TIP3    H210389   2.208   2.864   2.727
 3485TIP3   OH210390   1.563   4.096   2.346
 3485TIP3    H110391   1.533   4.166   2.284
 3485TIP3    H210392   1.547   4.139   2.433
 3486TIP3   OH210393   1.663   2.803   2.585
 3486TIP3    H110394   1.661   2.894   2.617
 3486TIP3    H210395   1.759   2.784   2.590
 3487TIP3   OH210396   2.918   3.274   3.480
 3487TIP3    H110397   2.823   3.294   3.487
 3487TIP3    H210398   2.931   3.278   3.384
 3488TIP3   OH210399   2.568   3.500   2.871
 3488TIP3    H110400   2.496   3.435   2.882
 3488TIP3    H210401   2.643   3.456   2.916
 3489TIP3   OH210402   1.281   3.726   2.340
 3489TIP3    H110403   1.343   3.801   2.349
 3489TIP3    H210404   1.329   3.674   2.272
 3490TIP3   OH210405   1.229   3.004   2.470
 3490TIP3    H110406   1.221   3.101   2.468
 3490TIP3    H210407   1.145   2.975   2.433
 3491TIP3   OH210408   2.537   4.453   2.819
 3491TIP3    H110409   2.495   4.500   2.744
 3491TIP3    H210410   2.631   4.472   2.799
 3492TIP3   OH210411   1.617   2.722   3.344
 3492TIP3    H110412   1.581   2.687   3.260
 3492TIP3    H210413   1.604   2.645   3.404
 3493TIP3   OH210414   1.152   3.938   2.726
 3493TIP3    H110415   1.082   3.970   2.785
 3493TIP3    H210416   1.125   3.980   2.641
 3494TIP3   OH210417   1.308   4.482   3.801
 3494TIP3    H110418   1.396   4.479   3.845
 3494TIP3    H210419   1.288   4.387   3.796
 3495TIP3   OH210420   1.789   4.449   3.841
 3495TIP3    H110421   1.884   4.430   3.852
 3495TIP3    H210422   1.767   4.389   3.768
 3496TIP3   OH210423   1.770   4.023   1.968
 3496TIP3    H110424   1.716   3.952   2.009
 3496TIP3    H210425   1.848   3.972   1.941
 3497TIP3   OH210426   2.430   4.354   3.575
 3497TIP3    H110427   2.421   4.284   3.644
 3497TIP3    H210428   2.508   4.404   3.605
 3498TIP3   OH210429   2.207   4.062   1.881
 3498TIP3    H110430   2.258   4.005   1.940
 3498TIP3    H210431   2.262   4.064   1.800
 3499TIP3   OH210432   1.440   3.890   3.998
 3499TIP3    H110433   1.457   3.795   4.007
 3499TIP3    H210434   1.352   3.890   3.953
 3500TIP3   OH210435   1.418   3.542   2.191
 3500TIP3    H110436   1.472   3.508   2.264
 3500TIP3    H210437   1.486   3.545   2.120
 3501TIP3   OH210438   2.048   3.974   3.772
 3501TIP3    H110439   2.007   3.991   3.685
 3501TIP3    H210440   2.078   3.881   3.764
 3502TIP3   OH210441   1.923   3.737   1.997
 3502TIP3    H110442   1.928   3.751   2.094
 3502TIP3    H210443   1.924   3.639   1.994
 3503TIP3   OH210444   2.542   3.979   3.381
 3503TIP3    H110445   2.618   4.021   3.336
 3503TIP3    H210446   2.473   4.047   3.365
 3504TIP3   OH210447   1.561   3.621   3.978
 3504TIP3    H110448   1.636   3.563   3.961
 3504TIP3    H210449   1.584   3.655   4.067
 3505TIP3   OH210450   1.628   3.443   2.416
 3505TIP3    H110451   1.594   3.400   2.496
 3505TIP3    H210452   1.662   3.367   2.364
 3506TIP3   OH210453   1.895   3.506   3.638
 3506TIP3    H110454   1.818   3.567   3.641
 3506TIP3    H210455   1.946   3.542   3.561
 3507TIP3   OH210456   1.726   3.234   2.258
 3507TIP3    H110457   1.697   3.237   2.164
 3507TIP3    H210458   1.823   3.241   2.247
 3508TIP3   OH210459   2.412   3.910   3.773
 3508TIP3    H110460   2.487   3.880   3.719
 3508TIP3    H210461   2.409   3.844   3.844
 3509TIP3   OH210462   2.548   3.565   1.915
 3509TIP3    H110463   2.532   3.521   1.830
 3509TIP3    H210464   2.518   3.656   1.894
 3510TIP3   OH210465   2.016   3.296   3.768
 3510TIP3    H110466   2.018   3.216   3.712
 3510TIP3    H210467   1.973   3.362   3.710
 3511TIP3   OH210468   2.020   3.082   3.573
 3511TIP3    H110469   2.047   3.122   3.489
 3511TIP3    H210470   1.926   3.060   3.556
 3512TIP3   OH210471   2.047   3.614   3.443
 3512TIP3    H110472   2.133   3.628   3.401
 3512TIP3    H210473   1.992   3.683   3.401
 3513TIP3   OH210474   2.652   3.587   3.846
 3513TIP3    H110475   2.690   3.497   3.843
 3513TIP3    H210476   2.711   3.634   3.785
 3514TIP3   OH210477   2.672   3.842   3.581
 3514TIP3    H110478   2.618   3.892   3.515
 3514TIP3    H210479   2.761   3.852   3.540
 3515TIP3   OH210480   1.888   3.410   3.992
 3515TIP3    H110481   1.824   3.339   4.011
 3515TIP3    H210482   1.929   3.378   3.909
 3516TIP3   OH210483   2.152   2.845   3.641
 3516TIP3    H110484   2.103   2.927   3.620
 3516TIP3    H210485   2.082   2.777   3.632
 3517TIP3   OH210486   2.277   3.351   3.860
 3517TIP3    H110487   2.268   3.338   3.956
 3517TIP3    H210488   2.187   3.325   3.832
 3518TIP3   OH210489   2.518   3.307   3.713
 3518TIP3    H110490   2.443   3.303   3.775
 3518TIP3    H210491   2.592   3.273   3.769
 3519TIP3   OH210492   2.728   3.236   3.872
 3519TIP3    H110493   2.751   3.142   3.886
 3519TIP3    H210494   2.746   3.276   3.959
 3520TIP3   OH210495   1.735   3.187   4.051
 3520TIP3    H110496   1.742   3.095   4.019
 3520TIP3    H210497   1.771   3.178   4.141
 3521TIP3   OH210498   2.246   2.855   3.899
 3521TIP3    H110499   2.315   2.785   3.895
 3521TIP3    H210500   2.207   2.848   3.810
 3522TIP3   OH210501   2.312   3.071   4.059
 3522TIP3    H110502   2.290   3.000   3.994
 3522TIP3    H210503   2.234   3.129   4.053
 3523TIP3   OH210504   1.533   4.297   2.158
 3523TIP3    H110505   1.628   4.294   2.139
 3523TIP3    H210506   1.502   4.348   2.081
 3524TIP3   OH210507   1.012   3.681   2.375
 3524TIP3    H110508   1.107   3.702   2.362
 3524TIP3    H210509   1.006   3.592   2.333
 3525TIP3   OH210510   0.932   4.292   2.783
 3525TIP3    H110511   0.860   4.234   2.750
 3525TIP3    H210512   0.971   4.235   2.852
 3526TIP3   OH210513   1.065   4.144   2.974
 3526TIP3    H110514   1.049   4.072   3.037
 3526TIP3    H210515   1.115   4.206   3.031
 3527TIP3   OH210516   2.788   4.548   2.775
 3527TIP3    H110517   2.818   4.579   2.862
 3527TIP3    H210518   2.854   4.587   2.716
 3528TIP3   OH210519   2.819   4.566   3.058
 3528TIP3    H110520   2.777   4.477   3.053
 3528TIP3    H210521   2.896   4.544   3.113
 3529TIP3   OH210522   2.862   4.244   3.628
 3529TIP3    H110523   2.789   4.256   3.692
 3529TIP3    H210524   2.906   4.331   3.631
 3530TIP3   OH210525   2.681   3.755   2.251
 3530TIP3    H110526   2.749   3.819   2.220
 3530TIP3    H210527   2.726   3.718   2.330
 3531TIP3   OH210528   2.809   3.622   2.453
 3531TIP3    H110529   2.746   3.582   2.516
 3531TIP3    H210530   2.878   3.659   2.513
 3532TIP3   OH210531   2.861   4.012   2.883
 3532TIP3    H110532   2.918   3.948   2.836
 3532TIP3    H210533   2.859   4.088   2.821
 3533TIP3   OH210534   2.696   4.314   3.081
 3533TIP3    H110535   2.624   4.356   3.133
 3533TIP3    H210536   2.646   4.266   3.011
 3534TIP3   OH210537   2.744   3.527   2.105
 3534TIP3    H110538   2.675   3.534   2.036
 3534TIP3    H210539   2.720   3.606   2.159
 3535TIP3   OH210540   2.637   3.204   2.031
 3535TIP3    H110541   2.560   3.242   1.986
 3535TIP3    H210542   2.609   3.110   2.038
 3536TIP3   OH210543   2.622   3.479   2.601
 3536TIP3    H110544   2.635   3.383   2.597
 3536TIP3    H210545   2.610   3.494   2.698
 3537TIP3   OH210546   1.253   3.550   3.349
 3537TIP3    H110547   1.248   3.521   3.256
 3537TIP3    H210548   1.350   3.552   3.363
 3538TIP3   OH210549   2.918   3.883   3.464
 3538TIP3    H110550   2.985   3.814   3.488
 3538TIP3    H210551   2.965   3.936   3.399
 3539TIP3   OH210552   2.558   2.945   2.048
 3539TIP3    H110553   2.639   2.911   2.093
 3539TIP3    H210554   2.492   2.876   2.068
 3540TIP3   OH210555   2.618   3.193   2.495
 3540TIP3    H110556   2.659   3.105   2.512
 3540TIP3    H210557   2.680   3.227   2.428
 3541TIP3   OH210558   2.780   3.372   2.988
 3541TIP3    H110559   2.868   3.396   2.948
 3541TIP3    H210560   2.795   3.408   3.078
 3542TIP3   OH210561   2.847   3.509   3.222
 3542TIP3    H110562   2.775   3.544   3.278
 3542TIP3    H210563   2.880   3.591   3.179
 3543TIP3   OH210564   1.468   3.239   4.021
 3543TIP3    H110565   1.566   3.234   4.025
 3543TIP3    H210566   1.445   3.153   4.063
 3544TIP3   OH210567   3.307   3.100   3.784
 3544TIP3    H110568   3.366   3.037   3.737
 3544TIP3    H210569   3.272   3.154   3.710
 3545TIP3   OH210570   2.727   2.946   2.535
 3545TIP3    H110571   2.780   2.930   2.617
 3545TIP3    H210572   2.670   2.866   2.535
 3546TIP3   OH210573   1.429   2.928   3.348
 3546TIP3    H110574   1.490   2.853   3.362
 3546TIP3    H210575   1.491   3.003   3.347
 3547TIP3   OH210576   1.234   3.204   3.428
 3547TIP3    H110577   1.280   3.199   3.342
 3547TIP3    H210578   1.260   3.292   3.458
 3548TIP3   OH210579   3.169   3.233   3.598
 3548TIP3    H110580   3.099   3.301   3.598
 3548TIP3    H210581   3.133   3.172   3.532
 3549TIP3   OH210582   2.807   2.884   2.159
 3549TIP3    H110583   2.847   2.806   2.114
 3549TIP3    H210584   2.881   2.948   2.158
 3550TIP3   OH210585   1.220   2.721   2.937
 3550TIP3    H110586   1.137   2.671   2.941
 3550TIP3    H210587   1.212   2.771   2.853
 3551TIP3   OH210588   2.374   4.412   2.432
 3551TIP3    H110589   2.425   4.398   2.350
 3551TIP3    H210590   2.429   4.477   2.478
 3552TIP3   OH210591   1.435   2.785   3.740
 3552TIP3    H110592   1.386   2.783   3.823
 3552TIP3    H210593   1.369   2.826   3.680
 3553TIP3   OH210594   1.475   4.218   3.818
 3553TIP3    H110595   1.384   4.188   3.802
 3553TIP3    H210596   1.488   4.194   3.910
 3554TIP3   OH210597   1.653   4.247   3.365
 3554TIP3    H110598   1.605   4.322   3.326
 3554TIP3    H210599   1.740   4.261   3.321
 3555TIP3   OH210600   2.098   4.493   3.503
 3555TIP3    H110601   2.141   4.493   3.592
 3555TIP3    H210602   2.165   4.543   3.451
 3556TIP3   OH210603   2.278   4.644   3.362
 3556TIP3    H110604   2.350   4.593   3.321
 3556TIP3    H210605   2.330   4.701   3.423
 3557TIP3   OH210606   3.074   3.005   3.460
 3557TIP3    H110607   2.983   3.010   3.428
 3557TIP3    H210608   3.097   2.910   3.445
 3558TIP3   OH210609   1.330   4.506   3.388
 3558TIP3    H110610   1.241   4.540   3.364
 3558TIP3    H210611   1.337   4.538   3.478
 3559TIP3   OH210612   1.567   4.483   3.247
 3559TIP3    H110613   1.480   4.496   3.291
 3559TIP3    H210614   1.547   4.515   3.157
 3560TIP3   OH210615   1.992   4.512   3.045
 3560TIP3    H110616   1.923   4.532   2.979
 3560TIP3    H210617   2.005   4.600   3.087
 3561TIP3   OH210618   2.261   4.450   3.096
 3561TIP3    H110619   2.167   4.469   3.076
 3561TIP3    H210620   2.305   4.526   3.054
 3562TIP3   OH210621   2.468   4.643   3.011
 3562TIP3    H110622   2.454   4.728   2.964
 3562TIP3    H210623   2.495   4.583   2.938
 3563TIP3   OH210624   1.242   4.299   3.134
 3563TIP3    H110625   1.268   4.273   3.225
 3563TIP3    H210626   1.313   4.255   3.083
 3564TIP3   OH210627   1.435   4.170   2.991
 3564TIP3    H110628   1.451   4.086   3.041
 3564TIP3    H210629   1.526   4.207   2.986
 3565TIP3   OH210630   1.701   4.265   2.994
 3565TIP3    H110631   1.733   4.174   2.982
 3565TIP3    H210632   1.745   4.287   3.078
 3566TIP3   OH210633   2.257   2.904   3.043
 3566TIP3    H110634   2.228   2.848   3.117
 3566TIP3    H210635   2.348   2.871   3.026
 3567TIP3   OH210636   2.800   2.796   2.988
 3567TIP3    H110637   2.842   2.848   2.916
 3567TIP3    H210638   2.708   2.825   2.983
 3568TIP3   OH210639   2.893   2.904   2.754
 3568TIP3    H110640   2.964   2.849   2.714
 3568TIP3    H210641   2.930   2.994   2.737
 3569TIP3   OH210642   1.524   2.632   3.096
 3569TIP3    H110643   1.432   2.598   3.095
 3569TIP3    H210644   1.572   2.546   3.092
 3570TIP3   OH210645   1.322   2.498   2.744
 3570TIP3    H110646   1.340   2.560   2.671
 3570TIP3    H210647   1.282   2.556   2.811
 3571TIP3   OH210648   1.967   2.670   2.978
 3571TIP3    H110649   2.033   2.714   2.922
 3571TIP3    H210650   1.995   2.697   3.067
 3572TIP3   OH210651   2.506   2.809   2.964
 3572TIP3    H110652   2.528   2.773   2.877
 3572TIP3    H210653   2.497   2.727   3.018
 3573TIP3   OH210654   2.544   2.733   2.527
 3573TIP3    H110655   2.454   2.767   2.533
 3573TIP3    H210656   2.534   2.646   2.571
 3574TIP3   OH210657   1.031   4.069   2.524
 3574TIP3    H110658   0.945   4.037   2.491
 3574TIP3    H210659   1.019   4.165   2.510
 3575TIP3   OH210660   1.427   2.660   2.506
 3575TIP3    H110661   1.473   2.594   2.450
 3575TIP3    H210662   1.503   2.709   2.545
 3576TIP3   OH210663   1.939   2.835   2.609
 3576TIP3    H110664   2.003   2.789   2.665
 3576TIP3    H210665   1.950   2.926   2.639
 3577TIP3   OH210666   1.802   4.258   2.108
 3577TIP3    H110667   1.890   4.281   2.072
 3577TIP3    H210668   1.779   4.185   2.047
 3578TIP3   OH210669   2.519   4.377   2.200
 3578TIP3    H110670   2.509   4.279   2.187
 3578TIP3    H210671   2.475   4.410   2.119
 3579TIP3   OH210672   1.734   2.910   3.987
 3579TIP3    H110673   1.699   2.841   4.045
 3579TIP3    H210674   1.828   2.910   4.015
 3580TIP3   OH210675   1.982   2.906   4.107
 3580TIP3    H110676   2.069   2.883   4.070
 3580TIP3    H210677   1.971   2.836   4.174
 3581TIP3   OH210678   1.104   4.096   2.164
 3581TIP3    H110679   1.100   4.124   2.256
 3581TIP3    H210680   1.194   4.057   2.157
 3582TIP3   OH210681   2.809   2.969   3.894
 3582TIP3    H110682   2.829   2.938   3.985
 3582TIP3    H210683   2.898   2.965   3.852
 3583TIP3   OH210684   2.745   4.522   3.390
 3583TIP3    H110685   2.668   4.491   3.339
 3583TIP3    H210686   2.728   4.618   3.391
 3584TIP3   OH210687   4.008   3.893   2.164
 3584TIP3    H110688   3.980   3.984   2.141
 3584TIP3    H210689   3.935   3.844   2.123
 3585TIP3   OH210690   4.010   3.896   2.536
 3585TIP3    H110691   4.042   3.864   2.622
 3585TIP3    H210692   3.971   3.816   2.498
 3586TIP3   OH210693   3.310   3.789   2.902
 3586TIP3    H110694   3.341   3.721   2.965
 3586TIP3    H210695   3.389   3.844   2.894
 3587TIP3   OH210696   4.258   4.194   2.218
 3587TIP3    H110697   4.242   4.124   2.283
 3587TIP3    H210698   4.286   4.269   2.274
 3588TIP3   OH210699   3.281   4.197   2.625
 3588TIP3    H110700   3.273   4.100   2.627
 3588TIP3    H210701   3.378   4.207   2.619
 3589TIP3   OH210702   2.989   3.400   2.409
 3589TIP3    H110703   2.945   3.485   2.425
 3589TIP3    H210704   2.915   3.348   2.373
 3590TIP3   OH210705   3.047   3.687   2.579
 3590TIP3    H110706   3.097   3.611   2.617
 3590TIP3    H210707   3.112   3.723   2.516
 3591TIP3   OH210708   3.903   4.662   2.237
 3591TIP3    H110709   3.946   4.592   2.183
 3591TIP3    H210710   3.899   4.619   2.323
 3592TIP3   OH210711   3.811   4.120   2.584
 3592TIP3    H110712   3.849   4.043   2.538
 3592TIP3    H210713   3.894   4.165   2.607
 3593TIP3   OH210714   4.824   3.439   2.581
 3593TIP3    H110715   4.852   3.522   2.626
 3593TIP3    H210716   4.843   3.462   2.489
 3594TIP3   OH210717   4.221   3.621   2.617
 3594TIP3    H110718   4.264   3.536   2.637
 3594TIP3    H210719   4.192   3.606   2.525
 3595TIP3   OH210720   3.559   3.280   2.581
 3595TIP3    H110721   3.541   3.353   2.518
 3595TIP3    H210722   3.512   3.207   2.537
 3596TIP3   OH210723   4.255   3.370   2.203
 3596TIP3    H110724   4.327   3.355   2.269
 3596TIP3    H210725   4.307   3.407   2.130
 3597TIP3   OH210726   3.194   3.483   2.687
 3597TIP3    H110727   3.277   3.464   2.736
 3597TIP3    H210728   3.210   3.427   2.608
 3598TIP3   OH210729   3.635   3.680   2.482
 3598TIP3    H110730   3.730   3.656   2.494
 3598TIP3    H210731   3.597   3.596   2.449
 3599TIP3   OH210732   4.896   3.645   2.753
 3599TIP3    H110733   4.813   3.695   2.735
 3599TIP3    H210734   4.920   3.682   2.840
 3600TIP3   OH210735   3.557   3.263   3.014
 3600TIP3    H110736   3.497   3.301   2.948
 3600TIP3    H210737   3.505   3.280   3.096
 3601TIP3   OH210738   3.887   4.105   2.034
 3601TIP3    H110739   3.873   4.097   1.939
 3601TIP3    H210740   3.855   4.196   2.051
 3602TIP3   OH210741   3.664   4.039   2.810
 3602TIP3    H110742   3.602   4.105   2.848
 3602TIP3    H210743   3.706   4.090   2.738
 3603TIP3   OH210744   4.466   3.372   2.375
 3603TIP3    H110745   4.452   3.329   2.460
 3603TIP3    H210746   4.518   3.450   2.401
 3604TIP3   OH210747   3.427   3.379   2.800
 3604TIP3    H110748   3.489   3.451   2.824
 3604TIP3    H210749   3.477   3.338   2.725
 3605TIP3   OH210750   3.491   4.233   2.908
 3605TIP3    H110751   3.465   4.319   2.870
 3605TIP3    H210752   3.412   4.217   2.965
 3606TIP3   OH210753   2.884   3.923   2.145
 3606TIP3    H110754   2.849   3.950   2.059
 3606TIP3    H210755   2.917   4.008   2.181
 3607TIP3   OH210756   4.326   4.440   2.387
 3607TIP3    H110757   4.236   4.430   2.425
 3607TIP3    H210758   4.317   4.524   2.340
 3608TIP3   OH210759   4.617   3.337   2.745
 3608TIP3    H110760   4.529   3.370   2.717
 3608TIP3    H210761   4.676   3.372   2.675
 3609TIP3   OH210762   3.913   2.980   2.728
 3609TIP3    H110763   3.902   2.885   2.749
 3609TIP3    H210764   3.836   3.018   2.776
 3610TIP3   OH210765   4.022   4.490   2.060
 3610TIP3    H110766   4.069   4.405   2.041
 3610TIP3    H210767   4.086   4.552   2.018
 3611TIP3   OH210768   4.158   4.273   1.966
 3611TIP3    H110769   4.193   4.220   1.893
 3611TIP3    H210770   4.196   4.228   2.045
 3612TIP3   OH210771   4.550   4.352   2.727
 3612TIP3    H110772   4.540   4.274   2.668
 3612TIP3    H210773   4.535   4.426   2.665
 3613TIP3   OH210774   3.843   3.745   1.986
 3613TIP3    H110775   3.766   3.800   1.962
 3613TIP3    H210776   3.894   3.746   1.903
 3614TIP3   OH210777   3.801   3.530   1.701
 3614TIP3    H110778   3.867   3.583   1.750
 3614TIP3    H210779   3.861   3.469   1.653
 3615TIP3   OH210780   4.746   3.987   2.571
 3615TIP3    H110781   4.664   4.039   2.577
 3615TIP3    H210782   4.777   4.013   2.482
 3616TIP3   OH210783   4.180   3.792   1.971
 3616TIP3    H110784   4.134   3.841   2.043
 3616TIP3    H210785   4.272   3.795   2.002
 3617TIP3   OH210786   4.426   3.867   2.869
 3617TIP3    H110787   4.424   3.950   2.920
 3617TIP3    H210788   4.340   3.873   2.823
 3618TIP3   OH210789   3.423   3.826   2.376
 3618TIP3    H110790   3.383   3.768   2.307
 3618TIP3    H210791   3.500   3.773   2.404
 3619TIP3   OH210792   3.552   4.236   2.523
 3619TIP3    H110793   3.533   4.196   2.437
 3619TIP3    H210794   3.643   4.203   2.541
 3620TIP3   OH210795   3.556   3.798   2.727
 3620TIP3    H110796   3.592   3.774   2.639
 3620TIP3    H210797   3.603   3.882   2.747
 3621TIP3   OH210798   4.083   4.435   2.504
 3621TIP3    H110799   4.072   4.514   2.561
 3621TIP3    H210800   4.070   4.361   2.567
 3622TIP3   OH210801   3.698   4.355   3.050
 3622TIP3    H110802   3.638   4.416   3.098
 3622TIP3    H210803   3.632   4.300   3.002
 3623TIP3   OH210804   4.027   3.682   1.781
 3623TIP3    H110805   4.087   3.737   1.837
 3623TIP3    H210806   4.057   3.708   1.691
 3624TIP3   OH210807   3.450   3.914   3.149
 3624TIP3    H110808   3.456   3.997   3.200
 3624TIP3    H210809   3.356   3.893   3.161
 3625TIP3   OH210810   3.772   4.371   2.060
 3625TIP3    H110811   3.855   4.420   2.073
 3625TIP3    H210812   3.715   4.436   2.018
 3626TIP3   OH210813   3.491   4.523   3.138
 3626TIP3    H110814   3.456   4.521   3.047
 3626TIP3    H210815   3.411   4.502   3.191
 3627TIP3   OH210816   4.546   2.926   1.833
 3627TIP3    H110817   4.465   2.949   1.882
 3627TIP3    H210818   4.562   3.008   1.782
 3628TIP3   OH210819   3.289   3.669   2.179
 3628TIP3    H110820   3.224   3.713   2.121
 3628TIP3    H210821   3.251   3.582   2.190
 3629TIP3   OH210822   4.338   4.299   1.332
 3629TIP3    H110823   4.351   4.394   1.351
 3629TIP3    H210824   4.427   4.263   1.350
 3630TIP3   OH210825   3.070   4.051   3.086
 3630TIP3    H110826   3.008   4.026   3.016
 3630TIP3    H210827   3.107   3.965   3.115
 3631TIP3   OH210828   2.925   4.244   2.719
 3631TIP3    H110829   3.021   4.236   2.708
 3631TIP3    H210830   2.920   4.324   2.775
 3632TIP3   OH210831   4.788   4.695   2.772
 3632TIP3    H110832   4.788   4.599   2.787
 3632TIP3    H210833   4.706   4.720   2.819
 3633TIP3   OH210834   3.895   4.484   2.908
 3633TIP3    H110835   3.893   4.576   2.941
 3633TIP3    H210836   3.824   4.443   2.962
 3634TIP3   OH210837   3.654   4.611   1.860
 3634TIP3    H110838   3.610   4.592   1.775
 3634TIP3    H210839   3.622   4.701   1.882
 3635TIP3   OH210840   3.093   4.461   2.245
 3635TIP3    H110841   3.143   4.452   2.330
 3635TIP3    H210842   3.037   4.381   2.249
 3636TIP3   OH210843   3.858   4.510   1.500
 3636TIP3    H110844   3.917   4.441   1.463
 3636TIP3    H210845   3.892   4.518   1.591
 3637TIP3   OH210846   3.907   4.561   1.771
 3637TIP3    H110847   3.819   4.569   1.814
 3637TIP3    H210848   3.957   4.515   1.840
 3638TIP3   OH210849   4.681   3.827   3.048
 3638TIP3    H110850   4.599   3.839   2.998
 3638TIP3    H210851   4.695   3.730   3.039
 3639TIP3   OH210852   3.274   4.237   3.075
 3639TIP3    H110853   3.326   4.219   3.156
 3639TIP3    H210854   3.201   4.171   3.083
 3640TIP3   OH210855   3.674   3.058   2.857
 3640TIP3    H110856   3.585   3.028   2.831
 3640TIP3    H210857   3.650   3.140   2.904
 3641TIP3   OH210858   4.208   3.174   3.052
 3641TIP3    H110859   4.276   3.146   3.117
 3641TIP3    H210860   4.124   3.153   3.098
 3642TIP3   OH210861   4.448   3.603   2.970
 3642TIP3    H110862   4.399   3.600   3.055
 3642TIP3    H210863   4.424   3.691   2.935
 3643TIP3   OH210864   4.105   3.726   1.525
 3643TIP3    H110865   4.081   3.708   1.432
 3643TIP3    H210866   4.178   3.790   1.514
 3644TIP3   OH210867   3.825   3.105   1.830
 3644TIP3    H110868   3.790   3.104   1.922
 3644TIP3    H210869   3.782   3.024   1.796
 3645TIP3   OH210870   3.605   3.575   2.876
 3645TIP3    H110871   3.558   3.598   2.959
 3645TIP3    H210872   3.589   3.656   2.822
 3646TIP3   OH210873   3.491   3.460   2.390
 3646TIP3    H110874   3.398   3.434   2.408
 3646TIP3    H210875   3.504   3.420   2.302
 3647TIP3   OH210876   3.979   3.544   2.117
 3647TIP3    H110877   3.927   3.618   2.077
 3647TIP3    H210878   4.038   3.521   2.043
 3648TIP3   OH210879   4.156   3.825   3.204
 3648TIP3    H110880   4.134   3.752   3.267
 3648TIP3    H210881   4.249   3.840   3.226
 3649TIP3   OH210882   4.138   3.575   2.358
 3649TIP3    H110883   4.081   3.610   2.286
 3649TIP3    H210884   4.169   3.494   2.313
 3650TIP3   OH210885   3.423   3.603   3.087
 3650TIP3    H110886   3.460   3.664   3.153
 3650TIP3    H210887   3.415   3.520   3.137
 3651TIP3   OH210888   3.477   3.080   1.795
 3651TIP3    H110889   3.468   3.078   1.892
 3651TIP3    H210890   3.399   3.133   1.771
 3652TIP3   OH210891   3.018   3.126   2.666
 3652TIP3    H110892   3.093   3.157   2.720
 3652TIP3    H210893   3.060   3.092   2.586
 3653TIP3   OH210894   2.991   3.105   2.181
 3653TIP3    H110895   3.051   3.138   2.111
 3653TIP3    H210896   2.940   3.185   2.204
 3654TIP3   OH210897   4.147   3.821   2.781
 3654TIP3    H110898   4.181   3.750   2.722
 3654TIP3    H210899   4.119   3.767   2.858
 3655TIP3   OH210900   3.817   3.283   2.452
 3655TIP3    H110901   3.736   3.281   2.506
 3655TIP3    H210902   3.886   3.282   2.520
 3656TIP3   OH210903   3.253   3.338   2.461
 3656TIP3    H110904   3.158   3.343   2.433
 3656TIP3    H210905   3.278   3.246   2.438
 3657TIP3   OH210906   3.521   3.334   2.148
 3657TIP3    H110907   3.616   3.349   2.128
 3657TIP3    H210908   3.476   3.357   2.063
 3658TIP3   OH210909   4.310   3.358   2.652
 3658TIP3    H110910   4.277   3.371   2.744
 3658TIP3    H210911   4.243   3.297   2.617
 3659TIP3   OH210912   3.360   3.369   1.927
 3659TIP3    H110913   3.290   3.324   1.876
 3659TIP3    H210914   3.414   3.405   1.853
 3660TIP3   OH210915   4.479   5.048   2.873
 3660TIP3    H110916   4.479   5.071   2.778
 3660TIP3    H210917   4.559   5.094   2.904
 3661TIP3   OH210918   3.436   4.162   3.294
 3661TIP3    H110919   3.518   4.187   3.341
 3661TIP3    H210920   3.375   4.154   3.370
 3662TIP3   OH210921   3.900   3.609   2.548
 3662TIP3    H110922   3.974   3.573   2.498
 3662TIP3    H210923   3.911   3.568   2.636
 3663TIP3   OH210924   3.422   3.099   2.427
 3663TIP3    H110925   3.389   3.019   2.474
 3663TIP3    H210926   3.479   3.060   2.359
 3664TIP3   OH210927   3.878   3.507   2.840
 3664TIP3    H110928   3.788   3.544   2.854
 3664TIP3    H210929   3.936   3.567   2.890
 3665TIP3   OH210930   3.613   3.899   1.931
 3665TIP3    H110931   3.541   3.833   1.923
 3665TIP3    H210932   3.598   3.933   2.022
 3666TIP3   OH210933   4.515   4.134   2.564
 3666TIP3    H110934   4.539   4.184   2.483
 3666TIP3    H210935   4.430   4.092   2.538
 3667TIP3   OH210936   4.069   3.219   1.773
 3667TIP3    H110937   3.976   3.199   1.797
 3667TIP3    H210938   4.084   3.308   1.811
 3668TIP3   OH210939   4.013   4.216   2.931
 3668TIP3    H110940   4.040   4.193   3.021
 3668TIP3    H210941   3.975   4.304   2.940
 3669TIP3   OH210942   4.143   3.454   1.895
 3669TIP3    H110943   4.238   3.465   1.916
 3669TIP3    H210944   4.123   3.537   1.848
 3670TIP3   OH210945   3.303   3.917   2.610
 3670TIP3    H110946   3.343   3.891   2.524
 3670TIP3    H210947   3.351   3.860   2.672
 3671TIP3   OH210948   3.760   4.046   1.749
 3671TIP3    H110949   3.713   4.133   1.758
 3671TIP3    H210950   3.709   3.992   1.813
 3672TIP3   OH210951   3.182   3.843   3.229
 3672TIP3    H110952   3.215   3.832   3.320
 3672TIP3    H210953   3.122   3.767   3.219
 3673TIP3   OH210954   3.913   3.955   3.242
 3673TIP3    H110955   3.855   3.895   3.193
 3673TIP3    H210956   4.002   3.922   3.216
 3674TIP3   OH210957   4.174   4.479   2.825
 3674TIP3    H110958   4.077   4.475   2.839
 3674TIP3    H210959   4.202   4.528   2.905
 3675TIP3   OH210960   4.586   3.548   1.735
 3675TIP3    H110961   4.524   3.505   1.672
 3675TIP3    H210962   4.581   3.639   1.700
 3676TIP3   OH210963   4.800   4.405   2.816
 3676TIP3    H110964   4.703   4.399   2.807
 3676TIP3    H210965   4.827   4.375   2.726
 3677TIP3   OH210966   4.280   3.997   2.484
 3677TIP3    H110967   4.186   3.972   2.495
 3677TIP3    H210968   4.314   3.918   2.438
 3678TIP3   OH210969   3.408   4.225   2.237
 3678TIP3    H110970   3.411   4.304   2.181
 3678TIP3    H210971   3.313   4.208   2.242
 3679TIP3   OH210972   2.963   3.528   1.933
 3679TIP3    H110973   3.015   3.608   1.950
 3679TIP3    H210974   2.891   3.538   1.999
 3680TIP3   OH210975   3.542   3.988   2.177
 3680TIP3    H110976   3.512   4.078   2.196
 3680TIP3    H210977   3.509   3.939   2.254
 3681TIP3   OH210978   3.676   4.568   2.704
 3681TIP3    H110979   3.719   4.640   2.653
 3681TIP3    H210980   3.752   4.532   2.753
 3682TIP3   OH210981   3.326   4.464   2.086
 3682TIP3    H110982   3.241   4.472   2.133
 3682TIP3    H210983   3.358   4.557   2.089
 3683TIP3   OH210984   4.066   4.203   2.662
 3683TIP3    H110985   4.056   4.199   2.760
 3683TIP3    H210986   4.144   4.148   2.648
 3684TIP3   OH210987   4.015   4.088   1.534
 3684TIP3    H110988   4.099   4.096   1.585
 3684TIP3    H210989   3.954   4.062   1.604
 3685TIP3   OH210990   4.313   4.737   2.715
 3685TIP3    H110991   4.235   4.678   2.707
 3685TIP3    H210992   4.297   4.800   2.641
 3686TIP3   OH210993   4.379   4.574   1.372
 3686TIP3    H110994   4.420   4.645   1.320
 3686TIP3    H210995   4.297   4.620   1.400
 3687TIP3   OH210996   3.399   3.345   3.230
 3687TIP3    H110997   3.304   3.349   3.252
 3687TIP3    H210998   3.434   3.293   3.305
 3688TIP3   OH210999   3.113   4.430   2.864
 3688TIP3    H111000   3.167   4.355   2.893
 3688TIP3    H211001   3.145   4.499   2.924
 3689TIP3   OH211002   3.400   4.078   1.545
 3689TIP3    H111003   3.425   3.989   1.516
 3689TIP3    H211004   3.384   4.064   1.641
 3690TIP3   OH211005   3.350   4.080   1.820
 3690TIP3    H111006   3.426   4.053   1.873
 3690TIP3    H211007   3.356   4.178   1.826
 3691TIP3   OH211008   3.085   3.772   2.020
 3691TIP3    H111009   3.020   3.819   2.076
 3691TIP3    H211010   3.102   3.841   1.953
 3692TIP3   OH211011   4.236   3.409   2.911
 3692TIP3    H111012   4.314   3.449   2.953
 3692TIP3    H211013   4.221   3.329   2.965
 3693TIP3   OH211014   4.120   3.163   2.074
 3693TIP3    H111015   4.103   3.194   1.984
 3693TIP3    H211016   4.158   3.244   2.116
 3694TIP3   OH211017   3.615   4.276   1.765
 3694TIP3    H111018   3.529   4.305   1.801
 3694TIP3    H211019   3.634   4.348   1.704
 3695TIP3   OH211020   3.803   3.341   2.180
 3695TIP3    H111021   3.868   3.413   2.161
 3695TIP3    H211022   3.810   3.334   2.277
 3696TIP3   OH211023   4.074   3.660   2.988
 3696TIP3    H111024   4.095   3.715   3.067
 3696TIP3    H211025   4.130   3.582   3.003
 3697TIP3   OH211026   3.950   3.069   2.281
 3697TIP3    H111027   3.945   3.145   2.343
 3697TIP3    H211028   4.010   3.106   2.213
 3698TIP3   OH211029   3.359   4.354   1.833
 3698TIP3    H111030   3.329   4.424   1.770
 3698TIP3    H211031   3.344   4.397   1.919
 3699TIP3   OH211032   3.461   3.067   2.071
 3699TIP3    H111033   3.461   3.158   2.108
 3699TIP3    H211034   3.556   3.046   2.080
 3700TIP3   OH211035   4.715   3.558   2.970
 3700TIP3    H111036   4.617   3.556   2.975
 3700TIP3    H211037   4.728   3.526   2.880
 3701TIP3   OH211038   4.365   3.756   2.359
 3701TIP3    H111039   4.290   3.695   2.369
 3701TIP3    H211040   4.438   3.708   2.405
 3702TIP3   OH211041   3.077   3.986   1.825
 3702TIP3    H111042   3.146   4.054   1.836
 3702TIP3    H211043   3.123   3.929   1.760
 3703TIP3   OH211044   3.014   3.260   1.945
 3703TIP3    H111045   3.022   3.357   1.931
 3703TIP3    H211046   2.927   3.252   1.983
 3704TIP3   OH211047   4.333   4.712   2.306
 3704TIP3    H111048   4.291   4.759   2.231
 3704TIP3    H211049   4.427   4.729   2.286
 3705TIP3   OH211050   3.407   2.979   2.834
 3705TIP3    H111051   3.379   2.944   2.746
 3705TIP3    H211052   3.400   2.900   2.891
 3706TIP3   OH211053   2.950   4.196   2.214
 3706TIP3    H111054   2.877   4.229   2.268
 3706TIP3    H211055   2.928   4.236   2.127
 3707TIP3   OH211056   3.105   4.739   3.286
 3707TIP3    H111057   3.192   4.739   3.332
 3707TIP3    H211058   3.087   4.643   3.283
 3708TIP3   OH211059   3.586   4.706   3.328
 3708TIP3    H111060   3.680   4.685   3.338
 3708TIP3    H211061   3.563   4.645   3.255
 3709TIP3   OH211062   3.569   4.279   1.457
 3709TIP3    H111063   3.513   4.208   1.496
 3709TIP3    H211064   3.646   4.227   1.428
 3710TIP3   OH211065   4.226   4.610   3.063
 3710TIP3    H111066   4.216   4.540   3.131
 3710TIP3    H211067   4.304   4.659   3.094
 3711TIP3   OH211068   4.013   4.323   1.368
 3711TIP3    H111069   4.050   4.257   1.429
 3711TIP3    H211070   4.078   4.318   1.295
 3712TIP3   OH211071   3.235   4.145   3.489
 3712TIP3    H111072   3.261   4.051   3.485
 3712TIP3    H211073   3.150   4.144   3.440
 3713TIP3   OH211074   3.216   3.802   1.682
 3713TIP3    H111075   3.272   3.766   1.753
 3713TIP3    H211076   3.281   3.805   1.609
 3714TIP3   OH211077   3.843   4.230   3.259
 3714TIP3    H111078   3.804   4.245   3.171
 3714TIP3    H211079   3.875   4.137   3.253
 3715TIP3   OH211080   3.704   3.990   1.482
 3715TIP3    H111081   3.725   4.007   1.577
 3715TIP3    H211082   3.713   3.893   1.480
 3716TIP3   OH211083   4.336   4.238   2.865
 3716TIP3    H111084   4.411   4.282   2.821
 3716TIP3    H211085   4.266   4.304   2.850
 3717TIP3   OH211086   3.359   3.897   3.453
 3717TIP3    H111087   3.395   3.808   3.445
 3717TIP3    H211088   3.370   3.910   3.550
 3718TIP3   OH211089   3.419   3.699   1.900
 3718TIP3    H111090   3.397   3.658   1.984
 3718TIP3    H211091   3.457   3.625   1.849
 3719TIP3   OH211092   3.687   3.761   3.125
 3719TIP3    H111093   3.613   3.824   3.129
 3719TIP3    H211094   3.740   3.797   3.050
 3720TIP3   OH211095   3.522   3.492   1.743
 3720TIP3    H111096   3.496   3.497   1.648
 3720TIP3    H211097   3.620   3.498   1.735
 3721TIP3   OH211098   4.207   4.166   3.262
 3721TIP3    H111099   4.289   4.143   3.217
 3721TIP3    H211100   4.204   4.101   3.335
 3722TIP3   OH211101   4.350   3.826   1.400
 3722TIP3    H111102   4.319   3.786   1.317
 3722TIP3    H211103   4.318   3.919   1.387
 3723TIP3   OH211104   3.816   3.554   3.254
 3723TIP3    H111105   3.814   3.472   3.200
 3723TIP3    H211106   3.770   3.618   3.196
 3724TIP3   OH211107   3.815   3.338   3.062
 3724TIP3    H111108   3.844   3.380   2.978
 3724TIP3    H211109   3.722   3.315   3.043
 3725TIP3   OH211110   3.843   3.872   2.935
 3725TIP3    H111111   3.927   3.881   2.889
 3725TIP3    H211112   3.788   3.940   2.890
 3726TIP3   OH211113   4.425   3.840   3.316
 3726TIP3    H111114   4.475   3.758   3.327
 3726TIP3    H211115   4.494   3.902   3.287
 3727TIP3   OH211116   4.467   4.093   3.052
 3727TIP3    H111117   4.409   4.147   2.993
 3727TIP3    H211118   4.555   4.114   3.013
 3728TIP3   OH211119   3.692   3.669   3.484
 3728TIP3    H111120   3.627   3.597   3.498
 3728TIP3    H211121   3.728   3.645   3.396
 3729TIP3   OH211122   3.949   3.103   3.129
 3729TIP3    H111123   3.898   3.184   3.107
 3729TIP3    H211124   3.882   3.033   3.118
 3730TIP3   OH211125   4.076   3.607   3.346
 3730TIP3    H111126   4.064   3.596   3.442
 3730TIP3    H211127   3.986   3.582   3.316
 3731TIP3   OH211128   4.312   3.554   3.198
 3731TIP3    H111129   4.238   3.557   3.262
 3731TIP3    H211130   4.387   3.524   3.255
 3732TIP3   OH211131   4.540   3.495   3.350
 3732TIP3    H111132   4.553   3.400   3.367
 3732TIP3    H211133   4.536   3.533   3.440
 3733TIP3   OH211134   3.547   3.445   3.533
 3733TIP3    H111135   3.531   3.354   3.503
 3733TIP3    H211136   3.561   3.432   3.628
 3734TIP3   OH211137   4.042   3.110   3.387
 3734TIP3    H111138   4.109   3.040   3.380
 3734TIP3    H211139   4.003   3.106   3.298
 3735TIP3   OH211140   4.108   3.326   3.546
 3735TIP3    H111141   4.086   3.256   3.481
 3735TIP3    H211142   4.030   3.385   3.539
 3736TIP3   OH211143   3.330   4.558   1.646
 3736TIP3    H111144   3.425   4.551   1.627
 3736TIP3    H211145   3.301   4.606   1.566
 3737TIP3   OH211146   2.810   3.942   1.871
 3737TIP3    H111147   2.904   3.963   1.851
 3737TIP3    H211148   2.800   3.857   1.823
 3738TIP3   OH211149   2.722   4.550   2.276
 3738TIP3    H111150   2.656   4.487   2.239
 3738TIP3    H211151   2.768   4.493   2.342
 3739TIP3   OH211152   2.859   4.402   2.463
 3739TIP3    H111153   2.850   4.327   2.524
 3739TIP3    H211154   2.912   4.463   2.518
 3740TIP3   OH211155   4.585   4.805   2.262
 3740TIP3    H111156   4.614   4.834   2.350
 3740TIP3    H211157   4.651   4.845   2.204
 3741TIP3   OH211158   4.617   4.822   2.544
 3741TIP3    H111159   4.572   4.735   2.539
 3741TIP3    H211160   4.691   4.798   2.603
 3742TIP3   OH211161   4.660   4.500   3.115
 3742TIP3    H111162   4.588   4.508   3.181
 3742TIP3    H211163   4.703   4.588   3.121
 3743TIP3   OH211164   4.619   3.861   1.934
 3743TIP3    H111165   4.538   3.835   1.982
 3743TIP3    H211166   4.655   3.930   1.990
 3744TIP3   OH211167   4.660   4.271   2.373
 3744TIP3    H111168   4.713   4.205   2.324
 3744TIP3    H211169   4.652   4.344   2.308
 3745TIP3   OH211170   4.493   4.573   2.567
 3745TIP3    H111171   4.421   4.612   2.620
 3745TIP3    H211172   4.443   4.524   2.498
 3746TIP3   OH211173   4.544   3.793   1.594
 3746TIP3    H111174   4.472   3.804   1.527
 3746TIP3    H211175   4.519   3.862   1.658
 3747TIP3   OH211176   4.420   3.457   1.541
 3747TIP3    H111177   4.372   3.505   1.473
 3747TIP3    H211178   4.390   3.365   1.525
 3748TIP3   OH211179   4.425   3.739   2.090
 3748TIP3    H111180   4.430   3.642   2.085
 3748TIP3    H211181   4.409   3.754   2.185
 3749TIP3   OH211182   3.046   3.811   2.833
 3749TIP3    H111183   3.047   3.780   2.740
 3749TIP3    H211184   3.143   3.812   2.851
 3750TIP3   OH211185   4.709   4.160   2.943
 3750TIP3    H111186   4.782   4.094   2.935
 3750TIP3    H211187   4.739   4.230   2.883
 3751TIP3   OH211188   4.895   3.966   2.958
 3751TIP3    H111189   4.822   3.913   2.998
 3751TIP3    H211190   4.970   3.906   2.974
 3752TIP3   OH211191   4.360   3.189   1.526
 3752TIP3    H111192   4.440   3.167   1.578
 3752TIP3    H211193   4.292   3.131   1.564
 3753TIP3   OH211194   4.415   3.450   1.985
 3753TIP3    H111195   4.457   3.362   1.997
 3753TIP3    H211196   4.473   3.488   1.916
 3754TIP3   OH211197   4.579   3.623   2.477
 3754TIP3    H111198   4.664   3.650   2.436
 3754TIP3    H211199   4.592   3.662   2.566
 3755TIP3   OH211200   4.646   3.768   2.709
 3755TIP3    H111201   4.569   3.803   2.758
 3755TIP3    H211202   4.679   3.849   2.664
 3756TIP3   OH211203   5.105   3.357   3.267
 3756TIP3    H111204   5.160   3.293   3.218
 3756TIP3    H211205   5.070   3.413   3.193
 3757TIP3   OH211206   4.527   3.200   2.019
 3757TIP3    H111207   4.575   3.186   2.103
 3757TIP3    H211208   4.465   3.124   2.020
 3758TIP3   OH211209   3.224   3.187   2.841
 3758TIP3    H111210   3.286   3.112   2.851
 3758TIP3    H211211   3.287   3.261   2.834
 3759TIP3   OH211212   3.027   3.461   2.910
 3759TIP3    H111213   3.078   3.456   2.827
 3759TIP3    H211214   3.058   3.544   2.948
 3760TIP3   OH211215   4.970   3.496   3.078
 3760TIP3    H111216   4.887   3.542   3.102
 3760TIP3    H211217   4.935   3.431   3.014
 3761TIP3   OH211218   4.606   3.136   1.654
 3761TIP3    H111219   4.646   3.065   1.599
 3761TIP3    H211220   4.673   3.207   1.648
 3762TIP3   OH211221   3.012   2.971   2.414
 3762TIP3    H111222   2.918   2.962   2.438
 3762TIP3    H211223   3.008   3.024   2.332
 3763TIP3   OH211224   4.170   4.670   1.918
 3763TIP3    H111225   4.221   4.651   1.836
 3763TIP3    H211226   4.229   4.731   1.964
 3764TIP3   OH211227   3.230   3.040   3.226
 3764TIP3    H111228   3.184   3.040   3.312
 3764TIP3    H211229   3.163   3.081   3.169
 3765TIP3   OH211230   3.270   4.477   3.304
 3765TIP3    H111231   3.180   4.444   3.288
 3765TIP3    H211232   3.285   4.452   3.396
 3766TIP3   OH211233   3.448   4.504   2.852
 3766TIP3    H111234   3.403   4.581   2.812
 3766TIP3    H211235   3.535   4.516   2.809
 3767TIP3   OH211236   3.895   4.751   2.991
 3767TIP3    H111237   3.937   4.749   3.079
 3767TIP3    H211238   3.962   4.800   2.939
 3768TIP3   OH211239   4.074   4.901   2.848
 3768TIP3    H111240   4.145   4.849   2.807
 3768TIP3    H211241   4.126   4.958   2.909
 3769TIP3   OH211242   4.868   3.263   2.948
 3769TIP3    H111243   4.777   3.260   2.915
 3769TIP3    H211244   4.897   3.170   2.935
 3770TIP3   OH211245   3.125   4.762   2.874
 3770TIP3    H111246   3.036   4.797   2.853
 3770TIP3    H211247   3.137   4.796   2.964
 3771TIP3   OH211248   3.363   4.740   2.734
 3771TIP3    H111249   3.276   4.753   2.778
 3771TIP3    H211250   3.344   4.772   2.644
 3772TIP3   OH211251   3.788   4.769   2.532
 3772TIP3    H111252   3.720   4.789   2.465
 3772TIP3    H211253   3.801   4.856   2.575
 3773TIP3   OH211254   4.057   4.709   2.584
 3773TIP3    H111255   3.963   4.725   2.563
 3773TIP3    H211256   4.101   4.784   2.541
 3774TIP3   OH211257   4.266   4.901   2.498
 3774TIP3    H111258   4.251   4.985   2.450
 3774TIP3    H211259   4.291   4.840   2.426
 3775TIP3   OH211260   3.037   4.554   2.621
 3775TIP3    H111261   3.065   4.529   2.712
 3775TIP3    H211262   3.109   4.511   2.571
 3776TIP3   OH211263   3.231   4.426   2.478
 3776TIP3    H111264   3.247   4.342   2.526
 3776TIP3    H211265   3.322   4.463   2.473
 3777TIP3   OH211266   3.497   4.522   2.481
 3777TIP3    H111267   3.529   4.431   2.467
 3777TIP3    H211268   3.543   4.542   2.565
 3778TIP3   OH211269   4.071   3.176   2.565
 3778TIP3    H111270   4.028   3.107   2.620
 3778TIP3    H211271   4.146   3.128   2.526
 3779TIP3   OH211272   4.597   3.052   2.470
 3779TIP3    H111273   4.633   3.108   2.398
 3779TIP3    H211274   4.502   3.076   2.468
 3780TIP3   OH211275   4.692   3.157   2.236
 3780TIP3    H111276   4.766   3.108   2.196
 3780TIP3    H211277   4.724   3.249   2.223
 3781TIP3   OH211278   3.321   2.886   2.584
 3781TIP3    H111279   3.229   2.852   2.584
 3781TIP3    H211280   3.371   2.801   2.581
 3782TIP3   OH211281   3.097   2.759   2.227
 3782TIP3    H111282   3.141   2.813   2.159
 3782TIP3    H211283   3.085   2.823   2.300
 3783TIP3   OH211284   3.763   2.924   2.466
 3783TIP3    H111285   3.823   2.972   2.407
 3783TIP3    H211286   3.790   2.955   2.553
 3784TIP3   OH211287   4.313   3.066   2.450
 3784TIP3    H111288   4.308   3.029   2.361
 3784TIP3    H211289   4.300   2.985   2.506
 3785TIP3   OH211290   4.341   2.987   2.012
 3785TIP3    H111291   4.256   3.033   2.026
 3785TIP3    H211292   4.325   2.903   2.059
 3786TIP3   OH211293   2.825   4.327   2.014
 3786TIP3    H111294   2.740   4.294   1.978
 3786TIP3    H211295   2.815   4.422   1.995
 3787TIP3   OH211296   3.225   2.919   1.997
 3787TIP3    H111297   3.270   2.854   1.939
 3787TIP3    H211298   3.301   2.971   2.030
 3788TIP3   OH211299   3.739   3.091   2.093
 3788TIP3    H111300   3.796   3.043   2.155
 3788TIP3    H211301   3.760   3.183   2.120
 3789TIP3   OH211302   3.598   4.516   1.593
 3789TIP3    H111303   3.687   4.537   1.558
 3789TIP3    H211304   3.576   4.440   1.534
 3790TIP3   OH211305   4.315   4.623   1.684
 3790TIP3    H111306   4.312   4.528   1.663
 3790TIP3    H211307   4.271   4.662   1.605
 3791TIP3   OH211308   3.529   3.166   3.469
 3791TIP3    H111309   3.494   3.101   3.531
 3791TIP3    H211310   3.623   3.170   3.499
 3792TIP3   OH211311   3.776   3.163   3.595
 3792TIP3    H111312   3.862   3.143   3.553
 3792TIP3    H211313   3.768   3.091   3.659
 3793TIP3   OH211314   2.902   4.352   1.651
 3793TIP3    H111315   2.905   4.378   1.744
 3793TIP3    H211316   2.990   4.311   1.637
 3794TIP3   OH211317   4.604   3.225   3.383
 3794TIP3    H111318   4.623   3.195   3.474
 3794TIP3    H211319   4.693   3.220   3.341
 3795TIP3   OH211320   4.543   4.779   2.874
 3795TIP3    H111321   4.464   4.747   2.826
 3795TIP3    H211322   4.523   4.875   2.879
 3796TIP3   OH211323   5.810   4.151   1.640
 3796TIP3    H111324   5.781   4.242   1.620
 3796TIP3    H211325   5.733   4.101   1.609
 3797TIP3   OH211326   5.811   4.150   2.020
 3797TIP3    H111327   5.840   4.120   2.108
 3797TIP3    H211328   5.766   4.071   1.986
 3798TIP3   OH211329   5.109   4.045   2.384
 3798TIP3    H111330   5.138   3.978   2.448
 3798TIP3    H211331   5.184   4.106   2.385
 3799TIP3   OH211332   6.054   4.452   1.702
 3799TIP3    H111333   6.034   4.382   1.767
 3799TIP3    H211334   6.079   4.526   1.759
 3800TIP3   OH211335   5.078   4.458   2.112
 3800TIP3    H111336   5.070   4.360   2.113
 3800TIP3    H211337   5.175   4.466   2.109
 3801TIP3   OH211338   4.791   3.652   1.897
 3801TIP3    H111339   4.742   3.735   1.916
 3801TIP3    H211340   4.719   3.601   1.857
 3802TIP3   OH211341   4.856   3.956   2.075
 3802TIP3    H111342   4.898   3.873   2.106
 3802TIP3    H211343   4.896   3.967   1.988
 3803TIP3   OH211344   5.702   4.917   1.719
 3803TIP3    H111345   5.748   4.845   1.671
 3803TIP3    H211346   5.690   4.878   1.807
 3804TIP3   OH211347   5.607   4.377   2.069
 3804TIP3    H111348   5.643   4.300   2.023
 3804TIP3    H211349   5.691   4.421   2.094
 3805TIP3   OH211350   6.622   3.696   2.068
 3805TIP3    H111351   6.650   3.780   2.109
 3805TIP3    H211352   6.640   3.713   1.974
 3806TIP3   OH211353   6.021   3.878   2.102
 3806TIP3    H111354   6.062   3.791   2.122
 3806TIP3    H211355   5.988   3.863   2.012
 3807TIP3   OH211356   5.358   3.537   2.067
 3807TIP3    H111357   5.336   3.610   2.006
 3807TIP3    H211358   5.309   3.464   2.023
 3808TIP3   OH211359   6.051   3.629   1.690
 3808TIP3    H111360   6.123   3.612   1.755
 3808TIP3    H211361   6.103   3.663   1.615
 3809TIP3   OH211362   4.990   3.737   2.175
 3809TIP3    H111363   5.073   3.718   2.222
 3809TIP3    H211364   5.003   3.681   2.095
 3810TIP3   OH211365   5.432   3.937   1.964
 3810TIP3    H111366   5.525   3.911   1.980
 3810TIP3    H211367   5.392   3.853   1.934
 3811TIP3   OH211368   6.695   3.907   2.236
 3811TIP3    H111369   6.611   3.952   2.215
 3811TIP3    H211370   6.701   3.925   2.331
 3812TIP3   OH211371   5.354   3.519   2.502
 3812TIP3    H111372   5.294   3.557   2.435
 3812TIP3    H211373   5.301   3.537   2.583
 3813TIP3   OH211374   5.704   4.374   1.509
 3813TIP3    H111375   5.656   4.349   1.429
 3813TIP3    H211376   5.658   4.457   1.533
 3814TIP3   OH211377   5.461   4.296   2.298
 3814TIP3    H111378   5.397   4.360   2.337
 3814TIP3    H211379   5.500   4.348   2.225
 3815TIP3   OH211380   6.262   3.630   1.861
 3815TIP3    H111381   6.250   3.580   1.943
 3815TIP3    H211382   6.314   3.707   1.890
 3816TIP3   OH211383   5.225   3.635   2.286
 3816TIP3    H111384   5.286   3.708   2.310
 3816TIP3    H211385   5.274   3.595   2.211
 3817TIP3   OH211386   5.287   4.489   2.395
 3817TIP3    H111387   5.260   4.575   2.358
 3817TIP3    H211388   5.209   4.471   2.452
 3818TIP3   OH211389   4.703   4.180   1.619
 3818TIP3    H111390   4.609   4.178   1.594
 3818TIP3    H211391   4.706   4.254   1.681
 3819TIP3   OH211392   6.124   4.696   1.872
 3819TIP3    H111393   6.035   4.686   1.912
 3819TIP3    H211394   6.113   4.781   1.826
 3820TIP3   OH211395   6.413   3.598   2.235
 3820TIP3    H111396   6.324   3.623   2.204
 3820TIP3    H211397   6.470   3.629   2.162
 3821TIP3   OH211398   5.711   3.240   2.217
 3821TIP3    H111399   5.696   3.145   2.232
 3821TIP3    H211400   5.633   3.278   2.263
 3822TIP3   OH211401   5.827   4.743   1.548
 3822TIP3    H111402   5.875   4.659   1.527
 3822TIP3    H211403   5.887   4.807   1.504
 3823TIP3   OH211404   5.968   4.528   1.451
 3823TIP3    H111405   5.925   4.449   1.414
 3823TIP3    H211406   6.004   4.492   1.535
 3824TIP3   OH211407   6.350   4.609   2.214
 3824TIP3    H111408   6.336   4.531   2.156
 3824TIP3    H211409   6.330   4.683   2.152
 3825TIP3   OH211410   5.641   4.002   1.472
 3825TIP3    H111411   5.559   4.053   1.451
 3825TIP3    H211412   5.684   3.999   1.385
 3826TIP3   OH211413   5.598   3.787   1.187
 3826TIP3    H111414   5.666   3.837   1.236
 3826TIP3    H211415   5.655   3.723   1.140
 3827TIP3   OH211416   6.545   4.248   2.060
 3827TIP3    H111417   6.460   4.297   2.066
 3827TIP3    H211418   6.572   4.271   1.969
 3828TIP3   OH211419   5.988   4.085   1.443
 3828TIP3    H111420   5.932   4.109   1.521
 3828TIP3    H211421   6.071   4.059   1.488
 3829TIP3   OH211422   6.223   4.125   2.353
 3829TIP3    H111423   6.217   4.208   2.403
 3829TIP3    H211424   6.135   4.126   2.309
 3830TIP3   OH211425   5.220   4.083   1.858
 3830TIP3    H111426   5.177   4.025   1.792
 3830TIP3    H211427   5.296   4.028   1.888
 3831TIP3   OH211428   5.351   4.498   2.007
 3831TIP3    H111429   5.326   4.452   1.926
 3831TIP3    H211430   5.440   4.461   2.025
 3832TIP3   OH211431   5.364   4.050   2.216
 3832TIP3    H111432   5.390   4.033   2.123
 3832TIP3    H211433   5.401   4.139   2.234
 3833TIP3   OH211434   5.883   4.690   1.992
 3833TIP3    H111435   5.868   4.770   2.046
 3833TIP3    H211436   5.866   4.617   2.054
 3834TIP3   OH211437   5.494   4.611   2.536
 3834TIP3    H111438   5.434   4.672   2.585
 3834TIP3    H211439   5.427   4.557   2.488
 3835TIP3   OH211440   5.828   3.942   1.269
 3835TIP3    H111441   5.887   4.002   1.320
 3835TIP3    H211442   5.854   3.966   1.176
 3836TIP3   OH211443   5.247   4.168   2.635
 3836TIP3    H111444   5.253   4.252   2.685
 3836TIP3    H211445   5.153   4.146   2.651
 3837TIP3   OH211446   5.572   4.621   1.544
 3837TIP3    H111447   5.648   4.678   1.563
 3837TIP3    H211448   5.508   4.682   1.505
 3838TIP3   OH211449   5.288   4.779   2.626
 3838TIP3    H111450   5.252   4.776   2.535
 3838TIP3    H211451   5.209   4.758   2.680
 3839TIP3   OH211452   6.345   3.184   1.319
 3839TIP3    H111453   6.262   3.203   1.367
 3839TIP3    H211454   6.356   3.267   1.267
 3840TIP3   OH211455   5.087   3.925   1.664
 3840TIP3    H111456   5.021   3.971   1.607
 3840TIP3    H211457   5.042   3.841   1.680
 3841TIP3   OH211458   6.141   4.550   0.866
 3841TIP3    H111459   6.149   4.646   0.851
 3841TIP3    H211460   6.234   4.521   0.855
 3842TIP3   OH211461   4.867   4.309   2.571
 3842TIP3    H111462   4.802   4.285   2.503
 3842TIP3    H211463   4.905   4.222   2.596
 3843TIP3   OH211464   4.721   4.503   2.204
 3843TIP3    H111465   4.817   4.494   2.195
 3843TIP3    H211466   4.713   4.581   2.261
 3844TIP3   OH211467   6.586   4.953   2.260
 3844TIP3    H111468   6.584   4.857   2.273
 3844TIP3    H211469   6.503   4.978   2.305
 3845TIP3   OH211470   5.691   4.739   2.394
 3845TIP3    H111471   5.690   4.831   2.428
 3845TIP3    H211472   5.619   4.699   2.449
 3846TIP3   OH211473   5.453   4.870   1.346
 3846TIP3    H111474   5.405   4.849   1.264
 3846TIP3    H211475   5.418   4.958   1.370
 3847TIP3   OH211476   4.892   4.720   1.731
 3847TIP3    H111477   4.936   4.709   1.818
 3847TIP3    H211478   4.842   4.636   1.726
 3848TIP3   OH211479   5.654   4.771   0.989
 3848TIP3    H111480   5.712   4.700   0.953
 3848TIP3    H211481   5.688   4.778   1.081
 3849TIP3   OH211482   5.704   4.818   1.258
 3849TIP3    H111483   5.615   4.828   1.298
 3849TIP3    H211484   5.752   4.773   1.330
 3850TIP3   OH211485   6.477   4.086   2.533
 3850TIP3    H111486   6.393   4.099   2.486
 3850TIP3    H211487   6.490   3.989   2.523
 3851TIP3   OH211488   5.072   4.492   2.562
 3851TIP3    H111489   5.122   4.475   2.644
 3851TIP3    H211490   4.998   4.428   2.569
 3852TIP3   OH211491   5.472   3.315   2.345
 3852TIP3    H111492   5.383   3.285   2.318
 3852TIP3    H211493   5.447   3.398   2.391
 3853TIP3   OH211494   6.004   3.431   2.539
 3853TIP3    H111495   6.071   3.403   2.604
 3853TIP3    H211496   5.919   3.411   2.584
 3854TIP3   OH211497   6.249   3.863   2.462
 3854TIP3    H111498   6.195   3.857   2.544
 3854TIP3    H211499   6.218   3.947   2.423
 3855TIP3   OH211500   5.903   3.991   1.013
 3855TIP3    H111501   5.871   3.963   0.925
 3855TIP3    H211502   5.985   4.038   0.988
 3856TIP3   OH211503   5.616   3.365   1.315
 3856TIP3    H111504   5.582   3.361   1.407
 3856TIP3    H211505   5.579   3.282   1.281
 3857TIP3   OH211506   5.404   3.829   2.365
 3857TIP3    H111507   5.352   3.851   2.446
 3857TIP3    H211508   5.389   3.910   2.311
 3858TIP3   OH211509   5.287   3.717   1.877
 3858TIP3    H111510   5.194   3.691   1.895
 3858TIP3    H211511   5.299   3.677   1.788
 3859TIP3   OH211512   5.778   3.804   1.606
 3859TIP3    H111513   5.725   3.874   1.563
 3859TIP3    H211514   5.832   3.772   1.531
 3860TIP3   OH211515   5.951   4.079   2.689
 3860TIP3    H111516   5.927   4.009   2.753
 3860TIP3    H211517   6.042   4.098   2.716
 3861TIP3   OH211518   5.935   3.833   1.844
 3861TIP3    H111519   5.874   3.861   1.773
 3861TIP3    H211520   5.968   3.751   1.801
 3862TIP3   OH211521   5.222   3.860   2.573
 3862TIP3    H111522   5.245   3.924   2.642
 3862TIP3    H211523   5.211   3.778   2.624
 3863TIP3   OH211524   5.271   3.338   1.281
 3863TIP3    H111525   5.263   3.334   1.379
 3863TIP3    H211526   5.192   3.391   1.258
 3864TIP3   OH211527   4.816   3.379   2.153
 3864TIP3    H111528   4.889   3.415   2.207
 3864TIP3    H211529   4.859   3.354   2.070
 3865TIP3   OH211530   4.788   3.364   1.671
 3865TIP3    H111531   4.834   3.402   1.594
 3865TIP3    H211532   4.727   3.437   1.692
 3866TIP3   OH211533   5.949   4.078   2.268
 3866TIP3    H111534   5.980   4.006   2.208
 3866TIP3    H211535   5.917   4.025   2.344
 3867TIP3   OH211536   5.614   3.539   1.939
 3867TIP3    H111537   5.530   3.538   1.989
 3867TIP3    H211538   5.680   3.539   2.010
 3868TIP3   OH211539   5.051   3.595   1.947
 3868TIP3    H111540   4.956   3.604   1.920
 3868TIP3    H211541   5.071   3.503   1.922
 3869TIP3   OH211542   5.318   3.591   1.635
 3869TIP3    H111543   5.411   3.607   1.612
 3869TIP3    H211544   5.270   3.613   1.552
 3870TIP3   OH211545   6.107   3.614   2.140
 3870TIP3    H111546   6.073   3.627   2.231
 3870TIP3    H211547   6.040   3.553   2.104
 3871TIP3   OH211548   5.160   3.623   1.415
 3871TIP3    H111549   5.086   3.581   1.368
 3871TIP3    H211550   5.211   3.659   1.339
 3872TIP3   OH211551   6.276   5.303   2.359
 3872TIP3    H111552   6.273   5.327   2.265
 3872TIP3    H211553   6.353   5.354   2.390
 3873TIP3   OH211554   5.234   4.415   2.780
 3873TIP3    H111555   5.313   4.445   2.830
 3873TIP3    H211556   5.169   4.409   2.853
 3874TIP3   OH211557   5.697   3.868   2.037
 3874TIP3    H111558   5.769   3.826   1.987
 3874TIP3    H211559   5.704   3.825   2.124
 3875TIP3   OH211560   5.222   3.355   1.914
 3875TIP3    H111561   5.187   3.275   1.960
 3875TIP3    H211562   5.270   3.316   1.839
 3876TIP3   OH211563   5.674   3.764   2.325
 3876TIP3    H111564   5.583   3.799   2.340
 3876TIP3    H211565   5.730   3.826   2.376
 3877TIP3   OH211566   5.412   4.155   1.421
 3877TIP3    H111567   5.340   4.089   1.410
 3877TIP3    H211568   5.393   4.189   1.513
 3878TIP3   OH211569   6.311   4.390   2.051
 3878TIP3    H111570   6.333   4.440   1.970
 3878TIP3    H211571   6.225   4.348   2.027
 3879TIP3   OH211572   5.868   3.467   1.285
 3879TIP3    H111573   5.772   3.449   1.292
 3879TIP3    H211574   5.876   3.562   1.308
 3880TIP3   OH211575   5.818   4.478   2.417
 3880TIP3    H111576   5.829   4.448   2.508
 3880TIP3    H211577   5.770   4.561   2.427
 3881TIP3   OH211578   5.938   3.715   1.388
 3881TIP3    H111579   6.034   3.721   1.402
 3881TIP3    H211580   5.919   3.795   1.334
 3882TIP3   OH211581   5.110   4.184   2.098
 3882TIP3    H111582   5.142   4.149   2.013
 3882TIP3    H211583   5.134   4.113   2.160
 3883TIP3   OH211584   5.554   4.304   1.241
 3883TIP3    H111585   5.507   4.391   1.247
 3883TIP3    H211586   5.500   4.249   1.302
 3884TIP3   OH211587   4.985   4.098   2.709
 3884TIP3    H111588   5.009   4.088   2.803
 3884TIP3    H211589   4.916   4.030   2.699
 3885TIP3   OH211590   5.709   4.213   2.726
 3885TIP3    H111591   5.647   4.151   2.683
 3885TIP3    H211592   5.795   4.177   2.698
 3886TIP3   OH211593   5.971   4.738   2.309
 3886TIP3    H111594   5.875   4.730   2.324
 3886TIP3    H211595   5.998   4.786   2.390
 3887TIP3   OH211596   6.382   3.805   1.222
 3887TIP3    H111597   6.319   3.760   1.161
 3887TIP3    H211598   6.378   3.894   1.181
 3888TIP3   OH211599   6.600   4.664   2.302
 3888TIP3    H111600   6.502   4.657   2.295
 3888TIP3    H211601   6.625   4.632   2.212
 3889TIP3   OH211602   6.084   4.623   1.132
 3889TIP3    H111603   6.054   4.553   1.192
 3889TIP3    H211604   6.093   4.578   1.047
 3890TIP3   OH211605   6.077   4.253   1.970
 3890TIP3    H111606   5.984   4.228   1.983
 3890TIP3    H211607   6.110   4.173   1.924
 3891TIP3   OH211608   5.203   4.480   1.720
 3891TIP3    H111609   5.199   4.562   1.667
 3891TIP3    H211610   5.109   4.460   1.731
 3892TIP3   OH211611   4.764   3.785   1.425
 3892TIP3    H111612   4.811   3.869   1.444
 3892TIP3    H211613   4.687   3.793   1.486
 3893TIP3   OH211614   5.344   4.247   1.666
 3893TIP3    H111615   5.307   4.336   1.684
 3893TIP3    H211616   5.306   4.195   1.740
 3894TIP3   OH211617   5.472   4.825   2.191
 3894TIP3    H111618   5.515   4.897   2.141
 3894TIP3    H211619   5.548   4.789   2.241
 3895TIP3   OH211620   5.122   4.720   1.573
 3895TIP3    H111621   5.037   4.727   1.621
 3895TIP3    H211622   5.153   4.813   1.576
 3896TIP3   OH211623   5.862   4.458   2.149
 3896TIP3    H111624   5.852   4.458   2.247
 3896TIP3    H211625   5.940   4.402   2.138
 3897TIP3   OH211626   5.835   4.352   1.032
 3897TIP3    H111627   5.888   4.325   1.111
 3897TIP3    H211628   5.746   4.324   1.060
 3898TIP3   OH211629   6.111   4.992   2.200
 3898TIP3    H111630   6.033   4.933   2.196
 3898TIP3    H211631   6.092   5.055   2.127
 3899TIP3   OH211632   6.174   4.823   0.853
 3899TIP3    H111633   6.208   4.884   0.786
 3899TIP3    H211634   6.098   4.875   0.886
 3900TIP3   OH211635   5.195   3.600   2.716
 3900TIP3    H111636   5.100   3.610   2.735
 3900TIP3    H211637   5.225   3.547   2.792
 3901TIP3   OH211638   5.995   4.285   1.248
 3901TIP3    H111639   5.985   4.220   1.320
 3901TIP3    H211640   6.093   4.282   1.236
 3902TIP3   OH211641   4.911   4.687   2.350
 3902TIP3    H111642   4.962   4.610   2.380
 3902TIP3    H211643   4.939   4.753   2.415
 3903TIP3   OH211644   5.202   4.332   1.030
 3903TIP3    H111645   5.215   4.239   1.003
 3903TIP3    H211646   5.184   4.321   1.125
 3904TIP3   OH211647   5.151   4.337   1.300
 3904TIP3    H111648   5.216   4.308   1.366
 3904TIP3    H211649   5.154   4.435   1.311
 3905TIP3   OH211650   4.891   4.028   1.499
 3905TIP3    H111651   4.824   4.075   1.555
 3905TIP3    H211652   4.901   4.098   1.431
 3906TIP3   OH211653   6.034   3.666   2.398
 3906TIP3    H111654   6.111   3.703   2.444
 3906TIP3    H211655   6.016   3.585   2.451
 3907TIP3   OH211656   5.910   3.419   1.565
 3907TIP3    H111657   5.897   3.440   1.470
 3907TIP3    H211658   5.949   3.502   1.599
 3908TIP3   OH211659   5.414   4.536   1.253
 3908TIP3    H111660   5.327   4.560   1.289
 3908TIP3    H211661   5.427   4.606   1.188
 3909TIP3   OH211662   5.603   3.598   1.667
 3909TIP3    H111663   5.667   3.670   1.650
 3909TIP3    H211664   5.606   3.591   1.764
 3910TIP3   OH211665   5.871   3.917   2.473
 3910TIP3    H111666   5.889   3.973   2.551
 3910TIP3    H211667   5.924   3.838   2.491
 3911TIP3   OH211668   5.745   3.326   1.770
 3911TIP3    H111669   5.735   3.404   1.827
 3911TIP3    H211670   5.805   3.361   1.700
 3912TIP3   OH211671   5.158   4.610   1.320
 3912TIP3    H111672   5.126   4.680   1.258
 3912TIP3    H211673   5.140   4.652   1.407
 3913TIP3   OH211674   5.257   3.323   1.559
 3913TIP3    H111675   5.255   3.414   1.594
 3913TIP3    H211676   5.353   3.305   1.566
 3914TIP3   OH211677   6.514   3.816   2.452
 3914TIP3    H111678   6.416   3.817   2.465
 3914TIP3    H211679   6.517   3.771   2.366
 3915TIP3   OH211680   6.162   4.011   1.843
 3915TIP3    H111681   6.085   3.952   1.854
 3915TIP3    H211682   6.233   3.962   1.891
 3916TIP3   OH211683   4.878   4.239   1.313
 3916TIP3    H111684   4.942   4.311   1.323
 3916TIP3    H211685   4.922   4.187   1.243
 3917TIP3   OH211686   4.820   3.516   1.445
 3917TIP3    H111687   4.818   3.614   1.443
 3917TIP3    H211688   4.732   3.496   1.410
 3918TIP3   OH211689   6.130   4.968   1.793
 3918TIP3    H111690   6.087   5.015   1.718
 3918TIP3    H211691   6.224   4.985   1.771
 3919TIP3   OH211692   5.208   3.236   2.319
 3919TIP3    H111693   5.176   3.203   2.233
 3919TIP3    H211694   5.196   3.158   2.377
 3920TIP3   OH211695   4.756   4.475   1.710
 3920TIP3    H111696   4.674   4.490   1.758
 3920TIP3    H211697   4.727   4.495   1.618
 3921TIP3   OH211698   4.902   4.995   2.771
 3921TIP3    H111699   4.988   4.994   2.818
 3921TIP3    H211700   4.881   4.900   2.770
 3922TIP3   OH211701   5.385   4.963   2.813
 3922TIP3    H111702   5.478   4.938   2.824
 3922TIP3    H211703   5.358   4.902   2.741
 3923TIP3   OH211704   5.365   4.536   0.945
 3923TIP3    H111705   5.308   4.465   0.983
 3923TIP3    H211706   5.440   4.482   0.914
 3924TIP3   OH211707   6.027   4.866   2.546
 3924TIP3    H111708   6.012   4.796   2.614
 3924TIP3    H211709   6.101   4.916   2.583
 3925TIP3   OH211710   5.800   4.577   0.860
 3925TIP3    H111711   5.844   4.511   0.917
 3925TIP3    H211712   5.855   4.575   0.779
 3926TIP3   OH211713   5.033   4.406   2.970
 3926TIP3    H111714   5.051   4.312   2.988
 3926TIP3    H211715   4.945   4.401   2.926
 3927TIP3   OH211716   5.011   4.054   1.162
 3927TIP3    H111717   5.062   4.020   1.237
 3927TIP3    H211718   5.081   4.057   1.093
 3928TIP3   OH211719   5.643   4.488   2.744
 3928TIP3    H111720   5.596   4.501   2.660
 3928TIP3    H211721   5.672   4.394   2.738
 3929TIP3   OH211722   5.520   4.252   0.971
 3929TIP3    H111723   5.521   4.264   1.068
 3929TIP3    H211724   5.519   4.154   0.966
 3930TIP3   OH211725   6.135   4.492   2.353
 3930TIP3    H111726   6.205   4.543   2.308
 3930TIP3    H211727   6.058   4.551   2.342
 3931TIP3   OH211728   5.154   4.135   2.949
 3931TIP3    H111729   5.213   4.059   2.952
 3931TIP3    H211730   5.170   4.169   3.040
 3932TIP3   OH211731   5.222   3.957   1.389
 3932TIP3    H111732   5.188   3.917   1.471
 3932TIP3    H211733   5.254   3.879   1.340
 3933TIP3   OH211734   5.488   4.021   2.616
 3933TIP3    H111735   5.409   4.079   2.619
 3933TIP3    H211736   5.536   4.056   2.537
 3934TIP3   OH211737   5.317   3.749   1.228
 3934TIP3    H111738   5.291   3.753   1.134
 3934TIP3    H211739   5.415   3.754   1.220
 3935TIP3   OH211740   6.003   4.423   2.749
 3935TIP3    H111741   6.083   4.394   2.704
 3935TIP3    H211742   5.996   4.358   2.822
 3936TIP3   OH211743   6.140   4.081   0.890
 3936TIP3    H111744   6.119   4.034   0.808
 3936TIP3    H211745   6.107   4.171   0.867
 3937TIP3   OH211746   5.614   3.807   2.736
 3937TIP3    H111747   5.609   3.728   2.680
 3937TIP3    H211748   5.568   3.875   2.682
 3938TIP3   OH211749   5.613   3.592   2.547
 3938TIP3    H111750   5.639   3.636   2.463
 3938TIP3    H211751   5.518   3.571   2.530
 3939TIP3   OH211752   5.641   4.131   2.421
 3939TIP3    H111753   5.722   4.141   2.371
 3939TIP3    H211754   5.582   4.197   2.378
 3940TIP3   OH211755   6.223   4.097   2.804
 3940TIP3    H111756   6.272   4.014   2.815
 3940TIP3    H211757   6.291   4.155   2.768
 3941TIP3   OH211758   6.265   4.351   2.542
 3941TIP3    H111759   6.205   4.403   2.483
 3941TIP3    H211760   6.351   4.371   2.500
 3942TIP3   OH211761   5.497   3.919   2.968
 3942TIP3    H111762   5.417   3.868   2.989
 3942TIP3    H211763   5.522   3.884   2.881
 3943TIP3   OH211764   5.745   3.358   2.616
 3943TIP3    H111765   5.696   3.440   2.593
 3943TIP3    H211766   5.675   3.290   2.604
 3944TIP3   OH211767   5.871   3.862   2.832
 3944TIP3    H111768   5.856   3.853   2.928
 3944TIP3    H211769   5.782   3.838   2.800
 3945TIP3   OH211770   6.109   3.808   2.686
 3945TIP3    H111771   6.032   3.815   2.747
 3945TIP3    H211772   6.181   3.779   2.745
 3946TIP3   OH211773   6.348   3.754   2.837
 3946TIP3    H111774   6.354   3.658   2.856
 3946TIP3    H211775   6.337   3.793   2.926
 3947TIP3   OH211776   5.325   3.699   3.018
 3947TIP3    H111777   5.333   3.605   2.992
 3947TIP3    H211778   5.357   3.698   3.110
 3948TIP3   OH211779   5.839   3.367   2.874
 3948TIP3    H111780   5.906   3.296   2.866
 3948TIP3    H211781   5.798   3.363   2.785
 3949TIP3   OH211782   5.904   3.583   3.033
 3949TIP3    H111783   5.882   3.514   2.968
 3949TIP3    H211784   5.827   3.643   3.028
 3950TIP3   OH211785   5.126   4.815   1.134
 3950TIP3    H111786   5.221   4.809   1.113
 3950TIP3    H211787   5.095   4.861   1.054
 3951TIP3   OH211788   4.601   4.202   1.320
 3951TIP3    H111789   4.696   4.218   1.340
 3951TIP3    H211790   4.601   4.107   1.298
 3952TIP3   OH211791   4.515   4.805   1.761
 3952TIP3    H111792   4.451   4.739   1.726
 3952TIP3    H211793   4.562   4.751   1.828
 3953TIP3   OH211794   4.650   4.665   1.953
 3953TIP3    H111795   4.644   4.585   2.008
 3953TIP3    H211796   4.705   4.721   2.010
 3954TIP3   OH211797   6.384   5.056   1.748
 3954TIP3    H111798   6.409   5.088   1.837
 3954TIP3    H211799   6.444   5.106   1.691
 3955TIP3   OH211800   6.414   5.078   2.030
 3955TIP3    H111801   6.367   4.992   2.025
 3955TIP3    H211802   6.486   5.054   2.090
 3956TIP3   OH211803   6.460   4.754   2.605
 3956TIP3    H111804   6.384   4.762   2.667
 3956TIP3    H211805   6.498   4.844   2.610
 3957TIP3   OH211806   6.274   4.267   1.225
 3957TIP3    H111807   6.343   4.331   1.195
 3957TIP3    H211808   6.318   4.228   1.304
 3958TIP3   OH211809   6.403   4.136   1.429
 3958TIP3    H111810   6.336   4.092   1.486
 3958TIP3    H211811   6.464   4.175   1.495
 3959TIP3   OH211812   6.459   4.529   1.862
 3959TIP3    H111813   6.509   4.462   1.811
 3959TIP3    H211814   6.447   4.600   1.797
 3960TIP3   OH211815   6.288   4.829   2.055
 3960TIP3    H111816   6.217   4.870   2.107
 3960TIP3    H211817   6.238   4.781   1.985
 3961TIP3   OH211818   6.341   4.044   1.074
 3961TIP3    H111819   6.270   4.045   1.006
 3961TIP3    H211820   6.312   4.119   1.129
 3962TIP3   OH211821   6.212   3.717   1.029
 3962TIP3    H111822   6.169   3.753   0.951
 3962TIP3    H211823   6.188   3.622   1.022
 3963TIP3   OH211824   6.218   3.991   1.574
 3963TIP3    H111825   6.223   3.895   1.566
 3963TIP3    H211826   6.203   4.004   1.670
 3964TIP3   OH211827   4.843   4.066   2.324
 3964TIP3    H111828   4.841   4.035   2.231
 3964TIP3    H211829   4.940   4.067   2.340
 3965TIP3   OH211830   6.507   4.417   2.432
 3965TIP3    H111831   6.579   4.351   2.422
 3965TIP3    H211832   6.531   4.485   2.367
 3966TIP3   OH211833   6.693   4.223   2.447
 3966TIP3    H111834   6.617   4.174   2.485
 3966TIP3    H211835   6.764   4.157   2.462
 3967TIP3   OH211836   6.154   3.451   1.017
 3967TIP3    H111837   6.228   3.417   1.071
 3967TIP3    H211838   6.081   3.391   1.037
 3968TIP3   OH211839   6.214   3.708   1.470
 3968TIP3    H111840   6.253   3.619   1.486
 3968TIP3    H211841   6.272   3.739   1.398
 3969TIP3   OH211842   6.375   3.881   1.965
 3969TIP3    H111843   6.461   3.907   1.925
 3969TIP3    H211844   6.387   3.918   2.054
 3970TIP3   OH211845   6.444   4.026   2.196
 3970TIP3    H111846   6.366   4.058   2.245
 3970TIP3    H211847   6.475   4.108   2.152
 3971TIP3   OH211848   5.056   3.745   2.982
 3971TIP3    H111849   5.153   3.753   2.994
 3971TIP3    H211850   5.038   3.665   3.034
 3972TIP3   OH211851   6.901   3.620   2.753
 3972TIP3    H111852   6.956   3.552   2.708
 3972TIP3    H211853   6.867   3.672   2.677
 3973TIP3   OH211854   6.321   3.458   1.507
 3973TIP3    H111855   6.369   3.441   1.591
 3973TIP3    H211856   6.261   3.381   1.505
 3974TIP3   OH211857   5.022   3.443   2.325
 3974TIP3    H111858   5.085   3.370   2.336
 3974TIP3    H211859   5.083   3.519   2.320
 3975TIP3   OH211860   4.825   3.716   2.400
 3975TIP3    H111861   4.873   3.713   2.315
 3975TIP3    H211862   4.850   3.803   2.433
 3976TIP3   OH211863   6.766   3.756   2.560
 3976TIP3    H111864   6.680   3.798   2.580
 3976TIP3    H211865   6.735   3.685   2.499
 3977TIP3   OH211866   6.404   3.392   1.140
 3977TIP3    H111867   6.441   3.319   1.085
 3977TIP3    H211868   6.472   3.462   1.130
 3978TIP3   OH211869   4.807   3.218   1.898
 3978TIP3    H111870   4.714   3.219   1.926
 3978TIP3    H211871   4.806   3.278   1.821
 3979TIP3   OH211872   5.968   4.926   1.406
 3979TIP3    H111873   6.017   4.910   1.323
 3979TIP3    H211874   6.024   4.991   1.450
 3980TIP3   OH211875   5.027   3.296   2.712
 3980TIP3    H111876   4.978   3.296   2.796
 3980TIP3    H211877   4.962   3.339   2.653
 3981TIP3   OH211878   5.068   4.732   2.792
 3981TIP3    H111879   4.977   4.701   2.776
 3981TIP3    H211880   5.082   4.705   2.884
 3982TIP3   OH211881   5.245   4.760   2.339
 3982TIP3    H111882   5.197   4.835   2.300
 3982TIP3    H211883   5.331   4.774   2.295
 3983TIP3   OH211884   5.691   5.005   2.477
 3983TIP3    H111885   5.733   5.005   2.566
 3983TIP3    H211886   5.757   5.057   2.426
 3984TIP3   OH211887   5.870   5.158   2.335
 3984TIP3    H111888   5.941   5.104   2.296
 3984TIP3    H211889   5.921   5.214   2.397
 3985TIP3   OH211890   6.664   3.520   2.436
 3985TIP3    H111891   6.573   3.515   2.401
 3985TIP3    H211892   6.694   3.427   2.424
 3986TIP3   OH211893   4.923   5.021   2.360
 3986TIP3    H111894   4.833   5.054   2.339
 3986TIP3    H211895   4.932   5.051   2.451
 3987TIP3   OH211896   5.160   4.998   2.220
 3987TIP3    H111897   5.073   5.010   2.266
 3987TIP3    H211898   5.139   5.029   2.130
 3988TIP3   OH211899   5.586   5.026   2.017
 3988TIP3    H111900   5.514   5.045   1.953
 3988TIP3    H211901   5.596   5.113   2.061
 3989TIP3   OH211902   5.854   4.966   2.069
 3989TIP3    H111903   5.759   4.980   2.050
 3989TIP3    H211904   5.894   5.044   2.028
 3990TIP3   OH211905   6.066   5.159   1.986
 3990TIP3    H111906   6.048   5.242   1.937
 3990TIP3    H211907   6.088   5.097   1.913
 3991TIP3   OH211908   4.834   4.813   2.109
 3991TIP3    H111909   4.862   4.786   2.200
 3991TIP3    H211910   4.905   4.768   2.058
 3992TIP3   OH211911   5.027   4.684   1.966
 3992TIP3    H111912   5.042   4.599   2.014
 3992TIP3    H211913   5.119   4.718   1.960
 3993TIP3   OH211914   5.296   4.779   1.966
 3993TIP3    H111915   5.325   4.686   1.954
 3993TIP3    H211916   5.338   4.798   2.052
 3994TIP3   OH211917   5.872   3.435   2.058
 3994TIP3    H111918   5.826   3.366   2.108
 3994TIP3    H211919   5.940   3.385   2.010
 3995TIP3   OH211920   6.394   3.318   1.964
 3995TIP3    H111921   6.429   3.368   1.886
 3995TIP3    H211922   6.298   3.331   1.954
 3996TIP3   OH211923   6.488   3.415   1.725
 3996TIP3    H111924   6.561   3.364   1.683
 3996TIP3    H211925   6.520   3.507   1.709
 3997TIP3   OH211926   5.119   3.144   2.071
 3997TIP3    H111927   5.026   3.111   2.072
 3997TIP3    H211928   5.167   3.059   2.066
 3998TIP3   OH211929   4.908   3.012   1.722
 3998TIP3    H111930   4.933   3.068   1.647
 3998TIP3    H211931   4.876   3.079   1.786
 3999TIP3   OH211932   5.562   3.174   1.952
 3999TIP3    H111933   5.620   3.223   1.892
 3999TIP3    H211934   5.582   3.215   2.037
 4000TIP3   OH211935   6.113   3.321   1.934
 4000TIP3    H111936   6.106   3.284   1.845
 4000TIP3    H211937   6.098   3.242   1.990
 4001TIP3   OH211938   6.139   3.245   1.499
 4001TIP3    H111939   6.051   3.285   1.507
 4001TIP3    H211940   6.124   3.159   1.544
 4002TIP3   OH211941   4.626   4.582   1.496
 4002TIP3    H111942   4.543   4.544   1.462
 4002TIP3    H211943   4.609   4.676   1.481
 4003TIP3   OH211944   5.022   3.171   1.483
 4003TIP3    H111945   5.069   3.109   1.425
 4003TIP3    H211946   5.095   3.225   1.518
 4004TIP3   OH211947   5.534   3.347   1.581
 4004TIP3    H111948   5.594   3.299   1.640
 4004TIP3    H211949   5.557   3.439   1.607
 4005TIP3   OH211950   5.393   4.773   1.080
 4005TIP3    H111951   5.482   4.795   1.044
 4005TIP3    H211952   5.371   4.698   1.020
 4006TIP3   OH211953   6.114   4.891   1.174
 4006TIP3    H111954   6.107   4.793   1.162
 4006TIP3    H211955   6.068   4.921   1.093
 4007TIP3   OH211956   5.327   3.421   2.959
 4007TIP3    H111957   5.290   3.354   3.019
 4007TIP3    H211958   5.420   3.423   2.989
 4008TIP3   OH211959   5.574   3.419   3.081
 4008TIP3    H111960   5.660   3.397   3.040
 4008TIP3    H211961   5.564   3.346   3.145
 4009TIP3   OH211962   4.700   4.615   1.138
 4009TIP3    H111963   4.695   4.629   1.234
 4009TIP3    H211964   4.786   4.569   1.128
 4010TIP3   OH211965   6.400   3.481   2.869
 4010TIP3    H111966   6.419   3.451   2.961
 4010TIP3    H211967   6.488   3.476   2.828
 4011TIP3   OH211968   6.341   5.034   2.361
 4011TIP3    H111969   6.261   5.001   2.313
 4011TIP3    H211970   6.319   5.130   2.366
 4012TIP3   OH211971   7.602   4.411   1.134
 4012TIP3    H111972   7.570   4.500   1.104
 4012TIP3    H211973   7.530   4.356   1.099
 4013TIP3   OH211974   7.608   4.418   1.517
 4013TIP3    H111975   7.629   4.363   1.594
 4013TIP3    H211976   7.567   4.351   1.459
 4014TIP3   OH211977   6.905   4.302   1.871
 4014TIP3    H111978   6.934   4.233   1.934
 4014TIP3    H211979   6.982   4.360   1.870
 4015TIP3   OH211980   7.852   4.703   1.185
 4015TIP3    H111981   7.818   4.641   1.250
 4015TIP3    H211982   7.875   4.781   1.238
 4016TIP3   OH211983   6.874   4.714   1.599
 4016TIP3    H111984   6.865   4.616   1.601
 4016TIP3    H211985   6.971   4.722   1.595
 4017TIP3   OH211986   6.583   3.918   1.385
 4017TIP3    H111987   6.530   3.999   1.398
 4017TIP3    H211988   6.515   3.859   1.347
 4018TIP3   OH211989   6.644   4.205   1.557
 4018TIP3    H111990   6.690   4.125   1.592
 4018TIP3    H211991   6.694   4.222   1.476
 4019TIP3   OH211992   7.497   5.176   1.208
 4019TIP3    H111993   7.542   5.103   1.159
 4019TIP3    H211994   7.484   5.136   1.295
 4020TIP3   OH211995   7.392   4.633   1.555
 4020TIP3    H111996   7.426   4.555   1.508
 4020TIP3    H211997   7.471   4.690   1.556
 4021TIP3   OH211998   7.806   4.162   1.588
 4021TIP3    H111999   7.819   4.069   1.620
 4021TIP3    H212000   7.763   4.142   1.504
 4022TIP3   OH212001   7.152   3.794   1.555
 4022TIP3    H112002   7.133   3.865   1.491
 4022TIP3    H212003   7.106   3.719   1.510
 4023TIP3   OH212004   7.850   3.874   1.176
 4023TIP3    H112005   7.908   3.861   1.252
 4023TIP3    H212006   7.878   3.957   1.136
 4024TIP3   OH212007   6.787   3.995   1.661
 4024TIP3    H112008   6.869   3.974   1.709
 4024TIP3    H212009   6.798   3.939   1.582
 4025TIP3   OH212010   7.229   4.193   1.453
 4025TIP3    H112011   7.321   4.165   1.468
 4025TIP3    H212012   7.187   4.110   1.422
 4026TIP3   OH212013   7.150   3.778   1.990
 4026TIP3    H112014   7.090   3.813   1.922
 4026TIP3    H212015   7.097   3.795   2.070
 4027TIP3   OH212016   7.492   4.624   1.001
 4027TIP3    H112017   7.457   4.608   0.911
 4027TIP3    H212018   7.450   4.710   1.022
 4028TIP3   OH212019   7.257   4.553   1.786
 4028TIP3    H112020   7.192   4.615   1.826
 4028TIP3    H212021   7.291   4.605   1.711
 4029TIP3   OH212022   7.021   3.892   1.774
 4029TIP3    H112023   7.085   3.963   1.796
 4029TIP3    H212024   7.068   3.851   1.698
 4030TIP3   OH212025   7.084   4.745   1.882
 4030TIP3    H112026   7.057   4.831   1.844
 4030TIP3    H212027   7.005   4.728   1.938
 4031TIP3   OH212028   6.479   4.434   1.117
 4031TIP3    H112029   6.438   4.459   1.032
 4031TIP3    H212030   6.508   4.521   1.151
 4032TIP3   OH212031   7.920   4.949   1.365
 4032TIP3    H112032   7.828   4.942   1.401
 4032TIP3    H212033   7.912   5.032   1.314
 4033TIP3   OH212034   7.500   3.492   1.703
 4033TIP3    H112035   7.484   3.397   1.719
 4033TIP3    H212036   7.422   3.531   1.748
 4034TIP3   OH212037   7.623   5.001   1.040
 4034TIP3    H112038   7.663   4.915   1.013
 4034TIP3    H212039   7.686   5.062   0.995
 4035TIP3   OH212040   7.748   4.784   0.938
 4035TIP3    H112041   7.724   4.704   0.890
 4035TIP3    H212042   7.800   4.748   1.012
 4036TIP3   OH212043   8.112   4.852   1.694
 4036TIP3    H112044   8.176   4.799   1.645
 4036TIP3    H212045   8.122   4.940   1.653
 4037TIP3   OH212046   7.438   4.261   0.959
 4037TIP3    H112047   7.355   4.309   0.943
 4037TIP3    H212048   7.477   4.258   0.870
 4038TIP3   OH212049   7.390   4.051   0.679
 4038TIP3    H112050   7.463   4.090   0.730
 4038TIP3    H212051   7.437   3.974   0.639
 4039TIP3   OH212052   7.778   4.341   0.934
 4039TIP3    H112053   7.722   4.372   1.009
 4039TIP3    H212054   7.846   4.291   0.983
 4040TIP3   OH212055   8.011   4.414   1.805
 4040TIP3    H112056   8.024   4.444   1.896
 4040TIP3    H212057   7.916   4.389   1.804
 4041TIP3   OH212058   7.016   4.339   1.345
 4041TIP3    H112059   6.972   4.282   1.280
 4041TIP3    H212060   7.091   4.283   1.374
 4042TIP3   OH212061   7.144   4.755   1.492
 4042TIP3    H112062   7.117   4.711   1.410
 4042TIP3    H212063   7.230   4.714   1.510
 4043TIP3   OH212064   7.159   4.306   1.703
 4043TIP3    H112065   7.185   4.287   1.611
 4043TIP3    H212066   7.196   4.396   1.719
 4044TIP3   OH212067   7.678   4.945   1.484
 4044TIP3    H112068   7.662   5.033   1.523
 4044TIP3    H212069   7.675   4.886   1.561
 4045TIP3   OH212070   7.290   4.867   2.023
 4045TIP3    H112071   7.231   4.929   2.070
 4045TIP3    H212072   7.224   4.814   1.975
 4046TIP3   OH212073   7.627   4.202   0.753
 4046TIP3    H112074   7.680   4.258   0.814
 4046TIP3    H212075   7.669   4.222   0.667
 4047TIP3   OH212076   7.044   4.424   2.125
 4047TIP3    H112077   7.047   4.510   2.170
 4047TIP3    H212078   6.949   4.402   2.137
 4048TIP3   OH212079   7.368   4.878   1.039
 4048TIP3    H112080   7.447   4.934   1.048
 4048TIP3    H212081   7.307   4.934   0.988
 4049TIP3   OH212082   7.085   5.035   2.113
 4049TIP3    H112083   7.049   5.033   2.022
 4049TIP3    H212084   7.005   5.013   2.167
 4050TIP3   OH212085   6.881   4.184   1.154
 4050TIP3    H112086   6.814   4.227   1.096
 4050TIP3    H212087   6.844   4.095   1.164
 4051TIP3   OH212088   6.664   4.565   2.058
 4051TIP3    H112089   6.595   4.545   1.991
 4051TIP3    H212090   6.699   4.477   2.081
 4052TIP3   OH212091   6.516   4.760   1.689
 4052TIP3    H112092   6.613   4.755   1.684
 4052TIP3    H212093   6.503   4.838   1.744
 4053TIP3   OH212094   7.487   4.996   1.881
 4053TIP3    H112095   7.486   5.088   1.915
 4053TIP3    H212096   7.415   4.956   1.935
 4054TIP3   OH212097   7.248   5.132   0.835
 4054TIP3    H112098   7.189   5.103   0.764
 4054TIP3    H212099   7.214   5.220   0.858
 4055TIP3   OH212100   6.687   4.975   1.217
 4055TIP3    H112101   6.731   4.964   1.304
 4055TIP3    H212102   6.631   4.896   1.215
 4056TIP3   OH212103   7.486   5.026   0.744
 4056TIP3    H112104   7.406   5.068   0.781
 4056TIP3    H212105   7.548   5.033   0.818
 4057TIP3   OH212106   6.868   4.748   2.047
 4057TIP3    H112107   6.917   4.731   2.131
 4057TIP3    H212108   6.794   4.685   2.054
 4058TIP3   OH212109   7.267   3.572   1.832
 4058TIP3    H112110   7.179   3.540   1.804
 4058TIP3    H212111   7.240   3.654   1.877
 4059TIP3   OH212112   7.774   3.706   2.012
 4059TIP3    H112113   7.841   3.666   2.072
 4059TIP3    H212114   7.691   3.679   2.057
 4060TIP3   OH212115   8.074   4.107   1.955
 4060TIP3    H112116   8.012   4.112   2.032
 4060TIP3    H212117   8.050   4.185   1.903
 4061TIP3   OH212118   7.419   3.618   0.803
 4061TIP3    H112119   7.384   3.616   0.894
 4061TIP3    H212120   7.376   3.538   0.767
 4062TIP3   OH212121   7.201   4.086   1.853
 4062TIP3    H112122   7.147   4.106   1.932
 4062TIP3    H212123   7.185   4.167   1.799
 4063TIP3   OH212124   7.082   3.976   1.365
 4063TIP3    H112125   6.990   3.947   1.383
 4063TIP3    H212126   7.096   3.935   1.277
 4064TIP3   OH212127   7.580   4.064   1.094
 4064TIP3    H112128   7.522   4.129   1.049
 4064TIP3    H212129   7.634   4.031   1.019
 4065TIP3   OH212130   7.749   4.338   2.178
 4065TIP3    H112131   7.724   4.266   2.240
 4065TIP3    H212132   7.842   4.351   2.203
 4066TIP3   OH212133   7.727   4.096   1.324
 4066TIP3    H112134   7.666   4.112   1.249
 4066TIP3    H212135   7.743   4.001   1.308
 4067TIP3   OH212136   7.019   4.117   2.059
 4067TIP3    H112137   7.038   4.180   2.129
 4067TIP3    H212138   7.005   4.034   2.108
 4068TIP3   OH212139   7.069   3.594   0.770
 4068TIP3    H112140   7.061   3.590   0.867
 4068TIP3    H212141   6.987   3.641   0.746
 4069TIP3   OH212142   6.610   3.641   1.640
 4069TIP3    H112143   6.689   3.669   1.690
 4069TIP3    H212144   6.646   3.605   1.557
 4070TIP3   OH212145   6.587   3.621   1.160
 4070TIP3    H112146   6.631   3.658   1.081
 4070TIP3    H212147   6.523   3.693   1.179
 4071TIP3   OH212148   7.743   4.351   1.767
 4071TIP3    H112149   7.774   4.283   1.703
 4071TIP3    H212150   7.709   4.293   1.839
 4072TIP3   OH212151   7.408   3.822   1.429
 4072TIP3    H112152   7.329   3.801   1.482
 4072TIP3    H212153   7.480   3.778   1.479
 4073TIP3   OH212154   6.845   3.851   1.434
 4073TIP3    H112155   6.750   3.859   1.406
 4073TIP3    H212156   6.867   3.759   1.410
 4074TIP3   OH212157   7.112   3.851   1.124
 4074TIP3    H112158   7.207   3.861   1.101
 4074TIP3    H212159   7.066   3.870   1.039
 4075TIP3   OH212160   7.823   3.897   1.619
 4075TIP3    H112161   7.813   3.893   1.716
 4075TIP3    H212162   7.894   3.831   1.604
 4076TIP3   OH212163   6.954   3.883   0.903
 4076TIP3    H112164   6.880   3.838   0.859
 4076TIP3    H212165   7.005   3.915   0.826
 4077TIP3   OH212166   8.067   5.562   1.849
 4077TIP3    H112167   8.063   5.571   1.750
 4077TIP3    H212168   8.129   5.632   1.871
 4078TIP3   OH212169   7.030   4.671   2.268
 4078TIP3    H112170   7.109   4.701   2.317
 4078TIP3    H212171   6.964   4.668   2.340
 4079TIP3   OH212172   7.501   4.130   1.533
 4079TIP3    H112173   7.551   4.070   1.476
 4079TIP3    H212174   7.498   4.079   1.616
 4080TIP3   OH212175   7.019   3.611   1.401
 4080TIP3    H112176   6.983   3.532   1.447
 4080TIP3    H212177   7.066   3.570   1.327
 4081TIP3   OH212178   7.470   4.022   1.810
 4081TIP3    H112179   7.378   4.054   1.827
 4081TIP3    H212180   7.524   4.083   1.864
 4082TIP3   OH212181   7.205   4.410   0.912
 4082TIP3    H112182   7.133   4.343   0.900
 4082TIP3    H212183   7.186   4.443   1.003
 4083TIP3   OH212184   8.113   4.639   1.499
 4083TIP3    H112185   8.171   4.664   1.427
 4083TIP3    H212186   8.050   4.580   1.453
 4084TIP3   OH212187   7.672   3.716   0.779
 4084TIP3    H112188   7.576   3.692   0.782
 4084TIP3    H212189   7.667   3.813   0.770
 4085TIP3   OH212190   7.608   4.732   1.895
 4085TIP3    H112191   7.621   4.698   1.985
 4085TIP3    H212192   7.564   4.818   1.912
 4086TIP3   OH212193   7.754   3.989   0.876
 4086TIP3    H112194   7.839   3.978   0.833
 4086TIP3    H212195   7.710   4.054   0.817
 4087TIP3   OH212196   6.906   4.439   1.585
 4087TIP3    H112197   6.938   4.405   1.499
 4087TIP3    H212198   6.930   4.368   1.646
 4088TIP3   OH212199   7.353   4.571   0.752
 4088TIP3    H112200   7.302   4.655   0.752
 4088TIP3    H212201   7.295   4.513   0.806
 4089TIP3   OH212202   6.780   4.352   2.195
 4089TIP3    H112203   6.796   4.337   2.291
 4089TIP3    H212204   6.709   4.288   2.177
 4090TIP3   OH212205   7.504   4.468   2.217
 4090TIP3    H112206   7.443   4.409   2.170
 4090TIP3    H212207   7.591   4.432   2.187
 4091TIP3   OH212208   7.762   4.988   1.803
 4091TIP3    H112209   7.666   4.991   1.817
 4091TIP3    H212210   7.793   5.044   1.878
 4092TIP3   OH212211   7.872   4.501   1.476
 4092TIP3    H112212   7.775   4.483   1.479
 4092TIP3    H212213   7.903   4.416   1.439
 4093TIP3   OH212214   6.999   4.737   1.209
 4093TIP3    H112215   6.996   4.818   1.154
 4093TIP3    H212216   6.905   4.717   1.218
 4094TIP3   OH212217   6.565   4.042   0.913
 4094TIP3    H112218   6.608   4.127   0.933
 4094TIP3    H212219   6.486   4.047   0.972
 4095TIP3   OH212220   7.141   4.504   1.156
 4095TIP3    H112221   7.104   4.593   1.173
 4095TIP3    H212222   7.101   4.452   1.228
 4096TIP3   OH212223   7.269   5.081   1.677
 4096TIP3    H112224   7.309   5.154   1.627
 4096TIP3    H212225   7.345   5.050   1.729
 4097TIP3   OH212226   6.918   4.975   1.059
 4097TIP3    H112227   6.832   4.981   1.106
 4097TIP3    H212228   6.948   5.069   1.063
 4098TIP3   OH212229   7.698   4.690   1.646
 4098TIP3    H112230   7.664   4.711   1.737
 4098TIP3    H212231   7.654   4.604   1.629
 4099TIP3   OH212232   7.909   5.246   1.681
 4099TIP3    H112233   7.827   5.194   1.674
 4099TIP3    H212234   7.893   5.315   1.613
 4100TIP3   OH212235   6.989   3.860   2.205
 4100TIP3    H112236   6.892   3.864   2.216
 4100TIP3    H212237   7.015   3.798   2.275
 4101TIP3   OH212238   7.767   4.551   0.750
 4101TIP3    H112239   7.771   4.475   0.812
 4101TIP3    H212240   7.860   4.566   0.729
 4102TIP3   OH212241   6.709   4.944   1.836
 4102TIP3    H112242   6.759   4.867   1.868
 4102TIP3    H212243   6.733   5.010   1.902
 4103TIP3   OH212244   7.016   4.576   0.537
 4103TIP3    H112245   7.013   4.484   0.504
 4103TIP3    H212246   6.994   4.564   0.631
 4104TIP3   OH212247   6.943   4.595   0.802
 4104TIP3    H112248   7.010   4.564   0.865
 4104TIP3    H212249   6.951   4.693   0.811
 4105TIP3   OH212250   6.681   4.288   0.994
 4105TIP3    H112251   6.613   4.331   1.050
 4105TIP3    H212252   6.691   4.357   0.925
 4106TIP3   OH212253   7.825   3.946   1.897
 4106TIP3    H112254   7.914   3.961   1.931
 4106TIP3    H212255   7.801   3.861   1.940
 4107TIP3   OH212256   7.678   3.688   1.057
 4107TIP3    H112257   7.686   3.691   0.960
 4107TIP3    H212258   7.736   3.762   1.086
 4108TIP3   OH212259   7.211   4.800   0.732
 4108TIP3    H112260   7.123   4.826   0.762
 4108TIP3    H212261   7.216   4.841   0.645
 4109TIP3   OH212262   7.394   3.858   1.154
 4109TIP3    H112263   7.465   3.924   1.138
 4109TIP3    H212264   7.399   3.847   1.252
 4110TIP3   OH212265   7.666   4.175   1.956
 4110TIP3    H112266   7.690   4.221   2.040
 4110TIP3    H212267   7.721   4.095   1.959
 4111TIP3   OH212268   7.532   3.577   1.256
 4111TIP3    H112269   7.558   3.636   1.330
 4111TIP3    H212270   7.587   3.615   1.183
 4112TIP3   OH212271   6.955   4.867   0.806
 4112TIP3    H112272   6.931   4.939   0.744
 4112TIP3    H212273   6.936   4.908   0.894
 4113TIP3   OH212274   7.052   3.579   1.046
 4113TIP3    H112275   7.051   3.669   1.083
 4113TIP3    H212276   7.148   3.560   1.053
 4114TIP3   OH212277   7.954   4.257   1.370
 4114TIP3    H112278   7.869   4.218   1.338
 4114TIP3    H212279   7.969   4.201   1.448
 4115TIP3   OH212280   6.668   4.497   0.804
 4115TIP3    H112281   6.734   4.568   0.812
 4115TIP3    H212282   6.713   4.442   0.736
 4116TIP3   OH212283   6.617   3.773   0.934
 4116TIP3    H112284   6.612   3.870   0.929
 4116TIP3    H212285   6.536   3.746   0.888
 4117TIP3   OH212286   7.937   5.221   1.278
 4117TIP3    H112287   7.888   5.267   1.205
 4117TIP3    H212288   8.028   5.242   1.255
 4118TIP3   OH212289   7.004   3.492   1.806
 4118TIP3    H112290   6.972   3.459   1.719
 4118TIP3    H212291   6.992   3.414   1.863
 4119TIP3   OH212292   6.545   4.716   1.187
 4119TIP3    H112293   6.473   4.741   1.245
 4119TIP3    H212294   6.514   4.754   1.101
 4120TIP3   OH212295   6.697   5.251   2.257
 4120TIP3    H112296   6.783   5.250   2.304
 4120TIP3    H212297   6.674   5.157   2.257
 4121TIP3   OH212298   7.181   5.218   2.303
 4121TIP3    H112299   7.275   5.197   2.309
 4121TIP3    H212300   7.154   5.158   2.230
 4122TIP3   OH212301   7.825   5.119   2.032
 4122TIP3    H112302   7.812   5.053   2.104
 4122TIP3    H212303   7.895   5.176   2.069
 4123TIP3   OH212304   6.829   4.659   2.459
 4123TIP3    H112305   6.845   4.563   2.464
 4123TIP3    H212306   6.741   4.662   2.415
 4124TIP3   OH212307   6.814   4.319   0.661
 4124TIP3    H112308   6.871   4.279   0.728
 4124TIP3    H212309   6.875   4.322   0.583
 4125TIP3   OH212310   7.437   4.743   2.231
 4125TIP3    H112311   7.392   4.758   2.146
 4125TIP3    H212312   7.466   4.650   2.225
 4126TIP3   OH212313   7.323   4.508   0.488
 4126TIP3    H112314   7.321   4.526   0.584
 4126TIP3    H212315   7.277   4.422   0.484
 4127TIP3   OH212316   7.928   4.766   1.867
 4127TIP3    H112317   8.001   4.823   1.835
 4127TIP3    H212318   7.855   4.831   1.868
 4128TIP3   OH212319   6.949   4.396   2.440
 4128TIP3    H112320   7.019   4.332   2.422
 4128TIP3    H212321   6.975   4.427   2.530
 4129TIP3   OH212322   7.017   4.212   0.877
 4129TIP3    H112323   6.984   4.169   0.958
 4129TIP3    H212324   7.051   4.135   0.826
 4130TIP3   OH212325   7.284   4.280   2.107
 4130TIP3    H112326   7.203   4.336   2.107
 4130TIP3    H212327   7.331   4.314   2.028
 4131TIP3   OH212328   7.113   4.007   0.718
 4131TIP3    H112329   7.087   4.008   0.623
 4131TIP3    H212330   7.211   4.011   0.710
 4132TIP3   OH212331   7.800   4.680   2.236
 4132TIP3    H112332   7.888   4.660   2.201
 4132TIP3    H212333   7.790   4.612   2.305
 4133TIP3   OH212334   7.407   4.065   2.228
 4133TIP3    H112335   7.405   3.985   2.171
 4133TIP3    H212336   7.362   4.131   2.171
 4134TIP3   OH212337   7.408   3.853   2.035
 4134TIP3    H112338   7.435   3.891   1.949
 4134TIP3    H212339   7.314   3.829   2.018
 4135TIP3   OH212340   7.436   4.391   1.914
 4135TIP3    H112341   7.513   4.388   1.857
 4135TIP3    H212342   7.378   4.456   1.868
 4136TIP3   OH212343   8.018   4.355   2.292
 4136TIP3    H112344   8.062   4.269   2.289
 4136TIP3    H212345   8.088   4.415   2.261
 4137TIP3   OH212346   8.074   4.595   2.026
 4137TIP3    H112347   8.020   4.659   1.975
 4137TIP3    H212348   8.154   4.587   1.969
 4138TIP3   OH212349   7.286   4.176   2.460
 4138TIP3    H112350   7.216   4.109   2.474
 4138TIP3    H212351   7.318   4.153   2.371
 4139TIP3   OH212352   7.533   3.616   2.106
 4139TIP3    H112353   7.483   3.697   2.083
 4139TIP3    H212354   7.466   3.546   2.092
 4140TIP3   OH212355   7.666   4.121   2.318
 4140TIP3    H112356   7.652   4.107   2.414
 4140TIP3    H212357   7.576   4.095   2.286
 4141TIP3   OH212358   7.910   4.078   2.172
 4141TIP3    H112359   7.830   4.075   2.228
 4141TIP3    H212360   7.975   4.033   2.231
 4142TIP3   OH212361   8.105   3.979   2.333
 4142TIP3    H112362   8.151   3.896   2.355
 4142TIP3    H212363   8.121   4.033   2.413
 4143TIP3   OH212364   7.125   3.958   2.511
 4143TIP3    H112365   7.127   3.866   2.476
 4143TIP3    H212366   7.159   3.944   2.601
 4144TIP3   OH212367   7.634   3.625   2.362
 4144TIP3    H112368   7.695   3.549   2.357
 4144TIP3    H212369   7.594   3.621   2.272
 4145TIP3   OH212370   7.701   3.841   2.520
 4145TIP3    H112371   7.680   3.770   2.455
 4145TIP3    H212372   7.623   3.900   2.513
 4146TIP3   OH212373   6.943   5.066   0.617
 4146TIP3    H112374   7.023   5.060   0.561
 4146TIP3    H212375   6.879   5.102   0.555
 4147TIP3   OH212376   6.400   4.450   0.839
 4147TIP3    H112377   6.494   4.473   0.821
 4147TIP3    H212378   6.394   4.361   0.796
 4148TIP3   OH212379   6.316   5.065   1.249
 4148TIP3    H112380   6.250   5.003   1.212
 4148TIP3    H212381   6.361   5.007   1.314
 4149TIP3   OH212382   6.452   4.917   1.436
 4149TIP3    H112383   6.438   4.841   1.496
 4149TIP3    H212384   6.501   4.976   1.495
 4150TIP3   OH212385   8.248   5.313   1.509
 4150TIP3    H112386   8.195   5.231   1.506
 4150TIP3    H212387   8.236   5.339   1.601
 4151TIP3   OH212388   8.228   5.031   2.085
 4151TIP3    H112389   8.158   5.025   2.153
 4151TIP3    H212390   8.262   5.122   2.097
 4152TIP3   OH212391   8.090   5.085   1.544
 4152TIP3    H112392   8.022   5.132   1.596
 4152TIP3    H212393   8.034   5.037   1.479
 4153TIP3   OH212394   7.989   4.213   1.065
 4153TIP3    H112395   8.077   4.169   1.069
 4153TIP3    H212396   7.998   4.273   1.140
 4154TIP3   OH212397   6.639   4.321   1.808
 4154TIP3    H112398   6.637   4.290   1.715
 4154TIP3    H212399   6.736   4.322   1.824
 4155TIP3   OH212400   6.858   4.010   2.487
 4155TIP3    H112401   6.955   4.001   2.485
 4155TIP3    H212402   6.832   3.924   2.525
 4156TIP3   OH212403   6.819   3.700   1.814
 4156TIP3    H112404   6.880   3.625   1.822
 4156TIP3    H212405   6.881   3.774   1.807
 4157TIP3   OH212406   6.622   3.974   1.888
 4157TIP3    H112407   6.669   3.966   1.802
 4157TIP3    H212408   6.650   4.062   1.917
 4158TIP3   OH212409   6.604   3.486   1.393
 4158TIP3    H112410   6.509   3.475   1.413
 4158TIP3    H212411   6.602   3.539   1.311
 4159TIP3   OH212412   7.763   5.179   0.885
 4159TIP3    H112413   7.785   5.170   0.791
 4159TIP3    H212414   7.825   5.247   0.916
 4160TIP3   OH212415   6.826   3.559   2.203
 4160TIP3    H112416   6.773   3.552   2.284
 4160TIP3    H212417   6.759   3.597   2.141
 4161TIP3   OH212418   6.865   4.985   2.279
 4161TIP3    H112419   6.773   4.958   2.260
 4161TIP3    H212420   6.872   4.965   2.373
 4162TIP3   OH212421   7.042   5.016   1.827
 4162TIP3    H112422   6.991   5.090   1.788
 4162TIP3    H212423   7.127   5.032   1.781
 4163TIP3   OH212424   7.488   5.260   1.962
 4163TIP3    H112425   7.528   5.262   2.052
 4163TIP3    H212426   7.554   5.313   1.912
 4164TIP3   OH212427   7.667   5.413   1.823
 4164TIP3    H112428   7.741   5.366   1.782
 4164TIP3    H212429   7.715   5.473   1.884
 4165TIP3   OH212430   6.720   5.278   1.848
 4165TIP3    H112431   6.630   5.310   1.825
 4165TIP3    H212432   6.726   5.308   1.939
 4166TIP3   OH212433   6.956   5.254   1.707
 4166TIP3    H112434   6.870   5.266   1.753
 4166TIP3    H212435   6.934   5.285   1.617
 4167TIP3   OH212436   7.382   5.282   1.504
 4167TIP3    H112437   7.310   5.302   1.441
 4167TIP3    H212438   7.394   5.369   1.548
 4168TIP3   OH212439   7.649   5.214   1.553
 4168TIP3    H112440   7.556   5.238   1.536
 4168TIP3    H212441   7.695   5.293   1.519
 4169TIP3   OH212442   7.839   5.405   1.469
 4169TIP3    H112443   7.837   5.495   1.430
 4169TIP3    H212444   7.871   5.352   1.394
 4170TIP3   OH212445   6.632   5.071   1.595
 4170TIP3    H112446   6.657   5.043   1.686
 4170TIP3    H212447   6.702   5.024   1.544
 4171TIP3   OH212448   6.823   4.939   1.452
 4171TIP3    H112449   6.838   4.855   1.501
 4171TIP3    H212450   6.915   4.975   1.447
 4172TIP3   OH212451   7.092   5.036   1.452
 4172TIP3    H112452   7.120   4.944   1.440
 4172TIP3    H212453   7.133   5.055   1.538
 4173TIP3   OH212454   7.627   3.667   1.509
 4173TIP3    H112455   7.608   3.606   1.583
 4173TIP3    H212456   7.721   3.647   1.490
 4174TIP3   OH212457   6.914   3.401   1.559
 4174TIP3    H112458   6.821   3.368   1.559
 4174TIP3    H212459   6.962   3.316   1.554
 4175TIP3   OH212460   6.706   3.269   1.208
 4175TIP3    H112461   6.732   3.325   1.133
 4175TIP3    H212462   6.673   3.334   1.273
 4176TIP3   OH212463   7.357   3.433   1.438
 4176TIP3    H112464   7.414   3.478   1.374
 4176TIP3    H212465   7.384   3.472   1.522
 4177TIP3   OH212466   7.872   3.564   1.418
 4177TIP3    H112467   7.890   3.533   1.329
 4177TIP3    H212468   7.875   3.479   1.467
 4178TIP3   OH212469   6.419   4.842   0.986
 4178TIP3    H112470   6.335   4.805   0.952
 4178TIP3    H212471   6.406   4.935   0.961
 4179TIP3   OH212472   6.818   3.429   0.969
 4179TIP3    H112473   6.864   3.364   0.912
 4179TIP3    H212474   6.892   3.480   1.005
 4180TIP3   OH212475   7.329   3.606   1.066
 4180TIP3    H112476   7.388   3.556   1.125
 4180TIP3    H212477   7.354   3.697   1.093
 4181TIP3   OH212478   7.122   3.684   2.451
 4181TIP3    H112479   7.087   3.612   2.506
 4181TIP3    H212480   7.216   3.682   2.478
 4182TIP3   OH212481   7.372   3.679   2.570
 4182TIP3    H112482   7.455   3.652   2.528
 4182TIP3    H212483   7.359   3.607   2.635
 4183TIP3   OH212484   6.475   4.853   0.643
 4183TIP3    H112485   6.481   4.898   0.729
 4183TIP3    H212486   6.564   4.816   0.631
 4184TIP3   OH212487   8.132   5.296   1.852
 4184TIP3    H112488   8.056   5.263   1.801
 4184TIP3    H212489   8.112   5.392   1.854
 4185TIP3   OH212490   0.045   5.204   2.841
 4185TIP3    H112491   0.021   5.288   2.801
 4185TIP3    H212492  -0.014   5.141   2.797
 4186TIP3   OH212493   0.067   5.186   3.193
 4186TIP3    H112494   0.098   5.146   3.276
 4186TIP3    H212495   0.028   5.109   3.148
 4187TIP3   OH212496   0.294   5.501   2.889
 4187TIP3    H112497   0.292   5.425   2.947
 4187TIP3    H212498   0.328   5.571   2.947
 4188TIP3   OH212499   0.004   5.978   2.883
 4188TIP3    H112500   0.049   5.896   2.855
 4188TIP3    H212501  -0.057   5.945   2.951
 4189TIP3   OH212502  -0.115   5.395   3.246
 4189TIP3    H112503  -0.078   5.316   3.203
 4189TIP3    H212504  -0.033   5.445   3.264
 4190TIP3   OH212505   0.870   4.739   3.247
 4190TIP3    H112506   0.900   4.825   3.283
 4190TIP3    H212507   0.885   4.753   3.152
 4191TIP3   OH212508   0.256   4.919   3.279
 4191TIP3    H112509   0.300   4.833   3.294
 4191TIP3    H212510   0.290   4.944   3.192
 4192TIP3   OH212511   0.945   4.951   3.414
 4192TIP3    H112512   0.860   4.996   3.392
 4192TIP3    H212513   0.951   4.971   3.508
 4193TIP3   OH212514  -0.036   5.382   2.634
 4193TIP3    H112515  -0.125   5.342   2.646
 4193TIP3    H212516  -0.046   5.471   2.668
 4194TIP3   OH212517   0.538   4.656   3.048
 4194TIP3    H112518   0.499   4.630   3.131
 4194TIP3    H212519   0.563   4.748   3.061
 4195TIP3   OH212520   0.368   5.741   3.049
 4195TIP3    H112521   0.276   5.731   3.085
 4195TIP3    H212522   0.361   5.828   3.005
 4196TIP3   OH212523   0.661   4.644   3.413
 4196TIP3    H112524   0.572   4.666   3.378
 4196TIP3    H212525   0.719   4.672   3.339
 4197TIP3   OH212526  -0.035   4.274   3.381
 4197TIP3    H112527  -0.039   4.177   3.398
 4197TIP3    H212528  -0.091   4.308   3.451
 4198TIP3   OH212529   0.068   5.768   2.705
 4198TIP3    H112530   0.123   5.689   2.685
 4198TIP3    H212531   0.130   5.838   2.674
 4199TIP3   OH212532   0.220   5.558   2.635
 4199TIP3    H112533   0.202   5.468   2.606
 4199TIP3    H212534   0.265   5.541   2.721
 4200TIP3   OH212535   0.596   5.654   3.391
 4200TIP3    H112536   0.586   5.575   3.333
 4200TIP3    H212537   0.581   5.727   3.329
 4201TIP3   OH212538  -0.121   5.107   2.625
 4201TIP3    H112539  -0.196   5.059   2.667
 4201TIP3    H212540  -0.075   5.033   2.584
 4202TIP3   OH212541  -0.141   4.834   2.366
 4202TIP3    H112542  -0.073   4.884   2.414
 4202TIP3    H212543  -0.085   4.770   2.317
 4203TIP3   OH212544   0.792   5.292   3.238
 4203TIP3    H112545   0.708   5.343   3.242
 4203TIP3    H212546   0.821   5.313   3.146
 4204TIP3   OH212547   0.226   5.176   2.636
 4204TIP3    H112548   0.187   5.177   2.726
 4204TIP3    H212549   0.264   5.085   2.642
 4205TIP3   OH212550   0.472   5.170   3.531
 4205TIP3    H112551   0.466   5.252   3.583
 4205TIP3    H212552   0.386   5.172   3.484
 4206TIP3   OH212553   0.120   5.733   3.159
 4206TIP3    H112554   0.114   5.814   3.212
 4206TIP3    H212555   0.115   5.662   3.226
 4207TIP3   OH212556   0.070   4.995   2.450
 4207TIP3    H112557   0.141   4.955   2.507
 4207TIP3    H212558   0.114   5.001   2.362
 4208TIP3   OH212559   0.590   4.225   2.492
 4208TIP3    H112560   0.511   4.246   2.546
 4208TIP3    H212561   0.607   4.313   2.452
 4209TIP3   OH212562   0.391   5.599   2.046
 4209TIP3    H112563   0.403   5.695   2.026
 4209TIP3    H212564   0.483   5.567   2.032
 4210TIP3   OH212565   0.833   5.997   3.436
 4210TIP3    H112566   0.832   5.900   3.449
 4210TIP3    H212567   0.750   6.022   3.482
 4211TIP3   OH212568  -0.049   5.840   2.173
 4211TIP3    H112569  -0.026   5.756   2.131
 4211TIP3    H212570  -0.057   5.818   2.267
 4212TIP3   OH212571  -0.053   5.861   2.453
 4212TIP3    H112572  -0.122   5.865   2.521
 4212TIP3    H212573   0.025   5.839   2.506
 4213TIP3   OH212574   0.724   5.129   3.711
 4213TIP3    H112575   0.642   5.141   3.661
 4213TIP3    H212576   0.739   5.033   3.699
 4214TIP3   OH212577   0.259   4.477   3.714
 4214TIP3    H112578   0.328   4.448   3.777
 4214TIP3    H212579   0.176   4.455   3.762
 4215TIP3   OH212580   0.493   4.905   3.636
 4215TIP3    H112581   0.444   4.900   3.721
 4215TIP3    H212582   0.469   4.992   3.601
 4216TIP3   OH212583   0.160   5.054   2.202
 4216TIP3    H112584   0.120   5.021   2.119
 4216TIP3    H212585   0.247   5.082   2.168
 4217TIP3   OH212586  -0.135   4.416   2.469
 4217TIP3    H112587  -0.150   4.413   2.567
 4217TIP3    H212588  -0.171   4.327   2.447
 4218TIP3   OH212589   0.220   5.131   3.878
 4218TIP3    H112590   0.194   5.053   3.931
 4218TIP3    H212591   0.315   5.137   3.902
 4219TIP3   OH212592   0.192   5.121   3.447
 4219TIP3    H112593   0.221   5.049   3.386
 4219TIP3    H212594   0.166   5.066   3.524
 4220TIP3   OH212595  -0.125   4.585   3.103
 4220TIP3    H112596  -0.217   4.595   3.132
 4220TIP3    H212597  -0.074   4.581   3.186
 4221TIP3   OH212598   0.362   4.661   3.324
 4221TIP3    H112599   0.317   4.669   3.410
 4221TIP3    H212600   0.303   4.598   3.279
 4222TIP3   OH212601   0.519   6.345   3.534
 4222TIP3    H112602   0.520   6.367   3.439
 4222TIP3    H212603   0.602   6.389   3.564
 4223TIP3   OH212604  -0.049   4.903   3.213
 4223TIP3    H112605   0.010   4.853   3.155
 4223TIP3    H212606  -0.025   4.869   3.300
 4224TIP3   OH212607  -0.054   4.791   3.507
 4224TIP3    H112608  -0.120   4.865   3.497
 4224TIP3    H212609   0.020   4.840   3.547
 4225TIP3   OH212610   0.558   5.437   3.227
 4225TIP3    H112611   0.583   5.485   3.145
 4225TIP3    H212612   0.474   5.393   3.201
 4226TIP3   OH212613   0.115   4.522   2.473
 4226TIP3    H112614   0.019   4.499   2.469
 4226TIP3    H212615   0.115   4.618   2.460
 4227TIP3   OH212616   0.066   5.531   3.589
 4227TIP3    H112617   0.075   5.498   3.679
 4227TIP3    H212618   0.004   5.606   3.601
 4228TIP3   OH212619   0.003   5.283   3.955
 4228TIP3    H112620  -0.034   5.206   4.001
 4228TIP3    H212621   0.092   5.248   3.934
 4229TIP3   OH212622   0.221   5.793   3.473
 4229TIP3    H112623   0.133   5.763   3.499
 4229TIP3    H212624   0.252   5.835   3.557
 4230TIP3   OH212625   0.649   4.852   2.380
 4230TIP3    H112626   0.571   4.805   2.342
 4230TIP3    H212627   0.632   4.940   2.340
 4231TIP3   OH212628   0.847   5.708   3.479
 4231TIP3    H112629   0.749   5.702   3.471
 4231TIP3    H212630   0.873   5.677   3.390
 4232TIP3   OH212631   0.320   5.664   2.305
 4232TIP3    H112632   0.340   5.591   2.366
 4232TIP3    H212633   0.346   5.628   2.219
 4233TIP3   OH212634   0.325   5.297   3.147
 4233TIP3    H112635   0.230   5.275   3.156
 4233TIP3    H212636   0.357   5.211   3.112
 4234TIP3   OH212637   0.127   5.505   3.324
 4234TIP3    H112638   0.114   5.509   3.422
 4234TIP3    H212639   0.205   5.448   3.316
 4235TIP3   OH212640   0.361   6.036   3.378
 4235TIP3    H112641   0.287   5.972   3.377
 4235TIP3    H212642   0.336   6.097   3.305
 4236TIP3   OH212643   0.423   5.871   2.028
 4236TIP3    H112644   0.448   5.935   1.958
 4236TIP3    H212645   0.344   5.919   2.063
 4237TIP3   OH212646   0.271   4.720   3.584
 4237TIP3    H112647   0.358   4.751   3.612
 4237TIP3    H212648   0.263   4.634   3.632
 4238TIP3   OH212649   0.170   4.487   2.745
 4238TIP3    H112650   0.145   4.490   2.651
 4238TIP3    H212651   0.211   4.574   2.756
 4239TIP3   OH212652  -0.155   4.672   2.842
 4239TIP3    H112653  -0.063   4.694   2.824
 4239TIP3    H212654  -0.153   4.650   2.937
 4240TIP3   OH212655   0.128   4.963   3.653
 4240TIP3    H112656   0.150   5.014   3.733
 4240TIP3    H212657   0.182   4.882   3.664
 4241TIP3   OH212658   0.009   4.373   2.960
 4241TIP3    H112659  -0.011   4.456   3.008
 4241TIP3    H212660   0.057   4.409   2.882
 4242TIP3   OH212661   0.761   4.862   3.630
 4242TIP3    H112662   0.663   4.861   3.639
 4242TIP3    H212663   0.769   4.816   3.544
 4243TIP3   OH212664   0.384   5.040   3.049
 4243TIP3    H112665   0.359   5.000   2.964
 4243TIP3    H212666   0.471   4.998   3.066
 4244TIP3   OH212667   0.379   6.011   2.971
 4244TIP3    H112668   0.337   6.060   2.897
 4244TIP3    H212669   0.473   6.030   2.951
 4245TIP3   OH212670   0.283   5.905   3.713
 4245TIP3    H112671   0.259   5.850   3.790
 4245TIP3    H212672   0.350   5.965   3.751
 4246TIP3   OH212673   0.084   5.620   2.027
 4246TIP3    H112674   0.161   5.611   2.084
 4246TIP3    H212675   0.124   5.620   1.938
 4247TIP3   OH212676  -0.193   5.279   2.202
 4247TIP3    H112677  -0.284   5.287   2.235
 4247TIP3    H212678  -0.195   5.185   2.172
 4248TIP3   OH212679   0.382   5.536   3.528
 4248TIP3    H112680   0.455   5.584   3.484
 4248TIP3    H212681   0.308   5.598   3.516
 4249TIP3   OH212682  -0.400   4.809   2.457
 4249TIP3    H112683  -0.430   4.801   2.364
 4249TIP3    H212684  -0.304   4.811   2.444
 4250TIP3   OH212685   0.258   5.473   3.931
 4250TIP3    H112686   0.331   5.444   3.875
 4250TIP3    H212687   0.240   5.394   3.983
 4251TIP3   OH212688   0.391   5.118   2.067
 4251TIP3    H112689   0.371   5.074   1.982
 4251TIP3    H212690   0.361   5.210   2.046
 4252TIP3   OH212691  -0.169   4.595   3.662
 4252TIP3    H112692  -0.118   4.657   3.606
 4252TIP3    H212693  -0.221   4.658   3.715
 4253TIP3   OH212694  -0.057   5.233   3.549
 4253TIP3    H112695   0.034   5.216   3.520
 4253TIP3    H212696  -0.078   5.312   3.498
 4254TIP3   OH212697   0.477   5.142   3.960
 4254TIP3    H112698   0.522   5.062   3.990
 4254TIP3    H212699   0.551   5.201   3.939
 4255TIP3   OH212700   0.513   5.399   3.720
 4255TIP3    H112701   0.456   5.450   3.658
 4255TIP3    H212702   0.601   5.416   3.680
 4256TIP3   OH212703   0.000   4.406   3.786
 4256TIP3    H112704  -0.058   4.477   3.751
 4256TIP3    H212705  -0.055   4.327   3.768
 4257TIP3   OH212706   0.120   4.918   4.018
 4257TIP3    H112707   0.136   4.946   4.110
 4257TIP3    H212708   0.037   4.869   4.028
 4258TIP3   OH212709   0.359   4.854   3.866
 4258TIP3    H112710   0.284   4.856   3.929
 4258TIP3    H212711   0.433   4.825   3.922
 4259TIP3   OH212712   0.595   4.800   4.017
 4259TIP3    H112713   0.603   4.704   4.034
 4259TIP3    H212714   0.586   4.837   4.107
 4260TIP3   OH212715   0.094   4.415   4.045
 4260TIP3    H112716   0.159   4.343   4.043
 4260TIP3    H212717   0.055   4.408   3.955
 4261TIP3   OH212718   0.165   4.623   4.205
 4261TIP3    H112719   0.143   4.548   4.145
 4261TIP3    H212720   0.084   4.678   4.195
 4262TIP3   OH212721   0.629   6.108   2.926
 4262TIP3    H112722   0.662   6.137   3.013
 4262TIP3    H212723   0.697   6.142   2.865
 4263TIP3   OH212724   0.662   6.124   3.209
 4263TIP3    H112725   0.617   6.037   3.204
 4263TIP3    H212726   0.738   6.099   3.264
 4264TIP3   OH212727   0.710   5.800   3.779
 4264TIP3    H112728   0.636   5.808   3.843
 4264TIP3    H212729   0.750   5.888   3.784
 4265TIP3   OH212730   0.529   5.316   2.397
 4265TIP3    H112731   0.603   5.374   2.372
 4265TIP3    H212732   0.562   5.276   2.480
 4266TIP3   OH212733   0.648   5.186   2.611
 4266TIP3    H112734   0.593   5.140   2.675
 4266TIP3    H212735   0.722   5.220   2.666
 4267TIP3   OH212736   0.703   5.571   3.034
 4267TIP3    H112737   0.758   5.505   2.988
 4267TIP3    H212738   0.701   5.645   2.970
 4268TIP3   OH212739   0.538   5.873   3.230
 4268TIP3    H112740   0.467   5.913   3.283
 4268TIP3    H212741   0.487   5.824   3.161
 4269TIP3   OH212742   0.591   5.092   2.249
 4269TIP3    H112743   0.518   5.089   2.183
 4269TIP3    H212744   0.561   5.167   2.304
 4270TIP3   OH212745   0.452   4.764   2.204
 4270TIP3    H112746   0.419   4.793   2.118
 4270TIP3    H212747   0.433   4.668   2.200
 4271TIP3   OH212748   0.755   5.462   3.608
 4271TIP3    H112749   0.827   5.395   3.600
 4271TIP3    H212750   0.782   5.529   3.544
 4272TIP3   OH212751   0.940   5.268   3.628
 4272TIP3    H112752   0.865   5.216   3.664
 4272TIP3    H212753   1.013   5.203   3.641
 4273TIP3   OH212754   0.405   4.495   2.190
 4273TIP3    H112755   0.481   4.468   2.245
 4273TIP3    H212756   0.333   4.437   2.220
 4274TIP3   OH212757   0.624   4.930   3.140
 4274TIP3    H112758   0.710   4.952   3.099
 4274TIP3    H212759   0.641   4.964   3.230
 4275TIP3   OH212760   0.694   5.071   3.375
 4275TIP3    H112761   0.615   5.105   3.421
 4275TIP3    H212762   0.726   5.152   3.328
 4276TIP3   OH212763   1.145   4.663   3.930
 4276TIP3    H112764   1.203   4.596   3.888
 4276TIP3    H212765   1.116   4.716   3.852
 4277TIP3   OH212766   0.598   4.475   2.669
 4277TIP3    H112767   0.616   4.492   2.763
 4277TIP3    H212768   0.518   4.420   2.674
 4278TIP3   OH212769   1.014   4.801   3.735
 4278TIP3    H112770   0.926   4.841   3.750
 4278TIP3    H212771   0.988   4.728   3.675
 4279TIP3   OH212772   0.652   4.439   2.312
 4279TIP3    H112773   0.694   4.366   2.263
 4279TIP3    H212774   0.721   4.508   2.311
 4280TIP3   OH212775   0.218   5.958   2.589
 4280TIP3    H112776   0.267   5.946   2.504
 4280TIP3    H212777   0.265   6.032   2.628
 4281TIP3   OH212778   0.118   6.210   3.509
 4281TIP3    H112779   0.178   6.138   3.483
 4281TIP3    H212780   0.177   6.262   3.568
 4282TIP3   OH212781   0.913   4.564   3.614
 4282TIP3    H112782   0.822   4.557   3.577
 4282TIP3    H212783   0.944   4.471   3.601
 4283TIP3   OH212784   0.095   6.008   3.245
 4283TIP3    H112785   0.013   6.037   3.286
 4283TIP3    H212786   0.130   6.090   3.207
 4284TIP3   OH212787   0.310   6.206   3.159
 4284TIP3    H112788   0.297   6.286   3.105
 4284TIP3    H212789   0.335   6.139   3.091
 4285TIP3   OH212790   0.122   4.480   3.242
 4285TIP3    H112791   0.077   4.402   3.277
 4285TIP3    H212792   0.190   4.440   3.183
 4286TIP3   OH212793   0.640   4.361   3.142
 4286TIP3    H112794   0.679   4.413   3.068
 4286TIP3    H212795   0.545   4.383   3.131
 4287TIP3   OH212796   0.746   4.458   2.911
 4287TIP3    H112797   0.814   4.413   2.857
 4287TIP3    H212798   0.768   4.552   2.893
 4288TIP3   OH212799  -0.177   4.217   3.133
 4288TIP3    H112800  -0.128   4.265   3.064
 4288TIP3    H212801  -0.134   4.249   3.213
 4289TIP3   OH212802   0.353   4.368   3.118
 4289TIP3    H112803   0.355   4.338   3.027
 4289TIP3    H212804   0.340   4.283   3.167
 4290TIP3   OH212805   0.385   4.286   2.673
 4290TIP3    H112806   0.301   4.333   2.688
 4290TIP3    H212807   0.369   4.202   2.721
 4291TIP3   OH212808  -0.170   4.402   2.736
 4291TIP3    H112809  -0.175   4.347   2.814
 4291TIP3    H212810  -0.203   4.487   2.769
 4292TIP3   OH212811   0.357   5.929   2.355
 4292TIP3    H112812   0.344   5.833   2.339
 4292TIP3    H212813   0.316   5.966   2.273
 4293TIP3   OH212814   0.648   4.527   4.046
 4293TIP3    H112815   0.668   4.495   4.136
 4293TIP3    H212816   0.736   4.522   4.003
 4294TIP3   OH212817   0.588   6.080   3.540
 4294TIP3    H112818   0.510   6.047   3.490
 4294TIP3    H212819   0.568   6.175   3.543
 4295TIP3   OH212820   1.854   5.451   2.305
 4295TIP3    H112821   1.825   5.542   2.285
 4295TIP3    H212822   1.778   5.401   2.271
 4296TIP3   OH212823   1.851   5.452   2.686
 4296TIP3    H112824   1.884   5.422   2.772
 4296TIP3    H212825   1.812   5.372   2.650
 4297TIP3   OH212826   1.151   5.349   3.052
 4297TIP3    H112827   1.182   5.279   3.113
 4297TIP3    H212828   1.232   5.399   3.039
 4298TIP3   OH212829   2.096   5.754   2.367
 4298TIP3    H112830   2.082   5.683   2.431
 4298TIP3    H212831   2.126   5.828   2.422
 4299TIP3   OH212832   1.123   5.757   2.777
 4299TIP3    H112833   1.115   5.659   2.778
 4299TIP3    H212834   1.220   5.766   2.770
 4300TIP3   OH212835   0.830   4.963   2.564
 4300TIP3    H112836   0.775   5.042   2.569
 4300TIP3    H212837   0.765   4.900   2.527
 4301TIP3   OH212838   0.889   5.248   2.731
 4301TIP3    H112839   0.936   5.169   2.768
 4301TIP3    H212840   0.947   5.272   2.658
 4302TIP3   OH212841   1.746   6.217   2.384
 4302TIP3    H112842   1.791   6.146   2.333
 4302TIP3    H212843   1.741   6.177   2.472
 4303TIP3   OH212844   1.651   5.678   2.734
 4303TIP3    H112845   1.689   5.601   2.689
 4303TIP3    H212846   1.735   5.723   2.758
 4304TIP3   OH212847   2.663   4.997   2.731
 4304TIP3    H112848   2.693   5.080   2.774
 4304TIP3    H212849   2.687   5.015   2.638
 4305TIP3   OH212850   2.063   5.179   2.766
 4305TIP3    H112851   2.106   5.094   2.787
 4305TIP3    H212852   2.033   5.163   2.675
 4306TIP3   OH212853   1.402   4.839   2.731
 4306TIP3    H112854   1.381   4.911   2.669
 4306TIP3    H212855   1.355   4.765   2.687
 4307TIP3   OH212856   2.096   4.930   2.353
 4307TIP3    H112857   2.167   4.914   2.419
 4307TIP3    H212858   2.148   4.964   2.279
 4308TIP3   OH212859   1.035   5.041   2.838
 4308TIP3    H112860   1.118   5.019   2.884
 4308TIP3    H212861   1.045   4.984   2.759
 4309TIP3   OH212862   1.476   5.238   2.633
 4309TIP3    H112863   1.570   5.212   2.644
 4309TIP3    H212864   1.437   5.154   2.599
 4310TIP3   OH212865   2.738   5.204   2.901
 4310TIP3    H112866   2.654   5.252   2.882
 4310TIP3    H212867   2.754   5.231   2.993
 4311TIP3   OH212868   1.398   4.822   3.166
 4311TIP3    H112869   1.338   4.858   3.098
 4311TIP3    H212870   1.346   4.840   3.247
 4312TIP3   OH212871   1.744   5.672   2.175
 4312TIP3    H112872   1.704   5.652   2.090
 4312TIP3    H212873   1.700   5.756   2.198
 4313TIP3   OH212874   1.506   5.597   2.961
 4313TIP3    H112875   1.443   5.663   2.998
 4313TIP3    H212876   1.547   5.648   2.888
 4314TIP3   OH212877   2.306   4.932   2.525
 4314TIP3    H112878   2.299   4.882   2.608
 4314TIP3    H212879   2.361   5.008   2.551
 4315TIP3   OH212880   1.269   4.937   2.950
 4315TIP3    H112881   1.333   5.009   2.973
 4315TIP3    H212882   1.317   4.896   2.874
 4316TIP3   OH212883   1.332   5.791   3.060
 4316TIP3    H112884   1.306   5.876   3.019
 4316TIP3    H212885   1.253   5.775   3.115
 4317TIP3   OH212886   0.732   5.482   2.294
 4317TIP3    H112887   0.690   5.506   2.209
 4317TIP3    H212888   0.761   5.569   2.328
 4318TIP3   OH212889   2.167   5.997   2.536
 4318TIP3    H112890   2.076   5.988   2.574
 4318TIP3    H212891   2.158   6.082   2.490
 4319TIP3   OH212892   2.458   4.897   2.897
 4319TIP3    H112893   2.370   4.927   2.866
 4319TIP3    H212894   2.517   4.930   2.827
 4320TIP3   OH212895   1.756   4.541   2.880
 4320TIP3    H112896   1.741   4.446   2.896
 4320TIP3    H212897   1.678   4.579   2.926
 4321TIP3   OH212898   1.867   6.044   2.209
 4321TIP3    H112899   1.916   5.961   2.189
 4321TIP3    H212900   1.929   6.108   2.167
 4322TIP3   OH212901   2.009   5.829   2.116
 4322TIP3    H112902   1.979   5.749   2.071
 4322TIP3    H212903   2.045   5.793   2.199
 4323TIP3   OH212904   2.392   5.910   2.878
 4323TIP3    H112905   2.382   5.832   2.819
 4323TIP3    H212906   2.376   5.984   2.816
 4324TIP3   OH212907   1.685   5.304   2.135
 4324TIP3    H112908   1.605   5.355   2.112
 4324TIP3    H212909   1.731   5.300   2.049
 4325TIP3   OH212910   1.644   5.087   1.852
 4325TIP3    H112911   1.711   5.139   1.899
 4325TIP3    H212912   1.701   5.024   1.804
 4326TIP3   OH212913   2.588   5.546   2.722
 4326TIP3    H112914   2.505   5.598   2.728
 4326TIP3    H212915   2.618   5.570   2.632
 4327TIP3   OH212916   2.031   5.386   2.107
 4327TIP3    H112917   1.977   5.410   2.186
 4327TIP3    H212918   2.116   5.360   2.150
 4328TIP3   OH212919   2.267   5.425   3.019
 4328TIP3    H112920   2.264   5.509   3.069
 4328TIP3    H212921   2.181   5.429   2.973
 4329TIP3   OH212922   1.264   5.384   2.524
 4329TIP3    H112923   1.222   5.326   2.457
 4329TIP3    H212924   1.340   5.330   2.553
 4330TIP3   OH212925   1.393   5.795   2.673
 4330TIP3    H112926   1.373   5.753   2.588
 4330TIP3    H212927   1.483   5.761   2.691
 4331TIP3   OH212928   1.399   5.355   2.879
 4331TIP3    H112929   1.432   5.331   2.790
 4331TIP3    H212930   1.444   5.440   2.897
 4332TIP3   OH212931   1.924   5.993   2.654
 4332TIP3    H112932   1.913   6.072   2.710
 4332TIP3    H212933   1.911   5.919   2.717
 4333TIP3   OH212934   1.539   5.912   3.201
 4333TIP3    H112935   1.478   5.974   3.248
 4333TIP3    H212936   1.473   5.858   3.152
 4334TIP3   OH212937   1.872   5.244   1.932
 4334TIP3    H112938   1.932   5.303   1.984
 4334TIP3    H212939   1.898   5.267   1.840
 4335TIP3   OH212940   1.294   5.468   3.305
 4335TIP3    H112941   1.297   5.555   3.348
 4335TIP3    H212942   1.198   5.448   3.311
 4336TIP3   OH212943   1.614   5.924   2.211
 4336TIP3    H112944   1.695   5.977   2.225
 4336TIP3    H212945   1.555   5.987   2.168
 4337TIP3   OH212946   1.332   6.080   3.288
 4337TIP3    H112947   1.298   6.079   3.197
 4337TIP3    H212948   1.252   6.059   3.341
 4338TIP3   OH212949   2.388   4.485   1.981
 4338TIP3    H112950   2.307   4.506   2.031
 4338TIP3    H212951   2.402   4.568   1.931
 4339TIP3   OH212952   1.129   5.227   2.331
 4339TIP3    H112953   1.064   5.270   2.272
 4339TIP3    H212954   1.091   5.139   2.341
 4340TIP3   OH212955   2.188   5.851   1.530
 4340TIP3    H112956   2.198   5.948   1.514
 4340TIP3    H212957   2.280   5.820   1.518
 4341TIP3   OH212958   0.911   5.610   3.235
 4341TIP3    H112959   0.847   5.586   3.165
 4341TIP3    H212960   0.949   5.523   3.261
 4342TIP3   OH212961   0.766   5.802   2.869
 4342TIP3    H112962   0.861   5.792   2.856
 4342TIP3    H212963   0.763   5.881   2.925
 4343TIP3   OH212964   2.630   6.254   2.923
 4343TIP3    H112965   2.629   6.157   2.937
 4343TIP3    H212966   2.547   6.279   2.970
 4344TIP3   OH212967   1.736   6.041   3.059
 4344TIP3    H112968   1.735   6.133   3.091
 4344TIP3    H212969   1.664   6.001   3.113
 4345TIP3   OH212970   1.495   6.169   2.010
 4345TIP3    H112971   1.450   6.149   1.926
 4345TIP3    H212972   1.463   6.258   2.032
 4346TIP3   OH212973   0.934   6.020   2.395
 4346TIP3    H112974   0.982   6.009   2.480
 4346TIP3    H212975   0.880   5.939   2.395
 4347TIP3   OH212976   1.699   6.071   1.650
 4347TIP3    H112977   1.757   6.001   1.614
 4347TIP3    H212978   1.733   6.079   1.742
 4348TIP3   OH212979   1.748   6.119   1.921
 4348TIP3    H112980   1.660   6.127   1.963
 4348TIP3    H212981   1.799   6.076   1.991
 4349TIP3   OH212982   2.520   5.385   3.199
 4349TIP3    H112983   2.439   5.397   3.146
 4349TIP3    H212984   2.536   5.289   3.188
 4350TIP3   OH212985   1.115   5.794   3.226
 4350TIP3    H112986   1.166   5.776   3.307
 4350TIP3    H212987   1.042   5.730   3.232
 4351TIP3   OH212988   1.516   4.616   3.008
 4351TIP3    H112989   1.427   4.585   2.981
 4351TIP3    H212990   1.491   4.699   3.053
 4352TIP3   OH212991   2.050   4.732   3.203
 4352TIP3    H112992   2.118   4.704   3.266
 4352TIP3    H212993   1.966   4.711   3.249
 4353TIP3   OH212994   2.288   5.160   3.120
 4353TIP3    H112995   2.239   5.157   3.205
 4353TIP3    H212996   2.265   5.248   3.085
 4354TIP3   OH212997   1.947   5.292   1.677
 4354TIP3    H112998   1.915   5.266   1.589
 4354TIP3    H212999   2.031   5.337   1.652
 4355TIP3   OH213000   1.661   4.666   1.979
 4355TIP3    H113001   1.628   4.663   2.071
 4355TIP3    H213002   1.622   4.583   1.945
 4356TIP3   OH213003   1.448   5.132   3.027
 4356TIP3    H113004   1.397   5.153   3.108
 4356TIP3    H213005   1.432   5.213   2.973
 4357TIP3   OH213006   1.331   5.019   2.541
 4357TIP3    H113007   1.238   4.991   2.558
 4357TIP3    H213008   1.344   4.978   2.452
 4358TIP3   OH213009   1.822   5.104   2.268
 4358TIP3    H113010   1.770   5.175   2.226
 4358TIP3    H213011   1.877   5.073   2.193
 4359TIP3   OH213012   1.997   5.384   3.356
 4359TIP3    H113013   1.976   5.310   3.417
 4359TIP3    H213014   2.091   5.396   3.376
 4360TIP3   OH213015   1.979   5.133   2.507
 4360TIP3    H113016   1.919   5.162   2.436
 4360TIP3    H213017   2.013   5.051   2.465
 4361TIP3   OH213018   1.266   5.162   3.235
 4361TIP3    H113019   1.296   5.223   3.303
 4361TIP3    H213020   1.255   5.079   3.286
 4362TIP3   OH213021   1.317   4.638   1.945
 4362TIP3    H113022   1.306   4.636   2.042
 4362TIP3    H213023   1.238   4.691   1.920
 4363TIP3   OH213024   0.861   4.685   2.816
 4363TIP3    H113025   0.940   4.711   2.867
 4363TIP3    H213026   0.895   4.648   2.733
 4364TIP3   OH213027   0.838   4.661   2.332
 4364TIP3    H113028   0.884   4.700   2.255
 4364TIP3    H213029   0.775   4.733   2.353
 4365TIP3   OH213030   1.988   5.379   2.931
 4365TIP3    H113031   2.022   5.307   2.872
 4365TIP3    H213032   1.960   5.325   3.008
 4366TIP3   OH213033   1.658   4.841   2.602
 4366TIP3    H113034   1.576   4.839   2.654
 4366TIP3    H213035   1.726   4.839   2.671
 4367TIP3   OH213036   1.092   4.896   2.610
 4367TIP3    H113037   0.997   4.904   2.584
 4367TIP3    H213038   1.113   4.804   2.588
 4368TIP3   OH213039   1.363   4.893   2.299
 4368TIP3    H113040   1.457   4.908   2.276
 4368TIP3    H213041   1.315   4.915   2.215
 4369TIP3   OH213042   2.150   4.917   2.805
 4369TIP3    H113043   2.115   4.929   2.896
 4369TIP3    H213044   2.085   4.855   2.767
 4370TIP3   OH213045   1.204   4.927   2.079
 4370TIP3    H113046   1.131   4.882   2.033
 4370TIP3    H213047   1.255   4.961   2.002
 4371TIP3   OH213048   2.320   6.605   3.023
 4371TIP3    H113049   2.319   6.629   2.928
 4371TIP3    H213050   2.400   6.653   3.054
 4372TIP3   OH213051   1.277   5.716   3.445
 4372TIP3    H113052   1.358   5.746   3.491
 4372TIP3    H213053   1.213   5.714   3.519
 4373TIP3   OH213054   1.742   5.168   2.699
 4373TIP3    H113055   1.815   5.130   2.648
 4373TIP3    H213056   1.752   5.125   2.786
 4374TIP3   OH213057   1.268   4.656   2.579
 4374TIP3    H113058   1.230   4.577   2.624
 4374TIP3    H213059   1.314   4.615   2.504
 4375TIP3   OH213060   1.719   5.064   2.990
 4375TIP3    H113061   1.629   5.101   3.004
 4375TIP3    H213062   1.776   5.125   3.040
 4376TIP3   OH213063   1.454   5.457   2.084
 4376TIP3    H113064   1.383   5.390   2.073
 4376TIP3    H213065   1.436   5.490   2.175
 4377TIP3   OH213066   2.355   5.692   2.714
 4377TIP3    H113067   2.380   5.742   2.633
 4377TIP3    H213068   2.271   5.650   2.688
 4378TIP3   OH213069   1.914   4.768   1.946
 4378TIP3    H113070   1.817   4.752   1.954
 4378TIP3    H213071   1.923   4.863   1.970
 4379TIP3   OH213072   1.854   5.774   3.081
 4379TIP3    H113073   1.879   5.752   3.171
 4379TIP3    H213074   1.817   5.863   3.089
 4380TIP3   OH213075   1.983   5.016   2.050
 4380TIP3    H113076   2.079   5.021   2.065
 4380TIP3    H213077   1.965   5.095   1.996
 4381TIP3   OH213078   1.147   5.480   2.760
 4381TIP3    H113079   1.185   5.451   2.674
 4381TIP3    H213080   1.187   5.415   2.821
 4382TIP3   OH213081   1.600   5.605   1.905
 4382TIP3    H113082   1.552   5.692   1.911
 4382TIP3    H213083   1.546   5.550   1.965
 4383TIP3   OH213084   1.026   5.400   3.374
 4383TIP3    H113085   1.047   5.383   3.468
 4383TIP3    H213086   0.959   5.332   3.356
 4384TIP3   OH213087   1.753   5.512   3.394
 4384TIP3    H113088   1.695   5.454   3.343
 4384TIP3    H213089   1.841   5.478   3.366
 4385TIP3   OH213090   2.015   6.035   2.976
 4385TIP3    H113091   1.918   6.033   2.989
 4385TIP3    H213092   2.043   6.086   3.055
 4386TIP3   OH213093   2.425   5.107   1.887
 4386TIP3    H113094   2.363   5.062   1.825
 4386TIP3    H213095   2.422   5.195   1.845
 4387TIP3   OH213096   2.643   5.964   2.967
 4387TIP3    H113097   2.545   5.958   2.958
 4387TIP3    H213098   2.669   5.933   2.877
 4388TIP3   OH213099   2.124   5.925   1.794
 4388TIP3    H113100   2.101   5.852   1.853
 4388TIP3    H213101   2.138   5.880   1.709
 4389TIP3   OH213102   2.121   5.554   2.633
 4389TIP3    H113103   2.028   5.529   2.645
 4389TIP3    H213104   2.155   5.475   2.588
 4390TIP3   OH213105   1.248   5.783   2.387
 4390TIP3    H113106   1.249   5.863   2.331
 4390TIP3    H213107   1.154   5.763   2.392
 4391TIP3   OH213108   0.813   5.086   2.089
 4391TIP3    H113109   0.858   5.170   2.109
 4391TIP3    H213110   0.735   5.091   2.149
 4392TIP3   OH213111   1.387   5.548   2.329
 4392TIP3    H113112   1.353   5.637   2.349
 4392TIP3    H213113   1.351   5.496   2.404
 4393TIP3   OH213114   1.517   6.126   2.854
 4393TIP3    H113115   1.559   6.198   2.804
 4393TIP3    H213116   1.593   6.090   2.903
 4394TIP3   OH213117   1.167   6.022   2.237
 4394TIP3    H113118   1.082   6.030   2.284
 4394TIP3    H213119   1.198   6.115   2.240
 4395TIP3   OH213120   1.906   5.760   2.812
 4395TIP3    H113121   1.897   5.757   2.910
 4395TIP3    H213122   1.986   5.706   2.799
 4396TIP3   OH213123   1.879   5.655   1.697
 4396TIP3    H113124   1.933   5.629   1.775
 4396TIP3    H213125   1.792   5.624   1.725
 4397TIP3   OH213126   2.154   6.294   2.864
 4397TIP3    H113127   2.075   6.237   2.856
 4397TIP3    H213128   2.139   6.358   2.791
 4398TIP3   OH213129   2.220   6.128   1.515
 4398TIP3    H113130   2.260   6.201   1.465
 4398TIP3    H213131   2.140   6.173   1.547
 4399TIP3   OH213132   1.239   4.906   3.382
 4399TIP3    H113133   1.141   4.908   3.392
 4399TIP3    H213134   1.265   4.843   3.451
 4400TIP3   OH213135   2.040   5.589   1.915
 4400TIP3    H113136   2.030   5.521   1.984
 4400TIP3    H213137   2.137   5.585   1.900
 4401TIP3   OH213138   0.954   5.988   3.015
 4401TIP3    H113139   1.007   5.912   3.041
 4401TIP3    H213140   0.988   6.056   3.075
 4402TIP3   OH213141   1.245   5.635   1.696
 4402TIP3    H113142   1.260   5.544   1.664
 4402TIP3    H213143   1.228   5.619   1.791
 4403TIP3   OH213144   1.192   5.638   1.969
 4403TIP3    H113145   1.265   5.609   2.025
 4403TIP3    H213146   1.197   5.735   1.975
 4404TIP3   OH213147   0.929   5.332   2.170
 4404TIP3    H113148   0.863   5.376   2.227
 4404TIP3    H213149   0.942   5.401   2.102
 4405TIP3   OH213150   2.074   4.970   3.064
 4405TIP3    H113151   2.157   5.007   3.100
 4405TIP3    H213152   2.062   4.888   3.117
 4406TIP3   OH213153   1.957   4.719   2.227
 4406TIP3    H113154   1.943   4.743   2.133
 4406TIP3    H213155   1.995   4.802   2.263
 4407TIP3   OH213156   1.458   5.836   1.917
 4407TIP3    H113157   1.371   5.863   1.952
 4407TIP3    H213158   1.473   5.904   1.851
 4408TIP3   OH213159   1.646   4.899   2.329
 4408TIP3    H113160   1.711   4.971   2.312
 4408TIP3    H213161   1.651   4.892   2.427
 4409TIP3   OH213162   1.915   5.218   3.138
 4409TIP3    H113163   1.937   5.271   3.217
 4409TIP3    H213164   1.970   5.139   3.149
 4410TIP3   OH213165   1.791   4.626   2.432
 4410TIP3    H113166   1.784   4.703   2.492
 4410TIP3    H213167   1.851   4.662   2.363
 4411TIP3   OH213168   1.202   5.911   1.985
 4411TIP3    H113169   1.172   5.980   1.922
 4411TIP3    H213170   1.185   5.954   2.071
 4412TIP3   OH213171   1.302   4.624   2.222
 4412TIP3    H113172   1.299   4.715   2.259
 4412TIP3    H213173   1.398   4.607   2.230
 4413TIP3   OH213174   2.555   5.119   3.119
 4413TIP3    H113175   2.457   5.116   3.125
 4413TIP3    H213176   2.568   5.077   3.032
 4414TIP3   OH213177   2.206   5.314   2.507
 4414TIP3    H113178   2.131   5.252   2.518
 4414TIP3    H213179   2.279   5.266   2.554
 4415TIP3   OH213180   0.917   5.543   1.975
 4415TIP3    H113181   0.985   5.612   1.984
 4415TIP3    H213182   0.963   5.485   1.910
 4416TIP3   OH213183   0.867   4.816   2.105
 4416TIP3    H113184   0.863   4.914   2.105
 4416TIP3    H213185   0.779   4.792   2.077
 4417TIP3   OH213186   2.174   6.269   2.456
 4417TIP3    H113187   2.132   6.316   2.381
 4417TIP3    H213188   2.269   6.287   2.436
 4418TIP3   OH213189   1.252   4.537   2.983
 4418TIP3    H113190   1.220   4.504   2.896
 4418TIP3    H213191   1.240   4.458   3.040
 4419TIP3   OH213192   0.793   5.759   2.365
 4419TIP3    H113193   0.718   5.790   2.416
 4419TIP3    H213194   0.771   5.796   2.277
 4420TIP3   OH213195   0.948   6.297   3.436
 4420TIP3    H113196   1.035   6.297   3.483
 4420TIP3    H213197   0.928   6.202   3.434
 4421TIP3   OH213198   1.426   6.262   3.480
 4421TIP3    H113199   1.521   6.245   3.488
 4421TIP3    H213200   1.403   6.203   3.406
 4422TIP3   OH213201   1.411   5.837   1.610
 4422TIP3    H113202   1.354   5.765   1.646
 4422TIP3    H213203   1.486   5.784   1.576
 4423TIP3   OH213204   2.066   6.168   3.214
 4423TIP3    H113205   2.058   6.098   3.282
 4423TIP3    H213206   2.145   6.217   3.244
 4424TIP3   OH213207   1.846   5.879   1.520
 4424TIP3    H113208   1.890   5.814   1.579
 4424TIP3    H213209   1.903   5.876   1.440
 4425TIP3   OH213210   1.076   5.702   3.637
 4425TIP3    H113211   1.094   5.606   3.639
 4425TIP3    H213212   0.990   5.705   3.591
 4426TIP3   OH213213   1.054   5.357   1.830
 4426TIP3    H113214   1.109   5.320   1.901
 4426TIP3    H213215   1.120   5.359   1.757
 4427TIP3   OH213216   1.683   5.787   3.410
 4427TIP3    H113217   1.644   5.804   3.322
 4427TIP3    H213218   1.715   5.694   3.402
 4428TIP3   OH213219   1.563   5.553   1.636
 4428TIP3    H113220   1.566   5.564   1.733
 4428TIP3    H213221   1.563   5.455   1.629
 4429TIP3   OH213222   2.177   5.796   3.016
 4429TIP3    H113223   2.253   5.840   2.971
 4429TIP3    H213224   2.107   5.862   3.000
 4430TIP3   OH213225   1.196   5.438   3.617
 4430TIP3    H113226   1.271   5.383   3.592
 4430TIP3    H213227   1.224   5.470   3.706
 4431TIP3   OH213228   1.264   5.257   2.052
 4431TIP3    H113229   1.236   5.213   2.134
 4431TIP3    H213230   1.299   5.182   2.000
 4432TIP3   OH213231   1.531   5.322   3.279
 4432TIP3    H113232   1.453   5.382   3.280
 4432TIP3    H213233   1.582   5.355   3.202
 4433TIP3   OH213234   1.363   5.051   1.891
 4433TIP3    H113235   1.336   5.055   1.797
 4433TIP3    H213236   1.460   5.055   1.883
 4434TIP3   OH213237   2.048   5.724   3.413
 4434TIP3    H113238   2.128   5.700   3.365
 4434TIP3    H213239   2.046   5.656   3.483
 4435TIP3   OH213240   2.181   5.381   1.557
 4435TIP3    H113241   2.167   5.336   1.472
 4435TIP3    H213242   2.152   5.472   1.531
 4436TIP3   OH213243   1.653   5.110   3.407
 4436TIP3    H113244   1.655   5.030   3.350
 4436TIP3    H213245   1.610   5.175   3.347
 4437TIP3   OH213246   1.657   4.897   3.214
 4437TIP3    H113247   1.685   4.937   3.129
 4437TIP3    H213248   1.564   4.874   3.194
 4438TIP3   OH213249   1.684   5.432   3.087
 4438TIP3    H113250   1.768   5.439   3.039
 4438TIP3    H213251   1.629   5.499   3.041
 4439TIP3   OH213252   2.267   5.399   3.468
 4439TIP3    H113253   2.314   5.315   3.477
 4439TIP3    H213254   2.336   5.457   3.432
 4440TIP3   OH213255   2.307   5.653   3.204
 4440TIP3    H113256   2.250   5.706   3.144
 4440TIP3    H213257   2.395   5.672   3.164
 4441TIP3   OH213258   1.531   5.223   3.637
 4441TIP3    H113259   1.464   5.152   3.649
 4441TIP3    H213260   1.567   5.200   3.549
 4442TIP3   OH213261   1.789   4.660   3.279
 4442TIP3    H113262   1.740   4.742   3.256
 4442TIP3    H213263   1.720   4.591   3.267
 4443TIP3   OH213264   1.915   5.165   3.496
 4443TIP3    H113265   1.905   5.152   3.592
 4443TIP3    H213266   1.825   5.140   3.466
 4444TIP3   OH213267   2.155   5.115   3.351
 4444TIP3    H113268   2.080   5.115   3.413
 4444TIP3    H213269   2.229   5.084   3.407
 4445TIP3   OH213270   2.380   5.053   3.501
 4445TIP3    H113271   2.395   4.958   3.519
 4445TIP3    H213272   2.379   5.092   3.591
 4446TIP3   OH213273   1.372   5.002   3.689
 4446TIP3    H113274   1.377   4.912   3.652
 4446TIP3    H213275   1.409   4.987   3.778
 4447TIP3   OH213276   1.883   4.670   3.537
 4447TIP3    H113277   1.951   4.599   3.531
 4447TIP3    H213278   1.844   4.664   3.447
 4448TIP3   OH213279   1.950   4.885   3.695
 4448TIP3    H113280   1.929   4.813   3.631
 4448TIP3    H213281   1.871   4.943   3.688
 4449TIP3   OH213282   1.170   6.116   1.800
 4449TIP3    H113283   1.265   6.112   1.776
 4449TIP3    H213284   1.134   6.158   1.721
 4450TIP3   OH213285   0.649   5.495   2.016
 4450TIP3    H113286   0.744   5.516   1.999
 4450TIP3    H213287   0.643   5.406   1.974
 4451TIP3   OH213288   0.558   6.110   2.426
 4451TIP3    H113289   0.496   6.044   2.389
 4451TIP3    H213290   0.607   6.054   2.491
 4452TIP3   OH213291   0.698   5.963   2.613
 4452TIP3    H113292   0.690   5.886   2.671
 4452TIP3    H213293   0.752   6.022   2.669
 4453TIP3   OH213294   2.426   6.363   2.412
 4453TIP3    H113295   2.455   6.393   2.500
 4453TIP3    H213296   2.492   6.402   2.353
 4454TIP3   OH213297   2.457   6.380   2.695
 4454TIP3    H113298   2.413   6.292   2.690
 4454TIP3    H213299   2.533   6.357   2.751
 4455TIP3   OH213300   2.503   6.056   3.267
 4455TIP3    H113301   2.430   6.065   3.332
 4455TIP3    H213302   2.544   6.145   3.272
 4456TIP3   OH213303   2.318   5.570   1.888
 4456TIP3    H113304   2.386   5.632   1.857
 4456TIP3    H213305   2.363   5.531   1.966
 4457TIP3   OH213306   2.447   5.437   2.091
 4457TIP3    H113307   2.382   5.395   2.151
 4457TIP3    H213308   2.512   5.474   2.154
 4458TIP3   OH213309   2.500   5.828   2.523
 4458TIP3    H113310   2.554   5.762   2.474
 4458TIP3    H213311   2.495   5.902   2.459
 4459TIP3   OH213312   2.333   6.130   2.718
 4459TIP3    H113313   2.262   6.170   2.770
 4459TIP3    H213314   2.284   6.081   2.649
 4460TIP3   OH213315   2.384   5.344   1.738
 4460TIP3    H113316   2.314   5.347   1.669
 4460TIP3    H213317   2.357   5.421   1.792
 4461TIP3   OH213318   2.255   5.018   1.695
 4461TIP3    H113319   2.217   5.057   1.616
 4461TIP3    H213320   2.230   4.923   1.683
 4462TIP3   OH213321   2.261   5.293   2.238
 4462TIP3    H113322   2.270   5.197   2.231
 4462TIP3    H213323   2.247   5.307   2.334
 4463TIP3   OH213324   0.887   5.369   2.984
 4463TIP3    H113325   0.886   5.336   2.891
 4463TIP3    H213326   0.984   5.370   3.001
 4464TIP3   OH213327   2.550   5.718   3.094
 4464TIP3    H113328   2.623   5.651   3.086
 4464TIP3    H213329   2.578   5.787   3.032
 4465TIP3   OH213330   2.735   5.524   3.113
 4465TIP3    H113331   2.661   5.472   3.151
 4465TIP3    H213332   2.809   5.460   3.126
 4466TIP3   OH213333   2.200   4.751   1.678
 4466TIP3    H113334   2.276   4.721   1.732
 4466TIP3    H213335   2.129   4.691   1.704
 4467TIP3   OH213336   2.257   5.009   2.133
 4467TIP3    H113337   2.298   4.920   2.148
 4467TIP3    H213338   2.316   5.042   2.062
 4468TIP3   OH213339   2.419   5.184   2.627
 4468TIP3    H113340   2.505   5.210   2.587
 4468TIP3    H213341   2.433   5.220   2.717
 4469TIP3   OH213342   2.488   5.327   2.860
 4469TIP3    H113343   2.410   5.361   2.907
 4469TIP3    H213344   2.521   5.407   2.814
 4470TIP3   OH213345   1.106   5.056   3.666
 4470TIP3    H113346   1.203   5.047   3.662
 4470TIP3    H213347   1.081   4.968   3.702
 4471TIP3   OH213348   2.936   4.915   3.415
 4471TIP3    H113349   2.998   4.851   3.374
 4471TIP3    H213350   2.912   4.972   3.339
 4472TIP3   OH213351   2.366   4.759   2.171
 4472TIP3    H113352   2.415   4.743   2.254
 4472TIP3    H213353   2.306   4.682   2.170
 4473TIP3   OH213354   1.069   4.745   2.992
 4473TIP3    H113355   1.130   4.670   3.000
 4473TIP3    H213356   1.131   4.819   2.984
 4474TIP3   OH213357   0.872   5.021   3.065
 4474TIP3    H113358   0.917   5.007   2.980
 4474TIP3    H213359   0.907   5.107   3.091
 4475TIP3   OH213360   2.811   5.059   3.220
 4475TIP3    H113361   2.724   5.098   3.240
 4475TIP3    H213362   2.783   4.985   3.162
 4476TIP3   OH213363   2.448   4.694   1.803
 4476TIP3    H113364   2.489   4.622   1.751
 4476TIP3    H213365   2.515   4.764   1.797
 4477TIP3   OH213366   0.856   4.525   2.568
 4477TIP3    H113367   0.762   4.512   2.596
 4477TIP3    H213368   0.845   4.582   2.489
 4478TIP3   OH213369   2.011   6.228   2.069
 4478TIP3    H113370   2.061   6.211   1.987
 4478TIP3    H213371   2.069   6.290   2.115
 4479TIP3   OH213372   1.074   4.604   3.380
 4479TIP3    H113373   1.021   4.597   3.461
 4479TIP3    H213374   1.008   4.641   3.318
 4480TIP3   OH213375   1.112   6.033   3.455
 4480TIP3    H113376   1.021   6.002   3.437
 4480TIP3    H213377   1.123   6.010   3.548
 4481TIP3   OH213378   1.289   6.063   3.003
 4481TIP3    H113379   1.244   6.139   2.962
 4481TIP3    H213380   1.376   6.074   2.959
 4482TIP3   OH213381   1.736   6.308   3.141
 4482TIP3    H113382   1.778   6.308   3.229
 4482TIP3    H213383   1.802   6.358   3.089
 4483TIP3   OH213384   1.915   6.459   2.999
 4483TIP3    H113385   1.986   6.407   2.957
 4483TIP3    H213386   1.967   6.515   3.060
 4484TIP3   OH213387   2.709   4.820   3.100
 4484TIP3    H113388   2.619   4.813   3.066
 4484TIP3    H213389   2.742   4.728   3.088
 4485TIP3   OH213390   0.967   6.320   3.024
 4485TIP3    H113391   0.878   6.356   3.003
 4485TIP3    H213392   0.978   6.354   3.114
 4486TIP3   OH213393   1.204   6.298   2.884
 4486TIP3    H113394   1.117   6.311   2.928
 4486TIP3    H213395   1.185   6.330   2.793
 4487TIP3   OH213396   1.629   6.327   2.682
 4487TIP3    H113397   1.561   6.347   2.616
 4487TIP3    H213398   1.642   6.414   2.725
 4488TIP3   OH213399   1.898   6.266   2.734
 4488TIP3    H113400   1.804   6.283   2.713
 4488TIP3    H213401   1.942   6.342   2.691
 4489TIP3   OH213402   2.105   6.458   2.649
 4489TIP3    H113403   2.091   6.542   2.600
 4489TIP3    H213404   2.132   6.398   2.576
 4490TIP3   OH213405   0.877   6.112   2.773
 4490TIP3    H113406   0.906   6.087   2.863
 4490TIP3    H213407   0.949   6.069   2.721
 4491TIP3   OH213408   1.071   5.985   2.629
 4491TIP3    H113409   1.088   5.900   2.677
 4491TIP3    H213410   1.163   6.020   2.623
 4492TIP3   OH213411   1.338   6.080   2.631
 4492TIP3    H113412   1.370   5.989   2.616
 4492TIP3    H213413   1.384   6.099   2.715
 4493TIP3   OH213414   1.913   4.735   2.717
 4493TIP3    H113415   1.871   4.665   2.770
 4493TIP3    H213416   1.987   4.688   2.675
 4494TIP3   OH213417   2.437   4.615   2.624
 4494TIP3    H113418   2.475   4.667   2.549
 4494TIP3    H213419   2.342   4.634   2.616
 4495TIP3   OH213420   2.532   4.716   2.388
 4495TIP3    H113421   2.605   4.664   2.348
 4495TIP3    H213422   2.566   4.807   2.373
 4496TIP3   OH213423   1.163   4.445   2.735
 4496TIP3    H113424   1.071   4.413   2.735
 4496TIP3    H213425   1.211   4.360   2.730
 4497TIP3   OH213426   0.950   4.315   2.383
 4497TIP3    H113427   0.977   4.374   2.310
 4497TIP3    H213428   0.920   4.379   2.451
 4498TIP3   OH213429   1.608   4.475   2.615
 4498TIP3    H113430   1.665   4.526   2.556
 4498TIP3    H213431   1.626   4.515   2.700
 4499TIP3   OH213432   2.153   4.624   2.599
 4499TIP3    H113433   2.153   4.586   2.510
 4499TIP3    H213434   2.140   4.543   2.654
 4500TIP3   OH213435   2.183   4.545   2.161
 4500TIP3    H113436   2.096   4.588   2.173
 4500TIP3    H213437   2.168   4.460   2.208
 4501TIP3   OH213438   0.663   5.885   2.167
 4501TIP3    H113439   0.579   5.854   2.128
 4501TIP3    H213440   0.659   5.978   2.136
 4502TIP3   OH213441   1.066   4.474   2.144
 4502TIP3    H113442   1.115   4.412   2.088
 4502TIP3    H213443   1.138   4.528   2.182
 4503TIP3   OH213444   1.580   4.648   2.245
 4503TIP3    H113445   1.640   4.602   2.306
 4503TIP3    H213446   1.601   4.741   2.270
 4504TIP3   OH213447   1.438   6.076   1.741
 4504TIP3    H113448   1.528   6.095   1.707
 4504TIP3    H213449   1.416   5.999   1.683
 4505TIP3   OH213450   2.156   6.191   1.837
 4505TIP3    H113451   2.149   6.093   1.826
 4505TIP3    H213452   2.113   6.222   1.755
 4506TIP3   OH213453   1.370   4.727   3.628
 4506TIP3    H113454   1.337   4.654   3.683
 4506TIP3    H213455   1.465   4.726   3.654
 4507TIP3   OH213456   1.620   4.723   3.746
 4507TIP3    H113457   1.705   4.699   3.705
 4507TIP3    H213458   1.609   4.652   3.812
 4508TIP3   OH213459   0.740   5.880   1.824
 4508TIP3    H113460   0.740   5.930   1.907
 4508TIP3    H213461   0.831   5.844   1.818
 4509TIP3   OH213462   2.445   4.784   3.533
 4509TIP3    H113463   2.464   4.752   3.624
 4509TIP3    H213464   2.534   4.779   3.491
 4510TIP3   OH213465   2.384   6.336   3.025
 4510TIP3    H113466   2.305   6.305   2.976
 4510TIP3    H213467   2.364   6.432   3.029
 4511TIP3   OH213468   3.651   5.708   1.791
 4511TIP3    H113469   3.622   5.800   1.771
 4511TIP3    H213470   3.574   5.658   1.758
 4512TIP3   OH213471   3.648   5.709   2.172
 4512TIP3    H113472   3.680   5.679   2.259
 4512TIP3    H213473   3.608   5.627   2.137
 4513TIP3   OH213474   2.948   5.604   2.539
 4513TIP3    H113475   2.979   5.536   2.601
 4513TIP3    H213476   3.028   5.657   2.528
 4514TIP3   OH213477   3.892   6.011   1.853
 4514TIP3    H113478   3.878   5.940   1.917
 4514TIP3    H213479   3.921   6.084   1.910
 4515TIP3   OH213480   2.919   6.013   2.263
 4515TIP3    H113481   2.911   5.915   2.264
 4515TIP3    H213482   3.016   6.022   2.257
 4516TIP3   OH213483   2.626   5.216   2.048
 4516TIP3    H113484   2.577   5.299   2.061
 4516TIP3    H213485   2.556   5.162   2.007
 4517TIP3   OH213486   2.686   5.504   2.219
 4517TIP3    H113487   2.734   5.426   2.255
 4517TIP3    H213488   2.744   5.531   2.147
 4518TIP3   OH213489   3.542   6.473   1.870
 4518TIP3    H113490   3.588   6.402   1.820
 4518TIP3    H213491   3.535   6.434   1.958
 4519TIP3   OH213492   3.448   5.934   2.221
 4519TIP3    H113493   3.486   5.857   2.176
 4519TIP3    H213494   3.532   5.979   2.244
 4520TIP3   OH213495   4.460   5.255   2.218
 4520TIP3    H113496   4.490   5.337   2.261
 4520TIP3    H213497   4.483   5.273   2.125
 4521TIP3   OH213498   3.860   5.437   2.253
 4521TIP3    H113499   3.902   5.351   2.274
 4521TIP3    H213500   3.829   5.420   2.162
 4522TIP3   OH213501   3.197   5.095   2.218
 4522TIP3    H113502   3.178   5.167   2.155
 4522TIP3    H213503   3.150   5.021   2.174
 4523TIP3   OH213504   3.891   5.187   1.840
 4523TIP3    H113505   3.963   5.170   1.906
 4523TIP3    H213506   3.945   5.221   1.766
 4524TIP3   OH213507   2.831   5.297   2.325
 4524TIP3    H113508   2.914   5.277   2.372
 4524TIP3    H213509   2.845   5.241   2.245
 4525TIP3   OH213510   3.272   5.495   2.119
 4525TIP3    H113511   3.366   5.469   2.131
 4525TIP3    H213512   3.233   5.411   2.086
 4526TIP3   OH213513   4.535   5.462   2.387
 4526TIP3    H113514   4.450   5.508   2.369
 4526TIP3    H213515   4.549   5.485   2.480
 4527TIP3   OH213516   3.195   5.078   2.652
 4527TIP3    H113517   3.134   5.115   2.585
 4527TIP3    H213518   3.143   5.096   2.733
 4528TIP3   OH213519   3.543   5.931   1.660
 4528TIP3    H113520   3.498   5.908   1.578
 4528TIP3    H213521   3.498   6.014   1.684
 4529TIP3   OH213522   3.302   5.854   2.447
 4529TIP3    H113523   3.239   5.919   2.485
 4529TIP3    H213524   3.343   5.905   2.375
 4530TIP3   OH213525   4.102   5.189   2.011
 4530TIP3    H113526   4.096   5.136   2.092
 4530TIP3    H213527   4.156   5.264   2.039
 4531TIP3   OH213528   3.065   5.193   2.437
 4531TIP3    H113529   3.128   5.265   2.460
 4531TIP3    H213530   3.113   5.152   2.362
 4532TIP3   OH213531   3.128   6.047   2.546
 4532TIP3    H113532   3.102   6.133   2.507
 4532TIP3    H213533   3.050   6.031   2.602
 4533TIP3   OH213534   2.522   5.736   1.781
 4533TIP3    H113535   2.485   5.759   1.694
 4533TIP3    H213536   2.554   5.822   1.814
 4534TIP3   OH213537   3.963   6.253   2.022
 4534TIP3    H113538   3.874   6.244   2.061
 4534TIP3    H213539   3.954   6.339   1.976
 4535TIP3   OH213540   4.254   5.155   2.384
 4535TIP3    H113541   4.166   5.183   2.353
 4535TIP3    H213542   4.313   5.187   2.313
 4536TIP3   OH213543   3.550   4.798   2.364
 4536TIP3    H113544   3.539   4.703   2.383
 4536TIP3    H213545   3.473   4.834   2.412
 4537TIP3   OH213546   3.665   6.300   1.696
 4537TIP3    H113547   3.714   6.217   1.676
 4537TIP3    H213548   3.726   6.365   1.654
 4538TIP3   OH213549   3.808   6.085   1.601
 4538TIP3    H113550   3.768   6.006   1.563
 4538TIP3    H213551   3.844   6.050   1.686
 4539TIP3   OH213552   4.189   6.167   2.364
 4539TIP3    H113553   4.178   6.089   2.306
 4539TIP3    H213554   4.172   6.241   2.302
 4540TIP3   OH213555   3.481   5.560   1.622
 4540TIP3    H113556   3.400   5.611   1.600
 4540TIP3    H213557   3.526   5.557   1.536
 4541TIP3   OH213558   3.439   5.345   1.337
 4541TIP3    H113559   3.506   5.395   1.387
 4541TIP3    H213560   3.496   5.280   1.291
 4542TIP3   OH213561   4.384   5.804   2.209
 4542TIP3    H113562   4.301   5.855   2.215
 4542TIP3    H213563   4.413   5.827   2.118
 4543TIP3   OH213564   3.828   5.643   1.594
 4543TIP3    H113565   3.773   5.666   1.672
 4543TIP3    H213566   3.912   5.616   1.638
 4544TIP3   OH213567   4.063   5.682   2.505
 4544TIP3    H113568   4.060   5.765   2.556
 4544TIP3    H213569   3.977   5.686   2.460
 4545TIP3   OH213570   3.061   5.641   2.011
 4545TIP3    H113571   3.018   5.583   1.944
 4545TIP3    H213572   3.137   5.587   2.040
 4546TIP3   OH213573   3.190   6.052   2.159
 4546TIP3    H113574   3.169   6.010   2.075
 4546TIP3    H213575   3.280   6.017   2.177
 4547TIP3   OH213576   3.196   5.611   2.365
 4547TIP3    H113577   3.229   5.588   2.276
 4547TIP3    H213578   3.240   5.697   2.384
 4548TIP3   OH213579   3.721   6.249   2.141
 4548TIP3    H113580   3.709   6.328   2.197
 4548TIP3    H213581   3.707   6.175   2.204
 4549TIP3   OH213582   3.335   6.169   2.688
 4549TIP3    H113583   3.275   6.231   2.734
 4549TIP3    H213584   3.269   6.115   2.639
 4550TIP3   OH213585   3.669   5.501   1.420
 4550TIP3    H113586   3.728   5.560   1.471
 4550TIP3    H213587   3.695   5.524   1.327
 4551TIP3   OH213588   3.089   5.725   2.790
 4551TIP3    H113589   3.093   5.812   2.835
 4551TIP3    H213590   2.994   5.705   2.798
 4552TIP3   OH213591   3.411   6.180   1.696
 4552TIP3    H113592   3.491   6.234   1.712
 4552TIP3    H213593   3.351   6.243   1.655
 4553TIP3   OH213594   3.128   6.337   2.776
 4553TIP3    H113595   3.093   6.335   2.684
 4553TIP3    H213596   3.049   6.315   2.829
 4554TIP3   OH213597   4.184   4.745   1.471
 4554TIP3    H113598   4.101   4.764   1.520
 4554TIP3    H213599   4.195   4.828   1.420
 4555TIP3   OH213600   2.926   5.483   1.818
 4555TIP3    H113601   2.861   5.528   1.760
 4555TIP3    H213602   2.887   5.396   1.826
 4556TIP3   OH213603   3.983   6.108   1.015
 4556TIP3    H113604   3.991   6.205   1.002
 4556TIP3    H213605   4.076   6.079   1.003
 4557TIP3   OH213606   2.707   5.867   2.722
 4557TIP3    H113607   2.643   5.843   2.653
 4557TIP3    H213608   2.745   5.780   2.747
 4558TIP3   OH213609   2.562   6.060   2.355
 4558TIP3    H113610   2.658   6.050   2.345
 4558TIP3    H213611   2.556   6.138   2.411
 4559TIP3   OH213612   4.425   6.510   2.408
 4559TIP3    H113613   4.425   6.414   2.423
 4559TIP3    H213614   4.342   6.535   2.456
 4560TIP3   OH213615   3.532   6.297   2.545
 4560TIP3    H113616   3.531   6.390   2.578
 4560TIP3    H213617   3.460   6.257   2.600
 4561TIP3   OH213618   3.293   6.427   1.497
 4561TIP3    H113619   3.246   6.407   1.414
 4561TIP3    H213620   3.260   6.516   1.520
 4562TIP3   OH213621   2.730   6.276   1.882
 4562TIP3    H113622   2.778   6.266   1.967
 4562TIP3    H213623   2.678   6.194   1.882
 4563TIP3   OH213624   3.494   6.327   1.137
 4563TIP3    H113625   3.553   6.257   1.101
 4563TIP3    H213626   3.528   6.336   1.229
 4564TIP3   OH213627   3.544   6.375   1.407
 4564TIP3    H113628   3.456   6.385   1.449
 4564TIP3    H213629   3.595   6.333   1.479
 4565TIP3   OH213630   4.316   5.643   2.684
 4565TIP3    H113631   4.235   5.653   2.633
 4565TIP3    H213632   4.333   5.546   2.675
 4566TIP3   OH213633   2.912   6.050   2.712
 4566TIP3    H113634   2.963   6.033   2.794
 4566TIP3    H213635   2.838   5.986   2.719
 4567TIP3   OH213636   3.312   4.873   2.495
 4567TIP3    H113637   3.222   4.842   2.468
 4567TIP3    H213638   3.287   4.955   2.541
 4568TIP3   OH213639   3.846   4.989   2.689
 4568TIP3    H113640   3.915   4.960   2.753
 4568TIP3    H213641   3.763   4.968   2.736
 4569TIP3   OH213642   4.085   5.417   2.607
 4569TIP3    H113643   4.035   5.414   2.693
 4569TIP3    H213644   4.060   5.505   2.572
 4570TIP3   OH213645   3.744   5.549   1.164
 4570TIP3    H113646   3.712   5.521   1.076
 4570TIP3    H213647   3.826   5.596   1.139
 4571TIP3   OH213648   3.457   4.923   1.466
 4571TIP3    H113649   3.424   4.919   1.558
 4571TIP3    H213650   3.420   4.840   1.432
 4572TIP3   OH213651   3.243   5.389   2.514
 4572TIP3    H113652   3.193   5.410   2.595
 4572TIP3    H213653   3.228   5.470   2.460
 4573TIP3   OH213654   3.127   5.275   2.028
 4573TIP3    H113655   3.035   5.249   2.045
 4573TIP3    H213656   3.141   5.235   1.939
 4574TIP3   OH213657   3.619   5.361   1.755
 4574TIP3    H113658   3.566   5.432   1.713
 4574TIP3    H213659   3.673   5.329   1.681
 4575TIP3   OH213660   3.793   5.640   2.843
 4575TIP3    H113661   3.771   5.567   2.904
 4575TIP3    H213662   3.888   5.653   2.863
 4576TIP3   OH213663   3.775   5.390   1.994
 4576TIP3    H113664   3.715   5.418   1.922
 4576TIP3    H213665   3.809   5.308   1.952
 4577TIP3   OH213666   3.062   5.418   2.723
 4577TIP3    H113667   3.093   5.480   2.790
 4577TIP3    H213668   3.052   5.335   2.773
 4578TIP3   OH213669   3.112   4.895   1.432
 4578TIP3    H113670   3.104   4.892   1.529
 4578TIP3    H213671   3.034   4.948   1.408
 4579TIP3   OH213672   2.656   4.940   2.304
 4579TIP3    H113673   2.732   4.972   2.357
 4579TIP3    H213674   2.697   4.908   2.222
 4580TIP3   OH213675   2.629   4.921   1.823
 4580TIP3    H113676   2.674   4.959   1.744
 4580TIP3    H213677   2.568   4.995   1.843
 4581TIP3   OH213678   3.785   5.636   2.418
 4581TIP3    H113679   3.819   5.564   2.359
 4581TIP3    H213680   3.757   5.582   2.495
 4582TIP3   OH213681   3.454   5.101   2.089
 4582TIP3    H113682   3.373   5.096   2.143
 4582TIP3    H213683   3.524   5.094   2.157
 4583TIP3   OH213684   2.889   5.153   2.098
 4583TIP3    H113685   2.794   5.159   2.070
 4583TIP3    H213686   2.913   5.061   2.073
 4584TIP3   OH213687   3.159   5.149   1.786
 4584TIP3    H113688   3.253   5.164   1.764
 4584TIP3    H213689   3.112   5.171   1.702
 4585TIP3   OH213690   3.946   5.174   2.292
 4585TIP3    H113691   3.911   5.185   2.383
 4585TIP3    H213692   3.882   5.112   2.254
 4586TIP3   OH213693   3.000   5.183   1.565
 4586TIP3    H113694   2.928   5.138   1.518
 4586TIP3    H213695   3.052   5.218   1.489
 4587TIP3   OH213696   4.116   6.862   2.509
 4587TIP3    H113697   4.113   6.884   2.414
 4587TIP3    H213698   4.192   6.914   2.540
 4588TIP3   OH213699   3.074   5.973   2.931
 4588TIP3    H113700   3.154   6.002   2.979
 4588TIP3    H213701   3.010   5.971   3.005
 4589TIP3   OH213702   3.538   5.426   2.187
 4589TIP3    H113703   3.610   5.385   2.136
 4589TIP3    H213704   3.547   5.382   2.273
 4590TIP3   OH213705   3.061   4.913   2.064
 4590TIP3    H113706   3.028   4.834   2.110
 4590TIP3    H213707   3.114   4.875   1.993
 4591TIP3   OH213708   3.515   5.321   2.476
 4591TIP3    H113709   3.425   5.358   2.491
 4591TIP3    H213710   3.572   5.382   2.526
 4592TIP3   OH213711   3.251   5.714   1.571
 4592TIP3    H113712   3.181   5.647   1.560
 4592TIP3    H213713   3.233   5.747   1.662
 4593TIP3   OH213714   4.151   5.949   2.201
 4593TIP3    H113715   4.175   5.998   2.120
 4593TIP3    H213716   4.067   5.906   2.176
 4594TIP3   OH213717   3.709   5.026   1.431
 4594TIP3    H113718   3.613   5.008   1.441
 4594TIP3    H213719   3.718   5.120   1.458
 4595TIP3   OH213720   3.652   6.032   2.567
 4595TIP3    H113721   3.674   6.007   2.658
 4595TIP3    H213722   3.612   6.120   2.577
 4596TIP3   OH213723   3.779   5.272   1.537
 4596TIP3    H113724   3.875   5.277   1.553
 4596TIP3    H213725   3.761   5.352   1.484
 4597TIP3   OH213726   2.943   5.735   2.247
 4597TIP3    H113727   2.981   5.707   2.161
 4597TIP3    H213728   2.985   5.673   2.308
 4598TIP3   OH213729   3.396   5.862   1.391
 4598TIP3    H113730   3.348   5.948   1.397
 4598TIP3    H213731   3.342   5.807   1.452
 4599TIP3   OH213732   2.823   5.657   2.861
 4599TIP3    H113733   2.846   5.642   2.955
 4599TIP3    H213734   2.756   5.588   2.845
 4600TIP3   OH213735   3.550   5.769   2.879
 4600TIP3    H113736   3.491   5.710   2.830
 4600TIP3    H213737   3.638   5.735   2.853
 4601TIP3   OH213738   3.811   6.294   2.462
 4601TIP3    H113739   3.715   6.289   2.476
 4601TIP3    H213740   3.839   6.344   2.542
 4602TIP3   OH213741   4.222   5.362   1.373
 4602TIP3    H113742   4.159   5.317   1.311
 4602TIP3    H213743   4.219   5.451   1.332
 4603TIP3   OH213744   4.439   6.221   2.453
 4603TIP3    H113745   4.341   6.214   2.445
 4603TIP3    H213746   4.465   6.190   2.363
 4604TIP3   OH213747   3.922   6.181   1.281
 4604TIP3    H113748   3.896   6.111   1.342
 4604TIP3    H213749   3.933   6.134   1.197
 4605TIP3   OH213750   3.917   5.811   2.119
 4605TIP3    H113751   3.824   5.785   2.133
 4605TIP3    H213752   3.952   5.731   2.075
 4606TIP3   OH213753   3.045   6.039   1.873
 4606TIP3    H113754   3.044   6.119   1.818
 4606TIP3    H213755   2.950   6.019   1.879
 4607TIP3   OH213756   2.609   5.341   1.574
 4607TIP3    H113757   2.654   5.426   1.592
 4607TIP3    H213758   2.531   5.348   1.633
 4608TIP3   OH213759   3.184   5.805   1.816
 4608TIP3    H113760   3.149   5.894   1.835
 4608TIP3    H213761   3.147   5.753   1.891
 4609TIP3   OH213762   3.313   6.382   2.341
 4609TIP3    H113763   3.355   6.455   2.291
 4609TIP3    H213764   3.389   6.346   2.389
 4610TIP3   OH213765   2.963   6.279   1.724
 4610TIP3    H113766   2.878   6.286   1.771
 4610TIP3    H213767   2.995   6.371   1.727
 4611TIP3   OH213768   3.703   6.017   2.299
 4611TIP3    H113769   3.693   6.014   2.396
 4611TIP3    H213770   3.782   5.962   2.286
 4612TIP3   OH213771   3.676   5.909   1.182
 4612TIP3    H113772   3.729   5.884   1.261
 4612TIP3    H213773   3.588   5.881   1.210
 4613TIP3   OH213774   3.950   6.551   2.352
 4613TIP3    H113775   3.872   6.493   2.345
 4613TIP3    H213776   3.934   6.614   2.278
 4614TIP3   OH213777   4.015   6.383   1.004
 4614TIP3    H113778   4.051   6.452   0.946
 4614TIP3    H213779   3.936   6.430   1.037
 4615TIP3   OH213780   3.036   5.161   2.869
 4615TIP3    H113781   2.940   5.163   2.882
 4615TIP3    H213782   3.065   5.101   2.939
 4616TIP3   OH213783   3.837   5.843   1.398
 4616TIP3    H113784   3.826   5.778   1.470
 4616TIP3    H213785   3.934   5.840   1.387
 4617TIP3   OH213786   2.751   6.245   2.501
 4617TIP3    H113787   2.804   6.169   2.530
 4617TIP3    H213788   2.782   6.313   2.562
 4618TIP3   OH213789   3.043   5.888   1.182
 4618TIP3    H113790   3.054   5.795   1.153
 4618TIP3    H213791   3.020   5.875   1.277
 4619TIP3   OH213792   2.987   5.898   1.456
 4619TIP3    H113793   3.059   5.867   1.512
 4619TIP3    H213794   2.994   5.996   1.463
 4620TIP3   OH213795   2.725   5.588   1.657
 4620TIP3    H113796   2.658   5.633   1.712
 4620TIP3    H213797   2.739   5.655   1.587
 4621TIP3   OH213798   3.871   5.226   2.551
 4621TIP3    H113799   3.953   5.263   2.588
 4621TIP3    H213800   3.858   5.145   2.604
 4622TIP3   OH213801   3.751   4.977   1.714
 4622TIP3    H113802   3.740   5.000   1.620
 4622TIP3    H213803   3.791   5.059   1.751
 4623TIP3   OH213804   3.255   6.093   1.403
 4623TIP3    H113805   3.168   6.119   1.439
 4623TIP3    H213806   3.269   6.165   1.340
 4624TIP3   OH213807   3.441   5.156   1.817
 4624TIP3    H113808   3.507   5.228   1.800
 4624TIP3    H213809   3.447   5.148   1.915
 4625TIP3   OH213810   3.711   5.475   2.625
 4625TIP3    H113811   3.733   5.527   2.705
 4625TIP3    H213812   3.766   5.395   2.636
 4626TIP3   OH213813   3.586   4.883   1.919
 4626TIP3    H113814   3.584   4.958   1.980
 4626TIP3    H213815   3.646   4.918   1.849
 4627TIP3   OH213816   3.000   6.171   1.471
 4627TIP3    H113817   2.967   6.239   1.408
 4627TIP3    H213818   2.982   6.213   1.557
 4628TIP3   OH213819   3.097   4.881   1.708
 4628TIP3    H113820   3.096   4.972   1.745
 4628TIP3    H213821   3.193   4.862   1.716
 4629TIP3   OH213822   4.352   5.376   2.604
 4629TIP3    H113823   4.254   5.374   2.612
 4629TIP3    H213824   4.362   5.329   2.520
 4630TIP3   OH213825   4.002   5.570   1.993
 4630TIP3    H113826   3.927   5.509   2.005
 4630TIP3    H213827   4.074   5.523   2.041
 4631TIP3   OH213828   2.714   5.802   1.463
 4631TIP3    H113829   2.786   5.867   1.470
 4631TIP3    H213830   2.757   5.739   1.401
 4632TIP3   OH213831   2.659   5.072   1.597
 4632TIP3    H113832   2.661   5.170   1.593
 4632TIP3    H213833   2.578   5.052   1.550
 4633TIP3   OH213834   3.970   6.525   1.943
 4633TIP3    H113835   3.928   6.572   1.868
 4633TIP3    H213836   4.065   6.543   1.922
 4634TIP3   OH213837   3.046   4.794   2.471
 4634TIP3    H113838   3.016   4.759   2.384
 4634TIP3    H213839   3.037   4.715   2.528
 4635TIP3   OH213840   2.590   6.017   1.852
 4635TIP3    H113841   2.514   6.044   1.905
 4635TIP3    H213842   2.565   6.053   1.764
 4636TIP3   OH213843   2.742   6.553   2.922
 4636TIP3    H113844   2.829   6.552   2.969
 4636TIP3    H213845   2.722   6.457   2.921
 4637TIP3   OH213846   3.225   6.519   2.966
 4637TIP3    H113847   3.319   6.498   2.974
 4637TIP3    H213848   3.199   6.460   2.893
 4638TIP3   OH213849   3.205   6.092   1.095
 4638TIP3    H113850   3.148   6.022   1.134
 4638TIP3    H213851   3.281   6.039   1.066
 4639TIP3   OH213852   3.863   6.425   2.700
 4639TIP3    H113853   3.853   6.354   2.768
 4639TIP3    H213854   3.941   6.473   2.732
 4640TIP3   OH213855   3.642   6.135   1.006
 4640TIP3    H113856   3.685   6.071   1.066
 4640TIP3    H213857   3.700   6.133   0.928
 4641TIP3   OH213858   2.873   5.959   3.123
 4641TIP3    H113859   2.890   5.864   3.128
 4641TIP3    H213860   2.786   5.961   3.078
 4642TIP3   OH213861   2.863   5.625   1.330
 4642TIP3    H113862   2.921   5.577   1.391
 4642TIP3    H213863   2.914   5.620   1.246
 4643TIP3   OH213864   3.480   6.044   2.896
 4643TIP3    H113865   3.440   6.060   2.809
 4643TIP3    H213866   3.512   5.951   2.889
 4644TIP3   OH213867   3.361   5.810   1.121
 4644TIP3    H113868   3.362   5.822   1.219
 4644TIP3    H213869   3.360   5.712   1.116
 4645TIP3   OH213870   3.974   6.052   2.502
 4645TIP3    H113871   4.048   6.097   2.458
 4645TIP3    H213872   3.902   6.117   2.488
 4646TIP3   OH213873   2.993   5.693   3.103
 4646TIP3    H113874   3.067   5.637   3.082
 4646TIP3    H213875   3.018   5.726   3.192
 4647TIP3   OH213876   3.065   5.512   1.541
 4647TIP3    H113877   3.033   5.470   1.622
 4647TIP3    H213878   3.098   5.436   1.489
 4648TIP3   OH213879   3.326   5.578   2.765
 4648TIP3    H113880   3.249   5.639   2.766
 4648TIP3    H213881   3.378   5.612   2.688
 4649TIP3   OH213882   3.159   5.307   1.378
 4649TIP3    H113883   3.132   5.311   1.284
 4649TIP3    H213884   3.256   5.311   1.370
 4650TIP3   OH213885   3.845   5.981   2.900
 4650TIP3    H113886   3.925   5.956   2.852
 4650TIP3    H213887   3.841   5.914   2.970
 4651TIP3   OH213888   3.981   5.639   1.040
 4651TIP3    H113889   3.959   5.592   0.958
 4651TIP3    H213890   3.948   5.729   1.017
 4652TIP3   OH213891   3.449   5.366   2.893
 4652TIP3    H113892   3.451   5.286   2.837
 4652TIP3    H213893   3.406   5.432   2.834
 4653TIP3   OH213894   3.453   5.154   2.700
 4653TIP3    H113895   3.481   5.193   2.615
 4653TIP3    H213896   3.360   5.130   2.681
 4654TIP3   OH213897   3.480   5.688   2.574
 4654TIP3    H113898   3.564   5.695   2.526
 4654TIP3    H213899   3.425   5.755   2.528
 4655TIP3   OH213900   4.063   5.655   2.954
 4655TIP3    H113901   4.109   5.571   2.966
 4655TIP3    H213902   4.133   5.712   2.919
 4656TIP3   OH213903   4.104   5.909   2.691
 4656TIP3    H113904   4.046   5.962   2.631
 4656TIP3    H213905   4.192   5.928   2.651
 4657TIP3   OH213906   3.326   5.480   3.122
 4657TIP3    H113907   3.259   5.410   3.136
 4657TIP3    H213908   3.363   5.454   3.035
 4658TIP3   OH213909   3.586   4.917   2.765
 4658TIP3    H113910   3.536   4.998   2.744
 4658TIP3    H213911   3.517   4.848   2.754
 4659TIP3   OH213912   3.711   5.422   2.983
 4659TIP3    H113913   3.702   5.408   3.079
 4659TIP3    H213914   3.621   5.396   2.954
 4660TIP3   OH213915   3.951   5.372   2.838
 4660TIP3    H113916   3.876   5.371   2.900
 4660TIP3    H213917   4.025   5.340   2.893
 4661TIP3   OH213918   4.177   5.310   2.988
 4661TIP3    H113919   4.192   5.215   3.005
 4661TIP3    H213920   4.175   5.349   3.078
 4662TIP3   OH213921   3.168   5.259   3.175
 4662TIP3    H113922   3.175   5.168   3.141
 4662TIP3    H213923   3.205   5.246   3.265
 4663TIP3   OH213924   3.680   4.927   3.024
 4663TIP3    H113925   3.748   4.856   3.019
 4663TIP3    H213926   3.641   4.920   2.934
 4664TIP3   OH213927   3.747   5.142   3.181
 4664TIP3    H113928   3.725   5.070   3.118
 4664TIP3    H213929   3.667   5.200   3.175
 4665TIP3   OH213930   2.967   6.374   1.284
 4665TIP3    H113931   3.062   6.366   1.265
 4665TIP3    H213932   2.938   6.421   1.204
 4666TIP3   OH213933   2.447   5.751   1.507
 4666TIP3    H113934   2.540   5.773   1.486
 4666TIP3    H213935   2.437   5.663   1.463
 4667TIP3   OH213936   2.359   6.365   1.913
 4667TIP3    H113937   2.293   6.302   1.877
 4667TIP3    H213938   2.405   6.309   1.979
 4668TIP3   OH213939   2.494   6.219   2.101
 4668TIP3    H113940   2.486   6.142   2.160
 4668TIP3    H213941   2.548   6.278   2.157
 4669TIP3   OH213942   4.223   6.617   1.899
 4669TIP3    H113943   4.251   6.648   1.987
 4669TIP3    H213944   4.287   6.661   1.840
 4670TIP3   OH213945   4.254   6.636   2.181
 4670TIP3    H113946   4.209   6.549   2.176
 4670TIP3    H213947   4.328   6.611   2.239
 4671TIP3   OH213948   4.298   6.314   2.753
 4671TIP3    H113949   4.226   6.321   2.819
 4671TIP3    H213950   4.340   6.402   2.759
 4672TIP3   OH213951   4.116   5.826   1.375
 4672TIP3    H113952   4.184   5.889   1.346
 4672TIP3    H213953   4.158   5.787   1.454
 4673TIP3   OH213954   4.243   5.694   1.579
 4673TIP3    H113955   4.177   5.651   1.638
 4673TIP3    H213956   4.307   5.731   1.642
 4674TIP3   OH213957   4.297   6.085   2.010
 4674TIP3    H113958   4.351   6.019   1.962
 4674TIP3    H213959   4.290   6.158   1.945
 4675TIP3   OH213960   4.129   6.387   2.204
 4675TIP3    H113961   4.057   6.426   2.257
 4675TIP3    H213962   4.079   6.338   2.135
 4676TIP3   OH213963   4.182   5.601   1.224
 4676TIP3    H113964   4.110   5.604   1.157
 4676TIP3    H213965   4.154   5.677   1.280
 4677TIP3   OH213966   4.052   5.275   1.179
 4677TIP3    H113967   4.008   5.310   1.101
 4677TIP3    H213968   4.029   5.180   1.172
 4678TIP3   OH213969   4.058   5.549   1.724
 4678TIP3    H113970   4.065   5.453   1.718
 4678TIP3    H213971   4.044   5.563   1.821
 4679TIP3   OH213972   2.683   5.624   2.471
 4679TIP3    H113973   2.682   5.592   2.379
 4679TIP3    H213974   2.780   5.626   2.488
 4680TIP3   OH213975   4.347   5.974   2.581
 4680TIP3    H113976   4.419   5.908   2.573
 4680TIP3    H213977   4.375   6.043   2.519
 4681TIP3   OH213978   4.532   5.780   2.599
 4681TIP3    H113979   4.458   5.729   2.637
 4681TIP3    H213980   4.606   5.716   2.612
 4682TIP3   OH213981   3.996   5.009   1.165
 4682TIP3    H113982   4.072   4.978   1.219
 4682TIP3    H213983   3.924   4.948   1.190
 4683TIP3   OH213984   4.054   5.265   1.619
 4683TIP3    H113985   4.093   5.176   1.636
 4683TIP3    H213986   4.113   5.297   1.549
 4684TIP3   OH213987   4.215   5.441   2.114
 4684TIP3    H113988   4.302   5.467   2.074
 4684TIP3    H213989   4.229   5.476   2.204
 4685TIP3   OH213990   4.284   5.584   2.346
 4685TIP3    H113991   4.206   5.617   2.395
 4685TIP3    H213992   4.317   5.665   2.302
 4686TIP3   OH213993   2.901   5.311   3.147
 4686TIP3    H113994   2.999   5.304   3.148
 4686TIP3    H213995   2.878   5.225   3.187
 4687TIP3   OH213996   4.734   5.172   2.902
 4687TIP3    H113997   4.794   5.107   2.860
 4687TIP3    H213998   4.708   5.228   2.826
 4688TIP3   OH213999   4.162   5.016   1.657
 4688TIP3    H114000   4.211   5.000   1.741
 4688TIP3    H214001   4.101   4.938   1.657
 4689TIP3   OH214002   2.862   5.002   2.479
 4689TIP3    H114003   2.923   4.927   2.488
 4689TIP3    H214004   2.925   5.076   2.471
 4690TIP3   OH214005   2.665   5.276   2.549
 4690TIP3    H114006   2.714   5.268   2.465
 4690TIP3    H214007   2.697   5.361   2.582
 4691TIP3   OH214008   4.608   5.315   2.707
 4691TIP3    H114009   4.521   5.355   2.729
 4691TIP3    H214010   4.578   5.241   2.650
 4692TIP3   OH214011   4.243   4.951   1.288
 4692TIP3    H114012   4.283   4.877   1.238
 4692TIP3    H214013   4.313   5.020   1.283
 4693TIP3   OH214014   2.649   4.780   2.052
 4693TIP3    H114015   2.555   4.777   2.076
 4693TIP3    H214016   2.647   4.838   1.973
 4694TIP3   OH214017   3.808   6.484   1.556
 4694TIP3    H114018   3.858   6.468   1.473
 4694TIP3    H214019   3.863   6.549   1.601
 4695TIP3   OH214020   2.869   4.861   2.866
 4695TIP3    H114021   2.818   4.854   2.948
 4695TIP3    H214022   2.802   4.897   2.805
 4696TIP3   OH214023   2.909   6.288   2.942
 4696TIP3    H114024   2.817   6.259   2.925
 4696TIP3    H214025   2.919   6.267   3.036
 4697TIP3   OH214026   3.086   6.319   2.490
 4697TIP3    H114027   3.039   6.395   2.450
 4697TIP3    H214028   3.173   6.331   2.446
 4698TIP3   OH214029   3.532   6.564   2.628
 4698TIP3    H114030   3.575   6.564   2.717
 4698TIP3    H214031   3.598   6.614   2.576
 4699TIP3   OH214032   3.711   6.715   2.486
 4699TIP3    H114033   3.782   6.663   2.444
 4699TIP3    H214034   3.763   6.772   2.547
 4700TIP3   OH214035   4.506   5.076   2.586
 4700TIP3    H114036   4.415   5.067   2.554
 4700TIP3    H214037   4.538   4.984   2.575
 4701TIP3   OH214038   2.763   6.577   2.511
 4701TIP3    H114039   2.674   6.611   2.490
 4701TIP3    H214040   2.773   6.611   2.601
 4702TIP3   OH214041   3.000   6.555   2.371
 4702TIP3    H114042   2.913   6.568   2.415
 4702TIP3    H214043   2.981   6.586   2.281
 4703TIP3   OH214044   3.426   6.583   2.168
 4703TIP3    H114045   3.356   6.604   2.103
 4703TIP3    H214046   3.438   6.671   2.211
 4704TIP3   OH214047   3.695   6.523   2.220
 4704TIP3    H114048   3.600   6.539   2.200
 4704TIP3    H214049   3.737   6.599   2.178
 4705TIP3   OH214050   3.904   6.715   2.136
 4705TIP3    H114051   3.888   6.799   2.087
 4705TIP3    H214052   3.928   6.654   2.063
 4706TIP3   OH214053   2.674   6.370   2.259
 4706TIP3    H114054   2.702   6.344   2.350
 4706TIP3    H214055   2.746   6.325   2.208
 4707TIP3   OH214056   2.868   6.241   2.116
 4707TIP3    H114057   2.884   6.157   2.164
 4707TIP3    H214058   2.959   6.277   2.110
 4708TIP3   OH214059   3.135   6.336   2.118
 4708TIP3    H114060   3.166   6.245   2.104
 4708TIP3    H214061   3.179   6.356   2.202
 4709TIP3   OH214062   3.708   4.991   2.201
 4709TIP3    H114063   3.666   4.921   2.256
 4709TIP3    H214064   3.783   4.943   2.161
 4710TIP3   OH214065   4.234   4.874   2.111
 4710TIP3    H114066   4.270   4.925   2.035
 4710TIP3    H214067   4.138   4.890   2.102
 4711TIP3   OH214068   4.328   4.974   1.874
 4711TIP3    H114069   4.400   4.921   1.834
 4711TIP3    H214070   4.363   5.065   1.859
 4712TIP3   OH214071   2.959   4.701   2.222
 4712TIP3    H114072   2.867   4.668   2.223
 4712TIP3    H214073   3.008   4.616   2.218
 4713TIP3   OH214074   2.744   4.570   1.869
 4713TIP3    H114075   2.775   4.627   1.796
 4713TIP3    H214076   2.717   4.636   1.936
 4714TIP3   OH214077   3.401   4.735   2.103
 4714TIP3    H114078   3.460   4.782   2.042
 4714TIP3    H214079   3.428   4.771   2.189
 4715TIP3   OH214080   3.949   4.880   2.085
 4715TIP3    H114081   3.951   4.839   1.998
 4715TIP3    H214082   3.936   4.801   2.143
 4716TIP3   OH214083   3.978   4.802   1.649
 4716TIP3    H114084   3.890   4.842   1.660
 4716TIP3    H214085   3.965   4.717   1.696
 4717TIP3   OH214086   2.463   6.141   1.649
 4717TIP3    H114087   2.379   6.105   1.615
 4717TIP3    H214088   2.449   6.235   1.632
 4718TIP3   OH214089   2.863   4.729   1.633
 4718TIP3    H114090   2.911   4.667   1.576
 4718TIP3    H214091   2.936   4.784   1.669
 4719TIP3   OH214092   3.375   4.906   1.731
 4719TIP3    H114093   3.435   4.858   1.791
 4719TIP3    H214094   3.398   4.998   1.757
 4720TIP3   OH214095   3.234   6.330   1.230
 4720TIP3    H114096   3.323   6.352   1.195
 4720TIP3    H214097   3.212   6.255   1.171
 4721TIP3   OH214098   3.954   6.448   1.324
 4721TIP3    H114099   3.946   6.350   1.312
 4721TIP3    H214100   3.908   6.480   1.244
 4722TIP3   OH214101   3.167   4.983   3.113
 4722TIP3    H114102   3.133   4.911   3.169
 4722TIP3    H214103   3.262   4.982   3.139
 4723TIP3   OH214104   3.416   4.979   3.232
 4723TIP3    H114105   3.501   4.953   3.192
 4723TIP3    H214106   3.404   4.908   3.299
 4724TIP3   OH214107   2.542   6.176   1.289
 4724TIP3    H114108   2.541   6.187   1.385
 4724TIP3    H214109   2.627   6.129   1.275
 4725TIP3   OH214110   4.241   5.040   3.020
 4725TIP3    H114111   4.260   5.008   3.111
 4725TIP3    H214112   4.330   5.035   2.978
 4726TIP3   OH214113   4.180   6.593   2.512
 4726TIP3    H114114   4.101   6.560   2.463
 4726TIP3    H214115   4.159   6.688   2.516
 4727TIP3   OH214116   5.448   5.967   1.276
 4727TIP3    H114117   5.418   6.058   1.256
 4727TIP3    H214118   5.371   5.915   1.246
 4728TIP3   OH214119   5.447   5.964   1.658
 4728TIP3    H114120   5.477   5.936   1.746
 4728TIP3    H214121   5.404   5.883   1.626
 4729TIP3   OH214122   4.745   5.860   2.023
 4729TIP3    H114123   4.774   5.791   2.086
 4729TIP3    H214124   4.822   5.917   2.021
 4730TIP3   OH214125   5.691   6.268   1.338
 4730TIP3    H114126   5.672   6.197   1.401
 4730TIP3    H214127   5.716   6.342   1.397
 4731TIP3   OH214128   4.715   6.270   1.749
 4731TIP3    H114129   4.706   6.173   1.750
 4731TIP3    H214130   4.812   6.279   1.746
 4732TIP3   OH214131   4.424   5.475   1.533
 4732TIP3    H114132   4.373   5.557   1.548
 4732TIP3    H214133   4.354   5.418   1.498
 4733TIP3   OH214134   4.482   5.760   1.706
 4733TIP3    H114135   4.530   5.683   1.743
 4733TIP3    H214136   4.540   5.786   1.633
 4734TIP3   OH214137   5.338   6.730   1.355
 4734TIP3    H114138   5.386   6.657   1.309
 4734TIP3    H214139   5.328   6.694   1.444
 4735TIP3   OH214140   5.244   6.192   1.706
 4735TIP3    H114141   5.281   6.114   1.661
 4735TIP3    H214142   5.329   6.236   1.731
 4736TIP3   OH214143   6.258   5.511   1.705
 4736TIP3    H114144   6.287   5.594   1.748
 4736TIP3    H214145   6.275   5.532   1.612
 4737TIP3   OH214146   5.660   5.694   1.739
 4737TIP3    H114147   5.699   5.607   1.760
 4737TIP3    H214148   5.625   5.677   1.649
 4738TIP3   OH214149   4.995   5.352   1.704
 4738TIP3    H114150   4.973   5.424   1.642
 4738TIP3    H214151   4.947   5.277   1.661
 4739TIP3   OH214152   5.688   5.443   1.327
 4739TIP3    H114153   5.760   5.426   1.392
 4739TIP3    H214154   5.741   5.478   1.253
 4740TIP3   OH214155   4.628   5.554   1.811
 4740TIP3    H114156   4.710   5.533   1.859
 4740TIP3    H214157   4.641   5.497   1.732
 4741TIP3   OH214158   5.069   5.752   1.603
 4741TIP3    H114159   5.162   5.725   1.618
 4741TIP3    H214160   5.029   5.667   1.573
 4742TIP3   OH214161   6.332   5.721   1.872
 4742TIP3    H114162   6.247   5.766   1.854
 4742TIP3    H214163   6.339   5.738   1.968
 4743TIP3   OH214164   4.992   5.335   2.139
 4743TIP3    H114165   4.930   5.371   2.072
 4743TIP3    H214166   4.940   5.350   2.221
 4744TIP3   OH214167   5.344   6.191   1.144
 4744TIP3    H114168   5.294   6.163   1.066
 4744TIP3    H214169   5.295   6.273   1.169
 4745TIP3   OH214170   5.098   6.111   1.935
 4745TIP3    H114171   5.034   6.175   1.973
 4745TIP3    H214172   5.138   6.163   1.862
 4746TIP3   OH214173   5.900   5.444   1.498
 4746TIP3    H114174   5.887   5.394   1.579
 4746TIP3    H214175   5.951   5.521   1.529
 4747TIP3   OH214176   4.861   5.450   1.923
 4747TIP3    H114177   4.924   5.522   1.947
 4747TIP3    H214178   4.910   5.409   1.848
 4748TIP3   OH214179   4.924   6.303   2.032
 4748TIP3    H114180   4.898   6.390   1.995
 4748TIP3    H214181   4.846   6.287   2.089
 4749TIP3   OH214182   4.320   5.994   1.268
 4749TIP3    H114183   4.278   6.021   1.184
 4749TIP3    H214184   4.351   6.079   1.305
 4750TIP3   OH214185   5.761   6.510   1.507
 4750TIP3    H114186   5.672   6.499   1.548
 4750TIP3    H214187   5.750   6.597   1.464
 4751TIP3   OH214188   6.050   5.414   1.872
 4751TIP3    H114189   5.961   5.439   1.841
 4751TIP3    H214190   6.107   5.444   1.799
 4752TIP3   OH214191   5.347   5.054   1.853
 4752TIP3    H114192   5.334   4.959   1.871
 4752TIP3    H214193   5.270   5.092   1.900
 4753TIP3   OH214194   5.464   6.556   1.182
 4753TIP3    H114195   5.512   6.472   1.164
 4753TIP3    H214196   5.528   6.620   1.143
 4754TIP3   OH214197   5.608   6.341   1.085
 4754TIP3    H114198   5.556   6.265   1.055
 4754TIP3    H214199   5.643   6.307   1.170
 4755TIP3   OH214200   5.986   6.424   1.851
 4755TIP3    H114201   5.973   6.345   1.794
 4755TIP3    H214202   5.968   6.497   1.789
 4756TIP3   OH214203   5.277   5.817   1.109
 4756TIP3    H114204   5.196   5.867   1.087
 4756TIP3    H214205   5.321   5.812   1.022
 4757TIP3   OH214206   5.236   5.601   0.824
 4757TIP3    H114207   5.305   5.650   0.872
 4757TIP3    H214208   5.292   5.537   0.775
 4758TIP3   OH214209   6.181   6.061   1.696
 4758TIP3    H114210   6.097   6.111   1.703
 4758TIP3    H214211   6.209   6.085   1.605
 4759TIP3   OH214212   5.626   5.900   1.080
 4759TIP3    H114213   5.569   5.923   1.157
 4759TIP3    H214214   5.708   5.872   1.126
 4760TIP3   OH214215   5.860   5.939   1.991
 4760TIP3    H114216   5.855   6.022   2.042
 4760TIP3    H214217   5.772   5.941   1.947
 4761TIP3   OH214218   4.858   5.898   1.496
 4761TIP3    H114219   4.815   5.839   1.430
 4761TIP3    H214220   4.933   5.843   1.526
 4762TIP3   OH214221   4.988   6.311   1.645
 4762TIP3    H114222   4.965   6.265   1.563
 4762TIP3    H214223   5.077   6.275   1.663
 4763TIP3   OH214224   4.995   5.867   1.852
 4763TIP3    H114225   5.027   5.846   1.762
 4763TIP3    H214226   5.037   5.953   1.871
 4764TIP3   OH214227   5.520   6.505   1.628
 4764TIP3    H114228   5.506   6.584   1.682
 4764TIP3    H214229   5.504   6.432   1.692
 4765TIP3   OH214230   5.131   6.425   2.173
 4765TIP3    H114231   5.071   6.487   2.221
 4765TIP3    H214232   5.065   6.371   2.126
 4766TIP3   OH214233   5.465   5.758   0.905
 4766TIP3    H114234   5.525   5.818   0.956
 4766TIP3    H214235   5.485   5.783   0.812
 4767TIP3   OH214236   4.884   5.983   2.274
 4767TIP3    H114237   4.889   6.069   2.321
 4767TIP3    H214238   4.790   5.961   2.287
 4768TIP3   OH214239   5.208   6.434   1.182
 4768TIP3    H114240   5.283   6.492   1.203
 4768TIP3    H214241   5.144   6.495   1.143
 4769TIP3   OH214242   4.925   6.592   2.262
 4769TIP3    H114243   4.889   6.591   2.171
 4769TIP3    H214244   4.845   6.572   2.316
 4770TIP3   OH214245   5.982   4.999   0.956
 4770TIP3    H114246   5.899   5.017   1.005
 4770TIP3    H214247   5.994   5.082   0.905
 4771TIP3   OH214248   4.723   5.740   1.302
 4771TIP3    H114249   4.655   5.783   1.246
 4771TIP3    H214250   4.685   5.653   1.316
 4772TIP3   OH214251   4.505   6.123   2.208
 4772TIP3    H114252   4.439   6.099   2.140
 4772TIP3    H214253   4.542   6.036   2.234
 4773TIP3   OH214254   4.358   6.317   1.840
 4773TIP3    H114255   4.454   6.309   1.833
 4773TIP3    H214256   4.349   6.395   1.897
 4774TIP3   OH214257   6.222   6.767   1.896
 4774TIP3    H114258   6.221   6.670   1.911
 4774TIP3    H214259   6.140   6.792   1.942
 4775TIP3   OH214260   5.328   6.554   2.032
 4775TIP3    H114261   5.327   6.646   2.064
 4775TIP3    H214262   5.257   6.514   2.086
 4776TIP3   OH214263   5.085   6.685   0.984
 4776TIP3    H114264   5.037   6.665   0.902
 4776TIP3    H214265   5.053   6.774   1.007
 4777TIP3   OH214266   4.527   6.532   1.368
 4777TIP3    H114267   4.574   6.522   1.454
 4777TIP3    H214268   4.471   6.453   1.370
 4778TIP3   OH214269   5.302   6.549   0.666
 4778TIP3    H114270   5.377   6.489   0.665
 4778TIP3    H214271   5.312   6.585   0.757
 4779TIP3   OH214272   5.341   6.632   0.920
 4779TIP3    H114273   5.250   6.645   0.956
 4779TIP3    H214274   5.386   6.592   0.997
 4780TIP3   OH214275   6.114   5.900   2.170
 4780TIP3    H114276   6.030   5.911   2.123
 4780TIP3    H214277   6.128   5.804   2.161
 4781TIP3   OH214278   4.708   6.307   2.199
 4781TIP3    H114279   4.759   6.289   2.281
 4781TIP3    H214280   4.635   6.243   2.206
 4782TIP3   OH214281   5.108   5.131   1.980
 4782TIP3    H114282   5.019   5.099   1.954
 4782TIP3    H214283   5.082   5.211   2.029
 4783TIP3   OH214284   5.641   5.246   2.176
 4783TIP3    H114285   5.709   5.217   2.241
 4783TIP3    H214286   5.557   5.225   2.222
 4784TIP3   OH214287   5.885   5.677   2.099
 4784TIP3    H114288   5.833   5.671   2.182
 4784TIP3    H214289   5.855   5.762   2.061
 4785TIP3   OH214290   5.522   5.809   0.641
 4785TIP3    H114291   5.519   5.762   0.558
 4785TIP3    H214292   5.610   5.851   0.633
 4786TIP3   OH214293   5.254   5.179   0.953
 4786TIP3    H114294   5.220   5.175   1.045
 4786TIP3    H214295   5.215   5.097   0.918
 4787TIP3   OH214296   5.041   5.645   2.001
 4787TIP3    H114297   4.990   5.666   2.082
 4787TIP3    H214298   5.024   5.726   1.948
 4788TIP3   OH214299   4.923   5.533   1.514
 4788TIP3    H114300   4.831   5.505   1.532
 4788TIP3    H214301   4.936   5.491   1.426
 4789TIP3   OH214302   5.416   5.619   1.243
 4789TIP3    H114303   5.362   5.689   1.200
 4789TIP3    H214304   5.469   5.585   1.168
 4790TIP3   OH214305   5.589   5.896   2.329
 4790TIP3    H114306   5.565   5.824   2.391
 4790TIP3    H214307   5.683   5.909   2.352
 4791TIP3   OH214308   5.573   5.647   1.480
 4791TIP3    H114309   5.511   5.674   1.410
 4791TIP3    H214310   5.606   5.565   1.439
 4792TIP3   OH214311   4.859   5.674   2.209
 4792TIP3    H114312   4.887   5.735   2.279
 4792TIP3    H214313   4.847   5.591   2.259
 4793TIP3   OH214314   4.910   5.153   0.919
 4793TIP3    H114315   4.901   5.149   1.016
 4793TIP3    H214316   4.829   5.202   0.895
 4794TIP3   OH214317   4.452   5.199   1.788
 4794TIP3    H114318   4.528   5.227   1.842
 4794TIP3    H214319   4.492   5.162   1.708
 4795TIP3   OH214320   4.426   5.177   1.308
 4795TIP3    H114321   4.472   5.215   1.231
 4795TIP3    H214322   4.365   5.250   1.329
 4796TIP3   OH214323   5.585   5.893   1.904
 4796TIP3    H114324   5.617   5.821   1.845
 4796TIP3    H214325   5.554   5.840   1.981
 4797TIP3   OH214326   5.251   5.357   1.576
 4797TIP3    H114327   5.168   5.353   1.627
 4797TIP3    H214328   5.318   5.351   1.646
 4798TIP3   OH214329   4.686   5.409   1.583
 4798TIP3    H114330   4.591   5.416   1.557
 4798TIP3    H214331   4.708   5.317   1.562
 4799TIP3   OH214332   4.955   5.407   1.272
 4799TIP3    H114333   5.049   5.420   1.249
 4799TIP3    H214334   4.908   5.428   1.188
 4800TIP3   OH214335   5.743   5.429   1.777
 4800TIP3    H114336   5.710   5.441   1.868
 4800TIP3    H214337   5.677   5.367   1.741
 4801TIP3   OH214338   4.795   5.441   1.052
 4801TIP3    H114339   4.722   5.395   1.006
 4801TIP3    H214340   4.847   5.474   0.976
 4802TIP3   OH214341   5.913   7.118   1.996
 4802TIP3    H114342   5.912   7.142   1.902
 4802TIP3    H214343   5.991   7.167   2.028
 4803TIP3   OH214344   4.871   6.230   2.418
 4803TIP3    H114345   4.950   6.259   2.467
 4803TIP3    H214346   4.806   6.225   2.491
 4804TIP3   OH214347   5.334   5.684   1.675
 4804TIP3    H114348   5.404   5.638   1.626
 4804TIP3    H214349   5.339   5.640   1.762
 4805TIP3   OH214350   4.858   5.169   1.552
 4805TIP3    H114351   4.822   5.091   1.599
 4805TIP3    H214352   4.908   5.127   1.481
 4806TIP3   OH214353   5.311   5.581   1.958
 4806TIP3    H114354   5.221   5.614   1.976
 4806TIP3    H214355   5.367   5.640   2.012
 4807TIP3   OH214356   5.048   5.970   1.058
 4807TIP3    H114357   4.976   5.904   1.047
 4807TIP3    H214358   5.029   6.003   1.149
 4808TIP3   OH214359   5.948   6.205   1.688
 4808TIP3    H114360   5.970   6.255   1.606
 4808TIP3    H214361   5.862   6.162   1.664
 4809TIP3   OH214362   5.505   5.280   0.922
 4809TIP3    H114363   5.409   5.262   0.929
 4809TIP3    H214364   5.512   5.376   0.943
 4810TIP3   OH214365   5.453   6.291   2.053
 4810TIP3    H114366   5.467   6.262   2.144
 4810TIP3    H214367   5.407   6.376   2.065
 4811TIP3   OH214368   5.574   5.529   1.026
 4811TIP3    H114369   5.671   5.534   1.040
 4811TIP3    H214370   5.556   5.608   0.970
 4812TIP3   OH214371   4.741   5.993   1.734
 4812TIP3    H114372   4.779   5.962   1.649
 4812TIP3    H214373   4.777   5.929   1.797
 4813TIP3   OH214374   5.193   6.118   0.877
 4813TIP3    H114375   5.147   6.205   0.886
 4813TIP3    H214376   5.138   6.063   0.937
 4814TIP3   OH214377   4.620   5.913   2.347
 4814TIP3    H114378   4.643   5.899   2.441
 4814TIP3    H214379   4.553   5.844   2.333
 4815TIP3   OH214380   5.346   6.028   2.364
 4815TIP3    H114381   5.285   5.965   2.320
 4815TIP3    H214382   5.433   5.991   2.337
 4816TIP3   OH214383   5.607   6.552   1.945
 4816TIP3    H114384   5.512   6.545   1.962
 4816TIP3    H214385   5.636   6.598   2.026
 4817TIP3   OH214386   6.017   5.614   0.855
 4817TIP3    H114387   5.953   5.571   0.793
 4817TIP3    H214388   6.010   5.706   0.821
 4818TIP3   OH214389   6.236   6.477   1.940
 4818TIP3    H114390   6.138   6.471   1.932
 4818TIP3    H214391   6.262   6.447   1.850
 4819TIP3   OH214392   5.741   6.427   0.757
 4819TIP3    H114393   5.706   6.379   0.833
 4819TIP3    H214394   5.689   6.390   0.684
 4820TIP3   OH214395   5.714   6.067   1.605
 4820TIP3    H114396   5.621   6.042   1.620
 4820TIP3    H214397   5.747   5.987   1.561
 4821TIP3   OH214398   4.840   6.295   1.357
 4821TIP3    H114399   4.838   6.376   1.303
 4821TIP3    H214400   4.746   6.277   1.369
 4822TIP3   OH214401   4.402   5.600   1.060
 4822TIP3    H114402   4.449   5.683   1.082
 4822TIP3    H214403   4.326   5.604   1.122
 4823TIP3   OH214404   4.981   6.061   1.303
 4823TIP3    H114405   4.944   6.150   1.321
 4823TIP3    H214406   4.944   6.010   1.377
 4824TIP3   OH214407   5.109   6.639   1.828
 4824TIP3    H114408   5.152   6.711   1.779
 4824TIP3    H214409   5.185   6.604   1.878
 4825TIP3   OH214410   4.760   6.534   1.210
 4825TIP3    H114411   4.674   6.542   1.257
 4825TIP3    H214412   4.791   6.627   1.213
 4826TIP3   OH214413   5.499   6.272   1.785
 4826TIP3    H114414   5.488   6.273   1.883
 4826TIP3    H214415   5.578   6.217   1.775
 4827TIP3   OH214416   5.456   6.160   0.674
 4827TIP3    H114417   5.516   6.134   0.748
 4827TIP3    H214418   5.370   6.138   0.711
 4828TIP3   OH214419   5.748   6.805   1.837
 4828TIP3    H114420   5.670   6.747   1.833
 4828TIP3    H214421   5.729   6.869   1.765
 4829TIP3   OH214422   4.833   5.417   2.354
 4829TIP3    H114423   4.736   5.420   2.369
 4829TIP3    H214424   4.862   5.359   2.426
 4830TIP3   OH214425   5.631   6.097   0.884
 4830TIP3    H114426   5.621   6.034   0.958
 4830TIP3    H214427   5.728   6.097   0.873
 4831TIP3   OH214428   4.548   6.501   1.987
 4831TIP3    H114429   4.600   6.425   2.017
 4831TIP3    H214430   4.578   6.568   2.050
 4832TIP3   OH214431   4.830   6.152   0.669
 4832TIP3    H114432   4.858   6.064   0.637
 4832TIP3    H214433   4.817   6.134   0.764
 4833TIP3   OH214434   4.785   6.151   0.942
 4833TIP3    H114435   4.855   6.123   1.002
 4833TIP3    H214436   4.790   6.249   0.949
 4834TIP3   OH214437   4.519   5.844   1.144
 4834TIP3    H114438   4.454   5.889   1.201
 4834TIP3    H214439   4.534   5.914   1.077
 4835TIP3   OH214440   5.670   5.481   2.036
 4835TIP3    H114441   5.748   5.517   2.080
 4835TIP3    H214442   5.653   5.400   2.088
 4836TIP3   OH214443   5.548   5.233   1.201
 4836TIP3    H114444   5.534   5.255   1.107
 4836TIP3    H214445   5.586   5.316   1.237
 4837TIP3   OH214446   5.052   6.349   0.895
 4837TIP3    H114447   4.965   6.378   0.928
 4837TIP3    H214448   5.063   6.406   0.818
 4838TIP3   OH214449   5.239   5.413   1.304
 4838TIP3    H114450   5.304   5.485   1.288
 4838TIP3    H214451   5.243   5.405   1.402
 4839TIP3   OH214452   5.509   5.732   2.111
 4839TIP3    H114453   5.527   5.786   2.191
 4839TIP3    H214454   5.561   5.652   2.127
 4840TIP3   OH214455   5.383   5.141   1.407
 4840TIP3    H114456   5.376   5.218   1.466
 4840TIP3    H214457   5.443   5.175   1.337
 4841TIP3   OH214458   4.795   6.425   0.956
 4841TIP3    H114459   4.762   6.494   0.895
 4841TIP3    H214460   4.778   6.467   1.044
 4842TIP3   OH214461   4.894   5.137   1.195
 4842TIP3    H114462   4.892   5.227   1.233
 4842TIP3    H214463   4.989   5.118   1.203
 4843TIP3   OH214464   6.150   5.631   2.088
 4843TIP3    H114465   6.053   5.632   2.101
 4843TIP3    H214466   6.154   5.582   2.005
 4844TIP3   OH214467   5.799   5.826   1.479
 4844TIP3    H114468   5.722   5.767   1.491
 4844TIP3    H214469   5.870   5.778   1.528
 4845TIP3   OH214470   4.511   6.054   0.949
 4845TIP3    H114471   4.577   6.125   0.958
 4845TIP3    H214472   4.557   5.999   0.882
 4846TIP3   OH214473   4.457   5.331   1.083
 4846TIP3    H114474   4.454   5.428   1.078
 4846TIP3    H214475   4.373   5.305   1.043
 4847TIP3   OH214476   5.767   6.781   1.430
 4847TIP3    H114477   5.723   6.828   1.355
 4847TIP3    H214478   5.861   6.800   1.408
 4848TIP3   OH214479   4.843   5.050   1.957
 4848TIP3    H114480   4.812   5.015   1.871
 4848TIP3    H214481   4.833   4.972   2.015
 4849TIP3   OH214482   4.384   6.270   1.337
 4849TIP3    H114483   4.312   6.299   1.395
 4849TIP3    H214484   4.356   6.310   1.251
 4850TIP3   OH214485   4.537   6.807   2.411
 4850TIP3    H114486   4.625   6.804   2.454
 4850TIP3    H214487   4.516   6.712   2.407
 4851TIP3   OH214488   5.015   6.778   2.451
 4851TIP3    H114489   5.110   6.765   2.465
 4851TIP3    H214490   4.997   6.714   2.380
 4852TIP3   OH214491   5.012   6.343   0.592
 4852TIP3    H114492   4.936   6.285   0.617
 4852TIP3    H214493   5.079   6.274   0.582
 4853TIP3   OH214494   5.666   6.676   2.182
 4853TIP3    H114495   5.653   6.609   2.253
 4853TIP3    H214496   5.739   6.730   2.218
 4854TIP3   OH214497   4.670   6.217   2.608
 4854TIP3    H114498   4.687   6.122   2.619
 4854TIP3    H214499   4.582   6.217   2.564
 4855TIP3   OH214500   4.649   5.869   0.800
 4855TIP3    H114501   4.704   5.832   0.871
 4855TIP3    H214502   4.717   5.880   0.730
 4856TIP3   OH214503   5.278   6.301   2.382
 4856TIP3    H114504   5.235   6.316   2.296
 4856TIP3    H214505   5.308   6.208   2.376
 4857TIP3   OH214506   5.138   6.072   0.607
 4857TIP3    H114507   5.154   6.080   0.703
 4857TIP3    H214508   5.140   5.974   0.598
 4858TIP3   OH214509   5.771   6.307   1.989
 4858TIP3    H114510   5.843   6.357   1.945
 4858TIP3    H214511   5.696   6.369   1.977
 4859TIP3   OH214512   4.791   5.950   2.588
 4859TIP3    H114513   4.862   5.887   2.573
 4859TIP3    H214514   4.813   5.983   2.678
 4860TIP3   OH214515   4.857   5.771   1.026
 4860TIP3    H114516   4.828   5.729   1.108
 4860TIP3    H214517   4.892   5.695   0.975
 4861TIP3   OH214518   5.124   5.835   2.252
 4861TIP3    H114519   5.046   5.895   2.254
 4861TIP3    H214520   5.174   5.870   2.175
 4862TIP3   OH214521   4.955   5.564   0.867
 4862TIP3    H114522   4.928   5.565   0.773
 4862TIP3    H214523   5.053   5.568   0.858
 4863TIP3   OH214524   5.642   6.239   2.387
 4863TIP3    H114525   5.721   6.210   2.340
 4863TIP3    H214526   5.634   6.172   2.458
 4864TIP3   OH214527   5.776   5.862   0.538
 4864TIP3    H114528   5.793   5.799   0.465
 4864TIP3    H214529   5.774   5.948   0.490
 4865TIP3   OH214530   5.248   5.623   2.378
 4865TIP3    H114531   5.247   5.542   2.323
 4865TIP3    H214532   5.203   5.688   2.320
 4866TIP3   OH214533   5.250   5.410   2.185
 4866TIP3    H114534   5.276   5.449   2.100
 4866TIP3    H214535   5.156   5.386   2.168
 4867TIP3   OH214536   5.277   5.945   2.058
 4867TIP3    H114537   5.360   5.953   2.010
 4867TIP3    H214538   5.220   6.011   2.014
 4868TIP3   OH214539   5.858   5.911   2.439
 4868TIP3    H114540   5.905   5.828   2.455
 4868TIP3    H214541   5.928   5.968   2.406
 4869TIP3   OH214542   5.901   6.165   2.178
 4869TIP3    H114543   5.842   6.218   2.118
 4869TIP3    H214544   5.988   6.185   2.137
 4870TIP3   OH214545   5.124   5.735   2.607
 4870TIP3    H114546   5.055   5.668   2.624
 4870TIP3    H214547   5.160   5.705   2.521
 4871TIP3   OH214548   5.382   5.173   2.251
 4871TIP3    H114549   5.331   5.254   2.230
 4871TIP3    H214550   5.312   5.104   2.241
 4872TIP3   OH214551   5.508   5.678   2.469
 4872TIP3    H114552   5.497   5.666   2.565
 4872TIP3    H214553   5.418   5.653   2.440
 4873TIP3   OH214554   5.746   5.625   2.324
 4873TIP3    H114555   5.671   5.628   2.386
 4873TIP3    H214556   5.819   5.594   2.382
 4874TIP3   OH214557   5.982   5.568   2.474
 4874TIP3    H114558   5.990   5.472   2.493
 4874TIP3    H214559   5.973   5.607   2.563
 4875TIP3   OH214560   4.964   5.515   2.660
 4875TIP3    H114561   4.970   5.423   2.629
 4875TIP3    H214562   5.000   5.506   2.751
 4876TIP3   OH214563   5.478   5.185   2.508
 4876TIP3    H114564   5.543   5.112   2.505
 4876TIP3    H214565   5.437   5.177   2.420
 4877TIP3   OH214566   5.544   5.400   2.667
 4877TIP3    H114567   5.521   5.328   2.604
 4877TIP3    H214568   5.464   5.457   2.663
 4878TIP3   OH214569   4.760   6.630   0.770
 4878TIP3    H114570   4.855   6.627   0.750
 4878TIP3    H214571   4.728   6.675   0.690
 4879TIP3   OH214572   4.242   6.009   0.986
 4879TIP3    H114573   4.337   6.030   0.972
 4879TIP3    H214574   4.237   5.920   0.946
 4880TIP3   OH214575   4.157   6.621   1.399
 4880TIP3    H114576   4.090   6.559   1.363
 4880TIP3    H214577   4.201   6.564   1.465
 4881TIP3   OH214578   4.293   6.473   1.587
 4881TIP3    H114579   4.281   6.399   1.648
 4881TIP3    H214580   4.344   6.534   1.643
 4882TIP3   OH214581   6.021   6.872   1.384
 4882TIP3    H114582   6.043   6.899   1.475
 4882TIP3    H214583   6.082   6.924   1.331
 4883TIP3   OH214584   6.051   6.891   1.664
 4883TIP3    H114585   6.005   6.805   1.664
 4883TIP3    H214586   6.123   6.870   1.726
 4884TIP3   OH214587   6.096   6.569   2.240
 4884TIP3    H114588   6.023   6.576   2.305
 4884TIP3    H214589   6.137   6.658   2.246
 4885TIP3   OH214590   5.915   6.082   0.867
 4885TIP3    H114591   5.989   6.144   0.853
 4885TIP3    H214592   5.947   6.035   0.946
 4886TIP3   OH214593   6.039   5.949   1.067
 4886TIP3    H114594   5.973   5.905   1.126
 4886TIP3    H214595   6.103   5.986   1.132
 4887TIP3   OH214596   6.095   6.343   1.498
 4887TIP3    H114597   6.148   6.277   1.449
 4887TIP3    H214598   6.080   6.412   1.431
 4888TIP3   OH214599   5.925   6.644   1.690
 4888TIP3    H114600   5.855   6.684   1.745
 4888TIP3    H214601   5.873   6.595   1.623
 4889TIP3   OH214602   5.979   5.854   0.721
 4889TIP3    H114603   5.902   5.842   0.660
 4889TIP3    H214604   5.948   5.933   0.770
 4890TIP3   OH214605   5.851   5.534   0.653
 4890TIP3    H114606   5.821   5.556   0.563
 4890TIP3    H214607   5.819   5.441   0.657
 4891TIP3   OH214608   5.856   5.805   1.211
 4891TIP3    H114609   5.860   5.708   1.204
 4891TIP3    H214610   5.841   5.818   1.307
 4892TIP3   OH214611   4.480   5.881   1.957
 4892TIP3    H114612   4.478   5.849   1.865
 4892TIP3    H214613   4.577   5.882   1.975
 4893TIP3   OH214614   6.144   6.231   2.068
 4893TIP3    H114615   6.216   6.165   2.059
 4893TIP3    H214616   6.171   6.300   2.006
 4894TIP3   OH214617   6.330   6.037   2.083
 4894TIP3    H114618   6.254   5.987   2.122
 4894TIP3    H214619   6.402   5.972   2.099
 4895TIP3   OH214620   5.788   5.265   0.661
 4895TIP3    H114621   5.862   5.233   0.717
 4895TIP3    H214622   5.712   5.210   0.688
 4896TIP3   OH214623   5.851   5.522   1.107
 4896TIP3    H114624   5.889   5.433   1.124
 4896TIP3    H214625   5.909   5.550   1.034
 4897TIP3   OH214626   6.012   5.696   1.601
 4897TIP3    H114627   6.098   5.722   1.562
 4897TIP3    H214628   6.024   5.732   1.691
 4898TIP3   OH214629   6.080   5.840   1.833
 4898TIP3    H114630   6.003   5.872   1.882
 4898TIP3    H214631   6.112   5.922   1.789
 4899TIP3   OH214632   4.698   5.567   2.632
 4899TIP3    H114633   4.796   5.562   2.635
 4899TIP3    H214634   4.674   5.482   2.673
 4900TIP3   OH214635   6.536   5.433   2.390
 4900TIP3    H114636   6.592   5.366   2.346
 4900TIP3    H214637   6.505   5.486   2.313
 4901TIP3   OH214638   5.957   5.272   1.144
 4901TIP3    H114639   6.005   5.255   1.228
 4901TIP3    H214640   5.897   5.195   1.142
 4902TIP3   OH214641   4.658   5.258   1.963
 4902TIP3    H114642   4.720   5.182   1.974
 4902TIP3    H214643   4.722   5.332   1.957
 4903TIP3   OH214644   4.461   5.533   2.036
 4903TIP3    H114645   4.511   5.526   1.951
 4903TIP3    H214646   4.493   5.617   2.070
 4904TIP3   OH214647   6.404   5.571   2.195
 4904TIP3    H114648   6.318   5.612   2.218
 4904TIP3    H214649   6.372   5.499   2.136
 4905TIP3   OH214650   6.041   5.205   0.775
 4905TIP3    H114651   6.073   5.130   0.720
 4905TIP3    H214652   6.110   5.271   0.760
 4906TIP3   OH214653   4.445   5.040   1.540
 4906TIP3    H114654   4.351   5.033   1.564
 4906TIP3    H214655   4.442   5.096   1.460
 4907TIP3   OH214656   5.615   6.734   1.047
 4907TIP3    H114657   5.658   6.728   0.959
 4907TIP3    H214658   5.660   6.810   1.087
 4908TIP3   OH214659   4.666   5.118   2.352
 4908TIP3    H114660   4.615   5.109   2.435
 4908TIP3    H214661   4.598   5.153   2.292
 4909TIP3   OH214662   4.704   6.548   2.430
 4909TIP3    H114663   4.614   6.516   2.412
 4909TIP3    H214664   4.718   6.520   2.521
 4910TIP3   OH214665   4.882   6.575   1.976
 4910TIP3    H114666   4.834   6.650   1.936
 4910TIP3    H214667   4.968   6.588   1.932
 4911TIP3   OH214668   5.326   6.821   2.110
 4911TIP3    H114669   5.367   6.819   2.200
 4911TIP3    H214670   5.393   6.873   2.060
 4912TIP3   OH214671   5.508   6.972   1.971
 4912TIP3    H114672   5.580   6.919   1.934
 4912TIP3    H214673   5.558   7.029   2.034
 4913TIP3   OH214674   6.302   5.334   2.072
 4913TIP3    H114675   6.210   5.326   2.041
 4913TIP3    H214676   6.332   5.240   2.061
 4914TIP3   OH214677   4.560   6.835   1.997
 4914TIP3    H114678   4.470   6.869   1.975
 4914TIP3    H214679   4.567   6.864   2.089
 4915TIP3   OH214680   4.797   6.812   1.857
 4915TIP3    H114681   4.710   6.824   1.902
 4915TIP3    H214682   4.776   6.843   1.767
 4916TIP3   OH214683   5.223   6.841   1.654
 4916TIP3    H114684   5.151   6.860   1.591
 4916TIP3    H214685   5.234   6.928   1.698
 4917TIP3   OH214686   5.491   6.779   1.704
 4917TIP3    H114687   5.396   6.795   1.687
 4917TIP3    H214688   5.531   6.859   1.667
 4918TIP3   OH214689   5.702   6.973   1.623
 4918TIP3    H114690   5.685   7.057   1.574
 4918TIP3    H214691   5.724   6.911   1.550
 4919TIP3   OH214692   4.471   6.627   1.746
 4919TIP3    H114693   4.498   6.600   1.836
 4919TIP3    H214694   4.543   6.582   1.695
 4920TIP3   OH214695   4.665   6.497   1.602
 4920TIP3    H114696   4.680   6.413   1.651
 4920TIP3    H214697   4.756   6.533   1.597
 4921TIP3   OH214698   4.932   6.592   1.604
 4921TIP3    H114699   4.962   6.500   1.593
 4921TIP3    H214700   4.975   6.613   1.689
 4922TIP3   OH214701   5.506   5.248   1.692
 4922TIP3    H114702   5.462   5.180   1.746
 4922TIP3    H214703   5.577   5.198   1.648
 4923TIP3   OH214704   6.032   5.131   1.598
 4923TIP3    H114705   6.066   5.183   1.522
 4923TIP3    H214706   5.935   5.145   1.590
 4924TIP3   OH214707   6.126   5.232   1.361
 4924TIP3    H114708   6.198   5.181   1.320
 4924TIP3    H214709   6.158   5.324   1.345
 4925TIP3   OH214710   4.754   4.958   1.708
 4925TIP3    H114711   4.662   4.924   1.709
 4925TIP3    H214712   4.803   4.873   1.706
 4926TIP3   OH214713   4.539   4.829   1.355
 4926TIP3    H114714   4.571   4.886   1.283
 4926TIP3    H214715   4.515   4.894   1.423
 4927TIP3   OH214716   5.198   4.991   1.588
 4927TIP3    H114717   5.259   5.040   1.530
 4927TIP3    H214718   5.219   5.026   1.675
 4928TIP3   OH214719   5.750   5.136   1.571
 4928TIP3    H114720   5.743   5.097   1.483
 4928TIP3    H214721   5.735   5.057   1.628
 4929TIP3   OH214722   5.776   5.059   1.135
 4929TIP3    H114723   5.688   5.099   1.146
 4929TIP3    H214724   5.762   4.974   1.182
 4930TIP3   OH214725   4.260   6.398   1.135
 4930TIP3    H114726   4.174   6.365   1.103
 4930TIP3    H214727   4.248   6.492   1.116
 4931TIP3   OH214728   4.659   4.989   1.117
 4931TIP3    H114729   4.706   4.923   1.063
 4931TIP3    H214730   4.733   5.041   1.154
 4932TIP3   OH214731   5.171   5.162   1.218
 4932TIP3    H114732   5.228   5.113   1.278
 4932TIP3    H214733   5.195   5.254   1.244
 4933TIP3   OH214734   5.027   6.589   0.712
 4933TIP3    H114735   5.120   6.603   0.687
 4933TIP3    H214736   5.008   6.510   0.657
 4934TIP3   OH214737   5.757   6.702   0.807
 4934TIP3    H114738   5.743   6.606   0.787
 4934TIP3    H214739   5.735   6.743   0.721
 4935TIP3   OH214740   4.963   5.240   2.600
 4935TIP3    H114741   4.928   5.169   2.656
 4935TIP3    H214742   5.058   5.239   2.627
 4936TIP3   OH214743   5.213   5.235   2.718
 4936TIP3    H114744   5.298   5.206   2.681
 4936TIP3    H214745   5.198   5.166   2.787
 4937TIP3   OH214746   4.334   6.422   0.777
 4937TIP3    H114747   4.332   6.448   0.871
 4937TIP3    H214748   4.424   6.383   0.768
 4938TIP3   OH214749   6.037   5.296   2.506
 4938TIP3    H114750   6.055   5.265   2.598
 4938TIP3    H214751   6.126   5.289   2.466
 4939TIP3   OH214752   5.978   6.849   1.996
 4939TIP3    H114753   5.898   6.817   1.950
 4939TIP3    H214754   5.956   6.945   2.003
 4940TIP3   OH214755   7.231   6.209   1.144
 4940TIP3    H114756   7.273   6.198   1.231
 4940TIP3    H214757   7.187   6.123   1.132
 4941TIP3   OH214758   6.542   6.117   1.508
 4941TIP3    H114759   6.570   6.048   1.571
 4941TIP3    H214760   6.617   6.177   1.513
 4942TIP3   OH214761   6.512   6.526   1.233
 4942TIP3    H114762   6.504   6.428   1.237
 4942TIP3    H214763   6.608   6.535   1.236
 4943TIP3   OH214764   6.222   5.736   1.016
 4943TIP3    H114765   6.167   5.814   1.035
 4943TIP3    H214766   6.154   5.672   0.990
 4944TIP3   OH214767   6.279   6.017   1.192
 4944TIP3    H114768   6.325   5.939   1.231
 4944TIP3    H214769   6.341   6.043   1.123
 4945TIP3   OH214770   7.041   6.446   1.192
 4945TIP3    H114771   7.082   6.369   1.149
 4945TIP3    H214772   7.122   6.495   1.216
 4946TIP3   OH214773   8.041   5.776   1.193
 4946TIP3    H114774   8.077   5.849   1.243
 4946TIP3    H214775   8.073   5.795   1.104
 4947TIP3   OH214776   7.453   5.950   1.235
 4947TIP3    H114777   7.495   5.864   1.254
 4947TIP3    H214778   7.423   5.936   1.143
 4948TIP3   OH214779   6.792   5.608   1.191
 4948TIP3    H114780   6.768   5.680   1.129
 4948TIP3    H214781   6.744   5.533   1.149
 4949TIP3   OH214782   7.460   5.699   0.845
 4949TIP3    H114783   7.545   5.682   0.893
 4949TIP3    H214784   7.494   5.720   0.756
 4950TIP3   OH214785   6.424   5.811   1.297
 4950TIP3    H114786   6.506   5.790   1.346
 4950TIP3    H214787   6.435   5.752   1.220
 4951TIP3   OH214788   6.865   6.007   1.088
 4951TIP3    H114789   6.957   5.981   1.105
 4951TIP3    H214790   6.824   5.923   1.059
 4952TIP3   OH214791   6.787   5.591   1.626
 4952TIP3    H114792   6.726   5.628   1.560
 4952TIP3    H214793   6.736   5.607   1.708
 4953TIP3   OH214794   6.893   6.367   1.422
 4953TIP3    H114795   6.830   6.432   1.460
 4953TIP3    H214796   6.935   6.420   1.351
 4954TIP3   OH214797   7.700   5.701   0.983
 4954TIP3    H114798   7.683   5.652   1.065
 4954TIP3    H214799   7.744   5.782   1.017
 4955TIP3   OH214800   6.658   5.707   1.410
 4955TIP3    H114801   6.720   5.779   1.434
 4955TIP3    H214802   6.708   5.665   1.336
 4956TIP3   OH214803   6.719   6.560   1.518
 4956TIP3    H114804   6.696   6.648   1.482
 4956TIP3    H214805   6.641   6.545   1.575
 4957TIP3   OH214806   6.120   6.247   0.752
 4957TIP3    H114807   6.031   6.269   0.722
 4957TIP3    H214808   6.149   6.334   0.788
 4958TIP3   OH214809   7.848   5.660   1.358
 4958TIP3    H114810   7.761   5.697   1.336
 4958TIP3    H214811   7.905   5.697   1.287
 4959TIP3   OH214812   7.144   5.311   1.341
 4959TIP3    H114813   7.130   5.216   1.359
 4959TIP3    H214814   7.066   5.349   1.387
 4960TIP3   OH214815   8.009   6.297   1.215
 4960TIP3    H114816   7.917   6.331   1.224
 4960TIP3    H214817   8.029   6.334   1.128
 4961TIP3   OH214818   7.655   6.193   1.481
 4961TIP3    H114819   7.653   6.274   1.535
 4961TIP3    H214820   7.569   6.200   1.435
 4962TIP3   OH214821   6.655   6.155   0.984
 4962TIP3    H114822   6.613   6.093   0.920
 4962TIP3    H214823   6.732   6.102   1.014
 4963TIP3   OH214824   6.785   6.567   1.140
 4963TIP3    H114825   6.760   6.524   1.057
 4963TIP3    H214826   6.875   6.531   1.155
 4964TIP3   OH214827   6.792   6.124   1.337
 4964TIP3    H114828   6.825   6.106   1.247
 4964TIP3    H214829   6.834   6.210   1.359
 4965TIP3   OH214830   7.285   6.744   1.097
 4965TIP3    H114831   7.300   6.827   1.147
 4965TIP3    H214832   7.293   6.675   1.164
 4966TIP3   OH214833   6.925   6.680   1.663
 4966TIP3    H114834   6.866   6.742   1.710
 4966TIP3    H214835   6.860   6.627   1.614
 4967TIP3   OH214836   6.680   6.239   1.760
 4967TIP3    H114837   6.685   6.325   1.806
 4967TIP3    H214838   6.585   6.217   1.776
 4968TIP3   OH214839   6.721   6.849   1.749
 4968TIP3    H114840   6.685   6.847   1.658
 4968TIP3    H214841   6.641   6.828   1.803
 4969TIP3   OH214842   6.516   5.991   0.809
 4969TIP3    H114843   6.453   6.031   0.746
 4969TIP3    H214844   6.472   5.907   0.830
 4970TIP3   OH214845   6.301   6.379   1.695
 4970TIP3    H114846   6.233   6.356   1.629
 4970TIP3    H214847   6.337   6.292   1.721
 4971TIP3   OH214848   6.154   6.580   1.318
 4971TIP3    H114849   6.250   6.568   1.323
 4971TIP3    H214850   6.140   6.651   1.382
 4972TIP3   OH214851   7.115   6.814   1.516
 4972TIP3    H114852   7.117   6.906   1.548
 4972TIP3    H214853   7.048   6.773   1.575
 4973TIP3   OH214854   6.297   6.775   0.869
 4973TIP3    H114855   6.371   6.775   0.935
 4973TIP3    H214856   6.222   6.763   0.931
 4974TIP3   OH214857   7.916   6.165   1.664
 4974TIP3    H114858   7.847   6.175   1.598
 4974TIP3    H214859   7.947   6.074   1.646
 4975TIP3   OH214860   6.504   6.563   1.684
 4975TIP3    H114861   6.555   6.547   1.767
 4975TIP3    H214862   6.431   6.499   1.693
 4976TIP3   OH214863   6.905   5.388   1.467
 4976TIP3    H114864   6.816   5.355   1.441
 4976TIP3    H214865   6.878   5.468   1.516
 4977TIP3   OH214866   7.438   5.501   1.663
 4977TIP3    H114867   7.505   5.475   1.729
 4977TIP3    H214868   7.353   5.482   1.710
 4978TIP3   OH214869   7.671   5.925   1.576
 4978TIP3    H114870   7.628   5.925   1.665
 4978TIP3    H214871   7.657   6.017   1.547
 4979TIP3   OH214872   6.836   5.902   1.487
 4979TIP3    H114873   6.786   5.923   1.569
 4979TIP3    H214874   6.820   5.983   1.434
 4980TIP3   OH214875   6.719   5.785   0.999
 4980TIP3    H114876   6.627   5.759   1.022
 4980TIP3    H214877   6.725   5.747   0.909
 4981TIP3   OH214878   7.385   6.152   1.814
 4981TIP3    H114879   7.364   6.080   1.877
 4981TIP3    H214880   7.478   6.169   1.835
 4982TIP3   OH214881   7.365   5.910   0.982
 4982TIP3    H114882   7.324   5.955   0.907
 4982TIP3    H214883   7.395   5.825   0.940
 4983TIP3   OH214884   6.655   5.930   1.695
 4983TIP3    H114885   6.680   5.994   1.764
 4983TIP3    H214886   6.642   5.848   1.747
 4984TIP3   OH214887   6.246   5.460   1.274
 4984TIP3    H114888   6.326   5.482   1.326
 4984TIP3    H214889   6.280   5.416   1.195
 4985TIP3   OH214890   6.227   5.437   0.802
 4985TIP3    H114891   6.274   5.467   0.722
 4985TIP3    H214892   6.163   5.509   0.817
 4986TIP3   OH214893   7.369   6.152   1.390
 4986TIP3    H114894   7.408   6.081   1.333
 4986TIP3    H214895   7.346   6.098   1.469
 4987TIP3   OH214896   7.044   5.612   1.058
 4987TIP3    H114897   6.962   5.609   1.112
 4987TIP3    H214898   7.112   5.610   1.128
 4988TIP3   OH214899   6.482   5.665   1.067
 4988TIP3    H114900   6.387   5.674   1.043
 4988TIP3    H214901   6.501   5.572   1.050
 4989TIP3   OH214902   6.753   5.673   0.746
 4989TIP3    H114903   6.850   5.675   0.759
 4989TIP3    H214904   6.742   5.718   0.662
 4990TIP3   OH214905   7.538   5.686   1.259
 4990TIP3    H114906   7.508   5.698   1.352
 4990TIP3    H214907   7.470   5.624   1.227
 4991TIP3   OH214908   6.667   6.485   1.904
 4991TIP3    H114909   6.746   6.515   1.952
 4991TIP3    H214910   6.602   6.483   1.978
 4992TIP3   OH214911   7.129   5.938   1.161
 4992TIP3    H114912   7.209   5.900   1.120
 4992TIP3    H214913   7.133   5.899   1.251
 4993TIP3   OH214914   6.659   5.423   1.038
 4993TIP3    H114915   6.617   5.348   1.086
 4993TIP3    H214916   6.712   5.376   0.972
 4994TIP3   OH214917   7.107   5.839   1.445
 4994TIP3    H114918   7.017   5.873   1.465
 4994TIP3    H214919   7.165   5.896   1.499
 4995TIP3   OH214920   7.751   6.373   1.161
 4995TIP3    H114921   7.737   6.466   1.135
 4995TIP3    H214922   7.658   6.342   1.165
 4996TIP3   OH214923   7.242   6.534   1.546
 4996TIP3    H114924   7.263   6.515   1.639
 4996TIP3    H214925   7.206   6.624   1.552
 4997TIP3   OH214926   6.535   6.248   1.221
 4997TIP3    H114927   6.577   6.216   1.138
 4997TIP3    H214928   6.572   6.187   1.287
 4998TIP3   OH214929   6.417   6.168   1.833
 4998TIP3    H114930   6.436   6.154   1.928
 4998TIP3    H214931   6.347   6.101   1.818
 4999TIP3   OH214932   7.142   6.282   1.853
 4999TIP3    H114933   7.083   6.221   1.806
 4999TIP3    H214934   7.230   6.248   1.826
 5000TIP3   OH214935   7.390   6.779   1.462
 5000TIP3    H114936   7.294   6.790   1.448
 5000TIP3    H214937   7.401   6.832   1.544
 5001TIP3   OH214938   7.491   6.309   1.116
 5001TIP3    H114939   7.395   6.292   1.110
 5001TIP3    H214940   7.526   6.237   1.059
 5002TIP3   OH214941   6.634   6.556   0.880
 5002TIP3    H114942   6.652   6.611   0.801
 5002TIP3    H214943   6.545   6.583   0.903
 5003TIP3   OH214944   6.197   5.854   0.563
 5003TIP3    H114945   6.243   5.930   0.602
 5003TIP3    H214946   6.118   5.849   0.622
 5004TIP3   OH214947   6.767   6.333   0.799
 5004TIP3    H114948   6.738   6.416   0.841
 5004TIP3    H214949   6.747   6.268   0.868
 5005TIP3   OH214950   6.903   6.888   1.319
 5005TIP3    H114951   6.945   6.956   1.260
 5005TIP3    H214952   6.982   6.856   1.365
 5006TIP3   OH214953   7.295   6.521   1.274
 5006TIP3    H114954   7.284   6.519   1.372
 5006TIP3    H214955   7.375   6.469   1.262
 5007TIP3   OH214956   6.628   5.674   1.841
 5007TIP3    H114957   6.531   5.678   1.855
 5007TIP3    H214958   6.655   5.614   1.913
 5008TIP3   OH214959   6.346   6.757   1.473
 5008TIP3    H114960   6.398   6.683   1.507
 5008TIP3    H214961   6.369   6.826   1.537
 5009TIP3   OH214962   6.320   6.095   0.644
 5009TIP3    H114963   6.246   6.132   0.698
 5009TIP3    H214964   6.352   6.178   0.606
 5010TIP3   OH214965   7.467   5.733   1.516
 5010TIP3    H114966   7.542   5.780   1.557
 5010TIP3    H214967   7.455   5.656   1.576
 5011TIP3   OH214968   7.024   5.662   0.791
 5011TIP3    H114969   7.099   5.720   0.772
 5011TIP3    H214970   7.031   5.652   0.889
 5012TIP3   OH214971   7.305   5.988   1.599
 5012TIP3    H114972   7.324   6.044   1.677
 5012TIP3    H214973   7.362   5.911   1.616
 5013TIP3   OH214974   7.193   5.408   0.900
 5013TIP3    H114975   7.180   5.468   0.976
 5013TIP3    H214976   7.265   5.453   0.854
 5014TIP3   OH214977   6.690   5.393   0.673
 5014TIP3    H114978   6.683   5.481   0.714
 5014TIP3    H214979   6.779   5.368   0.706
 5015TIP3   OH214980   7.944   5.904   1.565
 5015TIP3    H114981   7.847   5.898   1.577
 5015TIP3    H214982   7.955   5.856   1.483
 5016TIP3   OH214983   7.590   6.091   0.979
 5016TIP3    H114984   7.522   6.022   0.986
 5016TIP3    H214985   7.668   6.043   1.013
 5017TIP3   OH214986   6.252   5.584   0.562
 5017TIP3    H114987   6.234   5.680   0.567
 5017TIP3    H214988   6.163   5.547   0.552
 5018TIP3   OH214989   6.642   5.306   1.443
 5018TIP3    H114990   6.608   5.271   1.357
 5018TIP3    H214991   6.630   5.229   1.502
 5019TIP3   OH214992   6.164   6.508   0.825
 5019TIP3    H114993   6.116   6.547   0.899
 5019TIP3    H214994   6.239   6.568   0.817
 5020TIP3   OH214995   6.334   7.066   1.894
 5020TIP3    H114996   6.420   7.066   1.942
 5020TIP3    H214997   6.314   6.971   1.895
 5021TIP3   OH214998   6.815   7.031   1.941
 5021TIP3    H114999   6.910   7.014   1.949
 5021TIP3    H215000   6.792   6.972   1.867
 5022TIP3   OH215001   7.453   6.928   1.680
 5022TIP3    H115002   7.447   6.862   1.752
 5022TIP3    H215003   7.533   6.977   1.704
 5023TIP3   OH215004   6.466   6.473   2.096
 5023TIP3    H115005   6.482   6.377   2.102
 5023TIP3    H215006   6.378   6.475   2.052
 5024TIP3   OH215007   7.073   6.556   1.870
 5024TIP3    H115008   7.032   6.574   1.783
 5024TIP3    H215009   7.104   6.463   1.861
 5025TIP3   OH215010   7.565   6.563   1.469
 5025TIP3    H115011   7.621   6.632   1.431
 5025TIP3    H215012   7.480   6.611   1.474
 5026TIP3   OH215013   6.586   6.208   2.077
 5026TIP3    H115014   6.658   6.146   2.059
 5026TIP3    H215015   6.611   6.241   2.166
 5027TIP3   OH215016   6.920   6.092   1.739
 5027TIP3    H115017   6.842   6.151   1.740
 5027TIP3    H215018   6.970   6.126   1.661
 5028TIP3   OH215019   7.439   6.493   1.871
 5028TIP3    H115020   7.520   6.467   1.824
 5028TIP3    H215021   7.436   6.427   1.943
 5029TIP3   OH215022   7.043   5.880   1.866
 5029TIP3    H115023   7.043   5.800   1.810
 5029TIP3    H215024   6.999   5.946   1.808
 5030TIP3   OH215025   7.046   5.666   1.672
 5030TIP3    H115026   7.073   5.707   1.587
 5030TIP3    H215027   6.952   5.643   1.654
 5031TIP3   OH215028   7.073   6.199   1.543
 5031TIP3    H115029   7.158   6.211   1.500
 5031TIP3    H215030   7.017   6.268   1.501
 5032TIP3   OH215031   7.658   6.169   1.928
 5032TIP3    H115032   7.707   6.086   1.937
 5032TIP3    H215033   7.726   6.228   1.893
 5033TIP3   OH215034   7.671   6.422   1.676
 5033TIP3    H115035   7.621   6.474   1.610
 5033TIP3    H215036   7.761   6.428   1.635
 5034TIP3   OH215037   6.921   5.992   2.096
 5034TIP3    H115038   6.852   5.924   2.111
 5034TIP3    H215039   6.956   5.966   2.008
 5035TIP3   OH215040   7.177   5.429   1.738
 5035TIP3    H115041   7.128   5.511   1.717
 5035TIP3    H215042   7.107   5.361   1.728
 5036TIP3   OH215043   7.305   5.935   1.957
 5036TIP3    H115044   7.293   5.923   2.053
 5036TIP3    H215045   7.215   5.910   1.927
 5037TIP3   OH215046   7.542   5.881   1.811
 5037TIP3    H115047   7.468   5.885   1.874
 5037TIP3    H215048   7.617   5.853   1.868
 5038TIP3   OH215049   7.772   5.824   1.962
 5038TIP3    H115050   7.783   5.729   1.981
 5038TIP3    H215051   7.768   5.864   2.052
 5039TIP3   OH215052   6.761   5.772   2.148
 5039TIP3    H115053   6.766   5.680   2.115
 5039TIP3    H215054   6.797   5.760   2.239
 5040TIP3   OH215055   7.274   5.440   1.996
 5040TIP3    H115056   7.340   5.368   1.990
 5040TIP3    H215057   7.233   5.433   1.907
 5041TIP3   OH215058   7.338   5.655   2.156
 5041TIP3    H115059   7.316   5.584   2.091
 5041TIP3    H215060   7.260   5.713   2.150
 5042TIP3   OH215061   5.953   6.880   0.891
 5042TIP3    H115062   5.884   6.824   0.849
 5042TIP3    H215063   5.991   6.817   0.955
 5043TIP3   OH215064   6.106   6.721   1.063
 5043TIP3    H115065   6.080   6.654   1.129
 5043TIP3    H215066   6.144   6.787   1.125
 5044TIP3   OH215067   6.276   6.138   1.443
 5044TIP3    H115068   6.275   6.106   1.351
 5044TIP3    H215069   6.373   6.138   1.461
 5045TIP3   OH215070   7.897   6.465   1.537
 5045TIP3    H115071   7.984   6.428   1.560
 5045TIP3    H215072   7.923   6.530   1.468
 5046TIP3   OH215073   7.810   5.951   1.075
 5046TIP3    H115074   7.893   5.986   1.042
 5046TIP3    H215075   7.812   5.985   1.168
 5047TIP3   OH215076   7.853   6.081   1.308
 5047TIP3    H115077   7.785   6.122   1.366
 5047TIP3    H215078   7.916   6.154   1.297
 5048TIP3   OH215079   6.495   5.824   2.122
 5048TIP3    H115080   6.593   5.816   2.123
 5048TIP3    H215081   6.470   5.738   2.161
 5049TIP3   OH215082   6.456   5.513   1.446
 5049TIP3    H115083   6.518   5.438   1.459
 5049TIP3    H215084   6.519   5.588   1.444
 5050TIP3   OH215085   6.259   5.789   1.524
 5050TIP3    H115086   6.307   5.783   1.439
 5050TIP3    H215087   6.288   5.873   1.558
 5051TIP3   OH215088   6.241   5.302   1.035
 5051TIP3    H115089   6.146   5.288   1.052
 5051TIP3    H215090   6.240   5.353   0.951
 5052TIP3   OH215091   6.462   5.373   1.839
 5052TIP3    H115092   6.411   5.365   1.921
 5052TIP3    H215093   6.395   5.411   1.779
 5053TIP3   OH215094   6.501   6.800   1.915
 5053TIP3    H115095   6.409   6.772   1.899
 5053TIP3    H215096   6.512   6.780   2.009
 5054TIP3   OH215097   6.678   6.830   1.463
 5054TIP3    H115098   6.631   6.906   1.422
 5054TIP3    H215099   6.765   6.843   1.419
 5055TIP3   OH215100   7.138   7.087   1.596
 5055TIP3    H115101   7.168   7.080   1.690
 5055TIP3    H215102   7.213   7.133   1.557
 5056TIP3   OH215103   8.080   5.565   1.577
 5056TIP3    H115104   8.011   5.605   1.524
 5056TIP3    H215105   8.130   5.514   1.512
 5057TIP3   OH215106   6.354   7.093   1.483
 5057TIP3    H115107   6.263   7.127   1.466
 5057TIP3    H215108   6.365   7.121   1.575
 5058TIP3   OH215109   6.586   7.062   1.342
 5058TIP3    H115110   6.499   7.076   1.387
 5058TIP3    H215111   6.566   7.093   1.251
 5059TIP3   OH215112   7.003   7.074   1.154
 5059TIP3    H115113   6.952   7.111   1.081
 5059TIP3    H215114   7.028   7.153   1.206
 5060TIP3   OH215115   6.270   6.883   1.229
 5060TIP3    H115116   6.291   6.858   1.322
 5060TIP3    H215117   6.343   6.837   1.183
 5061TIP3   OH215118   6.464   6.750   1.085
 5061TIP3    H115119   6.477   6.670   1.142
 5061TIP3    H215120   6.554   6.789   1.089
 5062TIP3   OH215121   6.724   6.845   1.096
 5062TIP3    H115122   6.759   6.754   1.089
 5062TIP3    H215123   6.774   6.875   1.174
 5063TIP3   OH215124   7.296   5.498   1.167
 5063TIP3    H115125   7.258   5.433   1.229
 5063TIP3    H215126   7.376   5.453   1.135
 5064TIP3   OH215127   7.831   5.385   1.092
 5064TIP3    H115128   7.872   5.434   1.017
 5064TIP3    H215129   7.736   5.404   1.079
 5065TIP3   OH215130   6.308   3.845   9.040
 5065TIP3    H115131   6.355   3.796   8.971
 5065TIP3    H215132   6.313   3.936   9.008
 5066TIP3   OH215133   6.552   5.216   1.194
 5066TIP3    H115134   6.459   5.183   1.195
 5066TIP3    H215135   6.600   5.130   1.190
 5067TIP3   OH215136   6.346   5.083   0.846
 5067TIP3    H115137   6.373   5.141   0.772
 5067TIP3    H215138   6.311   5.147   0.910
 5068TIP3   OH215139   6.993   5.246   1.078
 5068TIP3    H115140   7.056   5.296   1.026
 5068TIP3    H215141   7.008   5.279   1.167
 5069TIP3   OH215142   7.544   5.392   1.056
 5069TIP3    H115143   7.549   5.348   0.970
 5069TIP3    H215144   7.530   5.314   1.116
 5070TIP3   OH215145   6.457   5.242   0.640
 5070TIP3    H115146   6.472   5.187   0.562
 5070TIP3    H215147   6.540   5.293   0.646
 5071TIP3   OH215148   6.943   5.399   0.765
 5071TIP3    H115149   7.015   5.346   0.801
 5071TIP3    H215150   6.978   5.488   0.779
 5072TIP3   OH215151   6.760   5.498   2.087
 5072TIP3    H115152   6.724   5.426   2.142
 5072TIP3    H215153   6.854   5.496   2.115
 5073TIP3   OH215154   7.009   5.492   2.206
 5073TIP3    H115155   7.094   5.465   2.168
 5073TIP3    H215156   6.994   5.422   2.273
 5074TIP3   OH215157   7.831   5.552   1.994
 5074TIP3    H115158   7.852   5.522   2.085
 5074TIP3    H215159   7.920   5.548   1.952
 5075TIP3   OH215160   0.503   6.552   2.882
 5075TIP3    H115161   0.532   6.635   2.925
 5075TIP3    H215162   0.529   6.569   2.789
 5076TIP3   OH215163  -0.068   6.467   2.508
 5076TIP3    H115164   0.001   6.478   2.576
 5076TIP3    H215165  -0.035   6.521   2.436
 5077TIP3   OH215166   0.569   6.758   3.062
 5077TIP3    H115167   0.492   6.814   3.041
 5077TIP3    H215168   0.607   6.805   3.139
 5078TIP3   OH215169   0.141   6.501   2.681
 5078TIP3    H115170   0.166   6.417   2.723
 5078TIP3    H215171   0.212   6.562   2.707
 5079TIP3   OH215172   0.295   6.464   3.044
 5079TIP3    H115173   0.222   6.512   3.002
 5079TIP3    H215174   0.368   6.484   2.981
 5080TIP3   OH215175   0.223   7.482   3.030
 5080TIP3    H115176   0.210   7.395   2.988
 5080TIP3    H215177   0.261   7.536   2.958
 5081TIP3   OH215178   0.430   7.099   2.872
 5081TIP3    H115179   0.349   7.154   2.880
 5081TIP3    H215180   0.460   7.125   2.783
 5082TIP3   OH215181   0.237   6.044   2.139
 5082TIP3    H115182   0.156   6.067   2.190
 5082TIP3    H215183   0.260   6.129   2.097
 5083TIP3   OH215184   0.380   6.935   3.364
 5083TIP3    H115185   0.311   6.979   3.312
 5083TIP3    H215186   0.373   6.843   3.332
 5084TIP3   OH215187   0.201   7.252   2.872
 5084TIP3    H115188   0.234   7.300   2.792
 5084TIP3    H215189   0.111   7.229   2.846
 5085TIP3   OH215190   0.476   7.504   3.127
 5085TIP3    H115191   0.380   7.515   3.108
 5085TIP3    H215192   0.509   7.490   3.035
 5086TIP3   OH215193   0.379   6.675   3.274
 5086TIP3    H115194   0.292   6.635   3.273
 5086TIP3    H215195   0.413   6.653   3.186
 5087TIP3   OH215196   0.043   6.855   2.653
 5087TIP3    H115197  -0.020   6.784   2.667
 5087TIP3    H215198   0.123   6.821   2.699
 5088TIP3   OH215199   0.311   6.603   3.704
 5088TIP3    H115200   0.301   6.508   3.681
 5088TIP3    H215201   0.217   6.630   3.695
 5089TIP3   OH215202   0.295   6.996   2.229
 5089TIP3    H115203   0.227   6.953   2.285
 5089TIP3    H215204   0.358   7.030   2.296
 5090TIP3   OH215205   0.327   7.379   2.670
 5090TIP3    H115206   0.393   7.325   2.623
 5090TIP3    H215207   0.330   7.464   2.623
 5091TIP3   OH215208   0.133   6.840   2.390
 5091TIP3    H115209   0.117   6.744   2.384
 5091TIP3    H215210   0.101   6.860   2.480
 5092TIP3   OH215211   0.383   7.267   3.245
 5092TIP3    H115212   0.461   7.208   3.239
 5092TIP3    H215213   0.408   7.341   3.188
 5093TIP3   OH215214   0.579   7.082   3.258
 5093TIP3    H115215   0.511   7.033   3.308
 5093TIP3    H215216   0.656   7.021   3.270
 5094TIP3   OH215217   0.129   6.566   2.309
 5094TIP3    H115218   0.143   6.476   2.345
 5094TIP3    H215219   0.158   6.549   2.218
 5095TIP3   OH215220   0.262   6.748   2.784
 5095TIP3    H115221   0.347   6.771   2.739
 5095TIP3    H215222   0.280   6.788   2.871
 5096TIP3   OH215223   0.320   6.890   3.017
 5096TIP3    H115224   0.234   6.922   3.050
 5096TIP3    H215225   0.355   6.970   2.971
 5097TIP3   OH215226   0.764   6.455   3.567
 5097TIP3    H115227   0.833   6.401   3.523
 5097TIP3    H215228   0.762   6.535   3.513
 5098TIP3   OH215229   0.214   6.305   2.321
 5098TIP3    H115230   0.260   6.291   2.406
 5098TIP3    H215231   0.146   6.235   2.323
 5099TIP3   OH215232   0.641   6.624   3.371
 5099TIP3    H115233   0.547   6.646   3.368
 5099TIP3    H215234   0.640   6.540   3.321
 5100TIP3   OH215235   0.340   6.250   1.989
 5100TIP3    H115236   0.350   6.184   1.917
 5100TIP3    H215237   0.361   6.333   1.944
 5101TIP3   OH215238   0.549   6.373   3.250
 5101TIP3    H115239   0.458   6.356   3.220
 5101TIP3    H215240   0.588   6.283   3.240
 5102TIP3   OH215241   0.295   6.180   2.779
 5102TIP3    H115242   0.331   6.225   2.699
 5102TIP3    H215243   0.198   6.192   2.766
 5103TIP3   OH215244   0.376   6.280   2.541
 5103TIP3    H115245   0.446   6.225   2.500
 5103TIP3    H215246   0.409   6.371   2.521
 5104TIP3   OH215247   0.032   6.208   2.743
 5104TIP3    H115248  -0.029   6.204   2.668
 5104TIP3    H215249   0.013   6.124   2.790
 5105TIP3   OH215250   0.029   6.100   2.313
 5105TIP3    H115251  -0.056   6.126   2.275
 5105TIP3    H215252   0.008   6.011   2.348
 5106TIP3   OH215253   0.288   6.334   3.681
 5106TIP3    H115254   0.305   6.306   3.774
 5106TIP3    H215255   0.376   6.323   3.640
 5107TIP3   OH215256   1.492   7.257   1.950
 5107TIP3    H115257   1.454   7.344   1.927
 5107TIP3    H215258   1.424   7.199   1.913
 5108TIP3   OH215259   1.492   7.266   2.322
 5108TIP3    H115260   1.522   7.237   2.410
 5108TIP3    H215261   1.451   7.185   2.287
 5109TIP3   OH215262   0.788   7.162   2.688
 5109TIP3    H115263   0.819   7.095   2.752
 5109TIP3    H215264   0.865   7.220   2.685
 5110TIP3   OH215265   1.716   7.569   2.013
 5110TIP3    H115266   1.714   7.496   2.076
 5110TIP3    H215267   1.743   7.643   2.068
 5111TIP3   OH215268   0.817   7.517   2.486
 5111TIP3    H115269   0.787   7.430   2.453
 5111TIP3    H215270   0.896   7.533   2.429
 5112TIP3   OH215271   0.456   6.759   2.186
 5112TIP3    H115272   0.419   6.850   2.182
 5112TIP3    H215273   0.405   6.721   2.259
 5113TIP3   OH215274   0.527   7.059   2.368
 5113TIP3    H115275   0.573   6.982   2.407
 5113TIP3    H215276   0.598   7.100   2.317
 5114TIP3   OH215277   1.302   7.485   2.365
 5114TIP3    H115278   1.348   7.407   2.330
 5114TIP3    H215279   1.381   7.538   2.390
 5115TIP3   OH215280   2.300   6.812   2.368
 5115TIP3    H115281   2.331   6.894   2.411
 5115TIP3    H215282   2.327   6.829   2.275
 5116TIP3   OH215283   1.700   6.995   2.403
 5116TIP3    H115284   1.743   6.910   2.425
 5116TIP3    H215285   1.671   6.977   2.312
 5117TIP3   OH215286   1.038   6.652   2.369
 5117TIP3    H115287   1.019   6.725   2.306
 5117TIP3    H215288   0.991   6.579   2.324
 5118TIP3   OH215289   1.733   6.743   1.990
 5118TIP3    H115290   1.804   6.727   2.056
 5118TIP3    H215291   1.787   6.778   1.917
 5119TIP3   OH215292   0.672   6.853   2.475
 5119TIP3    H115293   0.754   6.836   2.525
 5119TIP3    H215294   0.689   6.798   2.395
 5120TIP3   OH215295   1.113   7.055   2.267
 5120TIP3    H115296   1.207   7.029   2.281
 5120TIP3    H215297   1.074   6.969   2.238
 5121TIP3   OH215298   2.375   7.019   2.537
 5121TIP3    H115299   2.290   7.065   2.521
 5121TIP3    H215300   2.391   7.044   2.630
 5122TIP3   OH215301   1.036   6.636   2.801
 5122TIP3    H115302   0.975   6.673   2.734
 5122TIP3    H215303   0.985   6.654   2.883
 5123TIP3   OH215304   1.376   7.468   1.821
 5123TIP3    H115305   1.355   7.440   1.729
 5123TIP3    H215306   1.379   7.564   1.813
 5124TIP3   OH215307   1.137   7.414   2.598
 5124TIP3    H115308   1.077   7.479   2.638
 5124TIP3    H215309   1.177   7.467   2.526
 5125TIP3   OH215310   1.942   6.747   2.162
 5125TIP3    H115311   1.937   6.694   2.243
 5125TIP3    H215312   1.998   6.821   2.189
 5126TIP3   OH215313   0.905   6.751   2.587
 5126TIP3    H115314   0.967   6.824   2.611
 5126TIP3    H215315   0.955   6.710   2.513
 5127TIP3   OH215316   0.967   7.629   2.699
 5127TIP3    H115317   0.920   7.620   2.614
 5127TIP3    H215318   0.891   7.621   2.760
 5128TIP3   OH215319   2.095   6.712   2.534
 5128TIP3    H115320   2.007   6.742   2.504
 5128TIP3    H215321   2.154   6.745   2.463
 5129TIP3   OH215322   1.391   6.355   2.514
 5129TIP3    H115323   1.380   6.260   2.534
 5129TIP3    H215324   1.314   6.392   2.563
 5130TIP3   OH215325   1.732   7.558   1.737
 5130TIP3    H115326   1.662   7.495   1.718
 5130TIP3    H215327   1.743   7.549   1.834
 5131TIP3   OH215328   2.037   7.763   2.463
 5131TIP3    H115329   2.011   7.669   2.453
 5131TIP3    H215330   1.951   7.806   2.485
 5132TIP3   OH215331   1.336   7.111   1.775
 5132TIP3    H115332   1.258   7.169   1.762
 5132TIP3    H215333   1.376   7.114   1.686
 5133TIP3   OH215334   1.301   6.892   1.507
 5133TIP3    H115335   1.369   6.949   1.548
 5133TIP3    H215336   1.358   6.832   1.455
 5134TIP3   OH215337   2.223   7.359   2.361
 5134TIP3    H115338   2.143   7.414   2.370
 5134TIP3    H215339   2.251   7.381   2.270
 5135TIP3   OH215340   1.670   7.198   1.750
 5135TIP3    H115341   1.614   7.218   1.829
 5135TIP3    H215342   1.754   7.171   1.792
 5136TIP3   OH215343   1.904   7.239   2.656
 5136TIP3    H115344   1.903   7.319   2.711
 5136TIP3    H215345   1.816   7.245   2.613
 5137TIP3   OH215346   0.907   7.200   2.152
 5137TIP3    H115347   0.861   7.136   2.094
 5137TIP3    H215348   0.982   7.146   2.186
 5138TIP3   OH215349   1.038   7.573   2.346
 5138TIP3    H115350   1.025   7.540   2.257
 5138TIP3    H215351   1.135   7.581   2.351
 5139TIP3   OH215352   1.033   7.172   2.512
 5139TIP3    H115353   1.072   7.150   2.425
 5139TIP3    H215354   1.078   7.257   2.534
 5140TIP3   OH215355   1.208   7.627   2.838
 5140TIP3    H115356   1.187   7.717   2.868
 5140TIP3    H215357   1.127   7.608   2.786
 5141TIP3   OH215358   1.517   7.054   1.571
 5141TIP3    H115359   1.571   7.119   1.621
 5141TIP3    H215360   1.541   7.077   1.477
 5142TIP3   OH215361   0.930   7.284   2.937
 5142TIP3    H115362   0.937   7.371   2.982
 5142TIP3    H215363   0.835   7.264   2.952
 5143TIP3   OH215364   2.025   6.300   1.618
 5143TIP3    H115365   1.944   6.319   1.669
 5143TIP3    H215366   2.037   6.384   1.568
 5144TIP3   OH215367   0.753   7.039   1.971
 5144TIP3    H115368   0.704   7.084   1.901
 5144TIP3    H215369   0.718   6.949   1.964
 5145TIP3   OH215370   0.561   7.425   2.880
 5145TIP3    H115371   0.497   7.404   2.810
 5145TIP3    H215372   0.596   7.337   2.905
 5146TIP3   OH215373   2.157   7.198   2.836
 5146TIP3    H115374   2.075   7.209   2.786
 5146TIP3    H215375   2.173   7.102   2.826
 5147TIP3   OH215376   0.755   7.622   2.872
 5147TIP3    H115377   0.808   7.590   2.947
 5147TIP3    H215378   0.681   7.556   2.870
 5148TIP3   OH215379   1.153   6.431   2.645
 5148TIP3    H115380   1.063   6.400   2.618
 5148TIP3    H215381   1.128   6.513   2.691
 5149TIP3   OH215382   1.687   6.546   2.839
 5149TIP3    H115383   1.756   6.519   2.903
 5149TIP3    H215384   1.604   6.526   2.887
 5150TIP3   OH215385   1.925   6.975   2.758
 5150TIP3    H115386   1.877   6.970   2.843
 5150TIP3    H215387   1.901   7.063   2.724
 5151TIP3   OH215388   1.587   7.090   1.315
 5151TIP3    H115389   1.557   7.073   1.223
 5151TIP3    H215390   1.644   7.168   1.303
 5152TIP3   OH215391   1.292   6.487   1.611
 5152TIP3    H115392   1.267   6.481   1.705
 5152TIP3    H215393   1.260   6.399   1.581
 5153TIP3   OH215394   1.082   6.949   2.661
 5153TIP3    H115395   1.036   6.971   2.745
 5153TIP3    H215396   1.066   7.030   2.609
 5154TIP3   OH215397   0.967   6.836   2.181
 5154TIP3    H115398   0.874   6.807   2.196
 5154TIP3    H215399   0.982   6.797   2.092
 5155TIP3   OH215400   1.464   6.914   1.908
 5155TIP3    H115401   1.411   6.984   1.863
 5155TIP3    H215402   1.519   6.882   1.834
 5156TIP3   OH215403   1.637   7.192   2.986
 5156TIP3    H115404   1.615   7.123   3.052
 5156TIP3    H215405   1.728   7.214   3.013
 5157TIP3   OH215406   1.618   6.948   2.144
 5157TIP3    H115407   1.557   6.974   2.072
 5157TIP3    H215408   1.652   6.865   2.103
 5158TIP3   OH215409   0.901   6.976   2.873
 5158TIP3    H115410   0.938   7.039   2.937
 5158TIP3    H215411   0.896   6.894   2.926
 5159TIP3   OH215412   0.948   6.439   1.576
 5159TIP3    H115413   0.954   6.452   1.672
 5159TIP3    H215414   0.856   6.466   1.561
 5160TIP3   OH215415   0.494   6.508   2.455
 5160TIP3    H115416   0.576   6.529   2.503
 5160TIP3    H215417   0.524   6.469   2.371
 5161TIP3   OH215418   0.462   6.505   1.949
 5161TIP3    H115419   0.545   6.524   1.904
 5161TIP3    H215420   0.455   6.577   2.013
 5162TIP3   OH215421   1.627   7.195   2.568
 5162TIP3    H115422   1.660   7.122   2.510
 5162TIP3    H215423   1.599   7.142   2.645
 5163TIP3   OH215424   1.295   6.660   2.240
 5163TIP3    H115425   1.215   6.654   2.295
 5163TIP3    H215426   1.365   6.651   2.306
 5164TIP3   OH215427   0.728   6.710   2.246
 5164TIP3    H115428   0.636   6.711   2.211
 5164TIP3    H215429   0.757   6.618   2.229
 5165TIP3   OH215430   1.007   6.715   1.940
 5165TIP3    H115431   1.104   6.722   1.925
 5165TIP3    H215432   0.971   6.717   1.849
 5166TIP3   OH215433   1.787   6.732   2.441
 5166TIP3    H115434   1.753   6.743   2.533
 5166TIP3    H215435   1.723   6.670   2.405
 5167TIP3   OH215436   0.873   6.695   1.709
 5167TIP3    H115437   0.777   6.706   1.717
 5167TIP3    H215438   0.893   6.755   1.634
 5168TIP3   OH215439   0.916   7.527   3.078
 5168TIP3    H115440   0.999   7.549   3.126
 5168TIP3    H215441   0.854   7.520   3.154
 5169TIP3   OH215442   1.378   6.984   2.336
 5169TIP3    H115443   1.450   6.943   2.286
 5169TIP3    H215444   1.387   6.942   2.424
 5170TIP3   OH215445   0.900   6.472   2.213
 5170TIP3    H115446   0.867   6.393   2.260
 5170TIP3    H215447   0.953   6.432   2.143
 5171TIP3   OH215448   1.355   6.880   2.626
 5171TIP3    H115449   1.266   6.918   2.641
 5171TIP3    H215450   1.414   6.940   2.677
 5172TIP3   OH215451   1.119   7.269   1.749
 5172TIP3    H115452   1.055   7.195   1.753
 5172TIP3    H215453   1.095   7.318   1.831
 5173TIP3   OH215454   1.992   7.509   2.348
 5173TIP3    H115455   2.004   7.550   2.261
 5173TIP3    H215456   1.908   7.459   2.335
 5174TIP3   OH215457   1.547   6.588   1.576
 5174TIP3    H115458   1.451   6.570   1.590
 5174TIP3    H215459   1.559   6.679   1.608
 5175TIP3   OH215460   1.513   7.608   2.721
 5175TIP3    H115461   1.530   7.557   2.802
 5175TIP3    H215462   1.438   7.662   2.751
 5176TIP3   OH215463   1.621   6.828   1.688
 5176TIP3    H115464   1.718   6.834   1.704
 5176TIP3    H215465   1.604   6.910   1.637
 5177TIP3   OH215466   0.768   7.255   2.389
 5177TIP3    H115467   0.820   7.244   2.307
 5177TIP3    H215468   0.824   7.210   2.455
 5178TIP3   OH215469   1.296   7.387   1.570
 5178TIP3    H115470   1.241   7.449   1.517
 5178TIP3    H215471   1.225   7.339   1.617
 5179TIP3   OH215472   0.668   7.209   3.013
 5179TIP3    H115473   0.690   7.196   3.107
 5179TIP3    H215474   0.598   7.142   3.000
 5180TIP3   OH215475   1.393   7.308   3.035
 5180TIP3    H115476   1.336   7.258   2.975
 5180TIP3    H215477   1.482   7.282   3.005
 5181TIP3   OH215478   2.062   6.920   1.525
 5181TIP3    H115479   2.001   6.875   1.462
 5181TIP3    H215480   2.059   7.009   1.484
 5182TIP3   OH215481   2.282   7.747   2.610
 5182TIP3    H115482   2.192   7.779   2.595
 5182TIP3    H215483   2.313   7.731   2.519
 5183TIP3   OH215484   1.759   7.372   2.262
 5183TIP3    H115485   1.667   7.345   2.282
 5183TIP3    H215486   1.792   7.288   2.223
 5184TIP3   OH215487   1.031   7.380   1.983
 5184TIP3    H115488   0.991   7.462   2.012
 5184TIP3    H215489   0.997   7.316   2.048
 5185TIP3   OH215490   1.545   7.572   2.447
 5185TIP3    H115491   1.533   7.584   2.543
 5185TIP3    H215492   1.627   7.522   2.442
 5186TIP3   OH215493   1.510   7.415   1.330
 5186TIP3    H115494   1.570   7.400   1.407
 5186TIP3    H215495   1.424   7.407   1.374
 5187TIP3   OH215496   0.879   6.718   3.019
 5187TIP3    H115497   0.783   6.715   3.033
 5187TIP3    H215498   0.911   6.659   3.090
 5188TIP3   OH215499   1.680   7.358   1.530
 5188TIP3    H115500   1.677   7.301   1.610
 5188TIP3    H215501   1.776   7.379   1.527
 5189TIP3   OH215502   1.713   6.783   2.700
 5189TIP3    H115503   1.792   6.821   2.740
 5189TIP3    H215504   1.699   6.702   2.754
 5190TIP3   OH215505   1.591   6.537   1.864
 5190TIP3    H115506   1.582   6.561   1.770
 5190TIP3    H215507   1.633   6.617   1.902
 5191TIP3   OH215508   1.283   6.714   1.969
 5191TIP3    H115509   1.350   6.784   1.951
 5191TIP3    H215510   1.289   6.706   2.066
 5192TIP3   OH215511   1.552   7.032   2.774
 5192TIP3    H115512   1.576   7.087   2.852
 5192TIP3    H215513   1.607   6.953   2.787
 5193TIP3   OH215514   1.427   6.441   2.069
 5193TIP3    H115515   1.427   6.515   2.132
 5193TIP3    H215516   1.487   6.476   2.000
 5194TIP3   OH215517   0.948   6.438   1.859
 5194TIP3    H115518   0.943   6.530   1.889
 5194TIP3    H215519   1.045   6.422   1.868
 5195TIP3   OH215520   2.193   6.932   2.754
 5195TIP3    H115521   2.095   6.931   2.762
 5195TIP3    H215522   2.203   6.888   2.669
 5196TIP3   OH215523   1.843   7.129   2.145
 5196TIP3    H115524   1.768   7.068   2.156
 5196TIP3    H215525   1.915   7.081   2.192
 5197TIP3   OH215526   0.887   6.351   2.621
 5197TIP3    H115527   0.857   6.317   2.534
 5197TIP3    H215528   0.877   6.272   2.679
 5198TIP3   OH215529   0.713   7.493   3.260
 5198TIP3    H115530   0.736   7.398   3.267
 5198TIP3    H215531   0.624   7.489   3.220
 5199TIP3   OH215532   1.352   7.578   3.063
 5199TIP3    H115533   1.306   7.589   2.977
 5199TIP3    H215534   1.371   7.482   3.061
 5200TIP3   OH215535   1.814   7.605   2.644
 5200TIP3    H115536   1.849   7.694   2.630
 5200TIP3    H215537   1.721   7.627   2.663
 5201TIP3   OH215538   0.837   7.241   3.257
 5201TIP3    H115539   0.919   7.196   3.233
 5201TIP3    H215540   0.862   7.279   3.343
 5202TIP3   OH215541   0.941   7.066   1.737
 5202TIP3    H115542   0.893   7.019   1.807
 5202TIP3    H215543   0.945   6.999   1.667
 5203TIP3   OH215544   1.163   7.130   2.910
 5203TIP3    H115545   1.092   7.196   2.917
 5203TIP3    H215546   1.217   7.167   2.836
 5204TIP3   OH215547   1.024   6.858   1.513
 5204TIP3    H115548   1.038   6.806   1.433
 5204TIP3    H215549   1.116   6.887   1.529
 5205TIP3   OH215550   1.686   7.521   3.044
 5205TIP3    H115551   1.779   7.518   3.017
 5205TIP3    H215552   1.686   7.463   3.123
 5206TIP3   OH215553   1.838   7.203   1.182
 5206TIP3    H115554   1.803   7.159   1.103
 5206TIP3    H215555   1.800   7.294   1.173
 5207TIP3   OH215556   1.289   6.924   3.043
 5207TIP3    H115557   1.293   6.844   2.987
 5207TIP3    H215558   1.246   6.989   2.984
 5208TIP3   OH215559   1.294   6.711   2.850
 5208TIP3    H115560   1.323   6.752   2.766
 5208TIP3    H215561   1.201   6.688   2.830
 5209TIP3   OH215562   1.317   7.247   2.723
 5209TIP3    H115563   1.401   7.253   2.676
 5209TIP3    H215564   1.263   7.316   2.680
 5210TIP3   OH215565   1.903   7.214   3.105
 5210TIP3    H115566   1.955   7.133   3.114
 5210TIP3    H215567   1.970   7.278   3.077
 5211TIP3   OH215568   1.943   7.461   2.835
 5211TIP3    H115569   1.888   7.515   2.775
 5211TIP3    H215570   2.032   7.480   2.797
 5212TIP3   OH215571   1.165   7.038   3.271
 5212TIP3    H115572   1.099   6.968   3.286
 5212TIP3    H215573   1.203   7.011   3.185
 5213TIP3   OH215574   1.427   6.474   2.916
 5213TIP3    H115575   1.377   6.556   2.894
 5213TIP3    H215576   1.358   6.406   2.905
 5214TIP3   OH215577   1.554   6.979   3.133
 5214TIP3    H115578   1.545   6.968   3.229
 5214TIP3    H215579   1.463   6.954   3.105
 5215TIP3   OH215580   1.791   6.924   2.986
 5215TIP3    H115581   1.717   6.929   3.049
 5215TIP3    H215582   1.865   6.896   3.043
 5216TIP3   OH215583   2.019   6.868   3.138
 5216TIP3    H115584   2.033   6.773   3.156
 5216TIP3    H215585   2.016   6.907   3.227
 5217TIP3   OH215586   1.006   6.817   3.326
 5217TIP3    H115587   1.017   6.726   3.292
 5217TIP3    H215588   1.044   6.807   3.416
 5218TIP3   OH215589   1.520   6.483   3.174
 5218TIP3    H115590   1.588   6.414   3.169
 5218TIP3    H215591   1.481   6.478   3.085
 5219TIP3   OH215592   1.586   6.699   3.334
 5219TIP3    H115593   1.565   6.628   3.269
 5219TIP3    H215594   1.508   6.758   3.326
 5220TIP3   OH215595   2.165   7.884   2.878
 5220TIP3    H115596   2.089   7.868   2.939
 5220TIP3    H215597   2.205   7.962   2.919
 5221TIP3   OH215598   1.954   7.379   1.528
 5221TIP3    H115599   2.028   7.437   1.500
 5221TIP3    H215600   1.994   7.339   1.609
 5222TIP3   OH215601   2.082   7.249   1.730
 5222TIP3    H115602   2.019   7.206   1.792
 5222TIP3    H215603   2.152   7.283   1.789
 5223TIP3   OH215604   2.130   7.669   2.140
 5223TIP3    H115605   2.191   7.597   2.115
 5223TIP3    H215606   2.096   7.698   2.054
 5224TIP3   OH215607   2.025   7.157   1.378
 5224TIP3    H115608   1.956   7.161   1.308
 5224TIP3    H215609   1.996   7.232   1.433
 5225TIP3   OH215610   1.895   6.831   1.330
 5225TIP3    H115611   1.847   6.870   1.256
 5225TIP3    H215612   1.871   6.737   1.320
 5226TIP3   OH215613   1.898   7.106   1.877
 5226TIP3    H115614   1.908   7.010   1.869
 5226TIP3    H215615   1.885   7.118   1.974
 5227TIP3   OH215616   0.525   7.186   2.621
 5227TIP3    H115617   0.524   7.154   2.529
 5227TIP3    H215618   0.622   7.187   2.639
 5228TIP3   OH215619   2.182   7.525   2.729
 5228TIP3    H115620   2.255   7.458   2.725
 5228TIP3    H215621   2.222   7.600   2.683
 5229TIP3   OH215622   2.372   7.337   2.750
 5229TIP3    H115623   2.299   7.285   2.790
 5229TIP3    H215624   2.446   7.275   2.764
 5230TIP3   OH215625   1.837   6.565   1.314
 5230TIP3    H115626   1.914   6.537   1.367
 5230TIP3    H215627   1.767   6.504   1.341
 5231TIP3   OH215628   1.895   6.824   1.770
 5231TIP3    H115629   1.935   6.735   1.786
 5231TIP3    H215630   1.954   6.855   1.700
 5232TIP3   OH215631   2.056   7.000   2.263
 5232TIP3    H115632   2.142   7.026   2.224
 5232TIP3    H215633   2.070   7.033   2.354
 5233TIP3   OH215634   2.124   7.139   2.497
 5233TIP3    H115635   2.048   7.173   2.547
 5233TIP3    H215636   2.158   7.220   2.454
 5234TIP3   OH215637   0.740   6.867   3.289
 5234TIP3    H115638   0.838   6.863   3.296
 5234TIP3    H215639   0.716   6.782   3.333
 5235TIP3   OH215640   2.576   6.731   3.053
 5235TIP3    H115641   2.636   6.666   3.011
 5235TIP3    H215642   2.549   6.786   2.976
 5236TIP3   OH215643   2.002   6.574   1.808
 5236TIP3    H115644   2.052   6.558   1.891
 5236TIP3    H215645   1.943   6.496   1.807
 5237TIP3   OH215646   0.703   6.559   2.631
 5237TIP3    H115647   0.765   6.484   2.639
 5237TIP3    H215648   0.766   6.633   2.622
 5238TIP3   OH215649   0.508   6.833   2.702
 5238TIP3    H115650   0.556   6.824   2.617
 5238TIP3    H215651   0.538   6.919   2.732
 5239TIP3   OH215652   2.449   6.873   2.858
 5239TIP3    H115653   2.363   6.913   2.881
 5239TIP3    H215654   2.418   6.800   2.800
 5240TIP3   OH215655   2.083   6.510   1.437
 5240TIP3    H115656   2.125   6.435   1.389
 5240TIP3    H215657   2.153   6.578   1.434
 5241TIP3   OH215658   0.483   6.376   2.208
 5241TIP3    H115659   0.397   6.335   2.229
 5241TIP3    H215660   0.476   6.385   2.112
 5242TIP3   OH215661   0.711   6.422   3.019
 5242TIP3    H115662   0.657   6.411   3.099
 5242TIP3    H215663   0.644   6.454   2.955
 5243TIP3   OH215664   2.347   6.634   2.737
 5243TIP3    H115665   2.255   6.626   2.704
 5243TIP3    H215666   2.379   6.542   2.725
 5244TIP3   OH215667   1.547   6.548   2.350
 5244TIP3    H115668   1.507   6.479   2.406
 5244TIP3    H215669   1.624   6.502   2.311
 5245TIP3   OH215670   2.074   6.432   2.262
 5245TIP3    H115671   2.111   6.482   2.186
 5245TIP3    H215672   1.979   6.448   2.253
 5246TIP3   OH215673   2.169   6.531   2.024
 5246TIP3    H115674   2.242   6.479   1.985
 5246TIP3    H215675   2.203   6.622   2.009
 5247TIP3   OH215676   0.800   6.259   2.373
 5247TIP3    H115677   0.708   6.226   2.371
 5247TIP3    H215678   0.850   6.175   2.368
 5248TIP3   OH215679   0.617   6.120   2.032
 5248TIP3    H115680   0.636   6.172   1.951
 5248TIP3    H215681   0.544   6.171   2.070
 5249TIP3   OH215682   1.242   6.294   2.253
 5249TIP3    H115683   1.302   6.340   2.193
 5249TIP3    H215684   1.270   6.328   2.339
 5250TIP3   OH215685   1.789   6.438   2.236
 5250TIP3    H115686   1.792   6.397   2.148
 5250TIP3    H215687   1.777   6.358   2.293
 5251TIP3   OH215688   1.820   6.360   1.798
 5251TIP3    H115689   1.732   6.399   1.810
 5251TIP3    H215690   1.808   6.274   1.845
 5252TIP3   OH215691   0.716   6.285   1.821
 5252TIP3    H115692   0.750   6.217   1.759
 5252TIP3    H215693   0.797   6.335   1.840
 5253TIP3   OH215694   1.221   6.465   1.878
 5253TIP3    H115695   1.277   6.414   1.940
 5253TIP3    H215696   1.245   6.556   1.907
 5254TIP3   OH215697   1.006   6.538   3.264
 5254TIP3    H115698   0.975   6.465   3.321
 5254TIP3    H215699   1.101   6.540   3.289
 5255TIP3   OH215700   1.256   6.536   3.380
 5255TIP3    H115701   1.342   6.513   3.341
 5255TIP3    H215702   1.246   6.465   3.447
 5256TIP3   OH215703   2.082   6.597   3.170
 5256TIP3    H115704   2.101   6.566   3.261
 5256TIP3    H215705   2.170   6.593   3.128
 5257TIP3   OH215706   3.288   7.510   1.438
 5257TIP3    H115707   3.256   7.598   1.411
 5257TIP3    H215708   3.216   7.456   1.400
 5258TIP3   OH215709   3.288   7.521   1.807
 5258TIP3    H115710   3.318   7.495   1.896
 5258TIP3    H215711   3.246   7.440   1.775
 5259TIP3   OH215712   2.579   7.423   2.183
 5259TIP3    H115713   2.614   7.354   2.242
 5259TIP3    H215714   2.660   7.473   2.163
 5260TIP3   OH215715   3.508   7.829   1.502
 5260TIP3    H115716   3.509   7.756   1.565
 5260TIP3    H215717   3.551   7.899   1.551
 5261TIP3   OH215718   2.611   7.762   1.981
 5261TIP3    H115719   2.581   7.681   1.936
 5261TIP3    H215720   2.693   7.782   1.930
 5262TIP3   OH215721   2.264   7.029   1.684
 5262TIP3    H115722   2.218   7.114   1.698
 5262TIP3    H215723   2.192   6.976   1.646
 5263TIP3   OH215724   2.316   7.317   1.860
 5263TIP3    H115725   2.366   7.240   1.894
 5263TIP3    H215726   2.385   7.364   1.811
 5264TIP3   OH215727   3.101   7.740   1.851
 5264TIP3    H115728   3.148   7.662   1.815
 5264TIP3    H215729   3.179   7.793   1.879
 5265TIP3   OH215730   4.098   7.069   1.855
 5265TIP3    H115731   4.127   7.152   1.898
 5265TIP3    H215732   4.119   7.087   1.762
 5266TIP3   OH215733   3.497   7.250   1.890
 5266TIP3    H115734   3.540   7.164   1.910
 5266TIP3    H215735   3.466   7.234   1.799
 5267TIP3   OH215736   2.834   6.909   1.855
 5267TIP3    H115737   2.815   6.982   1.793
 5267TIP3    H215738   2.787   6.836   1.811
 5268TIP3   OH215739   3.529   7.001   1.477
 5268TIP3    H115740   3.601   6.984   1.542
 5268TIP3    H215741   3.582   7.035   1.403
 5269TIP3   OH215742   2.469   7.111   1.962
 5269TIP3    H115743   2.552   7.092   2.009
 5269TIP3    H215744   2.482   7.057   1.882
 5270TIP3   OH215745   2.908   7.309   1.757
 5270TIP3    H115746   3.002   7.285   1.768
 5270TIP3    H215747   2.870   7.225   1.724
 5271TIP3   OH215748   4.172   7.276   2.025
 5271TIP3    H115749   4.088   7.324   2.004
 5271TIP3    H215750   4.183   7.302   2.117
 5272TIP3   OH215751   2.832   6.893   2.289
 5272TIP3    H115752   2.771   6.929   2.222
 5272TIP3    H215753   2.780   6.910   2.370
 5273TIP3   OH215754   3.178   7.713   1.292
 5273TIP3    H115755   3.127   7.699   1.211
 5273TIP3    H215756   3.175   7.809   1.303
 5274TIP3   OH215757   2.935   7.671   2.086
 5274TIP3    H115758   2.875   7.737   2.125
 5274TIP3    H215759   2.970   7.720   2.010
 5275TIP3   OH215760   3.740   7.002   1.649
 5275TIP3    H115761   3.730   6.953   1.731
 5275TIP3    H215762   3.793   7.079   1.676
 5276TIP3   OH215763   2.702   7.008   2.074
 5276TIP3    H115764   2.764   7.080   2.097
 5276TIP3    H215765   2.751   6.967   1.999
 5277TIP3   OH215766   2.769   7.883   2.188
 5277TIP3    H115767   2.729   7.888   2.100
 5277TIP3    H215768   2.688   7.875   2.243
 5278TIP3   OH215769   2.170   7.520   1.434
 5278TIP3    H115770   2.132   7.544   1.347
 5278TIP3    H215771   2.187   7.610   1.465
 5279TIP3   OH215772   3.891   6.969   2.021
 5279TIP3    H115773   3.803   6.997   1.991
 5279TIP3    H215774   3.950   7.001   1.950
 5280TIP3   OH215775   3.188   6.611   2.002
 5280TIP3    H115776   3.175   6.516   2.021
 5280TIP3    H215777   3.110   6.649   2.050
 5281TIP3   OH215778   3.533   7.818   1.227
 5281TIP3    H115779   3.466   7.753   1.205
 5281TIP3    H215780   3.539   7.810   1.325
 5282TIP3   OH215781   3.821   7.981   2.004
 5282TIP3    H115782   3.810   7.901   1.949
 5282TIP3    H215783   3.835   8.050   1.937
 5283TIP3   OH215784   3.121   7.372   1.262
 5283TIP3    H115785   3.039   7.421   1.242
 5283TIP3    H215786   3.165   7.369   1.175
 5284TIP3   OH215787   3.077   7.156   0.977
 5284TIP3    H115788   3.145   7.209   1.024
 5284TIP3    H215789   3.135   7.094   0.929
 5285TIP3   OH215790   4.024   7.617   1.846
 5285TIP3    H115791   3.941   7.668   1.854
 5285TIP3    H215792   4.052   7.643   1.756
 5286TIP3   OH215793   3.466   7.452   1.237
 5286TIP3    H115794   3.411   7.473   1.317
 5286TIP3    H215795   3.550   7.427   1.280
 5287TIP3   OH215796   3.700   7.496   2.142
 5287TIP3    H115797   3.699   7.580   2.193
 5287TIP3    H215798   3.613   7.502   2.098
 5288TIP3   OH215799   2.703   7.457   1.640
 5288TIP3    H115800   2.660   7.396   1.576
 5288TIP3    H215801   2.778   7.403   1.673
 5289TIP3   OH215802   2.834   7.823   1.848
 5289TIP3    H115803   2.802   7.817   1.756
 5289TIP3    H215804   2.930   7.830   1.837
 5290TIP3   OH215805   2.824   7.432   2.001
 5290TIP3    H115806   2.863   7.407   1.914
 5290TIP3    H215807   2.871   7.515   2.022
 5291TIP3   OH215808   3.011   7.900   2.325
 5291TIP3    H115809   2.980   7.986   2.360
 5291TIP3    H215810   2.930   7.874   2.277
 5292TIP3   OH215811   3.303   7.315   1.059
 5292TIP3    H115812   3.364   7.375   1.108
 5292TIP3    H215813   3.332   7.332   0.966
 5293TIP3   OH215814   2.729   7.540   2.428
 5293TIP3    H115815   2.735   7.627   2.471
 5293TIP3    H215816   2.635   7.519   2.442
 5294TIP3   OH215817   3.822   6.556   1.106
 5294TIP3    H115818   3.740   6.577   1.156
 5294TIP3    H215819   3.835   6.639   1.056
 5295TIP3   OH215820   2.564   7.297   1.454
 5295TIP3    H115821   2.500   7.338   1.392
 5295TIP3    H215822   2.525   7.211   1.468
 5296TIP3   OH215823   2.350   7.668   2.349
 5296TIP3    H115824   2.354   7.621   2.264
 5296TIP3    H215825   2.388   7.597   2.407
 5297TIP3   OH215826   3.955   7.456   2.322
 5297TIP3    H115827   3.873   7.472   2.274
 5297TIP3    H215828   3.968   7.360   2.309
 5298TIP3   OH215829   2.547   7.873   2.359
 5298TIP3    H115830   2.608   7.854   2.433
 5298TIP3    H215831   2.494   7.792   2.355
 5299TIP3   OH215832   2.949   6.687   2.131
 5299TIP3    H115833   2.859   6.657   2.105
 5299TIP3    H215834   2.924   6.769   2.178
 5300TIP3   OH215835   3.483   6.803   2.326
 5300TIP3    H115836   3.551   6.775   2.390
 5300TIP3    H215837   3.399   6.783   2.373
 5301TIP3   OH215838   3.724   7.233   2.246
 5301TIP3    H115839   3.673   7.229   2.330
 5301TIP3    H215840   3.698   7.320   2.210
 5302TIP3   OH215841   3.385   7.346   0.807
 5302TIP3    H115842   3.347   7.331   0.718
 5302TIP3    H215843   3.450   7.417   0.787
 5303TIP3   OH215844   3.092   6.738   1.102
 5303TIP3    H115845   3.062   6.734   1.195
 5303TIP3    H215846   3.057   6.653   1.070
 5304TIP3   OH215847   2.879   7.206   2.147
 5304TIP3    H115848   2.834   7.228   2.232
 5304TIP3    H215849   2.862   7.287   2.095
 5305TIP3   OH215850   2.764   7.089   1.664
 5305TIP3    H115851   2.672   7.062   1.682
 5305TIP3    H215852   2.778   7.049   1.576
 5306TIP3   OH215853   3.257   7.173   1.392
 5306TIP3    H115854   3.204   7.244   1.349
 5306TIP3    H215855   3.312   7.142   1.317
 5307TIP3   OH215856   3.434   7.448   2.472
 5307TIP3    H115857   3.412   7.379   2.539
 5307TIP3    H215858   3.525   7.470   2.499
 5308TIP3   OH215859   3.413   7.204   1.631
 5308TIP3    H115860   3.353   7.234   1.560
 5308TIP3    H215861   3.446   7.122   1.588
 5309TIP3   OH215862   2.696   7.233   2.360
 5309TIP3    H115863   2.738   7.293   2.423
 5309TIP3    H215864   2.688   7.150   2.411
 5310TIP3   OH215865   2.746   6.708   1.068
 5310TIP3    H115866   2.743   6.705   1.166
 5310TIP3    H215867   2.669   6.764   1.049
 5311TIP3   OH215868   2.293   6.755   1.940
 5311TIP3    H115869   2.369   6.786   1.993
 5311TIP3    H215870   2.334   6.721   1.859
 5312TIP3   OH215871   2.266   6.734   1.458
 5312TIP3    H115872   2.313   6.772   1.381
 5312TIP3    H215873   2.206   6.809   1.480
 5313TIP3   OH215874   3.422   7.450   2.054
 5313TIP3    H115875   3.455   7.378   1.996
 5313TIP3    H215876   3.394   7.397   2.132
 5314TIP3   OH215877   3.091   6.914   1.726
 5314TIP3    H115878   3.010   6.910   1.780
 5314TIP3    H215879   3.161   6.910   1.794
 5315TIP3   OH215880   2.526   6.967   1.735
 5315TIP3    H115881   2.432   6.973   1.708
 5315TIP3    H215882   2.550   6.875   1.712
 5316TIP3   OH215883   2.796   6.963   1.422
 5316TIP3    H115884   2.890   6.978   1.403
 5316TIP3    H215885   2.751   6.986   1.338
 5317TIP3   OH215886   3.585   6.987   1.928
 5317TIP3    H115887   3.550   6.999   2.019
 5317TIP3    H215888   3.519   6.926   1.891
 5318TIP3   OH215889   2.636   6.997   1.200
 5318TIP3    H115890   2.564   6.954   1.151
 5318TIP3    H215891   2.689   7.035   1.126
 5319TIP3   OH215892   2.713   7.786   2.563
 5319TIP3    H115893   2.797   7.810   2.608
 5319TIP3    H215894   2.654   7.778   2.640
 5320TIP3   OH215895   3.174   7.240   1.823
 5320TIP3    H115896   3.247   7.201   1.772
 5320TIP3    H215897   3.184   7.197   1.910
 5321TIP3   OH215898   2.698   6.728   1.701
 5321TIP3    H115899   2.664   6.648   1.748
 5321TIP3    H215900   2.752   6.688   1.632
 5322TIP3   OH215901   3.151   7.136   2.114
 5322TIP3    H115902   3.062   7.174   2.128
 5322TIP3    H215903   3.210   7.196   2.164
 5323TIP3   OH215904   2.889   7.512   1.214
 5323TIP3    H115905   2.810   7.455   1.202
 5323TIP3    H215906   2.867   7.556   1.300
 5324TIP3   OH215907   3.791   7.759   1.841
 5324TIP3    H115908   3.817   7.808   1.760
 5324TIP3    H215909   3.705   7.719   1.815
 5325TIP3   OH215910   3.347   6.839   1.072
 5325TIP3    H115911   3.250   6.824   1.078
 5325TIP3    H215912   3.357   6.934   1.093
 5326TIP3   OH215913   3.299   7.861   2.208
 5326TIP3    H115914   3.326   7.818   2.290
 5326TIP3    H215915   3.216   7.903   2.236
 5327TIP3   OH215916   3.416   7.087   1.173
 5327TIP3    H115917   3.513   7.093   1.188
 5327TIP3    H215918   3.398   7.166   1.119
 5328TIP3   OH215919   2.561   7.504   1.873
 5328TIP3    H115920   2.611   7.497   1.789
 5328TIP3    H215921   2.625   7.467   1.936
 5329TIP3   OH215922   3.002   7.696   1.050
 5329TIP3    H115923   2.961   7.766   1.106
 5329TIP3    H215924   2.965   7.617   1.094
 5330TIP3   OH215925   2.460   7.476   2.506
 5330TIP3    H115926   2.490   7.460   2.598
 5330TIP3    H215927   2.399   7.401   2.493
 5331TIP3   OH215928   3.185   7.551   2.523
 5331TIP3    H115929   3.131   7.505   2.457
 5331TIP3    H215930   3.276   7.531   2.492
 5332TIP3   OH215931   3.860   7.176   1.009
 5332TIP3    H115932   3.795   7.133   0.949
 5332TIP3    H215933   3.856   7.266   0.970
 5333TIP3   OH215934   4.076   8.020   2.093
 5333TIP3    H115935   3.979   8.030   2.083
 5333TIP3    H215936   4.101   8.004   1.999
 5334TIP3   OH215937   3.554   7.630   1.747
 5334TIP3    H115938   3.462   7.604   1.768
 5334TIP3    H215939   3.588   7.546   1.708
 5335TIP3   OH215940   2.242   7.158   1.209
 5335TIP3    H115941   2.292   7.240   1.230
 5335TIP3    H215942   2.169   7.163   1.274
 5336TIP3   OH215943   2.821   7.628   1.454
 5336TIP3    H115944   2.787   7.713   1.485
 5336TIP3    H215945   2.792   7.570   1.527
 5337TIP3   OH215946   3.342   7.828   1.934
 5337TIP3    H115947   3.331   7.838   2.031
 5337TIP3    H215948   3.427   7.784   1.927
 5338TIP3   OH215949   3.342   7.659   0.783
 5338TIP3    H115950   3.378   7.644   0.873
 5338TIP3    H215951   3.262   7.713   0.802
 5339TIP3   OH215952   2.674   6.975   2.505
 5339TIP3    H115953   2.578   6.979   2.520
 5339TIP3    H215954   2.703   6.916   2.577
 5340TIP3   OH215955   3.467   7.623   1.024
 5340TIP3    H115956   3.468   7.560   1.099
 5340TIP3    H215957   3.563   7.640   1.014
 5341TIP3   OH215958   2.657   7.655   0.867
 5341TIP3    H115959   2.700   7.573   0.836
 5341TIP3    H215960   2.702   7.672   0.950
 5342TIP3   OH215961   2.366   7.397   1.288
 5342TIP3    H115962   2.304   7.436   1.353
 5342TIP3    H215963   2.374   7.471   1.225
 5343TIP3   OH215964   3.510   7.039   2.186
 5343TIP3    H115965   3.589   7.077   2.228
 5343TIP3    H215966   3.495   6.958   2.240
 5344TIP3   OH215967   3.388   6.791   1.351
 5344TIP3    H115968   3.376   6.814   1.257
 5344TIP3    H215969   3.428   6.874   1.387
 5345TIP3   OH215970   3.078   6.971   1.454
 5345TIP3    H115971   3.144   7.041   1.436
 5345TIP3    H215972   3.084   6.963   1.552
 5346TIP3   OH215973   3.347   7.289   2.261
 5346TIP3    H115974   3.371   7.344   2.338
 5346TIP3    H215975   3.403   7.210   2.274
 5347TIP3   OH215976   3.223   6.697   1.556
 5347TIP3    H115977   3.219   6.773   1.617
 5347TIP3    H215978   3.284   6.733   1.487
 5348TIP3   OH215979   2.735   6.696   1.345
 5348TIP3    H115980   2.734   6.786   1.383
 5348TIP3    H215981   2.831   6.676   1.354
 5349TIP3   OH215982   3.991   7.188   2.242
 5349TIP3    H115983   3.893   7.188   2.251
 5349TIP3    H215984   3.999   7.146   2.155
 5350TIP3   OH215985   3.640   7.384   1.632
 5350TIP3    H115986   3.564   7.324   1.643
 5350TIP3    H215987   3.712   7.337   1.679
 5351TIP3   OH215988   2.355   7.614   1.106
 5351TIP3    H115989   2.381   7.707   1.099
 5351TIP3    H215990   2.412   7.572   1.040
 5352TIP3   OH215991   2.297   6.888   1.233
 5352TIP3    H115992   2.297   6.986   1.229
 5352TIP3    H215993   2.211   6.866   1.196
 5353TIP3   OH215994   2.683   6.608   2.108
 5353TIP3    H115995   2.653   6.573   2.021
 5353TIP3    H215996   2.674   6.530   2.165
 5354TIP3   OH215997   2.518   7.752   2.751
 5354TIP3    H115998   2.540   7.657   2.759
 5354TIP3    H215999   2.424   7.748   2.721
 5355TIP3   OH216000   2.487   7.417   0.959
 5355TIP3    H116001   2.542   7.383   1.032
 5355TIP3    H216002   2.556   7.426   0.889
 5356TIP3   OH216003   3.160   7.825   2.536
 5356TIP3    H116004   3.108   7.841   2.455
 5356TIP3    H216005   3.166   7.727   2.537
 5357TIP3   OH216006   2.931   7.597   0.778
 5357TIP3    H116007   2.978   7.617   0.860
 5357TIP3    H216008   2.965   7.508   0.757
 5358TIP3   OH216009   3.610   7.855   2.134
 5358TIP3    H116010   3.675   7.916   2.095
 5358TIP3    H216011   3.532   7.911   2.139
 5359TIP3   OH216012   2.634   7.498   2.742
 5359TIP3    H116013   2.713   7.447   2.721
 5359TIP3    H216014   2.657   7.534   2.830
 5360TIP3   OH216015   2.686   7.325   1.172
 5360TIP3    H116016   2.666   7.281   1.256
 5360TIP3    H216017   2.728   7.253   1.120
 5361TIP3   OH216018   2.958   7.384   2.394
 5361TIP3    H116019   2.888   7.452   2.403
 5361TIP3    H216020   3.012   7.423   2.321
 5362TIP3   OH216021   2.797   7.121   1.017
 5362TIP3    H116022   2.772   7.123   0.922
 5362TIP3    H216023   2.895   7.126   1.010
 5363TIP3   OH216024   3.482   7.772   2.530
 5363TIP3    H116025   3.572   7.771   2.497
 5363TIP3    H216026   3.487   7.717   2.610
 5364TIP3   OH216027   3.619   7.479   0.707
 5364TIP3    H116028   3.598   7.417   0.634
 5364TIP3    H216029   3.602   7.563   0.660
 5365TIP3   OH216030   3.087   7.181   2.529
 5365TIP3    H116031   3.089   7.101   2.474
 5365TIP3    H216032   3.043   7.246   2.470
 5366TIP3   OH216033   3.090   6.967   2.337
 5366TIP3    H116034   3.119   7.008   2.253
 5366TIP3    H216035   2.997   6.944   2.318
 5367TIP3   OH216036   3.114   7.504   2.211
 5367TIP3    H116037   3.198   7.512   2.164
 5367TIP3    H216038   3.059   7.573   2.167
 5368TIP3   OH216039   3.700   7.471   2.593
 5368TIP3    H116040   3.752   7.389   2.597
 5368TIP3    H216041   3.765   7.535   2.559
 5369TIP3   OH216042   3.743   7.719   2.326
 5369TIP3    H116043   3.683   7.772   2.267
 5369TIP3    H216044   3.829   7.742   2.286
 5370TIP3   OH216045   2.963   7.294   2.760
 5370TIP3    H116046   2.896   7.223   2.773
 5370TIP3    H216047   3.000   7.269   2.673
 5371TIP3   OH216048   3.223   6.731   2.403
 5371TIP3    H116049   3.173   6.813   2.381
 5371TIP3    H216050   3.154   6.662   2.392
 5372TIP3   OH216051   3.350   7.235   2.620
 5372TIP3    H116052   3.338   7.224   2.716
 5372TIP3    H216053   3.260   7.212   2.589
 5373TIP3   OH216054   3.588   7.181   2.474
 5373TIP3    H116055   3.513   7.187   2.535
 5373TIP3    H216056   3.661   7.152   2.532
 5374TIP3   OH216057   3.822   7.126   2.626
 5374TIP3    H116058   3.831   7.030   2.643
 5374TIP3    H216059   3.815   7.164   2.716
 5375TIP3   OH216060   2.804   7.073   2.812
 5375TIP3    H116061   2.811   6.981   2.778
 5375TIP3    H216062   2.841   7.062   2.902
 5376TIP3   OH216063   3.317   6.741   2.661
 5376TIP3    H116064   3.385   6.670   2.655
 5376TIP3    H216065   3.278   6.735   2.571
 5377TIP3   OH216066   3.383   6.956   2.820
 5377TIP3    H116067   3.362   6.885   2.755
 5377TIP3    H216068   3.305   7.014   2.813
 5378TIP3   OH216069   2.081   7.529   1.115
 5378TIP3    H116070   2.169   7.571   1.106
 5378TIP3    H216071   2.093   7.443   1.071
 5379TIP3   OH216072   3.965   8.145   2.365
 5379TIP3    H116073   3.887   8.125   2.423
 5379TIP3    H216074   4.005   8.219   2.412
 5380TIP3   OH216075   3.748   7.637   1.018
 5380TIP3    H116076   3.822   7.695   0.991
 5380TIP3    H216077   3.787   7.596   1.098
 5381TIP3   OH216078   3.879   7.504   1.216
 5381TIP3    H116079   3.815   7.463   1.277
 5381TIP3    H216080   3.947   7.541   1.276
 5382TIP3   OH216081   3.920   7.893   1.644
 5382TIP3    H116082   3.985   7.840   1.595
 5382TIP3    H216083   3.920   7.978   1.597
 5383TIP3   OH216084   3.825   7.414   0.870
 5383TIP3    H116085   3.752   7.422   0.804
 5383TIP3    H216086   3.797   7.489   0.928
 5384TIP3   OH216087   3.688   7.089   0.820
 5384TIP3    H116088   3.666   7.129   0.734
 5384TIP3    H216089   3.661   6.996   0.806
 5385TIP3   OH216090   3.695   7.363   1.363
 5385TIP3    H116091   3.703   7.266   1.356
 5385TIP3    H216092   3.681   7.375   1.460
 5386TIP3   OH216093   2.318   7.460   2.109
 5386TIP3    H116094   2.314   7.420   2.019
 5386TIP3    H216095   2.415   7.449   2.126
 5387TIP3   OH216096   3.983   7.786   2.219
 5387TIP3    H116097   4.057   7.723   2.210
 5387TIP3    H216098   4.009   7.859   2.160
 5388TIP3   OH216099   4.171   7.594   2.235
 5388TIP3    H116100   4.096   7.546   2.275
 5388TIP3    H216101   4.243   7.529   2.250
 5389TIP3   OH216102   3.634   6.822   0.802
 5389TIP3    H116103   3.708   6.793   0.858
 5389TIP3    H216104   3.561   6.763   0.826
 5390TIP3   OH216105   3.691   7.080   1.257
 5390TIP3    H116106   3.731   6.991   1.273
 5390TIP3    H216107   3.749   7.112   1.186
 5391TIP3   OH216108   3.853   7.255   1.751
 5391TIP3    H116109   3.939   7.280   1.711
 5391TIP3    H216110   3.866   7.291   1.841
 5392TIP3   OH216111   3.921   7.398   1.983
 5392TIP3    H116112   3.844   7.432   2.032
 5392TIP3    H216113   3.954   7.479   1.939
 5393TIP3   OH216114   2.538   7.125   2.782
 5393TIP3    H116115   2.636   7.119   2.784
 5393TIP3    H216116   2.515   7.040   2.824
 5394TIP3   OH216117   4.384   6.993   2.541
 5394TIP3    H116118   4.437   6.924   2.495
 5394TIP3    H216119   4.348   7.044   2.465
 5395TIP3   OH216120   3.799   6.830   1.295
 5395TIP3    H116121   3.848   6.814   1.378
 5395TIP3    H216122   3.739   6.753   1.293
 5396TIP3   OH216123   2.498   6.817   2.116
 5396TIP3    H116124   2.560   6.741   2.125
 5396TIP3    H216125   2.562   6.890   2.108
 5397TIP3   OH216126   2.301   7.093   2.184
 5397TIP3    H116127   2.350   7.083   2.100
 5397TIP3    H216128   2.345   7.169   2.223
 5398TIP3   OH216129   4.244   7.126   2.349
 5398TIP3    H116130   4.157   7.169   2.367
 5398TIP3    H216131   4.215   7.056   2.287
 5399TIP3   OH216132   3.880   6.767   0.930
 5399TIP3    H116133   3.916   6.694   0.875
 5399TIP3    H216134   3.949   6.836   0.920
 5400TIP3   OH216135   2.286   6.596   1.689
 5400TIP3    H116136   2.192   6.591   1.714
 5400TIP3    H216137   2.283   6.653   1.610
 5401TIP3   OH216138   2.506   6.675   2.503
 5401TIP3    H116139   2.456   6.668   2.585
 5401TIP3    H216140   2.438   6.711   2.442
 5402TIP3   OH216141   4.143   6.891   2.223
 5402TIP3    H116142   4.052   6.884   2.190
 5402TIP3    H216143   4.174   6.798   2.212
 5403TIP3   OH216144   3.346   6.806   1.840
 5403TIP3    H116145   3.304   6.736   1.894
 5403TIP3    H216146   3.420   6.758   1.798
 5404TIP3   OH216147   3.871   6.688   1.748
 5404TIP3    H116148   3.907   6.739   1.673
 5404TIP3    H216149   3.775   6.705   1.741
 5405TIP3   OH216150   3.966   6.787   1.512
 5405TIP3    H116151   4.039   6.736   1.471
 5405TIP3    H216152   3.998   6.878   1.497
 5406TIP3   OH216153   2.596   6.515   1.858
 5406TIP3    H116154   2.504   6.482   1.861
 5406TIP3    H216155   2.645   6.431   1.856
 5407TIP3   OH216156   2.377   6.386   1.507
 5407TIP3    H116157   2.412   6.441   1.435
 5407TIP3    H216158   2.355   6.452   1.575
 5408TIP3   OH216159   3.038   6.550   1.739
 5408TIP3    H116160   3.097   6.597   1.679
 5408TIP3    H216161   3.064   6.585   1.826
 5409TIP3   OH216162   3.587   6.694   1.723
 5409TIP3    H116163   3.586   6.656   1.634
 5409TIP3    H216164   3.574   6.614   1.779
 5410TIP3   OH216165   3.616   6.616   1.285
 5410TIP3    H116166   3.529   6.658   1.296
 5410TIP3    H216167   3.602   6.531   1.332
 5411TIP3   OH216168   2.500   6.548   1.267
 5411TIP3    H116169   2.548   6.481   1.214
 5411TIP3    H216170   2.574   6.600   1.304
 5412TIP3   OH216171   3.012   6.720   1.368
 5412TIP3    H116172   3.072   6.672   1.428
 5412TIP3    H216173   3.035   6.812   1.394
 5413TIP3   OH216174   2.804   6.797   2.750
 5413TIP3    H116175   2.770   6.726   2.806
 5413TIP3    H216176   2.899   6.797   2.777
 5414TIP3   OH216177   3.053   6.793   2.869
 5414TIP3    H116178   3.138   6.768   2.829
 5414TIP3    H216179   3.041   6.723   2.936
 5415TIP3   OH216180   3.878   6.854   2.657
 5415TIP3    H116181   3.897   6.822   2.748
 5415TIP3    H216182   3.966   6.848   2.615
 5416TIP3   OH216183   5.078   7.773   0.924
 5416TIP3    H116184   5.055   7.863   0.893
 5416TIP3    H216185   5.006   7.722   0.883
 5417TIP3   OH216186   5.086   7.778   1.294
 5417TIP3    H116187   5.115   7.749   1.382
 5417TIP3    H216188   5.041   7.698   1.260
 5418TIP3   OH216189   4.382   7.675   1.660
 5418TIP3    H116190   4.414   7.608   1.723
 5418TIP3    H216191   4.457   7.736   1.658
 5419TIP3   OH216192   5.307   8.076   0.982
 5419TIP3    H116193   5.313   8.000   1.041
 5419TIP3    H216194   5.353   8.144   1.032
 5420TIP3   OH216195   4.413   8.026   1.465
 5420TIP3    H116196   4.381   7.941   1.430
 5420TIP3    H216197   4.493   8.040   1.410
 5421TIP3   OH216198   4.061   7.286   1.171
 5421TIP3    H116199   4.014   7.370   1.186
 5421TIP3    H216200   3.989   7.233   1.131
 5422TIP3   OH216201   4.114   7.572   1.342
 5422TIP3    H116202   4.164   7.495   1.378
 5422TIP3    H216203   4.182   7.617   1.290
 5423TIP3   OH216204   4.897   7.997   1.338
 5423TIP3    H116205   4.942   7.919   1.301
 5423TIP3    H216206   4.975   8.049   1.365
 5424TIP3   OH216207   5.895   7.327   1.343
 5424TIP3    H116208   5.924   7.409   1.387
 5424TIP3    H216209   5.908   7.350   1.250
 5425TIP3   OH216210   5.295   7.507   1.378
 5425TIP3    H116211   5.335   7.420   1.398
 5425TIP3    H216212   5.264   7.492   1.286
 5426TIP3   OH216213   4.632   7.166   1.341
 5426TIP3    H116214   4.610   7.238   1.279
 5426TIP3    H216215   4.584   7.092   1.298
 5427TIP3   OH216216   5.324   7.257   0.961
 5427TIP3    H116217   5.396   7.240   1.026
 5427TIP3    H216218   5.376   7.286   0.884
 5428TIP3   OH216219   4.264   7.368   1.449
 5428TIP3    H116220   4.347   7.348   1.496
 5428TIP3    H216221   4.277   7.312   1.369
 5429TIP3   OH216222   4.705   7.566   1.240
 5429TIP3    H116223   4.799   7.540   1.255
 5429TIP3    H216224   4.665   7.482   1.210
 5430TIP3   OH216225   5.969   7.536   1.510
 5430TIP3    H116226   5.884   7.581   1.491
 5430TIP3    H216227   5.974   7.550   1.606
 5431TIP3   OH216228   4.628   7.150   1.776
 5431TIP3    H116229   4.568   7.186   1.709
 5431TIP3    H216230   4.576   7.167   1.858
 5432TIP3   OH216231   4.967   7.976   0.752
 5432TIP3    H116232   4.882   7.932   0.735
 5432TIP3    H216233   4.933   8.057   0.794
 5433TIP3   OH216234   4.732   7.930   1.572
 5433TIP3    H116235   4.663   7.991   1.605
 5433TIP3    H216236   4.765   7.979   1.494
 5434TIP3   OH216237   5.535   7.259   1.135
 5434TIP3    H116238   5.521   7.210   1.217
 5434TIP3    H216239   5.586   7.337   1.166
 5435TIP3   OH216240   4.499   7.264   1.560
 5435TIP3    H116241   4.561   7.337   1.584
 5435TIP3    H216242   4.548   7.223   1.486
 5436TIP3   OH216243   4.561   8.143   1.678
 5436TIP3    H116244   4.519   8.140   1.589
 5436TIP3    H216245   4.481   8.136   1.734
 5437TIP3   OH216246   3.965   7.777   0.920
 5437TIP3    H116247   3.920   7.794   0.836
 5437TIP3    H216248   3.978   7.869   0.948
 5438TIP3   OH216249   5.687   7.228   1.509
 5438TIP3    H116250   5.598   7.254   1.479
 5438TIP3    H216251   5.744   7.259   1.436
 5439TIP3   OH216252   4.985   6.869   1.491
 5439TIP3    H116253   4.971   6.774   1.508
 5439TIP3    H216254   4.907   6.906   1.537
 5440TIP3   OH216255   5.617   8.237   1.491
 5440TIP3    H116256   5.607   8.157   1.436
 5440TIP3    H216257   5.635   8.306   1.424
 5441TIP3   OH216258   4.920   7.630   0.740
 5441TIP3    H116259   4.833   7.676   0.733
 5441TIP3    H216260   4.951   7.641   0.649
 5442TIP3   OH216261   5.817   7.872   1.329
 5442TIP3    H116262   5.734   7.923   1.340
 5442TIP3    H216263   5.843   7.899   1.239
 5443TIP3   OH216264   5.261   7.716   0.727
 5443TIP3    H116265   5.207   7.741   0.804
 5443TIP3    H216266   5.345   7.689   0.770
 5444TIP3   OH216267   5.497   7.753   1.628
 5444TIP3    H116268   5.494   7.837   1.678
 5444TIP3    H216269   5.410   7.756   1.584
 5445TIP3   OH216270   4.496   7.711   1.128
 5445TIP3    H116271   4.456   7.652   1.060
 5445TIP3    H216272   4.574   7.659   1.157
 5446TIP3   OH216273   4.633   8.081   1.328
 5446TIP3    H116274   4.596   8.075   1.238
 5446TIP3    H216275   4.730   8.079   1.313
 5447TIP3   OH216276   4.630   7.685   1.487
 5447TIP3    H116277   4.663   7.664   1.397
 5447TIP3    H216278   4.672   7.772   1.506
 5448TIP3   OH216279   4.806   8.144   1.811
 5448TIP3    H116280   4.769   8.231   1.836
 5448TIP3    H216281   4.732   8.112   1.757
 5449TIP3   OH216282   4.522   7.795   1.912
 5449TIP3    H116283   4.527   7.882   1.956
 5449TIP3    H216284   4.427   7.774   1.924
 5450TIP3   OH216285   4.363   7.551   0.937
 5450TIP3    H116286   4.295   7.595   0.880
 5450TIP3    H216287   4.320   7.466   0.955
 5451TIP3   OH216288   4.157   7.937   1.846
 5451TIP3    H116289   4.085   7.920   1.783
 5451TIP3    H216290   4.186   7.846   1.871
 5452TIP3   OH216291   5.753   7.715   1.806
 5452TIP3    H116292   5.668   7.728   1.761
 5452TIP3    H216293   5.766   7.619   1.797
 5453TIP3   OH216294   4.345   8.138   1.852
 5453TIP3    H116295   4.399   8.097   1.923
 5453TIP3    H216296   4.274   8.072   1.842
 5454TIP3   OH216297   4.746   6.945   1.617
 5454TIP3    H116298   4.656   6.913   1.592
 5454TIP3    H216299   4.720   7.026   1.665
 5455TIP3   OH216300   5.279   7.060   1.813
 5455TIP3    H116301   5.347   7.032   1.878
 5455TIP3    H216302   5.195   7.039   1.860
 5456TIP3   OH216303   5.522   7.491   1.735
 5456TIP3    H116304   5.470   7.485   1.819
 5456TIP3    H216305   5.493   7.576   1.698
 5457TIP3   OH216306   4.907   6.995   0.590
 5457TIP3    H116307   4.868   6.990   0.680
 5457TIP3    H216308   4.866   6.916   0.550
 5458TIP3   OH216309   4.678   7.462   1.636
 5458TIP3    H116310   4.627   7.481   1.717
 5458TIP3    H216311   4.660   7.543   1.583
 5459TIP3   OH216312   4.560   7.346   1.151
 5459TIP3    H116313   4.467   7.320   1.170
 5459TIP3    H216314   4.573   7.304   1.063
 5460TIP3   OH216315   5.049   7.433   0.876
 5460TIP3    H116316   4.989   7.501   0.839
 5460TIP3    H216317   5.121   7.437   0.811
 5461TIP3   OH216318   5.229   7.710   1.964
 5461TIP3    H116319   5.205   7.638   2.027
 5461TIP3    H216320   5.323   7.723   1.987
 5462TIP3   OH216321   5.213   7.462   1.118
 5462TIP3    H116322   5.151   7.495   1.050
 5462TIP3    H216323   5.243   7.380   1.073
 5463TIP3   OH216324   4.498   7.488   1.845
 5463TIP3    H116325   4.519   7.553   1.914
 5463TIP3    H216326   4.485   7.407   1.897
 5464TIP3   OH216327   4.527   6.937   0.563
 5464TIP3    H116328   4.530   6.940   0.660
 5464TIP3    H216329   4.482   7.021   0.544
 5465TIP3   OH216330   4.088   7.011   1.427
 5465TIP3    H116331   4.165   7.042   1.480
 5465TIP3    H216332   4.127   6.979   1.345
 5466TIP3   OH216333   4.063   6.994   0.945
 5466TIP3    H116334   4.110   7.032   0.867
 5466TIP3    H216335   4.001   7.066   0.966
 5467TIP3   OH216336   5.221   7.707   1.542
 5467TIP3    H116337   5.253   7.635   1.483
 5467TIP3    H216338   5.191   7.654   1.619
 5468TIP3   OH216339   4.888   7.169   1.213
 5468TIP3    H116340   4.805   7.167   1.264
 5468TIP3    H216341   4.954   7.167   1.283
 5469TIP3   OH216342   4.322   7.224   1.221
 5469TIP3    H116343   4.227   7.233   1.194
 5469TIP3    H216344   4.343   7.132   1.198
 5470TIP3   OH216345   4.593   7.220   0.909
 5470TIP3    H116346   4.687   7.234   0.888
 5470TIP3    H216347   4.546   7.252   0.829
 5471TIP3   OH216348   5.381   7.243   1.414
 5471TIP3    H116349   5.347   7.255   1.506
 5471TIP3    H216350   5.313   7.182   1.378
 5472TIP3   OH216351   4.426   7.269   0.696
 5472TIP3    H116352   4.343   7.229   0.665
 5472TIP3    H216353   4.488   7.244   0.624
 5473TIP3   OH216354   4.511   8.041   2.054
 5473TIP3    H116355   4.589   8.070   2.106
 5473TIP3    H216356   4.446   8.030   2.127
 5474TIP3   OH216357   4.971   7.497   1.311
 5474TIP3    H116358   5.044   7.455   1.263
 5474TIP3    H216359   4.977   7.454   1.399
 5475TIP3   OH216360   4.496   6.983   1.189
 5475TIP3    H116361   4.459   6.905   1.236
 5475TIP3    H216362   4.544   6.941   1.116
 5476TIP3   OH216363   4.948   7.394   1.598
 5476TIP3    H116364   4.858   7.429   1.613
 5476TIP3    H216365   5.004   7.454   1.650
 5477TIP3   OH216366   4.700   7.782   0.706
 5477TIP3    H116367   4.625   7.722   0.686
 5477TIP3    H216368   4.669   7.824   0.790
 5478TIP3   OH216369   5.585   8.014   1.330
 5478TIP3    H116370   5.612   8.063   1.248
 5478TIP3    H216371   5.500   7.974   1.304
 5479TIP3   OH216372   5.098   8.123   1.692
 5479TIP3    H116373   5.117   8.067   1.768
 5479TIP3    H216374   5.015   8.165   1.721
 5480TIP3   OH216375   4.359   7.770   1.361
 5480TIP3    H116376   4.410   7.755   1.279
 5480TIP3    H216377   4.412   7.722   1.427
 5481TIP3   OH216378   4.261   7.717   1.984
 5481TIP3    H116379   4.275   7.704   2.080
 5481TIP3    H216380   4.187   7.655   1.967
 5482TIP3   OH216381   4.985   7.832   2.009
 5482TIP3    H116382   4.923   7.780   1.956
 5482TIP3    H216383   5.071   7.798   1.976
 5483TIP3   OH216384   5.874   8.274   1.579
 5483TIP3    H116385   5.778   8.286   1.567
 5483TIP3    H216386   5.901   8.260   1.486
 5484TIP3   OH216387   5.351   7.885   1.239
 5484TIP3    H116388   5.258   7.859   1.256
 5484TIP3    H216389   5.385   7.803   1.198
 5485TIP3   OH216390   4.049   7.405   0.710
 5485TIP3    H116391   4.091   7.493   0.723
 5485TIP3    H216392   3.967   7.416   0.763
 5486TIP3   OH216393   4.623   7.880   0.945
 5486TIP3    H116394   4.589   7.968   0.962
 5486TIP3    H216395   4.585   7.829   1.019
 5487TIP3   OH216396   5.139   8.086   1.419
 5487TIP3    H116397   5.130   8.095   1.517
 5487TIP3    H216398   5.222   8.038   1.410
 5488TIP3   OH216399   4.469   7.232   1.992
 5488TIP3    H116400   4.372   7.235   2.005
 5488TIP3    H216401   4.495   7.170   2.063
 5489TIP3   OH216402   4.165   7.654   0.781
 5489TIP3    H116403   4.100   7.692   0.843
 5489TIP3    H216404   4.179   7.729   0.719
 5490TIP3   OH216405   5.308   7.295   1.673
 5490TIP3    H116406   5.386   7.332   1.717
 5490TIP3    H216407   5.290   7.214   1.726
 5491TIP3   OH216408   5.181   7.051   0.838
 5491TIP3    H116409   5.142   7.087   0.757
 5491TIP3    H216410   5.230   7.127   0.874
 5492TIP3   OH216411   4.876   7.225   0.941
 5492TIP3    H116412   4.940   7.298   0.924
 5492TIP3    H216413   4.880   7.218   1.039
 5493TIP3   OH216414   5.145   7.546   1.748
 5493TIP3    H116415   5.165   7.600   1.828
 5493TIP3    H216416   5.198   7.467   1.764
 5494TIP3   OH216417   5.021   6.955   1.044
 5494TIP3    H116418   5.013   7.032   1.103
 5494TIP3    H216419   5.081   6.991   0.975
 5495TIP3   OH216420   4.533   6.953   0.838
 5495TIP3    H116421   4.532   7.044   0.874
 5495TIP3    H216422   4.629   6.935   0.844
 5496TIP3   OH216423   5.787   7.445   1.724
 5496TIP3    H116424   5.689   7.447   1.738
 5496TIP3    H216425   5.790   7.396   1.641
 5497TIP3   OH216426   5.438   7.644   1.123
 5497TIP3    H116427   5.362   7.583   1.129
 5497TIP3    H216428   5.508   7.593   1.169
 5498TIP3   OH216429   4.163   7.868   0.600
 5498TIP3    H116430   4.186   7.961   0.615
 5498TIP3    H216431   4.150   7.870   0.504
 5499TIP3   OH216432   4.101   7.142   0.713
 5499TIP3    H116433   4.095   7.239   0.719
 5499TIP3    H216434   4.011   7.119   0.685
 5500TIP3   OH216435   4.481   6.864   1.594
 5500TIP3    H116436   4.449   6.830   1.507
 5500TIP3    H216437   4.470   6.786   1.652
 5501TIP3   OH216438   4.308   8.013   2.234
 5501TIP3    H116439   4.327   7.917   2.241
 5501TIP3    H216440   4.217   8.011   2.196
 5502TIP3   OH216441   4.931   8.099   2.047
 5502TIP3    H116442   4.894   8.110   1.956
 5502TIP3    H216443   4.964   8.007   2.041
 5503TIP3   OH216444   5.407   8.113   1.624
 5503TIP3    H116445   5.472   8.174   1.582
 5503TIP3    H216446   5.327   8.166   1.621
 5504TIP3   OH216447   4.429   7.761   2.230
 5504TIP3    H116448   4.503   7.703   2.208
 5504TIP3    H216449   4.455   7.794   2.318
 5505TIP3   OH216450   4.510   7.577   0.676
 5505TIP3    H116451   4.461   7.552   0.756
 5505TIP3    H216452   4.527   7.492   0.635
 5506TIP3   OH216453   4.762   7.651   1.890
 5506TIP3    H116454   4.683   7.709   1.891
 5506TIP3    H216455   4.811   7.685   1.812
 5507TIP3   OH216456   5.282   8.044   2.024
 5507TIP3    H116457   5.364   8.023   1.976
 5507TIP3    H216458   5.281   7.977   2.094
 5508TIP3   OH216459   4.883   7.438   2.017
 5508TIP3    H116460   4.883   7.358   1.962
 5508TIP3    H216461   4.839   7.503   1.958
 5509TIP3   OH216462   4.887   7.225   1.823
 5509TIP3    H116463   4.913   7.265   1.738
 5509TIP3    H216464   4.793   7.201   1.805
 5510TIP3   OH216465   4.913   7.764   1.696
 5510TIP3    H116466   4.993   7.769   1.643
 5510TIP3    H216467   4.855   7.831   1.653
 5511TIP3   OH216468   5.494   7.727   2.078
 5511TIP3    H116469   5.543   7.645   2.090
 5511TIP3    H216470   5.563   7.788   2.046
 5512TIP3   OH216471   5.538   7.977   1.815
 5512TIP3    H116472   5.481   8.030   1.754
 5512TIP3    H216473   5.626   7.997   1.774
 5513TIP3   OH216474   4.762   7.550   2.248
 5513TIP3    H116475   4.693   7.481   2.260
 5513TIP3    H216476   4.797   7.526   2.160
 5514TIP3   OH216477   5.019   6.988   1.889
 5514TIP3    H116478   4.970   7.069   1.868
 5514TIP3    H216479   4.950   6.919   1.879
 5515TIP3   OH216480   5.144   7.496   2.106
 5515TIP3    H116481   5.139   7.473   2.200
 5515TIP3    H216482   5.054   7.469   2.078
 5516TIP3   OH216483   5.384   7.440   1.962
 5516TIP3    H116484   5.308   7.441   2.023
 5516TIP3    H216485   5.457   7.408   2.019
 5517TIP3   OH216486   5.618   7.382   2.112
 5517TIP3    H116487   5.627   7.286   2.130
 5517TIP3    H216488   5.610   7.420   2.202
 5518TIP3   OH216489   4.602   7.329   2.298
 5518TIP3    H116490   4.607   7.239   2.263
 5518TIP3    H216491   4.637   7.315   2.388
 5519TIP3   OH216492   5.109   6.995   2.151
 5519TIP3    H116493   5.178   6.926   2.146
 5519TIP3    H216494   5.071   6.990   2.062
 5520TIP3   OH216495   5.194   7.232   2.274
 5520TIP3    H116496   5.168   7.146   2.236
 5520TIP3    H216497   5.107   7.273   2.292
 5521TIP3   OH216498   3.886   7.796   0.602
 5521TIP3    H116499   3.982   7.809   0.608
 5521TIP3    H216500   3.879   7.699   0.584
 5522TIP3   OH216501   5.759   8.404   1.851
 5522TIP3    H116502   5.683   8.385   1.911
 5522TIP3    H216503   5.807   8.472   1.901
 5523TIP3   OH216504   5.719   8.148   1.134
 5523TIP3    H116505   5.780   8.096   1.079
 5523TIP3    H216506   5.711   8.232   1.086
 5524TIP3   OH216507   5.477   7.610   0.853
 5524TIP3    H116508   5.501   7.516   0.855
 5524TIP3    H216509   5.476   7.634   0.948
 5525TIP3   OH216510   4.117   7.696   1.595
 5525TIP3    H116511   4.115   7.665   1.502
 5525TIP3    H216512   4.215   7.697   1.611
 5526TIP3   OH216513   5.779   8.042   1.705
 5526TIP3    H116514   5.855   7.980   1.697
 5526TIP3    H216515   5.806   8.116   1.647
 5527TIP3   OH216516   5.971   7.852   1.724
 5527TIP3    H116517   5.894   7.804   1.762
 5527TIP3    H216518   6.040   7.783   1.738
 5528TIP3   OH216519   5.474   7.321   0.735
 5528TIP3    H116520   5.519   7.235   0.753
 5528TIP3    H216521   5.545   7.370   0.692
 5529TIP3   OH216522   5.650   7.507   1.239
 5529TIP3    H116523   5.736   7.535   1.200
 5529TIP3    H216524   5.661   7.545   1.329
 5530TIP3   OH216525   5.717   7.653   1.470
 5530TIP3    H116526   5.640   7.686   1.520
 5530TIP3    H216527   5.747   7.735   1.424
 5531TIP3   OH216528   4.334   7.380   2.272
 5531TIP3    H116529   4.432   7.373   2.272
 5531TIP3    H216530   4.311   7.294   2.313
 5532TIP3   OH216531   6.170   7.247   2.026
 5532TIP3    H116532   6.229   7.180   1.985
 5532TIP3    H216533   6.142   7.300   1.949
 5533TIP3   OH216534   5.584   7.084   0.789
 5533TIP3    H116535   5.638   7.064   0.868
 5533TIP3    H216536   5.531   7.001   0.781
 5534TIP3   OH216537   4.296   7.072   1.600
 5534TIP3    H116538   4.358   6.998   1.611
 5534TIP3    H216539   4.358   7.147   1.594
 5535TIP3   OH216540   4.099   7.346   1.674
 5535TIP3    H116541   4.148   7.341   1.590
 5535TIP3    H216542   4.127   7.433   1.706
 5536TIP3   OH216543   6.041   7.386   1.830
 5536TIP3    H116544   5.956   7.426   1.856
 5536TIP3    H216545   6.009   7.313   1.774
 5537TIP3   OH216546   4.082   6.854   1.176
 5537TIP3    H116547   3.988   6.848   1.200
 5537TIP3    H216548   4.079   6.911   1.096
 5538TIP3   OH216549   4.303   6.933   1.990
 5538TIP3    H116550   4.251   6.924   2.072
 5538TIP3    H216551   4.236   6.969   1.929
 5539TIP3   OH216552   5.940   7.148   1.709
 5539TIP3    H116553   5.848   7.141   1.678
 5539TIP3    H216554   5.970   7.055   1.698
 5540TIP3   OH216555   5.144   7.062   1.329
 5540TIP3    H116556   5.099   6.994   1.382
 5540TIP3    H216557   5.216   7.012   1.286
 5541TIP3   OH216558   5.667   6.944   1.236
 5541TIP3    H116559   5.702   6.997   1.161
 5541TIP3    H216560   5.571   6.960   1.229
 5542TIP3   OH216561   5.762   7.046   1.002
 5542TIP3    H116562   5.835   6.996   0.961
 5542TIP3    H216563   5.789   7.138   0.982
 5543TIP3   OH216564   4.392   6.772   1.345
 5543TIP3    H116565   4.300   6.740   1.347
 5543TIP3    H216566   4.441   6.687   1.342
 5544TIP3   OH216567   4.183   6.642   0.994
 5544TIP3    H116568   4.209   6.699   0.920
 5544TIP3    H216569   4.151   6.706   1.060
 5545TIP3   OH216570   4.836   6.804   1.225
 5545TIP3    H116571   4.895   6.855   1.168
 5545TIP3    H216572   4.855   6.841   1.312
 5546TIP3   OH216573   5.386   6.950   1.208
 5546TIP3    H116574   5.381   6.913   1.119
 5546TIP3    H216575   5.371   6.870   1.264
 5547TIP3   OH216576   5.413   6.873   0.801
 5547TIP3    H116577   5.324   6.910   0.796
 5547TIP3    H216578   5.398   6.785   0.840
 5548TIP3   OH216579   4.294   6.805   0.758
 5548TIP3    H116580   4.340   6.741   0.699
 5548TIP3    H216581   4.370   6.854   0.796
 5549TIP3   OH216582   4.810   6.975   0.854
 5549TIP3    H116583   4.867   6.927   0.916
 5549TIP3    H216584   4.831   7.067   0.880
 5550TIP3   OH216585   4.600   7.055   2.238
 5550TIP3    H116586   4.566   6.983   2.294
 5550TIP3    H216587   4.695   7.054   2.264
 5551TIP3   OH216588   4.850   7.053   2.357
 5551TIP3    H116589   4.935   7.028   2.316
 5551TIP3    H216590   4.840   6.981   2.423
 5552TIP3   OH216591   5.675   7.111   2.140
 5552TIP3    H116592   5.696   7.084   2.232
 5552TIP3    H216593   5.763   7.106   2.098
 5553TIP3   OH216594   6.174   7.928   1.142
 5553TIP3    H116595   6.225   7.884   1.211
 5553TIP3    H216596   6.244   7.959   1.080
 5554TIP3   OH216597   6.055   7.624   0.945
 5554TIP3    H116598   6.144   7.596   0.975
 5554TIP3    H216599   6.042   7.572   0.866
 5555TIP3   OH216600   6.415   7.402   1.268
 5555TIP3    H116601   6.356   7.440   1.201
 5555TIP3    H216602   6.361   7.418   1.349
 5556TIP3   OH216603   6.299   7.512   1.036
 5556TIP3    H116604   6.352   7.591   1.064
 5556TIP3    H216605   6.359   7.474   0.970
 5557TIP3   OH216606   6.778   7.126   0.987
 5557TIP3    H116607   6.764   7.030   0.997
 5557TIP3    H216608   6.694   7.161   1.023
 5558TIP3   OH216609   6.282   8.060   1.399
 5558TIP3    H116610   6.269   8.142   1.448
 5558TIP3    H216611   6.191   8.024   1.408
 5559TIP3   OH216612   5.946   8.189   1.334
 5559TIP3    H116613   5.874   8.177   1.270
 5559TIP3    H216614   5.972   8.098   1.358
 5560TIP3   OH216615   6.535   7.208   1.108
 5560TIP3    H116616   6.447   7.172   1.082
 5560TIP3    H216617   6.505   7.281   1.165
 5561TIP3   OH216618   7.051   7.282   1.329
 5561TIP3    H116619   7.084   7.316   1.413
 5561TIP3    H216620   6.955   7.273   1.348
 5562TIP3   OH216621   6.458   7.713   1.122
 5562TIP3    H116622   6.411   7.742   1.203
 5562TIP3    H216623   6.483   7.797   1.081
 5563TIP3   OH216624   6.311   7.752   1.348
 5563TIP3    H116625   6.288   7.817   1.417
 5563TIP3    H216626   6.288   7.668   1.392
 5564TIP3   OH216627   5.887   7.268   0.913
 5564TIP3    H116628   5.958   7.297   0.975
 5564TIP3    H216629   5.935   7.252   0.831
 5565TIP3   OH216630   6.040   7.965   1.477
 5565TIP3    H116631   6.048   7.950   1.574
 5565TIP3    H216632   5.963   7.909   1.455
 5566TIP3   OH216633   6.264   7.486   1.481
 5566TIP3    H116634   6.167   7.492   1.495
 5566TIP3    H216635   6.291   7.429   1.554
 5567TIP3   OH216636   6.276   7.124   1.087
 5567TIP3    H116637   6.241   7.091   1.001
 5567TIP3    H216638   6.267   7.044   1.144
 5568TIP3   OH216639   6.114   8.271   1.708
 5568TIP3    H116640   6.143   8.178   1.704
 5568TIP3    H216641   6.023   8.265   1.671
 5569TIP3   OH216642   6.234   8.021   1.710
 5569TIP3    H116643   6.293   7.945   1.706
 5569TIP3    H216644   6.247   8.051   1.802
 5570TIP3   OH216645   6.657   7.707   1.503
 5570TIP3    H116646   6.686   7.617   1.479
 5570TIP3    H216647   6.600   7.732   1.429
 5571TIP3   OH216648   6.665   7.499   1.287
 5571TIP3    H116649   6.641   7.533   1.199
 5571TIP3    H216650   6.578   7.459   1.311
 5572TIP3   OH216651   6.554   7.806   1.739
 5572TIP3    H116652   6.487   7.735   1.753
 5572TIP3    H216653   6.595   7.778   1.654
 5573TIP3   OH216654   6.786   7.249   1.382
 5573TIP3    H116655   6.732   7.324   1.354
 5573TIP3    H216656   6.725   7.173   1.371
 5574TIP3   OH216657   6.400   7.584   1.784
 5574TIP3    H116658   6.404   7.491   1.753
 5574TIP3    H216659   6.433   7.572   1.876
 5575TIP3   OH216660   6.909   7.248   1.629
 5575TIP3    H116661   6.980   7.182   1.622
 5575TIP3    H216662   6.860   7.235   1.546
 5576TIP3   OH216663   6.973   7.454   1.799
 5576TIP3    H116664   6.950   7.390   1.728
 5576TIP3    H216665   6.905   7.523   1.787
 5577TIP3   OH216666   5.914   7.949   1.076
 5577TIP3    H116667   5.923   7.907   0.990
 5577TIP3    H216668   6.008   7.951   1.104
 5578TIP3   OH216669   6.134   7.638   1.758
 5578TIP3    H116670   6.232   7.630   1.762
 5578TIP3    H216671   6.108   7.552   1.797
 5579TIP3   OH216672   6.091   7.329   1.084
 5579TIP3    H116673   6.152   7.253   1.099
 5579TIP3    H216674   6.154   7.403   1.082
 5580TIP3   OH216675   5.896   7.602   1.167
 5580TIP3    H116676   5.945   7.605   1.082
 5580TIP3    H216677   5.918   7.689   1.203
 5581TIP3   OH216678   6.098   7.187   1.475
 5581TIP3    H116679   6.048   7.179   1.558
 5581TIP3    H216680   6.030   7.226   1.416
 5582TIP3   OH216681   6.183   7.029   0.851
 5582TIP3    H116682   6.092   6.994   0.844
 5582TIP3    H216683   6.234   6.948   0.834
 5583TIP3   OH216684   6.396   7.312   1.721
 5583TIP3    H116685   6.359   7.242   1.778
 5583TIP3    H216686   6.490   7.309   1.751
 5584TIP3   OH216687   6.643   7.303   1.840
 5584TIP3    H116688   6.733   7.287   1.810
 5584TIP3    H216689   6.633   7.234   1.909
 5585TIP3   OH216690   1.837   0.498   5.749
 5585TIP3    H116691   1.819   0.440   5.823
 5585TIP3    H216692   1.864   0.580   5.793
 5586TIP3   OH216693   1.483   0.955   5.762
 5586TIP3    H116694   1.543   0.891   5.718
 5586TIP3    H216695   1.484   0.924   5.853
 5587TIP3   OH216696   2.438  -0.067   6.303
 5587TIP3    H116697   2.368  -0.005   6.276
 5587TIP3    H216698   2.503  -0.010   6.346
 5588TIP3   OH216699   1.525   0.431   5.521
 5588TIP3    H116700   1.442   0.385   5.502
 5588TIP3    H216701   1.490   0.507   5.568
 5589TIP3   OH216702   1.898   0.740   5.915
 5589TIP3    H116703   1.804   0.739   5.944
 5589TIP3    H216704   1.901   0.824   5.866
 5590TIP3   OH216705   1.647   0.791   5.621
 5590TIP3    H116706   1.682   0.709   5.582
 5590TIP3    H216707   1.686   0.857   5.560
 5591TIP3   OH216708   1.761   0.575   5.490
 5591TIP3    H116709   1.695   0.508   5.465
 5591TIP3    H216710   1.796   0.537   5.573
 5592TIP3   OH216711   2.127   0.653   6.259
 5592TIP3    H116712   2.125   0.578   6.196
 5592TIP3    H216713   2.115   0.730   6.199
 5593TIP3   OH216714   2.323   0.287   6.100
 5593TIP3    H116715   2.244   0.344   6.104
 5593TIP3    H216716   2.358   0.311   6.012
 5594TIP3   OH216717   1.761   0.149   5.492
 5594TIP3    H116718   1.705   0.154   5.570
 5594TIP3    H216719   1.841   0.103   5.526
 5595TIP3   OH216720   1.646   0.757   6.014
 5595TIP3    H116721   1.641   0.839   6.066
 5595TIP3    H216722   1.642   0.687   6.083
 5596TIP3   OH216723   1.380   0.734   5.526
 5596TIP3    H116724   1.427   0.748   5.609
 5596TIP3    H216725   1.290   0.717   5.554
 5597TIP3   OH216726   1.924   0.595   4.905
 5597TIP3    H116727   1.933   0.692   4.895
 5597TIP3    H216728   2.017   0.566   4.895
 5598TIP3   OH216729   2.365   0.998   6.302
 5598TIP3    H116730   2.367   0.902   6.319
 5598TIP3    H216731   2.283   1.023   6.350
 5599TIP3   OH216732   1.500   0.814   6.403
 5599TIP3    H116733   1.489   0.898   6.454
 5599TIP3    H216734   1.427   0.761   6.441
 5600TIP3   OH216735   1.203   0.919   5.379
 5600TIP3    H116736   1.179   0.917   5.285
 5600TIP3    H216737   1.193   1.012   5.405
 5601TIP3   OH216738   1.437   0.812   5.028
 5601TIP3    H116739   1.500   0.744   4.996
 5601TIP3    H216740   1.470   0.828   5.120
 5602TIP3   OH216741   1.476   0.867   5.300
 5602TIP3    H116742   1.393   0.864   5.352
 5602TIP3    H216743   1.532   0.817   5.362
 5603TIP3   OH216744   2.264   0.117   6.578
 5603TIP3    H116745   2.179   0.162   6.562
 5603TIP3    H216746   2.241   0.024   6.563
 5604TIP3   OH216747   1.670   0.051   5.047
 5604TIP3    H116748   1.655   0.007   4.963
 5604TIP3    H216749   1.759   0.089   5.036
 5605TIP3   OH216750   2.055   1.351   6.401
 5605TIP3    H116751   2.059   1.376   6.307
 5605TIP3    H216752   2.132   1.399   6.437
 5606TIP3   OH216753   2.091   0.442   6.086
 5606TIP3    H116754   2.130   0.492   6.011
 5606TIP3    H216755   2.007   0.411   6.048
 5607TIP3   OH216756   1.379   0.399   5.220
 5607TIP3    H116757   1.324   0.476   5.247
 5607TIP3    H216758   1.373   0.344   5.300
 5608TIP3   OH216759   1.767   0.775   6.373
 5608TIP3    H116760   1.670   0.788   6.370
 5608TIP3    H216761   1.790   0.838   6.443
 5609TIP3   OH216762   2.169  -0.142   5.254
 5609TIP3    H116763   2.106  -0.198   5.204
 5609TIP3    H216764   2.148  -0.055   5.215
 5610TIP3   OH216765   2.380   0.713   6.345
 5610TIP3    H116766   2.282   0.705   6.340
 5610TIP3    H216767   2.405   0.683   6.254
 5611TIP3   OH216768   1.857   0.668   5.172
 5611TIP3    H116769   1.835   0.601   5.239
 5611TIP3    H216770   1.873   0.616   5.092
 5612TIP3   OH216771   1.866   0.296   5.995
 5612TIP3    H116772   1.775   0.271   6.019
 5612TIP3    H216773   1.894   0.224   5.939
 5613TIP3   OH216774   1.272   0.890   6.252
 5613TIP3    H116775   1.299   0.957   6.187
 5613TIP3    H216776   1.357   0.871   6.296
 5614TIP3   OH216777   1.688   0.540   6.189
 5614TIP3    H116778   1.667   0.550   6.282
 5614TIP3    H216779   1.785   0.542   6.191
 5615TIP3   OH216780   1.614   0.401   5.072
 5615TIP3    H116781   1.673   0.367   5.144
 5615TIP3    H216782   1.529   0.399   5.121
 5616TIP3   OH216783   1.888   1.039   6.242
 5616TIP3    H116784   1.806   0.988   6.225
 5616TIP3    H216785   1.882   1.106   6.171
 5617TIP3   OH216786   1.958   0.872   4.895
 5617TIP3    H116787   2.000   0.948   4.850
 5617TIP3    H216788   1.878   0.917   4.929
 5618TIP3   OH216789   1.778   0.329   5.278
 5618TIP3    H116790   1.759   0.268   5.353
 5618TIP3    H216791   1.876   0.327   5.278
 5619TIP3   OH216792   1.191   0.593   5.278
 5619TIP3    H116793   1.133   0.606   5.355
 5619TIP3    H216794   1.215   0.685   5.258
 5620TIP3   OH216795   1.913   1.011   5.837
 5620TIP3    H116796   1.869   1.057   5.762
 5620TIP3    H216797   2.007   1.033   5.816
 5621TIP3   OH216798   1.143   0.561   4.996
 5621TIP3    H116799   1.151   0.529   5.088
 5621TIP3    H216800   1.224   0.523   4.955
 5622TIP3   OH216801   1.805   0.913   6.618
 5622TIP3    H116802   1.844   0.836   6.661
 5622TIP3    H216803   1.877   0.978   6.628
 5623TIP3   OH216804   1.585   0.621   4.895
 5623TIP3    H116805   1.625   0.559   4.959
 5623TIP3    H216806   1.648   0.620   4.821
 5624TIP3   OH216807   1.913   0.548   6.397
 5624TIP3    H116808   1.998   0.577   6.357
 5624TIP3    H216809   1.864   0.633   6.392
 5625TIP3   OH216810   1.923   0.126   4.928
 5625TIP3    H116811   1.901   0.083   4.843
 5625TIP3    H216812   1.887   0.216   4.910
 5626TIP3   OH216813   2.076   0.380   6.565
 5626TIP3    H116814   2.022   0.437   6.507
 5626TIP3    H216815   2.165   0.405   6.532
 5627TIP3   OH216816   0.914   0.874   5.156
 5627TIP3    H116817   1.010   0.860   5.149
 5627TIP3    H216818   0.898   0.925   5.074
 5628TIP3   OH216819   2.163   1.108   5.792
 5628TIP3    H116820   2.193   1.140   5.879
 5628TIP3    H216821   2.229   1.146   5.732
 5629TIP3   OH216822   2.192   1.125   6.076
 5629TIP3    H116823   2.155   1.034   6.071
 5629TIP3    H216824   2.272   1.107   6.128
 5630TIP3   OH216825   2.237   0.801   6.645
 5630TIP3    H116826   2.167   0.808   6.713
 5630TIP3    H216827   2.281   0.888   6.651
 5631TIP3   OH216828   2.058   0.316   5.264
 5631TIP3    H116829   2.127   0.379   5.237
 5631TIP3    H216830   2.099   0.277   5.345
 5632TIP3   OH216831   2.181   0.183   5.467
 5632TIP3    H116832   2.117   0.143   5.529
 5632TIP3    H216833   2.250   0.220   5.525
 5633TIP3   OH216834   2.234   0.571   5.897
 5633TIP3    H116835   2.292   0.508   5.850
 5633TIP3    H216836   2.235   0.648   5.837
 5634TIP3   OH216837   2.069   0.871   6.100
 5634TIP3    H116838   1.999   0.918   6.149
 5634TIP3    H216839   2.019   0.827   6.029
 5635TIP3   OH216840   2.118   0.090   5.116
 5635TIP3    H116841   2.047   0.097   5.048
 5635TIP3    H216842   2.093   0.166   5.173
 5636TIP3   OH216843   1.999  -0.249   5.062
 5636TIP3    H116844   1.952  -0.179   5.014
 5636TIP3    H216845   1.944  -0.326   5.044
 5637TIP3   OH216846   1.994   0.034   5.625
 5637TIP3    H116847   2.020  -0.058   5.607
 5637TIP3    H216848   2.013   0.043   5.718
 5638TIP3   OH216849   2.306   0.470   6.461
 5638TIP3    H116850   2.377   0.402   6.457
 5638TIP3    H216851   2.342   0.542   6.407
 5639TIP3   OH216852   2.474   0.266   6.492
 5639TIP3    H116853   2.402   0.211   6.529
 5639TIP3    H216854   2.550   0.207   6.507
 5640TIP3   OH216855   2.146  -0.056   6.010
 5640TIP3    H116856   2.232  -0.037   5.967
 5640TIP3    H216857   2.164  -0.021   6.098
 5641TIP3   OH216858   2.205   0.084   6.242
 5641TIP3    H116859   2.124   0.126   6.274
 5641TIP3    H216860   2.250   0.158   6.196
 5642TIP3   OH216861   1.743   0.974   5.445
 5642TIP3    H116862   1.796   0.958   5.364
 5642TIP3    H216863   1.799   1.038   5.492
 5643TIP3   OH216864   1.475   1.061   6.526
 5643TIP3    H116865   1.517   1.052   6.614
 5643TIP3    H216866   1.544   1.110   6.475
 5644TIP3   OH216867   1.657   1.200   6.378
 5644TIP3    H116868   1.729   1.153   6.332
 5644TIP3    H216869   1.709   1.258   6.438
 5645TIP3   OH216870   1.371   1.075   6.060
 5645TIP3    H116871   1.298   1.091   5.997
 5645TIP3    H216872   1.384   1.165   6.097
 5646TIP3   OH216873   1.638   1.013   6.115
 5646TIP3    H116874   1.544   1.032   6.096
 5646TIP3    H216875   1.682   1.089   6.072
 5647TIP3   OH216876   1.841   1.202   6.028
 5647TIP3    H116877   1.827   1.287   5.980
 5647TIP3    H216878   1.870   1.143   5.955
 5648TIP3   OH216879   1.179   0.823   5.113
 5648TIP3    H116880   1.271   0.835   5.083
 5648TIP3    H216881   1.155   0.743   5.061
 5649TIP3   OH216882   1.896   0.933   5.217
 5649TIP3    H116883   1.886   0.836   5.205
 5649TIP3    H216884   1.848   0.966   5.138
 5650TIP3   OH216885   2.119   1.082   6.404
 5650TIP3    H116886   2.041   1.054   6.353
 5650TIP3    H216887   2.103   1.179   6.408
 5651TIP3   OH216888   3.388   0.449   5.172
 5651TIP3    H116889   3.362   0.542   5.157
 5651TIP3    H216890   3.313   0.403   5.131
 5652TIP3   OH216891   3.389   0.456   5.550
 5652TIP3    H116892   3.416   0.432   5.640
 5652TIP3    H216893   3.342   0.376   5.520
 5653TIP3   OH216894   2.682   0.352   5.921
 5653TIP3    H116895   2.716   0.282   5.979
 5653TIP3    H216896   2.763   0.403   5.904
 5654TIP3   OH216897   3.629   0.755   5.234
 5654TIP3    H116898   3.617   0.684   5.298
 5654TIP3    H216899   3.660   0.828   5.291
 5655TIP3   OH216900   2.652   0.755   5.640
 5655TIP3    H116901   2.648   0.657   5.643
 5655TIP3    H216902   2.749   0.768   5.640
 5656TIP3   OH216903   2.348  -0.039   5.442
 5656TIP3    H116904   2.304   0.047   5.443
 5656TIP3    H216905   2.288  -0.090   5.384
 5657TIP3   OH216906   2.414   0.254   5.593
 5657TIP3    H116907   2.458   0.174   5.629
 5657TIP3    H216908   2.484   0.291   5.537
 5658TIP3   OH216909   3.273   1.218   5.247
 5658TIP3    H116910   3.324   1.145   5.205
 5658TIP3    H216911   3.268   1.190   5.339
 5659TIP3   OH216912   3.171   0.666   5.588
 5659TIP3    H116913   3.243   0.609   5.557
 5659TIP3    H216914   3.223   0.740   5.629
 5660TIP3   OH216915   3.606   0.178   5.646
 5660TIP3    H116916   3.621   0.086   5.669
 5660TIP3    H216917   3.563   0.173   5.558
 5661TIP3   OH216918   2.907  -0.196   5.581
 5661TIP3    H116919   2.890  -0.109   5.539
 5661TIP3    H216920   2.842  -0.252   5.538
 5662TIP3   OH216921   3.602  -0.024   5.267
 5662TIP3    H116922   3.660  -0.085   5.317
 5662TIP3    H216923   3.637  -0.033   5.177
 5663TIP3   OH216924   2.542   0.039   5.696
 5663TIP3    H116925   2.633   0.042   5.735
 5663TIP3    H216926   2.562  -0.018   5.619
 5664TIP3   OH216927   3.006   0.240   5.497
 5664TIP3    H116928   3.100   0.216   5.515
 5664TIP3    H216929   2.969   0.154   5.471
 5665TIP3   OH216930   4.238   0.189   5.793
 5665TIP3    H116931   4.166   0.245   5.758
 5665TIP3    H216932   4.294   0.253   5.839
 5666TIP3   OH216933   3.285   0.677   5.039
 5666TIP3    H116934   3.236   0.649   4.961
 5666TIP3    H216935   3.237   0.760   5.062
 5667TIP3   OH216936   3.038   0.599   5.833
 5667TIP3    H116937   2.974   0.665   5.868
 5667TIP3    H216938   3.086   0.653   5.768
 5668TIP3   OH216939   2.795   0.008   5.769
 5668TIP3    H116940   2.867   0.047   5.822
 5668TIP3    H216941   2.831  -0.080   5.752
 5669TIP3   OH216942   2.856   0.790   5.916
 5669TIP3    H116943   2.838   0.880   5.883
 5669TIP3    H216944   2.781   0.779   5.978
 5670TIP3   OH216945   2.262   0.483   5.161
 5670TIP3    H116946   2.221   0.513   5.078
 5670TIP3    H216947   2.294   0.567   5.200
 5671TIP3   OH216948   3.690   0.997   5.409
 5671TIP3    H116949   3.606   0.991   5.457
 5671TIP3    H216950   3.682   1.085   5.365
 5672TIP3   OH216951   3.405   1.043   5.080
 5672TIP3    H116952   3.454   0.961   5.057
 5672TIP3    H216953   3.463   1.109   5.036
 5673TIP3   OH216954   3.548   0.829   4.980
 5673TIP3    H116955   3.500   0.751   4.947
 5673TIP3    H216956   3.583   0.795   5.066
 5674TIP3   OH216957   3.931   0.911   5.744
 5674TIP3    H116958   3.913   0.833   5.688
 5674TIP3    H216959   3.907   0.985   5.685
 5675TIP3   OH216960   3.222   0.309   4.996
 5675TIP3    H116961   3.139   0.354   4.970
 5675TIP3    H216962   3.261   0.285   4.910
 5676TIP3   OH216963   4.124   0.552   5.590
 5676TIP3    H116964   4.039   0.601   5.595
 5676TIP3    H216965   4.150   0.574   5.498
 5677TIP3   OH216966   3.569   0.396   4.973
 5677TIP3    H116967   3.512   0.414   5.052
 5677TIP3    H216968   3.652   0.368   5.018
 5678TIP3   OH216969   3.798   0.428   5.885
 5678TIP3    H116970   3.793   0.512   5.935
 5678TIP3    H216971   3.711   0.431   5.840
 5679TIP3   OH216972   2.797   0.386   5.391
 5679TIP3    H116973   2.758   0.327   5.323
 5679TIP3    H216974   2.875   0.334   5.422
 5680TIP3   OH216975   2.924   0.799   5.537
 5680TIP3    H116976   2.912   0.747   5.457
 5680TIP3    H216977   3.013   0.769   5.565
 5681TIP3   OH216978   2.931   0.358   5.748
 5681TIP3    H116979   2.966   0.334   5.659
 5681TIP3    H216980   2.977   0.443   5.766
 5682TIP3   OH216981   3.051   0.883   6.102
 5682TIP3    H116982   3.010   0.970   6.117
 5682TIP3    H216983   3.002   0.850   6.025
 5683TIP3   OH216984   3.419   0.247   4.798
 5683TIP3    H116985   3.473   0.312   4.848
 5683TIP3    H216986   3.436   0.271   4.705
 5684TIP3   OH216987   2.820   0.476   6.167
 5684TIP3    H116988   2.827   0.561   6.215
 5684TIP3    H216989   2.725   0.456   6.177
 5685TIP3   OH216990   3.149   0.925   5.069
 5685TIP3    H116991   3.226   0.977   5.096
 5685TIP3    H216992   3.087   0.992   5.037
 5686TIP3   OH216993   2.861   1.093   6.153
 5686TIP3    H116994   2.830   1.084   6.061
 5686TIP3    H216995   2.783   1.065   6.205
 5687TIP3   OH216996   2.663   0.227   5.195
 5687TIP3    H116997   2.597   0.271   5.138
 5687TIP3    H216998   2.626   0.139   5.204
 5688TIP3   OH216999   3.721   0.853   4.396
 5688TIP3    H117000   3.730   0.949   4.383
 5688TIP3    H217001   3.813   0.822   4.383
 5689TIP3   OH217002   2.442   0.611   6.103
 5689TIP3    H117003   2.388   0.585   6.027
 5689TIP3    H217004   2.484   0.526   6.130
 5690TIP3   OH217005   2.300   0.802   5.740
 5690TIP3    H117006   2.395   0.793   5.724
 5690TIP3    H217007   2.298   0.883   5.793
 5691TIP3   OH217008   4.164   1.256   5.790
 5691TIP3    H117009   4.162   1.160   5.803
 5691TIP3    H217010   4.081   1.282   5.836
 5692TIP3   OH217011   3.028   1.171   4.876
 5692TIP3    H117012   2.983   1.155   4.791
 5692TIP3    H217013   2.997   1.261   4.900
 5693TIP3   OH217014   2.467   1.020   5.263
 5693TIP3    H117015   2.518   1.012   5.346
 5693TIP3    H217016   2.413   0.939   5.269
 5694TIP3   OH217017   3.232   1.072   4.518
 5694TIP3    H117018   3.291   1.002   4.482
 5694TIP3    H217019   3.264   1.080   4.610
 5695TIP3   OH217020   3.280   1.118   4.788
 5695TIP3    H117021   3.192   1.128   4.831
 5695TIP3    H217022   3.331   1.079   4.860
 5696TIP3   OH217023   4.054   0.377   6.064
 5696TIP3    H117024   3.975   0.412   6.022
 5696TIP3    H217025   4.039   0.281   6.053
 5697TIP3   OH217026   2.647   0.797   6.092
 5697TIP3    H117027   2.702   0.779   6.172
 5697TIP3    H217028   2.576   0.731   6.102
 5698TIP3   OH217029   3.835   0.171   6.007
 5698TIP3    H117030   3.796   0.194   6.091
 5698TIP3    H217031   3.809   0.245   5.949
 5699TIP3   OH217032   3.480   0.289   4.527
 5699TIP3    H117033   3.465   0.270   4.434
 5699TIP3    H217034   3.561   0.343   4.520
 5700TIP3   OH217035   2.996   0.139   5.907
 5700TIP3    H117036   2.937   0.161   5.981
 5700TIP3    H217037   2.983   0.217   5.849
 5701TIP3   OH217038   2.867   0.015   5.412
 5701TIP3    H117039   2.771   0.000   5.420
 5701TIP3    H217040   2.884  -0.013   5.318
 5702TIP3   OH217041   3.347   0.109   5.134
 5702TIP3    H117042   3.298   0.181   5.088
 5702TIP3    H217043   3.410   0.080   5.064
 5703TIP3   OH217044   3.541   0.409   6.208
 5703TIP3    H117045   3.516   0.329   6.260
 5703TIP3    H217046   3.636   0.416   6.232
 5704TIP3   OH217047   3.487   0.176   5.398
 5704TIP3    H117048   3.436   0.218   5.328
 5704TIP3    H217049   3.521   0.098   5.347
 5705TIP3   OH217050   2.796   0.169   6.103
 5705TIP3    H117051   2.830   0.230   6.169
 5705TIP3    H217052   2.786   0.086   6.153
 5706TIP3   OH217053   2.431  -0.228   5.233
 5706TIP3    H117054   2.443  -0.234   5.137
 5706TIP3    H217055   2.336  -0.204   5.239
 5707TIP3   OH217056   3.520   0.383   5.798
 5707TIP3    H117057   3.557   0.311   5.741
 5707TIP3    H217058   3.494   0.330   5.876
 5708TIP3   OH217059   2.612  -0.101   5.462
 5708TIP3    H117060   2.518  -0.076   5.445
 5708TIP3    H217061   2.615  -0.186   5.418
 5709TIP3   OH217062   2.914  -0.084   5.161
 5709TIP3    H117063   3.003  -0.099   5.126
 5709TIP3    H217064   2.862  -0.084   5.079
 5710TIP3   OH217065   2.729  -0.091   4.939
 5710TIP3    H117066   2.665  -0.100   4.867
 5710TIP3    H217067   2.813  -0.084   4.888
 5711TIP3   OH217068   3.854   1.605   5.889
 5711TIP3    H117069   3.849   1.629   5.795
 5711TIP3    H217070   3.929   1.659   5.920
 5712TIP3   OH217071   2.807   0.716   6.310
 5712TIP3    H117072   2.891   0.748   6.349
 5712TIP3    H217073   2.749   0.719   6.389
 5713TIP3   OH217074   3.260   0.163   5.568
 5713TIP3    H117075   3.346   0.147   5.525
 5713TIP3    H217076   3.274   0.130   5.659
 5714TIP3   OH217077   3.271   0.090   5.834
 5714TIP3    H117078   3.180   0.091   5.869
 5714TIP3    H217079   3.321   0.138   5.903
 5715TIP3   OH217080   2.984   0.459   4.946
 5715TIP3    H117081   2.914   0.391   4.938
 5715TIP3    H217082   2.970   0.491   5.038
 5716TIP3   OH217083   3.890   0.692   5.581
 5716TIP3    H117084   3.911   0.743   5.500
 5716TIP3    H217085   3.804   0.650   5.558
 5717TIP3   OH217086   3.422  -0.156   4.758
 5717TIP3    H117087   3.338  -0.187   4.795
 5717TIP3    H217088   3.453  -0.097   4.830
 5718TIP3   OH217089   3.522   0.031   4.933
 5718TIP3    H117090   3.619   0.042   4.936
 5718TIP3    H217091   3.493   0.106   4.877
 5719TIP3   OH217092   2.675   0.471   5.626
 5719TIP3    H117093   2.717   0.450   5.540
 5719TIP3    H217094   2.729   0.418   5.687
 5720TIP3   OH217095   3.131   0.606   4.767
 5720TIP3    H117096   3.085   0.692   4.776
 5720TIP3    H217097   3.080   0.551   4.829
 5721TIP3   OH217098   2.558   0.405   6.244
 5721TIP3    H117099   2.591   0.391   6.335
 5721TIP3    H217100   2.496   0.331   6.233
 5722TIP3   OH217101   3.287   0.507   6.266
 5722TIP3    H117102   3.229   0.463   6.203
 5722TIP3    H217103   3.376   0.485   6.230
 5723TIP3   OH217104   3.572   1.047   5.824
 5723TIP3    H117105   3.484   1.008   5.803
 5723TIP3    H217106   3.558   1.084   5.913
 5724TIP3   OH217107   3.957   0.106   4.742
 5724TIP3    H117108   3.897   0.056   4.681
 5724TIP3    H217109   3.944   0.197   4.705
 5725TIP3   OH217110   4.180   0.966   5.832
 5725TIP3    H117111   4.081   0.961   5.824
 5725TIP3    H217112   4.204   0.935   5.742
 5726TIP3   OH217113   3.659   0.927   4.662
 5726TIP3    H117114   3.632   0.859   4.724
 5726TIP3    H217115   3.670   0.878   4.578
 5727TIP3   OH217116   3.663   0.559   5.488
 5727TIP3    H117117   3.572   0.542   5.516
 5727TIP3    H217118   3.687   0.475   5.446
 5728TIP3   OH217119   2.780   0.780   5.244
 5728TIP3    H117120   2.782   0.864   5.195
 5728TIP3    H217121   2.686   0.770   5.263
 5729TIP3   OH217122   2.338   0.090   4.952
 5729TIP3    H117123   2.389   0.170   4.974
 5729TIP3    H217124   2.265   0.096   5.017
 5730TIP3   OH217125   2.919   0.546   5.192
 5730TIP3    H117126   2.884   0.636   5.211
 5730TIP3    H217127   2.889   0.498   5.271
 5731TIP3   OH217128   3.049   1.119   5.717
 5731TIP3    H117129   3.100   1.192   5.679
 5731TIP3    H217130   3.121   1.056   5.740
 5732TIP3   OH217131   2.699   1.025   5.101
 5732TIP3    H117132   2.615   1.032   5.150
 5732TIP3    H217133   2.732   1.117   5.106
 5733TIP3   OH217134   3.411   0.654   4.562
 5733TIP3    H117135   3.467   0.629   4.639
 5733TIP3    H217136   3.324   0.628   4.595
 5734TIP3   OH217137   3.692   1.296   5.732
 5734TIP3    H117138   3.622   1.227   5.736
 5734TIP3    H217139   3.662   1.351   5.657
 5735TIP3   OH217140   3.753   1.127   4.382
 5735TIP3    H117141   3.771   1.185   4.306
 5735TIP3    H217142   3.674   1.173   4.419
 5736TIP3   OH217143   3.574   0.586   4.774
 5736TIP3    H117144   3.563   0.525   4.849
 5736TIP3    H217145   3.671   0.585   4.765
 5737TIP3   OH217146   2.486   0.989   5.882
 5737TIP3    H117147   2.544   0.916   5.910
 5737TIP3    H217148   2.520   1.061   5.937
 5738TIP3   OH217149   2.777   0.635   4.562
 5738TIP3    H117150   2.796   0.543   4.536
 5738TIP3    H217151   2.760   0.625   4.658
 5739TIP3   OH217152   2.724   0.639   4.835
 5739TIP3    H117153   2.798   0.611   4.891
 5739TIP3    H217154   2.729   0.736   4.843
 5740TIP3   OH217155   2.459   0.331   5.036
 5740TIP3    H117156   2.395   0.377   5.094
 5740TIP3    H217157   2.477   0.402   4.971
 5741TIP3   OH217158   2.988   0.835   4.780
 5741TIP3    H117159   2.903   0.863   4.819
 5741TIP3    H217160   3.008   0.911   4.723
 5742TIP3   OH217161   3.208  -0.116   5.182
 5742TIP3    H117162   3.251  -0.032   5.155
 5742TIP3    H217163   3.193  -0.099   5.276
 5743TIP3   OH217164   3.459   0.222   6.008
 5743TIP3    H117165   3.455   0.286   6.081
 5743TIP3    H217166   3.512   0.152   6.050
 5744TIP3   OH217167   2.731   0.912   4.850
 5744TIP3    H117168   2.703   0.983   4.788
 5744TIP3    H217169   2.717   0.955   4.937
 5745TIP3   OH217170   3.741   0.312   5.371
 5745TIP3    H117171   3.661   0.262   5.395
 5745TIP3    H217172   3.811   0.265   5.423
 5746TIP3   OH217173   2.451   0.545   4.841
 5746TIP3    H117174   2.520   0.613   4.853
 5746TIP3    H217175   2.498   0.488   4.775
 5747TIP3   OH217176   2.393  -0.182   4.951
 5747TIP3    H117177   2.387  -0.085   4.953
 5747TIP3    H217178   2.303  -0.210   4.966
 5748TIP3   OH217179   3.708   1.265   5.320
 5748TIP3    H117180   3.664   1.312   5.246
 5748TIP3    H217181   3.801   1.286   5.300
 5749TIP3   OH217182   2.323   0.755   5.231
 5749TIP3    H117183   2.250   0.788   5.285
 5749TIP3    H217184   2.302   0.795   5.144
 5750TIP3   OH217185   2.480   1.297   6.303
 5750TIP3    H117186   2.567   1.299   6.348
 5750TIP3    H217187   2.464   1.201   6.299
 5751TIP3   OH217188   2.961   1.264   6.348
 5751TIP3    H117189   3.056   1.243   6.351
 5751TIP3    H217190   2.934   1.209   6.272
 5752TIP3   OH217191   2.942   0.838   4.472
 5752TIP3    H117192   2.887   0.767   4.513
 5752TIP3    H217193   3.018   0.786   4.443
 5753TIP3   OH217194   3.590   1.177   6.085
 5753TIP3    H117195   3.584   1.102   6.149
 5753TIP3    H217196   3.673   1.220   6.112
 5754TIP3   OH217197   3.379   0.879   4.386
 5754TIP3    H117198   3.422   0.813   4.444
 5754TIP3    H217199   3.435   0.877   4.306
 5755TIP3   OH217200   2.609   0.705   6.506
 5755TIP3    H117201   2.628   0.610   6.508
 5755TIP3    H217202   2.524   0.708   6.458
 5756TIP3   OH217203   2.587   0.355   4.697
 5756TIP3    H117204   2.641   0.319   4.769
 5756TIP3    H217205   2.655   0.361   4.626
 5757TIP3   OH217206   3.223   0.789   6.287
 5757TIP3    H117207   3.175   0.813   6.203
 5757TIP3    H217208   3.255   0.699   6.267
 5758TIP3   OH217209   3.091   0.553   4.501
 5758TIP3    H117210   3.098   0.568   4.598
 5758TIP3    H217211   3.095   0.455   4.499
 5759TIP3   OH217212   3.713   0.792   5.886
 5759TIP3    H117213   3.777   0.851   5.843
 5759TIP3    H217214   3.630   0.835   5.862
 5760TIP3   OH217215   2.732   0.435   6.482
 5760TIP3    H117216   2.815   0.390   6.462
 5760TIP3    H217217   2.751   0.469   6.572
 5761TIP3   OH217218   2.798   0.249   4.912
 5761TIP3    H117219   2.774   0.215   5.000
 5761TIP3    H217220   2.851   0.175   4.877
 5762TIP3   OH217221   3.058   0.345   6.136
 5762TIP3    H117222   2.979   0.403   6.135
 5762TIP3    H217223   3.108   0.375   6.057
 5763TIP3   OH217224   3.592   0.729   6.294
 5763TIP3    H117225   3.648   0.695   6.224
 5763TIP3    H217226   3.578   0.651   6.350
 5764TIP3   OH217227   3.722   0.388   4.427
 5764TIP3    H117228   3.699   0.342   4.343
 5764TIP3    H217229   3.688   0.478   4.402
 5765TIP3   OH217230   3.154   0.133   6.268
 5765TIP3    H117231   3.105   0.072   6.209
 5765TIP3    H217232   3.128   0.219   6.226
 5766TIP3   OH217233   3.227   0.438   5.947
 5766TIP3    H117234   3.308   0.449   5.895
 5766TIP3    H217235   3.167   0.504   5.905
 5767TIP3   OH217236   3.793   0.403   6.310
 5767TIP3    H117237   3.827   0.346   6.383
 5767TIP3    H217238   3.867   0.461   6.291
 5768TIP3   OH217239   3.845   0.652   6.071
 5768TIP3    H117240   3.784   0.704   6.014
 5768TIP3    H217241   3.930   0.676   6.029
 5769TIP3   OH217242   3.032   0.256   6.493
 5769TIP3    H117243   2.993   0.176   6.530
 5769TIP3    H217244   3.095   0.221   6.429
 5770TIP3   OH217245   3.434   0.182   6.303
 5770TIP3    H117246   3.457   0.158   6.395
 5770TIP3    H217247   3.337   0.173   6.305
 5771TIP3   OH217248   2.703   1.114   4.662
 5771TIP3    H117249   2.799   1.109   4.645
 5771TIP3    H217250   2.676   1.165   4.583
 5772TIP3   OH217251   2.183   0.498   4.877
 5772TIP3    H117252   2.278   0.521   4.865
 5772TIP3    H217253   2.180   0.409   4.838
 5773TIP3   OH217254   2.096   1.109   5.290
 5773TIP3    H117255   2.029   1.045   5.258
 5773TIP3    H217256   2.141   1.055   5.358
 5774TIP3   OH217257   2.232   0.963   5.478
 5774TIP3    H117258   2.223   0.888   5.539
 5774TIP3    H217259   2.287   1.023   5.533
 5775TIP3   OH217260   3.960   1.360   5.278
 5775TIP3    H117261   3.983   1.387   5.369
 5775TIP3    H217262   4.024   1.409   5.224
 5776TIP3   OH217263   3.994   1.377   5.556
 5776TIP3    H117264   3.944   1.293   5.556
 5776TIP3    H217265   4.063   1.356   5.620
 5777TIP3   OH217266   4.040   1.056   6.136
 5777TIP3    H117267   3.964   1.064   6.197
 5777TIP3    H217268   4.078   1.146   6.139
 5778TIP3   OH217269   3.853   0.569   4.753
 5778TIP3    H117270   3.922   0.633   4.725
 5778TIP3    H217271   3.895   0.531   4.833
 5779TIP3   OH217272   3.980   0.440   4.956
 5779TIP3    H117273   3.914   0.398   5.016
 5779TIP3    H217274   4.043   0.481   5.019
 5780TIP3   OH217275   4.036   0.831   5.391
 5780TIP3    H117276   4.087   0.765   5.341
 5780TIP3    H217277   4.026   0.903   5.325
 5781TIP3   OH217278   3.865   1.131   5.586
 5781TIP3    H117279   3.795   1.173   5.640
 5781TIP3    H217280   3.812   1.084   5.518
 5782TIP3   OH217281   3.915   0.343   4.606
 5782TIP3    H117282   3.846   0.354   4.537
 5782TIP3    H217283   3.891   0.419   4.663
 5783TIP3   OH217284   3.784   0.001   4.546
 5783TIP3    H117285   3.768   0.083   4.497
 5783TIP3    H217286   3.719  -0.058   4.506
 5784TIP3   OH217287   3.796   0.302   5.102
 5784TIP3    H117288   3.797   0.206   5.085
 5784TIP3    H217289   3.781   0.307   5.199
 5785TIP3   OH217290   2.420   0.370   5.851
 5785TIP3    H117291   2.421   0.341   5.758
 5785TIP3    H217292   2.517   0.372   5.870
 5786TIP3   OH217293   4.084   0.720   5.961
 5786TIP3    H117294   4.158   0.656   5.950
 5786TIP3    H217295   4.105   0.788   5.895
 5787TIP3   OH217296   4.268   0.524   5.979
 5787TIP3    H117297   4.193   0.472   6.014
 5787TIP3    H217298   4.341   0.461   5.996
 5788TIP3   OH217299   3.796   0.042   4.971
 5788TIP3    H117300   3.824  -0.040   5.017
 5788TIP3    H217301   3.861   0.049   4.898
 5789TIP3   OH217302   3.951   0.189   5.501
 5789TIP3    H117303   4.037   0.214   5.460
 5789TIP3    H217304   3.965   0.226   5.591
 5790TIP3   OH217305   4.016   0.336   5.728
 5790TIP3    H117306   3.937   0.370   5.776
 5790TIP3    H217307   4.048   0.417   5.682
 5791TIP3   OH217308   2.634   0.049   6.516
 5791TIP3    H117309   2.730   0.049   6.520
 5791TIP3    H217310   2.611  -0.033   6.564
 5792TIP3   OH217311   2.394   0.022   5.926
 5792TIP3    H117312   2.444   0.020   5.842
 5792TIP3    H217313   2.434   0.099   5.969
 5793TIP3   OH217314   3.542   1.225   4.933
 5793TIP3    H117315   3.601   1.215   4.856
 5793TIP3    H217316   3.589   1.291   4.987
 5794TIP3   OH217317   2.644   1.032   6.322
 5794TIP3    H117318   2.553   1.001   6.306
 5794TIP3    H217319   2.657   1.012   6.415
 5795TIP3   OH217320   2.822   1.063   5.869
 5795TIP3    H117321   2.781   1.142   5.828
 5795TIP3    H217322   2.912   1.073   5.829
 5796TIP3   OH217323   3.261   1.336   6.015
 5796TIP3    H117324   3.310   1.306   6.094
 5796TIP3    H217325   3.333   1.357   5.954
 5797TIP3   OH217326   3.452   1.459   5.856
 5797TIP3    H117327   3.523   1.403   5.823
 5797TIP3    H217328   3.499   1.515   5.921
 5798TIP3   OH217329   2.497   1.318   5.891
 5798TIP3    H117330   2.408   1.355   5.872
 5798TIP3    H217331   2.515   1.357   5.978
 5799TIP3   OH217332   2.735   1.299   5.751
 5799TIP3    H117333   2.648   1.311   5.794
 5799TIP3    H217334   2.718   1.331   5.661
 5800TIP3   OH217335   3.166   1.330   5.543
 5800TIP3    H117336   3.093   1.353   5.484
 5800TIP3    H217337   3.180   1.414   5.592
 5801TIP3   OH217338   3.444   1.276   5.576
 5801TIP3    H117339   3.347   1.272   5.577
 5801TIP3    H217340   3.460   1.369   5.557
 5802TIP3   OH217341   3.654   1.467   5.513
 5802TIP3    H117342   3.636   1.548   5.460
 5802TIP3    H217343   3.664   1.399   5.444
 5803TIP3   OH217344   2.411   1.112   5.637
 5803TIP3    H117345   2.439   1.090   5.729
 5803TIP3    H217346   2.485   1.069   5.588
 5804TIP3   OH217347   2.607   0.985   5.494
 5804TIP3    H117348   2.623   0.900   5.542
 5804TIP3    H217349   2.698   1.022   5.492
 5805TIP3   OH217350   2.872   1.079   5.500
 5805TIP3    H117351   2.903   0.987   5.491
 5805TIP3    H217352   2.920   1.103   5.582
 5806TIP3   OH217353   2.201   0.883   5.028
 5806TIP3    H117354   2.115   0.851   4.994
 5806TIP3    H217355   2.189   0.979   5.018
 5807TIP3   OH217356   2.971   1.075   4.610
 5807TIP3    H117357   3.059   1.098   4.575
 5807TIP3    H217358   2.950   1.000   4.550
 5808TIP3   OH217359   3.696   1.193   4.704
 5808TIP3    H117360   3.687   1.095   4.695
 5808TIP3    H217361   3.648   1.222   4.625
 5809TIP3   OH217362   2.276   0.911   4.668
 5809TIP3    H117363   2.279   0.933   4.762
 5809TIP3    H217364   2.364   0.869   4.653
 5810TIP3   OH217365   3.919   1.337   5.890
 5810TIP3    H117366   3.840   1.304   5.843
 5810TIP3    H217367   3.897   1.432   5.895
 5811TIP3   OH217368   5.181   0.708   4.661
 5811TIP3    H117369   5.153   0.800   4.638
 5811TIP3    H217370   5.111   0.658   4.615
 5812TIP3   OH217371   5.185   0.712   5.038
 5812TIP3    H117372   5.210   0.677   5.125
 5812TIP3    H217373   5.143   0.635   4.996
 5813TIP3   OH217374   4.481   0.606   5.401
 5813TIP3    H117375   4.513   0.536   5.461
 5813TIP3    H217376   4.560   0.661   5.394
 5814TIP3   OH217377   5.429   1.010   4.719
 5814TIP3    H117378   5.407   0.939   4.780
 5814TIP3    H217379   5.451   1.084   4.778
 5815TIP3   OH217380   4.453   1.015   5.128
 5815TIP3    H117381   4.443   0.918   5.130
 5815TIP3    H217382   4.550   1.023   5.124
 5816TIP3   OH217383   4.153   0.226   4.925
 5816TIP3    H117384   4.098   0.306   4.936
 5816TIP3    H217385   4.093   0.170   4.873
 5817TIP3   OH217386   4.215   0.514   5.081
 5817TIP3    H117387   4.255   0.432   5.117
 5817TIP3    H217388   4.277   0.536   5.010
 5818TIP3   OH217389   5.076   1.476   4.736
 5818TIP3    H117390   5.122   1.404   4.688
 5818TIP3    H217391   5.062   1.435   4.822
 5819TIP3   OH217392   4.980   0.936   5.088
 5819TIP3    H117393   5.015   0.859   5.039
 5819TIP3    H217394   5.066   0.979   5.110
 5820TIP3   OH217395   5.401   0.438   5.133
 5820TIP3    H117396   5.415   0.346   5.157
 5820TIP3    H217397   5.360   0.432   5.044
 5821TIP3   OH217398   4.712   0.058   5.058
 5821TIP3    H117399   4.689   0.147   5.025
 5821TIP3    H217400   4.633   0.008   5.036
 5822TIP3   OH217401   5.401   0.237   4.754
 5822TIP3    H117402   5.451   0.168   4.801
 5822TIP3    H217403   5.429   0.221   4.662
 5823TIP3   OH217404   4.341   0.297   5.183
 5823TIP3    H117405   4.432   0.300   5.220
 5823TIP3    H217406   4.357   0.236   5.108
 5824TIP3   OH217407   4.803   0.499   4.985
 5824TIP3    H117408   4.896   0.472   5.003
 5824TIP3    H217409   4.763   0.413   4.959
 5825TIP3   OH217410   6.040   0.448   5.272
 5825TIP3    H117411   5.964   0.503   5.243
 5825TIP3    H217412   6.088   0.507   5.330
 5826TIP3   OH217413   5.079   0.933   4.528
 5826TIP3    H117414   5.034   0.904   4.447
 5826TIP3    H217415   5.030   1.015   4.549
 5827TIP3   OH217416   4.837   0.855   5.316
 5827TIP3    H117417   4.772   0.918   5.354
 5827TIP3    H217418   4.874   0.905   5.241
 5828TIP3   OH217419   4.597   0.267   5.251
 5828TIP3    H117420   4.667   0.303   5.307
 5828TIP3    H217421   4.623   0.174   5.249
 5829TIP3   OH217422   4.663   1.048   5.412
 5829TIP3    H117423   4.636   1.133   5.374
 5829TIP3    H217424   4.584   1.030   5.468
 5830TIP3   OH217425   4.057   0.738   4.647
 5830TIP3    H117426   4.016   0.765   4.563
 5830TIP3    H217427   4.088   0.823   4.684
 5831TIP3   OH217428   5.500   1.257   4.891
 5831TIP3    H117429   5.411   1.244   4.931
 5831TIP3    H217430   5.485   1.340   4.843
 5832TIP3   OH217431   5.201   1.302   4.567
 5832TIP3    H117432   5.248   1.218   4.544
 5832TIP3    H217433   5.262   1.365   4.522
 5833TIP3   OH217434   5.342   1.087   4.468
 5833TIP3    H117435   5.302   1.009   4.427
 5833TIP3    H217436   5.377   1.049   4.551
 5834TIP3   OH217437   5.726   1.168   5.229
 5834TIP3    H117438   5.709   1.089   5.173
 5834TIP3    H217439   5.704   1.241   5.168
 5835TIP3   OH217440   5.020   0.569   4.480
 5835TIP3    H117441   4.935   0.613   4.461
 5835TIP3    H217442   5.042   0.533   4.392
 5836TIP3   OH217443   4.974   0.381   4.232
 5836TIP3    H117444   5.070   0.370   4.224
 5836TIP3    H217445   4.938   0.296   4.201
 5837TIP3   OH217446   5.921   0.812   5.079
 5837TIP3    H117447   5.834   0.858   5.084
 5837TIP3    H217448   5.945   0.830   4.985
 5838TIP3   OH217449   5.366   0.658   4.464
 5838TIP3    H117450   5.307   0.673   4.541
 5838TIP3    H217451   5.447   0.626   4.508
 5839TIP3   OH217452   5.595   0.686   5.371
 5839TIP3    H117453   5.587   0.768   5.423
 5839TIP3    H217454   5.507   0.685   5.327
 5840TIP3   OH217455   4.593   0.642   4.876
 5840TIP3    H117456   4.551   0.584   4.810
 5840TIP3    H217457   4.670   0.588   4.905
 5841TIP3   OH217458   4.725   1.056   5.024
 5841TIP3    H117459   4.700   1.012   4.941
 5841TIP3    H217460   4.814   1.019   5.041
 5842TIP3   OH217461   4.736   0.608   5.237
 5842TIP3    H117462   4.761   0.585   5.145
 5842TIP3    H217463   4.776   0.696   5.250
 5843TIP3   OH217464   5.259   1.249   5.009
 5843TIP3    H117465   5.242   1.328   5.064
 5843TIP3    H217466   5.241   1.175   5.070
 5844TIP3   OH217467   4.867   1.169   5.555
 5844TIP3    H117468   4.807   1.231   5.600
 5844TIP3    H217469   4.802   1.116   5.505
 5845TIP3   OH217470   5.234   0.494   4.285
 5845TIP3    H117471   5.274   0.567   4.337
 5845TIP3    H217472   5.245   0.526   4.193
 5846TIP3   OH217473   4.615   0.734   5.651
 5846TIP3    H117474   4.619   0.817   5.701
 5846TIP3    H217475   4.521   0.709   5.664
 5847TIP3   OH217476   4.945   1.181   4.563
 5847TIP3    H117477   5.021   1.238   4.580
 5847TIP3    H217478   4.883   1.240   4.518
 5848TIP3   OH217479   4.662   1.338   5.643
 5848TIP3    H117480   4.626   1.336   5.552
 5848TIP3    H217481   4.583   1.315   5.697
 5849TIP3   OH217482   4.458   0.484   4.685
 5849TIP3    H117483   4.394   0.529   4.626
 5849TIP3    H217484   4.417   0.397   4.693
 5850TIP3   OH217485   5.516   1.110   3.884
 5850TIP3    H117486   5.524   1.207   3.867
 5850TIP3    H217487   5.608   1.080   3.870
 5851TIP3   OH217488   4.242   0.868   5.588
 5851TIP3    H117489   4.173   0.848   5.522
 5851TIP3    H217490   4.278   0.779   5.609
 5852TIP3   OH217491   4.094   1.062   5.217
 5852TIP3    H117492   4.191   1.057   5.214
 5852TIP3    H217493   4.081   1.140   5.274
 5853TIP3   OH217494   5.963   1.511   5.278
 5853TIP3    H117495   5.959   1.415   5.293
 5853TIP3    H217496   5.879   1.538   5.322
 5854TIP3   OH217497   5.065   1.297   5.413
 5854TIP3    H117498   5.064   1.390   5.445
 5854TIP3    H217499   4.992   1.258   5.466
 5855TIP3   OH217500   4.827   1.428   4.363
 5855TIP3    H117501   4.780   1.407   4.280
 5855TIP3    H217502   4.793   1.517   4.385
 5856TIP3   OH217503   4.265   1.278   4.748
 5856TIP3    H117504   4.311   1.268   4.834
 5856TIP3    H217505   4.212   1.196   4.748
 5857TIP3   OH217506   5.028   1.330   4.004
 5857TIP3    H117507   5.086   1.259   3.967
 5857TIP3    H217508   5.062   1.336   4.096
 5858TIP3   OH217509   5.078   1.377   4.275
 5858TIP3    H117510   4.989   1.387   4.314
 5858TIP3    H217511   5.124   1.328   4.346
 5859TIP3   OH217512   5.851   0.636   5.547
 5859TIP3    H117513   5.770   0.664   5.503
 5859TIP3    H217514   5.838   0.540   5.547
 5860TIP3   OH217515   4.446   1.051   5.577
 5860TIP3    H117516   4.495   1.034   5.660
 5860TIP3    H217517   4.372   0.987   5.584
 5861TIP3   OH217518   5.641   0.431   5.494
 5861TIP3    H117519   5.590   0.442   5.576
 5861TIP3    H217520   5.606   0.502   5.438
 5862TIP3   OH217521   5.283   0.553   4.028
 5862TIP3    H117522   5.241   0.522   3.945
 5862TIP3    H217523   5.360   0.602   3.994
 5863TIP3   OH217524   4.796   0.395   5.398
 5863TIP3    H117525   4.732   0.413   5.470
 5863TIP3    H217526   4.779   0.471   5.338
 5864TIP3   OH217527   4.661   0.277   4.899
 5864TIP3    H117528   4.567   0.257   4.911
 5864TIP3    H217529   4.677   0.247   4.807
 5865TIP3   OH217530   5.144   0.370   4.622
 5865TIP3    H117531   5.097   0.442   4.573
 5865TIP3    H217532   5.208   0.340   4.555
 5866TIP3   OH217533   5.336   0.674   5.704
 5866TIP3    H117534   5.311   0.590   5.749
 5866TIP3    H217535   5.432   0.674   5.722
 5867TIP3   OH217536   5.285   0.436   4.883
 5867TIP3    H117537   5.230   0.471   4.812
 5867TIP3    H217538   5.322   0.358   4.835
 5868TIP3   OH217539   4.596   0.424   5.589
 5868TIP3    H117540   4.608   0.485   5.663
 5868TIP3    H217541   4.573   0.341   5.632
 5869TIP3   OH217542   4.225   0.029   4.725
 5869TIP3    H117543   4.239   0.032   4.629
 5869TIP3    H217544   4.130   0.048   4.728
 5870TIP3   OH217545   5.321   0.643   5.285
 5870TIP3    H117546   5.356   0.571   5.228
 5870TIP3    H217547   5.295   0.590   5.364
 5871TIP3   OH217548   4.412   0.151   4.949
 5871TIP3    H117549   4.319   0.183   4.933
 5871TIP3    H217550   4.408   0.068   4.901
 5872TIP3   OH217551   4.705   0.176   4.648
 5872TIP3    H117552   4.794   0.155   4.615
 5872TIP3    H217553   4.651   0.171   4.567
 5873TIP3   OH217554   4.545   0.173   4.415
 5873TIP3    H117555   4.461   0.152   4.370
 5873TIP3    H217556   4.604   0.173   4.337
 5874TIP3   OH217557   5.651   1.862   5.377
 5874TIP3    H117558   5.649   1.887   5.283
 5874TIP3    H217559   5.728   1.912   5.409
 5875TIP3   OH217560   4.607   0.973   5.798
 5875TIP3    H117561   4.685   1.006   5.846
 5875TIP3    H217562   4.541   0.971   5.870
 5876TIP3   OH217563   5.058   0.426   5.056
 5876TIP3    H117564   5.142   0.400   5.015
 5876TIP3    H217565   5.067   0.390   5.148
 5877TIP3   OH217566   5.069   0.353   5.318
 5877TIP3    H117567   4.978   0.345   5.351
 5877TIP3    H217568   5.115   0.397   5.392
 5878TIP3   OH217569   4.781   0.717   4.437
 5878TIP3    H117570   4.711   0.649   4.426
 5878TIP3    H217571   4.764   0.748   4.529
 5879TIP3   OH217572   5.682   0.948   5.070
 5879TIP3    H117573   5.705   0.997   4.989
 5879TIP3    H217574   5.597   0.905   5.045
 5880TIP3   OH217575   5.226   0.102   4.247
 5880TIP3    H117576   5.156   0.045   4.284
 5880TIP3    H217577   5.253   0.154   4.326
 5881TIP3   OH217578   5.197   1.041   5.432
 5881TIP3    H117579   5.197   1.003   5.521
 5881TIP3    H217580   5.144   1.122   5.443
 5882TIP3   OH217581   5.323   0.285   4.430
 5882TIP3    H117582   5.420   0.294   4.429
 5882TIP3    H217583   5.296   0.359   4.370
 5883TIP3   OH217584   4.481   0.739   5.114
 5883TIP3    H117585   4.517   0.707   5.029
 5883TIP3    H217586   4.512   0.670   5.176
 5884TIP3   OH217587   4.931   0.865   4.260
 5884TIP3    H117588   4.882   0.950   4.267
 5884TIP3    H217589   4.877   0.807   4.318
 5885TIP3   OH217590   4.358   0.653   5.726
 5885TIP3    H117591   4.374   0.639   5.821
 5885TIP3    H217592   4.284   0.592   5.708
 5886TIP3   OH217593   5.080   0.773   5.747
 5886TIP3    H117594   5.018   0.719   5.695
 5886TIP3    H217595   5.167   0.742   5.715
 5887TIP3   OH217596   5.346   1.301   5.324
 5887TIP3    H117597   5.251   1.288   5.340
 5887TIP3    H217598   5.372   1.347   5.407
 5888TIP3   OH217599   5.753   0.363   4.228
 5888TIP3    H117600   5.692   0.313   4.169
 5888TIP3    H217601   5.739   0.453   4.192
 5889TIP3   OH217602   5.975   1.222   5.315
 5889TIP3    H117603   5.877   1.215   5.308
 5889TIP3    H217604   6.001   1.193   5.225
 5890TIP3   OH217605   5.462   1.181   4.151
 5890TIP3    H117606   5.426   1.111   4.207
 5890TIP3    H217607   5.467   1.137   4.063
 5891TIP3   OH217608   5.451   0.813   4.988
 5891TIP3    H117609   5.358   0.786   5.001
 5891TIP3    H217610   5.485   0.734   4.941
 5892TIP3   OH217611   4.577   1.040   4.739
 5892TIP3    H117612   4.576   1.120   4.684
 5892TIP3    H217613   4.483   1.020   4.748
 5893TIP3   OH217614   4.137   0.346   4.441
 5893TIP3    H117615   4.185   0.429   4.461
 5893TIP3    H217616   4.062   0.353   4.504
 5894TIP3   OH217617   4.718   0.806   4.685
 5894TIP3    H117618   4.682   0.895   4.702
 5894TIP3    H217619   4.680   0.754   4.758
 5895TIP3   OH217620   4.846   1.384   5.208
 5895TIP3    H117621   4.888   1.456   5.157
 5895TIP3    H217622   4.922   1.348   5.256
 5896TIP3   OH217623   4.496   1.279   4.590
 5896TIP3    H117624   4.411   1.286   4.638
 5896TIP3    H217625   4.527   1.373   4.593
 5897TIP3   OH217626   5.237   1.017   5.164
 5897TIP3    H117627   5.228   1.018   5.262
 5897TIP3    H217628   5.312   0.957   5.152
 5898TIP3   OH217629   5.209   0.913   4.047
 5898TIP3    H117630   5.260   0.887   4.127
 5898TIP3    H217631   5.121   0.881   4.072
 5899TIP3   OH217632   5.485   1.551   5.217
 5899TIP3    H117633   5.408   1.491   5.214
 5899TIP3    H217634   5.465   1.613   5.144
 5900TIP3   OH217635   5.549   1.385   3.869
 5900TIP3    H117636   5.581   1.453   3.807
 5900TIP3    H217637   5.470   1.431   3.903
 5901TIP3   OH217638   5.370   0.850   4.265
 5901TIP3    H117639   5.358   0.785   4.337
 5901TIP3    H217640   5.467   0.843   4.252
 5902TIP3   OH217641   4.288   1.245   5.365
 5902TIP3    H117642   4.338   1.170   5.399
 5902TIP3    H217643   4.308   1.313   5.431
 5903TIP3   OH217644   4.575   0.893   4.050
 5903TIP3    H117645   4.589   0.801   4.019
 5903TIP3    H217646   4.555   0.878   4.144
 5904TIP3   OH217647   4.520   0.896   4.323
 5904TIP3    H117648   4.595   0.867   4.376
 5904TIP3    H217649   4.526   0.994   4.330
 5905TIP3   OH217650   4.258   0.589   4.523
 5905TIP3    H117651   4.191   0.634   4.580
 5905TIP3    H217652   4.272   0.658   4.456
 5906TIP3   OH217653   4.788   1.095   4.273
 5906TIP3    H117654   4.700   1.122   4.306
 5906TIP3    H217655   4.800   1.158   4.201
 5907TIP3   OH217656   5.003   0.142   4.658
 5907TIP3    H117657   5.047   0.229   4.644
 5907TIP3    H217658   4.986   0.145   4.753
 5908TIP3   OH217659   5.261   0.481   5.495
 5908TIP3    H117660   5.248   0.538   5.573
 5908TIP3    H217661   5.303   0.404   5.537
 5909TIP3   OH217662   4.531   1.170   4.336
 5909TIP3    H117663   4.500   1.239   4.274
 5909TIP3    H217664   4.514   1.212   4.423
 5910TIP3   OH217665   5.537   0.575   4.862
 5910TIP3    H117666   5.457   0.522   4.878
 5910TIP3    H217667   5.606   0.524   4.910
 5911TIP3   OH217668   4.248   0.799   4.329
 5911TIP3    H117669   4.317   0.867   4.338
 5911TIP3    H217670   4.292   0.742   4.262
 5912TIP3   OH217671   4.192   0.079   4.458
 5912TIP3    H117672   4.186   0.176   4.445
 5912TIP3    H217673   4.102   0.050   4.441
 5913TIP3   OH217674   5.504   1.529   4.811
 5913TIP3    H117675   5.461   1.576   4.736
 5913TIP3    H217676   5.598   1.539   4.787
 5914TIP3   OH217677   4.124   1.018   4.719
 5914TIP3    H117678   4.051   1.044   4.776
 5914TIP3    H217679   4.094   1.054   4.633
 5915TIP3   OH217680   4.275   1.553   5.786
 5915TIP3    H117681   4.360   1.551   5.834
 5915TIP3    H217682   4.250   1.459   5.787
 5916TIP3   OH217683   4.760   1.518   5.834
 5916TIP3    H117684   4.855   1.499   5.835
 5916TIP3    H217685   4.730   1.460   5.761
 5917TIP3   OH217686   4.741   1.094   3.964
 5917TIP3    H117687   4.683   1.022   4.000
 5917TIP3    H217688   4.814   1.042   3.929
 5918TIP3   OH217689   5.399   1.426   5.564
 5918TIP3    H117690   5.388   1.357   5.632
 5918TIP3    H217691   5.475   1.477   5.598
 5919TIP3   OH217692   5.176   1.138   3.874
 5919TIP3    H117693   5.217   1.069   3.930
 5919TIP3    H217694   5.230   1.134   3.792
 5920TIP3   OH217695   4.408   0.961   5.989
 5920TIP3    H117696   4.422   0.865   5.995
 5920TIP3    H217697   4.320   0.965   5.945
 5921TIP3   OH217698   4.382   0.613   4.182
 5921TIP3    H117699   4.438   0.576   4.252
 5921TIP3    H217700   4.448   0.619   4.109
 5922TIP3   OH217701   5.016   1.046   5.761
 5922TIP3    H117702   4.970   1.061   5.677
 5922TIP3    H217703   5.043   0.951   5.755
 5923TIP3   OH217704   4.896   0.811   3.990
 5923TIP3    H117705   4.896   0.820   4.087
 5923TIP3    H217706   4.898   0.712   3.982
 5924TIP3   OH217707   5.509   1.052   5.370
 5924TIP3    H117708   5.577   1.104   5.324
 5924TIP3    H217709   5.431   1.108   5.358
 5925TIP3   OH217710   4.529   0.694   5.971
 5925TIP3    H117711   4.607   0.639   5.954
 5925TIP3    H217712   4.550   0.728   6.060
 5926TIP3   OH217713   4.594   0.511   4.403
 5926TIP3    H117714   4.570   0.467   4.486
 5926TIP3    H217715   4.636   0.438   4.354
 5927TIP3   OH217716   4.860   0.611   5.632
 5927TIP3    H117717   4.774   0.659   5.628
 5927TIP3    H217718   4.901   0.633   5.546
 5928TIP3   OH217719   5.385   0.987   5.772
 5928TIP3    H117720   5.452   0.951   5.712
 5928TIP3    H217721   5.369   0.911   5.831
 5929TIP3   OH217722   5.519   0.640   3.904
 5929TIP3    H117723   5.494   0.595   3.821
 5929TIP3    H217724   5.485   0.730   3.883
 5930TIP3   OH217725   4.949   0.389   5.752
 5930TIP3    H117726   4.897   0.329   5.696
 5930TIP3    H217727   4.922   0.475   5.712
 5931TIP3   OH217728   5.028   0.700   5.435
 5931TIP3    H117729   5.102   0.697   5.373
 5931TIP3    H217730   4.966   0.762   5.391
 5932TIP3   OH217731   5.590   0.659   5.796
 5932TIP3    H117732   5.621   0.601   5.869
 5932TIP3    H217733   5.669   0.711   5.777
 5933TIP3   OH217734   5.639   0.913   5.560
 5933TIP3    H117735   5.579   0.964   5.500
 5933TIP3    H217736   5.725   0.933   5.517
 5934TIP3   OH217737   4.827   0.510   5.976
 5934TIP3    H117738   4.783   0.433   6.012
 5934TIP3    H217739   4.888   0.470   5.911
 5935TIP3   OH217740   5.229   0.443   5.786
 5935TIP3    H117741   5.253   0.414   5.876
 5935TIP3    H217742   5.133   0.426   5.787
 5936TIP3   OH217743   4.500   1.375   4.151
 5936TIP3    H117744   4.595   1.368   4.131
 5936TIP3    H217745   4.470   1.420   4.070
 5937TIP3   OH217746   3.979   0.753   4.366
 5937TIP3    H117747   4.074   0.775   4.351
 5937TIP3    H217748   3.973   0.664   4.325
 5938TIP3   OH217749   3.895   1.371   4.773
 5938TIP3    H117750   3.827   1.307   4.741
 5938TIP3    H217751   3.939   1.315   4.842
 5939TIP3   OH217752   4.027   1.224   4.965
 5939TIP3    H117753   4.014   1.148   5.023
 5939TIP3    H217754   4.078   1.282   5.024
 5940TIP3   OH217755   5.767   1.599   4.767
 5940TIP3    H117756   5.778   1.638   4.855
 5940TIP3    H217757   5.796   1.670   4.708
 5941TIP3   OH217758   5.787   1.637   5.045
 5941TIP3    H117759   5.740   1.551   5.045
 5941TIP3    H217760   5.857   1.617   5.109
 5942TIP3   OH217761   5.834   1.314   5.620
 5942TIP3    H117762   5.760   1.321   5.683
 5942TIP3    H217763   5.874   1.403   5.625
 5943TIP3   OH217764   5.649   0.825   4.240
 5943TIP3    H117765   5.717   0.889   4.211
 5943TIP3    H217766   5.691   0.787   4.320
 5944TIP3   OH217767   5.777   0.698   4.445
 5944TIP3    H117768   5.709   0.654   4.501
 5944TIP3    H217769   5.836   0.738   4.511
 5945TIP3   OH217770   5.833   1.085   4.885
 5945TIP3    H117771   5.882   1.017   4.834
 5945TIP3    H217772   5.823   1.157   4.820
 5946TIP3   OH217773   5.663   1.390   5.071
 5946TIP3    H117774   5.591   1.429   5.124
 5946TIP3    H217775   5.613   1.341   5.002
 5947TIP3   OH217776   5.710   0.601   4.091
 5947TIP3    H117777   5.642   0.608   4.021
 5947TIP3    H217778   5.683   0.676   4.147
 5948TIP3   OH217779   5.580   0.260   4.036
 5948TIP3    H117780   5.560   0.337   3.983
 5948TIP3    H217781   5.522   0.194   3.995
 5949TIP3   OH217782   5.594   0.558   4.590
 5949TIP3    H117783   5.593   0.462   4.570
 5949TIP3    H217784   5.578   0.561   4.687
 5950TIP3   OH217785   4.216   0.624   5.337
 5950TIP3    H117786   4.215   0.596   5.243
 5950TIP3    H217787   4.313   0.626   5.354
 5951TIP3   OH217788   5.881   0.976   5.447
 5951TIP3    H117789   5.953   0.910   5.438
 5951TIP3    H217790   5.904   1.043   5.381
 5952TIP3   OH217791   6.067   0.783   5.467
 5952TIP3    H117792   5.991   0.729   5.499
 5952TIP3    H217793   6.139   0.718   5.484
 5953TIP3   OH217794   5.596   0.301   4.460
 5953TIP3    H117795   5.622   0.218   4.506
 5953TIP3    H217796   5.657   0.304   4.384
 5954TIP3   OH217797   5.747   0.448   4.988
 5954TIP3    H117798   5.832   0.472   4.946
 5954TIP3    H217799   5.762   0.481   5.078
 5955TIP3   OH217800   5.814   0.593   5.217
 5955TIP3    H117801   5.734   0.625   5.264
 5955TIP3    H217802   5.845   0.673   5.170
 5956TIP3   OH217803   4.429   0.308   6.014
 5956TIP3    H117804   4.522   0.287   6.003
 5956TIP3    H217805   4.396   0.226   6.055
 5957TIP3   OH217806   4.196   0.277   5.417
 5957TIP3    H117807   4.241   0.278   5.330
 5957TIP3    H217808   4.225   0.362   5.454
 5958TIP3   OH217809   5.347   1.483   4.426
 5958TIP3    H117810   5.389   1.465   4.339
 5958TIP3    H217811   5.400   1.557   4.458
 5959TIP3   OH217812   4.443   1.285   5.811
 5959TIP3    H117813   4.351   1.261   5.790
 5959TIP3    H217814   4.446   1.267   5.905
 5960TIP3   OH217815   4.621   1.319   5.358
 5960TIP3    H117816   4.569   1.392   5.318
 5960TIP3    H217817   4.705   1.335   5.311
 5961TIP3   OH217818   5.066   1.564   5.493
 5961TIP3    H117819   5.107   1.566   5.582
 5961TIP3    H217820   5.131   1.616   5.441
 5962TIP3   OH217821   5.244   1.717   5.351
 5962TIP3    H117822   5.314   1.662   5.314
 5962TIP3    H217823   5.296   1.773   5.414
 5963TIP3   OH217824   4.297   1.580   5.378
 5963TIP3    H117825   4.208   1.614   5.355
 5963TIP3    H217826   4.303   1.608   5.469
 5964TIP3   OH217827   4.534   1.557   5.238
 5964TIP3    H117828   4.447   1.569   5.283
 5964TIP3    H217829   4.513   1.589   5.148
 5965TIP3   OH217830   4.960   1.585   5.034
 5965TIP3    H117831   4.889   1.602   4.969
 5965TIP3    H217832   4.969   1.672   5.076
 5966TIP3   OH217833   5.227   1.527   5.086
 5966TIP3    H117834   5.132   1.538   5.068
 5966TIP3    H217835   5.264   1.605   5.043
 5967TIP3   OH217836   5.444   1.722   5.002
 5967TIP3    H117837   5.419   1.802   4.951
 5967TIP3    H217838   5.461   1.657   4.931
 5968TIP3   OH217839   4.209   1.371   5.125
 5968TIP3    H117840   4.234   1.343   5.216
 5968TIP3    H217841   4.280   1.325   5.075
 5969TIP3   OH217842   4.402   1.242   4.981
 5969TIP3    H117843   4.417   1.157   5.031
 5969TIP3    H217844   4.493   1.277   4.976
 5970TIP3   OH217845   4.669   1.338   4.982
 5970TIP3    H117846   4.699   1.245   4.970
 5970TIP3    H217847   4.711   1.357   5.068
 5971TIP3   OH217848   3.998   1.138   4.515
 5971TIP3    H117849   3.911   1.108   4.482
 5971TIP3    H217850   3.993   1.232   4.490
 5972TIP3   OH217851   4.767   1.333   4.097
 5972TIP3    H117852   4.855   1.355   4.060
 5972TIP3    H217853   4.745   1.257   4.037
 5973TIP3   OH217854   5.488   1.449   4.191
 5973TIP3    H117855   5.481   1.351   4.178
 5973TIP3    H217856   5.441   1.480   4.111
 5974TIP3   OH217857   4.076   1.173   4.158
 5974TIP3    H117858   4.078   1.187   4.254
 5974TIP3    H217859   4.162   1.127   4.142
 5975TIP3   OH217860   5.717   1.595   5.373
 5975TIP3    H117861   5.636   1.561   5.329
 5975TIP3    H217862   5.694   1.689   5.382
 5976TIP3   OH217863   6.977   0.964   4.148
 5976TIP3    H117864   6.951   1.055   4.125
 5976TIP3    H217865   6.904   0.915   4.107
 5977TIP3   OH217866   6.974   0.969   4.527
 5977TIP3    H117867   7.007   0.935   4.612
 5977TIP3    H217868   6.939   0.889   4.485
 5978TIP3   OH217869   6.278   0.861   4.889
 5978TIP3    H117870   6.303   0.792   4.952
 5978TIP3    H217871   6.366   0.893   4.863
 5979TIP3   OH217872   7.222   1.267   4.207
 5979TIP3    H117873   7.208   1.197   4.272
 5979TIP3    H217874   7.251   1.342   4.261
 5980TIP3   OH217875   5.950   0.485   4.413
 5980TIP3    H117876   5.890   0.562   4.421
 5980TIP3    H217877   5.894   0.425   4.361
 5981TIP3   OH217878   6.017   0.774   4.570
 5981TIP3    H117879   6.052   0.688   4.604
 5981TIP3    H217880   6.067   0.783   4.488
 5982TIP3   OH217881   6.871   1.730   4.224
 5982TIP3    H117882   6.915   1.660   4.171
 5982TIP3    H217883   6.868   1.689   4.311
 5983TIP3   OH217884   6.775   1.190   4.579
 5983TIP3    H117885   6.812   1.114   4.530
 5983TIP3    H217886   6.860   1.235   4.599
 5984TIP3   OH217887   7.195   0.696   4.620
 5984TIP3    H117888   7.216   0.605   4.645
 5984TIP3    H217889   7.156   0.686   4.531
 5985TIP3   OH217890   6.510   0.315   4.543
 5985TIP3    H117891   6.485   0.404   4.511
 5985TIP3    H217892   6.430   0.264   4.524
 5986TIP3   OH217893   7.196   0.490   4.239
 5986TIP3    H117894   7.249   0.428   4.293
 5986TIP3    H217895   7.236   0.479   4.152
 5987TIP3   OH217896   6.138   0.553   4.670
 5987TIP3    H117897   6.230   0.556   4.705
 5987TIP3    H217898   6.151   0.492   4.595
 5988TIP3   OH217899   6.597   0.755   4.478
 5988TIP3    H117900   6.691   0.729   4.492
 5988TIP3    H217901   6.558   0.670   4.449
 5989TIP3   OH217902   7.825   0.700   4.761
 5989TIP3    H117903   7.754   0.761   4.735
 5989TIP3    H217904   7.889   0.758   4.806
 5990TIP3   OH217905   6.869   1.185   4.016
 5990TIP3    H117906   6.831   1.166   3.929
 5990TIP3    H217907   6.825   1.269   4.039
 5991TIP3   OH217908   6.643   1.119   4.805
 5991TIP3    H117909   6.553   1.151   4.802
 5991TIP3    H217910   6.683   1.157   4.724
 5992TIP3   OH217911   6.395   0.526   4.737
 5992TIP3    H117912   6.467   0.558   4.794
 5992TIP3    H217913   6.414   0.431   4.738
 5993TIP3   OH217914   5.853   0.993   4.133
 5993TIP3    H117915   5.810   1.015   4.048
 5993TIP3    H217916   5.879   1.080   4.167
 5994TIP3   OH217917   7.293   1.511   4.375
 5994TIP3    H117918   7.202   1.503   4.413
 5994TIP3    H217919   7.285   1.596   4.328
 5995TIP3   OH217920   6.992   1.557   4.048
 5995TIP3    H117921   7.042   1.475   4.028
 5995TIP3    H217922   7.054   1.623   4.008
 5996TIP3   OH217923   7.134   1.343   3.956
 5996TIP3    H117924   7.105   1.263   3.910
 5996TIP3    H217925   7.170   1.306   4.039
 5997TIP3   OH217926   7.518   1.424   4.719
 5997TIP3    H117927   7.508   1.346   4.659
 5997TIP3    H217928   7.501   1.499   4.658
 5998TIP3   OH217929   6.811   0.824   3.973
 5998TIP3    H117930   6.729   0.872   3.951
 5998TIP3    H217931   6.853   0.815   3.885
 5999TIP3   OH217932   6.769   0.597   3.698
 5999TIP3    H117933   6.842   0.650   3.735
 5999TIP3    H217934   6.818   0.531   3.647
 6000TIP3   OH217935   7.708   1.056   4.557
 6000TIP3    H117936   7.628   1.112   4.564
 6000TIP3    H217937   7.741   1.083   4.469
 6001TIP3   OH217938   7.156   0.901   3.947
 6001TIP3    H117939   7.102   0.924   4.026
 6001TIP3    H217940   7.240   0.876   3.989
 6002TIP3   OH217941   7.390   0.941   4.861
 6002TIP3    H117942   7.385   1.025   4.911
 6002TIP3    H217943   7.304   0.943   4.815
 6003TIP3   OH217944   6.389   0.901   4.363
 6003TIP3    H117945   6.345   0.842   4.298
 6003TIP3    H217946   6.463   0.845   4.394
 6004TIP3   OH217947   6.517   1.309   4.529
 6004TIP3    H117948   6.487   1.270   4.446
 6004TIP3    H217949   6.610   1.277   4.533
 6005TIP3   OH217950   6.531   0.867   4.727
 6005TIP3    H117951   6.552   0.834   4.637
 6005TIP3    H217952   6.588   0.945   4.734
 6006TIP3   OH217953   7.050   1.508   4.494
 6006TIP3    H117954   7.036   1.587   4.549
 6006TIP3    H217955   7.036   1.434   4.556
 6007TIP3   OH217956   6.661   1.440   5.040
 6007TIP3    H117957   6.593   1.497   5.080
 6007TIP3    H217958   6.622   1.353   5.046
 6008TIP3   OH217959   6.999   0.756   3.772
 6008TIP3    H117960   7.056   0.817   3.823
 6008TIP3    H217961   7.024   0.779   3.680
 6009TIP3   OH217962   6.411   0.997   5.130
 6009TIP3    H117963   6.407   1.074   5.190
 6009TIP3    H217964   6.320   0.963   5.141
 6010TIP3   OH217965   6.737   1.441   4.056
 6010TIP3    H117966   6.820   1.493   4.064
 6010TIP3    H217967   6.681   1.500   4.004
 6011TIP3   OH217968   6.449   1.590   5.129
 6011TIP3    H117969   6.399   1.647   5.069
 6011TIP3    H217970   6.380   1.568   5.196
 6012TIP3   OH217971   6.252   0.741   4.175
 6012TIP3    H117972   6.189   0.786   4.114
 6012TIP3    H217973   6.214   0.652   4.178
 6013TIP3   OH217974   7.307   1.368   3.371
 6013TIP3    H117975   7.318   1.464   3.354
 6013TIP3    H217976   7.399   1.336   3.359
 6014TIP3   OH217977   6.051   1.133   5.066
 6014TIP3    H117978   5.975   1.110   5.008
 6014TIP3    H217979   6.082   1.045   5.096
 6015TIP3   OH217980   5.878   1.316   4.725
 6015TIP3    H117981   5.960   1.330   4.677
 6015TIP3    H217982   5.847   1.405   4.747
 6016TIP3   OH217983   7.760   1.770   4.766
 6016TIP3    H117984   7.759   1.673   4.777
 6016TIP3    H217985   7.675   1.794   4.810
 6017TIP3   OH217986   6.867   1.553   4.901
 6017TIP3    H117987   6.863   1.647   4.928
 6017TIP3    H217988   6.790   1.517   4.950
 6018TIP3   OH217989   6.622   1.682   3.852
 6018TIP3    H117990   6.578   1.662   3.767
 6018TIP3    H217991   6.590   1.772   3.872
 6019TIP3   OH217992   6.061   1.535   4.237
 6019TIP3    H117993   6.095   1.524   4.327
 6019TIP3    H217994   6.004   1.456   4.228
 6020TIP3   OH217995   6.824   1.586   3.490
 6020TIP3    H117996   6.883   1.515   3.453
 6020TIP3    H217997   6.859   1.593   3.582
 6021TIP3   OH217998   6.874   1.633   3.761
 6021TIP3    H117999   6.785   1.643   3.802
 6021TIP3    H218000   6.924   1.592   3.833
 6022TIP3   OH218001   7.641   0.888   5.040
 6022TIP3    H118002   7.565   0.913   4.986
 6022TIP3    H218003   7.639   0.792   5.032
 6023TIP3   OH218004   6.264   1.304   5.028
 6023TIP3    H118005   6.309   1.297   5.116
 6023TIP3    H218006   6.186   1.246   5.047
 6024TIP3   OH218007   7.420   0.680   4.977
 6024TIP3    H118008   7.393   0.703   5.066
 6024TIP3    H218009   7.399   0.759   4.925
 6025TIP3   OH218010   7.078   0.803   3.518
 6025TIP3    H118011   7.039   0.779   3.432
 6025TIP3    H218012   7.156   0.854   3.490
 6026TIP3   OH218013   6.592   0.653   4.888
 6026TIP3    H118014   6.526   0.669   4.958
 6026TIP3    H218015   6.574   0.728   4.827
 6027TIP3   OH218016   6.456   0.536   4.387
 6027TIP3    H118017   6.362   0.513   4.397
 6027TIP3    H218018   6.473   0.504   4.295
 6028TIP3   OH218019   6.941   0.625   4.108
 6028TIP3    H118020   6.893   0.696   4.061
 6028TIP3    H218021   7.007   0.597   4.042
 6029TIP3   OH218022   7.129   0.936   5.196
 6029TIP3    H118023   7.105   0.850   5.237
 6029TIP3    H218024   7.226   0.935   5.210
 6030TIP3   OH218025   7.082   0.691   4.369
 6030TIP3    H118026   7.027   0.728   4.298
 6030TIP3    H218027   7.117   0.612   4.321
 6031TIP3   OH218028   6.389   0.680   5.077
 6031TIP3    H118029   6.409   0.731   5.157
 6031TIP3    H218030   6.368   0.593   5.113
 6032TIP3   OH218031   6.021   0.289   4.214
 6032TIP3    H118032   6.037   0.283   4.118
 6032TIP3    H218033   5.925   0.306   4.213
 6033TIP3   OH218034   7.111   0.899   4.772
 6033TIP3    H118035   7.149   0.829   4.715
 6033TIP3    H218036   7.089   0.845   4.852
 6034TIP3   OH218037   6.208   0.408   4.436
 6034TIP3    H118038   6.116   0.439   4.418
 6034TIP3    H218039   6.204   0.324   4.389
 6035TIP3   OH218040   6.503   0.432   4.138
 6035TIP3    H118041   6.590   0.415   4.100
 6035TIP3    H218042   6.444   0.424   4.060
 6036TIP3   OH218043   6.329   0.419   3.918
 6036TIP3    H118044   6.255   0.396   3.858
 6036TIP3    H218045   6.387   0.463   3.853
 6037TIP3   OH218046   7.446   2.120   4.863
 6037TIP3    H118047   7.443   2.143   4.768
 6037TIP3    H218048   7.525   2.169   4.892
 6038TIP3   OH218049   6.396   1.239   5.273
 6038TIP3    H118050   6.472   1.240   5.332
 6038TIP3    H218051   6.323   1.234   5.339
 6039TIP3   OH218052   6.854   0.682   4.541
 6039TIP3    H118053   6.938   0.657   4.501
 6039TIP3    H218054   6.863   0.647   4.633
 6040TIP3   OH218055   6.865   0.614   4.803
 6040TIP3    H118056   6.775   0.601   4.839
 6040TIP3    H218057   6.913   0.653   4.879
 6041TIP3   OH218058   6.579   0.972   3.925
 6041TIP3    H118059   6.508   0.905   3.914
 6041TIP3    H218060   6.560   1.005   4.016
 6042TIP3   OH218061   7.479   1.208   4.555
 6042TIP3    H118062   7.504   1.256   4.473
 6042TIP3    H218063   7.395   1.164   4.529
 6043TIP3   OH218064   7.014   0.354   3.742
 6043TIP3    H118065   6.953   0.301   3.798
 6043TIP3    H218066   7.050   0.416   3.809
 6044TIP3   OH218067   6.987   1.291   4.915
 6044TIP3    H118068   6.980   1.248   5.000
 6044TIP3    H218069   6.942   1.377   4.928
 6045TIP3   OH218070   7.118   0.545   3.909
 6045TIP3    H118071   7.216   0.552   3.913
 6045TIP3    H218072   7.094   0.619   3.849
 6046TIP3   OH218073   6.288   1.006   4.607
 6046TIP3    H118074   6.314   0.976   4.517
 6046TIP3    H218075   6.305   0.927   4.659
 6047TIP3   OH218076   6.727   1.121   3.749
 6047TIP3    H118077   6.679   1.207   3.753
 6047TIP3    H218078   6.672   1.065   3.807
 6048TIP3   OH218079   6.152   0.916   5.212
 6048TIP3    H118080   6.168   0.896   5.306
 6048TIP3    H218081   6.081   0.853   5.189
 6049TIP3   OH218082   6.881   1.050   5.236
 6049TIP3    H118083   6.815   0.996   5.189
 6049TIP3    H218084   6.964   1.010   5.202
 6050TIP3   OH218085   7.143   1.550   4.822
 6050TIP3    H118086   7.046   1.543   4.830
 6050TIP3    H218087   7.164   1.609   4.896
 6051TIP3   OH218088   7.549   0.618   3.715
 6051TIP3    H118089   7.488   0.570   3.655
 6051TIP3    H218090   7.538   0.709   3.679
 6052TIP3   OH218091   7.769   1.480   4.805
 6052TIP3    H118092   7.672   1.472   4.794
 6052TIP3    H218093   7.799   1.451   4.716
 6053TIP3   OH218094   7.252   1.439   3.635
 6053TIP3    H118095   7.225   1.366   3.693
 6053TIP3    H218096   7.262   1.395   3.549
 6054TIP3   OH218097   7.246   1.070   4.475
 6054TIP3    H118098   7.152   1.043   4.486
 6054TIP3    H218099   7.282   0.991   4.429
 6055TIP3   OH218100   6.361   1.306   4.245
 6055TIP3    H118101   6.375   1.380   4.183
 6055TIP3    H218102   6.281   1.266   4.209
 6056TIP3   OH218103   5.935   0.601   3.931
 6056TIP3    H118104   5.981   0.685   3.950
 6056TIP3    H218105   5.858   0.608   3.991
 6057TIP3   OH218106   6.509   1.066   4.171
 6057TIP3    H118107   6.481   1.155   4.197
 6057TIP3    H218108   6.474   1.012   4.243
 6058TIP3   OH218109   6.642   1.636   4.682
 6058TIP3    H118110   6.683   1.714   4.639
 6058TIP3    H218111   6.715   1.604   4.737
 6059TIP3   OH218112   6.295   1.535   4.079
 6059TIP3    H118113   6.208   1.547   4.122
 6059TIP3    H218114   6.329   1.628   4.080
 6060TIP3   OH218115   7.032   1.274   4.648
 6060TIP3    H118116   7.026   1.273   4.746
 6060TIP3    H218117   7.110   1.218   4.632
 6061TIP3   OH218118   7.006   1.167   3.535
 6061TIP3    H118119   7.057   1.142   3.616
 6061TIP3    H218120   6.916   1.139   3.562
 6062TIP3   OH218121   7.277   1.810   4.704
 6062TIP3    H118122   7.198   1.756   4.689
 6062TIP3    H218123   7.268   1.875   4.631
 6063TIP3   OH218124   7.345   1.643   3.355
 6063TIP3    H118125   7.376   1.715   3.298
 6063TIP3    H218126   7.264   1.686   3.390
 6064TIP3   OH218127   7.166   1.105   3.756
 6064TIP3    H118128   7.156   1.036   3.824
 6064TIP3    H218129   7.262   1.100   3.739
 6065TIP3   OH218130   6.372   1.148   3.536
 6065TIP3    H118131   6.385   1.057   3.504
 6065TIP3    H218132   6.351   1.133   3.630
 6066TIP3   OH218133   6.317   1.152   3.810
 6066TIP3    H118134   6.394   1.125   3.862
 6066TIP3    H218135   6.322   1.250   3.814
 6067TIP3   OH218136   6.055   0.847   4.010
 6067TIP3    H118137   5.987   0.891   4.066
 6067TIP3    H218138   6.068   0.916   3.941
 6068TIP3   OH218139   6.584   1.351   3.760
 6068TIP3    H118140   6.497   1.379   3.792
 6068TIP3    H218141   6.599   1.414   3.688
 6069TIP3   OH218142   6.798   0.397   4.139
 6069TIP3    H118143   6.844   0.483   4.130
 6069TIP3    H218144   6.783   0.393   4.234
 6070TIP3   OH218145   7.056   0.736   4.984
 6070TIP3    H118146   7.044   0.784   5.067
 6070TIP3    H218147   7.107   0.660   5.013
 6071TIP3   OH218148   6.328   1.426   3.823
 6071TIP3    H118149   6.297   1.493   3.758
 6071TIP3    H218150   6.311   1.471   3.908
 6072TIP3   OH218151   7.333   0.832   4.349
 6072TIP3    H118152   7.254   0.778   4.366
 6072TIP3    H218153   7.404   0.783   4.397
 6073TIP3   OH218154   6.044   1.055   3.817
 6073TIP3    H118155   6.111   1.126   3.822
 6073TIP3    H218156   6.088   0.999   3.749
 6074TIP3   OH218157   5.992   0.330   3.936
 6074TIP3    H118158   5.981   0.427   3.931
 6074TIP3    H218159   5.903   0.298   3.921
 6075TIP3   OH218160   7.299   1.782   4.297
 6075TIP3    H118161   7.256   1.829   4.221
 6075TIP3    H218162   7.393   1.803   4.276
 6076TIP3   OH218163   5.922   1.280   4.207
 6076TIP3    H118164   5.843   1.303   4.258
 6076TIP3    H218165   5.895   1.312   4.118
 6077TIP3   OH218166   6.072   1.811   5.273
 6077TIP3    H118167   6.155   1.813   5.325
 6077TIP3    H218168   6.048   1.717   5.278
 6078TIP3   OH218169   6.551   1.776   5.331
 6078TIP3    H118170   6.645   1.797   5.334
 6078TIP3    H218171   6.542   1.721   5.251
 6079TIP3   OH218172   6.537   1.352   3.451
 6079TIP3    H118173   6.481   1.279   3.486
 6079TIP3    H218174   6.611   1.301   3.412
 6080TIP3   OH218175   7.185   1.686   5.073
 6080TIP3    H118176   7.215   1.604   5.113
 6080TIP3    H218177   7.265   1.743   5.083
 6081TIP3   OH218178   6.972   1.393   3.359
 6081TIP3    H118179   7.018   1.329   3.416
 6081TIP3    H218180   7.026   1.393   3.277
 6082TIP3   OH218181   6.205   1.218   5.470
 6082TIP3    H118182   6.220   1.123   5.484
 6082TIP3    H218183   6.115   1.218   5.430
 6083TIP3   OH218184   6.179   0.871   3.669
 6083TIP3    H118185   6.234   0.834   3.739
 6083TIP3    H218186   6.245   0.874   3.596
 6084TIP3   OH218187   6.691   1.069   3.478
 6084TIP3    H118188   6.692   1.080   3.575
 6084TIP3    H218189   6.693   0.971   3.471
 6085TIP3   OH218190   7.303   1.315   4.858
 6085TIP3    H118191   7.379   1.355   4.811
 6085TIP3    H218192   7.233   1.379   4.837
 6086TIP3   OH218193   6.332   0.957   5.454
 6086TIP3    H118194   6.397   0.885   5.447
 6086TIP3    H218195   6.349   0.986   5.546
 6087TIP3   OH218196   6.391   0.772   3.895
 6087TIP3    H118197   6.363   0.726   3.975
 6087TIP3    H218198   6.426   0.698   3.840
 6088TIP3   OH218199   6.657   0.872   5.122
 6088TIP3    H118200   6.570   0.917   5.111
 6088TIP3    H218201   6.701   0.888   5.036
 6089TIP3   OH218202   6.486   0.565   3.737
 6089TIP3    H118203   6.459   0.567   3.643
 6089TIP3    H218204   6.584   0.568   3.728
 6090TIP3   OH218205   7.165   1.229   5.270
 6090TIP3    H118206   7.234   1.215   5.203
 6090TIP3    H218207   7.183   1.151   5.328
 6091TIP3   OH218208   7.311   0.895   3.394
 6091TIP3    H118209   7.290   0.851   3.309
 6091TIP3    H218210   7.279   0.986   3.372
 6092TIP3   OH218211   6.743   0.645   5.240
 6092TIP3    H118212   6.693   0.584   5.182
 6092TIP3    H218213   6.717   0.731   5.200
 6093TIP3   OH218214   6.826   0.954   4.923
 6093TIP3    H118215   6.903   0.948   4.864
 6093TIP3    H218216   6.771   1.022   4.879
 6094TIP3   OH218217   7.386   0.918   5.283
 6094TIP3    H118218   7.416   0.858   5.355
 6094TIP3    H218219   7.468   0.963   5.258
 6095TIP3   OH218220   7.434   1.170   5.043
 6095TIP3    H118221   7.377   1.223   4.982
 6095TIP3    H218222   7.522   1.189   5.003
 6096TIP3   OH218223   6.632   0.773   5.464
 6096TIP3    H118224   6.584   0.704   5.512
 6096TIP3    H218225   6.684   0.722   5.399
 6097TIP3   OH218226   7.026   0.704   5.275
 6097TIP3    H118227   7.057   0.670   5.362
 6097TIP3    H218228   6.932   0.678   5.278
 6098TIP3   OH218229   6.296   1.628   3.638
 6098TIP3    H118230   6.391   1.625   3.616
 6098TIP3    H218231   6.263   1.675   3.559
 6099TIP3   OH218232   5.776   1.007   3.856
 6099TIP3    H118233   5.870   1.029   3.838
 6099TIP3    H218234   5.768   0.920   3.812
 6100TIP3   OH218235   5.689   1.623   4.264
 6100TIP3    H118236   5.622   1.562   4.226
 6100TIP3    H218237   5.735   1.563   4.326
 6101TIP3   OH218238   5.827   1.474   4.450
 6101TIP3    H118239   5.796   1.402   4.507
 6101TIP3    H218240   5.871   1.534   4.512
 6102TIP3   OH218241   7.550   1.877   4.253
 6102TIP3    H118242   7.583   1.913   4.337
 6102TIP3    H218243   7.618   1.907   4.189
 6103TIP3   OH218244   7.579   1.896   4.538
 6103TIP3    H118245   7.539   1.807   4.530
 6103TIP3    H218246   7.662   1.873   4.583
 6104TIP3   OH218247   7.626   1.570   5.109
 6104TIP3    H118248   7.554   1.580   5.174
 6104TIP3    H218249   7.668   1.659   5.111
 6105TIP3   OH218250   7.444   1.086   3.724
 6105TIP3    H118251   7.513   1.150   3.696
 6105TIP3    H218252   7.486   1.048   3.805
 6106TIP3   OH218253   7.566   0.963   3.933
 6106TIP3    H118254   7.500   0.915   3.988
 6106TIP3    H218255   7.627   0.998   4.000
 6107TIP3   OH218256   7.626   1.341   4.363
 6107TIP3    H118257   7.676   1.280   4.307
 6107TIP3    H218258   7.620   1.421   4.306
 6108TIP3   OH218259   7.458   1.642   4.559
 6108TIP3    H118260   7.386   1.686   4.608
 6108TIP3    H218261   7.410   1.595   4.488
 6109TIP3   OH218262   7.505   0.856   3.579
 6109TIP3    H118263   7.436   0.864   3.509
 6109TIP3    H218264   7.481   0.935   3.633
 6110TIP3   OH218265   7.374   0.517   3.524
 6110TIP3    H118266   7.357   0.594   3.469
 6110TIP3    H218267   7.324   0.449   3.476
 6111TIP3   OH218268   7.386   0.815   4.076
 6111TIP3    H118269   7.392   0.720   4.057
 6111TIP3    H218270   7.374   0.819   4.173
 6112TIP3   OH218271   6.013   0.884   4.823
 6112TIP3    H118272   6.012   0.853   4.730
 6112TIP3    H218273   6.110   0.883   4.841
 6113TIP3   OH218274   7.676   1.233   4.933
 6113TIP3    H118275   7.749   1.167   4.927
 6113TIP3    H218276   7.706   1.300   4.870
 6114TIP3   OH218277   7.856   1.036   4.965
 6114TIP3    H118278   7.782   0.980   4.995
 6114TIP3    H218279   7.931   0.973   4.974
 6115TIP3   OH218280   7.391   0.556   3.945
 6115TIP3    H118281   7.420   0.474   3.990
 6115TIP3    H218282   7.455   0.563   3.871
 6116TIP3   OH218283   7.544   0.708   4.472
 6116TIP3    H118284   7.627   0.734   4.428
 6116TIP3    H218285   7.562   0.739   4.563
 6117TIP3   OH218286   7.606   0.850   4.704
 6117TIP3    H118287   7.527   0.884   4.749
 6117TIP3    H218288   7.638   0.928   4.654
 6118TIP3   OH218289   6.226   0.565   5.502
 6118TIP3    H118290   6.319   0.543   5.491
 6118TIP3    H218291   6.192   0.483   5.542
 6119TIP3   OH218292   5.991   0.536   4.902
 6119TIP3    H118293   6.036   0.533   4.815
 6119TIP3    H218294   6.028   0.617   4.940
 6120TIP3   OH218295   7.139   1.740   3.911
 6120TIP3    H118296   7.187   1.724   3.827
 6120TIP3    H218297   7.194   1.807   3.953
 6121TIP3   OH218298   6.239   1.537   5.297
 6121TIP3    H118299   6.144   1.518   5.280
 6121TIP3    H218300   6.243   1.525   5.393
 6122TIP3   OH218301   6.858   1.820   4.977
 6122TIP3    H118302   6.899   1.820   5.067
 6122TIP3    H218303   6.925   1.871   4.926
 6123TIP3   OH218304   7.040   1.971   4.841
 6123TIP3    H118305   7.111   1.925   4.792
 6123TIP3    H218306   7.093   2.029   4.900
 6124TIP3   OH218307   6.085   1.819   4.858
 6124TIP3    H118308   5.998   1.862   4.843
 6124TIP3    H218309   6.105   1.855   4.946
 6125TIP3   OH218310   6.330   1.813   4.723
 6125TIP3    H118311   6.243   1.824   4.767
 6125TIP3    H218312   6.312   1.848   4.633
 6126TIP3   OH218313   6.754   1.841   4.523
 6126TIP3    H118314   6.688   1.861   4.455
 6126TIP3    H218315   6.768   1.929   4.563
 6127TIP3   OH218316   7.024   1.780   4.576
 6127TIP3    H118317   6.930   1.797   4.555
 6127TIP3    H218318   7.068   1.853   4.529
 6128TIP3   OH218319   7.230   1.971   4.489
 6128TIP3    H118320   7.215   2.056   4.442
 6128TIP3    H218321   7.257   1.913   4.415
 6129TIP3   OH218322   6.006   1.632   4.607
 6129TIP3    H118323   6.042   1.667   4.690
 6129TIP3    H218324   6.082   1.585   4.567
 6130TIP3   OH218325   6.208   1.488   4.485
 6130TIP3    H118326   6.237   1.405   4.443
 6130TIP3    H218327   6.289   1.542   4.473
 6131TIP3   OH218328   6.461   1.596   4.474
 6131TIP3    H118329   6.503   1.511   4.452
 6131TIP3    H218330   6.513   1.619   4.554
 6132TIP3   OH218331   5.792   1.400   4.005
 6132TIP3    H118332   5.707   1.365   3.971
 6132TIP3    H218333   5.781   1.493   3.977
 6133TIP3   OH218334   6.565   1.589   3.585
 6133TIP3    H118335   6.652   1.612   3.548
 6133TIP3    H218336   6.542   1.515   3.525
 6134TIP3   OH218337   7.282   1.705   3.678
 6134TIP3    H118338   7.274   1.608   3.665
 6134TIP3    H218339   7.237   1.738   3.597
 6135TIP3   OH218340   5.869   1.425   3.640
 6135TIP3    H118341   5.869   1.453   3.733
 6135TIP3    H218342   5.958   1.383   3.630
 6136TIP3   OH218343   7.508   1.851   4.866
 6136TIP3    H118344   7.432   1.820   4.812
 6136TIP3    H218345   7.491   1.947   4.866
 6137TIP3   OH218346   8.029   1.505   4.147
 6137TIP3    H118347   7.997   1.437   4.088
 6137TIP3    H218348   8.121   1.515   4.115
 6138TIP3   OH218349   7.747   0.754   3.920
 6138TIP3    H118350   7.679   0.821   3.903
 6138TIP3    H218351   7.720   0.683   3.861
 6139TIP3   OH218352   7.831   1.021   4.058
 6139TIP3    H118353   7.847   0.925   4.050
 6139TIP3    H218354   7.870   1.053   3.975
 6140TIP3   OH218355   7.652   1.251   3.622
 6140TIP3    H118356   7.606   1.279   3.541
 6140TIP3    H218357   7.676   1.339   3.661
 6141TIP3   OH218358   8.219   1.879   4.586
 6141TIP3    H118359   8.184   1.874   4.497
 6141TIP3    H218360   8.139   1.875   4.642
 6142TIP3   OH218361   7.837   1.388   4.558
 6142TIP3    H118362   7.769   1.358   4.496
 6142TIP3    H218363   7.871   1.303   4.596
 6143TIP3   OH218364   7.691   1.572   4.200
 6143TIP3    H118365   7.787   1.572   4.191
 6143TIP3    H218366   7.678   1.653   4.252
 6144TIP3   OH218367   7.828   1.784   3.717
 6144TIP3    H118368   7.909   1.794   3.769
 6144TIP3    H218369   7.789   1.705   3.758
 6145TIP3   OH218370   8.046   1.568   4.542
 6145TIP3    H118371   8.096   1.537   4.620
 6145TIP3    H218372   7.968   1.508   4.545
 6146TIP3   OH218373   7.814   0.539   3.688
 6146TIP3    H118374   7.826   0.552   3.592
 6146TIP3    H218375   7.718   0.554   3.696
 6147TIP3   OH218376   8.185   1.473   4.757
 6147TIP3    H118377   8.262   1.527   4.779
 6147TIP3    H218378   8.138   1.469   4.842
 6148TIP3   OH218379   7.929   1.179   4.706
 6148TIP3    H118380   7.978   1.169   4.790
 6148TIP3    H218381   7.877   1.098   4.700
 6149TIP3   OH218382   7.729   0.850   3.416
 6149TIP3    H118383   7.778   0.933   3.435
 6149TIP3    H218384   7.653   0.860   3.478
 6150TIP3   OH218385   7.871   1.758   4.345
 6150TIP3    H118386   7.931   1.687   4.374
 6150TIP3    H218387   7.910   1.836   4.388
 6151TIP3   OH218388   7.834   1.095   3.484
 6151TIP3    H118389   7.773   1.138   3.547
 6151TIP3    H218390   7.841   1.162   3.413
 6152TIP3   OH218391   7.830   1.296   3.286
 6152TIP3    H118392   7.900   1.358   3.316
 6152TIP3    H218393   7.857   1.282   3.192
 6153TIP3   OH218394   7.793   0.585   3.413
 6153TIP3    H118395   7.780   0.682   3.414
 6153TIP3    H218396   7.702   0.553   3.403
 6154TIP3   OH218397   7.697   1.512   3.693
 6154TIP3    H118398   7.626   1.555   3.743
 6154TIP3    H218399   7.695   1.564   3.610
 6155TIP3   OH218400   7.866   2.064   4.765
 6155TIP3    H118401   7.954   2.058   4.806
 6155TIP3    H218402   7.840   1.970   4.761
 6156TIP3   OH218403   7.994   1.471   4.968
 6156TIP3    H118404   8.015   1.376   4.965
 6156TIP3    H218405   7.911   1.474   4.917
 6157TIP3   OH218406   8.109   1.209   4.943
 6157TIP3    H118407   8.180   1.147   4.925
 6157TIP3    H218408   8.135   1.242   5.032
 6158TIP3   OH218409   7.562   1.263   3.342
 6158TIP3    H118410   7.657   1.280   3.324
 6158TIP3    H218411   7.553   1.173   3.303
 6159TIP3   OH218412   7.484   1.880   3.753
 6159TIP3    H118413   7.418   1.817   3.717
 6159TIP3    H218414   7.532   1.822   3.816
 6160TIP3   OH218415   7.621   1.729   3.938
 6160TIP3    H118416   7.612   1.656   4.002
 6160TIP3    H218417   7.675   1.792   3.989
 6161TIP3   OH218418   7.820   1.134   4.309
 6161TIP3    H118419   7.812   1.096   4.219
 6161TIP3    H218420   7.913   1.159   4.310
 6162TIP3   OH218421   8.021   0.821   4.986
 6162TIP3    H118422   8.116   0.808   4.989
 6162TIP3    H218423   7.990   0.738   5.026
 6163TIP3   OH218424   7.788   0.792   4.374
 6163TIP3    H118425   7.858   0.765   4.313
 6163TIP3    H218426   7.822   0.874   4.412
 6164TIP3   OH218427   8.039   1.798   4.786
 6164TIP3    H118428   7.950   1.767   4.761
 6164TIP3    H218429   8.040   1.776   4.880
 6165TIP3   OH218430   7.877   2.078   4.359
 6165TIP3    H118431   7.793   2.121   4.332
 6165TIP3    H218432   7.898   2.130   4.438
 6166TIP3   OH218433   8.131   2.062   4.226
 6166TIP3    H118434   8.039   2.073   4.255
 6166TIP3    H218435   8.127   2.097   4.135
 6167TIP3   OH218436   7.792   1.886   4.101
 6167TIP3    H118437   7.824   1.868   4.191
 6167TIP3    H218438   7.864   1.844   4.049
 6168TIP3   OH218439   7.979   1.752   3.958
 6168TIP3    H118440   7.991   1.658   3.979
 6168TIP3    H218441   8.070   1.775   3.929
 6169TIP3   OH218442   7.593   1.652   3.480
 6169TIP3    H118443   7.505   1.625   3.451
 6169TIP3    H218444   7.584   1.749   3.475
 6170TIP3   OH218445   7.667   1.690   3.139
 6170TIP3    H118446   7.634   1.721   3.225
 6170TIP3    H218447   7.739   1.630   3.164
 6171TIP3   OH218448   1.219   2.012   5.701
 6171TIP3    H118449   1.257   1.986   5.787
 6171TIP3    H218450   1.178   1.929   5.671
 6172TIP3   OH218451   0.530   1.910   6.069
 6172TIP3    H118452   0.570   1.845   6.130
 6172TIP3    H218453   0.608   1.963   6.046
 6173TIP3   OH218454   0.499   2.316   5.796
 6173TIP3    H118455   0.492   2.218   5.796
 6173TIP3    H218456   0.595   2.326   5.784
 6174TIP3   OH218457   0.264   1.819   5.758
 6174TIP3    H118458   0.321   1.751   5.799
 6174TIP3    H218459   0.309   1.836   5.675
 6175TIP3   OH218460   1.123   2.776   5.402
 6175TIP3    H118461   1.161   2.704   5.348
 6175TIP3    H218462   1.114   2.733   5.487
 6176TIP3   OH218463   1.025   2.237   5.753
 6176TIP3    H118464   1.064   2.162   5.705
 6176TIP3    H218465   1.108   2.283   5.776
 6177TIP3   OH218466   2.036   1.556   5.749
 6177TIP3    H118467   2.065   1.637   5.796
 6177TIP3    H218468   2.062   1.577   5.658
 6178TIP3   OH218469   1.437   1.738   5.786
 6178TIP3    H118470   1.479   1.652   5.804
 6178TIP3    H218471   1.410   1.726   5.693
 6179TIP3   OH218472   0.789   1.409   5.741
 6179TIP3    H118473   0.769   1.479   5.676
 6179TIP3    H218474   0.757   1.331   5.690
 6180TIP3   OH218475   1.489   1.492   5.336
 6180TIP3    H118476   1.551   1.464   5.407
 6180TIP3    H218477   1.486   1.587   5.356
 6181TIP3   OH218478   0.416   1.618   5.869
 6181TIP3    H118479   0.495   1.577   5.908
 6181TIP3    H218480   0.396   1.558   5.795
 6182TIP3   OH218481   0.852   1.800   5.651
 6182TIP3    H118482   0.946   1.774   5.663
 6182TIP3    H218483   0.814   1.718   5.613
 6183TIP3   OH218484   2.106   1.759   5.927
 6183TIP3    H118485   2.026   1.813   5.908
 6183TIP3    H218486   2.142   1.805   6.005
 6184TIP3   OH218487   0.793   1.377   6.170
 6184TIP3    H118488   0.737   1.421   6.104
 6184TIP3    H218489   0.736   1.379   6.249
 6185TIP3   OH218490   0.879   2.156   5.978
 6185TIP3    H118491   0.817   2.223   6.015
 6185TIP3    H218492   0.921   2.206   5.905
 6186TIP3   OH218493   1.673   1.500   5.539
 6186TIP3    H118494   1.677   1.438   5.612
 6186TIP3    H218495   1.728   1.573   5.572
 6187TIP3   OH218496   0.657   1.497   5.961
 6187TIP3    H118497   0.706   1.577   5.990
 6187TIP3    H218498   0.715   1.471   5.886
 6188TIP3   OH218499   0.705   2.350   6.078
 6188TIP3    H118500   0.681   2.434   6.035
 6188TIP3    H218501   0.625   2.336   6.133
 6189TIP3   OH218502   0.114   2.035   5.310
 6189TIP3    H118503   0.063   2.061   5.231
 6189TIP3    H218504   0.134   2.121   5.351
 6190TIP3   OH218505   1.549   2.566   5.567
 6190TIP3    H118506   1.457   2.541   5.592
 6190TIP3    H218507   1.534   2.645   5.513
 6191TIP3   OH218508   1.829   1.454   5.912
 6191TIP3    H118509   1.744   1.484   5.877
 6191TIP3    H218510   1.892   1.488   5.845
 6192TIP3   OH218511   1.145   1.124   5.895
 6192TIP3    H118512   1.116   1.031   5.887
 6192TIP3    H218513   1.064   1.163   5.934
 6193TIP3   OH218514   1.236   2.601   5.219
 6193TIP3    H118515   1.286   2.517   5.203
 6193TIP3    H218516   1.301   2.666   5.183
 6194TIP3   OH218517   1.371   2.375   5.142
 6194TIP3    H118518   1.332   2.300   5.094
 6194TIP3    H218519   1.418   2.327   5.212
 6195TIP3   OH218520   1.766   2.469   5.895
 6195TIP3    H118521   1.756   2.392   5.835
 6195TIP3    H218522   1.750   2.544   5.834
 6196TIP3   OH218523   1.035   1.833   5.132
 6196TIP3    H118524   0.967   1.903   5.129
 6196TIP3    H218525   1.112   1.879   5.095
 6197TIP3   OH218526   1.017   1.650   4.860
 6197TIP3    H118527   1.061   1.698   4.932
 6197TIP3    H218528   1.090   1.593   4.828
 6198TIP3   OH218529   1.961   2.101   5.736
 6198TIP3    H118530   1.880   2.155   5.743
 6198TIP3    H218531   1.992   2.129   5.647
 6199TIP3   OH218532   1.640   1.979   6.031
 6199TIP3    H118533   1.642   2.060   6.087
 6199TIP3    H218534   1.554   1.992   5.986
 6200TIP3   OH218535   0.636   1.942   5.543
 6200TIP3    H118536   0.597   1.885   5.474
 6200TIP3    H218537   0.714   1.890   5.571
 6201TIP3   OH218538   0.765   2.350   5.692
 6201TIP3    H118539   0.747   2.315   5.603
 6201TIP3    H218540   0.856   2.318   5.708
 6202TIP3   OH218541   0.775   1.915   5.896
 6202TIP3    H118542   0.807   1.893   5.806
 6202TIP3    H218543   0.819   2.001   5.914
 6203TIP3   OH218544   1.295   2.550   5.668
 6203TIP3    H118545   1.289   2.630   5.723
 6203TIP3    H218546   1.284   2.477   5.731
 6204TIP3   OH218547   0.913   2.469   6.220
 6204TIP3    H118548   0.853   2.533   6.265
 6204TIP3    H218549   0.848   2.416   6.170
 6205TIP3   OH218550   1.276   1.789   4.968
 6205TIP3    H118551   1.312   1.866   5.017
 6205TIP3    H218552   1.291   1.814   4.875
 6206TIP3   OH218553   0.685   2.034   6.314
 6206TIP3    H118554   0.680   2.121   6.357
 6206TIP3    H218555   0.591   2.005   6.317
 6207TIP3   OH218556   0.961   2.516   5.245
 6207TIP3    H118557   1.056   2.531   5.240
 6207TIP3    H218558   0.925   2.579   5.181
 6208TIP3   OH218559   0.707   2.638   6.305
 6208TIP3    H118560   0.673   2.640   6.214
 6208TIP3    H218561   0.626   2.622   6.357
 6209TIP3   OH218562   1.761   1.044   5.000
 6209TIP3    H118563   1.681   1.066   5.052
 6209TIP3    H218564   1.772   1.124   4.946
 6210TIP3   OH218565   0.506   1.786   5.345
 6210TIP3    H118566   0.440   1.829   5.286
 6210TIP3    H218567   0.467   1.700   5.359
 6211TIP3   OH218568   1.560   2.410   4.544
 6211TIP3    H118569   1.568   2.507   4.531
 6211TIP3    H218570   1.654   2.382   4.533
 6212TIP3   OH218571   0.305   2.157   6.248
 6212TIP3    H118572   0.244   2.142   6.175
 6212TIP3    H218573   0.328   2.067   6.272
 6213TIP3   OH218574   0.143   2.386   5.870
 6213TIP3    H118575   0.226   2.337   5.859
 6213TIP3    H218576   0.168   2.446   5.943
 6214TIP3   OH218577   2.004   2.813   5.941
 6214TIP3    H118578   2.002   2.716   5.954
 6214TIP3    H218579   1.921   2.837   5.986
 6215TIP3   OH218580   1.111   2.599   6.076
 6215TIP3    H118581   1.109   2.692   6.108
 6215TIP3    H218582   1.039   2.559   6.131
 6216TIP3   OH218583   0.870   2.729   5.028
 6216TIP3    H118584   0.825   2.710   4.943
 6216TIP3    H218585   0.838   2.818   5.050
 6217TIP3   OH218586   0.307   2.578   5.412
 6217TIP3    H118587   0.357   2.570   5.497
 6217TIP3    H218588   0.255   2.496   5.415
 6218TIP3   OH218589   1.072   2.630   4.668
 6218TIP3    H118590   1.131   2.560   4.632
 6218TIP3    H218591   1.106   2.639   4.759
 6219TIP3   OH218592   1.121   2.676   4.938
 6219TIP3    H118593   1.033   2.687   4.980
 6219TIP3    H218594   1.172   2.636   5.010
 6220TIP3   OH218595   1.873   1.948   6.198
 6220TIP3    H118596   1.811   1.947   6.125
 6220TIP3    H218597   1.906   1.856   6.201
 6221TIP3   OH218598   0.488   2.358   6.249
 6221TIP3    H118599   0.545   2.332   6.324
 6221TIP3    H218600   0.418   2.289   6.252
 6222TIP3   OH218601   0.897   1.184   5.998
 6222TIP3    H118602   0.811   1.143   5.977
 6222TIP3    H218603   0.869   1.257   6.057
 6223TIP3   OH218604   1.457   1.298   6.211
 6223TIP3    H118605   1.521   1.260   6.274
 6223TIP3    H218606   1.370   1.277   6.252
 6224TIP3   OH218607   1.646   1.721   6.147
 6224TIP3    H118608   1.659   1.762   6.234
 6224TIP3    H218609   1.636   1.800   6.090
 6225TIP3   OH218610   1.317   1.837   4.695
 6225TIP3    H118611   1.291   1.820   4.603
 6225TIP3    H218612   1.390   1.900   4.683
 6226TIP3   OH218613   1.056   1.218   4.992
 6226TIP3    H118614   1.020   1.218   5.083
 6226TIP3    H218615   1.006   1.143   4.954
 6227TIP3   OH218616   0.828   1.694   6.042
 6227TIP3    H118617   0.782   1.717   6.125
 6227TIP3    H218618   0.811   1.775   5.988
 6228TIP3   OH218619   0.719   1.583   5.546
 6228TIP3    H118620   0.627   1.550   5.558
 6228TIP3    H218621   0.737   1.541   5.459
 6229TIP3   OH218622   1.199   1.668   5.276
 6229TIP3    H118623   1.128   1.733   5.258
 6229TIP3    H218624   1.247   1.679   5.193
 6230TIP3   OH218625   1.375   1.906   6.377
 6230TIP3    H118626   1.335   1.913   6.464
 6230TIP3    H218627   1.457   1.956   6.388
 6231TIP3   OH218628   1.353   1.694   5.525
 6231TIP3    H118629   1.305   1.739   5.453
 6231TIP3    H218630   1.344   1.602   5.496
 6232TIP3   OH218631   0.651   1.732   6.244
 6232TIP3    H118632   0.673   1.790   6.319
 6232TIP3    H218633   0.596   1.664   6.284
 6233TIP3   OH218634   0.697   1.194   4.967
 6233TIP3    H118635   0.678   1.183   5.062
 6233TIP3    H218636   0.621   1.249   4.939
 6234TIP3   OH218637   1.356   1.938   5.948
 6234TIP3    H118638   1.394   1.868   5.889
 6234TIP3    H218639   1.327   1.882   6.023
 6235TIP3   OH218640   1.044   1.404   5.615
 6235TIP3    H118641   0.961   1.401   5.665
 6235TIP3    H218642   1.110   1.397   5.686
 6236TIP3   OH218643   0.492   1.442   5.584
 6236TIP3    H118644   0.398   1.438   5.607
 6236TIP3    H218645   0.525   1.354   5.610
 6237TIP3   OH218646   0.743   1.453   5.308
 6237TIP3    H118647   0.836   1.472   5.283
 6237TIP3    H218648   0.691   1.478   5.228
 6238TIP3   OH218649   1.519   1.475   5.824
 6238TIP3    H118650   1.481   1.488   5.913
 6238TIP3    H218651   1.457   1.411   5.785
 6239TIP3   OH218652   0.572   1.489   5.097
 6239TIP3    H118653   0.502   1.440   5.051
 6239TIP3    H218654   0.626   1.518   5.020
 6240TIP3   OH218655   1.694   3.165   6.039
 6240TIP3    H118656   1.693   3.187   5.944
 6240TIP3    H218657   1.774   3.212   6.069
 6241TIP3   OH218658   0.652   2.275   6.460
 6241TIP3    H118659   0.734   2.303   6.506
 6241TIP3    H218660   0.589   2.276   6.535
 6242TIP3   OH218661   1.115   1.726   5.717
 6242TIP3    H118662   1.190   1.687   5.672
 6242TIP3    H218663   1.120   1.685   5.806
 6243TIP3   OH218664   0.710   1.222   5.562
 6243TIP3    H118665   0.666   1.141   5.589
 6243TIP3    H218666   0.787   1.187   5.515
 6244TIP3   OH218667   1.093   1.625   6.000
 6244TIP3    H118668   1.002   1.660   6.016
 6244TIP3    H218669   1.148   1.687   6.052
 6245TIP3   OH218670   0.829   2.018   5.101
 6245TIP3    H118671   0.756   1.953   5.092
 6245TIP3    H218672   0.812   2.052   5.192
 6246TIP3   OH218673   1.732   2.249   5.733
 6246TIP3    H118674   1.751   2.300   5.651
 6246TIP3    H218675   1.646   2.207   5.711
 6247TIP3   OH218676   1.282   1.370   4.980
 6247TIP3    H118677   1.196   1.322   4.983
 6247TIP3    H218678   1.263   1.436   4.911
 6248TIP3   OH218679   1.223   2.330   6.101
 6248TIP3    H118680   1.257   2.319   6.191
 6248TIP3    H218681   1.191   2.422   6.101
 6249TIP3   OH218682   0.523   2.040   5.779
 6249TIP3    H118683   0.559   2.013   5.692
 6249TIP3    H218684   0.559   1.971   5.836
 6250TIP3   OH218685   0.969   2.161   4.905
 6250TIP3    H118686   0.929   2.249   4.923
 6250TIP3    H218687   0.933   2.109   4.980
 6251TIP3   OH218688   0.444   1.919   6.393
 6251TIP3    H118689   0.476   1.945   6.481
 6251TIP3    H218690   0.347   1.920   6.408
 6252TIP3   OH218691   1.130   2.065   6.410
 6252TIP3    H118692   1.061   2.008   6.371
 6252TIP3    H218693   1.205   2.044   6.353
 6253TIP3   OH218694   1.389   2.590   5.997
 6253TIP3    H118695   1.292   2.593   6.006
 6253TIP3    H218696   1.416   2.644   6.074
 6254TIP3   OH218697   1.780   1.656   4.913
 6254TIP3    H118698   1.736   1.624   4.830
 6254TIP3    H218699   1.792   1.749   4.885
 6255TIP3   OH218700   2.017   2.522   5.984
 6255TIP3    H118701   1.919   2.516   5.976
 6255TIP3    H218702   2.043   2.492   5.894
 6256TIP3   OH218703   1.498   2.483   4.811
 6256TIP3    H118704   1.473   2.413   4.872
 6256TIP3    H218705   1.511   2.435   4.727
 6257TIP3   OH218706   1.501   2.105   5.669
 6257TIP3    H118707   1.405   2.092   5.664
 6257TIP3    H218708   1.532   2.039   5.604
 6258TIP3   OH218709   0.624   2.341   5.407
 6258TIP3    H118710   0.631   2.420   5.350
 6258TIP3    H218711   0.528   2.327   5.408
 6259TIP3   OH218712   0.168   1.649   5.120
 6259TIP3    H118713   0.237   1.718   5.120
 6259TIP3    H218714   0.108   1.688   5.185
 6260TIP3   OH218715   0.756   2.104   5.346
 6260TIP3    H118716   0.728   2.196   5.364
 6260TIP3    H218717   0.720   2.057   5.423
 6261TIP3   OH218718   0.891   2.684   5.871
 6261TIP3    H118719   0.932   2.757   5.820
 6261TIP3    H218720   0.969   2.649   5.918
 6262TIP3   OH218721   0.539   2.581   5.252
 6262TIP3    H118722   0.455   2.591   5.300
 6262TIP3    H218723   0.574   2.673   5.256
 6263TIP3   OH218724   1.280   2.318   5.829
 6263TIP3    H118725   1.273   2.314   5.927
 6263TIP3    H218726   1.361   2.267   5.813
 6264TIP3   OH218727   1.251   2.205   4.711
 6264TIP3    H118728   1.308   2.179   4.788
 6264TIP3    H218729   1.163   2.188   4.749
 6265TIP3   OH218730   1.527   2.855   5.882
 6265TIP3    H118731   1.448   2.798   5.871
 6265TIP3    H218732   1.514   2.919   5.809
 6266TIP3   OH218733   1.594   2.686   4.532
 6266TIP3    H118734   1.633   2.760   4.482
 6266TIP3    H218735   1.514   2.732   4.565
 6267TIP3   OH218736   1.414   2.144   4.917
 6267TIP3    H118737   1.389   2.108   5.005
 6267TIP3    H218738   1.511   2.129   4.920
 6268TIP3   OH218739   0.322   2.543   6.035
 6268TIP3    H118740   0.387   2.475   6.059
 6268TIP3    H218741   0.357   2.619   6.083
 6269TIP3   OH218742   0.618   2.193   4.712
 6269TIP3    H118743   0.638   2.102   4.685
 6269TIP3    H218744   0.603   2.182   4.808
 6270TIP3   OH218745   0.567   2.196   4.986
 6270TIP3    H118746   0.645   2.170   5.037
 6270TIP3    H218747   0.570   2.294   4.992
 6271TIP3   OH218748   0.303   1.885   5.181
 6271TIP3    H118749   0.240   1.932   5.240
 6271TIP3    H218750   0.323   1.957   5.118
 6272TIP3   OH218751   1.444   1.540   6.084
 6272TIP3    H118752   1.529   1.583   6.107
 6272TIP3    H218753   1.450   1.454   6.131
 6273TIP3   OH218754   1.330   1.279   5.245
 6273TIP3    H118755   1.307   1.309   5.155
 6273TIP3    H218756   1.381   1.356   5.278
 6274TIP3   OH218757   0.830   2.395   4.930
 6274TIP3    H118758   0.745   2.422   4.970
 6274TIP3    H218759   0.847   2.471   4.873
 6275TIP3   OH218760   1.025   1.460   5.344
 6275TIP3    H118761   1.089   1.532   5.325
 6275TIP3    H218762   1.029   1.455   5.442
 6276TIP3   OH218763   1.284   1.770   6.148
 6276TIP3    H118764   1.313   1.813   6.232
 6276TIP3    H218765   1.341   1.690   6.144
 6277TIP3   OH218766   1.167   1.187   5.453
 6277TIP3    H118767   1.157   1.264   5.511
 6277TIP3    H218768   1.227   1.223   5.384
 6278TIP3   OH218769   0.571   2.469   5.000
 6278TIP3    H118770   0.543   2.540   4.938
 6278TIP3    H218771   0.558   2.513   5.087
 6279TIP3   OH218772   0.694   1.189   5.245
 6279TIP3    H118773   0.697   1.283   5.273
 6279TIP3    H218774   0.790   1.170   5.244
 6280TIP3   OH218775   1.922   1.676   6.140
 6280TIP3    H118776   1.826   1.662   6.131
 6280TIP3    H218777   1.953   1.652   6.052
 6281TIP3   OH218778   1.586   1.872   5.523
 6281TIP3    H118779   1.508   1.816   5.536
 6281TIP3    H218780   1.656   1.825   5.573
 6282TIP3   OH218781   0.295   2.103   4.991
 6282TIP3    H118782   0.362   2.173   5.002
 6282TIP3    H218783   0.341   2.049   4.923
 6283TIP3   OH218784   0.280   1.403   5.041
 6283TIP3    H118785   0.273   1.487   5.088
 6283TIP3    H218786   0.225   1.346   5.097
 6284TIP3   OH218787   1.547   2.832   5.473
 6284TIP3    H118788   1.506   2.879   5.397
 6284TIP3    H218789   1.642   2.849   5.452
 6285TIP3   OH218790   0.167   2.319   5.384
 6285TIP3    H118791   0.089   2.353   5.430
 6285TIP3    H218792   0.152   2.356   5.295
 6286TIP3   OH218793   0.340   2.868   6.432
 6286TIP3    H118794   0.419   2.875   6.491
 6286TIP3    H218795   0.316   2.777   6.447
 6287TIP3   OH218796   0.802   2.821   6.498
 6287TIP3    H118797   0.897   2.804   6.504
 6287TIP3    H218798   0.778   2.763   6.423
 6288TIP3   OH218799   0.782   2.397   4.623
 6288TIP3    H118800   0.727   2.327   4.664
 6288TIP3    H218801   0.859   2.344   4.595
 6289TIP3   OH218802   1.438   2.729   6.233
 6289TIP3    H118803   1.433   2.657   6.300
 6289TIP3    H218804   1.518   2.777   6.260
 6290TIP3   OH218805   1.220   2.437   4.536
 6290TIP3    H118806   1.266   2.375   4.595
 6290TIP3    H218807   1.277   2.437   4.457
 6291TIP3   OH218808   0.448   2.255   6.649
 6291TIP3    H118809   0.478   2.162   6.649
 6291TIP3    H218810   0.354   2.245   6.634
 6292TIP3   OH218811   0.428   1.911   4.847
 6292TIP3    H118812   0.486   1.881   4.920
 6292TIP3    H218813   0.495   1.917   4.775
 6293TIP3   OH218814   1.057   2.345   6.426
 6293TIP3    H118815   1.019   2.365   6.339
 6293TIP3    H218816   1.090   2.253   6.415
 6294TIP3   OH218817   0.930   2.107   4.643
 6294TIP3    H118818   0.937   2.124   4.740
 6294TIP3    H218819   0.929   2.009   4.643
 6295TIP3   OH218820   1.551   2.357   6.032
 6295TIP3    H118821   1.628   2.398   5.988
 6295TIP3    H218822   1.483   2.426   6.015
 6296TIP3   OH218823   0.557   1.999   6.636
 6296TIP3    H118824   0.624   1.929   6.625
 6296TIP3    H218825   0.574   2.020   6.730
 6297TIP3   OH218826   0.630   1.816   5.065
 6297TIP3    H118827   0.611   1.777   5.152
 6297TIP3    H218828   0.670   1.741   5.017
 6298TIP3   OH218829   0.915   1.886   6.294
 6298TIP3    H118830   0.836   1.944   6.294
 6298TIP3    H218831   0.964   1.919   6.215
 6299TIP3   OH218832   0.737   1.609   4.910
 6299TIP3    H118833   0.709   1.613   4.816
 6299TIP3    H218834   0.834   1.617   4.900
 6300TIP3   OH218835   1.418   2.275   6.426
 6300TIP3    H118836   1.504   2.272   6.381
 6300TIP3    H218837   1.434   2.221   6.505
 6301TIP3   OH218838   1.563   1.940   4.569
 6301TIP3    H118839   1.537   1.896   4.486
 6301TIP3    H218840   1.529   2.031   4.551
 6302TIP3   OH218841   1.005   1.654   6.415
 6302TIP3    H118842   1.031   1.585   6.352
 6302TIP3    H218843   0.983   1.730   6.357
 6303TIP3   OH218844   1.049   1.459   6.224
 6303TIP3    H118845   1.070   1.502   6.139
 6303TIP3    H218846   0.958   1.426   6.207
 6304TIP3   OH218847   1.064   1.995   6.101
 6304TIP3    H118848   1.145   2.004   6.049
 6304TIP3    H218849   1.005   2.061   6.057
 6305TIP3   OH218850   1.673   1.945   6.491
 6305TIP3    H118851   1.760   1.902   6.504
 6305TIP3    H218852   1.705   2.025   6.447
 6306TIP3   OH218853   1.675   2.208   6.220
 6306TIP3    H118854   1.624   2.264   6.158
 6306TIP3    H218855   1.766   2.222   6.185
 6307TIP3   OH218856   0.939   1.777   6.648
 6307TIP3    H118857   0.847   1.761   6.672
 6307TIP3    H218858   0.948   1.735   6.559
 6308TIP3   OH218859   1.201   1.239   6.275
 6308TIP3    H118860   1.151   1.321   6.256
 6308TIP3    H218861   1.127   1.176   6.280
 6309TIP3   OH218862   1.254   1.222   6.545
 6309TIP3    H118863   1.326   1.156   6.545
 6309TIP3    H218864   1.234   1.227   6.449
 6310TIP3   OH218865   1.335   1.456   6.677
 6310TIP3    H118866   1.300   1.378   6.629
 6310TIP3    H218867   1.251   1.508   6.693
 6311TIP3   OH218868   0.544   2.673   4.813
 6311TIP3    H118869   0.639   2.668   4.794
 6311TIP3    H218870   0.515   2.722   4.733
 6312TIP3   OH218871   0.033   2.044   5.034
 6312TIP3    H118872   0.126   2.072   5.020
 6312TIP3    H218873   0.030   1.958   4.987
 6313TIP3   OH218874  -0.086   2.664   5.456
 6313TIP3    H118875  -0.123   2.596   5.398
 6313TIP3    H218876  -0.031   2.612   5.518
 6314TIP3   OH218877   0.067   2.523   5.635
 6314TIP3    H118878   0.075   2.449   5.698
 6314TIP3    H218879   0.120   2.589   5.683
 6315TIP3   OH218880   1.801   2.920   5.428
 6315TIP3    H118881   1.830   2.952   5.516
 6315TIP3    H218882   1.866   2.961   5.369
 6316TIP3   OH218883   1.831   2.941   5.712
 6316TIP3    H118884   1.788   2.853   5.708
 6316TIP3    H218885   1.908   2.918   5.766
 6317TIP3   OH218886   1.874   2.617   6.281
 6317TIP3    H118887   1.804   2.624   6.348
 6317TIP3    H218888   1.918   2.704   6.288
 6318TIP3   OH218889   1.697   2.126   4.902
 6318TIP3    H118890   1.764   2.192   4.875
 6318TIP3    H218891   1.738   2.090   4.984
 6319TIP3   OH218892   1.822   1.991   5.106
 6319TIP3    H118893   1.756   1.949   5.164
 6319TIP3    H218894   1.884   2.032   5.169
 6320TIP3   OH218895   1.877   2.388   5.542
 6320TIP3    H118896   1.929   2.324   5.490
 6320TIP3    H218897   1.866   2.462   5.479
 6321TIP3   OH218898   1.712   2.693   5.741
 6321TIP3    H118899   1.639   2.733   5.792
 6321TIP3    H218900   1.663   2.644   5.671
 6322TIP3   OH218901   1.757   1.897   4.758
 6322TIP3    H118902   1.688   1.905   4.688
 6322TIP3    H218903   1.734   1.976   4.812
 6323TIP3   OH218904   1.623   1.576   4.714
 6323TIP3    H118905   1.585   1.622   4.638
 6323TIP3    H218906   1.596   1.483   4.696
 6324TIP3   OH218907   1.652   1.800   5.251
 6324TIP3    H118908   1.690   1.785   5.339
 6324TIP3    H218909   1.586   1.869   5.272
 6325TIP3   OH218910   0.262   1.924   6.021
 6325TIP3    H118911   0.252   1.907   5.925
 6325TIP3    H218912   0.359   1.929   6.029
 6326TIP3   OH218913   1.920   2.275   6.113
 6326TIP3    H118914   1.990   2.206   6.105
 6326TIP3    H218915   1.952   2.344   6.053
 6327TIP3   OH218916   2.105   2.080   6.129
 6327TIP3    H118917   2.037   2.041   6.188
 6327TIP3    H218918   2.177   2.015   6.141
 6328TIP3   OH218919   1.567   1.312   4.710
 6328TIP3    H118920   1.647   1.270   4.746
 6328TIP3    H218921   1.498   1.244   4.720
 6329TIP3   OH218922   1.795   1.739   5.645
 6329TIP3    H118923   1.881   1.766   5.605
 6329TIP3    H218924   1.807   1.778   5.734
 6330TIP3   OH218925   1.859   1.887   5.875
 6330TIP3    H118926   1.779   1.925   5.917
 6330TIP3    H218927   1.895   1.965   5.829
 6331TIP3   OH218928   2.308   1.473   6.431
 6331TIP3    H118929   2.371   1.410   6.390
 6331TIP3    H218930   2.284   1.530   6.355
 6332TIP3   OH218931   2.182   1.618   6.239
 6332TIP3    H118932   2.095   1.658   6.259
 6332TIP3    H218933   2.154   1.546   6.180
 6333TIP3   OH218934   1.822   1.255   4.823
 6333TIP3    H118935   1.863   1.181   4.774
 6333TIP3    H218936   1.890   1.324   4.814
 6334TIP3   OH218937   1.386   2.785   5.086
 6334TIP3    H118938   1.437   2.772   5.003
 6334TIP3    H218939   1.441   2.851   5.132
 6335TIP3   OH218940   0.481   2.592   6.478
 6335TIP3    H118941   0.424   2.518   6.454
 6335TIP3    H218942   0.498   2.578   6.572
 6336TIP3   OH218943   0.663   2.622   6.019
 6336TIP3    H118944   0.618   2.699   5.979
 6336TIP3    H218945   0.750   2.633   5.975
 6337TIP3   OH218946   1.110   2.866   6.158
 6337TIP3    H118947   1.152   2.867   6.246
 6337TIP3    H218948   1.176   2.916   6.105
 6338TIP3   OH218949   1.288   3.018   6.016
 6338TIP3    H118950   1.358   2.967   5.972
 6338TIP3    H218951   1.341   3.074   6.077
 6339TIP3   OH218952   2.084   1.380   6.116
 6339TIP3    H118953   1.993   1.372   6.081
 6339TIP3    H218954   2.117   1.287   6.104
 6340TIP3   OH218955   0.341   2.875   6.045
 6340TIP3    H118956   0.251   2.906   6.021
 6340TIP3    H218957   0.350   2.915   6.132
 6341TIP3   OH218958   0.578   2.856   5.901
 6341TIP3    H118959   0.491   2.870   5.945
 6341TIP3    H218960   0.559   2.888   5.811
 6342TIP3   OH218961   1.002   2.885   5.700
 6342TIP3    H118962   0.936   2.906   5.632
 6342TIP3    H218963   1.016   2.973   5.741
 6343TIP3   OH218964   1.273   2.825   5.753
 6343TIP3    H118965   1.179   2.841   5.731
 6343TIP3    H218966   1.317   2.899   5.707
 6344TIP3   OH218967   1.480   3.018   5.666
 6344TIP3    H118968   1.465   3.101   5.617
 6344TIP3    H218969   1.506   2.957   5.593
 6345TIP3   OH218970   0.253   2.672   5.783
 6345TIP3    H118971   0.270   2.648   5.876
 6345TIP3    H218972   0.326   2.623   5.738
 6346TIP3   OH218973   0.448   2.541   5.643
 6346TIP3    H118974   0.464   2.458   5.693
 6346TIP3    H218975   0.538   2.579   5.639
 6347TIP3   OH218976   0.711   2.639   5.648
 6347TIP3    H118977   0.745   2.550   5.630
 6347TIP3    H218978   0.757   2.659   5.732
 6348TIP3   OH218979   1.294   1.300   5.732
 6348TIP3    H118980   1.248   1.235   5.789
 6348TIP3    H218981   1.363   1.244   5.690
 6349TIP3   OH218982   1.810   1.172   5.643
 6349TIP3    H118983   1.850   1.223   5.568
 6349TIP3    H218984   1.715   1.191   5.632
 6350TIP3   OH218985   1.911   1.277   5.414
 6350TIP3    H118986   1.978   1.224   5.366
 6350TIP3    H218987   1.939   1.368   5.388
 6351TIP3   OH218988   0.953   1.063   5.603
 6351TIP3    H118989   1.037   1.098   5.572
 6351TIP3    H218990   0.973   1.038   5.694
 6352TIP3   OH218991   1.526   1.177   5.613
 6352TIP3    H118992   1.532   1.134   5.526
 6352TIP3    H218993   1.512   1.099   5.671
 6353TIP3   OH218994   1.546   1.101   5.164
 6353TIP3    H118995   1.466   1.148   5.193
 6353TIP3    H218996   1.540   1.021   5.220
 6354TIP3   OH218997   0.027   2.449   5.188
 6354TIP3    H118998  -0.037   2.399   5.136
 6354TIP3    H218999   0.020   2.537   5.145
 6355TIP3   OH219000   0.969   1.208   5.257
 6355TIP3    H119001   1.022   1.163   5.325
 6355TIP3    H219002   0.986   1.301   5.284
 6356TIP3   OH219003   0.812   2.633   4.761
 6356TIP3    H119004   0.901   2.655   4.725
 6356TIP3    H219005   0.790   2.558   4.701
 6357TIP3   OH219006   1.531   2.750   4.854
 6357TIP3    H119007   1.522   2.653   4.840
 6357TIP3    H219008   1.486   2.783   4.773
 6358TIP3   OH219009   0.116   2.464   4.821
 6358TIP3    H119010   0.120   2.508   4.906
 6358TIP3    H219011   0.206   2.427   4.810
 6359TIP3   OH219012   1.814   1.338   6.549
 6359TIP3    H119013   1.841   1.317   6.640
 6359TIP3    H219014   1.901   1.352   6.505
 6360TIP3   OH219015   1.757   2.896   6.042
 6360TIP3    H119016   1.679   2.864   5.993
 6360TIP3    H219017   1.738   2.992   6.045
 6361TIP3   OH219018   3.026   2.270   4.803
 6361TIP3    H119019   2.991   2.359   4.786
 6361TIP3    H219020   2.950   2.216   4.775
 6362TIP3   OH219021   3.020   2.267   5.189
 6362TIP3    H119022   3.058   2.244   5.276
 6362TIP3    H219023   2.983   2.182   5.160
 6363TIP3   OH219024   2.323   2.162   5.554
 6363TIP3    H119025   2.353   2.094   5.618
 6363TIP3    H219026   2.400   2.220   5.551
 6364TIP3   OH219027   2.293   2.571   5.279
 6364TIP3    H119028   2.284   2.474   5.281
 6364TIP3    H219029   2.390   2.581   5.274
 6365TIP3   OH219030   2.000   1.773   5.058
 6365TIP3    H119031   1.961   1.860   5.080
 6365TIP3    H219032   1.921   1.723   5.037
 6366TIP3   OH219033   2.060   2.060   5.233
 6366TIP3    H119034   2.110   1.986   5.271
 6366TIP3    H219035   2.124   2.098   5.171
 6367TIP3   OH219036   2.911   3.027   4.881
 6367TIP3    H119037   2.964   2.955   4.841
 6367TIP3    H219038   2.906   3.000   4.974
 6368TIP3   OH219039   2.823   2.493   5.236
 6368TIP3    H119040   2.862   2.414   5.194
 6368TIP3    H219041   2.906   2.538   5.261
 6369TIP3   OH219042   3.231   1.997   5.268
 6369TIP3    H119043   3.280   1.915   5.291
 6369TIP3    H219044   3.204   1.977   5.177
 6370TIP3   OH219045   2.569   1.653   5.235
 6370TIP3    H119046   2.553   1.727   5.172
 6370TIP3    H219047   2.522   1.581   5.190
 6371TIP3   OH219048   3.269   1.744   4.861
 6371TIP3    H119049   3.341   1.730   4.927
 6371TIP3    H219050   3.321   1.780   4.787
 6372TIP3   OH219051   2.206   1.856   5.341
 6372TIP3    H119052   2.288   1.838   5.390
 6372TIP3    H219053   2.222   1.800   5.262
 6373TIP3   OH219054   2.647   2.054   5.133
 6373TIP3    H119055   2.741   2.029   5.147
 6373TIP3    H219056   2.609   1.969   5.102
 6374TIP3   OH219057   2.568   1.636   5.668
 6374TIP3    H119058   2.508   1.674   5.601
 6374TIP3    H219059   2.517   1.653   5.750
 6375TIP3   OH219060   2.926   2.500   4.679
 6375TIP3    H119061   2.881   2.469   4.599
 6375TIP3    H219062   2.873   2.581   4.699
 6376TIP3   OH219063   2.675   2.413   5.464
 6376TIP3    H119064   2.612   2.478   5.503
 6376TIP3    H219065   2.717   2.465   5.393
 6377TIP3   OH219066   3.480   1.745   5.031
 6377TIP3    H119067   3.458   1.707   5.117
 6377TIP3    H219068   3.549   1.809   5.060
 6378TIP3   OH219069   2.437   1.753   5.454
 6378TIP3    H119070   2.500   1.825   5.478
 6378TIP3    H219071   2.487   1.711   5.380
 6379TIP3   OH219072   2.502   2.606   5.562
 6379TIP3    H119073   2.477   2.693   5.524
 6379TIP3    H219074   2.423   2.591   5.619
 6380TIP3   OH219075   1.900   2.297   4.798
 6380TIP3    H119076   1.857   2.326   4.716
 6380TIP3    H219077   1.930   2.383   4.836
 6381TIP3   OH219078   3.356   2.806   5.022
 6381TIP3    H119079   3.269   2.787   5.066
 6381TIP3    H219080   3.337   2.896   4.988
 6382TIP3   OH219081   3.624   1.713   5.394
 6382TIP3    H119082   3.530   1.737   5.388
 6382TIP3    H219083   3.659   1.773   5.325
 6383TIP3   OH219084   2.922   1.356   5.378
 6383TIP3    H119085   2.915   1.262   5.402
 6383TIP3    H219086   2.846   1.393   5.429
 6384TIP3   OH219087   3.048   2.856   4.713
 6384TIP3    H119088   3.100   2.778   4.685
 6384TIP3    H219089   3.103   2.927   4.674
 6385TIP3   OH219090   3.190   2.631   4.631
 6385TIP3    H119091   3.160   2.576   4.557
 6385TIP3    H219092   3.151   2.583   4.705
 6386TIP3   OH219093   3.563   2.728   5.389
 6386TIP3    H119094   3.552   2.649   5.331
 6386TIP3    H219095   3.543   2.801   5.328
 6387TIP3   OH219096   2.855   2.120   4.638
 6387TIP3    H119097   2.775   2.170   4.615
 6387TIP3    H219098   2.899   2.111   4.551
 6388TIP3   OH219099   2.816   1.895   4.353
 6388TIP3    H119100   2.886   1.948   4.394
 6388TIP3    H219101   2.869   1.842   4.290
 6389TIP3   OH219102   3.782   2.385   5.241
 6389TIP3    H119103   3.687   2.392   5.256
 6389TIP3    H219104   3.787   2.348   5.152
 6390TIP3   OH219105   3.206   2.201   4.609
 6390TIP3    H119106   3.147   2.223   4.686
 6390TIP3    H219107   3.286   2.172   4.656
 6391TIP3   OH219108   3.432   2.235   5.543
 6391TIP3    H119109   3.430   2.324   5.582
 6391TIP3    H219110   3.359   2.240   5.479
 6392TIP3   OH219111   2.435   2.199   5.027
 6392TIP3    H119112   2.395   2.141   4.959
 6392TIP3    H219113   2.512   2.146   5.057
 6393TIP3   OH219114   2.565   2.609   5.177
 6393TIP3    H119115   2.544   2.567   5.092
 6393TIP3    H219116   2.655   2.576   5.195
 6394TIP3   OH219117   2.570   2.171   5.380
 6394TIP3    H119118   2.606   2.149   5.292
 6394TIP3    H219119   2.615   2.256   5.401
 6395TIP3   OH219120   3.116   2.805   5.156
 6395TIP3    H119121   3.091   2.887   5.203
 6395TIP3    H219122   3.090   2.735   5.219
 6396TIP3   OH219123   2.709   2.728   5.704
 6396TIP3    H119124   2.649   2.790   5.751
 6396TIP3    H219125   2.643   2.674   5.656
 6397TIP3   OH219126   3.041   2.060   4.435
 6397TIP3    H119127   3.102   2.120   4.484
 6397TIP3    H219128   3.064   2.085   4.341
 6398TIP3   OH219129   2.462   2.284   5.805
 6398TIP3    H119130   2.467   2.371   5.850
 6398TIP3    H219131   2.367   2.264   5.817
 6399TIP3   OH219132   2.786   2.739   4.710
 6399TIP3    H119133   2.859   2.798   4.735
 6399TIP3    H219134   2.722   2.799   4.671
 6400TIP3   OH219135   2.503   2.896   5.792
 6400TIP3    H119136   2.468   2.895   5.701
 6400TIP3    H219137   2.423   2.874   5.845
 6401TIP3   OH219138   3.556   1.298   4.487
 6401TIP3    H119139   3.480   1.309   4.548
 6401TIP3    H219140   3.541   1.373   4.429
 6402TIP3   OH219141   2.302   2.042   4.831
 6402TIP3    H119142   2.235   2.087   4.774
 6402TIP3    H219143   2.260   1.957   4.845
 6403TIP3   OH219144   3.357   2.668   4.035
 6403TIP3    H119145   3.365   2.765   4.018
 6403TIP3    H219146   3.450   2.639   4.022
 6404TIP3   OH219147   2.082   2.426   5.739
 6404TIP3    H119148   2.015   2.403   5.671
 6404TIP3    H219149   2.119   2.338   5.763
 6405TIP3   OH219150   1.936   2.620   5.369
 6405TIP3    H119151   2.032   2.613   5.362
 6405TIP3    H219152   1.927   2.698   5.426
 6406TIP3   OH219153   3.801   3.069   5.429
 6406TIP3    H119154   3.800   2.973   5.444
 6406TIP3    H219155   3.718   3.095   5.474
 6407TIP3   OH219156   2.906   2.856   5.562
 6407TIP3    H119157   2.905   2.949   5.595
 6407TIP3    H219158   2.835   2.816   5.616
 6408TIP3   OH219159   2.667   2.985   4.514
 6408TIP3    H119160   2.621   2.970   4.430
 6408TIP3    H219161   2.636   3.074   4.541
 6409TIP3   OH219162   2.105   2.833   4.898
 6409TIP3    H119163   2.154   2.825   4.982
 6409TIP3    H219164   2.045   2.757   4.906
 6410TIP3   OH219165   2.867   2.886   4.153
 6410TIP3    H119166   2.927   2.816   4.117
 6410TIP3    H219167   2.902   2.896   4.244
 6411TIP3   OH219168   2.918   2.933   4.424
 6411TIP3    H119169   2.829   2.945   4.464
 6411TIP3    H219170   2.968   2.898   4.499
 6412TIP3   OH219171   3.687   2.201   5.695
 6412TIP3    H119172   3.608   2.211   5.640
 6412TIP3    H219173   3.708   2.107   5.681
 6413TIP3   OH219174   2.286   2.609   5.729
 6413TIP3    H119175   2.337   2.592   5.811
 6413TIP3    H219176   2.212   2.545   5.736
 6414TIP3   OH219177   2.685   1.432   5.511
 6414TIP3    H119178   2.595   1.403   5.486
 6414TIP3    H219179   2.662   1.514   5.559
 6415TIP3   OH219180   3.222   1.547   5.706
 6415TIP3    H119181   3.291   1.517   5.769
 6415TIP3    H219182   3.139   1.525   5.753
 6416TIP3   OH219183   3.461   1.970   5.623
 6416TIP3    H119184   3.412   1.973   5.708
 6416TIP3    H219185   3.445   2.060   5.587
 6417TIP3   OH219186   3.116   2.121   4.184
 6417TIP3    H119187   3.094   2.039   4.135
 6417TIP3    H219188   3.193   2.155   4.135
 6418TIP3   OH219189   2.826   1.482   4.481
 6418TIP3    H119190   2.798   1.479   4.574
 6418TIP3    H219191   2.791   1.396   4.449
 6419TIP3   OH219192   2.615   1.948   5.530
 6419TIP3    H119193   2.568   1.971   5.612
 6419TIP3    H219194   2.601   2.029   5.476
 6420TIP3   OH219195   2.502   1.834   5.044
 6420TIP3    H119196   2.409   1.808   5.062
 6420TIP3    H219197   2.515   1.793   4.956
 6421TIP3   OH219198   2.993   1.920   4.771
 6421TIP3    H119199   2.940   1.990   4.728
 6421TIP3    H219200   3.046   1.887   4.696
 6422TIP3   OH219201   3.166   2.200   5.860
 6422TIP3    H119202   3.145   2.126   5.921
 6422TIP3    H219203   3.261   2.211   5.877
 6423TIP3   OH219204   3.151   1.949   5.009
 6423TIP3    H119205   3.090   1.975   4.937
 6423TIP3    H219206   3.187   1.867   4.969
 6424TIP3   OH219207   2.434   1.977   5.740
 6424TIP3    H119208   2.467   2.040   5.806
 6424TIP3    H219209   2.428   1.894   5.792
 6425TIP3   OH219210   2.482   1.451   4.448
 6425TIP3    H119211   2.479   1.451   4.546
 6425TIP3    H219212   2.407   1.509   4.427
 6426TIP3   OH219213   2.030   1.500   5.309
 6426TIP3    H119214   2.097   1.534   5.373
 6426TIP3    H219215   2.085   1.463   5.239
 6427TIP3   OH219216   2.000   1.480   4.838
 6427TIP3    H119217   2.048   1.514   4.759
 6427TIP3    H219218   1.949   1.560   4.859
 6428TIP3   OH219219   3.147   2.195   5.430
 6428TIP3    H119220   3.186   2.124   5.373
 6428TIP3    H219221   3.128   2.144   5.510
 6429TIP3   OH219222   2.827   1.659   5.105
 6429TIP3    H119223   2.747   1.656   5.162
 6429TIP3    H219224   2.899   1.652   5.170
 6430TIP3   OH219225   2.263   1.712   5.114
 6430TIP3    H119226   2.169   1.717   5.085
 6430TIP3    H219227   2.290   1.621   5.091
 6431TIP3   OH219228   2.532   1.706   4.802
 6431TIP3    H119229   2.627   1.722   4.784
 6431TIP3    H219230   2.488   1.731   4.717
 6432TIP3   OH219231   3.312   1.730   5.306
 6432TIP3    H119232   3.280   1.745   5.398
 6432TIP3    H219233   3.245   1.669   5.272
 6433TIP3   OH219234   2.373   1.741   4.579
 6433TIP3    H119235   2.302   1.698   4.527
 6433TIP3    H219236   2.427   1.779   4.507
 6434TIP3   OH219237   3.491   3.420   5.526
 6434TIP3    H119238   3.488   3.445   5.432
 6434TIP3    H219239   3.570   3.469   5.557
 6435TIP3   OH219240   2.448   2.531   5.948
 6435TIP3    H119241   2.528   2.561   5.996
 6435TIP3    H219242   2.384   2.529   6.022
 6436TIP3   OH219243   2.911   1.984   5.203
 6436TIP3    H119244   2.985   1.945   5.155
 6436TIP3    H219245   2.920   1.944   5.291
 6437TIP3   OH219246   2.432   1.473   5.079
 6437TIP3    H119247   2.401   1.393   5.127
 6437TIP3    H219248   2.492   1.436   5.014
 6438TIP3   OH219249   2.889   1.881   5.492
 6438TIP3    H119250   2.800   1.919   5.508
 6438TIP3    H219251   2.948   1.940   5.543
 6439TIP3   OH219252   2.625   2.272   4.587
 6439TIP3    H119253   2.552   2.207   4.576
 6439TIP3    H219254   2.607   2.305   4.679
 6440TIP3   OH219255   3.519   2.511   5.225
 6440TIP3    H119256   3.526   2.538   5.134
 6440TIP3    H219257   3.438   2.455   5.221
 6441TIP3   OH219258   3.084   1.577   4.455
 6441TIP3    H119259   2.986   1.564   4.455
 6441TIP3    H219260   3.093   1.674   4.464
 6442TIP3   OH219261   3.024   2.591   5.584
 6442TIP3    H119262   3.049   2.567   5.674
 6442TIP3    H219263   2.986   2.680   5.594
 6443TIP3   OH219264   3.151   1.832   4.553
 6443TIP3    H119265   3.247   1.839   4.569
 6443TIP3    H219266   3.132   1.909   4.497
 6444TIP3   OH219267   2.314   2.290   5.264
 6444TIP3    H119268   2.356   2.264   5.179
 6444TIP3    H219269   2.361   2.233   5.327
 6445TIP3   OH219270   2.770   2.421   4.408
 6445TIP3    H119271   2.723   2.507   4.414
 6445TIP3    H219272   2.716   2.366   4.469
 6446TIP3   OH219273   2.197   2.214   5.877
 6446TIP3    H119274   2.220   2.203   5.972
 6446TIP3    H219275   2.129   2.146   5.865
 6447TIP3   OH219276   2.923   2.328   5.896
 6447TIP3    H119277   2.866   2.269   5.846
 6447TIP3    H219278   3.012   2.294   5.870
 6448TIP3   OH219279   3.186   2.848   5.481
 6448TIP3    H119280   3.089   2.848   5.493
 6448TIP3    H219281   3.214   2.901   5.559
 6449TIP3   OH219282   3.615   1.900   4.370
 6449TIP3    H119283   3.542   1.866   4.314
 6449TIP3    H219284   3.608   1.994   4.343
 6450TIP3   OH219285   3.815   2.780   5.470
 6450TIP3    H119286   3.717   2.774   5.467
 6450TIP3    H219287   3.837   2.748   5.380
 6451TIP3   OH219288   3.296   2.737   4.299
 6451TIP3    H119289   3.269   2.660   4.350
 6451TIP3    H219290   3.310   2.699   4.210
 6452TIP3   OH219291   3.301   2.364   5.144
 6452TIP3    H119292   3.205   2.348   5.147
 6452TIP3    H219293   3.332   2.282   5.100
 6453TIP3   OH219294   2.418   2.597   4.886
 6453TIP3    H119295   2.418   2.679   4.833
 6453TIP3    H219296   2.324   2.583   4.899
 6454TIP3   OH219297   1.980   1.902   4.590
 6454TIP3    H119298   2.028   1.986   4.610
 6454TIP3    H219299   1.905   1.908   4.652
 6455TIP3   OH219300   2.558   2.363   4.833
 6455TIP3    H119301   2.522   2.452   4.850
 6455TIP3    H219302   2.523   2.313   4.908
 6456TIP3   OH219303   2.687   2.941   5.357
 6456TIP3    H119304   2.728   3.015   5.307
 6456TIP3    H219305   2.764   2.908   5.406
 6457TIP3   OH219306   2.339   2.836   4.741
 6457TIP3    H119307   2.253   2.846   4.786
 6457TIP3    H219308   2.373   2.929   4.744
 6458TIP3   OH219309   3.076   2.575   5.317
 6458TIP3    H119310   3.062   2.575   5.414
 6458TIP3    H219311   3.156   2.522   5.309
 6459TIP3   OH219312   3.050   2.471   4.200
 6459TIP3    H119313   3.103   2.442   4.277
 6459TIP3    H219314   2.963   2.439   4.225
 6460TIP3   OH219315   3.326   3.108   5.364
 6460TIP3    H119316   3.245   3.053   5.357
 6460TIP3    H219317   3.310   3.174   5.293
 6461TIP3   OH219318   3.389   2.942   4.020
 6461TIP3    H119319   3.425   3.010   3.961
 6461TIP3    H219320   3.310   2.990   4.053
 6462TIP3   OH219321   2.413   1.718   5.886
 6462TIP3    H119322   2.318   1.723   5.907
 6462TIP3    H219323   2.446   1.662   5.958
 6463TIP3   OH219324   3.211   2.409   4.420
 6463TIP3    H119325   3.200   2.337   4.485
 6463TIP3    H219326   3.307   2.400   4.401
 6464TIP3   OH219327   2.125   2.803   5.518
 6464TIP3    H119328   2.179   2.729   5.550
 6464TIP3    H219329   2.156   2.874   5.575
 6465TIP3   OH219330   2.416   2.448   4.198
 6465TIP3    H119331   2.433   2.356   4.171
 6465TIP3    H219332   2.398   2.438   4.294
 6466TIP3   OH219333   2.362   2.453   4.471
 6466TIP3    H119334   2.434   2.428   4.530
 6466TIP3    H219335   2.365   2.551   4.478
 6467TIP3   OH219336   2.096   2.146   4.673
 6467TIP3    H119337   2.032   2.192   4.731
 6467TIP3    H219338   2.112   2.216   4.607
 6468TIP3   OH219339   3.246   1.785   5.567
 6468TIP3    H119340   3.327   1.823   5.602
 6468TIP3    H219341   3.235   1.704   5.621
 6469TIP3   OH219342   3.128   1.534   4.732
 6469TIP3    H119343   3.112   1.557   4.638
 6469TIP3    H219344   3.166   1.617   4.768
 6470TIP3   OH219345   2.627   2.651   4.420
 6470TIP3    H119346   2.540   2.678   4.455
 6470TIP3    H219347   2.645   2.725   4.360
 6471TIP3   OH219348   2.814   1.716   4.834
 6471TIP3    H119349   2.880   1.786   4.816
 6471TIP3    H219350   2.821   1.706   4.931
 6472TIP3   OH219351   3.086   2.034   5.642
 6472TIP3    H119352   3.108   2.086   5.721
 6472TIP3    H219353   3.142   1.956   5.652
 6473TIP3   OH219354   2.960   1.441   4.935
 6473TIP3    H119355   2.962   1.513   5.000
 6473TIP3    H219356   3.021   1.477   4.866
 6474TIP3   OH219357   2.370   2.726   4.487
 6474TIP3    H119358   2.341   2.796   4.424
 6474TIP3    H219359   2.355   2.770   4.573
 6475TIP3   OH219360   2.471   1.440   4.725
 6475TIP3    H119361   2.471   1.531   4.762
 6475TIP3    H219362   2.567   1.420   4.734
 6476TIP3   OH219363   3.731   1.940   5.604
 6476TIP3    H119364   3.635   1.929   5.618
 6476TIP3    H219365   3.736   1.927   5.509
 6477TIP3   OH219366   3.392   2.121   5.020
 6477TIP3    H119367   3.315   2.064   5.031
 6477TIP3    H219368   3.459   2.077   5.076
 6478TIP3   OH219369   2.088   2.357   4.480
 6478TIP3    H119370   2.152   2.429   4.490
 6478TIP3    H219371   2.136   2.303   4.413
 6479TIP3   OH219372   2.030   1.633   4.615
 6479TIP3    H119373   2.036   1.730   4.610
 6479TIP3    H219374   1.953   1.615   4.561
 6480TIP3   OH219375   3.347   3.076   4.956
 6480TIP3    H119376   3.302   3.125   4.883
 6480TIP3    H219377   3.440   3.104   4.938
 6481TIP3   OH219378   2.417   1.353   5.488
 6481TIP3    H119379   2.390   1.317   5.401
 6481TIP3    H219380   2.411   1.274   5.546
 6482TIP3   OH219381   1.959   2.566   4.867
 6482TIP3    H119382   1.889   2.600   4.924
 6482TIP3    H219383   1.936   2.608   4.782
 6483TIP3   OH219384   2.116   3.111   5.941
 6483TIP3    H119385   2.203   3.110   5.986
 6483TIP3    H219386   2.096   3.016   5.937
 6484TIP3   OH219387   2.598   3.077   5.984
 6484TIP3    H119388   2.693   3.058   5.991
 6484TIP3    H219389   2.573   3.019   5.910
 6485TIP3   OH219390   2.579   2.652   4.110
 6485TIP3    H119391   2.523   2.581   4.149
 6485TIP3    H219392   2.656   2.600   4.080
 6486TIP3   OH219393   3.238   2.983   5.717
 6486TIP3    H119394   3.228   2.913   5.785
 6486TIP3    H219395   3.316   3.033   5.748
 6487TIP3   OH219396   3.015   2.694   4.022
 6487TIP3    H119397   3.061   2.631   4.080
 6487TIP3    H219398   3.071   2.695   3.942
 6488TIP3   OH219399   2.247   2.519   6.139
 6488TIP3    H119400   2.264   2.423   6.146
 6488TIP3    H219401   2.160   2.521   6.095
 6489TIP3   OH219402   2.224   2.169   4.333
 6489TIP3    H119403   2.280   2.138   4.405
 6489TIP3    H219404   2.291   2.174   4.261
 6490TIP3   OH219405   2.854   2.603   5.913
 6490TIP3    H119406   2.814   2.619   5.825
 6490TIP3    H219407   2.886   2.511   5.905
 6491TIP3   OH219408   2.733   2.367   4.139
 6491TIP3    H119409   2.737   2.380   4.236
 6491TIP3    H219410   2.736   2.269   4.135
 6492TIP3   OH219411   3.346   2.610   5.516
 6492TIP3    H119412   3.422   2.658   5.478
 6492TIP3    H219413   3.275   2.676   5.505
 6493TIP3   OH219414   2.364   2.252   6.120
 6493TIP3    H119415   2.438   2.192   6.101
 6493TIP3    H219416   2.390   2.284   6.209
 6494TIP3   OH219417   2.431   2.073   4.554
 6494TIP3    H119418   2.407   2.032   4.638
 6494TIP3    H219419   2.469   1.998   4.504
 6495TIP3   OH219420   2.699   2.135   5.780
 6495TIP3    H119421   2.624   2.198   5.782
 6495TIP3    H219422   2.752   2.171   5.704
 6496TIP3   OH219423   2.533   1.866   4.396
 6496TIP3    H119424   2.508   1.871   4.302
 6496TIP3    H219425   2.631   1.868   4.389
 6497TIP3   OH219426   3.220   2.540   5.916
 6497TIP3    H119427   3.299   2.514   5.868
 6497TIP3    H219428   3.216   2.472   5.986
 6498TIP3   OH219429   3.355   2.192   4.054
 6498TIP3    H119430   3.324   2.148   3.972
 6498TIP3    H219431   3.324   2.284   4.034
 6499TIP3   OH219432   2.823   1.925   5.910
 6499TIP3    H119433   2.826   1.845   5.854
 6499TIP3    H219434   2.780   1.990   5.850
 6500TIP3   OH219435   2.826   1.714   5.717
 6500TIP3    H119436   2.855   1.753   5.632
 6500TIP3    H219437   2.733   1.690   5.697
 6501TIP3   OH219438   2.854   2.246   5.590
 6501TIP3    H119439   2.938   2.251   5.543
 6501TIP3    H219440   2.800   2.314   5.543
 6502TIP3   OH219441   3.438   2.215   5.972
 6502TIP3    H119442   3.483   2.130   5.977
 6502TIP3    H219443   3.506   2.271   5.932
 6503TIP3   OH219444   3.476   2.475   5.711
 6503TIP3    H119445   3.419   2.524   5.648
 6503TIP3    H219446   3.564   2.490   5.670
 6504TIP3   OH219447   2.701   2.038   6.139
 6504TIP3    H119448   2.633   1.971   6.154
 6504TIP3    H219449   2.737   2.011   6.052
 6505TIP3   OH219450   2.960   1.476   5.780
 6505TIP3    H119451   2.909   1.557   5.760
 6505TIP3    H219452   2.892   1.406   5.771
 6506TIP3   OH219453   3.084   1.981   6.000
 6506TIP3    H119454   3.074   1.967   6.096
 6506TIP3    H219455   2.995   1.955   5.970
 6507TIP3   OH219456   3.326   1.934   5.856
 6507TIP3    H119457   3.250   1.931   5.917
 6507TIP3    H219458   3.399   1.899   5.910
 6508TIP3   OH219459   3.557   1.871   6.005
 6508TIP3    H119460   3.567   1.775   6.022
 6508TIP3    H219461   3.551   1.908   6.096
 6509TIP3   OH219462   2.540   1.818   6.192
 6509TIP3    H119463   2.550   1.727   6.159
 6509TIP3    H219464   2.577   1.808   6.282
 6510TIP3   OH219465   3.042   1.491   6.044
 6510TIP3    H119466   3.117   1.427   6.042
 6510TIP3    H219467   3.010   1.480   5.952
 6511TIP3   OH219468   3.121   1.702   6.199
 6511TIP3    H119469   3.098   1.629   6.136
 6511TIP3    H219470   3.042   1.759   6.192
 6512TIP3   OH219471   2.339   2.925   4.297
 6512TIP3    H119472   2.435   2.924   4.281
 6512TIP3    H219473   2.311   2.979   4.221
 6513TIP3   OH219474   1.820   2.311   4.515
 6513TIP3    H119475   1.915   2.334   4.503
 6513TIP3    H219476   1.816   2.222   4.475
 6514TIP3   OH219477   1.734   2.922   4.930
 6514TIP3    H119478   1.667   2.860   4.893
 6514TIP3    H219479   1.779   2.865   4.995
 6515TIP3   OH219480   1.872   2.773   5.115
 6515TIP3    H119481   1.861   2.701   5.179
 6515TIP3    H219482   1.923   2.836   5.170
 6516TIP3   OH219483   3.598   3.171   4.917
 6516TIP3    H119484   3.624   3.212   5.002
 6516TIP3    H219485   3.658   3.215   4.855
 6517TIP3   OH219486   3.625   3.196   5.200
 6517TIP3    H119487   3.586   3.107   5.196
 6517TIP3    H219488   3.705   3.177   5.251
 6518TIP3   OH219489   3.673   2.872   5.770
 6518TIP3    H119490   3.600   2.880   5.835
 6518TIP3    H219491   3.715   2.960   5.776
 6519TIP3   OH219492   3.489   2.385   4.391
 6519TIP3    H119493   3.557   2.448   4.359
 6519TIP3    H219494   3.535   2.346   4.469
 6520TIP3   OH219495   3.614   2.254   4.598
 6520TIP3    H119496   3.554   2.207   4.660
 6520TIP3    H219497   3.688   2.281   4.656
 6521TIP3   OH219498   3.502   2.942   5.224
 6521TIP3    H119499   3.435   2.991   5.277
 6521TIP3    H219500   3.446   2.901   5.154
 6522TIP3   OH219501   3.556   2.157   4.240
 6522TIP3    H119502   3.485   2.158   4.172
 6522TIP3    H219503   3.527   2.233   4.295
 6523TIP3   OH219504   3.433   1.830   4.190
 6523TIP3    H119505   3.363   1.878   4.144
 6523TIP3    H219506   3.399   1.738   4.186
 6524TIP3   OH219507   3.435   2.103   4.746
 6524TIP3    H119508   3.438   2.007   4.738
 6524TIP3    H219509   3.427   2.114   4.844
 6525TIP3   OH219510   2.058   2.180   5.488
 6525TIP3    H119511   2.058   2.151   5.394
 6525TIP3    H219512   2.156   2.183   5.505
 6526TIP3   OH219513   3.720   2.534   5.599
 6526TIP3    H119514   3.790   2.465   5.590
 6526TIP3    H219515   3.749   2.601   5.536
 6527TIP3   OH219516   3.907   2.341   5.619
 6527TIP3    H119517   3.830   2.288   5.650
 6527TIP3    H219518   3.978   2.275   5.631
 6528TIP3   OH219519   3.369   1.563   4.194
 6528TIP3    H119520   3.410   1.492   4.244
 6528TIP3    H219521   3.277   1.530   4.186
 6529TIP3   OH219522   3.427   1.825   4.639
 6529TIP3    H119523   3.462   1.735   4.658
 6529TIP3    H219524   3.486   1.850   4.567
 6530TIP3   OH219525   2.273   1.865   6.146
 6530TIP3    H119526   2.371   1.863   6.156
 6530TIP3    H219527   2.249   1.789   6.203
 6531TIP3   OH219528   4.115   1.737   5.918
 6531TIP3    H119529   4.169   1.669   5.874
 6531TIP3    H219530   4.081   1.790   5.842
 6532TIP3   OH219531   3.526   1.575   4.673
 6532TIP3    H119532   3.583   1.562   4.751
 6532TIP3    H219533   3.470   1.495   4.677
 6533TIP3   OH219534   2.232   1.561   5.491
 6533TIP3    H119535   2.294   1.486   5.503
 6533TIP3    H219536   2.294   1.635   5.486
 6534TIP3   OH219537   2.038   1.834   5.565
 6534TIP3    H119538   2.091   1.832   5.482
 6534TIP3    H219539   2.064   1.920   5.601
 6535TIP3   OH219540   3.981   1.875   5.724
 6535TIP3    H119541   3.897   1.920   5.742
 6535TIP3    H219542   3.949   1.805   5.664
 6536TIP3   OH219543   2.044   1.334   5.059
 6536TIP3    H119544   1.953   1.328   5.090
 6536TIP3    H219545   2.037   1.395   4.983
 6537TIP3   OH219546   3.186   3.038   4.575
 6537TIP3    H119547   3.235   3.030   4.490
 6537TIP3    H219548   3.231   3.113   4.617
 6538TIP3   OH219549   2.242   1.416   5.881
 6538TIP3    H119550   2.193   1.415   5.965
 6538TIP3    H219551   2.175   1.455   5.821
 6539TIP3   OH219552   2.283   2.847   5.959
 6539TIP3    H119553   2.191   2.818   5.941
 6539TIP3    H219554   2.293   2.825   6.052
 6540TIP3   OH219555   2.460   2.877   5.506
 6540TIP3    H119556   2.413   2.953   5.466
 6540TIP3    H219557   2.547   2.890   5.462
 6541TIP3   OH219558   2.906   3.122   5.645
 6541TIP3    H119559   2.949   3.123   5.733
 6541TIP3    H219560   2.972   3.173   5.592
 6542TIP3   OH219561   3.086   3.273   5.503
 6542TIP3    H119562   3.158   3.223   5.462
 6542TIP3    H219563   3.136   3.331   5.564
 6543TIP3   OH219564   3.882   1.636   5.601
 6543TIP3    H119565   3.790   1.635   5.570
 6543TIP3    H219566   3.906   1.541   5.591
 6544TIP3   OH219567   2.136   3.133   5.530
 6544TIP3    H119568   2.048   3.169   5.505
 6544TIP3    H219569   2.146   3.171   5.618
 6545TIP3   OH219570   2.373   3.111   5.387
 6545TIP3    H119571   2.287   3.126   5.431
 6545TIP3    H219572   2.355   3.146   5.298
 6546TIP3   OH219573   2.800   3.142   5.184
 6546TIP3    H119574   2.730   3.162   5.119
 6546TIP3    H219575   2.812   3.231   5.225
 6547TIP3   OH219576   3.068   3.079   5.232
 6547TIP3    H119577   2.974   3.099   5.217
 6547TIP3    H219578   3.111   3.158   5.195
 6548TIP3   OH219579   3.275   3.273   5.151
 6548TIP3    H119580   3.259   3.359   5.107
 6548TIP3    H219581   3.301   3.217   5.076
 6549TIP3   OH219582   2.048   2.928   5.275
 6549TIP3    H119583   2.075   2.903   5.365
 6549TIP3    H219584   2.120   2.885   5.224
 6550TIP3   OH219585   2.242   2.799   5.131
 6550TIP3    H119586   2.259   2.716   5.181
 6550TIP3    H219587   2.333   2.837   5.127
 6551TIP3   OH219588   2.507   2.893   5.135
 6551TIP3    H119589   2.540   2.802   5.125
 6551TIP3    H219590   2.551   2.918   5.218
 6552TIP3   OH219591   3.078   1.547   5.213
 6552TIP3    H119592   3.039   1.479   5.271
 6552TIP3    H219593   3.157   1.502   5.178
 6553TIP3   OH219594   3.607   1.421   5.120
 6553TIP3    H119595   3.642   1.483   5.052
 6553TIP3    H219596   3.514   1.450   5.126
 6554TIP3   OH219597   3.701   1.537   4.886
 6554TIP3    H119598   3.777   1.487   4.851
 6554TIP3    H219599   3.732   1.629   4.873
 6555TIP3   OH219600   2.333   1.259   5.238
 6555TIP3    H119601   2.242   1.225   5.241
 6555TIP3    H219602   2.384   1.175   5.236
 6556TIP3   OH219603   2.111   1.129   4.880
 6556TIP3    H119604   2.150   1.185   4.810
 6556TIP3    H219605   2.097   1.194   4.951
 6557TIP3   OH219606   2.774   1.295   5.121
 6557TIP3    H119607   2.833   1.343   5.061
 6557TIP3    H219608   2.804   1.328   5.207
 6558TIP3   OH219609   3.321   1.439   5.104
 6558TIP3    H119610   3.324   1.401   5.016
 6558TIP3    H219611   3.308   1.359   5.160
 6559TIP3   OH219612   3.353   1.356   4.664
 6559TIP3    H119613   3.268   1.402   4.675
 6559TIP3    H219614   3.336   1.273   4.714
 6560TIP3   OH219615   1.837   2.700   4.667
 6560TIP3    H119616   1.752   2.668   4.632
 6560TIP3    H219617   1.827   2.795   4.650
 6561TIP3   OH219618   2.237   1.290   4.650
 6561TIP3    H119619   2.286   1.227   4.594
 6561TIP3    H219620   2.311   1.344   4.685
 6562TIP3   OH219621   2.749   1.464   4.748
 6562TIP3    H119622   2.810   1.418   4.809
 6562TIP3    H219623   2.770   1.557   4.773
 6563TIP3   OH219624   2.608   2.889   4.248
 6563TIP3    H119625   2.696   2.912   4.212
 6563TIP3    H219626   2.586   2.814   4.188
 6564TIP3   OH219627   3.326   3.006   4.340
 6564TIP3    H119628   3.318   2.908   4.326
 6564TIP3    H219629   3.282   3.040   4.260
 6565TIP3   OH219630   2.542   1.540   6.127
 6565TIP3    H119631   2.508   1.471   6.186
 6565TIP3    H219632   2.637   1.541   6.154
 6566TIP3   OH219633   2.791   1.537   6.246
 6566TIP3    H119634   2.875   1.513   6.204
 6566TIP3    H219635   2.782   1.466   6.313
 6567TIP3   OH219636   1.911   2.724   4.304
 6567TIP3    H119637   1.913   2.754   4.396
 6567TIP3    H219638   2.001   2.685   4.293
 6568TIP3   OH219639   3.614   1.599   6.036
 6568TIP3    H119640   3.632   1.567   6.127
 6568TIP3    H219641   3.702   1.591   5.994
 6569TIP3   OH219642   3.554   3.152   5.528
 6569TIP3    H119643   3.475   3.121   5.479
 6569TIP3    H219644   3.536   3.248   5.532
 6570TIP3   OH219645   4.820   2.522   4.293
 6570TIP3    H119646   4.796   2.616   4.277
 6570TIP3    H219647   4.740   2.478   4.261
 6571TIP3   OH219648   4.833   2.502   4.658
 6571TIP3    H119649   4.836   2.498   4.754
 6571TIP3    H219650   4.766   2.436   4.636
 6572TIP3   OH219651   4.109   2.425   5.040
 6572TIP3    H119652   4.140   2.355   5.099
 6572TIP3    H219653   4.185   2.485   5.039
 6573TIP3   OH219654   5.061   2.821   4.354
 6573TIP3    H119655   5.052   2.756   4.425
 6573TIP3    H219656   5.060   2.904   4.405
 6574TIP3   OH219657   4.088   2.823   4.771
 6574TIP3    H119658   4.082   2.725   4.771
 6574TIP3    H219659   4.184   2.833   4.752
 6575TIP3   OH219660   3.800   2.025   4.538
 6575TIP3    H119661   3.768   2.114   4.560
 6575TIP3    H219662   3.716   1.976   4.539
 6576TIP3   OH219663   3.851   2.319   4.715
 6576TIP3    H119664   3.901   2.247   4.759
 6576TIP3    H219665   3.921   2.360   4.662
 6577TIP3   OH219666   4.628   2.717   4.750
 6577TIP3    H119667   4.647   2.687   4.661
 6577TIP3    H219668   4.703   2.778   4.766
 6578TIP3   OH219669   5.641   2.084   4.719
 6578TIP3    H119670   5.603   2.172   4.706
 6578TIP3    H219671   5.672   2.067   4.628
 6579TIP3   OH219672   5.035   2.251   4.760
 6579TIP3    H119673   5.072   2.162   4.773
 6579TIP3    H219674   4.998   2.243   4.670
 6580TIP3   OH219675   4.366   1.909   4.721
 6580TIP3    H119676   4.347   1.982   4.659
 6580TIP3    H219677   4.314   1.837   4.679
 6581TIP3   OH219678   5.062   2.003   4.345
 6581TIP3    H119679   5.136   1.986   4.407
 6581TIP3    H219680   5.111   2.038   4.268
 6582TIP3   OH219681   4.008   2.129   4.820
 6582TIP3    H119682   4.072   2.105   4.889
 6582TIP3    H219683   4.024   2.060   4.754
 6583TIP3   OH219684   4.443   2.310   4.620
 6583TIP3    H119685   4.537   2.284   4.635
 6583TIP3    H219686   4.404   2.226   4.588
 6584TIP3   OH219687   4.366   1.893   5.156
 6584TIP3    H119688   4.306   1.931   5.089
 6584TIP3    H219689   4.313   1.909   5.238
 6585TIP3   OH219690   4.726   2.751   4.156
 6585TIP3    H119691   4.670   2.730   4.079
 6585TIP3    H219692   4.682   2.835   4.185
 6586TIP3   OH219693   4.470   2.665   4.960
 6586TIP3    H119694   4.407   2.736   4.986
 6586TIP3    H219695   4.509   2.702   4.877
 6587TIP3   OH219696   5.276   2.001   4.514
 6587TIP3    H119697   5.257   1.953   4.596
 6587TIP3    H219698   5.324   2.080   4.545
 6588TIP3   OH219699   4.237   2.012   4.945
 6588TIP3    H119700   4.300   2.085   4.962
 6588TIP3    H219701   4.280   1.969   4.868
 6589TIP3   OH219702   4.299   2.862   5.049
 6589TIP3    H119703   4.276   2.944   5.003
 6589TIP3    H219704   4.219   2.851   5.104
 6590TIP3   OH219705   3.692   2.553   4.286
 6590TIP3    H119706   3.654   2.578   4.200
 6590TIP3    H219707   3.721   2.639   4.321
 6591TIP3   OH219708   5.421   1.982   4.892
 6591TIP3    H119709   5.329   1.997   4.863
 6591TIP3    H219710   5.471   2.001   4.811
 6592TIP3   OH219711   4.722   1.612   4.870
 6592TIP3    H119712   4.707   1.517   4.888
 6592TIP3    H219713   4.644   1.651   4.916
 6593TIP3   OH219714   4.843   3.121   4.191
 6593TIP3    H119715   4.894   3.040   4.173
 6593TIP3    H219716   4.901   3.190   4.155
 6594TIP3   OH219717   4.988   2.892   4.097
 6594TIP3    H119718   4.914   2.831   4.083
 6594TIP3    H219719   5.021   2.861   4.184
 6595TIP3   OH219720   4.649   2.373   4.125
 6595TIP3    H119721   4.570   2.427   4.106
 6595TIP3    H219722   4.695   2.375   4.039
 6596TIP3   OH219723   4.610   2.157   3.844
 6596TIP3    H119724   4.676   2.211   3.892
 6596TIP3    H219725   4.669   2.096   3.795
 6597TIP3   OH219726   5.556   2.624   4.727
 6597TIP3    H119727   5.492   2.699   4.739
 6597TIP3    H219728   5.580   2.637   4.632
 6598TIP3   OH219729   4.998   2.457   4.098
 6598TIP3    H119730   4.942   2.483   4.175
 6598TIP3    H219731   5.082   2.435   4.144
 6599TIP3   OH219732   5.236   2.499   5.003
 6599TIP3    H119733   5.231   2.586   5.047
 6599TIP3    H219734   5.149   2.500   4.957
 6600TIP3   OH219735   4.227   2.452   4.517
 6600TIP3    H119736   4.191   2.397   4.445
 6600TIP3    H219737   4.308   2.403   4.543
 6601TIP3   OH219738   4.343   2.831   4.673
 6601TIP3    H119739   4.330   2.834   4.577
 6601TIP3    H219740   4.430   2.876   4.676
 6602TIP3   OH219741   4.373   2.425   4.869
 6602TIP3    H119742   4.400   2.409   4.776
 6602TIP3    H219743   4.407   2.515   4.885
 6603TIP3   OH219744   4.926   3.055   4.682
 6603TIP3    H119745   4.886   3.141   4.664
 6603TIP3    H219746   4.851   2.996   4.676
 6604TIP3   OH219747   4.497   2.969   5.208
 6604TIP3    H119748   4.438   3.040   5.242
 6604TIP3    H219749   4.434   2.924   5.147
 6605TIP3   OH219750   4.841   2.314   3.923
 6605TIP3    H119751   4.898   2.376   3.974
 6605TIP3    H219752   4.866   2.338   3.830
 6606TIP3   OH219753   4.263   2.537   5.296
 6606TIP3    H119754   4.267   2.626   5.336
 6606TIP3    H219755   4.168   2.517   5.311
 6607TIP3   OH219756   4.586   2.986   4.188
 6607TIP3    H119757   4.633   3.025   4.264
 6607TIP3    H219758   4.518   3.053   4.174
 6608TIP3   OH219759   4.301   3.151   5.278
 6608TIP3    H119760   4.268   3.155   5.186
 6608TIP3    H219761   4.220   3.129   5.329
 6609TIP3   OH219762   5.356   1.557   3.974
 6609TIP3    H119763   5.273   1.577   4.021
 6609TIP3    H219764   5.369   1.639   3.922
 6610TIP3   OH219765   4.100   2.296   4.314
 6610TIP3    H119766   4.035   2.346   4.259
 6610TIP3    H219767   4.050   2.215   4.332
 6611TIP3   OH219768   5.150   2.927   3.519
 6611TIP3    H119769   5.158   3.023   3.501
 6611TIP3    H219770   5.243   2.897   3.508
 6612TIP3   OH219771   3.882   2.673   5.226
 6612TIP3    H119772   3.851   2.634   5.143
 6612TIP3    H219773   3.922   2.594   5.268
 6613TIP3   OH219774   3.723   2.852   4.855
 6613TIP3    H119775   3.820   2.854   4.844
 6613TIP3    H219776   3.711   2.934   4.906
 6614TIP3   OH219777   5.597   3.327   4.914
 6614TIP3    H119778   5.590   3.230   4.925
 6614TIP3    H219779   5.514   3.355   4.960
 6615TIP3   OH219780   4.693   3.116   5.045
 6615TIP3    H119781   4.694   3.209   5.076
 6615TIP3    H219782   4.627   3.077   5.105
 6616TIP3   OH219783   4.462   3.246   3.995
 6616TIP3    H119784   4.413   3.228   3.912
 6616TIP3    H219785   4.426   3.333   4.022
 6617TIP3   OH219786   3.899   3.091   4.385
 6617TIP3    H119787   3.953   3.083   4.467
 6617TIP3    H219788   3.835   3.020   4.399
 6618TIP3   OH219789   4.665   3.145   3.644
 6618TIP3    H119790   4.723   3.075   3.607
 6618TIP3    H219791   4.697   3.151   3.736
 6619TIP3   OH219792   4.715   3.186   3.918
 6619TIP3    H119793   4.624   3.197   3.953
 6619TIP3    H219794   4.759   3.151   3.998
 6620TIP3   OH219795   5.518   2.470   5.148
 6620TIP3    H119796   5.429   2.506   5.137
 6620TIP3    H219797   5.500   2.386   5.194
 6621TIP3   OH219798   4.083   2.863   5.215
 6621TIP3    H119799   4.133   2.849   5.297
 6621TIP3    H219800   4.009   2.800   5.225
 6622TIP3   OH219801   4.485   1.691   4.997
 6622TIP3    H119802   4.397   1.657   4.971
 6622TIP3    H219803   4.457   1.772   5.045
 6623TIP3   OH219804   5.014   1.806   5.193
 6623TIP3    H119805   5.081   1.777   5.258
 6623TIP3    H219806   4.930   1.785   5.238
 6624TIP3   OH219807   5.280   2.247   5.127
 6624TIP3    H119808   5.217   2.231   5.202
 6624TIP3    H219809   5.237   2.321   5.081
 6625TIP3   OH219810   4.916   2.361   3.668
 6625TIP3    H119811   4.882   2.336   3.580
 6625TIP3    H219812   4.992   2.416   3.643
 6626TIP3   OH219813   4.627   1.737   3.970
 6626TIP3    H119814   4.593   1.733   4.061
 6626TIP3    H219815   4.589   1.654   3.935
 6627TIP3   OH219816   4.422   2.209   5.022
 6627TIP3    H119817   4.361   2.224   5.097
 6627TIP3    H219818   4.400   2.286   4.964
 6628TIP3   OH219819   4.303   2.089   4.530
 6628TIP3    H119820   4.208   2.069   4.548
 6628TIP3    H219821   4.312   2.050   4.440
 6629TIP3   OH219822   4.787   2.174   4.258
 6629TIP3    H119823   4.736   2.247   4.217
 6629TIP3    H219824   4.842   2.146   4.183
 6630TIP3   OH219825   4.960   2.452   5.343
 6630TIP3    H119826   4.942   2.379   5.407
 6630TIP3    H219827   5.053   2.472   5.365
 6631TIP3   OH219828   4.944   2.205   4.501
 6631TIP3    H119829   4.885   2.241   4.432
 6631TIP3    H219830   4.975   2.125   4.454
 6632TIP3   OH219831   4.242   2.236   5.226
 6632TIP3    H119832   4.237   2.302   5.296
 6632TIP3    H219833   4.225   2.153   5.275
 6633TIP3   OH219834   4.283   1.711   3.935
 6633TIP3    H119835   4.274   1.711   4.032
 6633TIP3    H219836   4.205   1.763   3.909
 6634TIP3   OH219837   3.838   1.755   4.780
 6634TIP3    H119838   3.873   1.801   4.859
 6634TIP3    H219839   3.918   1.709   4.753
 6635TIP3   OH219840   4.966   2.448   4.931
 6635TIP3    H119841   4.993   2.382   4.863
 6635TIP3    H219842   4.930   2.390   5.001
 6636TIP3   OH219843   4.626   1.909   4.593
 6636TIP3    H119844   4.542   1.910   4.643
 6636TIP3    H219845   4.691   1.916   4.665
 6637TIP3   OH219846   4.063   1.971   4.596
 6637TIP3    H119847   3.966   1.975   4.579
 6637TIP3    H219848   4.086   1.877   4.586
 6638TIP3   OH219849   4.329   1.962   4.286
 6638TIP3    H119850   4.423   1.979   4.268
 6638TIP3    H219851   4.284   1.989   4.203
 6639TIP3   OH219852   5.122   1.984   4.797
 6639TIP3    H119853   5.084   2.000   4.886
 6639TIP3    H219854   5.055   1.925   4.759
 6640TIP3   OH219855   4.166   1.993   4.063
 6640TIP3    H119856   4.104   1.950   4.001
 6640TIP3    H219857   4.225   2.038   3.998
 6641TIP3   OH219858   5.288   3.675   5.013
 6641TIP3    H119859   5.280   3.699   4.919
 6641TIP3    H219860   5.363   3.731   5.042
 6642TIP3   OH219861   4.246   2.785   5.435
 6642TIP3    H119862   4.324   2.818   5.484
 6642TIP3    H219863   4.179   2.783   5.506
 6643TIP3   OH219864   4.705   2.235   4.691
 6643TIP3    H119865   4.781   2.203   4.640
 6643TIP3    H219866   4.717   2.192   4.777
 6644TIP3   OH219867   4.221   1.729   4.566
 6644TIP3    H119868   4.196   1.647   4.613
 6644TIP3    H219869   4.284   1.696   4.500
 6645TIP3   OH219870   4.686   2.135   4.976
 6645TIP3    H119871   4.594   2.168   4.991
 6645TIP3    H219872   4.740   2.194   5.031
 6646TIP3   OH219873   4.423   2.526   4.075
 6646TIP3    H119874   4.348   2.465   4.062
 6646TIP3    H219875   4.404   2.561   4.166
 6647TIP3   OH219876   4.880   1.838   3.941
 6647TIP3    H119877   4.783   1.823   3.945
 6647TIP3    H219878   4.889   1.934   3.959
 6648TIP3   OH219879   4.949   2.088   4.041
 6648TIP3    H119880   5.046   2.097   4.054
 6648TIP3    H219881   4.927   2.168   3.988
 6649TIP3   OH219882   4.100   2.540   4.749
 6649TIP3    H119883   4.149   2.522   4.666
 6649TIP3    H219884   4.146   2.484   4.813
 6650TIP3   OH219885   4.567   2.676   3.896
 6650TIP3    H119886   4.519   2.763   3.899
 6650TIP3    H219887   4.513   2.623   3.957
 6651TIP3   OH219888   4.006   2.471   5.367
 6651TIP3    H119889   4.010   2.450   5.462
 6651TIP3    H219890   3.928   2.417   5.338
 6652TIP3   OH219891   4.718   2.580   5.374
 6652TIP3    H119892   4.649   2.518   5.341
 6652TIP3    H219893   4.800   2.529   5.357
 6653TIP3   OH219894   4.975   3.065   5.001
 6653TIP3    H119895   4.886   3.091   4.973
 6653TIP3    H219896   4.998   3.139   5.061
 6654TIP3   OH219897   5.393   2.178   3.876
 6654TIP3    H119898   5.331   2.133   3.814
 6654TIP3    H219899   5.390   2.266   3.834
 6655TIP3   OH219900   5.603   3.040   4.950
 6655TIP3    H119901   5.508   3.018   4.936
 6655TIP3    H219902   5.635   3.004   4.864
 6656TIP3   OH219903   5.130   2.981   3.795
 6656TIP3    H119904   5.062   2.940   3.852
 6656TIP3    H219905   5.106   2.947   3.707
 6657TIP3   OH219906   5.078   2.615   4.630
 6657TIP3    H119907   4.986   2.581   4.639
 6657TIP3    H219908   5.119   2.545   4.578
 6658TIP3   OH219909   4.215   2.848   4.373
 6658TIP3    H119910   4.233   2.934   4.330
 6658TIP3    H219911   4.120   2.850   4.382
 6659TIP3   OH219912   3.783   2.150   4.081
 6659TIP3    H119913   3.826   2.237   4.094
 6659TIP3    H219914   3.703   2.161   4.136
 6660TIP3   OH219915   4.352   2.615   4.319
 6660TIP3    H119916   4.324   2.708   4.335
 6660TIP3    H219917   4.317   2.573   4.399
 6661TIP3   OH219918   4.483   3.203   4.853
 6661TIP3    H119919   4.521   3.261   4.784
 6661TIP3    H219920   4.564   3.162   4.886
 6662TIP3   OH219921   4.133   3.094   4.225
 6662TIP3    H119922   4.048   3.104   4.272
 6662TIP3    H219923   4.168   3.186   4.231
 6663TIP3   OH219924   4.886   2.813   4.830
 6663TIP3    H119925   4.926   2.898   4.857
 6663TIP3    H219926   4.954   2.781   4.769
 6664TIP3   OH219927   4.844   2.725   3.682
 6664TIP3    H119928   4.895   2.696   3.761
 6664TIP3    H219929   4.754   2.702   3.710
 6665TIP3   OH219930   5.117   3.378   4.865
 6665TIP3    H119931   5.057   3.308   4.836
 6665TIP3    H219932   5.108   3.441   4.790
 6666TIP3   OH219933   5.191   3.201   3.510
 6666TIP3    H119934   5.225   3.272   3.452
 6666TIP3    H219935   5.110   3.247   3.541
 6667TIP3   OH219936   4.213   1.973   5.377
 6667TIP3    H119937   4.121   1.984   5.404
 6667TIP3    H219938   4.245   1.911   5.445
 6668TIP3   OH219939   4.998   2.646   3.894
 6668TIP3    H119940   4.987   2.591   3.973
 6668TIP3    H219941   5.095   2.648   3.887
 6669TIP3   OH219942   3.918   3.055   5.006
 6669TIP3    H119943   3.982   2.989   5.036
 6669TIP3    H219944   3.947   3.134   5.054
 6670TIP3   OH219945   4.215   2.706   3.686
 6670TIP3    H119946   4.226   2.615   3.656
 6670TIP3    H219947   4.196   2.694   3.781
 6671TIP3   OH219948   4.159   2.709   3.959
 6671TIP3    H119949   4.231   2.689   4.020
 6671TIP3    H219950   4.159   2.808   3.962
 6672TIP3   OH219951   3.892   2.403   4.161
 6672TIP3    H119952   3.828   2.450   4.217
 6672TIP3    H219953   3.909   2.471   4.093
 6673TIP3   OH219954   5.046   2.042   5.055
 6673TIP3    H119955   5.121   2.073   5.107
 6673TIP3    H219956   5.022   1.960   5.103
 6674TIP3   OH219957   4.922   1.792   4.218
 6674TIP3    H119958   4.907   1.813   4.124
 6674TIP3    H219959   4.959   1.876   4.252
 6675TIP3   OH219960   4.421   2.903   3.902
 6675TIP3    H119961   4.336   2.932   3.942
 6675TIP3    H219962   4.442   2.981   3.849
 6676TIP3   OH219963   4.612   1.970   4.321
 6676TIP3    H119964   4.675   2.043   4.301
 6676TIP3    H219965   4.618   1.966   4.419
 6677TIP3   OH219966   4.871   2.287   5.131
 6677TIP3    H119967   4.899   2.342   5.207
 6677TIP3    H219968   4.928   2.209   5.141
 6678TIP3   OH219969   4.757   1.700   4.425
 6678TIP3    H119970   4.742   1.780   4.478
 6678TIP3    H219971   4.817   1.735   4.355
 6679TIP3   OH219972   4.164   2.981   3.974
 6679TIP3    H119973   4.136   3.052   3.911
 6679TIP3    H219974   4.150   3.025   4.060
 6680TIP3   OH219975   4.264   1.699   4.215
 6680TIP3    H119976   4.272   1.791   4.247
 6680TIP3    H219977   4.359   1.673   4.219
 6681TIP3   OH219978   5.533   2.191   5.052
 6681TIP3    H119979   5.443   2.206   5.090
 6681TIP3    H219980   5.513   2.109   5.002
 6682TIP3   OH219981   5.177   2.375   4.491
 6682TIP3    H119982   5.094   2.326   4.506
 6682TIP3    H219983   5.241   2.325   4.544
 6683TIP3   OH219984   3.884   2.613   3.968
 6683TIP3    H119985   3.947   2.687   3.977
 6683TIP3    H219986   3.931   2.561   3.899
 6684TIP3   OH219987   3.809   1.880   4.118
 6684TIP3    H119988   3.822   1.976   4.108
 6684TIP3    H219989   3.746   1.863   4.047
 6685TIP3   OH219990   5.146   3.360   4.459
 6685TIP3    H119991   5.099   3.396   4.381
 6685TIP3    H219992   5.238   3.362   4.427
 6686TIP3   OH219993   4.225   1.604   4.972
 6686TIP3    H119994   4.187   1.571   4.889
 6686TIP3    H219995   4.212   1.528   5.032
 6687TIP3   OH219996   3.750   2.816   4.360
 6687TIP3    H119997   3.673   2.862   4.397
 6687TIP3    H219998   3.751   2.857   4.271
 6688TIP3   OH219999   3.913   3.368   5.428
 6688TIP3    H120000   3.999   3.368   5.474
 6688TIP3    H220001   3.893   3.273   5.425
 6689TIP3   OH220002   4.393   3.331   5.474
 6689TIP3    H120003   4.489   3.321   5.475
 6689TIP3    H220004   4.369   3.276   5.397
 6690TIP3   OH220005   4.377   2.911   3.596
 6690TIP3    H120006   4.321   2.840   3.636
 6690TIP3    H220007   4.450   2.857   3.561
 6691TIP3   OH220008   5.030   3.245   5.210
 6691TIP3    H120009   5.029   3.172   5.276
 6691TIP3    H220010   5.109   3.295   5.236
 6692TIP3   OH220011   4.815   2.953   3.511
 6692TIP3    H120012   4.855   2.881   3.564
 6692TIP3    H220013   4.866   2.951   3.428
 6693TIP3   OH220014   4.045   2.774   5.626
 6693TIP3    H120015   4.061   2.678   5.631
 6693TIP3    H220016   3.957   2.777   5.582
 6694TIP3   OH220017   4.020   2.425   3.820
 6694TIP3    H120018   4.079   2.398   3.892
 6694TIP3    H220019   4.085   2.431   3.746
 6695TIP3   OH220020   4.677   2.854   5.370
 6695TIP3    H120021   4.600   2.885   5.315
 6695TIP3    H220022   4.656   2.760   5.389
 6696TIP3   OH220023   4.534   2.625   3.627
 6696TIP3    H120024   4.533   2.638   3.724
 6696TIP3    H220025   4.529   2.527   3.622
 6697TIP3   OH220026   5.157   2.862   4.998
 6697TIP3    H120027   5.213   2.871   4.918
 6697TIP3    H220028   5.102   2.943   4.992
 6698TIP3   OH220029   4.165   2.512   5.611
 6698TIP3    H120030   4.231   2.444   5.596
 6698TIP3    H220031   4.191   2.545   5.700
 6699TIP3   OH220032   4.226   2.330   4.040
 6699TIP3    H120033   4.203   2.290   4.125
 6699TIP3    H220034   4.264   2.255   3.990
 6700TIP3   OH220035   4.509   2.413   5.272
 6700TIP3    H120036   4.423   2.458   5.290
 6700TIP3    H220037   4.512   2.420   5.176
 6701TIP3   OH220038   4.329   2.120   3.885
 6701TIP3    H120039   4.302   2.127   3.791
 6701TIP3    H220040   4.427   2.127   3.876
 6702TIP3   OH220041   4.995   2.773   5.372
 6702TIP3    H120042   5.089   2.789   5.355
 6702TIP3    H220043   4.999   2.724   5.456
 6703TIP3   OH220044   5.157   2.454   3.543
 6703TIP3    H120045   5.132   2.408   3.460
 6703TIP3    H220046   5.122   2.543   3.521
 6704TIP3   OH220047   4.623   2.184   5.393
 6704TIP3    H120048   4.620   2.102   5.339
 6704TIP3    H220049   4.580   2.249   5.335
 6705TIP3   OH220050   4.624   1.968   5.203
 6705TIP3    H120051   4.649   2.007   5.117
 6705TIP3    H220052   4.530   1.944   5.186
 6706TIP3   OH220053   4.706   2.588   5.077
 6706TIP3    H120054   4.744   2.527   5.013
 6706TIP3    H220055   4.621   2.612   5.032
 6707TIP3   OH220056   5.228   2.470   5.455
 6707TIP3    H120057   5.279   2.391   5.481
 6707TIP3    H220058   5.297   2.536   5.440
 6708TIP3   OH220059   5.281   2.724   5.187
 6708TIP3    H120060   5.222   2.778   5.128
 6708TIP3    H220061   5.367   2.748   5.147
 6709TIP3   OH220062   4.501   2.294   5.623
 6709TIP3    H120063   4.431   2.228   5.641
 6709TIP3    H220064   4.534   2.263   5.537
 6710TIP3   OH220065   4.756   1.732   5.268
 6710TIP3    H120066   4.705   1.813   5.247
 6710TIP3    H220067   4.687   1.663   5.258
 6711TIP3   OH220068   4.882   2.236   5.487
 6711TIP3    H120069   4.868   2.223   5.583
 6711TIP3    H220070   4.793   2.211   5.455
 6712TIP3   OH220071   5.119   2.180   5.337
 6712TIP3    H120072   5.044   2.185   5.399
 6712TIP3    H220073   5.192   2.152   5.397
 6713TIP3   OH220074   5.357   2.126   5.488
 6713TIP3    H120075   5.364   2.030   5.509
 6713TIP3    H220076   5.345   2.166   5.576
 6714TIP3   OH220077   4.344   2.073   5.678
 6714TIP3    H120078   4.346   1.981   5.646
 6714TIP3    H220079   4.377   2.061   5.769
 6715TIP3   OH220080   4.852   1.743   5.526
 6715TIP3    H120081   4.917   1.670   5.520
 6715TIP3    H220082   4.810   1.736   5.438
 6716TIP3   OH220083   4.918   1.959   5.684
 6716TIP3    H120084   4.895   1.887   5.621
 6716TIP3    H220085   4.838   2.016   5.680
 6717TIP3   OH220086   4.135   3.182   3.785
 6717TIP3    H120087   4.231   3.179   3.767
 6717TIP3    H220088   4.106   3.234   3.708
 6718TIP3   OH220089   3.617   2.566   4.008
 6718TIP3    H120090   3.711   2.590   3.991
 6718TIP3    H220091   3.612   2.478   3.964
 6719TIP3   OH220092   3.529   3.179   4.415
 6719TIP3    H120093   3.463   3.117   4.378
 6719TIP3    H220094   3.574   3.122   4.481
 6720TIP3   OH220095   3.668   3.032   4.602
 6720TIP3    H120096   3.667   2.961   4.666
 6720TIP3    H220097   3.721   3.099   4.650
 6721TIP3   OH220098   5.404   3.423   4.400
 6721TIP3    H120099   5.421   3.468   4.485
 6721TIP3    H220100   5.452   3.481   4.339
 6722TIP3   OH220101   5.423   3.459   4.684
 6722TIP3    H120102   5.365   3.381   4.673
 6722TIP3    H220103   5.492   3.423   4.741
 6723TIP3   OH220104   5.473   3.125   5.261
 6723TIP3    H120105   5.397   3.136   5.322
 6723TIP3    H220106   5.511   3.216   5.261
 6724TIP3   OH220107   5.274   2.628   3.881
 6724TIP3    H120108   5.326   2.707   3.869
 6724TIP3    H220109   5.316   2.588   3.961
 6725TIP3   OH220110   5.413   2.512   4.081
 6725TIP3    H120111   5.349   2.468   4.142
 6725TIP3    H220112   5.480   2.547   4.143
 6726TIP3   OH220113   5.354   2.416   3.725
 6726TIP3    H120114   5.285   2.415   3.655
 6726TIP3    H220115   5.316   2.485   3.783
 6727TIP3   OH220116   5.225   2.090   3.682
 6727TIP3    H120117   5.180   2.129   3.606
 6727TIP3    H220118   5.199   1.996   3.673
 6728TIP3   OH220119   5.233   2.364   4.224
 6728TIP3    H120120   5.234   2.268   4.216
 6728TIP3    H220121   5.217   2.378   4.320
 6729TIP3   OH220122   3.841   2.468   4.956
 6729TIP3    H120123   3.850   2.418   4.872
 6729TIP3    H220124   3.932   2.456   4.991
 6730TIP3   OH220125   5.532   2.783   5.092
 6730TIP3    H120126   5.601   2.726   5.057
 6730TIP3    H220127   5.512   2.841   5.016
 6731TIP3   OH220128   5.165   1.825   3.673
 6731TIP3    H120129   5.238   1.789   3.728
 6731TIP3    H220130   5.091   1.765   3.691
 6732TIP3   OH220131   5.226   2.082   4.125
 6732TIP3    H120132   5.265   1.993   4.139
 6732TIP3    H220133   5.282   2.113   4.052
 6733TIP3   OH220134   5.396   2.246   4.623
 6733TIP3    H120135   5.473   2.286   4.578
 6733TIP3    H220136   5.395   2.298   4.705
 6734TIP3   OH220137   5.440   2.410   4.841
 6734TIP3    H120138   5.358   2.439   4.888
 6734TIP3    H220139   5.458   2.490   4.787
 6735TIP3   OH220140   4.080   2.134   5.655
 6735TIP3    H120141   4.176   2.119   5.660
 6735TIP3    H220142   4.046   2.047   5.684
 6736TIP3   OH220143   5.907   1.991   5.404
 6736TIP3    H120144   5.966   1.925   5.362
 6736TIP3    H220145   5.880   2.046   5.327
 6737TIP3   OH220146   5.334   1.831   4.161
 6737TIP3    H120147   5.379   1.813   4.246
 6737TIP3    H220148   5.271   1.755   4.158
 6738TIP3   OH220149   4.038   1.809   4.956
 6738TIP3    H120150   4.104   1.742   4.981
 6738TIP3    H220151   4.085   1.891   4.976
 6739TIP3   OH220152   5.782   2.125   5.203
 6739TIP3    H120153   5.708   2.174   5.243
 6739TIP3    H220154   5.735   2.056   5.151
 6740TIP3   OH220155   5.418   1.763   3.797
 6740TIP3    H120156   5.452   1.693   3.738
 6740TIP3    H220157   5.481   1.836   3.783
 6741TIP3   OH220158   4.986   3.302   4.055
 6741TIP3    H120159   5.038   3.295   3.973
 6741TIP3    H220160   5.030   3.373   4.104
 6742TIP3   OH220161   4.040   1.682   5.370
 6742TIP3    H120162   3.988   1.668   5.451
 6742TIP3    H220163   3.974   1.720   5.310
 6743TIP3   OH220164   4.080   3.099   5.447
 6743TIP3    H120165   3.988   3.074   5.428
 6743TIP3    H220166   4.086   3.084   5.542
 6744TIP3   OH220167   4.258   3.135   4.994
 6744TIP3    H120168   4.211   3.211   4.953
 6744TIP3    H220169   4.345   3.150   4.951
 6745TIP3   OH220170   4.702   3.379   5.134
 6745TIP3    H120171   4.747   3.385   5.220
 6745TIP3    H220172   4.764   3.429   5.076
 6746TIP3   OH220173   4.877   3.530   4.990
 6746TIP3    H120174   4.942   3.478   4.940
 6746TIP3    H220175   4.936   3.583   5.048
 6747TIP3   OH220176   5.673   1.891   5.087
 6747TIP3    H120177   5.581   1.876   5.059
 6747TIP3    H220178   5.708   1.800   5.079
 6748TIP3   OH220179   3.930   3.382   5.021
 6748TIP3    H120180   3.843   3.420   4.994
 6748TIP3    H220181   3.945   3.431   5.103
 6749TIP3   OH220182   4.168   3.367   4.876
 6749TIP3    H120183   4.081   3.384   4.918
 6749TIP3    H220184   4.153   3.398   4.785
 6750TIP3   OH220185   4.593   3.405   4.674
 6750TIP3    H120186   4.528   3.418   4.603
 6750TIP3    H220187   4.600   3.494   4.712
 6751TIP3   OH220188   4.859   3.343   4.726
 6751TIP3    H120189   4.763   3.351   4.708
 6751TIP3    H220190   4.895   3.413   4.671
 6752TIP3   OH220191   5.087   3.540   4.649
 6752TIP3    H120192   5.064   3.618   4.594
 6752TIP3    H220193   5.104   3.472   4.579
 6753TIP3   OH220194   3.841   3.181   4.760
 6753TIP3    H120195   3.870   3.161   4.851
 6753TIP3    H220196   3.917   3.143   4.710
 6754TIP3   OH220197   4.036   3.051   4.619
 6754TIP3    H120198   4.055   2.969   4.669
 6754TIP3    H220199   4.127   3.090   4.614
 6755TIP3   OH220200   4.290   3.158   4.622
 6755TIP3    H120201   4.366   3.114   4.575
 6755TIP3    H220202   4.333   3.170   4.708
 6756TIP3   OH220203   4.887   1.810   4.717
 6756TIP3    H120204   4.837   1.741   4.765
 6756TIP3    H220205   4.948   1.757   4.663
 6757TIP3   OH220206   5.409   1.699   4.622
 6757TIP3    H120207   5.440   1.744   4.540
 6757TIP3    H220208   5.312   1.704   4.610
 6758TIP3   OH220209   5.500   1.786   4.381
 6758TIP3    H120210   5.572   1.736   4.335
 6758TIP3    H220211   5.530   1.878   4.363
 6759TIP3   OH220212   4.126   1.514   4.723
 6759TIP3    H120213   4.037   1.472   4.734
 6759TIP3    H220214   4.181   1.433   4.721
 6760TIP3   OH220215   3.941   1.377   4.379
 6760TIP3    H120216   3.958   1.428   4.298
 6760TIP3    H220217   3.858   1.413   4.412
 6761TIP3   OH220218   4.569   1.552   4.606
 6761TIP3    H120219   4.630   1.599   4.547
 6761TIP3    H220220   4.594   1.587   4.692
 6762TIP3   OH220221   5.131   1.694   4.587
 6762TIP3    H120222   5.115   1.659   4.499
 6762TIP3    H220223   5.112   1.615   4.643
 6763TIP3   OH220224   5.150   1.618   4.153
 6763TIP3    H120225   5.063   1.660   4.161
 6763TIP3    H220226   5.134   1.533   4.198
 6764TIP3   OH220227   3.630   2.959   4.159
 6764TIP3    H120228   3.546   2.928   4.122
 6764TIP3    H220229   3.626   3.052   4.133
 6765TIP3   OH220230   4.028   1.554   4.151
 6765TIP3    H120231   4.067   1.485   4.093
 6765TIP3    H220232   4.109   1.602   4.178
 6766TIP3   OH220233   4.543   1.720   4.235
 6766TIP3    H120234   4.603   1.671   4.294
 6766TIP3    H220235   4.567   1.812   4.261
 6767TIP3   OH220236   4.404   3.146   3.733
 6767TIP3    H120237   4.492   3.169   3.697
 6767TIP3    H220238   4.382   3.070   3.675
 6768TIP3   OH220239   5.132   3.260   3.823
 6768TIP3    H120240   5.121   3.163   3.812
 6768TIP3    H220241   5.080   3.295   3.748
 6769TIP3   OH220242   4.338   1.800   5.615
 6769TIP3    H120243   4.300   1.730   5.671
 6769TIP3    H220244   4.432   1.798   5.645
 6770TIP3   OH220245   4.587   1.794   5.736
 6770TIP3    H120246   4.671   1.764   5.698
 6770TIP3    H220247   4.570   1.725   5.804
 6771TIP3   OH220248   3.706   2.976   3.792
 6771TIP3    H120249   3.711   3.016   3.879
 6771TIP3    H220250   3.797   2.939   3.779
 6772TIP3   OH220251   5.411   1.854   5.524
 6772TIP3    H120252   5.428   1.824   5.616
 6772TIP3    H220253   5.500   1.848   5.484
 6773TIP3   OH220254   5.350   3.407   5.014
 6773TIP3    H120255   5.269   3.377   4.966
 6773TIP3    H220256   5.331   3.503   5.017
 6774TIP3   OH220257   6.616   2.780   3.782
 6774TIP3    H120258   6.587   2.871   3.761
 6774TIP3    H220259   6.540   2.730   3.746
 6775TIP3   OH220260   6.618   2.780   4.160
 6775TIP3    H120261   6.646   2.750   4.248
 6775TIP3    H220262   6.574   2.702   4.124
 6776TIP3   OH220263   5.923   2.682   4.527
 6776TIP3    H120264   5.949   2.614   4.592
 6776TIP3    H220265   6.002   2.737   4.522
 6777TIP3   OH220266   6.862   3.080   3.843
 6777TIP3    H120267   6.842   3.014   3.910
 6777TIP3    H220268   6.886   3.157   3.897
 6778TIP3   OH220269   5.889   3.085   4.250
 6778TIP3    H120270   5.879   2.988   4.256
 6778TIP3    H220271   5.986   3.093   4.243
 6779TIP3   OH220272   5.592   2.288   4.039
 6779TIP3    H120273   5.545   2.371   4.054
 6779TIP3    H220274   5.522   2.235   3.997
 6780TIP3   OH220275   5.655   2.574   4.198
 6780TIP3    H120276   5.697   2.501   4.249
 6780TIP3    H220277   5.725   2.597   4.136
 6781TIP3   OH220278   6.508   3.546   3.858
 6781TIP3    H120279   6.555   3.474   3.812
 6781TIP3    H220280   6.496   3.510   3.946
 6782TIP3   OH220281   6.415   3.005   4.212
 6782TIP3    H120282   6.453   2.931   4.163
 6782TIP3    H220283   6.498   3.051   4.237
 6783TIP3   OH220284   7.425   2.326   4.208
 6783TIP3    H120285   7.455   2.409   4.250
 6783TIP3    H220286   7.450   2.341   4.115
 6784TIP3   OH220287   6.825   2.507   4.244
 6784TIP3    H120288   6.869   2.422   4.263
 6784TIP3    H220289   6.795   2.493   4.152
 6785TIP3   OH220290   6.165   2.166   4.209
 6785TIP3    H120291   6.145   2.240   4.147
 6785TIP3    H220292   6.118   2.093   4.163
 6786TIP3   OH220293   6.858   2.260   3.832
 6786TIP3    H120294   6.931   2.243   3.896
 6786TIP3    H220295   6.909   2.294   3.756
 6787TIP3   OH220296   5.793   2.366   4.319
 6787TIP3    H120297   5.878   2.350   4.362
 6787TIP3    H220298   5.805   2.313   4.237
 6788TIP3   OH220299   6.239   2.567   4.107
 6788TIP3    H120300   6.333   2.541   4.120
 6788TIP3    H220301   6.199   2.483   4.075
 6789TIP3   OH220302   7.500   2.533   4.379
 6789TIP3    H120303   7.417   2.581   4.359
 6789TIP3    H220304   7.516   2.563   4.470
 6790TIP3   OH220305   6.160   2.148   4.641
 6790TIP3    H120306   6.103   2.188   4.573
 6790TIP3    H220307   6.109   2.169   4.722
 6791TIP3   OH220308   6.509   3.002   3.650
 6791TIP3    H120309   6.467   2.984   3.565
 6791TIP3    H220310   6.465   3.086   3.675
 6792TIP3   OH220311   6.268   2.926   4.439
 6792TIP3    H120312   6.205   2.992   4.475
 6792TIP3    H220313   6.309   2.976   4.365
 6793TIP3   OH220314   7.070   2.260   4.002
 6793TIP3    H120315   7.062   2.210   4.084
 6793TIP3    H220316   7.123   2.337   4.029
 6794TIP3   OH220317   6.031   2.264   4.427
 6794TIP3    H120318   6.091   2.338   4.450
 6794TIP3    H220319   6.080   2.226   4.351
 6795TIP3   OH220320   6.097   3.119   4.533
 6795TIP3    H120321   6.072   3.206   4.494
 6795TIP3    H220322   6.018   3.107   4.591
 6796TIP3   OH220323   6.932   3.325   4.011
 6796TIP3    H120324   6.842   3.316   4.052
 6796TIP3    H220325   6.922   3.411   3.966
 6797TIP3   OH220326   7.221   2.225   4.375
 6797TIP3    H120327   7.133   2.253   4.344
 6797TIP3    H220328   7.280   2.258   4.304
 6798TIP3   OH220329   6.519   1.872   4.356
 6798TIP3    H120330   6.504   1.777   4.369
 6798TIP3    H220331   6.441   1.909   4.403
 6799TIP3   OH220332   6.634   3.370   3.689
 6799TIP3    H120333   6.683   3.288   3.665
 6799TIP3    H220334   6.694   3.436   3.647
 6800TIP3   OH220335   6.776   3.155   3.591
 6800TIP3    H120336   6.735   3.077   3.552
 6800TIP3    H220337   6.811   3.119   3.675
 6801TIP3   OH220338   7.156   3.238   4.355
 6801TIP3    H120339   7.143   3.161   4.296
 6801TIP3    H220340   7.136   3.313   4.295
 6802TIP3   OH220341   6.448   2.633   3.612
 6802TIP3    H120342   6.367   2.684   3.591
 6802TIP3    H220343   6.492   2.628   3.526
 6803TIP3   OH220344   6.407   2.414   3.332
 6803TIP3    H120345   6.474   2.467   3.376
 6803TIP3    H220346   6.464   2.351   3.283
 6804TIP3   OH220347   7.351   2.877   4.201
 6804TIP3    H120348   7.267   2.927   4.207
 6804TIP3    H220349   7.379   2.900   4.110
 6805TIP3   OH220350   6.795   2.715   3.585
 6805TIP3    H120351   6.739   2.739   3.662
 6805TIP3    H220352   6.878   2.689   3.629
 6806TIP3   OH220353   7.030   2.754   4.496
 6806TIP3    H120354   7.026   2.838   4.545
 6806TIP3    H220355   6.943   2.757   4.450
 6807TIP3   OH220356   6.026   2.712   4.002
 6807TIP3    H120357   5.984   2.654   3.936
 6807TIP3    H220358   6.104   2.659   4.029
 6808TIP3   OH220359   6.157   3.120   4.151
 6808TIP3    H120360   6.138   3.081   4.064
 6808TIP3    H220361   6.247   3.087   4.168
 6809TIP3   OH220362   6.170   2.682   4.355
 6809TIP3    H120363   6.199   2.664   4.263
 6809TIP3    H220364   6.209   2.770   4.373
 6810TIP3   OH220365   6.692   3.320   4.133
 6810TIP3    H120366   6.674   3.402   4.183
 6810TIP3    H220367   6.673   3.249   4.197
 6811TIP3   OH220368   6.301   3.238   4.681
 6811TIP3    H120369   6.240   3.302   4.725
 6811TIP3    H220370   6.235   3.187   4.628
 6812TIP3   OH220371   6.636   2.572   3.410
 6812TIP3    H120372   6.694   2.633   3.460
 6812TIP3    H220373   6.661   2.595   3.317
 6813TIP3   OH220374   6.061   2.796   4.781
 6813TIP3    H120375   6.062   2.885   4.823
 6813TIP3    H220376   5.965   2.777   4.782
 6814TIP3   OH220377   6.377   3.253   3.688
 6814TIP3    H120378   6.455   3.308   3.704
 6814TIP3    H220379   6.316   3.314   3.644
 6815TIP3   OH220380   6.096   3.408   4.766
 6815TIP3    H120381   6.061   3.409   4.675
 6815TIP3    H220382   6.016   3.384   4.819
 6816TIP3   OH220383   7.151   1.813   3.459
 6816TIP3    H120384   7.069   1.834   3.508
 6816TIP3    H220385   7.165   1.896   3.408
 6817TIP3   OH220386   5.890   2.554   3.812
 6817TIP3    H120387   5.827   2.600   3.753
 6817TIP3    H220388   5.853   2.464   3.814
 6818TIP3   OH220389   6.948   3.181   3.006
 6818TIP3    H120390   6.956   3.278   2.992
 6818TIP3    H220391   7.041   3.153   2.995
 6819TIP3   OH220392   5.692   2.942   4.703
 6819TIP3    H120393   5.596   2.931   4.686
 6819TIP3    H220394   5.722   2.851   4.710
 6820TIP3   OH220395   5.537   3.148   4.309
 6820TIP3    H120396   5.628   3.137   4.341
 6820TIP3    H220397   5.498   3.202   4.379
 6821TIP3   OH220398   7.394   3.583   4.402
 6821TIP3    H120399   7.391   3.486   4.416
 6821TIP3    H220400   7.311   3.609   4.447
 6822TIP3   OH220401   6.501   3.367   4.538
 6822TIP3    H120402   6.499   3.460   4.569
 6822TIP3    H220403   6.427   3.329   4.591
 6823TIP3   OH220404   6.262   3.498   3.488
 6823TIP3    H120405   6.214   3.482   3.405
 6823TIP3    H220406   6.228   3.585   3.516
 6824TIP3   OH220407   5.685   3.324   3.868
 6824TIP3    H120408   5.741   3.326   3.949
 6824TIP3    H220409   5.597   3.317   3.908
 6825TIP3   OH220410   6.462   3.401   3.127
 6825TIP3    H120411   6.521   3.331   3.091
 6825TIP3    H220412   6.495   3.409   3.219
 6826TIP3   OH220413   6.512   3.447   3.397
 6826TIP3    H120414   6.423   3.459   3.436
 6826TIP3    H220415   6.559   3.407   3.472
 6827TIP3   OH220416   7.283   2.714   4.676
 6827TIP3    H120417   7.203   2.728   4.624
 6827TIP3    H220418   7.298   2.618   4.664
 6828TIP3   OH220419   5.887   3.129   4.702
 6828TIP3    H120420   5.930   3.111   4.787
 6828TIP3    H220421   5.814   3.064   4.701
 6829TIP3   OH220422   6.279   1.943   4.484
 6829TIP3    H120423   6.189   1.916   4.456
 6829TIP3    H220424   6.257   2.028   4.527
 6830TIP3   OH220425   6.813   2.061   4.679
 6830TIP3    H120426   6.880   2.033   4.744
 6830TIP3    H220427   6.728   2.041   4.725
 6831TIP3   OH220428   7.052   2.490   4.598
 6831TIP3    H120429   7.001   2.487   4.682
 6831TIP3    H220430   7.027   2.577   4.562
 6832TIP3   OH220431   6.714   2.620   3.156
 6832TIP3    H120432   6.677   2.594   3.069
 6832TIP3    H220433   6.793   2.670   3.128
 6833TIP3   OH220434   6.425   1.993   3.457
 6833TIP3    H120435   6.389   1.990   3.547
 6833TIP3    H220436   6.385   1.911   3.421
 6834TIP3   OH220437   6.208   2.460   4.503
 6834TIP3    H120438   6.160   2.486   4.585
 6834TIP3    H220439   6.195   2.541   4.448
 6835TIP3   OH220440   6.095   2.346   4.019
 6835TIP3    H120441   6.001   2.321   4.035
 6835TIP3    H220442   6.108   2.307   3.929
 6836TIP3   OH220443   6.585   2.433   3.746
 6836TIP3    H120444   6.532   2.504   3.703
 6836TIP3    H220445   6.639   2.401   3.671
 6837TIP3   OH220446   6.759   2.710   4.831
 6837TIP3    H120447   6.738   2.638   4.894
 6837TIP3    H220448   6.853   2.726   4.853
 6838TIP3   OH220449   6.741   2.462   3.985
 6838TIP3    H120450   6.681   2.492   3.913
 6838TIP3    H220451   6.774   2.381   3.942
 6839TIP3   OH220452   6.033   2.488   4.719
 6839TIP3    H120453   6.067   2.556   4.779
 6839TIP3    H220454   6.031   2.409   4.775
 6840TIP3   OH220455   6.081   1.968   3.423
 6840TIP3    H120456   6.068   1.965   3.520
 6840TIP3    H220457   6.002   2.019   3.395
 6841TIP3   OH220458   5.622   2.011   4.298
 6841TIP3    H120459   5.702   2.045   4.342
 6841TIP3    H220460   5.652   1.983   4.210
 6842TIP3   OH220461   5.599   1.994   3.816
 6842TIP3    H120462   5.640   2.032   3.735
 6842TIP3    H220463   5.535   2.066   3.835
 6843TIP3   OH220464   6.753   2.707   4.409
 6843TIP3    H120465   6.785   2.635   4.350
 6843TIP3    H220466   6.722   2.653   4.485
 6844TIP3   OH220467   6.422   2.168   4.080
 6844TIP3    H120468   6.339   2.168   4.131
 6844TIP3    H220469   6.489   2.171   4.150
 6845TIP3   OH220470   5.854   2.225   4.089
 6845TIP3    H120471   5.760   2.234   4.061
 6845TIP3    H220472   5.876   2.134   4.062
 6846TIP3   OH220473   6.126   2.223   3.775
 6846TIP3    H120474   6.219   2.237   3.751
 6846TIP3    H220475   6.078   2.245   3.692
 6847TIP3   OH220476   6.914   2.244   4.283
 6847TIP3    H120477   6.877   2.257   4.373
 6847TIP3    H220478   6.848   2.184   4.244
 6848TIP3   OH220479   5.966   2.257   3.556
 6848TIP3    H120480   5.896   2.209   3.508
 6848TIP3    H220481   6.018   2.292   3.480
 6849TIP3   OH220482   7.084   3.933   4.500
 6849TIP3    H120483   7.080   3.958   4.406
 6849TIP3    H220484   7.161   3.983   4.531
 6850TIP3   OH220485   6.041   3.037   4.926
 6850TIP3    H120486   6.120   3.072   4.972
 6850TIP3    H220487   5.973   3.051   4.995
 6851TIP3   OH220488   6.505   2.496   4.175
 6851TIP3    H120489   6.578   2.460   4.122
 6851TIP3    H220490   6.518   2.453   4.261
 6852TIP3   OH220491   6.032   1.985   4.054
 6852TIP3    H120492   5.995   1.905   4.096
 6852TIP3    H220493   6.073   1.949   3.974
 6853TIP3   OH220494   6.480   2.390   4.473
 6853TIP3    H120495   6.392   2.431   4.481
 6853TIP3    H220496   6.538   2.455   4.518
 6854TIP3   OH220497   6.217   2.784   3.562
 6854TIP3    H120498   6.144   2.720   3.550
 6854TIP3    H220499   6.199   2.818   3.653
 6855TIP3   OH220500   7.118   3.019   4.192
 6855TIP3    H120501   7.140   3.070   4.111
 6855TIP3    H220502   7.032   2.978   4.167
 6856TIP3   OH220503   6.677   2.095   3.429
 6856TIP3    H120504   6.580   2.078   3.432
 6856TIP3    H220505   6.684   2.190   3.446
 6857TIP3   OH220506   6.618   3.103   4.559
 6857TIP3    H120507   6.639   3.085   4.652
 6857TIP3    H220508   6.578   3.192   4.563
 6858TIP3   OH220509   6.745   2.346   3.529
 6858TIP3    H120510   6.842   2.352   3.541
 6858TIP3    H220511   6.725   2.424   3.474
 6859TIP3   OH220512   5.909   2.805   4.238
 6859TIP3    H120513   5.949   2.776   4.154
 6859TIP3    H220514   5.945   2.743   4.302
 6860TIP3   OH220515   6.364   2.935   3.385
 6860TIP3    H120516   6.316   3.021   3.389
 6860TIP3    H220517   6.309   2.880   3.444
 6861TIP3   OH220518   5.798   2.717   4.844
 6861TIP3    H120519   5.813   2.723   4.940
 6861TIP3    H220520   5.704   2.690   4.834
 6862TIP3   OH220521   6.517   2.840   4.870
 6862TIP3    H120522   6.460   2.786   4.814
 6862TIP3    H220523   6.605   2.808   4.843
 6863TIP3   OH220524   6.779   3.358   4.456
 6863TIP3    H120525   6.682   3.360   4.467
 6863TIP3    H220526   6.806   3.412   4.533
 6864TIP3   OH220527   7.189   2.434   3.363
 6864TIP3    H120528   7.127   2.389   3.301
 6864TIP3    H220529   7.185   2.523   3.322
 6865TIP3   OH220530   7.406   3.291   4.444
 6865TIP3    H120531   7.308   3.287   4.435
 6865TIP3    H220532   7.432   3.262   4.353
 6866TIP3   OH220533   6.896   3.252   3.274
 6866TIP3    H120534   6.858   3.185   3.332
 6866TIP3    H220535   6.900   3.208   3.187
 6867TIP3   OH220536   6.884   2.882   4.112
 6867TIP3    H120537   6.790   2.858   4.124
 6867TIP3    H220538   6.917   2.803   4.065
 6868TIP3   OH220539   6.013   3.111   3.859
 6868TIP3    H120540   6.026   3.190   3.804
 6868TIP3    H220541   5.919   3.119   3.878
 6869TIP3   OH220542   5.577   2.409   3.565
 6869TIP3    H120543   5.624   2.492   3.583
 6869TIP3    H220544   5.499   2.417   3.624
 6870TIP3   OH220545   6.150   2.875   3.807
 6870TIP3    H120546   6.113   2.965   3.822
 6870TIP3    H220547   6.113   2.827   3.883
 6871TIP3   OH220548   6.280   3.455   4.331
 6871TIP3    H120549   6.319   3.529   4.279
 6871TIP3    H220550   6.358   3.423   4.379
 6872TIP3   OH220551   5.934   3.346   3.715
 6872TIP3    H120552   5.847   3.359   3.757
 6872TIP3    H220553   5.971   3.437   3.719
 6873TIP3   OH220554   6.668   3.087   4.290
 6873TIP3    H120555   6.658   3.086   4.388
 6873TIP3    H220556   6.749   3.036   4.278
 6874TIP3   OH220557   6.643   2.981   3.172
 6874TIP3    H120558   6.693   2.955   3.252
 6874TIP3    H220559   6.553   2.955   3.197
 6875TIP3   OH220560   6.917   3.621   4.339
 6875TIP3    H120561   6.837   3.567   4.330
 6875TIP3    H220562   6.903   3.687   4.267
 6876TIP3   OH220563   6.983   3.456   2.993
 6876TIP3    H120564   7.015   3.527   2.934
 6876TIP3    H220565   6.903   3.501   3.028
 6877TIP3   OH220566   6.016   2.224   4.869
 6877TIP3    H120567   5.926   2.190   4.883
 6877TIP3    H220568   6.064   2.177   4.939
 6878TIP3   OH220569   6.802   2.916   3.390
 6878TIP3    H120570   6.792   2.849   3.461
 6878TIP3    H220571   6.899   2.913   3.377
 6879TIP3   OH220572   5.723   3.314   4.491
 6879TIP3    H120573   5.777   3.244   4.531
 6879TIP3    H220574   5.744   3.390   4.546
 6880TIP3   OH220575   6.011   2.961   3.173
 6880TIP3    H120576   6.022   2.870   3.142
 6880TIP3    H220577   5.990   2.948   3.268
 6881TIP3   OH220578   5.956   2.967   3.448
 6881TIP3    H120579   6.034   2.945   3.501
 6881TIP3    H220580   5.957   3.065   3.450
 6882TIP3   OH220581   5.690   2.662   3.641
 6882TIP3    H120582   5.599   2.693   3.646
 6882TIP3    H220583   5.727   2.726   3.578
 6883TIP3   OH220584   6.837   2.299   4.541
 6883TIP3    H120585   6.919   2.336   4.577
 6883TIP3    H220586   6.825   2.218   4.594
 6884TIP3   OH220587   6.717   2.048   3.706
 6884TIP3    H120588   6.703   2.069   3.611
 6884TIP3    H220589   6.755   2.132   3.739
 6885TIP3   OH220590   6.220   3.164   3.395
 6885TIP3    H120591   6.132   3.192   3.429
 6885TIP3    H220592   6.236   3.235   3.331
 6886TIP3   OH220593   6.410   2.227   3.807
 6886TIP3    H120594   6.474   2.300   3.788
 6886TIP3    H220595   6.414   2.222   3.905
 6887TIP3   OH220596   6.676   2.546   4.615
 6887TIP3    H120597   6.699   2.601   4.693
 6887TIP3    H220598   6.733   2.468   4.627
 6888TIP3   OH220599   6.553   1.955   3.910
 6888TIP3    H120600   6.542   2.034   3.966
 6888TIP3    H220601   6.613   1.990   3.841
 6889TIP3   OH220602   5.962   3.238   3.461
 6889TIP3    H120603   5.934   3.307   3.396
 6889TIP3    H220604   5.948   3.285   3.546
 6890TIP3   OH220605   6.063   1.953   3.702
 6890TIP3    H120606   6.062   2.045   3.734
 6890TIP3    H220607   6.160   1.935   3.707
 6891TIP3   OH220608   7.319   2.447   4.597
 6891TIP3    H120609   7.221   2.445   4.602
 6891TIP3    H220610   7.331   2.408   4.509
 6892TIP3   OH220611   6.969   2.641   3.983
 6892TIP3    H120612   6.893   2.582   3.994
 6892TIP3    H220613   7.040   2.593   4.031
 6893TIP3   OH220614   5.683   2.875   3.455
 6893TIP3    H120615   5.747   2.948   3.457
 6893TIP3    H220616   5.727   2.818   3.388
 6894TIP3   OH220617   5.625   2.141   3.589
 6894TIP3    H120618   5.623   2.239   3.583
 6894TIP3    H220619   5.548   2.116   3.537
 6895TIP3   OH220620   6.938   3.596   3.934
 6895TIP3    H120621   6.894   3.643   3.859
 6895TIP3    H220622   7.032   3.614   3.911
 6896TIP3   OH220623   6.012   1.868   4.457
 6896TIP3    H120624   5.982   1.840   4.367
 6896TIP3    H220625   5.996   1.787   4.509
 6897TIP3   OH220626   5.709   3.626   4.912
 6897TIP3    H120627   5.795   3.624   4.960
 6897TIP3    H220628   5.686   3.531   4.910
 6898TIP3   OH220629   6.192   3.589   4.959
 6898TIP3    H120630   6.287   3.572   4.962
 6898TIP3    H220631   6.165   3.531   4.885
 6899TIP3   OH220632   6.174   3.166   3.085
 6899TIP3    H120633   6.117   3.094   3.123
 6899TIP3    H220634   6.247   3.114   3.049
 6900TIP3   OH220635   6.832   3.496   4.689
 6900TIP3    H120636   6.822   3.427   4.759
 6900TIP3    H220637   6.908   3.548   4.722
 6901TIP3   OH220638   6.610   3.207   2.997
 6901TIP3    H120639   6.654   3.141   3.053
 6901TIP3    H220640   6.663   3.206   2.915
 6902TIP3   OH220641   5.832   3.037   5.108
 6902TIP3    H120642   5.841   2.942   5.124
 6902TIP3    H220643   5.743   3.041   5.065
 6903TIP3   OH220644   5.817   2.685   3.310
 6903TIP3    H120645   5.877   2.648   3.377
 6903TIP3    H220646   5.879   2.689   3.234
 6904TIP3   OH220647   6.448   3.117   4.886
 6904TIP3    H120648   6.405   3.136   4.800
 6904TIP3    H220649   6.477   3.024   4.876
 6905TIP3   OH220650   6.330   2.882   3.114
 6905TIP3    H120651   6.329   2.894   3.211
 6905TIP3    H220652   6.329   2.784   3.108
 6906TIP3   OH220653   6.941   3.124   4.493
 6906TIP3    H120654   7.014   3.170   4.449
 6906TIP3    H220655   6.869   3.189   4.480
 6907TIP3   OH220656   5.928   2.737   5.102
 6907TIP3    H120657   6.014   2.705   5.069
 6907TIP3    H220658   5.957   2.781   5.185
 6908TIP3   OH220659   6.025   2.584   3.529
 6908TIP3    H120660   6.003   2.535   3.610
 6908TIP3    H220661   6.063   2.513   3.473
 6909TIP3   OH220662   6.289   2.644   4.751
 6909TIP3    H120663   6.216   2.709   4.756
 6909TIP3    H220664   6.342   2.681   4.677
 6910TIP3   OH220665   6.126   2.381   3.369
 6910TIP3    H120666   6.099   2.383   3.275
 6910TIP3    H220667   6.223   2.384   3.360
 6911TIP3   OH220668   6.809   3.052   4.891
 6911TIP3    H120669   6.889   3.030   4.842
 6911TIP3    H220670   6.808   2.985   4.961
 6912TIP3   OH220671   6.951   2.711   3.031
 6912TIP3    H120672   6.928   2.664   2.948
 6912TIP3    H220673   6.917   2.800   3.008
 6913TIP3   OH220674   6.419   2.439   4.881
 6913TIP3    H120675   6.418   2.359   4.825
 6913TIP3    H220676   6.373   2.505   4.823
 6914TIP3   OH220677   6.420   2.222   4.690
 6914TIP3    H120678   6.448   2.267   4.608
 6914TIP3    H220679   6.326   2.202   4.670
 6915TIP3   OH220680   6.446   2.761   4.567
 6915TIP3    H120681   6.529   2.771   4.518
 6915TIP3    H220682   6.389   2.827   4.522
 6916TIP3   OH220683   7.030   2.728   4.946
 6916TIP3    H120684   7.081   2.645   4.950
 6916TIP3    H220685   7.096   2.789   4.909
 6917TIP3   OH220686   7.070   2.980   4.681
 6917TIP3    H120687   7.012   3.034   4.621
 6917TIP3    H220688   7.157   3.001   4.640
 6918TIP3   OH220689   6.296   2.554   5.111
 6918TIP3    H120690   6.227   2.485   5.125
 6918TIP3    H220691   6.329   2.529   5.023
 6919TIP3   OH220692   6.553   1.989   4.759
 6919TIP3    H120693   6.504   2.070   4.734
 6919TIP3    H220694   6.485   1.920   4.744
 6920TIP3   OH220695   6.679   2.492   4.973
 6920TIP3    H120696   6.665   2.483   5.069
 6920TIP3    H220697   6.589   2.469   4.941
 6921TIP3   OH220698   6.917   2.442   4.828
 6921TIP3    H120699   6.842   2.445   4.889
 6921TIP3    H220700   6.991   2.412   4.885
 6922TIP3   OH220701   7.146   2.383   4.980
 6922TIP3    H120702   7.158   2.287   4.998
 6922TIP3    H220703   7.142   2.422   5.069
 6923TIP3   OH220704   6.141   2.333   5.162
 6923TIP3    H120705   6.133   2.241   5.133
 6923TIP3    H220706   6.165   2.322   5.256
 6924TIP3   OH220707   6.643   1.992   5.018
 6924TIP3    H120708   6.714   1.927   5.005
 6924TIP3    H220709   6.604   1.993   4.928
 6925TIP3   OH220710   6.710   2.212   5.174
 6925TIP3    H120711   6.687   2.143   5.108
 6925TIP3    H220712   6.634   2.274   5.167
 6926TIP3   OH220713   5.932   3.435   3.271
 6926TIP3    H120714   6.027   3.438   3.251
 6926TIP3    H220715   5.899   3.490   3.197
 6927TIP3   OH220716   5.419   2.814   3.505
 6927TIP3    H120717   5.509   2.840   3.478
 6927TIP3    H220718   5.406   2.731   3.454
 6928TIP3   OH220719   5.333   3.428   3.899
 6928TIP3    H120720   5.259   3.374   3.864
 6928TIP3    H220721   5.365   3.373   3.973
 6929TIP3   OH220722   5.475   3.281   4.081
 6929TIP3    H120723   5.466   3.217   4.156
 6929TIP3    H220724   5.520   3.352   4.132
 6930TIP3   OH220725   7.194   3.681   3.890
 6930TIP3    H120726   7.215   3.718   3.978
 6930TIP3    H220727   7.245   3.738   3.831
 6931TIP3   OH220728   7.220   3.708   4.171
 6931TIP3    H120729   7.175   3.621   4.167
 6931TIP3    H220730   7.293   3.687   4.231
 6932TIP3   OH220731   7.267   3.384   4.745
 6932TIP3    H120732   7.193   3.393   4.808
 6932TIP3    H220733   7.307   3.473   4.749
 6933TIP3   OH220734   7.082   2.897   3.366
 6933TIP3    H120735   7.149   2.962   3.337
 6933TIP3    H220736   7.125   2.859   3.445
 6934TIP3   OH220737   7.211   2.766   3.571
 6934TIP3    H120738   7.141   2.722   3.625
 6934TIP3    H220739   7.266   2.807   3.640
 6935TIP3   OH220740   7.265   3.158   4.003
 6935TIP3    H120741   7.316   3.093   3.951
 6935TIP3    H220742   7.255   3.232   3.941
 6936TIP3   OH220743   7.096   3.458   4.197
 6936TIP3    H120744   7.024   3.502   4.247
 6936TIP3    H220745   7.045   3.411   4.126
 6937TIP3   OH220746   7.150   2.675   3.214
 6937TIP3    H120747   7.078   2.674   3.146
 6937TIP3    H220748   7.118   2.749   3.269
 6938TIP3   OH220749   7.020   2.348   3.170
 6938TIP3    H120750   6.977   2.384   3.092
 6938TIP3    H220751   6.995   2.253   3.162
 6939TIP3   OH220752   7.026   2.622   3.714
 6939TIP3    H120753   7.031   2.525   3.707
 6939TIP3    H220754   7.011   2.635   3.810
 6940TIP3   OH220755   5.657   2.647   4.478
 6940TIP3    H120756   5.639   2.666   4.384
 6940TIP3    H220757   5.752   2.673   4.485
 6941TIP3   OH220758   7.313   3.046   4.572
 6941TIP3    H120759   7.386   2.981   4.563
 6941TIP3    H220760   7.338   3.116   4.510
 6942TIP3   OH220761   7.499   2.852   4.588
 6942TIP3    H120762   7.424   2.802   4.627
 6942TIP3    H220763   7.571   2.788   4.603
 6943TIP3   OH220764   6.961   2.083   3.161
 6943TIP3    H120765   7.035   2.047   3.213
 6943TIP3    H220766   6.887   2.022   3.178
 6944TIP3   OH220767   7.022   2.339   3.611
 6944TIP3    H120768   7.061   2.250   3.627
 6944TIP3    H220769   7.079   2.369   3.538
 6945TIP3   OH220770   7.182   2.512   4.105
 6945TIP3    H120771   7.267   2.538   4.065
 6945TIP3    H220772   7.195   2.549   4.195
 6946TIP3   OH220773   7.251   2.657   4.338
 6946TIP3    H120774   7.172   2.690   4.385
 6946TIP3    H220775   7.283   2.737   4.292
 6947TIP3   OH220776   7.702   2.246   4.893
 6947TIP3    H120777   7.760   2.180   4.850
 6947TIP3    H220778   7.673   2.301   4.817
 6948TIP3   OH220779   7.129   2.088   3.648
 6948TIP3    H120780   7.177   2.071   3.731
 6948TIP3    H220781   7.068   2.011   3.646
 6949TIP3   OH220782   5.829   2.075   4.478
 6949TIP3    H120783   5.893   2.001   4.478
 6949TIP3    H220784   5.889   2.150   4.462
 6950TIP3   OH220785   5.641   2.359   4.557
 6950TIP3    H120786   5.687   2.337   4.473
 6950TIP3    H220787   5.647   2.456   4.551
 6951TIP3   OH220788   7.573   2.387   4.700
 6951TIP3    H120789   7.485   2.427   4.716
 6951TIP3    H220790   7.546   2.315   4.639
 6952TIP3   OH220791   7.212   2.021   3.282
 6952TIP3    H120792   7.248   1.949   3.225
 6952TIP3    H220793   7.278   2.092   3.271
 6953TIP3   OH220794   5.615   1.861   4.050
 6953TIP3    H120795   5.520   1.849   4.067
 6953TIP3    H220796   5.614   1.913   3.967
 6954TIP3   OH220797   6.780   3.550   3.549
 6954TIP3    H120798   6.827   3.539   3.464
 6954TIP3    H220799   6.826   3.625   3.588
 6955TIP3   OH220800   5.836   1.934   4.855
 6955TIP3    H120801   5.786   1.925   4.938
 6955TIP3    H220802   5.771   1.981   4.799
 6956TIP3   OH220803   5.877   3.351   4.935
 6956TIP3    H120804   5.784   3.329   4.915
 6956TIP3    H220805   5.879   3.346   5.031
 6957TIP3   OH220806   6.055   3.390   4.480
 6957TIP3    H120807   6.003   3.463   4.442
 6957TIP3    H220808   6.139   3.407   4.434
 6958TIP3   OH220809   6.499   3.633   4.617
 6958TIP3    H120810   6.540   3.637   4.706
 6958TIP3    H220811   6.564   3.686   4.565
 6959TIP3   OH220812   6.677   3.786   4.477
 6959TIP3    H120813   6.749   3.737   4.435
 6959TIP3    H220814   6.729   3.844   4.538
 6960TIP3   OH220815   7.470   2.149   4.579
 6960TIP3    H120816   7.381   2.144   4.541
 6960TIP3    H220817   7.502   2.057   4.565
 6961TIP3   OH220818   5.731   3.647   4.506
 6961TIP3    H120819   5.643   3.680   4.476
 6961TIP3    H220820   5.734   3.685   4.594
 6962TIP3   OH220821   5.966   3.625   4.361
 6962TIP3    H120822   5.880   3.639   4.406
 6962TIP3    H220823   5.946   3.660   4.271
 6963TIP3   OH220824   6.394   3.654   4.160
 6963TIP3    H120825   6.322   3.672   4.095
 6963TIP3    H220826   6.404   3.743   4.199
 6964TIP3   OH220827   6.661   3.594   4.210
 6964TIP3    H120828   6.566   3.610   4.192
 6964TIP3    H220829   6.701   3.671   4.167
 6965TIP3   OH220830   6.873   3.788   4.126
 6965TIP3    H120831   6.854   3.872   4.079
 6965TIP3    H220832   6.894   3.728   4.052
 6966TIP3   OH220833   5.645   3.446   4.242
 6966TIP3    H120834   5.661   3.416   4.334
 6966TIP3    H220835   5.717   3.398   4.196
 6967TIP3   OH220836   5.833   3.308   4.098
 6967TIP3    H120837   5.849   3.230   4.155
 6967TIP3    H220838   5.922   3.349   4.097
 6968TIP3   OH220839   6.096   3.405   4.109
 6968TIP3    H120840   6.133   3.316   4.098
 6968TIP3    H220841   6.140   3.432   4.191
 6969TIP3   OH220842   6.680   2.067   4.199
 6969TIP3    H120843   6.634   1.996   4.247
 6969TIP3    H220844   6.749   2.018   4.150
 6970TIP3   OH220845   7.200   1.946   4.103
 6970TIP3    H120846   7.238   1.997   4.028
 6970TIP3    H220847   7.105   1.962   4.093
 6971TIP3   OH220848   7.295   2.046   3.866
 6971TIP3    H120849   7.368   1.994   3.825
 6971TIP3    H220850   7.328   2.137   3.850
 6972TIP3   OH220851   5.924   1.775   4.214
 6972TIP3    H120852   5.831   1.744   4.211
 6972TIP3    H220853   5.971   1.689   4.206
 6973TIP3   OH220854   5.723   1.642   3.863
 6973TIP3    H120855   5.746   1.697   3.786
 6973TIP3    H220856   5.684   1.707   3.923
 6974TIP3   OH220857   6.372   1.803   4.094
 6974TIP3    H120858   6.426   1.851   4.029
 6974TIP3    H220859   6.392   1.850   4.176
 6975TIP3   OH220860   6.917   1.952   4.075
 6975TIP3    H120861   6.914   1.916   3.986
 6975TIP3    H220862   6.902   1.871   4.130
 6976TIP3   OH220863   6.946   1.875   3.639
 6976TIP3    H120864   6.859   1.916   3.647
 6976TIP3    H220865   6.930   1.789   3.684
 6977TIP3   OH220866   5.417   3.187   3.663
 6977TIP3    H120867   5.335   3.177   3.611
 6977TIP3    H220868   5.433   3.282   3.648
 6978TIP3   OH220869   5.828   1.799   3.626
 6978TIP3    H120870   5.876   1.738   3.566
 6978TIP3    H220871   5.902   1.853   3.660
 6979TIP3   OH220872   6.341   1.977   3.722
 6979TIP3    H120873   6.402   1.930   3.780
 6979TIP3    H220874   6.364   2.070   3.747
 6980TIP3   OH220875   6.202   3.402   3.223
 6980TIP3    H120876   6.289   3.426   3.184
 6980TIP3    H220877   6.179   3.328   3.162
 6981TIP3   OH220878   6.922   3.521   3.314
 6981TIP3    H120879   6.915   3.423   3.302
 6981TIP3    H220880   6.874   3.553   3.235
 6982TIP3   OH220881   6.135   2.054   5.093
 6982TIP3    H120882   6.096   1.989   5.153
 6982TIP3    H220883   6.227   2.056   5.126
 6983TIP3   OH220884   6.379   2.050   5.221
 6983TIP3    H120885   6.466   2.029   5.185
 6983TIP3    H220886   6.367   1.982   5.290
 6984TIP3   OH220887   5.502   3.231   3.279
 6984TIP3    H120888   5.504   3.282   3.361
 6984TIP3    H220889   5.594   3.198   3.270
 6985TIP3   OH220890   7.208   2.111   5.010
 6985TIP3    H120891   7.229   2.081   5.101
 6985TIP3    H220892   7.296   2.109   4.967
 6986TIP3   OH220893   7.148   3.665   4.500
 6986TIP3    H120894   7.068   3.633   4.452
 6986TIP3    H220895   7.127   3.760   4.505
 6987TIP3   OH220896   7.715   2.934   4.008
 6987TIP3    H120897   7.734   2.862   4.071
 6987TIP3    H220898   7.786   2.996   4.031
 6988TIP3   OH220899   7.679   3.342   3.736
 6988TIP3    H120900   7.669   3.245   3.741
 6988TIP3    H220901   7.774   3.352   3.751
 6989TIP3   OH220902   7.390   2.552   3.524
 6989TIP3    H120903   7.332   2.629   3.540
 6989TIP3    H220904   7.324   2.489   3.489
 6990TIP3   OH220905   7.452   2.834   3.702
 6990TIP3    H120906   7.497   2.755   3.740
 6990TIP3    H220907   7.489   2.836   3.613
 6991TIP3   OH220908   8.308   3.759   3.338
 6991TIP3    H120909   8.403   3.734   3.338
 6991TIP3    H220910   8.297   3.783   3.431
 6992TIP3   OH220911   8.213   3.258   3.692
 6992TIP3    H120912   8.238   3.206   3.615
 6992TIP3    H220913   8.294   3.308   3.713
 6993TIP3   OH220914   7.929   2.433   3.702
 6993TIP3    H120915   7.957   2.489   3.630
 6993TIP3    H220916   7.904   2.351   3.655
 6994TIP3   OH220917   7.595   2.625   3.800
 6994TIP3    H120918   7.676   2.604   3.852
 6994TIP3    H220919   7.608   2.566   3.724
 6995TIP3   OH220920   8.023   2.843   3.584
 6995TIP3    H120921   8.110   2.801   3.600
 6995TIP3    H220922   7.970   2.766   3.555
 6996TIP3   OH220923   7.959   2.415   4.138
 6996TIP3    H120924   7.899   2.445   4.067
 6996TIP3    H220925   7.905   2.433   4.217
 6997TIP3   OH220926   8.067   3.180   3.931
 6997TIP3    H120927   7.999   3.238   3.972
 6997TIP3    H220928   8.107   3.242   3.867
 6998TIP3   OH220929   7.821   2.527   3.926
 6998TIP3    H120930   7.889   2.595   3.947
 6998TIP3    H220931   7.863   2.485   3.847
 6999TIP3   OH220932   7.890   3.372   4.017
 6999TIP3    H120933   7.867   3.462   3.985
 6999TIP3    H220934   7.812   3.356   4.076
 7000TIP3   OH220935   7.299   3.060   3.254
 7000TIP3    H120936   7.248   3.082   3.173
 7000TIP3    H220937   7.317   3.149   3.291
 7001TIP3   OH220938   7.957   3.393   3.634
 7001TIP3    H120939   7.926   3.350   3.553
 7001TIP3    H220940   8.040   3.346   3.656
 7002TIP3   OH220941   7.964   2.941   3.835
 7002TIP3    H120942   7.996   2.918   3.745
 7002TIP3    H220943   8.004   3.028   3.854
 7003TIP3   OH220944   8.094   3.493   4.170
 7003TIP3    H120945   8.036   3.559   4.215
 7003TIP3    H220946   8.027   3.442   4.120
 7004TIP3   OH220947   7.845   3.063   4.258
 7004TIP3    H120948   7.850   3.147   4.309
 7004TIP3    H220949   7.753   3.036   4.279
 7005TIP3   OH220950   8.173   3.568   3.167
 7005TIP3    H120951   8.175   3.569   3.263
 7005TIP3    H220952   8.092   3.521   3.143
 7006TIP3   OH220953   7.891   3.663   4.253
 7006TIP3    H120954   7.853   3.664   4.163
 7006TIP3    H220955   7.812   3.643   4.308
 7007TIP3   OH220956   7.471   3.196   4.198
 7007TIP3    H120957   7.402   3.175   4.132
 7007TIP3    H220958   7.506   3.108   4.223
 7008TIP3   OH220959   7.324   3.388   3.834
 7008TIP3    H120960   7.420   3.393   3.828
 7008TIP3    H220961   7.303   3.469   3.883
 7009TIP3   OH220962   8.283   3.613   4.013
 7009TIP3    H120963   8.289   3.705   4.048
 7009TIP3    H220964   8.215   3.576   4.072
 7010TIP3   OH220965   8.018   3.765   2.963
 7010TIP3    H120966   7.999   3.732   2.873
 7010TIP3    H220967   7.981   3.855   2.961
 7011TIP3   OH220968   7.495   3.604   3.356
 7011TIP3    H120969   7.539   3.594   3.443
 7011TIP3    H220970   7.431   3.531   3.359
 7012TIP3   OH220971   0.136   5.330   4.550
 7012TIP3    H120972   0.084   5.297   4.473
 7012TIP3    H220973   0.187   5.248   4.564
 7013TIP3   OH220974   7.678   3.376   4.186
 7013TIP3    H120975   7.725   3.363   4.271
 7013TIP3    H220976   7.602   3.314   4.195
 7014TIP3   OH220977   8.061   2.194   3.992
 7014TIP3    H120978   7.974   2.170   3.955
 7014TIP3    H220979   8.044   2.282   4.026
 7015TIP3   OH220980   7.999   2.725   3.993
 7015TIP3    H120981   7.947   2.743   4.074
 7015TIP3    H220982   7.978   2.805   3.939
 7016TIP3   OH220983   7.863   2.635   3.474
 7016TIP3    H120984   7.792   2.581   3.516
 7016TIP3    H220985   7.895   2.573   3.405
 7017TIP3   OH220986   7.814   2.746   4.200
 7017TIP3    H120987   7.860   2.801   4.265
 7017TIP3    H220988   7.807   2.661   4.248
 7018TIP3   OH220989   7.863   2.185   2.901
 7018TIP3    H120990   7.843   2.205   2.994
 7018TIP3    H220991   7.805   2.248   2.855
 7019TIP3   OH220992   7.418   2.271   3.779
 7019TIP3    H120993   7.495   2.299   3.832
 7019TIP3    H220994   7.457   2.230   3.700
 7020TIP3   OH220995   7.394   2.252   3.302
 7020TIP3    H120996   7.435   2.290   3.221
 7020TIP3    H220997   7.329   2.322   3.322
 7021TIP3   OH220998   7.653   2.483   3.567
 7021TIP3    H120999   7.557   2.487   3.544
 7021TIP3    H221000   7.675   2.389   3.557
 7022TIP3   OH221001   7.940   2.495   3.246
 7022TIP3    H121002   8.020   2.476   3.195
 7022TIP3    H221003   7.874   2.504   3.173
 7023TIP3   OH221004   7.764   2.518   3.045
 7023TIP3    H121005   7.699   2.465   2.993
 7023TIP3    H221006   7.820   2.551   2.971
 7024TIP3   OH221007   7.839   3.300   4.409
 7024TIP3    H121008   7.917   3.331   4.459
 7024TIP3    H221009   7.772   3.300   4.482
 7025TIP3   OH221010   7.822   2.240   3.536
 7025TIP3    H121011   7.788   2.168   3.594
 7025TIP3    H221012   7.866   2.188   3.467
 7026TIP3   OH221013   8.267   2.650   3.994
 7026TIP3    H121014   8.175   2.679   3.978
 7026TIP3    H221015   8.314   2.732   4.011
 7027TIP3   OH221016   7.985   3.070   3.049
 7027TIP3    H121017   7.992   2.977   3.025
 7027TIP3    H221018   7.991   3.070   3.146
 7028TIP3   OH221019   8.375   3.333   4.076
 7028TIP3    H121020   8.408   3.319   4.165
 7028TIP3    H221021   8.360   3.428   4.074
 7029TIP3   OH221022   7.713   3.063   3.735
 7029TIP3    H121023   7.770   3.011   3.677
 7029TIP3    H221024   7.718   3.011   3.817
 7030TIP3   OH221025   8.121   3.187   2.838
 7030TIP3    H121026   8.112   3.281   2.864
 7030TIP3    H221027   8.092   3.144   2.920
 7031TIP3   OH221028   7.588   2.983   4.336
 7031TIP3    H121029   7.607   2.969   4.431
 7031TIP3    H221030   7.518   2.917   4.320
 7032TIP3   OH221031   8.315   3.096   4.357
 7032TIP3    H121032   8.259   3.044   4.297
 7032TIP3    H221033   8.401   3.056   4.342
 7033TIP3   OH221034   7.810   3.361   3.345
 7033TIP3    H121035   7.805   3.445   3.293
 7033TIP3    H221036   7.716   3.349   3.363
 7034TIP3   OH221037   7.373   2.670   3.056
 7034TIP3    H121038   7.410   2.758   3.073
 7034TIP3    H221039   7.291   2.673   3.111
 7035TIP3   OH221040   7.913   3.096   3.318
 7035TIP3    H121041   7.885   3.188   3.299
 7035TIP3    H221042   7.944   3.104   3.409
 7036TIP3   OH221043   8.075   3.708   3.819
 7036TIP3    H121044   8.111   3.786   3.773
 7036TIP3    H221045   8.151   3.680   3.873
 7037TIP3   OH221046   7.736   3.602   3.211
 7037TIP3    H121047   7.647   3.613   3.249
 7037TIP3    H221048   7.766   3.695   3.207
 7038TIP3   OH221049   7.796   2.494   4.349
 7038TIP3    H121050   7.699   2.492   4.359
 7038TIP3    H221051   7.824   2.430   4.416
 7039TIP3   OH221052   7.520   3.572   3.976
 7039TIP3    H121053   7.567   3.499   4.018
 7039TIP3    H221054   7.537   3.645   4.037
 7040TIP3   OH221055   7.805   3.218   2.663
 7040TIP3    H121056   7.815   3.129   2.627
 7040TIP3    H221057   7.784   3.200   2.757
 7041TIP3   OH221058   7.758   3.220   2.941
 7041TIP3    H121059   7.849   3.202   2.972
 7041TIP3    H221060   7.756   3.319   2.942
 7042TIP3   OH221061   7.532   2.932   3.157
 7042TIP3    H121062   7.451   2.962   3.203
 7042TIP3    H221063   7.524   2.990   3.078
 7043TIP3   OH221064   8.022   3.431   2.906
 7043TIP3    H121065   7.931   3.467   2.902
 7043TIP3    H221066   8.066   3.477   2.832
 7044TIP3   OH221067   7.752   3.495   2.943
 7044TIP3    H121068   7.725   3.565   2.878
 7044TIP3    H221069   7.740   3.542   3.028
 7045TIP3   OH221070   7.864   2.212   3.185
 7045TIP3    H121071   7.848   2.299   3.225
 7045TIP3    H221072   7.950   2.226   3.141
 7046TIP3   OH221073   7.480   3.119   2.947
 7046TIP3    H121074   7.536   3.198   2.951
 7046TIP3    H221075   7.523   3.072   2.872
 7047TIP3   OH221076   7.424   2.401   3.077
 7047TIP3    H121077   7.416   2.499   3.071
 7047TIP3    H221078   7.349   2.371   3.024
 7048TIP3   OH221079   7.794   2.124   3.948
 7048TIP3    H121080   7.780   2.086   3.859
 7048TIP3    H221081   7.794   2.045   4.005
 7049TIP3   OH221082   7.349   3.335   3.326
 7049TIP3    H121083   7.282   3.368   3.388
 7049TIP3    H221084   7.320   3.379   3.243
 7050TIP3   OH221085   7.505   3.882   4.398
 7050TIP3    H121086   7.591   3.882   4.447
 7050TIP3    H221087   7.484   3.787   4.399
 7051TIP3   OH221088   7.986   3.848   4.442
 7051TIP3    H121089   8.080   3.829   4.454
 7051TIP3    H221090   7.963   3.788   4.369
 7052TIP3   OH221091   7.961   3.429   2.573
 7052TIP3    H121092   7.920   3.347   2.607
 7052TIP3    H221093   8.055   3.419   2.601
 7053TIP3   OH221094   7.637   3.288   4.599
 7053TIP3    H121095   7.651   3.192   4.605
 7053TIP3    H221096   7.548   3.291   4.555
 7054TIP3   OH221097   7.610   2.944   2.783
 7054TIP3    H121098   7.654   2.876   2.835
 7054TIP3    H221099   7.675   2.954   2.710
 7055TIP3   OH221100   8.259   3.374   4.368
 7055TIP3    H121101   8.205   3.389   4.287
 7055TIP3    H221102   8.273   3.277   4.367
 7056TIP3   OH221103   8.105   3.116   2.580
 7056TIP3    H121104   8.121   3.164   2.665
 7056TIP3    H221105   8.056   3.041   2.614
 7057TIP3   OH221106   7.757   3.021   4.580
 7057TIP3    H121107   7.831   2.962   4.562
 7057TIP3    H221108   7.782   3.056   4.668
 7058TIP3   OH221109   8.058   2.894   4.259
 7058TIP3    H121110   7.989   2.964   4.260
 7058TIP3    H221111   8.119   2.931   4.192
 7059TIP3   OH221112   7.927   2.633   2.856
 7059TIP3    H121113   7.889   2.637   2.766
 7059TIP3    H221114   8.021   2.615   2.832
 7060TIP3   OH221115   8.218   2.699   4.368
 7060TIP3    H121116   8.220   2.613   4.321
 7060TIP3    H221117   8.155   2.751   4.314
 7061TIP3   OH221118   8.224   2.474   4.192
 7061TIP3    H121119   8.233   2.521   4.107
 7061TIP3    H221120   8.136   2.434   4.181
 7062TIP3   OH221121   8.220   3.012   4.085
 7062TIP3    H121122   8.287   2.993   4.018
 7062TIP3    H221123   8.166   3.081   4.040
 7063TIP3   OH221124   8.092   2.811   4.597
 7063TIP3    H121125   8.025   2.740   4.612
 7063TIP3    H221126   8.128   2.784   4.510
 7064TIP3   OH221127   7.930   2.590   4.652
 7064TIP3    H121128   7.938   2.501   4.614
 7064TIP3    H221129   7.966   2.576   4.742
 7065TIP3   OH221130   7.730   3.699   2.759
 7065TIP3    H121131   7.825   3.700   2.737
 7065TIP3    H221132   7.696   3.748   2.682
 7066TIP3   OH221133   7.208   3.077   2.980
 7066TIP3    H121134   7.303   3.099   2.963
 7066TIP3    H221135   7.199   2.991   2.935
 7067TIP3   OH221136   7.126   3.693   3.388
 7067TIP3    H121137   7.057   3.633   3.351
 7067TIP3    H221138   7.168   3.634   3.454
 7068TIP3   OH221139   7.263   3.543   3.574
 7068TIP3    H121140   7.243   3.473   3.638
 7068TIP3    H221141   7.310   3.606   3.632
 7069TIP3   OH221142   7.447   2.951   3.951
 7069TIP3    H121143   7.444   2.920   3.858
 7069TIP3    H221144   7.544   2.952   3.967
 7070TIP3   OH221145   7.663   2.639   4.625
 7070TIP3    H121146   7.760   2.632   4.624
 7070TIP3    H221147   7.640   2.553   4.665
 7071TIP3   OH221148   7.620   2.335   3.956
 7071TIP3    H121149   7.679   2.256   3.963
 7071TIP3    H221150   7.686   2.406   3.953
 7072TIP3   OH221151   7.427   2.605   4.027
 7072TIP3    H121152   7.477   2.594   3.944
 7072TIP3    H221153   7.460   2.690   4.058
 7073TIP3   OH221154   7.411   2.113   3.532
 7073TIP3    H121155   7.316   2.105   3.553
 7073TIP3    H221156   7.409   2.168   3.451
 7074TIP3   OH221157   7.629   2.196   4.346
 7074TIP3    H121158   7.576   2.187   4.427
 7074TIP3    H221159   7.563   2.228   4.283
 7075TIP3   OH221160   7.673   3.611   4.418
 7075TIP3    H121161   7.579   3.588   4.403
 7075TIP3    H221162   7.681   3.599   4.513
 7076TIP3   OH221163   7.850   3.642   3.965
 7076TIP3    H121164   7.798   3.716   3.928
 7076TIP3    H221165   7.935   3.660   3.920
 7077TIP3   OH221166   8.282   3.876   4.107
 7077TIP3    H121167   8.327   3.882   4.194
 7077TIP3    H221168   8.333   3.939   4.052
 7078TIP3   OH221169   8.423   4.040   3.932
 7078TIP3    H121170   8.476   4.033   3.850
 7078TIP3    H221171   8.467   4.113   3.978
 7079TIP3   OH221172   7.527   3.904   3.991
 7079TIP3    H121173   7.438   3.936   3.966
 7079TIP3    H221174   7.535   3.944   4.079
 7080TIP3   OH221175   7.761   3.879   3.846
 7080TIP3    H121176   7.676   3.893   3.893
 7080TIP3    H221177   7.740   3.916   3.758
 7081TIP3   OH221178   8.164   3.919   3.649
 7081TIP3    H121179   8.089   3.934   3.588
 7081TIP3    H221180   8.177   4.009   3.685
 7082TIP3   OH221181   8.412   3.818   3.627
 7082TIP3    H121182   8.322   3.855   3.638
 7082TIP3    H221183   8.466   3.892   3.664
 7083TIP3   OH221184   7.439   3.700   3.734
 7083TIP3    H121185   7.464   3.674   3.825
 7083TIP3    H221186   7.510   3.655   3.683
 7084TIP3   OH221187   7.631   3.570   3.590
 7084TIP3    H121188   7.646   3.487   3.642
 7084TIP3    H221189   7.721   3.607   3.586
 7085TIP3   OH221190   7.898   3.664   3.594
 7085TIP3    H121191   7.926   3.571   3.593
 7085TIP3    H221192   7.939   3.692   3.678
 7086TIP3   OH221193   7.724   2.034   3.692
 7086TIP3    H121194   7.633   1.997   3.697
 7086TIP3    H221195   7.775   1.950   3.688
 7087TIP3   OH221196   7.513   1.899   3.340
 7087TIP3    H121197   7.538   1.959   3.268
 7087TIP3    H221198   7.482   1.961   3.409
 7088TIP3   OH221199   7.227   3.471   3.128
 7088TIP3    H121200   7.141   3.437   3.094
 7088TIP3    H221201   7.216   3.565   3.105
 7089TIP3   OH221202   7.621   2.058   3.116
 7089TIP3    H121203   7.664   1.999   3.049
 7089TIP3    H221204   7.697   2.109   3.149
 7090TIP3   OH221205   7.993   3.673   2.701
 7090TIP3    H121206   8.088   3.661   2.681
 7090TIP3    H221207   7.961   3.597   2.648
 7091TIP3   OH221208   7.923   2.312   4.585
 7091TIP3    H121209   7.891   2.241   4.643
 7091TIP3    H221210   8.017   2.315   4.611
 7092TIP3   OH221211   8.162   2.312   4.715
 7092TIP3    H121212   8.241   2.275   4.669
 7092TIP3    H221213   8.148   2.241   4.781
 7093TIP3   OH221214   7.302   3.495   2.764
 7093TIP3    H121215   7.300   3.525   2.856
 7093TIP3    H221216   7.392   3.455   2.756
 7094TIP3   OH221217   0.865   3.825   4.959
 7094TIP3    H121218   0.835   3.916   4.938
 7094TIP3    H221219   0.790   3.774   4.925
 7095TIP3   OH221220   0.862   3.827   5.340
 7095TIP3    H121221   0.895   3.795   5.426
 7095TIP3    H221222   0.822   3.747   5.303
 7096TIP3   OH221223   0.192   3.706   5.670
 7096TIP3    H121224   0.178   3.649   5.747
 7096TIP3    H221225   0.242   3.779   5.707
 7097TIP3   OH221226   1.107   4.128   5.021
 7097TIP3    H121227   1.093   4.054   5.081
 7097TIP3    H221228   1.137   4.198   5.080
 7098TIP3   OH221229   0.138   4.113   5.369
 7098TIP3    H121230   0.123   4.018   5.390
 7098TIP3    H221231   0.226   4.125   5.406
 7099TIP3   OH221232  -0.094   3.613   5.348
 7099TIP3    H121233  -0.054   3.572   5.427
 7099TIP3    H221234  -0.024   3.673   5.320
 7100TIP3   OH221235   0.758   4.590   5.042
 7100TIP3    H121236   0.800   4.522   4.984
 7100TIP3    H221237   0.756   4.543   5.126
 7101TIP3   OH221238   0.664   4.052   5.387
 7101TIP3    H121239   0.700   3.972   5.344
 7101TIP3    H221240   0.749   4.095   5.411
 7102TIP3   OH221241   1.674   3.370   5.384
 7102TIP3    H121242   1.705   3.453   5.426
 7102TIP3    H221243   1.703   3.385   5.292
 7103TIP3   OH221244   1.074   3.553   5.420
 7103TIP3    H121245   1.117   3.468   5.441
 7103TIP3    H221246   1.044   3.537   5.329
 7104TIP3   OH221247   0.415   3.212   5.385
 7104TIP3    H121248   0.394   3.284   5.322
 7104TIP3    H221249   0.368   3.138   5.341
 7105TIP3   OH221250   1.107   3.304   5.007
 7105TIP3    H121251   1.178   3.287   5.073
 7105TIP3    H221252   1.160   3.338   4.933
 7106TIP3   OH221253   0.051   3.416   5.494
 7106TIP3    H121254   0.131   3.403   5.548
 7106TIP3    H221255   0.076   3.369   5.412
 7107TIP3   OH221256   0.491   3.612   5.271
 7107TIP3    H121257   0.583   3.586   5.294
 7107TIP3    H221258   0.451   3.526   5.248
 7108TIP3   OH221259   1.749   3.577   5.556
 7108TIP3    H121260   1.666   3.624   5.536
 7108TIP3    H221261   1.766   3.606   5.647
 7109TIP3   OH221262   0.410   3.193   5.822
 7109TIP3    H121263   0.354   3.235   5.754
 7109TIP3    H221264   0.358   3.213   5.902
 7110TIP3   OH221265   0.755   4.046   4.829
 7110TIP3    H121266   0.716   4.024   4.744
 7110TIP3    H221267   0.708   4.128   4.852
 7111TIP3   OH221268   0.516   3.975   5.618
 7111TIP3    H121269   0.454   4.039   5.660
 7111TIP3    H221270   0.555   4.027   5.545
 7112TIP3   OH221271   1.316   3.305   5.179
 7112TIP3    H121272   1.312   3.254   5.260
 7112TIP3    H221273   1.373   3.380   5.204
 7113TIP3   OH221274   0.286   3.309   5.605
 7113TIP3    H121275   0.345   3.384   5.629
 7113TIP3    H221276   0.338   3.272   5.529
 7114TIP3   OH221277   0.331   4.156   5.734
 7114TIP3    H121278   0.278   4.210   5.672
 7114TIP3    H221279   0.259   4.115   5.785
 7115TIP3   OH221280   1.178   4.371   5.191
 7115TIP3    H121281   1.088   4.359   5.230
 7115TIP3    H221282   1.166   4.455   5.144
 7116TIP3   OH221283   1.469   3.271   5.551
 7116TIP3    H121284   1.382   3.300   5.519
 7116TIP3    H221285   1.529   3.304   5.480
 7117TIP3   OH221286   0.765   2.914   5.531
 7117TIP3    H121287   0.754   2.819   5.549
 7117TIP3    H221288   0.688   2.951   5.579
 7118TIP3   OH221289   0.876   4.419   4.863
 7118TIP3    H121290   0.924   4.335   4.844
 7118TIP3    H221291   0.939   4.482   4.820
 7119TIP3   OH221292   1.018   4.204   4.771
 7119TIP3    H121293   0.993   4.124   4.723
 7119TIP3    H221294   1.055   4.167   4.854
 7120TIP3   OH221295   1.403   4.285   5.531
 7120TIP3    H121296   1.393   4.205   5.474
 7120TIP3    H221297   1.390   4.357   5.466
 7121TIP3   OH221298   0.697   3.678   4.789
 7121TIP3    H121299   0.616   3.729   4.765
 7121TIP3    H221300   0.743   3.672   4.703
 7122TIP3   OH221301   0.654   3.459   4.508
 7122TIP3    H121302   0.723   3.512   4.553
 7122TIP3    H221303   0.711   3.396   4.459
 7123TIP3   OH221304   1.598   3.919   5.376
 7123TIP3    H121305   1.516   3.972   5.381
 7123TIP3    H221306   1.628   3.941   5.285
 7124TIP3   OH221307   1.043   3.760   4.760
 7124TIP3    H121308   0.989   3.783   4.840
 7124TIP3    H221309   1.127   3.733   4.803
 7125TIP3   OH221310   1.278   3.799   5.672
 7125TIP3    H121311   1.275   3.882   5.723
 7125TIP3    H221312   1.191   3.802   5.627
 7126TIP3   OH221313   0.278   3.755   5.175
 7126TIP3    H121314   0.235   3.696   5.110
 7126TIP3    H221315   0.357   3.702   5.202
 7127TIP3   OH221316   0.421   4.184   5.320
 7127TIP3    H121317   0.386   4.130   5.248
 7127TIP3    H221318   0.508   4.141   5.337
 7128TIP3   OH221319   0.455   3.720   5.528
 7128TIP3    H121320   0.462   3.712   5.431
 7128TIP3    H221321   0.468   3.815   5.545
 7129TIP3   OH221322   0.935   4.367   5.309
 7129TIP3    H121323   0.927   4.443   5.368
 7129TIP3    H221324   0.922   4.290   5.369
 7130TIP3   OH221325   0.547   4.291   5.851
 7130TIP3    H121326   0.493   4.348   5.909
 7130TIP3    H221327   0.477   4.234   5.812
 7131TIP3   OH221328   0.883   3.618   4.587
 7131TIP3    H121329   0.943   3.677   4.638
 7131TIP3    H221330   0.909   3.641   4.494
 7132TIP3   OH221331   0.294   3.843   5.956
 7132TIP3    H121332   0.298   3.925   6.009
 7132TIP3    H221333   0.199   3.838   5.940
 7133TIP3   OH221334   0.624   4.300   4.867
 7133TIP3    H121335   0.706   4.350   4.877
 7133TIP3    H221336   0.568   4.361   4.816
 7134TIP3   OH221337   0.329   4.463   5.942
 7134TIP3    H121338   0.310   4.460   5.847
 7134TIP3    H221339   0.255   4.413   5.980
 7135TIP3   OH221340   1.399   2.858   4.634
 7135TIP3    H121341   1.318   2.879   4.685
 7135TIP3    H221342   1.413   2.942   4.585
 7136TIP3   OH221343   0.145   3.596   4.985
 7136TIP3    H121344   0.085   3.633   4.918
 7136TIP3    H221345   0.108   3.508   4.998
 7137TIP3   OH221346   1.199   4.225   4.186
 7137TIP3    H121347   1.208   4.321   4.168
 7137TIP3    H221348   1.291   4.195   4.171
 7138TIP3   OH221349   1.639   4.626   5.573
 7138TIP3    H121350   1.640   4.530   5.590
 7138TIP3    H221351   1.558   4.651   5.622
 7139TIP3   OH221352   0.744   4.417   5.708
 7139TIP3    H121353   0.746   4.508   5.745
 7139TIP3    H221354   0.675   4.375   5.764
 7140TIP3   OH221355   0.504   4.541   4.665
 7140TIP3    H121356   0.464   4.520   4.579
 7140TIP3    H221357   0.476   4.634   4.679
 7141TIP3   OH221358   0.711   4.446   4.304
 7141TIP3    H121359   0.769   4.375   4.266
 7141TIP3    H221360   0.746   4.452   4.395
 7142TIP3   OH221361   0.758   4.494   4.577
 7142TIP3    H121362   0.669   4.501   4.617
 7142TIP3    H221363   0.806   4.445   4.645
 7143TIP3   OH221364   1.529   3.758   5.853
 7143TIP3    H121365   1.450   3.769   5.798
 7143TIP3    H221366   1.547   3.662   5.842
 7144TIP3   OH221367   0.528   2.989   5.662
 7144TIP3    H121368   0.439   2.957   5.636
 7144TIP3    H221369   0.502   3.071   5.708
 7145TIP3   OH221370   1.061   3.106   5.856
 7145TIP3    H121371   1.130   3.077   5.920
 7145TIP3    H221372   0.978   3.085   5.903
 7146TIP3   OH221373   1.299   3.533   5.774
 7146TIP3    H121374   1.250   3.531   5.859
 7146TIP3    H221375   1.276   3.621   5.739
 7147TIP3   OH221376   0.961   3.667   4.332
 7147TIP3    H121377   0.926   3.640   4.245
 7147TIP3    H221378   1.043   3.711   4.306
 7148TIP3   OH221379   0.673   3.039   4.634
 7148TIP3    H121380   0.639   3.035   4.725
 7148TIP3    H221381   0.634   2.957   4.599
 7149TIP3   OH221382   0.459   3.503   5.685
 7149TIP3    H121383   0.403   3.528   5.761
 7149TIP3    H221384   0.451   3.584   5.629
 7150TIP3   OH221385   0.341   3.390   5.194
 7150TIP3    H121386   0.247   3.367   5.208
 7150TIP3    H221387   0.356   3.351   5.106
 7151TIP3   OH221388   0.833   3.477   4.922
 7151TIP3    H121389   0.781   3.548   4.879
 7151TIP3    H221390   0.888   3.446   4.847
 7152TIP3   OH221391   1.008   3.757   6.010
 7152TIP3    H121392   0.986   3.683   6.071
 7152TIP3    H221393   1.103   3.769   6.030
 7153TIP3   OH221394   0.990   3.507   5.161
 7153TIP3    H121395   0.930   3.535   5.089
 7153TIP3    H221396   1.025   3.425   5.119
 7154TIP3   OH221397   0.284   3.528   5.897
 7154TIP3    H121398   0.296   3.599   5.961
 7154TIP3    H221399   0.276   3.449   5.954
 7155TIP3   OH221400   0.330   3.011   4.598
 7155TIP3    H121401   0.319   3.011   4.695
 7155TIP3    H221402   0.247   3.055   4.570
 7156TIP3   OH221403  -0.116   3.085   5.464
 7156TIP3    H121404  -0.033   3.086   5.516
 7156TIP3    H221405  -0.102   3.012   5.401
 7157TIP3   OH221406  -0.134   3.084   5.020
 7157TIP3    H121407  -0.103   3.093   4.927
 7157TIP3    H221408  -0.148   3.177   5.042
 7158TIP3   OH221409   1.001   3.753   5.585
 7158TIP3    H121410   1.034   3.681   5.526
 7158TIP3    H221411   0.972   3.700   5.662
 7159TIP3   OH221412   0.670   3.217   5.256
 7159TIP3    H121413   0.589   3.213   5.311
 7159TIP3    H221414   0.740   3.211   5.323
 7160TIP3   OH221415   0.102   3.260   5.260
 7160TIP3    H121416   0.010   3.231   5.260
 7160TIP3    H221417   0.150   3.176   5.245
 7161TIP3   OH221418   0.373   3.267   4.951
 7161TIP3    H121419   0.468   3.280   4.933
 7161TIP3    H221420   0.329   3.289   4.866
 7162TIP3   OH221421   1.162   3.291   5.459
 7162TIP3    H121422   1.125   3.302   5.550
 7162TIP3    H221423   1.098   3.229   5.421
 7163TIP3   OH221424   0.212   3.304   4.728
 7163TIP3    H121425   0.148   3.256   4.672
 7163TIP3    H221426   0.269   3.342   4.658
 7164TIP3   OH221427   1.331   4.980   5.677
 7164TIP3    H121428   1.333   5.004   5.583
 7164TIP3    H221429   1.412   5.023   5.710
 7165TIP3   OH221430   0.286   4.078   6.116
 7165TIP3    H121431   0.364   4.111   6.165
 7165TIP3    H221432   0.215   4.126   6.162
 7166TIP3   OH221433   0.753   3.543   5.353
 7166TIP3    H121434   0.826   3.503   5.302
 7166TIP3    H221435   0.761   3.500   5.440
 7167TIP3   OH221436   0.273   3.034   5.231
 7167TIP3    H121437   0.241   2.953   5.277
 7167TIP3    H221438   0.326   2.996   5.160
 7168TIP3   OH221439   0.729   3.437   5.644
 7168TIP3    H121440   0.639   3.474   5.657
 7168TIP3    H221441   0.786   3.499   5.694
 7169TIP3   OH221442   0.464   3.831   4.736
 7169TIP3    H121443   0.393   3.764   4.727
 7169TIP3    H221444   0.448   3.862   4.828
 7170TIP3   OH221445   1.366   4.067   5.368
 7170TIP3    H121446   1.390   4.115   5.286
 7170TIP3    H221447   1.282   4.023   5.343
 7171TIP3   OH221448   0.925   3.141   4.601
 7171TIP3    H121449   0.828   3.125   4.608
 7171TIP3    H221450   0.934   3.236   4.624
 7172TIP3   OH221451   0.871   4.152   5.733
 7172TIP3    H121452   0.889   4.120   5.822
 7172TIP3    H221453   0.826   4.236   5.748
 7173TIP3   OH221454   0.994   3.390   4.704
 7173TIP3    H121455   1.091   3.394   4.720
 7173TIP3    H221456   0.977   3.469   4.650
 7174TIP3   OH221457   0.166   3.846   5.418
 7174TIP3    H121458   0.210   3.800   5.345
 7174TIP3    H221459   0.172   3.783   5.493
 7175TIP3   OH221460   0.612   3.980   4.560
 7175TIP3    H121461   0.564   4.066   4.567
 7175TIP3    H221462   0.557   3.924   4.619
 7176TIP3   OH221463   0.764   3.886   6.049
 7176TIP3    H121464   0.703   3.828   6.000
 7176TIP3    H221465   0.851   3.851   6.019
 7177TIP3   OH221466   1.025   4.419   5.624
 7177TIP3    H121467   0.931   4.406   5.641
 7177TIP3    H221468   1.054   4.462   5.707
 7178TIP3   OH221469   1.434   3.479   4.541
 7178TIP3    H121470   1.372   3.434   4.478
 7178TIP3    H221471   1.432   3.568   4.499
 7179TIP3   OH221472   1.654   4.339   5.619
 7179TIP3    H121473   1.556   4.331   5.612
 7179TIP3    H221474   1.680   4.307   5.530
 7180TIP3   OH221475   1.136   4.297   4.449
 7180TIP3    H121476   1.113   4.223   4.506
 7180TIP3    H221477   1.150   4.254   4.362
 7181TIP3   OH221478   1.132   3.928   5.286
 7181TIP3    H121479   1.039   3.902   5.299
 7181TIP3    H221480   1.167   3.848   5.242
 7182TIP3   OH221481   0.266   4.155   5.038
 7182TIP3    H121482   0.261   4.233   4.979
 7182TIP3    H221483   0.175   4.144   5.067
 7183TIP3   OH221484  -0.174   3.465   4.755
 7183TIP3    H121485  -0.117   3.544   4.766
 7183TIP3    H221486  -0.261   3.503   4.770
 7184TIP3   OH221487   0.400   3.919   4.982
 7184TIP3    H121488   0.366   4.008   5.002
 7184TIP3    H221489   0.365   3.868   5.058
 7185TIP3   OH221490   0.534   4.502   5.508
 7185TIP3    H121491   0.580   4.570   5.456
 7185TIP3    H221492   0.609   4.462   5.556
 7186TIP3   OH221493   0.177   4.400   4.893
 7186TIP3    H121494   0.102   4.413   4.953
 7186TIP3    H221495   0.216   4.490   4.893
 7187TIP3   OH221496   0.920   4.135   5.465
 7187TIP3    H121497   0.909   4.132   5.562
 7187TIP3    H221498   0.996   4.076   5.452
 7188TIP3   OH221499   0.892   4.028   4.350
 7188TIP3    H121500   0.944   4.002   4.429
 7188TIP3    H221501   0.804   3.997   4.377
 7189TIP3   OH221502   1.165   4.669   5.521
 7189TIP3    H121503   1.089   4.607   5.517
 7189TIP3    H221504   1.145   4.729   5.446
 7190TIP3   OH221505   1.230   4.500   4.168
 7190TIP3    H121506   1.267   4.569   4.111
 7190TIP3    H221507   1.150   4.547   4.201
 7191TIP3   OH221508   0.257   3.269   6.047
 7191TIP3    H121509   0.163   3.257   6.067
 7191TIP3    H221510   0.299   3.214   6.115
 7192TIP3   OH221511   1.052   3.965   4.570
 7192TIP3    H121512   1.041   3.895   4.638
 7192TIP3    H221513   1.148   3.959   4.555
 7193TIP3   OH221514   0.257   4.006   4.347
 7193TIP3    H121515   0.272   3.914   4.317
 7193TIP3    H221516   0.238   3.992   4.442
 7194TIP3   OH221517   0.208   4.012   4.625
 7194TIP3    H121518   0.285   3.984   4.675
 7194TIP3    H221519   0.216   4.110   4.627
 7195TIP3   OH221520  -0.048   3.699   4.822
 7195TIP3    H121521  -0.090   3.748   4.893
 7195TIP3    H221522  -0.029   3.770   4.757
 7196TIP3   OH221523   1.085   3.344   5.718
 7196TIP3    H121524   1.168   3.380   5.754
 7196TIP3    H221525   1.073   3.262   5.771
 7197TIP3   OH221526   0.966   3.094   4.882
 7197TIP3    H121527   0.954   3.116   4.787
 7197TIP3    H221528   1.006   3.176   4.917
 7198TIP3   OH221529   0.470   4.211   4.573
 7198TIP3    H121530   0.382   4.239   4.605
 7198TIP3    H221531   0.484   4.274   4.502
 7199TIP3   OH221532   0.654   3.274   4.984
 7199TIP3    H121533   0.720   3.344   4.966
 7199TIP3    H221534   0.662   3.265   5.082
 7200TIP3   OH221535   0.926   3.592   5.791
 7200TIP3    H121536   0.947   3.644   5.871
 7200TIP3    H221537   0.981   3.512   5.802
 7201TIP3   OH221538   0.801   2.999   5.085
 7201TIP3    H121539   0.799   3.075   5.147
 7201TIP3    H221540   0.861   3.035   5.016
 7202TIP3   OH221541   0.213   4.285   4.638
 7202TIP3    H121542   0.184   4.351   4.571
 7202TIP3    H221543   0.197   4.332   4.721
 7203TIP3   OH221544   0.312   2.998   4.876
 7203TIP3    H121545   0.312   3.089   4.912
 7203TIP3    H221546   0.408   2.978   4.883
 7204TIP3   OH221547   1.567   3.493   5.773
 7204TIP3    H121548   1.469   3.489   5.779
 7204TIP3    H221549   1.580   3.451   5.687
 7205TIP3   OH221550   1.217   3.688   5.162
 7205TIP3    H121551   1.143   3.626   5.172
 7205TIP3    H221552   1.290   3.641   5.208
 7206TIP3   OH221553  -0.061   3.929   4.671
 7206TIP3    H121554   0.021   3.979   4.653
 7206TIP3    H221555  -0.063   3.875   4.589
 7207TIP3   OH221556  -0.146   3.187   4.770
 7207TIP3    H121557  -0.140   3.284   4.762
 7207TIP3    H221558  -0.176   3.161   4.682
 7208TIP3   OH221559   1.189   4.648   5.110
 7208TIP3    H121560   1.141   4.694   5.038
 7208TIP3    H221561   1.281   4.664   5.082
 7209TIP3   OH221562   0.264   2.907   5.638
 7209TIP3    H121563   0.234   2.872   5.551
 7209TIP3    H221564   0.253   2.829   5.696
 7210TIP3   OH221565   0.433   4.640   6.134
 7210TIP3    H121566   0.528   4.630   6.146
 7210TIP3    H221567   0.415   4.576   6.062
 7211TIP3   OH221568   0.423   4.210   4.265
 7211TIP3    H121569   0.366   4.137   4.298
 7211TIP3    H221570   0.497   4.160   4.227
 7212TIP3   OH221571   1.079   4.540   5.866
 7212TIP3    H121572   1.069   4.471   5.935
 7212TIP3    H221573   1.157   4.590   5.898
 7213TIP3   OH221574   0.858   4.253   4.174
 7213TIP3    H121575   0.902   4.187   4.231
 7213TIP3    H221576   0.912   4.250   4.092
 7214TIP3   OH221577   0.064   3.732   4.488
 7214TIP3    H121578   0.123   3.697   4.557
 7214TIP3    H221579   0.126   3.734   4.412
 7215TIP3   OH221580   0.695   4.160   6.062
 7215TIP3    H121581   0.656   4.171   5.973
 7215TIP3    H221582   0.728   4.067   6.059
 7216TIP3   OH221583   0.574   3.926   4.291
 7216TIP3    H121584   0.578   3.937   4.388
 7216TIP3    H221585   0.576   3.828   4.284
 7217TIP3   OH221586   1.190   4.169   5.669
 7217TIP3    H121587   1.263   4.215   5.625
 7217TIP3    H221588   1.117   4.231   5.654
 7218TIP3   OH221589   0.204   3.798   6.288
 7218TIP3    H121590   0.271   3.753   6.235
 7218TIP3    H221591   0.257   3.842   6.357
 7219TIP3   OH221592   0.274   3.630   4.707
 7219TIP3    H121593   0.256   3.581   4.788
 7219TIP3    H221594   0.311   3.559   4.649
 7220TIP3   OH221595   0.545   3.701   5.939
 7220TIP3    H121596   0.463   3.754   5.935
 7220TIP3    H221597   0.592   3.731   5.857
 7221TIP3   OH221598   0.375   3.427   4.547
 7221TIP3    H121599   0.348   3.427   4.452
 7221TIP3    H221600   0.472   3.428   4.538
 7222TIP3   OH221601   1.060   4.098   6.067
 7222TIP3    H121602   1.140   4.073   6.019
 7222TIP3    H221603   1.056   4.031   6.136
 7223TIP3   OH221604   1.195   3.756   4.209
 7223TIP3    H121605   1.175   3.709   4.125
 7223TIP3    H221606   1.163   3.846   4.184
 7224TIP3   OH221607   0.668   3.486   6.060
 7224TIP3    H121608   0.666   3.405   6.006
 7224TIP3    H221609   0.622   3.550   6.002
 7225TIP3   OH221610   0.669   3.270   5.867
 7225TIP3    H121611   0.696   3.312   5.784
 7225TIP3    H221612   0.575   3.247   5.848
 7226TIP3   OH221613   0.698   3.810   5.743
 7226TIP3    H121614   0.777   3.811   5.688
 7226TIP3    H221615   0.639   3.871   5.694
 7227TIP3   OH221616   1.278   3.773   6.121
 7227TIP3    H121617   1.325   3.688   6.130
 7227TIP3    H221618   1.348   3.830   6.085
 7228TIP3   OH221619   1.319   4.026   5.858
 7228TIP3    H121620   1.262   4.079   5.798
 7228TIP3    H221621   1.407   4.045   5.818
 7229TIP3   OH221622   0.542   3.610   6.288
 7229TIP3    H121623   0.485   3.530   6.297
 7229TIP3    H221624   0.580   3.596   6.199
 7230TIP3   OH221625   0.801   3.033   5.934
 7230TIP3    H121626   0.752   3.115   5.910
 7230TIP3    H221627   0.732   2.965   5.921
 7231TIP3   OH221628   0.927   3.539   6.150
 7231TIP3    H121629   0.914   3.525   6.246
 7231TIP3    H221630   0.838   3.514   6.118
 7232TIP3   OH221631   1.166   3.490   6.005
 7232TIP3    H121632   1.091   3.489   6.067
 7232TIP3    H221633   1.240   3.457   6.061
 7233TIP3   OH221634   1.393   3.427   6.155
 7233TIP3    H121635   1.407   3.332   6.173
 7233TIP3    H221636   1.391   3.466   6.246
 7234TIP3   OH221637   0.411   3.378   6.337
 7234TIP3    H121638   0.402   3.288   6.300
 7234TIP3    H221639   0.432   3.357   6.430
 7235TIP3   OH221640   0.894   3.042   6.191
 7235TIP3    H121641   0.963   2.973   6.185
 7235TIP3    H221642   0.855   3.037   6.102
 7236TIP3   OH221643   0.961   3.257   6.350
 7236TIP3    H121644   0.939   3.186   6.286
 7236TIP3    H221645   0.884   3.317   6.342
 7237TIP3   OH221646   0.182   4.483   4.451
 7237TIP3    H121647   0.278   4.486   4.432
 7237TIP3    H221648   0.150   4.535   4.376
 7238TIP3   OH221649   1.439   4.765   5.057
 7238TIP3    H121650   1.452   4.774   5.154
 7238TIP3    H221651   1.522   4.720   5.031
 7239TIP3   OH221652   1.469   4.749   5.336
 7239TIP3    H121653   1.424   4.662   5.343
 7239TIP3    H221654   1.543   4.732   5.397
 7240TIP3   OH221655   1.513   4.431   5.920
 7240TIP3    H121656   1.441   4.438   5.986
 7240TIP3    H221657   1.556   4.518   5.926
 7241TIP3   OH221658   1.328   3.943   4.543
 7241TIP3    H121659   1.397   4.005   4.511
 7241TIP3    H221660   1.373   3.904   4.621
 7242TIP3   OH221661   1.459   3.814   4.746
 7242TIP3    H121662   1.396   3.769   4.807
 7242TIP3    H221663   1.529   3.847   4.806
 7243TIP3   OH221664   1.511   4.201   5.175
 7243TIP3    H121665   1.567   4.133   5.131
 7243TIP3    H221666   1.499   4.267   5.104
 7244TIP3   OH221667   1.344   4.506   5.369
 7244TIP3    H121668   1.273   4.539   5.427
 7244TIP3    H221669   1.293   4.453   5.303
 7245TIP3   OH221670   1.395   3.717   4.393
 7245TIP3    H121671   1.325   3.720   4.325
 7245TIP3    H221672   1.368   3.793   4.448
 7246TIP3   OH221673   1.266   3.391   4.347
 7246TIP3    H121674   1.225   3.429   4.268
 7246TIP3    H221675   1.242   3.296   4.337
 7247TIP3   OH221676   1.272   3.667   4.892
 7247TIP3    H121677   1.282   3.570   4.885
 7247TIP3    H221678   1.259   3.679   4.988
 7248TIP3   OH221679   1.562   4.091   5.747
 7248TIP3    H121680   1.634   4.024   5.741
 7248TIP3    H221681   1.593   4.159   5.685
 7249TIP3   OH221682   1.746   3.897   5.771
 7249TIP3    H121683   1.671   3.844   5.807
 7249TIP3    H221684   1.819   3.833   5.782
 7250TIP3   OH221685   1.211   3.125   4.331
 7250TIP3    H121686   1.287   3.095   4.386
 7250TIP3    H221687   1.139   3.065   4.357
 7251TIP3   OH221688   1.269   3.383   4.786
 7251TIP3    H121689   1.309   3.294   4.802
 7251TIP3    H221690   1.328   3.415   4.716
 7252TIP3   OH221691   1.430   3.559   5.281
 7252TIP3    H121692   1.516   3.584   5.240
 7252TIP3    H221693   1.445   3.593   5.371
 7253TIP3   OH221694   1.500   3.700   5.515
 7253TIP3    H121695   1.421   3.735   5.561
 7253TIP3    H221696   1.533   3.780   5.468
 7254TIP3   OH221697   0.138   3.349   6.429
 7254TIP3    H121698   0.195   3.386   6.359
 7254TIP3    H221699   0.051   3.375   6.395
 7255TIP3   OH221700   1.950   3.291   6.070
 7255TIP3    H121701   2.010   3.225   6.028
 7255TIP3    H221702   1.923   3.345   5.993
 7256TIP3   OH221703   1.376   3.133   4.825
 7256TIP3    H121704   1.427   3.117   4.907
 7256TIP3    H221705   1.317   3.055   4.824
 7257TIP3   OH221706   0.090   3.118   5.648
 7257TIP3    H121707   0.153   3.043   5.654
 7257TIP3    H221708   0.152   3.192   5.633
 7258TIP3   OH221709   1.822   3.431   5.875
 7258TIP3    H121710   1.734   3.471   5.892
 7258TIP3    H221711   1.795   3.358   5.816
 7259TIP3   OH221712   1.458   3.068   4.456
 7259TIP3    H121713   1.501   2.996   4.405
 7259TIP3    H221714   1.526   3.138   4.453
 7260TIP3   OH221715  -0.116   2.916   5.235
 7260TIP3    H121716  -0.211   2.906   5.250
 7260TIP3    H221717  -0.114   2.971   5.154
 7261TIP3   OH221718   1.026   4.602   4.726
 7261TIP3    H121719   1.066   4.580   4.640
 7261TIP3    H221720   1.091   4.663   4.762
 7262TIP3   OH221721   0.080   2.982   6.042
 7262TIP3    H121722   0.038   2.979   6.129
 7262TIP3    H221723   0.016   3.031   5.989
 7263TIP3   OH221724   0.302   4.465   5.660
 7263TIP3    H121725   0.285   4.534   5.594
 7263TIP3    H221726   0.394   4.443   5.635
 7264TIP3   OH221727   0.747   4.682   5.794
 7264TIP3    H121728   0.789   4.679   5.883
 7264TIP3    H221729   0.815   4.732   5.744
 7265TIP3   OH221730   0.927   4.834   5.650
 7265TIP3    H121731   0.997   4.778   5.614
 7265TIP3    H221732   0.978   4.889   5.713
 7266TIP3   OH221733   1.720   3.193   5.754
 7266TIP3    H121734   1.629   3.185   5.719
 7266TIP3    H221735   1.753   3.101   5.742
 7267TIP3   OH221736   0.219   4.692   5.511
 7267TIP3    H121737   0.188   4.777   5.545
 7267TIP3    H221738   0.166   4.679   5.431
 7268TIP3   OH221739   0.640   4.700   5.340
 7268TIP3    H121740   0.591   4.725   5.260
 7268TIP3    H221741   0.656   4.787   5.382
 7269TIP3   OH221742   0.910   4.642   5.387
 7269TIP3    H121743   0.815   4.655   5.367
 7269TIP3    H221744   0.951   4.719   5.345
 7270TIP3   OH221745   1.119   4.835   5.303
 7270TIP3    H121746   1.104   4.918   5.252
 7270TIP3    H221747   1.143   4.771   5.232
 7271TIP3   OH221748   0.082   4.362   5.274
 7271TIP3    H121749   0.087   4.272   5.316
 7271TIP3    H221750   0.176   4.387   5.277
 7272TIP3   OH221751   0.360   4.460   5.286
 7272TIP3    H121752   0.384   4.367   5.266
 7272TIP3    H221753   0.409   4.469   5.370
 7273TIP3   OH221754   0.923   3.108   5.368
 7273TIP3    H121755   0.881   3.038   5.422
 7273TIP3    H221756   0.998   3.061   5.328
 7274TIP3   OH221757   1.448   2.991   5.277
 7274TIP3    H121758   1.485   3.041   5.201
 7274TIP3    H221759   1.352   3.008   5.269
 7275TIP3   OH221760   1.543   3.089   5.040
 7275TIP3    H121761   1.617   3.037   5.001
 7275TIP3    H221762   1.578   3.180   5.026
 7276TIP3   OH221763   0.173   2.819   5.390
 7276TIP3    H121764   0.080   2.792   5.385
 7276TIP3    H221765   0.219   2.733   5.386
 7277TIP3   OH221766  -0.013   2.678   5.045
 7277TIP3    H121767   0.003   2.736   4.968
 7277TIP3    H221768  -0.069   2.736   5.101
 7278TIP3   OH221769   0.615   2.852   5.270
 7278TIP3    H121770   0.674   2.899   5.209
 7278TIP3    H221771   0.644   2.887   5.355
 7279TIP3   OH221772   1.163   2.997   5.253
 7279TIP3    H121773   1.165   2.958   5.165
 7279TIP3    H221774   1.152   2.917   5.310
 7280TIP3   OH221775   1.194   2.918   4.815
 7280TIP3    H121776   1.107   2.960   4.826
 7280TIP3    H221777   1.180   2.833   4.863
 7281TIP3   OH221778   0.078   2.842   4.812
 7281TIP3    H121779   0.122   2.782   4.749
 7281TIP3    H221780   0.153   2.896   4.843
 7282TIP3   OH221781   0.590   3.022   4.899
 7282TIP3    H121782   0.650   2.975   4.958
 7282TIP3    H221783   0.612   3.114   4.924
 7283TIP3   OH221784   0.453   4.447   4.401
 7283TIP3    H121785   0.539   4.470   4.361
 7283TIP3    H221786   0.428   4.374   4.340
 7284TIP3   OH221787   1.165   4.563   4.492
 7284TIP3    H121788   1.159   4.465   4.479
 7284TIP3    H221789   1.122   4.595   4.410
 7285TIP3   OH221790   0.380   3.102   6.275
 7285TIP3    H121791   0.344   3.029   6.331
 7285TIP3    H221792   0.473   3.100   6.306
 7286TIP3   OH221793   0.628   3.097   6.402
 7286TIP3    H121794   0.713   3.074   6.360
 7286TIP3    H221795   0.617   3.023   6.464
 7287TIP3   OH221796   1.456   3.157   6.187
 7287TIP3    H121797   1.476   3.125   6.277
 7287TIP3    H221798   1.545   3.152   6.144
 7288TIP3   OH221799   1.396   4.711   5.677
 7288TIP3    H121800   1.315   4.679   5.632
 7288TIP3    H221801   1.374   4.806   5.684
 7289TIP3   OH221802   1.957   3.985   5.197
 7289TIP3    H121803   1.991   3.917   5.259
 7289TIP3    H221804   2.035   4.001   5.141
 7290TIP3   OH221805   1.925   4.376   4.917
 7290TIP3    H121806   1.911   4.284   4.890
 7290TIP3    H221807   2.016   4.371   4.949
 7291TIP3   OH221808   1.631   3.587   4.701
 7291TIP3    H121809   1.588   3.673   4.712
 7291TIP3    H221810   1.560   3.536   4.658
 7292TIP3   OH221811   1.705   3.880   4.869
 7292TIP3    H121812   1.750   3.800   4.905
 7292TIP3    H221813   1.774   3.914   4.810
 7293TIP3   OH221814   2.554   4.841   4.529
 7293TIP3    H121815   2.598   4.775   4.472
 7293TIP3    H221816   2.563   4.798   4.616
 7294TIP3   OH221817   3.476   3.621   4.876
 7294TIP3    H121818   3.504   3.703   4.922
 7294TIP3    H221819   3.448   3.654   4.790
 7295TIP3   OH221820   2.209   3.459   4.881
 7295TIP3    H121821   2.194   3.533   4.818
 7295TIP3    H221822   2.158   3.390   4.833
 7296TIP3   OH221823   2.909   3.543   4.485
 7296TIP3    H121824   2.973   3.535   4.559
 7296TIP3    H221825   2.952   3.612   4.432
 7297TIP3   OH221826   1.840   3.670   4.983
 7297TIP3    H121827   1.927   3.654   5.026
 7297TIP3    H221828   1.853   3.615   4.903
 7298TIP3   OH221829   3.537   3.833   5.039
 7298TIP3    H121830   3.453   3.882   5.026
 7298TIP3    H221831   3.565   3.866   5.126
 7299TIP3   OH221832   2.203   3.451   5.306
 7299TIP3    H121833   2.147   3.488   5.237
 7299TIP3    H221834   2.151   3.472   5.386
 7300TIP3   OH221835   2.576   4.325   4.288
 7300TIP3    H121836   2.515   4.280   4.229
 7300TIP3    H221837   2.518   4.395   4.325
 7301TIP3   OH221838   2.315   4.233   5.098
 7301TIP3    H121839   2.245   4.284   5.143
 7301TIP3    H221840   2.367   4.304   5.058
 7302TIP3   OH221841   3.113   3.561   4.670
 7302TIP3    H121842   3.092   3.523   4.757
 7302TIP3    H221843   3.165   3.640   4.694
 7303TIP3   OH221844   2.074   3.566   5.092
 7303TIP3    H121845   2.139   3.637   5.113
 7303TIP3    H221846   2.122   3.524   5.016
 7304TIP3   OH221847   2.135   4.422   5.194
 7304TIP3    H121848   2.111   4.513   5.167
 7304TIP3    H221849   2.059   4.403   5.254
 7305TIP3   OH221850   1.527   4.112   4.437
 7305TIP3    H121851   1.493   4.139   4.350
 7305TIP3    H221852   1.564   4.195   4.473
 7306TIP3   OH221853   3.262   3.526   5.040
 7306TIP3    H121854   3.172   3.545   5.007
 7306TIP3    H221855   3.319   3.558   4.968
 7307TIP3   OH221856   2.564   3.170   5.022
 7307TIP3    H121857   2.546   3.075   5.037
 7307TIP3    H221858   2.487   3.210   5.066
 7308TIP3   OH221859   2.673   4.679   4.340
 7308TIP3    H121860   2.737   4.608   4.350
 7308TIP3    H221861   2.731   4.749   4.302
 7309TIP3   OH221862   2.822   4.419   4.222
 7309TIP3    H121863   2.734   4.395   4.261
 7309TIP3    H221864   2.872   4.452   4.297
 7310TIP3   OH221865   3.199   4.554   5.028
 7310TIP3    H121866   3.209   4.480   4.965
 7310TIP3    H221867   3.180   4.628   4.966
 7311TIP3   OH221868   2.446   3.714   3.985
 7311TIP3    H121869   2.498   3.750   4.058
 7311TIP3    H221870   2.512   3.655   3.942
 7312TIP3   OH221871   3.389   4.166   4.862
 7312TIP3    H121872   3.322   4.238   4.855
 7312TIP3    H221873   3.418   4.158   4.770
 7313TIP3   OH221874   3.068   4.056   5.151
 7313TIP3    H121875   3.063   4.136   5.206
 7313TIP3    H221876   2.984   4.062   5.102
 7314TIP3   OH221877   2.208   3.982   5.029
 7314TIP3    H121878   2.200   3.973   4.932
 7314TIP3    H221879   2.256   4.067   5.036
 7315TIP3   OH221880   2.680   4.631   4.797
 7315TIP3    H121881   2.726   4.702   4.844
 7315TIP3    H221882   2.709   4.551   4.847
 7316TIP3   OH221883   2.344   4.542   5.342
 7316TIP3    H121884   2.286   4.604   5.390
 7316TIP3    H221885   2.278   4.487   5.295
 7317TIP3   OH221886   2.107   4.100   5.451
 7317TIP3    H121887   2.102   4.186   5.497
 7317TIP3    H221888   2.012   4.081   5.439
 7318TIP3   OH221889   2.427   4.549   4.345
 7318TIP3    H121890   2.503   4.607   4.360
 7318TIP3    H221891   2.358   4.609   4.314
 7319TIP3   OH221892   2.138   4.711   5.429
 7319TIP3    H121893   2.103   4.709   5.338
 7319TIP3    H221894   2.059   4.690   5.483
 7320TIP3   OH221895   3.196   3.116   4.122
 7320TIP3    H121896   3.114   3.139   4.171
 7320TIP3    H221897   3.210   3.197   4.069
 7321TIP3   OH221898   1.934   3.808   4.407
 7321TIP3    H121899   1.870   3.879   4.393
 7321TIP3    H221900   1.923   3.786   4.500
 7322TIP3   OH221901   2.996   4.480   3.672
 7322TIP3    H121902   3.003   4.577   3.656
 7322TIP3    H221903   3.089   4.452   3.657
 7323TIP3   OH221904   1.718   4.242   5.374
 7323TIP3    H121905   1.655   4.213   5.306
 7323TIP3    H221906   1.758   4.157   5.404
 7324TIP3   OH221907   1.577   4.446   5.007
 7324TIP3    H121908   1.666   4.412   4.989
 7324TIP3    H221909   1.593   4.498   5.087
 7325TIP3   OH221910   3.432   4.887   5.060
 7325TIP3    H121911   3.437   4.790   5.072
 7325TIP3    H221912   3.350   4.907   5.110
 7326TIP3   OH221913   2.541   4.672   5.199
 7326TIP3    H121914   2.542   4.764   5.231
 7326TIP3    H221915   2.472   4.632   5.255
 7327TIP3   OH221916   2.302   4.800   4.151
 7327TIP3    H121917   2.258   4.781   4.066
 7327TIP3    H221918   2.271   4.890   4.171
 7328TIP3   OH221919   1.737   4.654   4.540
 7328TIP3    H121920   1.789   4.640   4.622
 7328TIP3    H221921   1.693   4.567   4.532
 7329TIP3   OH221922   2.505   4.700   3.792
 7329TIP3    H121923   2.564   4.631   3.755
 7329TIP3    H221924   2.540   4.710   3.883
 7330TIP3   OH221925   2.555   4.748   4.063
 7330TIP3    H121926   2.466   4.756   4.105
 7330TIP3    H221927   2.606   4.711   4.137
 7331TIP3   OH221928   3.325   4.012   5.342
 7331TIP3    H121929   3.245   4.024   5.289
 7331TIP3    H221930   3.342   3.916   5.330
 7332TIP3   OH221931   1.922   4.425   5.366
 7332TIP3    H121932   1.974   4.407   5.447
 7332TIP3    H221933   1.850   4.360   5.373
 7333TIP3   OH221934   2.324   3.243   5.149
 7333TIP3    H121935   2.233   3.217   5.123
 7333TIP3    H221936   2.304   3.330   5.188
 7334TIP3   OH221937   2.857   3.363   5.341
 7334TIP3    H121938   2.924   3.336   5.406
 7334TIP3    H221939   2.773   3.344   5.387
 7335TIP3   OH221940   3.099   3.794   5.264
 7335TIP3    H121941   3.047   3.788   5.347
 7335TIP3    H221942   3.068   3.878   5.225
 7336TIP3   OH221943   2.788   3.913   3.828
 7336TIP3    H121944   2.732   3.874   3.759
 7336TIP3    H221945   2.840   3.974   3.771
 7337TIP3   OH221946   2.468   3.297   4.119
 7337TIP3    H121947   2.438   3.294   4.212
 7337TIP3    H221948   2.430   3.213   4.086
 7338TIP3   OH221949   2.253   3.757   5.170
 7338TIP3    H121950   2.204   3.785   5.249
 7338TIP3    H221951   2.245   3.837   5.113
 7339TIP3   OH221952   2.145   3.623   4.685
 7339TIP3    H121953   2.050   3.635   4.696
 7339TIP3    H221954   2.153   3.605   4.590
 7340TIP3   OH221955   2.634   3.713   4.378
 7340TIP3    H121956   2.583   3.788   4.346
 7340TIP3    H221957   2.701   3.702   4.308
 7341TIP3   OH221958   2.807   4.015   5.496
 7341TIP3    H121959   2.782   3.940   5.554
 7341TIP3    H221960   2.901   4.024   5.519
 7342TIP3   OH221961   2.068   3.795   5.379
 7342TIP3    H121962   2.112   3.853   5.443
 7342TIP3    H221963   2.064   3.710   5.427
 7343TIP3   OH221964   2.121   3.267   4.086
 7343TIP3    H121965   2.117   3.266   4.183
 7343TIP3    H221966   2.045   3.326   4.066
 7344TIP3   OH221967   1.669   3.311   4.959
 7344TIP3    H121968   1.742   3.348   5.012
 7344TIP3    H221969   1.712   3.288   4.875
 7345TIP3   OH221970   1.639   3.293   4.475
 7345TIP3    H121971   1.687   3.331   4.398
 7345TIP3    H221972   1.581   3.369   4.496
 7346TIP3   OH221973   2.465   3.461   4.741
 7346TIP3    H121974   2.382   3.469   4.791
 7346TIP3    H221975   2.531   3.481   4.810
 7347TIP3   OH221976   1.890   3.519   4.764
 7347TIP3    H121977   1.800   3.526   4.726
 7347TIP3    H221978   1.927   3.438   4.727
 7348TIP3   OH221979   2.169   3.510   4.432
 7348TIP3    H121980   2.262   3.539   4.419
 7348TIP3    H221981   2.121   3.545   4.354
 7349TIP3   OH221982   2.975   3.531   4.947
 7349TIP3    H121983   2.933   3.565   5.029
 7349TIP3    H221984   2.900   3.486   4.907
 7350TIP3   OH221985   2.011   3.544   4.211
 7350TIP3    H121986   1.934   3.511   4.162
 7350TIP3    H221987   2.061   3.589   4.140
 7351TIP3   OH221988   3.127   5.236   5.163
 7351TIP3    H121989   3.126   5.257   5.067
 7351TIP3    H221990   3.208   5.282   5.192
 7352TIP3   OH221991   2.083   4.350   5.585
 7352TIP3    H121992   2.165   4.377   5.632
 7352TIP3    H221993   2.020   4.345   5.660
 7353TIP3   OH221994   2.067   3.288   4.718
 7353TIP3    H121995   2.039   3.205   4.761
 7353TIP3    H221996   2.123   3.258   4.645
 7354TIP3   OH221997   2.523   3.674   5.153
 7354TIP3    H121998   2.438   3.720   5.141
 7354TIP3    H221999   2.583   3.744   5.186
 7355TIP3   OH222000   2.245   4.101   4.228
 7355TIP3    H122001   2.188   4.024   4.202
 7355TIP3    H222002   2.249   4.087   4.323
 7356TIP3   OH222003   3.188   4.361   4.844
 7356TIP3    H122004   3.186   4.412   4.758
 7356TIP3    H222005   3.094   4.348   4.861
 7357TIP3   OH222006   2.715   3.401   4.101
 7357TIP3    H122007   2.623   3.367   4.101
 7357TIP3    H222008   2.702   3.497   4.100
 7358TIP3   OH222009   2.654   4.400   5.222
 7358TIP3    H122010   2.684   4.380   5.311
 7358TIP3    H222011   2.627   4.494   5.229
 7359TIP3   OH222012   2.799   3.685   4.151
 7359TIP3    H122013   2.883   3.663   4.198
 7359TIP3    H222014   2.820   3.652   4.062
 7360TIP3   OH222015   2.406   4.233   4.044
 7360TIP3    H122016   2.361   4.320   4.050
 7360TIP3    H222017   2.350   4.180   4.106
 7361TIP3   OH222018   1.828   4.037   5.518
 7361TIP3    H122019   1.858   4.018   5.609
 7361TIP3    H222020   1.769   3.961   5.501
 7362TIP3   OH222021   2.561   4.141   5.536
 7362TIP3    H122022   2.504   4.088   5.479
 7362TIP3    H222023   2.650   4.108   5.507
 7363TIP3   OH222024   2.827   4.662   5.122
 7363TIP3    H122025   2.730   4.663   5.124
 7363TIP3    H222026   2.848   4.718   5.200
 7364TIP3   OH222027   3.215   3.718   4.012
 7364TIP3    H122028   3.185   3.656   3.944
 7364TIP3    H222029   3.216   3.802   3.962
 7365TIP3   OH222030   3.453   4.591   5.109
 7365TIP3    H122031   3.355   4.591   5.100
 7365TIP3    H222032   3.479   4.567   5.018
 7366TIP3   OH222033   2.925   4.560   3.933
 7366TIP3    H122034   2.905   4.494   4.001
 7366TIP3    H222035   2.943   4.508   3.853
 7367TIP3   OH222036   1.616   3.716   4.226
 7367TIP3    H122037   1.668   3.795   4.250
 7367TIP3    H222038   1.543   3.721   4.291
 7368TIP3   OH222039   2.325   4.752   4.991
 7368TIP3    H122040   2.367   4.825   4.942
 7368TIP3    H222041   2.402   4.717   5.039
 7369TIP3   OH222042   1.961   4.665   4.358
 7369TIP3    H122043   1.886   4.660   4.420
 7369TIP3    H222044   1.996   4.754   4.374
 7370TIP3   OH222045   2.743   4.405   4.958
 7370TIP3    H122046   2.711   4.399   5.050
 7370TIP3    H222047   2.784   4.319   4.947
 7371TIP3   OH222048   2.688   4.274   3.841
 7371TIP3    H122049   2.733   4.235   3.917
 7371TIP3    H222050   2.595   4.261   3.864
 7372TIP3   OH222051   2.962   4.927   5.006
 7372TIP3    H122052   2.882   4.872   4.996
 7372TIP3    H222053   2.947   4.994   4.935
 7373TIP3   OH222054   3.027   4.757   3.656
 7373TIP3    H122055   3.068   4.830   3.607
 7373TIP3    H222056   2.947   4.803   3.688
 7374TIP3   OH222057   2.047   3.537   5.523
 7374TIP3    H122058   1.950   3.537   5.535
 7374TIP3    H222059   2.075   3.474   5.592
 7375TIP3   OH222060   2.863   4.150   4.058
 7375TIP3    H122061   2.819   4.196   4.131
 7375TIP3    H222062   2.943   4.205   4.048
 7376TIP3   OH222063   1.756   4.619   5.157
 7376TIP3    H122064   1.812   4.544   5.179
 7376TIP3    H222065   1.791   4.685   5.218
 7377TIP3   OH222066   2.053   4.263   3.835
 7377TIP3    H122067   2.068   4.171   3.808
 7377TIP3    H222068   2.033   4.252   3.930
 7378TIP3   OH222069   1.998   4.266   4.107
 7378TIP3    H122070   2.074   4.235   4.158
 7378TIP3    H222071   2.005   4.364   4.117
 7379TIP3   OH222072   1.724   3.965   4.307
 7379TIP3    H122073   1.661   4.009   4.367
 7379TIP3    H222074   1.744   4.037   4.244
 7380TIP3   OH222075   2.883   3.606   5.203
 7380TIP3    H122076   2.967   3.635   5.241
 7380TIP3    H222077   2.866   3.523   5.252
 7381TIP3   OH222078   2.764   3.340   4.370
 7381TIP3    H122079   2.752   3.367   4.277
 7381TIP3    H222080   2.810   3.419   4.408
 7382TIP3   OH222081   2.265   4.464   4.055
 7382TIP3    H122082   2.179   4.490   4.092
 7382TIP3    H222083   2.282   4.538   3.996
 7383TIP3   OH222084   2.450   3.526   4.471
 7383TIP3    H122085   2.523   3.589   4.454
 7383TIP3    H222086   2.453   3.519   4.569
 7384TIP3   OH222087   2.703   3.841   5.284
 7384TIP3    H122088   2.741   3.901   5.351
 7384TIP3    H222089   2.769   3.770   5.280
 7385TIP3   OH222090   2.595   3.254   4.576
 7385TIP3    H122091   2.584   3.331   4.635
 7385TIP3    H222092   2.656   3.291   4.508
 7386TIP3   OH222093   2.009   4.540   4.121
 7386TIP3    H122094   1.979   4.611   4.061
 7386TIP3    H222095   1.992   4.581   4.209
 7387TIP3   OH222096   2.110   3.251   4.361
 7387TIP3    H122097   2.109   3.344   4.393
 7387TIP3    H222098   2.206   3.233   4.372
 7388TIP3   OH222099   3.364   3.746   5.261
 7388TIP3    H122100   3.266   3.746   5.267
 7388TIP3    H222101   3.376   3.708   5.173
 7389TIP3   OH222102   1.726   4.177   4.114
 7389TIP3    H122103   1.798   4.242   4.124
 7389TIP3    H222104   1.770   4.118   4.049
 7390TIP3   OH222105   1.670   3.445   4.247
 7390TIP3    H122106   1.675   3.542   4.246
 7390TIP3    H222107   1.582   3.430   4.210
 7391TIP3   OH222108   2.980   4.918   4.616
 7391TIP3    H122109   2.937   4.948   4.533
 7391TIP3    H222110   3.073   4.914   4.583
 7392TIP3   OH222111   2.056   3.168   5.125
 7392TIP3    H122112   2.027   3.135   5.037
 7392TIP3    H222113   2.047   3.088   5.181
 7393TIP3   OH222114   1.599   4.400   4.516
 7393TIP3    H122115   1.509   4.423   4.539
 7393TIP3    H222116   1.598   4.424   4.421
 7394TIP3   OH222117   1.754   4.926   5.575
 7394TIP3    H122118   1.840   4.927   5.622
 7394TIP3    H222119   1.736   4.831   5.575
 7395TIP3   OH222120   2.234   4.893   5.620
 7395TIP3    H122121   2.328   4.875   5.630
 7395TIP3    H222122   2.211   4.833   5.546
 7396TIP3   OH222123   2.216   4.468   3.748
 7396TIP3    H122124   2.161   4.396   3.787
 7396TIP3    H222125   2.292   4.416   3.716
 7397TIP3   OH222126   2.869   4.802   5.359
 7397TIP3    H122127   2.864   4.730   5.425
 7397TIP3    H222128   2.951   4.849   5.385
 7398TIP3   OH222129   2.652   4.507   3.659
 7398TIP3    H122130   2.704   4.451   3.718
 7398TIP3    H222131   2.707   4.509   3.578
 7399TIP3   OH222132   1.884   4.332   5.777
 7399TIP3    H122133   1.902   4.236   5.782
 7399TIP3    H222134   1.797   4.333   5.731
 7400TIP3   OH222135   1.861   3.986   3.970
 7400TIP3    H122136   1.914   3.950   4.043
 7400TIP3    H222137   1.929   3.989   3.900
 7401TIP3   OH222138   2.490   4.415   5.550
 7401TIP3    H122139   2.454   4.431   5.461
 7401TIP3    H222140   2.523   4.323   5.544
 7402TIP3   OH222141   2.371   4.183   3.776
 7402TIP3    H122142   2.372   4.195   3.873
 7402TIP3    H222143   2.371   4.085   3.770
 7403TIP3   OH222144   2.988   4.422   5.149
 7403TIP3    H122145   3.063   4.475   5.116
 7403TIP3    H222146   2.915   4.485   5.133
 7404TIP3   OH222147   2.002   4.068   5.758
 7404TIP3    H122148   2.078   4.014   5.731
 7404TIP3    H222149   2.030   4.099   5.846
 7405TIP3   OH222150   2.076   3.889   4.190
 7405TIP3    H122151   2.034   3.856   4.273
 7405TIP3    H222152   2.104   3.805   4.149
 7406TIP3   OH222153   2.333   3.947   5.421
 7406TIP3    H122154   2.259   4.011   5.423
 7406TIP3    H222155   2.388   3.983   5.347
 7407TIP3   OH222156   2.167   3.677   4.030
 7407TIP3    H122157   2.139   3.683   3.936
 7407TIP3    H222158   2.264   3.685   4.021
 7408TIP3   OH222159   2.856   4.354   5.554
 7408TIP3    H122160   2.936   4.330   5.505
 7408TIP3    H222161   2.852   4.285   5.622
 7409TIP3   OH222162   2.996   4.023   3.692
 7409TIP3    H122163   2.991   3.960   3.617
 7409TIP3    H222164   2.959   4.104   3.651
 7410TIP3   OH222165   2.461   3.739   5.548
 7410TIP3    H122166   2.464   3.659   5.492
 7410TIP3    H222167   2.420   3.804   5.487
 7411TIP3   OH222168   2.461   3.520   5.366
 7411TIP3    H122169   2.492   3.567   5.284
 7411TIP3    H222170   2.368   3.500   5.341
 7412TIP3   OH222171   2.488   4.068   5.239
 7412TIP3    H122172   2.564   4.042   5.186
 7412TIP3    H222173   2.438   4.127   5.180
 7413TIP3   OH222174   3.076   4.030   5.609
 7413TIP3    H122175   3.121   3.944   5.614
 7413TIP3    H222176   3.145   4.087   5.573
 7414TIP3   OH222177   3.114   4.282   5.343
 7414TIP3    H122178   3.058   4.335   5.282
 7414TIP3    H222179   3.203   4.301   5.304
 7415TIP3   OH222180   2.339   3.852   5.777
 7415TIP3    H122181   2.271   3.783   5.790
 7415TIP3    H222182   2.374   3.829   5.689
 7416TIP3   OH222183   2.598   3.288   5.420
 7416TIP3    H122184   2.549   3.370   5.399
 7416TIP3    H222185   2.529   3.220   5.407
 7417TIP3   OH222186   2.723   3.796   5.636
 7417TIP3    H122187   2.707   3.782   5.731
 7417TIP3    H222188   2.635   3.771   5.601
 7418TIP3   OH222189   2.964   3.749   5.493
 7418TIP3    H122190   2.887   3.747   5.552
 7418TIP3    H222191   3.036   3.715   5.550
 7419TIP3   OH222192   3.192   3.684   5.644
 7419TIP3    H122193   3.204   3.588   5.661
 7419TIP3    H222194   3.189   3.722   5.734
 7420TIP3   OH222195   2.178   3.633   5.830
 7420TIP3    H122196   2.185   3.543   5.792
 7420TIP3    H222197   2.215   3.618   5.919
 7421TIP3   OH222198   2.691   3.299   5.678
 7421TIP3    H122199   2.758   3.229   5.672
 7421TIP3    H222200   2.652   3.294   5.589
 7422TIP3   OH222201   2.757   3.514   5.837
 7422TIP3    H122202   2.736   3.443   5.772
 7422TIP3    H222203   2.679   3.573   5.829
 7423TIP3   OH222204   1.977   4.747   3.937
 7423TIP3    H122205   2.073   4.739   3.919
 7423TIP3    H222206   1.950   4.794   3.856
 7424TIP3   OH222207   1.458   4.126   4.155
 7424TIP3    H122208   1.553   4.148   4.138
 7424TIP3    H222209   1.453   4.037   4.114
 7425TIP3   OH222210   1.364   4.737   4.568
 7425TIP3    H122211   1.302   4.672   4.528
 7425TIP3    H222212   1.412   4.680   4.631
 7426TIP3   OH222213   1.494   4.604   4.766
 7426TIP3    H122214   1.492   4.513   4.800
 7426TIP3    H222215   1.572   4.637   4.812
 7427TIP3   OH222216   3.235   5.007   4.547
 7427TIP3    H122217   3.269   5.026   4.636
 7427TIP3    H222218   3.312   5.022   4.491
 7428TIP3   OH222219   3.265   5.011   4.837
 7428TIP3    H122220   3.221   4.924   4.829
 7428TIP3    H222221   3.344   4.984   4.888
 7429TIP3   OH222222   3.310   4.686   5.410
 7429TIP3    H122223   3.237   4.696   5.474
 7429TIP3    H222224   3.352   4.774   5.412
 7430TIP3   OH222225   3.141   4.201   4.038
 7430TIP3    H122226   3.199   4.270   3.997
 7430TIP3    H222227   3.181   4.196   4.126
 7431TIP3   OH222228   3.138   4.758   4.852
 7431TIP3    H122229   3.062   4.800   4.895
 7431TIP3    H222230   3.102   4.729   4.766
 7432TIP3   OH222231   3.153   3.966   3.899
 7432TIP3    H122232   3.118   3.976   3.806
 7432TIP3    H222233   3.162   4.059   3.927
 7433TIP3   OH222234   1.694   4.003   5.121
 7433TIP3    H122235   1.697   3.963   5.031
 7433TIP3    H222236   1.791   4.003   5.143
 7434TIP3   OH222237   3.357   4.348   5.233
 7434TIP3    H122238   3.430   4.282   5.227
 7434TIP3    H222239   3.389   4.419   5.175
 7435TIP3   OH222240   3.540   4.153   5.260
 7435TIP3    H122241   3.467   4.099   5.297
 7435TIP3    H222242   3.614   4.090   5.269
 7436TIP3   OH222243   2.987   3.399   3.879
 7436TIP3    H122244   3.080   3.372   3.885
 7436TIP3    H222245   2.942   3.319   3.848
 7437TIP3   OH222246   3.051   3.630   4.246
 7437TIP3    H122247   3.089   3.544   4.274
 7437TIP3    H222248   3.126   3.665   4.194
 7438TIP3   OH222249   3.255   3.801   4.761
 7438TIP3    H122250   3.266   3.874   4.697
 7438TIP3    H222251   3.259   3.848   4.846
 7439TIP3   OH222252   3.289   3.955   5.000
 7439TIP3    H122253   3.214   3.990   5.050
 7439TIP3    H222254   3.325   4.036   4.957
 7440TIP3   OH222255   1.911   3.684   5.802
 7440TIP3    H122256   2.009   3.678   5.801
 7440TIP3    H222257   1.888   3.598   5.841
 7441TIP3   OH222258   3.746   3.547   5.557
 7441TIP3    H122259   3.806   3.482   5.515
 7441TIP3    H222260   3.718   3.602   5.481
 7442TIP3   OH222261   3.173   3.390   4.311
 7442TIP3    H122262   3.218   3.377   4.396
 7442TIP3    H222263   3.110   3.314   4.311
 7443TIP3   OH222264   1.872   3.377   5.138
 7443TIP3    H122265   1.934   3.302   5.143
 7443TIP3    H222266   1.934   3.451   5.124
 7444TIP3   OH222267   1.675   3.651   5.203
 7444TIP3    H122268   1.724   3.640   5.119
 7444TIP3    H222269   1.715   3.731   5.237
 7445TIP3   OH222270   3.618   3.687   5.364
 7445TIP3    H122271   3.530   3.728   5.379
 7445TIP3    H222272   3.590   3.615   5.304
 7446TIP3   OH222273   3.260   3.323   3.942
 7446TIP3    H122274   3.296   3.249   3.887
 7446TIP3    H222275   3.326   3.393   3.928
 7447TIP3   OH222276   1.659   3.148   4.701
 7447TIP3    H122277   1.566   3.150   4.730
 7447TIP3    H222278   1.659   3.209   4.625
 7448TIP3   OH222279   2.816   4.864   4.208
 7448TIP3    H122280   2.871   4.849   4.128
 7448TIP3    H222281   2.878   4.914   4.264
 7449TIP3   OH222282   1.881   3.235   5.520
 7449TIP3    H122283   1.828   3.228   5.602
 7449TIP3    H222284   1.814   3.271   5.458
 7450TIP3   OH222285   1.918   4.665   5.595
 7450TIP3    H122286   1.828   4.630   5.580
 7450TIP3    H222287   1.934   4.640   5.687
 7451TIP3   OH222288   2.097   4.692   5.141
 7451TIP3    H122289   2.054   4.770   5.102
 7451TIP3    H222290   2.186   4.703   5.101
 7452TIP3   OH222291   2.542   4.939   5.283
 7452TIP3    H122292   2.586   4.938   5.371
 7452TIP3    H222293   2.608   4.988   5.230
 7453TIP3   OH222294   2.719   5.091   5.140
 7453TIP3    H122295   2.786   5.040   5.092
 7453TIP3    H222296   2.776   5.145   5.200
 7454TIP3   OH222297   3.516   3.451   5.242
 7454TIP3    H122298   3.426   3.447   5.205
 7454TIP3    H222299   3.547   3.358   5.229
 7455TIP3   OH222300   1.771   4.948   5.166
 7455TIP3    H122301   1.683   4.990   5.153
 7455TIP3    H222302   1.796   4.984   5.252
 7456TIP3   OH222303   2.011   4.927   5.028
 7456TIP3    H122304   1.923   4.942   5.069
 7456TIP3    H222305   1.995   4.958   4.936
 7457TIP3   OH222306   2.433   4.955   4.826
 7457TIP3    H122307   2.374   4.982   4.753
 7457TIP3    H222308   2.453   5.042   4.868
 7458TIP3   OH222309   2.711   4.904   4.884
 7458TIP3    H122310   2.618   4.908   4.856
 7458TIP3    H222311   2.753   4.971   4.828
 7459TIP3   OH222312   2.912   5.100   4.799
 7459TIP3    H122313   2.897   5.180   4.746
 7459TIP3    H222314   2.941   5.036   4.729
 7460TIP3   OH222315   1.680   4.756   4.920
 7460TIP3    H122316   1.721   4.729   5.005
 7460TIP3    H222317   1.749   4.721   4.859
 7461TIP3   OH222318   1.871   4.623   4.780
 7461TIP3    H122319   1.888   4.534   4.818
 7461TIP3    H222320   1.962   4.657   4.771
 7462TIP3   OH222321   2.141   4.713   4.773
 7462TIP3    H122322   2.194   4.649   4.723
 7462TIP3    H222323   2.194   4.724   4.853
 7463TIP3   OH222324   2.726   3.366   4.861
 7463TIP3    H122325   2.678   3.298   4.911
 7463TIP3    H222326   2.798   3.316   4.818
 7464TIP3   OH222327   3.246   3.241   4.764
 7464TIP3    H122328   3.282   3.297   4.692
 7464TIP3    H222329   3.151   3.264   4.761
 7465TIP3   OH222330   3.341   3.347   4.528
 7465TIP3    H122331   3.413   3.296   4.485
 7465TIP3    H222332   3.377   3.438   4.517
 7466TIP3   OH222333   1.971   3.073   4.877
 7466TIP3    H122334   1.878   3.041   4.878
 7466TIP3    H222335   2.019   2.988   4.872
 7467TIP3   OH222336   1.754   2.944   4.522
 7467TIP3    H122337   1.786   3.002   4.450
 7467TIP3    H222338   1.728   3.009   4.590
 7468TIP3   OH222339   2.415   3.104   4.757
 7468TIP3    H122340   2.470   3.157   4.696
 7468TIP3    H222341   2.430   3.149   4.841
 7469TIP3   OH222342   2.964   3.251   4.741
 7469TIP3    H122343   2.953   3.222   4.649
 7469TIP3    H222344   2.947   3.168   4.791
 7470TIP3   OH222345   2.990   3.175   4.303
 7470TIP3    H122346   2.904   3.220   4.316
 7470TIP3    H222347   2.973   3.090   4.348
 7471TIP3   OH222348   1.468   4.515   4.307
 7471TIP3    H122349   1.385   4.481   4.269
 7471TIP3    H222350   1.463   4.607   4.277
 7472TIP3   OH222351   1.874   3.104   4.287
 7472TIP3    H122352   1.924   3.043   4.230
 7472TIP3    H222353   1.946   3.160   4.323
 7473TIP3   OH222354   2.390   3.275   4.384
 7473TIP3    H122355   2.451   3.234   4.447
 7473TIP3    H222356   2.402   3.369   4.410
 7474TIP3   OH222357   2.245   4.704   3.885
 7474TIP3    H122358   2.334   4.726   3.850
 7474TIP3    H222359   2.223   4.629   3.826
 7475TIP3   OH222360   2.963   4.824   3.978
 7475TIP3    H122361   2.955   4.727   3.965
 7475TIP3    H222362   2.920   4.857   3.896
 7476TIP3   OH222363   2.177   3.355   5.767
 7476TIP3    H122364   2.144   3.284   5.824
 7476TIP3    H222365   2.272   3.356   5.793
 7477TIP3   OH222366   2.427   3.354   5.886
 7477TIP3    H122367   2.511   3.329   5.844
 7477TIP3    H222368   2.416   3.282   5.952
 7478TIP3   OH222369   1.551   4.541   3.942
 7478TIP3    H122370   1.556   4.565   4.036
 7478TIP3    H222371   1.639   4.498   3.927
 7479TIP3   OH222372   3.253   3.413   5.673
 7479TIP3    H122373   3.272   3.381   5.764
 7479TIP3    H222374   3.341   3.409   5.631
 7480TIP3   OH222375   3.187   4.965   5.170
 7480TIP3    H122376   3.112   4.934   5.116
 7480TIP3    H222377   3.170   5.062   5.169
 7481TIP3   OH222378   4.451   4.349   3.928
 7481TIP3    H122379   4.414   4.436   3.903
 7481TIP3    H222380   4.383   4.288   3.895
 7482TIP3   OH222381   3.737   4.648   4.410
 7482TIP3    H122382   3.719   4.556   4.432
 7482TIP3    H222383   3.828   4.658   4.446
 7483TIP3   OH222384   4.348   5.104   4.011
 7483TIP3    H122385   4.396   5.033   3.963
 7483TIP3    H222386   4.338   5.065   4.099
 7484TIP3   OH222387   4.253   4.559   4.318
 7484TIP3    H122388   4.290   4.471   4.326
 7484TIP3    H222389   4.313   4.608   4.377
 7485TIP3   OH222390   5.268   3.883   4.356
 7485TIP3    H122391   5.296   3.968   4.396
 7485TIP3    H222392   5.297   3.895   4.263
 7486TIP3   OH222393   4.000   3.730   4.354
 7486TIP3    H122394   3.956   3.814   4.335
 7486TIP3    H222395   3.942   3.665   4.310
 7487TIP3   OH222396   5.345   4.091   4.527
 7487TIP3    H122397   5.260   4.136   4.507
 7487TIP3    H222398   5.352   4.113   4.621
 7488TIP3   OH222399   4.017   3.675   4.817
 7488TIP3    H122400   3.943   3.677   4.756
 7488TIP3    H222401   3.972   3.702   4.900
 7489TIP3   OH222402   4.351   4.567   3.797
 7489TIP3    H122403   4.304   4.539   3.718
 7489TIP3    H222404   4.303   4.650   3.820
 7490TIP3   OH222405   3.323   4.370   3.925
 7490TIP3    H122406   3.293   4.397   3.836
 7490TIP3    H222407   3.358   4.456   3.960
 7491TIP3   OH222408   4.784   4.888   4.170
 7491TIP3    H122409   4.694   4.867   4.203
 7491TIP3    H222410   4.766   4.971   4.122
 7492TIP3   OH222411   5.069   3.788   4.529
 7492TIP3    H122412   4.985   3.829   4.507
 7492TIP3    H222413   5.126   3.815   4.454
 7493TIP3   OH222414   4.357   3.421   4.502
 7493TIP3    H122415   4.355   3.325   4.520
 7493TIP3    H222416   4.278   3.451   4.551
 7494TIP3   OH222417   4.474   4.932   3.838
 7494TIP3    H122418   4.520   4.849   3.812
 7494TIP3    H222419   4.534   4.998   3.796
 7495TIP3   OH222420   4.612   4.717   3.736
 7495TIP3    H122421   4.572   4.645   3.685
 7495TIP3    H222422   4.652   4.669   3.809
 7496TIP3   OH222423   5.001   4.795   4.503
 7496TIP3    H122424   4.983   4.718   4.445
 7496TIP3    H222425   4.977   4.871   4.446
 7497TIP3   OH222426   4.288   4.192   3.772
 7497TIP3    H122427   4.210   4.239   3.737
 7497TIP3    H222428   4.340   4.172   3.693
 7498TIP3   OH222429   4.248   3.976   3.478
 7498TIP3    H122430   4.314   4.024   3.530
 7498TIP3    H222431   4.305   3.912   3.431
 7499TIP3   OH222432   5.197   4.430   4.358
 7499TIP3    H122433   5.116   4.486   4.351
 7499TIP3    H222434   5.214   4.404   4.266
 7500TIP3   OH222435   4.638   4.271   3.748
 7500TIP3    H122436   4.576   4.300   3.819
 7500TIP3    H222437   4.697   4.215   3.800
 7501TIP3   OH222438   4.880   4.313   4.647
 7501TIP3    H122439   4.868   4.400   4.691
 7501TIP3    H222440   4.792   4.303   4.605
 7502TIP3   OH222441   4.008   4.711   4.280
 7502TIP3    H122442   3.986   4.640   4.219
 7502TIP3    H222443   4.082   4.670   4.330
 7503TIP3   OH222444   4.537   4.875   4.280
 7503TIP3    H122445   4.520   4.954   4.334
 7503TIP3    H222446   4.515   4.802   4.340
 7504TIP3   OH222447   4.138   4.793   4.822
 7504TIP3    H122448   4.069   4.849   4.862
 7504TIP3    H222449   4.086   4.735   4.763
 7505TIP3   OH222450   4.476   4.132   3.566
 7505TIP3    H122451   4.537   4.189   3.617
 7505TIP3    H222452   4.502   4.154   3.473
 7506TIP3   OH222453   3.901   4.346   4.941
 7506TIP3    H122454   3.904   4.439   4.971
 7506TIP3    H222455   3.806   4.331   4.936
 7507TIP3   OH222456   4.219   4.809   3.829
 7507TIP3    H122457   4.294   4.864   3.858
 7507TIP3    H222458   4.155   4.874   3.797
 7508TIP3   OH222459   3.936   4.968   4.920
 7508TIP3    H122460   3.906   4.968   4.826
 7508TIP3    H222461   3.854   4.946   4.968
 7509TIP3   OH222462   4.994   3.369   3.611
 7509TIP3    H122463   4.911   3.391   3.659
 7509TIP3    H222464   5.007   3.452   3.560
 7510TIP3   OH222465   3.747   4.101   3.915
 7510TIP3    H122466   3.665   4.143   3.885
 7510TIP3    H222467   3.717   4.040   3.983
 7511TIP3   OH222468   4.792   4.738   3.157
 7511TIP3    H122469   4.801   4.835   3.142
 7511TIP3    H222470   4.884   4.708   3.145
 7512TIP3   OH222471   3.514   4.496   4.861
 7512TIP3    H122472   3.472   4.468   4.778
 7512TIP3    H222473   3.553   4.412   4.895
 7513TIP3   OH222474   3.392   4.719   4.452
 7513TIP3    H122475   3.475   4.687   4.489
 7513TIP3    H222476   3.336   4.729   4.530
 7514TIP3   OH222477   5.239   5.140   4.553
 7514TIP3    H122478   5.233   5.044   4.568
 7514TIP3    H222479   5.154   5.169   4.594
 7515TIP3   OH222480   4.336   4.926   4.685
 7515TIP3    H122481   4.336   5.018   4.718
 7515TIP3    H222482   4.264   4.887   4.738
 7516TIP3   OH222483   4.099   5.057   3.637
 7516TIP3    H122484   4.053   5.038   3.553
 7516TIP3    H222485   4.066   5.146   3.660
 7517TIP3   OH222486   3.538   4.906   4.024
 7517TIP3    H122487   3.589   4.897   4.108
 7517TIP3    H222488   3.476   4.832   4.035
 7518TIP3   OH222489   4.301   4.957   3.278
 7518TIP3    H122490   4.360   4.887   3.242
 7518TIP3    H222491   4.336   4.966   3.370
 7519TIP3   OH222492   4.351   5.005   3.549
 7519TIP3    H122493   4.262   5.014   3.591
 7519TIP3    H222494   4.401   4.962   3.620
 7520TIP3   OH222495   5.124   4.274   4.825
 7520TIP3    H122496   5.043   4.288   4.773
 7520TIP3    H222497   5.138   4.178   4.813
 7521TIP3   OH222498   3.699   4.706   4.874
 7521TIP3    H122499   3.778   4.671   4.921
 7521TIP3    H222500   3.646   4.626   4.861
 7522TIP3   OH222501   4.125   3.490   4.632
 7522TIP3    H122502   4.033   3.467   4.608
 7522TIP3    H222503   4.110   3.576   4.675
 7523TIP3   OH222504   4.652   3.628   4.828
 7523TIP3    H122505   4.721   3.592   4.889
 7523TIP3    H222506   4.569   3.602   4.873
 7524TIP3   OH222507   4.900   4.049   4.751
 7524TIP3    H122508   4.845   4.043   4.833
 7524TIP3    H222509   4.869   4.133   4.713
 7525TIP3   OH222510   4.550   4.180   3.306
 7525TIP3    H122511   4.518   4.152   3.218
 7525TIP3    H222512   4.634   4.222   3.282
 7526TIP3   OH222513   4.262   3.552   3.606
 7526TIP3    H122514   4.228   3.548   3.698
 7526TIP3    H222515   4.224   3.469   3.572
 7527TIP3   OH222516   4.600   4.270   4.984
 7527TIP3    H122517   4.577   4.196   5.044
 7527TIP3    H222518   4.695   4.280   5.003
 7528TIP3   OH222519   3.920   3.524   3.572
 7528TIP3    H122520   3.912   3.523   3.669
 7528TIP3    H222521   3.840   3.574   3.548
 7529TIP3   OH222522   3.481   3.566   4.446
 7529TIP3    H122523   3.567   3.609   4.450
 7529TIP3    H222524   3.484   3.525   4.357
 7530TIP3   OH222525   3.442   3.557   3.972
 7530TIP3    H122526   3.474   3.588   3.884
 7530TIP3    H222527   3.381   3.630   3.993
 7531TIP3   OH222528   4.627   4.253   4.553
 7531TIP3    H122529   4.571   4.222   4.480
 7531TIP3    H222530   4.573   4.225   4.630
 7532TIP3   OH222531   4.239   3.704   4.228
 7532TIP3    H122532   4.147   3.706   4.264
 7532TIP3    H222533   4.283   3.742   4.305
 7533TIP3   OH222534   3.666   3.749   4.238
 7533TIP3    H122535   3.600   3.714   4.178
 7533TIP3    H222536   3.744   3.696   4.214
 7534TIP3   OH222537   3.967   3.755   3.916
 7534TIP3    H122538   4.053   3.800   3.914
 7534TIP3    H222539   3.915   3.802   3.847
 7535TIP3   OH222540   3.797   3.818   3.701
 7535TIP3    H122541   3.732   3.771   3.645
 7535TIP3    H222542   3.856   3.853   3.632
 7536TIP3   OH222543   4.919   5.486   4.651
 7536TIP3    H122544   4.942   5.529   4.568
 7536TIP3    H222545   4.977   5.528   4.718
 7537TIP3   OH222546   3.883   4.600   5.069
 7537TIP3    H122547   3.962   4.631   5.117
 7537TIP3    H222548   3.817   4.603   5.140
 7538TIP3   OH222549   3.861   3.551   4.202
 7538TIP3    H122550   3.836   3.469   4.248
 7538TIP3    H222551   3.919   3.520   4.131
 7539TIP3   OH222552   4.306   3.948   4.647
 7539TIP3    H122553   4.266   4.003   4.579
 7539TIP3    H222554   4.385   4.000   4.671
 7540TIP3   OH222555   4.055   4.346   3.709
 7540TIP3    H122556   3.986   4.277   3.699
 7540TIP3    H222557   4.040   4.374   3.802
 7541TIP3   OH222558   4.963   4.572   4.331
 7541TIP3    H122559   4.976   4.628   4.252
 7541TIP3    H222560   4.870   4.543   4.323
 7542TIP3   OH222561   4.517   3.645   3.576
 7542TIP3    H122562   4.419   3.637   3.580
 7542TIP3    H222563   4.534   3.740   3.595
 7543TIP3   OH222564   4.483   4.677   4.708
 7543TIP3    H122565   4.467   4.631   4.791
 7543TIP3    H222566   4.417   4.748   4.710
 7544TIP3   OH222567   4.590   3.889   3.669
 7544TIP3    H122568   4.686   3.900   3.689
 7544TIP3    H222569   4.566   3.977   3.635
 7545TIP3   OH222570   4.203   4.492   3.531
 7545TIP3    H122571   4.155   4.578   3.537
 7545TIP3    H222572   4.149   4.436   3.591
 7546TIP3   OH222573   3.625   4.290   5.001
 7546TIP3    H122574   3.658   4.278   5.093
 7546TIP3    H222575   3.565   4.214   4.991
 7547TIP3   OH222576   4.351   4.395   5.024
 7547TIP3    H122577   4.287   4.338   4.978
 7547TIP3    H222578   4.436   4.359   4.991
 7548TIP3   OH222579   4.622   4.930   4.598
 7548TIP3    H122580   4.527   4.914   4.614
 7548TIP3    H222581   4.646   4.977   4.681
 7549TIP3   OH222582   5.014   3.974   3.521
 7549TIP3    H122583   4.955   3.946   3.449
 7549TIP3    H222584   5.047   4.058   3.485
 7550TIP3   OH222585   5.249   4.849   4.595
 7550TIP3    H122586   5.151   4.844   4.586
 7550TIP3    H222587   5.275   4.822   4.504
 7551TIP3   OH222588   4.727   4.811   3.421
 7551TIP3    H122589   4.706   4.738   3.481
 7551TIP3    H222590   4.742   4.766   3.336
 7552TIP3   OH222591   4.721   4.440   4.272
 7552TIP3    H122592   4.628   4.431   4.296
 7552TIP3    H222593   4.726   4.374   4.201
 7553TIP3   OH222594   3.846   4.656   3.998
 7553TIP3    H122595   3.854   4.743   3.955
 7553TIP3    H222596   3.754   4.657   4.026
 7554TIP3   OH222597   3.409   3.972   3.714
 7554TIP3    H122598   3.465   4.050   3.730
 7554TIP3    H222599   3.336   3.987   3.774
 7555TIP3   OH222600   3.997   4.428   3.961
 7555TIP3    H122601   3.959   4.518   3.971
 7555TIP3    H222602   3.954   4.381   4.032
 7556TIP3   OH222603   4.119   5.014   4.477
 7556TIP3    H122604   4.166   5.084   4.429
 7556TIP3    H222605   4.190   4.972   4.526
 7557TIP3   OH222606   3.769   4.910   3.862
 7557TIP3    H122607   3.685   4.915   3.911
 7557TIP3    H222608   3.800   5.003   3.867
 7558TIP3   OH222609   4.517   4.641   4.441
 7558TIP3    H122610   4.502   4.648   4.538
 7558TIP3    H222611   4.602   4.595   4.440
 7559TIP3   OH222612   4.484   4.540   3.325
 7559TIP3    H122613   4.537   4.514   3.403
 7559TIP3    H222614   4.396   4.511   3.352
 7560TIP3   OH222615   4.760   5.177   4.489
 7560TIP3    H122616   4.681   5.119   4.486
 7560TIP3    H222617   4.740   5.242   4.419
 7561TIP3   OH222618   4.824   5.014   3.143
 7561TIP3    H122619   4.863   5.088   3.093
 7561TIP3    H222620   4.743   5.059   3.175
 7562TIP3   OH222621   3.860   3.755   5.027
 7562TIP3    H122622   3.771   3.791   5.039
 7562TIP3    H222623   3.874   3.702   5.108
 7563TIP3   OH222624   4.643   4.476   3.546
 7563TIP3    H122625   4.634   4.406   3.614
 7563TIP3    H222626   4.739   4.469   3.527
 7564TIP3   OH222627   3.567   4.882   4.650
 7564TIP3    H122628   3.621   4.803   4.668
 7564TIP3    H222629   3.610   4.943   4.710
 7565TIP3   OH222630   3.848   4.520   3.323
 7565TIP3    H122631   3.865   4.429   3.294
 7565TIP3    H222632   3.830   4.508   3.418
 7566TIP3   OH222633   3.794   4.525   3.596
 7566TIP3    H122634   3.867   4.495   3.651
 7566TIP3    H222635   3.800   4.622   3.604
 7567TIP3   OH222636   3.521   4.217   3.800
 7567TIP3    H122637   3.462   4.271   3.856
 7567TIP3    H222638   3.546   4.283   3.732
 7568TIP3   OH222639   4.668   3.877   4.703
 7568TIP3    H122640   4.761   3.893   4.724
 7568TIP3    H222641   4.655   3.787   4.738
 7569TIP3   OH222642   4.560   3.634   3.855
 7569TIP3    H122643   4.534   3.625   3.761
 7569TIP3    H222644   4.617   3.712   3.848
 7570TIP3   OH222645   4.060   4.721   3.543
 7570TIP3    H122646   3.974   4.749   3.580
 7570TIP3    H222647   4.077   4.794   3.481
 7571TIP3   OH222648   4.246   3.790   3.959
 7571TIP3    H122649   4.334   3.822   3.939
 7571TIP3    H222650   4.246   3.776   4.056
 7572TIP3   OH222651   4.512   4.109   4.763
 7572TIP3    H122652   4.541   4.157   4.843
 7572TIP3    H222653   4.569   4.029   4.763
 7573TIP3   OH222654   4.392   3.512   4.052
 7573TIP3    H122655   4.372   3.581   4.117
 7573TIP3    H222656   4.454   3.556   3.991
 7574TIP3   OH222657   3.804   4.798   3.611
 7574TIP3    H122658   3.774   4.869   3.549
 7574TIP3    H222659   3.788   4.840   3.698
 7575TIP3   OH222660   3.904   3.502   3.847
 7575TIP3    H122661   3.907   3.595   3.877
 7575TIP3    H222662   4.000   3.481   3.856
 7576TIP3   OH222663   5.164   4.004   4.745
 7576TIP3    H122664   5.067   4.007   4.756
 7576TIP3    H222665   5.169   3.961   4.658
 7577TIP3   OH222666   3.521   4.430   3.602
 7577TIP3    H122667   3.590   4.498   3.613
 7577TIP3    H222668   3.568   4.373   3.536
 7578TIP3   OH222669   3.444   3.696   3.737
 7578TIP3    H122670   3.455   3.792   3.726
 7578TIP3    H222671   3.369   3.677   3.678
 7579TIP3   OH222672   4.778   5.157   4.083
 7579TIP3    H122673   4.735   5.204   4.008
 7579TIP3    H222674   4.873   5.174   4.061
 7580TIP3   OH222675   3.860   3.426   4.613
 7580TIP3    H122676   3.821   3.401   4.527
 7580TIP3    H222677   3.840   3.348   4.668
 7581TIP3   OH222678   3.390   4.629   3.989
 7581TIP3    H122679   3.332   4.669   4.055
 7581TIP3    H222680   3.363   4.678   3.907
 7582TIP3   OH222681   3.548   5.181   5.065
 7582TIP3    H122682   3.636   5.178   5.107
 7582TIP3    H222683   3.528   5.086   5.059
 7583TIP3   OH222684   4.032   5.148   5.107
 7583TIP3    H122685   4.126   5.127   5.110
 7583TIP3    H222686   4.003   5.089   5.035
 7584TIP3   OH222687   4.013   4.724   3.235
 7584TIP3    H122688   3.957   4.652   3.274
 7584TIP3    H222689   4.089   4.671   3.204
 7585TIP3   OH222690   4.665   5.055   4.840
 7585TIP3    H122691   4.659   4.986   4.909
 7585TIP3    H222692   4.744   5.106   4.868
 7586TIP3   OH222693   4.450   4.765   3.147
 7586TIP3    H122694   4.493   4.700   3.206
 7586TIP3    H222695   4.507   4.763   3.068
 7587TIP3   OH222696   3.681   4.590   5.264
 7587TIP3    H122697   3.700   4.494   5.265
 7587TIP3    H222698   3.595   4.592   5.217
 7588TIP3   OH222699   3.658   4.241   3.458
 7588TIP3    H122700   3.714   4.205   3.529
 7588TIP3    H222701   3.724   4.245   3.386
 7589TIP3   OH222702   4.283   4.674   5.035
 7589TIP3    H122703   4.240   4.691   4.948
 7589TIP3    H222704   4.313   4.581   5.026
 7590TIP3   OH222705   4.165   4.438   3.262
 7590TIP3    H122706   4.169   4.451   3.359
 7590TIP3    H222707   4.166   4.340   3.257
 7591TIP3   OH222708   4.784   4.675   4.640
 7591TIP3    H122709   4.849   4.737   4.602
 7591TIP3    H222710   4.703   4.730   4.639
 7592TIP3   OH222711   3.793   4.323   5.245
 7592TIP3    H122712   3.871   4.279   5.208
 7592TIP3    H222713   3.826   4.354   5.331
 7593TIP3   OH222714   3.866   4.147   3.674
 7593TIP3    H122715   3.834   4.116   3.762
 7593TIP3    H222716   3.899   4.065   3.634
 7594TIP3   OH222717   4.145   4.230   4.888
 7594TIP3    H122718   4.056   4.264   4.912
 7594TIP3    H222719   4.155   4.270   4.800
 7595TIP3   OH222720   3.967   3.935   3.520
 7595TIP3    H122721   3.941   3.940   3.426
 7595TIP3    H222722   4.064   3.942   3.513
 7596TIP3   OH222723   4.654   4.613   5.047
 7596TIP3    H122724   4.726   4.585   4.989
 7596TIP3    H222725   4.649   4.540   5.111
 7597TIP3   OH222726   4.783   4.270   3.181
 7597TIP3    H122727   4.765   4.223   3.098
 7597TIP3    H222728   4.752   4.360   3.156
 7598TIP3   OH222729   4.256   4.004   5.031
 7598TIP3    H122730   4.260   3.921   4.979
 7598TIP3    H222731   4.220   4.066   4.965
 7599TIP3   OH222732   4.265   3.781   4.859
 7599TIP3    H122733   4.285   3.833   4.778
 7599TIP3    H222734   4.175   3.748   4.840
 7600TIP3   OH222735   4.872   4.287   5.098
 7600TIP3    H122736   4.916   4.201   5.096
 7600TIP3    H222737   4.938   4.345   5.058
 7601TIP3   OH222738   4.911   4.542   4.836
 7601TIP3    H122739   4.853   4.592   4.773
 7601TIP3    H222740   4.998   4.559   4.794
 7602TIP3   OH222741   4.140   4.106   5.267
 7602TIP3    H122742   4.067   4.041   5.277
 7602TIP3    H222743   4.171   4.085   5.176
 7603TIP3   OH222744   4.397   3.545   4.911
 7603TIP3    H122745   4.347   3.627   4.890
 7603TIP3    H222746   4.331   3.476   4.893
 7604TIP3   OH222747   4.518   4.050   5.123
 7604TIP3    H122748   4.501   4.038   5.218
 7604TIP3    H222749   4.430   4.028   5.088
 7605TIP3   OH222750   4.764   4.010   4.982
 7605TIP3    H122751   4.683   4.002   5.037
 7605TIP3    H222752   4.832   3.970   5.038
 7606TIP3   OH222753   4.997   3.943   5.131
 7606TIP3    H122754   5.004   3.846   5.147
 7606TIP3    H222755   4.987   3.980   5.222
 7607TIP3   OH222756   3.971   3.891   5.318
 7607TIP3    H122757   3.983   3.805   5.275
 7607TIP3    H222758   4.010   3.874   5.406
 7608TIP3   OH222759   4.486   3.554   5.168
 7608TIP3    H122760   4.554   3.484   5.159
 7608TIP3    H222761   4.448   3.552   5.078
 7609TIP3   OH222762   4.553   3.770   5.324
 7609TIP3    H122763   4.532   3.700   5.259
 7609TIP3    H222764   4.476   3.830   5.315
 7610TIP3   OH222765   3.773   5.003   3.423
 7610TIP3    H122766   3.869   4.995   3.405
 7610TIP3    H222767   3.745   5.051   3.343
 7611TIP3   OH222768   3.255   4.379   3.645
 7611TIP3    H122769   3.349   4.403   3.627
 7611TIP3    H222770   3.250   4.291   3.599
 7612TIP3   OH222771   3.167   4.995   4.054
 7612TIP3    H122772   3.101   4.932   4.020
 7612TIP3    H222773   3.212   4.939   4.121
 7613TIP3   OH222774   3.304   4.848   4.233
 7613TIP3    H122775   3.299   4.774   4.297
 7613TIP3    H222776   3.356   4.907   4.290
 7614TIP3   OH222777   5.035   5.238   4.039
 7614TIP3    H122778   5.055   5.274   4.128
 7614TIP3    H222779   5.089   5.295   3.982
 7615TIP3   OH222780   5.062   5.267   4.318
 7615TIP3    H122781   5.017   5.180   4.320
 7615TIP3    H222782   5.133   5.250   4.382
 7616TIP3   OH222783   5.108   4.939   4.896
 7616TIP3    H122784   5.032   4.949   4.956
 7616TIP3    H222785   5.145   5.030   4.899
 7617TIP3   OH222786   4.921   4.454   3.518
 7617TIP3    H122787   4.987   4.518   3.483
 7617TIP3    H222788   4.954   4.440   3.607
 7618TIP3   OH222789   5.109   4.702   4.129
 7618TIP3    H122790   5.171   4.678   4.059
 7618TIP3    H222791   5.089   4.794   4.104
 7619TIP3   OH222792   4.940   5.018   4.351
 7619TIP3    H122793   4.870   5.063   4.404
 7619TIP3    H222794   4.886   4.973   4.282
 7620TIP3   OH222795   4.988   4.233   3.362
 7620TIP3    H122796   4.916   4.232   3.296
 7620TIP3    H222797   4.959   4.308   3.417
 7621TIP3   OH222798   4.854   3.902   3.311
 7621TIP3    H122799   4.815   3.941   3.233
 7621TIP3    H222800   4.829   3.808   3.301
 7622TIP3   OH222801   5.153   4.604   4.723
 7622TIP3    H122802   5.226   4.539   4.713
 7622TIP3    H222803   5.179   4.674   4.661
 7623TIP3   OH222804   5.341   4.410   4.739
 7623TIP3    H122805   5.264   4.361   4.776
 7623TIP3    H222806   5.412   4.344   4.754
 7624TIP3   OH222807   4.802   3.632   3.297
 7624TIP3    H122808   4.876   3.609   3.357
 7624TIP3    H222809   4.728   3.580   3.331
 7625TIP3   OH222810   4.854   3.888   3.736
 7625TIP3    H122811   4.902   3.807   3.761
 7625TIP3    H222812   4.922   3.932   3.680
 7626TIP3   OH222813   5.100   4.213   4.499
 7626TIP3    H122814   5.020   4.246   4.544
 7626TIP3    H222815   5.130   4.293   4.451
 7627TIP3   OH222816   3.705   3.937   5.281
 7627TIP3    H122817   3.803   3.935   5.285
 7627TIP3    H222818   3.684   3.853   5.326
 7628TIP3   OH222819   5.549   3.809   5.044
 7628TIP3    H122820   5.604   3.741   4.998
 7628TIP3    H222821   5.515   3.860   4.968
 7629TIP3   OH222822   4.972   3.640   3.797
 7629TIP3    H122823   5.020   3.627   3.881
 7629TIP3    H222824   4.909   3.566   3.798
 7630TIP3   OH222825   5.414   3.943   4.851
 7630TIP3    H122826   5.328   3.986   4.869
 7630TIP3    H222827   5.383   3.872   4.791
 7631TIP3   OH222828   5.041   3.573   3.428
 7631TIP3    H122829   5.089   3.506   3.375
 7631TIP3    H222830   5.104   3.647   3.431
 7632TIP3   OH222831   3.450   3.423   4.205
 7632TIP3    H122832   3.355   3.406   4.216
 7632TIP3    H222833   3.453   3.470   4.119
 7633TIP3   OH222834   4.616   5.114   3.697
 7633TIP3    H122835   4.665   5.099   3.613
 7633TIP3    H222836   4.671   5.181   3.740
 7634TIP3   OH222837   3.676   3.481   5.008
 7634TIP3    H122838   3.625   3.483   5.091
 7634TIP3    H222839   3.614   3.525   4.947
 7635TIP3   OH222840   3.715   4.931   5.092
 7635TIP3    H122841   3.639   4.884   5.053
 7635TIP3    H222842   3.720   4.894   5.180
 7636TIP3   OH222843   3.888   4.965   4.649
 7636TIP3    H122844   3.855   5.038   4.594
 7636TIP3    H222845   3.967   4.941   4.598
 7637TIP3   OH222846   4.340   5.196   4.769
 7637TIP3    H122847   4.383   5.195   4.857
 7637TIP3    H222848   4.407   5.245   4.717
 7638TIP3   OH222849   4.520   5.347   4.627
 7638TIP3    H122850   4.590   5.293   4.588
 7638TIP3    H222851   4.572   5.403   4.688
 7639TIP3   OH222852   5.313   3.711   4.727
 7639TIP3    H122853   5.221   3.702   4.695
 7639TIP3    H222854   5.344   3.618   4.716
 7640TIP3   OH222855   3.572   5.217   4.647
 7640TIP3    H122856   3.482   5.249   4.629
 7640TIP3    H222857   3.577   5.227   4.742
 7641TIP3   OH222858   3.810   5.192   4.510
 7641TIP3    H122859   3.722   5.201   4.555
 7641TIP3    H222860   3.787   5.217   4.418
 7642TIP3   OH222861   4.236   5.216   4.306
 7642TIP3    H122862   4.163   5.234   4.244
 7642TIP3    H222863   4.246   5.303   4.350
 7643TIP3   OH222864   4.502   5.153   4.359
 7643TIP3    H122865   4.408   5.169   4.340
 7643TIP3    H222866   4.544   5.231   4.319
 7644TIP3   OH222867   4.710   5.346   4.276
 7644TIP3    H122868   4.696   5.430   4.227
 7644TIP3    H222869   4.735   5.285   4.204
 7645TIP3   OH222870   3.486   5.004   4.401
 7645TIP3    H122871   3.507   4.969   4.490
 7645TIP3    H222872   3.553   4.954   4.350
 7646TIP3   OH222873   3.679   4.869   4.253
 7646TIP3    H122874   3.695   4.786   4.305
 7646TIP3    H222875   3.770   4.906   4.252
 7647TIP3   OH222876   3.945   4.972   4.257
 7647TIP3    H122877   3.971   4.877   4.248
 7647TIP3    H222878   3.990   4.989   4.342
 7648TIP3   OH222879   5.052   3.501   4.250
 7648TIP3    H122880   5.081   3.555   4.173
 7648TIP3    H222881   4.954   3.510   4.245
 7649TIP3   OH222882   5.139   3.599   4.012
 7649TIP3    H122883   5.211   3.548   3.972
 7649TIP3    H222884   5.174   3.690   3.995
 7650TIP3   OH222885   3.765   3.332   4.364
 7650TIP3    H122886   3.673   3.298   4.364
 7650TIP3    H222887   3.816   3.249   4.360
 7651TIP3   OH222888   3.559   3.197   4.009
 7651TIP3    H122889   3.590   3.253   3.935
 7651TIP3    H222890   3.528   3.264   4.072
 7652TIP3   OH222891   4.209   3.360   4.249
 7652TIP3    H122892   4.265   3.410   4.188
 7652TIP3    H222893   4.236   3.398   4.334
 7653TIP3   OH222894   4.781   3.484   4.228
 7653TIP3    H122895   4.741   3.463   4.143
 7653TIP3    H222896   4.753   3.408   4.283
 7654TIP3   OH222897   4.788   3.426   3.791
 7654TIP3    H122898   4.700   3.467   3.794
 7654TIP3    H222899   4.773   3.343   3.841
 7655TIP3   OH222900   3.271   4.771   3.791
 7655TIP3    H122901   3.186   4.739   3.755
 7655TIP3    H222902   3.260   4.866   3.776
 7656TIP3   OH222903   3.670   3.351   3.788
 7656TIP3    H122904   3.716   3.298   3.720
 7656TIP3    H222905   3.742   3.410   3.817
 7657TIP3   OH222906   4.183   3.532   3.870
 7657TIP3    H122907   4.246   3.494   3.934
 7657TIP3    H222908   4.187   3.626   3.895
 7658TIP3   OH222909   4.041   4.960   3.371
 7658TIP3    H122910   4.130   4.982   3.336
 7658TIP3    H222911   4.019   4.885   3.312
 7659TIP3   OH222912   4.759   5.077   3.464
 7659TIP3    H122913   4.751   4.979   3.452
 7659TIP3    H222914   4.716   5.110   3.383
 7660TIP3   OH222915   3.970   3.607   5.255
 7660TIP3    H122916   3.941   3.536   5.314
 7660TIP3    H222917   4.065   3.611   5.278
 7661TIP3   OH222918   4.222   3.611   5.372
 7661TIP3    H122919   4.305   3.587   5.329
 7661TIP3    H222920   4.212   3.538   5.438
 7662TIP3   OH222921   3.347   4.798   3.429
 7662TIP3    H122922   3.349   4.820   3.523
 7662TIP3    H222923   3.435   4.756   3.415
 7663TIP3   OH222924   5.050   3.670   5.160
 7663TIP3    H122925   5.068   3.639   5.251
 7663TIP3    H222926   5.138   3.663   5.118
 7664TIP3   OH222927   4.995   5.224   4.642
 7664TIP3    H122928   4.912   5.190   4.604
 7664TIP3    H222929   4.971   5.318   4.652
 7665TIP3   OH222930   6.522   4.921   3.524
 7665TIP3    H122931   6.497   4.827   3.523
 7665TIP3    H222932   6.437   4.964   3.504
 7666TIP3   OH222933   6.151   5.366   3.496
 7666TIP3    H122934   6.187   5.289   3.448
 7666TIP3    H222935   6.126   5.328   3.581
 7667TIP3   OH222936   7.067   4.140   3.847
 7667TIP3    H122937   7.096   4.224   3.887
 7667TIP3    H222938   7.083   4.158   3.752
 7668TIP3   OH222939   6.483   4.330   3.876
 7668TIP3    H122940   6.511   4.239   3.894
 7668TIP3    H222941   6.424   4.316   3.799
 7669TIP3   OH222942   5.803   3.987   3.840
 7669TIP3    H122943   5.761   4.050   3.776
 7669TIP3    H222944   5.773   3.903   3.801
 7670TIP3   OH222945   6.496   4.068   3.469
 7670TIP3    H122946   6.570   4.054   3.532
 7670TIP3    H222947   6.544   4.107   3.394
 7671TIP3   OH222948   7.142   4.350   4.014
 7671TIP3    H122949   7.055   4.393   3.995
 7671TIP3    H222950   7.149   4.368   4.109
 7672TIP3   OH222951   5.801   3.962   4.287
 7672TIP3    H122952   5.740   3.992   4.216
 7672TIP3    H222953   5.746   3.984   4.366
 7673TIP3   OH222954   6.711   4.071   3.638
 7673TIP3    H122955   6.689   4.027   3.721
 7673TIP3    H222956   6.757   4.151   3.668
 7674TIP3   OH222957   5.677   4.067   4.070
 7674TIP3    H122958   5.740   4.139   4.091
 7674TIP3    H222959   5.716   4.034   3.986
 7675TIP3   OH222960   5.118   4.625   3.418
 7675TIP3    H122961   5.092   4.643   3.325
 7675TIP3    H222962   5.156   4.710   3.446
 7676TIP3   OH222963   6.856   4.043   4.013
 7676TIP3    H122964   6.767   4.066   3.982
 7676TIP3    H222965   6.913   4.073   3.940
 7677TIP3   OH222966   6.162   3.689   4.004
 7677TIP3    H122967   6.140   3.594   4.002
 7677TIP3    H222968   6.080   3.725   4.043
 7678TIP3   OH222969   6.275   5.182   3.332
 7678TIP3    H122970   6.315   5.099   3.299
 7678TIP3    H222971   6.333   5.248   3.289
 7679TIP3   OH222972   6.403   4.960   3.230
 7679TIP3    H122973   6.342   4.911   3.173
 7679TIP3    H222974   6.410   4.899   3.304
 7680TIP3   OH222975   6.062   4.410   3.225
 7680TIP3    H122976   5.992   4.478   3.233
 7680TIP3    H222977   6.128   4.457   3.173
 7681TIP3   OH222978   6.038   4.233   2.957
 7681TIP3    H122979   6.086   4.276   3.030
 7681TIP3    H222980   6.108   4.175   2.919
 7682TIP3   OH222981   6.984   4.685   3.838
 7682TIP3    H122982   6.907   4.742   3.838
 7682TIP3    H222983   7.022   4.706   3.749
 7683TIP3   OH222984   6.673   4.572   4.130
 7683TIP3    H122985   6.662   4.651   4.186
 7683TIP3    H222986   6.583   4.566   4.090
 7684TIP3   OH222987   6.322   5.098   3.813
 7684TIP3    H122988   6.309   5.191   3.786
 7684TIP3    H222989   6.349   5.113   3.906
 7685TIP3   OH222990   5.929   5.053   4.312
 7685TIP3    H122991   5.882   5.122   4.364
 7685TIP3    H222992   5.853   5.010   4.272
 7686TIP3   OH222993   6.298   4.385   3.051
 7686TIP3    H122994   6.328   4.466   3.093
 7686TIP3    H222995   6.309   4.406   2.955
 7687TIP3   OH222996   5.694   4.610   4.412
 7687TIP3    H122997   5.698   4.696   4.459
 7687TIP3    H222998   5.599   4.590   4.423
 7688TIP3   OH222999   5.983   5.118   3.357
 7688TIP3    H123000   6.078   5.121   3.341
 7688TIP3    H223001   5.945   5.156   3.277
 7689TIP3   OH223002   5.734   5.224   4.406
 7689TIP3    H123003   5.699   5.221   4.315
 7689TIP3    H223004   5.654   5.201   4.459
 7690TIP3   OH223005   6.788   3.627   3.097
 7690TIP3    H123006   6.706   3.647   3.146
 7690TIP3    H223007   6.802   3.710   3.047
 7691TIP3   OH223008   6.586   4.996   2.644
 7691TIP3    H123009   6.594   5.092   2.628
 7691TIP3    H223010   6.679   4.966   2.631
 7692TIP3   OH223011   5.314   4.752   4.348
 7692TIP3    H123012   5.244   4.724   4.286
 7692TIP3    H223013   5.350   4.666   4.380
 7693TIP3   OH223014   5.160   4.945   3.993
 7693TIP3    H123015   5.256   4.958   3.983
 7693TIP3    H223016   5.135   5.026   4.038
 7694TIP3   OH223017   7.030   5.396   4.037
 7694TIP3    H123018   7.034   5.303   4.065
 7694TIP3    H223019   6.947   5.425   4.082
 7695TIP3   OH223020   6.137   5.180   4.173
 7695TIP3    H123021   6.137   5.273   4.205
 7695TIP3    H223022   6.062   5.143   4.226
 7696TIP3   OH223023   5.902   5.316   3.122
 7696TIP3    H123024   5.848   5.294   3.044
 7696TIP3    H223025   5.863   5.400   3.152
 7697TIP3   OH223026   5.334   5.162   3.509
 7697TIP3    H123027   5.379   5.151   3.595
 7697TIP3    H223028   5.279   5.082   3.507
 7698TIP3   OH223029   6.099   5.216   2.763
 7698TIP3    H123030   6.157   5.145   2.728
 7698TIP3    H223031   6.130   5.224   2.856
 7699TIP3   OH223032   6.150   5.261   3.032
 7699TIP3    H123033   6.059   5.276   3.069
 7699TIP3    H223034   6.191   5.213   3.106
 7700TIP3   OH223035   6.917   4.528   4.310
 7700TIP3    H123036   6.834   4.536   4.261
 7700TIP3    H223037   6.934   4.432   4.304
 7701TIP3   OH223038   5.519   4.941   4.326
 7701TIP3    H123039   5.575   4.925   4.405
 7701TIP3    H223040   5.449   4.874   4.338
 7702TIP3   OH223041   5.917   3.760   4.121
 7702TIP3    H123042   5.828   3.730   4.094
 7702TIP3    H223043   5.893   3.843   4.166
 7703TIP3   OH223044   6.448   3.877   4.316
 7703TIP3    H123045   6.514   3.848   4.382
 7703TIP3    H223046   6.363   3.856   4.361
 7704TIP3   OH223047   6.695   4.308   4.241
 7704TIP3    H123048   6.641   4.301   4.323
 7704TIP3    H223049   6.658   4.387   4.199
 7705TIP3   OH223050   6.349   4.438   2.791
 7705TIP3    H123051   6.313   4.408   2.705
 7705TIP3    H223052   6.429   4.486   2.763
 7706TIP3   OH223053   6.064   3.806   3.093
 7706TIP3    H123054   6.028   3.805   3.185
 7706TIP3    H223055   6.020   3.726   3.059
 7707TIP3   OH223056   5.866   4.269   4.148
 7707TIP3    H123057   5.809   4.284   4.227
 7707TIP3    H223058   5.840   4.340   4.088
 7708TIP3   OH223059   5.683   4.136   3.648
 7708TIP3    H123060   5.595   4.159   3.611
 7708TIP3    H223061   5.724   4.102   3.566
 7709TIP3   OH223062   6.222   4.254   3.387
 7709TIP3    H123063   6.163   4.321   3.346
 7709TIP3    H223064   6.270   4.222   3.309
 7710TIP3   OH223065   6.396   4.525   4.469
 7710TIP3    H123066   6.373   4.453   4.532
 7710TIP3    H223067   6.490   4.540   4.493
 7711TIP3   OH223068   6.389   4.283   3.613
 7711TIP3    H123069   6.322   4.310   3.547
 7711TIP3    H223070   6.416   4.198   3.573
 7712TIP3   OH223071   5.688   4.293   4.349
 7712TIP3    H123072   5.667   4.368   4.406
 7712TIP3    H223073   5.660   4.217   4.403
 7713TIP3   OH223074   5.717   3.781   3.060
 7713TIP3    H123075   5.705   3.781   3.157
 7713TIP3    H223076   5.642   3.839   3.034
 7714TIP3   OH223077   5.276   3.813   3.929
 7714TIP3    H123078   5.335   3.861   3.990
 7714TIP3    H223079   5.306   3.843   3.843
 7715TIP3   OH223080   6.415   4.529   4.046
 7715TIP3    H123081   6.426   4.455   3.981
 7715TIP3    H223082   6.370   4.480   4.118
 7716TIP3   OH223083   6.060   3.978   3.718
 7716TIP3    H123084   5.970   3.981   3.757
 7716TIP3    H223085   6.115   3.986   3.796
 7717TIP3   OH223086   5.773   4.031   3.409
 7717TIP3    H123087   5.857   4.063   3.373
 7717TIP3    H223088   5.709   4.052   3.337
 7718TIP3   OH223089   6.550   4.057   3.919
 7718TIP3    H123090   6.514   4.072   4.009
 7718TIP3    H223091   6.483   3.996   3.884
 7719TIP3   OH223092   5.616   4.058   3.194
 7719TIP3    H123093   5.531   4.028   3.158
 7719TIP3    H223094   5.658   4.097   3.114
 7720TIP3   OH223095   6.723   5.745   4.138
 7720TIP3    H123096   6.717   5.773   4.045
 7720TIP3    H223097   6.799   5.798   4.170
 7721TIP3   OH223098   5.680   4.857   4.555
 7721TIP3    H123099   5.756   4.889   4.607
 7721TIP3    H223100   5.611   4.858   4.624
 7722TIP3   OH223101   6.183   4.324   3.841
 7722TIP3    H123102   6.195   4.268   3.764
 7722TIP3    H223103   6.159   4.263   3.911
 7723TIP3   OH223104   5.719   3.771   3.699
 7723TIP3    H123105   5.643   3.723   3.734
 7723TIP3    H223106   5.690   3.792   3.609
 7724TIP3   OH223107   6.126   4.199   4.106
 7724TIP3    H123108   6.035   4.234   4.118
 7724TIP3    H223109   6.181   4.266   4.149
 7725TIP3   OH223110   5.855   4.603   3.203
 7725TIP3    H123111   5.787   4.533   3.191
 7725TIP3    H223112   5.832   4.636   3.293
 7726TIP3   OH223113   6.312   3.910   3.057
 7726TIP3    H123114   6.216   3.893   3.067
 7726TIP3    H223115   6.321   4.004   3.084
 7727TIP3   OH223116   6.269   4.921   4.197
 7727TIP3    H123117   6.271   4.893   4.289
 7727TIP3    H223118   6.219   5.004   4.200
 7728TIP3   OH223119   6.383   4.153   3.165
 7728TIP3    H123120   6.479   4.164   3.180
 7728TIP3    H223121   6.360   4.235   3.116
 7729TIP3   OH223122   5.997   4.747   3.007
 7729TIP3    H123123   5.956   4.835   3.025
 7729TIP3    H223124   5.957   4.694   3.079
 7730TIP3   OH223125   5.431   4.540   4.485
 7730TIP3    H123126   5.446   4.528   4.580
 7730TIP3    H223127   5.358   4.476   4.469
 7731TIP3   OH223128   6.151   4.657   4.507
 7731TIP3    H123129   6.087   4.593   4.471
 7731TIP3    H223130   6.236   4.619   4.477
 7732TIP3   OH223131   6.409   5.176   4.078
 7732TIP3    H123132   6.315   5.174   4.106
 7732TIP3    H223133   6.446   5.223   4.156
 7733TIP3   OH223134   6.828   4.248   2.999
 7733TIP3    H123135   6.765   4.203   2.937
 7733TIP3    H223136   6.822   4.338   2.959
 7734TIP3   OH223137   7.039   5.104   4.078
 7734TIP3    H123138   6.944   5.111   4.093
 7734TIP3    H223139   7.046   5.073   3.985
 7735TIP3   OH223140   6.532   5.066   2.911
 7735TIP3    H123141   6.496   4.995   2.967
 7735TIP3    H223142   6.538   5.023   2.824
 7736TIP3   OH223143   6.505   4.682   3.745
 7736TIP3    H123144   6.492   4.627   3.824
 7736TIP3    H223145   6.548   4.616   3.686
 7737TIP3   OH223146   5.646   4.933   3.496
 7737TIP3    H123147   5.646   5.012   3.439
 7737TIP3    H223148   5.552   4.912   3.499
 7738TIP3   OH223149   5.204   4.234   3.195
 7738TIP3    H123150   5.257   4.312   3.222
 7738TIP3    H223151   5.136   4.233   3.266
 7739TIP3   OH223152   5.772   4.690   3.452
 7739TIP3    H123153   5.736   4.780   3.468
 7739TIP3    H223154   5.739   4.640   3.527
 7740TIP3   OH223155   5.919   5.261   3.960
 7740TIP3    H123156   5.953   5.341   3.915
 7740TIP3    H223157   5.993   5.239   4.018
 7741TIP3   OH223158   5.566   5.163   3.349
 7741TIP3    H123159   5.481   5.177   3.395
 7741TIP3    H223160   5.604   5.254   3.353
 7742TIP3   OH223161   6.276   4.798   2.807
 7742TIP3    H123162   6.328   4.769   2.885
 7742TIP3    H223163   6.187   4.770   2.834
 7743TIP3   OH223164   6.549   5.449   3.987
 7743TIP3    H123165   6.483   5.380   3.968
 7743TIP3    H223166   6.540   5.508   3.909
 7744TIP3   OH223167   6.620   5.271   2.630
 7744TIP3    H123168   6.655   5.343   2.575
 7744TIP3    H223169   6.539   5.316   2.664
 7745TIP3   OH223170   5.636   4.046   4.498
 7745TIP3    H123171   5.539   4.051   4.509
 7745TIP3    H223172   5.661   3.983   4.569
 7746TIP3   OH223173   6.439   4.729   3.022
 7746TIP3    H123174   6.423   4.691   3.109
 7746TIP3    H223175   6.536   4.721   3.013
 7747TIP3   OH223176   5.366   5.124   4.129
 7747TIP3    H123177   5.421   5.061   4.179
 7747TIP3    H223178   5.378   5.204   4.182
 7748TIP3   OH223179   5.647   4.776   2.809
 7748TIP3    H123180   5.659   4.684   2.781
 7748TIP3    H223181   5.627   4.764   2.904
 7749TIP3   OH223182   5.592   4.782   3.080
 7749TIP3    H123183   5.665   4.750   3.136
 7749TIP3    H223184   5.598   4.880   3.091
 7750TIP3   OH223185   5.322   4.472   3.263
 7750TIP3    H123186   5.282   4.500   3.347
 7750TIP3    H223187   5.338   4.557   3.219
 7751TIP3   OH223188   6.476   4.115   4.180
 7751TIP3    H123189   6.557   4.146   4.223
 7751TIP3    H223190   6.457   4.032   4.228
 7752TIP3   OH223191   6.363   3.858   3.339
 7752TIP3    H123192   6.341   3.884   3.247
 7752TIP3    H223193   6.395   3.942   3.377
 7753TIP3   OH223194   5.862   4.985   3.031
 7753TIP3    H123195   5.774   5.005   3.070
 7753TIP3    H223196   5.867   5.054   2.964
 7754TIP3   OH223197   6.065   4.035   3.443
 7754TIP3    H123198   6.118   4.116   3.428
 7754TIP3    H223199   6.052   4.037   3.540
 7755TIP3   OH223200   6.313   4.370   4.247
 7755TIP3    H123201   6.337   4.418   4.329
 7755TIP3    H223202   6.363   4.287   4.257
 7756TIP3   OH223203   6.193   3.772   3.551
 7756TIP3    H123204   6.167   3.854   3.598
 7756TIP3    H223205   6.250   3.809   3.480
 7757TIP3   OH223206   5.603   5.055   3.097
 7757TIP3    H123207   5.570   5.124   3.035
 7757TIP3    H223208   5.585   5.098   3.184
 7758TIP3   OH223209   5.700   3.766   3.337
 7758TIP3    H123210   5.689   3.858   3.368
 7758TIP3    H223211   5.796   3.756   3.348
 7759TIP3   OH223212   6.959   4.259   4.229
 7759TIP3    H123213   6.861   4.263   4.242
 7759TIP3    H223214   6.961   4.213   4.144
 7760TIP3   OH223215   6.608   4.460   3.620
 7760TIP3    H123216   6.530   4.401   3.627
 7760TIP3    H223217   6.677   4.407   3.665
 7761TIP3   OH223218   5.319   4.695   3.085
 7761TIP3    H123219   5.392   4.759   3.093
 7761TIP3    H223220   5.360   4.632   3.022
 7762TIP3   OH223221   5.260   3.959   3.175
 7762TIP3    H123222   5.273   4.052   3.202
 7762TIP3    H223223   5.201   3.930   3.245
 7763TIP3   OH223224   6.581   5.414   3.576
 7763TIP3    H123225   6.532   5.455   3.502
 7763TIP3    H223226   6.673   5.436   3.549
 7764TIP3   OH223227   5.653   3.686   4.098
 7764TIP3    H123228   5.619   3.654   4.011
 7764TIP3    H223229   5.642   3.607   4.154
 7765TIP3   OH223230   5.195   4.905   3.481
 7765TIP3    H123231   5.116   4.929   3.532
 7765TIP3    H223232   5.169   4.939   3.392
 7766TIP3   OH223233   5.346   5.433   4.539
 7766TIP3    H123234   5.429   5.438   4.591
 7766TIP3    H223235   5.325   5.338   4.544
 7767TIP3   OH223236   5.831   5.406   4.595
 7767TIP3    H123237   5.925   5.383   4.598
 7767TIP3    H223238   5.800   5.347   4.523
 7768TIP3   OH223239   5.809   4.979   2.723
 7768TIP3    H123240   5.750   4.910   2.762
 7768TIP3    H223241   5.883   4.923   2.694
 7769TIP3   OH223242   6.481   5.297   4.315
 7769TIP3    H123243   6.462   5.237   4.390
 7769TIP3    H223244   6.546   5.359   4.354
 7770TIP3   OH223245   6.248   5.023   2.635
 7770TIP3    H123246   6.286   4.953   2.692
 7770TIP3    H223247   6.303   5.018   2.555
 7771TIP3   OH223248   5.479   4.847   4.749
 7771TIP3    H123249   5.494   4.751   4.754
 7771TIP3    H223250   5.391   4.851   4.707
 7772TIP3   OH223251   5.452   4.503   2.940
 7772TIP3    H123252   5.496   4.462   3.016
 7772TIP3    H223253   5.524   4.504   2.874
 7773TIP3   OH223254   6.087   4.933   4.520
 7773TIP3    H123255   6.038   4.945   4.436
 7773TIP3    H223256   6.115   4.839   4.515
 7774TIP3   OH223257   5.963   4.696   2.743
 7774TIP3    H123258   5.963   4.709   2.841
 7774TIP3    H223259   5.961   4.597   2.740
 7775TIP3   OH223260   6.584   4.941   4.121
 7775TIP3    H123261   6.599   5.034   4.099
 7775TIP3    H223262   6.487   4.940   4.128
 7776TIP3   OH223263   5.597   4.582   4.731
 7776TIP3    H123264   5.667   4.519   4.713
 7776TIP3    H223265   5.622   4.614   4.820
 7777TIP3   OH223266   5.668   4.398   3.170
 7777TIP3    H123267   5.616   4.353   3.238
 7777TIP3    H223268   5.702   4.323   3.117
 7778TIP3   OH223269   5.945   4.477   4.401
 7778TIP3    H123270   5.857   4.521   4.402
 7778TIP3    H223271   5.980   4.508   4.315
 7779TIP3   OH223272   5.761   4.195   3.002
 7779TIP3    H123273   5.734   4.199   2.908
 7779TIP3    H223274   5.859   4.202   2.993
 7780TIP3   OH223275   6.448   4.867   4.527
 7780TIP3    H123276   6.534   4.844   4.489
 7780TIP3    H223277   6.439   4.801   4.598
 7781TIP3   OH223278   6.588   4.526   2.667
 7781TIP3    H123279   6.565   4.479   2.585
 7781TIP3    H223280   6.554   4.616   2.644
 7782TIP3   OH223281   6.057   4.253   4.518
 7782TIP3    H123282   6.053   4.173   4.462
 7782TIP3    H223283   6.011   4.319   4.462
 7783TIP3   OH223284   6.058   4.038   4.329
 7783TIP3    H123285   6.085   4.079   4.244
 7783TIP3    H223286   5.964   4.015   4.312
 7784TIP3   OH223287   6.069   4.584   4.182
 7784TIP3    H123288   6.145   4.542   4.140
 7784TIP3    H223289   6.066   4.668   4.135
 7785TIP3   OH223290   6.665   4.542   4.581
 7785TIP3    H123291   6.712   4.458   4.593
 7785TIP3    H223292   6.736   4.600   4.550
 7786TIP3   OH223293   6.711   4.798   4.313
 7786TIP3    H123294   6.655   4.851   4.253
 7786TIP3    H223295   6.798   4.813   4.272
 7787TIP3   OH223296   5.936   4.364   4.751
 7787TIP3    H123297   5.865   4.297   4.765
 7787TIP3    H223298   5.966   4.340   4.661
 7788TIP3   OH223299   6.189   3.802   4.394
 7788TIP3    H123300   6.140   3.885   4.371
 7788TIP3    H223301   6.120   3.735   4.381
 7789TIP3   OH223302   6.315   4.308   4.610
 7789TIP3    H123303   6.300   4.295   4.705
 7789TIP3    H223304   6.226   4.282   4.577
 7790TIP3   OH223305   6.554   4.256   4.465
 7790TIP3    H123306   6.478   4.258   4.526
 7790TIP3    H223307   6.627   4.225   4.523
 7791TIP3   OH223308   6.787   4.198   4.615
 7791TIP3    H123309   6.797   4.102   4.634
 7791TIP3    H223310   6.780   4.237   4.705
 7792TIP3   OH223311   5.773   4.146   4.802
 7792TIP3    H123312   5.776   4.055   4.766
 7792TIP3    H223313   5.807   4.131   4.892
 7793TIP3   OH223314   6.284   3.812   4.651
 7793TIP3    H123315   6.350   3.741   4.643
 7793TIP3    H223316   6.243   3.808   4.563
 7794TIP3   OH223317   6.350   4.028   4.810
 7794TIP3    H123318   6.328   3.957   4.746
 7794TIP3    H223319   6.272   4.087   4.804
 7795TIP3   OH223320   5.569   5.257   2.909
 7795TIP3    H123321   5.665   5.255   2.890
 7795TIP3    H223322   5.538   5.307   2.832
 7796TIP3   OH223323   5.052   4.639   3.129
 7796TIP3    H123324   5.146   4.661   3.113
 7796TIP3    H223325   5.047   4.549   3.088
 7797TIP3   OH223326   4.961   5.249   3.539
 7797TIP3    H123327   4.895   5.186   3.503
 7797TIP3    H223328   5.007   5.192   3.604
 7798TIP3   OH223329   5.099   5.106   3.726
 7798TIP3    H123330   5.085   5.031   3.786
 7798TIP3    H223331   5.150   5.166   3.783
 7799TIP3   OH223332   6.836   5.496   3.529
 7799TIP3    H123333   6.859   5.545   3.610
 7799TIP3    H223334   6.884   5.546   3.462
 7800TIP3   OH223335   6.858   5.537   3.811
 7800TIP3    H123336   6.806   5.456   3.805
 7800TIP3    H223337   6.934   5.508   3.865
 7801TIP3   OH223338   6.899   5.198   4.372
 7801TIP3    H123339   6.829   5.205   4.440
 7801TIP3    H223340   6.943   5.286   4.382
 7802TIP3   OH223341   6.718   4.713   3.005
 7802TIP3    H123342   6.786   4.775   2.972
 7802TIP3    H223343   6.766   4.673   3.082
 7803TIP3   OH223344   6.852   4.584   3.205
 7803TIP3    H123345   6.788   4.532   3.261
 7803TIP3    H223346   6.915   4.617   3.272
 7804TIP3   OH223347   6.786   4.489   2.852
 7804TIP3    H123348   6.715   4.489   2.784
 7804TIP3    H223349   6.755   4.564   2.907
 7805TIP3   OH223350   6.660   4.160   2.804
 7805TIP3    H123351   6.611   4.199   2.731
 7805TIP3    H223352   6.634   4.065   2.796
 7806TIP3   OH223353   6.687   4.431   3.355
 7806TIP3    H123354   6.668   4.337   3.341
 7806TIP3    H223355   6.650   4.446   3.444
 7807TIP3   OH223356   6.953   4.865   4.199
 7807TIP3    H123357   7.018   4.791   4.199
 7807TIP3    H223358   7.001   4.933   4.150
 7808TIP3   OH223359   7.132   4.668   4.228
 7808TIP3    H123360   7.059   4.614   4.265
 7808TIP3    H223361   7.207   4.606   4.242
 7809TIP3   OH223362   6.600   3.893   2.792
 7809TIP3    H123363   6.670   3.861   2.852
 7809TIP3    H223364   6.523   3.838   2.814
 7810TIP3   OH223365   6.658   4.153   3.248
 7810TIP3    H123366   6.697   4.064   3.264
 7810TIP3    H223367   6.717   4.185   3.178
 7811TIP3   OH223368   6.820   4.324   3.741
 7811TIP3    H123369   6.906   4.352   3.701
 7811TIP3    H223370   6.832   4.358   3.831
 7812TIP3   OH223371   6.890   4.465   3.975
 7812TIP3    H123372   6.812   4.499   4.024
 7812TIP3    H223373   6.922   4.546   3.930
 7813TIP3   OH223374   5.505   4.198   4.778
 7813TIP3    H123375   5.603   4.189   4.776
 7813TIP3    H223376   5.481   4.111   4.816
 7814TIP3   OH223377   7.340   4.061   4.530
 7814TIP3    H123378   7.398   3.996   4.486
 7814TIP3    H223379   7.311   4.116   4.454
 7815TIP3   OH223380   6.768   3.902   3.283
 7815TIP3    H123381   6.812   3.886   3.369
 7815TIP3    H223382   6.705   3.827   3.281
 7816TIP3   OH223383   5.463   3.895   4.119
 7816TIP3    H123384   5.527   3.821   4.118
 7816TIP3    H223385   5.522   3.971   4.101
 7817TIP3   OH223386   7.212   4.202   4.335
 7817TIP3    H123387   7.126   4.243   4.359
 7817TIP3    H223388   7.180   4.130   4.277
 7818TIP3   OH223389   6.850   3.835   2.920
 7818TIP3    H123390   6.886   3.765   2.863
 7818TIP3    H223391   6.915   3.907   2.909
 7819TIP3   OH223392   5.246   3.671   3.637
 7819TIP3    H123393   5.162   3.677   3.685
 7819TIP3    H223394   5.269   3.764   3.621
 7820TIP3   OH223395   6.419   5.360   3.188
 7820TIP3    H123396   6.463   5.353   3.101
 7820TIP3    H223397   6.461   5.439   3.225
 7821TIP3   OH223398   5.472   3.744   4.492
 7821TIP3    H123399   5.421   3.741   4.574
 7821TIP3    H223400   5.407   3.785   4.432
 7822TIP3   OH223401   5.516   5.166   4.571
 7822TIP3    H123402   5.424   5.144   4.550
 7822TIP3    H223403   5.518   5.154   4.667
 7823TIP3   OH223404   5.697   5.207   4.126
 7823TIP3    H123405   5.642   5.276   4.084
 7823TIP3    H223406   5.778   5.218   4.072
 7824TIP3   OH223407   6.137   5.446   4.251
 7824TIP3    H123408   6.176   5.450   4.342
 7824TIP3    H223409   6.202   5.500   4.201
 7825TIP3   OH223410   6.318   5.598   4.112
 7825TIP3    H123411   6.394   5.550   4.074
 7825TIP3    H223412   6.365   5.658   4.174
 7826TIP3   OH223413   7.109   3.965   4.213
 7826TIP3    H123414   7.018   3.960   4.180
 7826TIP3    H223415   7.138   3.871   4.201
 7827TIP3   OH223416   5.367   5.458   4.142
 7827TIP3    H123417   5.279   5.494   4.117
 7827TIP3    H223418   5.377   5.498   4.229
 7828TIP3   OH223419   5.605   5.441   3.998
 7828TIP3    H123420   5.518   5.452   4.044
 7828TIP3    H223421   5.583   5.474   3.908
 7829TIP3   OH223422   6.030   5.469   3.797
 7829TIP3    H123423   5.959   5.488   3.733
 7829TIP3    H223424   6.042   5.557   3.838
 7830TIP3   OH223425   6.298   5.391   3.826
 7830TIP3    H123426   6.204   5.416   3.821
 7830TIP3    H223427   6.340   5.476   3.803
 7831TIP3   OH223428   6.511   5.603   3.766
 7831TIP3    H123429   6.491   5.686   3.718
 7831TIP3    H223430   6.531   5.542   3.691
 7832TIP3   OH223431   5.281   5.255   3.884
 7832TIP3    H123432   5.307   5.232   3.976
 7832TIP3    H223433   5.353   5.209   3.835
 7833TIP3   OH223434   5.476   5.120   3.742
 7833TIP3    H123435   5.513   5.032   3.757
 7833TIP3    H223436   5.558   5.173   3.736
 7834TIP3   OH223437   5.730   5.232   3.742
 7834TIP3    H123438   5.775   5.158   3.699
 7834TIP3    H223439   5.780   5.243   3.825
 7835TIP3   OH223440   6.326   3.882   3.848
 7835TIP3    H123441   6.272   3.815   3.894
 7835TIP3    H223442   6.375   3.829   3.784
 7836TIP3   OH223443   6.842   3.760   3.740
 7836TIP3    H123444   6.875   3.812   3.664
 7836TIP3    H223445   6.745   3.773   3.733
 7837TIP3   OH223446   6.934   3.858   3.502
 7837TIP3    H123447   7.007   3.809   3.459
 7837TIP3    H223448   6.963   3.951   3.488
 7838TIP3   OH223449   5.561   3.584   3.860
 7838TIP3    H123450   5.468   3.553   3.856
 7838TIP3    H223451   5.610   3.505   3.830
 7839TIP3   OH223452   5.357   3.454   3.497
 7839TIP3    H123453   5.384   3.510   3.422
 7839TIP3    H223454   5.317   3.521   3.556
 7840TIP3   OH223455   6.023   3.605   3.734
 7840TIP3    H123456   6.067   3.665   3.672
 7840TIP3    H223457   5.996   3.665   3.803
 7841TIP3   OH223458   6.567   3.764   3.710
 7841TIP3    H123459   6.542   3.734   3.622
 7841TIP3    H223460   6.545   3.686   3.766
 7842TIP3   OH223461   6.583   3.690   3.276
 7842TIP3    H123462   6.498   3.736   3.288
 7842TIP3    H223463   6.565   3.605   3.321
 7843TIP3   OH223464   5.067   5.028   3.278
 7843TIP3    H123465   4.982   4.993   3.244
 7843TIP3    H223466   5.054   5.122   3.260
 7844TIP3   OH223467   5.462   3.609   3.269
 7844TIP3    H123468   5.515   3.559   3.205
 7844TIP3    H223469   5.528   3.673   3.303
 7845TIP3   OH223470   5.980   3.790   3.357
 7845TIP3    H123471   6.036   3.745   3.422
 7845TIP3    H223472   5.998   3.884   3.382
 7846TIP3   OH223473   5.838   5.217   2.857
 7846TIP3    H123474   5.926   5.240   2.820
 7846TIP3    H223475   5.815   5.142   2.797
 7847TIP3   OH223476   6.558   5.335   2.951
 7847TIP3    H123477   6.551   5.237   2.938
 7847TIP3    H223478   6.511   5.367   2.871
 7848TIP3   OH223479   5.770   3.870   4.741
 7848TIP3    H123480   5.735   3.799   4.798
 7848TIP3    H223481   5.864   3.870   4.769
 7849TIP3   OH223482   6.020   3.866   4.861
 7849TIP3    H123483   6.104   3.840   4.820
 7849TIP3    H223484   6.007   3.794   4.926
 7850TIP3   OH223485   5.143   5.057   2.915
 7850TIP3    H123486   5.141   5.079   3.009
 7850TIP3    H223487   5.230   5.013   2.905
 7851TIP3   OH223488   6.845   3.926   4.647
 7851TIP3    H123489   6.863   3.895   4.739
 7851TIP3    H223490   6.933   3.921   4.606
 7852TIP3   OH223491   6.784   5.477   4.132
 7852TIP3    H123492   6.699   5.453   4.090
 7852TIP3    H223493   6.769   5.574   4.142
 7853TIP3   OH223494   8.037   4.852   2.922
 7853TIP3    H123495   8.016   4.945   2.899
 7853TIP3    H223496   7.962   4.807   2.882
 7854TIP3   OH223497   8.047   4.854   3.284
 7854TIP3    H123498   8.073   4.828   3.375
 7854TIP3    H223499   8.007   4.773   3.250
 7855TIP3   OH223500   7.347   4.751   3.657
 7855TIP3    H123501   7.380   4.681   3.717
 7855TIP3    H223502   7.429   4.798   3.637
 7856TIP3   OH223503   8.285   5.156   2.969
 7856TIP3    H123504   8.277   5.085   3.033
 7856TIP3    H223505   8.318   5.230   3.023
 7857TIP3   OH223506   7.320   5.155   3.379
 7857TIP3    H123507   7.313   5.057   3.379
 7857TIP3    H223508   7.416   5.166   3.370
 7858TIP3   OH223509   7.027   4.362   3.162
 7858TIP3    H123510   6.976   4.444   3.175
 7858TIP3    H223511   6.958   4.304   3.126
 7859TIP3   OH223512   7.084   4.651   3.341
 7859TIP3    H123513   7.133   4.573   3.375
 7859TIP3    H223514   7.139   4.677   3.266
 7860TIP3   OH223515   7.940   5.617   2.984
 7860TIP3    H123516   7.986   5.546   2.935
 7860TIP3    H223517   7.935   5.580   3.073
 7861TIP3   OH223518   7.847   5.077   3.336
 7861TIP3    H123519   7.887   5.001   3.290
 7861TIP3    H223520   7.930   5.123   3.361
 7862TIP3   OH223521   8.249   4.604   3.366
 7862TIP3    H123522   8.263   4.511   3.393
 7862TIP3    H223523   8.215   4.590   3.276
 7863TIP3   OH223524   7.597   4.238   3.334
 7863TIP3    H123525   7.578   4.311   3.271
 7863TIP3    H223526   7.550   4.164   3.288
 7864TIP3   OH223527   8.284   4.332   2.962
 7864TIP3    H123528   8.365   4.296   3.001
 7864TIP3    H223529   8.321   4.400   2.903
 7865TIP3   OH223530   7.231   4.441   3.439
 7865TIP3    H123531   7.314   4.419   3.486
 7865TIP3    H223532   7.243   4.385   3.359
 7866TIP3   OH223533   7.672   4.637   3.234
 7866TIP3    H123534   7.766   4.611   3.245
 7866TIP3    H223535   7.633   4.554   3.200
 7867TIP3   OH223536   7.594   4.221   3.767
 7867TIP3    H123537   7.535   4.258   3.699
 7867TIP3    H223538   7.542   4.239   3.848
 7868TIP3   OH223539   7.937   5.068   2.775
 7868TIP3    H123540   7.897   5.055   2.688
 7868TIP3    H223541   7.898   5.154   2.801
 7869TIP3   OH223542   7.700   4.996   3.562
 7869TIP3    H123543   7.640   5.063   3.599
 7869TIP3    H223544   7.744   5.047   3.490
 7870TIP3   OH223545   7.465   4.337   3.552
 7870TIP3    H123546   7.527   4.409   3.574
 7870TIP3    H223547   7.513   4.296   3.476
 7871TIP3   OH223548   7.528   5.191   3.660
 7871TIP3    H123549   7.503   5.277   3.620
 7871TIP3    H223550   7.448   5.175   3.715
 7872TIP3   OH223551   6.923   4.880   2.895
 7872TIP3    H123552   6.881   4.905   2.811
 7872TIP3    H223553   6.952   4.966   2.930
 7873TIP3   OH223554   8.364   5.394   3.137
 7873TIP3    H123555   8.275   5.383   3.178
 7873TIP3    H223556   8.352   5.480   3.092
 7874TIP3   OH223557   7.946   3.936   3.484
 7874TIP3    H123558   7.924   3.842   3.499
 7874TIP3    H223559   7.868   3.979   3.525
 7875TIP3   OH223560   8.063   5.443   2.811
 7875TIP3    H123561   8.111   5.360   2.790
 7875TIP3    H223562   8.124   5.508   2.769
 7876TIP3   OH223563   8.200   5.229   2.713
 7876TIP3    H123564   8.170   5.146   2.674
 7876TIP3    H223565   8.248   5.197   2.792
 7877TIP3   OH223566   8.584   5.302   3.483
 7877TIP3    H123567   8.588   5.227   3.420
 7877TIP3    H223568   8.581   5.380   3.426
 7878TIP3   OH223569   7.878   4.704   2.739
 7878TIP3    H123570   7.798   4.756   2.719
 7878TIP3    H223571   7.923   4.703   2.653
 7879TIP3   OH223572   7.834   4.485   2.450
 7879TIP3    H123573   7.902   4.539   2.496
 7879TIP3    H223574   7.893   4.422   2.404
 7880TIP3   OH223575   8.190   4.756   2.717
 7880TIP3    H123576   8.152   4.792   2.801
 7880TIP3    H223577   8.285   4.780   2.727
 7881TIP3   OH223578   8.450   4.803   3.617
 7881TIP3    H123579   8.481   4.885   3.657
 7881TIP3    H223580   8.365   4.830   3.580
 7882TIP3   OH223581   7.460   4.784   3.125
 7882TIP3    H123582   7.418   4.726   3.058
 7882TIP3    H223583   7.536   4.730   3.154
 7883TIP3   OH223584   7.588   5.192   3.275
 7883TIP3    H123585   7.569   5.153   3.189
 7883TIP3    H223586   7.678   5.159   3.293
 7884TIP3   OH223587   7.593   4.755   3.480
 7884TIP3    H123588   7.627   4.732   3.392
 7884TIP3    H223589   7.639   4.840   3.500
 7885TIP3   OH223590   8.123   5.391   3.256
 7885TIP3    H123591   8.109   5.472   3.308
 7885TIP3    H223592   8.106   5.320   3.320
 7886TIP3   OH223593   7.735   5.311   3.803
 7886TIP3    H123594   7.675   5.374   3.849
 7886TIP3    H223595   7.670   5.258   3.754
 7887TIP3   OH223596   8.060   4.624   2.527
 7887TIP3    H123597   8.112   4.682   2.588
 7887TIP3    H223598   8.091   4.656   2.439
 7888TIP3   OH223599   7.492   4.867   3.907
 7888TIP3    H123600   7.496   4.955   3.951
 7888TIP3    H223601   7.396   4.850   3.912
 7889TIP3   OH223602   7.811   5.324   2.809
 7889TIP3    H123603   7.892   5.376   2.826
 7889TIP3    H223604   7.751   5.390   2.771
 7890TIP3   OH223605   7.529   5.479   3.889
 7890TIP3    H123606   7.493   5.480   3.798
 7890TIP3    H223607   7.449   5.458   3.943
 7891TIP3   OH223608   7.326   4.626   2.930
 7891TIP3    H123609   7.260   4.671   2.873
 7891TIP3    H223610   7.284   4.540   2.942
 7892TIP3   OH223611   8.392   5.258   2.129
 7892TIP3    H123612   8.356   5.347   2.140
 7892TIP3    H223613   8.462   5.273   2.064
 7893TIP3   OH223614   7.090   4.994   3.831
 7893TIP3    H123615   7.099   4.966   3.738
 7893TIP3    H223616   7.137   4.921   3.876
 7894TIP3   OH223617   6.946   5.195   3.503
 7894TIP3    H123618   7.037   5.178   3.474
 7894TIP3    H223619   6.954   5.288   3.532
 7895TIP3   OH223620   7.931   5.441   3.659
 7895TIP3    H123621   7.931   5.533   3.692
 7895TIP3    H223622   7.861   5.401   3.715
 7896TIP3   OH223623   7.692   5.569   2.612
 7896TIP3    H123624   7.647   5.552   2.528
 7896TIP3    H223625   7.660   5.658   2.636
 7897TIP3   OH223626   7.131   5.419   2.995
 7897TIP3    H123627   7.178   5.409   3.080
 7897TIP3    H223628   7.073   5.340   2.998
 7898TIP3   OH223629   7.893   5.473   2.253
 7898TIP3    H123630   7.953   5.405   2.216
 7898TIP3    H223631   7.927   5.482   2.344
 7899TIP3   OH223632   7.943   5.518   2.522
 7899TIP3    H123633   7.856   5.527   2.566
 7899TIP3    H223634   7.997   5.478   2.593
 7900TIP3   OH223635   7.309   5.185   3.826
 7900TIP3    H123636   7.364   5.177   3.907
 7900TIP3    H223637   7.234   5.127   3.846
 7901TIP3   OH223638   7.713   4.016   3.608
 7901TIP3    H123639   7.623   3.986   3.582
 7901TIP3    H223640   7.689   4.100   3.652
 7902TIP3   OH223641   8.217   4.146   3.791
 7902TIP3    H123642   8.280   4.106   3.854
 7902TIP3    H223643   8.131   4.126   3.833
 7903TIP3   OH223644   8.518   4.551   3.728
 7903TIP3    H123645   8.458   4.558   3.806
 7903TIP3    H223646   8.498   4.636   3.682
 7904TIP3   OH223647   8.142   4.690   2.276
 7904TIP3    H123648   8.122   4.659   2.185
 7904TIP3    H223649   8.213   4.754   2.260
 7905TIP3   OH223650   7.866   4.066   2.581
 7905TIP3    H123651   7.827   4.063   2.671
 7905TIP3    H223652   7.827   3.985   2.544
 7906TIP3   OH223653   7.643   4.532   3.627
 7906TIP3    H123654   7.594   4.555   3.709
 7906TIP3    H223655   7.628   4.613   3.574
 7907TIP3   OH223656   7.527   4.418   3.142
 7907TIP3    H123657   7.434   4.391   3.159
 7907TIP3    H223658   7.541   4.377   3.054
 7908TIP3   OH223659   8.017   4.504   2.868
 7908TIP3    H123660   7.961   4.576   2.831
 7908TIP3    H223661   8.080   4.491   2.795
 7909TIP3   OH223662   8.190   4.781   3.954
 7909TIP3    H123663   8.171   4.710   4.019
 7909TIP3    H223664   8.284   4.799   3.974
 7910TIP3   OH223665   8.164   4.540   3.110
 7910TIP3    H123666   8.109   4.567   3.034
 7910TIP3    H223667   8.194   4.453   3.078
 7911TIP3   OH223668   7.461   4.563   3.837
 7911TIP3    H123669   7.497   4.623   3.904
 7911TIP3    H223670   7.450   4.480   3.888
 7912TIP3   OH223671   7.513   4.040   2.547
 7912TIP3    H123672   7.502   4.036   2.644
 7912TIP3    H223673   7.434   4.091   2.521
 7913TIP3   OH223674   7.055   4.084   3.418
 7913TIP3    H123675   7.133   4.113   3.469
 7913TIP3    H223676   7.092   4.051   3.335
 7914TIP3   OH223677   7.032   4.066   2.938
 7914TIP3    H123678   7.074   4.104   2.858
 7914TIP3    H223679   6.968   4.137   2.958
 7915TIP3   OH223680   8.161   4.791   3.538
 7915TIP3    H123681   8.204   4.727   3.478
 7915TIP3    H223682   8.145   4.734   3.616
 7916TIP3   OH223683   7.847   4.244   3.200
 7916TIP3    H123684   7.769   4.241   3.259
 7916TIP3    H223685   7.920   4.232   3.263
 7917TIP3   OH223686   7.288   4.296   3.211
 7917TIP3    H123687   7.193   4.306   3.184
 7917TIP3    H223688   7.308   4.204   3.188
 7918TIP3   OH223689   7.558   4.292   2.899
 7918TIP3    H123690   7.652   4.308   2.877
 7918TIP3    H223691   7.510   4.315   2.816
 7919TIP3   OH223692   8.273   4.340   3.396
 7919TIP3    H123693   8.264   4.346   3.494
 7919TIP3    H223694   8.325   4.259   3.386
 7920TIP3   OH223695   7.400   4.325   2.680
 7920TIP3    H123696   7.327   4.281   2.634
 7920TIP3    H223697   7.451   4.360   2.604
 7921TIP3   OH223698   8.508   6.010   3.626
 7921TIP3    H123699   8.506   6.019   3.527
 7921TIP3    H223700   8.580   6.071   3.648
 7922TIP3   OH223701   7.474   5.116   4.045
 7922TIP3    H123702   7.555   5.146   4.091
 7922TIP3    H223703   7.411   5.116   4.120
 7923TIP3   OH223704   7.938   4.565   3.299
 7923TIP3    H123705   8.012   4.529   3.247
 7923TIP3    H223706   7.951   4.523   3.386
 7924TIP3   OH223707   7.465   4.055   3.179
 7924TIP3    H123708   7.427   3.976   3.223
 7924TIP3    H223709   7.501   4.017   3.097
 7925TIP3   OH223710   7.914   4.461   3.599
 7925TIP3    H123711   7.826   4.501   3.606
 7925TIP3    H223712   7.972   4.526   3.644
 7926TIP3   OH223713   7.652   4.856   2.685
 7926TIP3    H123714   7.579   4.790   2.675
 7926TIP3    H223715   7.633   4.890   2.776
 7927TIP3   OH223716   8.555   5.088   3.304
 7927TIP3    H123717   8.565   5.108   3.210
 7927TIP3    H223718   8.465   5.049   3.304
 7928TIP3   OH223719   8.120   4.165   2.546
 7928TIP3    H123720   8.024   4.144   2.552
 7928TIP3    H223721   8.123   4.261   2.561
 7929TIP3   OH223722   8.044   5.171   3.683
 7929TIP3    H123723   8.078   5.155   3.772
 7929TIP3    H223724   8.013   5.263   3.688
 7930TIP3   OH223725   8.215   4.422   2.633
 7930TIP3    H123726   8.291   4.478   2.654
 7930TIP3    H223727   8.157   4.487   2.588
 7931TIP3   OH223728   7.343   4.878   3.361
 7931TIP3    H123729   7.379   4.852   3.274
 7931TIP3    H223730   7.387   4.815   3.420
 7932TIP3   OH223731   7.794   5.005   2.503
 7932TIP3    H123732   7.747   5.091   2.509
 7932TIP3    H223733   7.741   4.950   2.566
 7933TIP3   OH223734   7.219   4.808   3.979
 7933TIP3    H123735   7.252   4.794   4.071
 7933TIP3    H223736   7.163   4.730   3.967
 7934TIP3   OH223737   7.949   4.911   3.994
 7934TIP3    H123738   7.891   4.855   3.942
 7934TIP3    H223739   8.037   4.879   3.966
 7935TIP3   OH223740   8.209   5.431   3.579
 7935TIP3    H123741   8.113   5.434   3.592
 7935TIP3    H223742   8.240   5.483   3.656
 7936TIP3   OH223743   8.306   5.329   2.393
 7936TIP3    H123744   8.307   5.283   2.479
 7936TIP3    H223745   8.336   5.261   2.331
 7937TIP3   OH223746   8.312   4.958   3.242
 7937TIP3    H123747   8.216   4.937   3.250
 7937TIP3    H223748   8.346   4.872   3.209
 7938TIP3   OH223749   7.444   5.182   2.987
 7938TIP3    H123750   7.445   5.263   2.933
 7938TIP3    H223751   7.350   5.165   2.994
 7939TIP3   OH223752   7.008   4.485   2.691
 7939TIP3    H123753   7.053   4.570   2.710
 7939TIP3    H223754   6.930   4.491   2.750
 7940TIP3   OH223755   7.582   4.947   2.929
 7940TIP3    H123756   7.548   5.037   2.948
 7940TIP3    H223757   7.546   4.897   3.005
 7941TIP3   OH223758   7.713   5.525   3.455
 7941TIP3    H123759   7.754   5.598   3.405
 7941TIP3    H223760   7.790   5.491   3.504
 7942TIP3   OH223761   7.364   5.421   2.838
 7942TIP3    H123762   7.278   5.430   2.884
 7942TIP3    H223763   7.396   5.514   2.841
 7943TIP3   OH223764   8.101   5.159   3.414
 7943TIP3    H123765   8.091   5.156   3.512
 7943TIP3    H223766   8.184   5.110   3.403
 7944TIP3   OH223767   8.053   5.055   2.294
 7944TIP3    H123768   8.105   5.036   2.376
 7944TIP3    H223769   7.964   5.029   2.324
 7945TIP3   OH223770   8.352   5.692   3.462
 7945TIP3    H123771   8.272   5.636   3.454
 7945TIP3    H223772   8.335   5.759   3.392
 7946TIP3   OH223773   7.435   4.304   3.982
 7946TIP3    H123774   7.339   4.309   3.995
 7946TIP3    H223775   7.462   4.245   4.055
 7947TIP3   OH223776   8.203   4.990   2.517
 7947TIP3    H123777   8.172   4.922   2.578
 7947TIP3    H223778   8.297   4.992   2.546
 7948TIP3   OH223779   7.151   5.390   3.616
 7948TIP3    H123780   7.211   5.319   3.642
 7948TIP3    H223781   7.183   5.463   3.672
 7949TIP3   OH223782   7.443   5.032   2.296
 7949TIP3    H123783   7.455   4.939   2.268
 7949TIP3    H223784   7.424   5.021   2.391
 7950TIP3   OH223785   7.389   5.038   2.567
 7950TIP3    H123786   7.459   5.011   2.628
 7950TIP3    H223787   7.392   5.136   2.575
 7951TIP3   OH223788   7.124   4.733   2.772
 7951TIP3    H123789   7.057   4.776   2.828
 7951TIP3    H223790   7.137   4.802   2.704
 7952TIP3   OH223791   8.276   4.382   3.666
 7952TIP3    H123792   8.355   4.414   3.711
 7952TIP3    H223793   8.251   4.302   3.717
 7953TIP3   OH223794   8.137   4.128   2.833
 7953TIP3    H123795   8.131   4.142   2.737
 7953TIP3    H223796   8.184   4.208   2.864
 7954TIP3   OH223797   7.653   5.235   2.515
 7954TIP3    H123798   7.567   5.261   2.553
 7954TIP3    H223799   7.671   5.312   2.458
 7955TIP3   OH223800   7.841   4.299   2.929
 7955TIP3    H123801   7.907   4.369   2.913
 7955TIP3    H223802   7.846   4.289   3.027
 7956TIP3   OH223803   8.108   4.616   3.740
 7956TIP3    H123804   8.132   4.671   3.818
 7956TIP3    H223805   8.169   4.541   3.748
 7957TIP3   OH223806   7.985   4.029   3.035
 7957TIP3    H123807   7.991   4.099   3.103
 7957TIP3    H223808   8.041   4.067   2.964
 7958TIP3   OH223809   7.397   5.310   2.585
 7958TIP3    H123810   7.367   5.380   2.522
 7958TIP3    H223811   7.381   5.354   2.671
 7959TIP3   OH223812   7.497   4.024   2.825
 7959TIP3    H123813   7.494   4.116   2.858
 7959TIP3    H223814   7.593   4.008   2.830
 7960TIP3   OH223815   8.403   4.703   3.148
 7960TIP3    H123816   8.321   4.668   3.111
 7960TIP3    H223817   8.420   4.639   3.219
 7961TIP3   OH223818   7.115   4.941   2.578
 7961TIP3    H123819   7.180   5.013   2.586
 7961TIP3    H223820   7.161   4.886   2.510
 7962TIP3   OH223821   7.060   4.216   2.710
 7962TIP3    H123822   7.057   4.314   2.707
 7962TIP3    H223823   6.976   4.192   2.668
 7963TIP3   OH223824   8.377   5.670   3.056
 7963TIP3    H123825   8.335   5.716   2.980
 7963TIP3    H223826   8.470   5.683   3.037
 7964TIP3   OH223827   7.450   3.937   3.583
 7964TIP3    H123828   7.416   3.904   3.497
 7964TIP3    H223829   7.436   3.859   3.641
 7965TIP3   OH223830   6.985   5.157   2.967
 7965TIP3    H123831   6.909   5.188   3.016
 7965TIP3    H223832   6.965   5.194   2.879
 7966TIP3   OH223833   7.144   5.698   4.036
 7966TIP3    H123834   7.229   5.701   4.085
 7966TIP3    H223835   7.126   5.603   4.035
 7967TIP3   OH223836   7.623   5.661   4.082
 7967TIP3    H123837   7.719   5.645   4.089
 7967TIP3    H223838   7.600   5.603   4.007
 7968TIP3   OH223839   7.604   5.237   2.208
 7968TIP3    H123840   7.547   5.167   2.248
 7968TIP3    H223841   7.680   5.183   2.182
 7969TIP3   OH223842   8.260   5.568   3.814
 7969TIP3    H123843   8.254   5.498   3.883
 7969TIP3    H223844   8.339   5.618   3.843
 7970TIP3   OH223845   8.037   5.283   2.119
 7970TIP3    H123846   8.073   5.213   2.177
 7970TIP3    H223847   8.089   5.275   2.036
 7971TIP3   OH223848   7.273   5.102   4.237
 7971TIP3    H123849   7.292   5.007   4.244
 7971TIP3    H223850   7.186   5.102   4.193
 7972TIP3   OH223851   7.251   4.756   2.429
 7972TIP3    H123852   7.305   4.721   2.502
 7972TIP3    H223853   7.318   4.759   2.358
 7973TIP3   OH223854   7.880   5.187   4.011
 7973TIP3    H123855   7.842   5.206   3.923
 7973TIP3    H223856   7.912   5.095   4.001
 7974TIP3   OH223857   7.759   4.953   2.235
 7974TIP3    H123858   7.758   4.965   2.332
 7974TIP3    H223859   7.757   4.855   2.229
 7975TIP3   OH223860   8.374   5.193   3.617
 7975TIP3    H123861   8.452   5.235   3.576
 7975TIP3    H223862   8.307   5.263   3.602
 7976TIP3   OH223863   7.391   4.835   4.217
 7976TIP3    H123864   7.467   4.779   4.197
 7976TIP3    H223865   7.416   4.868   4.306
 7977TIP3   OH223866   7.460   4.657   2.653
 7977TIP3    H123867   7.431   4.615   2.736
 7977TIP3    H223868   7.494   4.581   2.602
 7978TIP3   OH223869   7.726   4.718   3.877
 7978TIP3    H123870   7.651   4.781   3.880
 7978TIP3    H223871   7.778   4.754   3.801
 7979TIP3   OH223872   7.558   4.450   2.493
 7979TIP3    H123873   7.531   4.453   2.399
 7979TIP3    H223874   7.655   4.454   2.485
 7980TIP3   OH223875   8.243   5.124   4.014
 7980TIP3    H123876   8.323   5.103   3.963
 7980TIP3    H223877   8.244   5.056   4.083
 7981TIP3   OH223878   7.851   4.510   4.006
 7981TIP3    H123879   7.851   4.430   3.950
 7981TIP3    H223880   7.808   4.576   3.947
 7982TIP3   OH223881   7.853   4.293   3.815
 7982TIP3    H123882   7.881   4.339   3.733
 7982TIP3    H223883   7.759   4.273   3.795
 7983TIP3   OH223884   7.881   4.830   3.686
 7983TIP3    H123885   7.966   4.840   3.641
 7983TIP3    H223886   7.827   4.898   3.642
 7984TIP3   OH223887   8.463   4.803   4.070
 7984TIP3    H123888   8.515   4.721   4.067
 7984TIP3    H223889   8.525   4.868   4.032
 7985TIP3   OH223890   8.512   5.051   3.805
 7985TIP3    H123891   8.459   5.105   3.742
 7985TIP3    H223892   8.594   5.038   3.752
 7986TIP3   OH223893   7.728   4.622   4.236
 7986TIP3    H123894   7.659   4.554   4.251
 7986TIP3    H223895   7.763   4.596   4.149
 7987TIP3   OH223896   7.977   4.057   3.881
 7987TIP3    H123897   7.927   4.139   3.860
 7987TIP3    H223898   7.907   3.989   3.870
 7988TIP3   OH223899   8.113   4.562   4.096
 7988TIP3    H123900   8.099   4.552   4.192
 7988TIP3    H223901   8.023   4.540   4.065
 7989TIP3   OH223902   8.352   4.510   3.947
 7989TIP3    H123903   8.273   4.518   4.005
 7989TIP3    H223904   8.418   4.474   4.009
 7990TIP3   OH223905   8.555   4.422   4.112
 7990TIP3    H123906   8.596   4.344   4.151
 7990TIP3    H223907   8.563   4.487   4.184
 7991TIP3   OH223908   7.567   4.402   4.288
 7991TIP3    H123909   7.573   4.310   4.255
 7991TIP3    H223910   7.603   4.391   4.379
 7992TIP3   OH223911   8.081   4.071   4.135
 7992TIP3    H123912   8.137   3.991   4.134
 7992TIP3    H223913   8.038   4.065   4.048
 7993TIP3   OH223914   8.147   4.287   4.295
 7993TIP3    H123915   8.124   4.216   4.231
 7993TIP3    H223916   8.069   4.346   4.291
 7994TIP3   OH223917   7.365   5.513   2.397
 7994TIP3    H123918   7.461   5.509   2.378
 7994TIP3    H223919   7.335   5.562   2.319
 7995TIP3   OH223920   6.846   4.894   2.615
 7995TIP3    H123921   6.941   4.915   2.599
 7995TIP3    H223922   6.839   4.806   2.573
 7996TIP3   OH223923   6.761   5.509   3.023
 7996TIP3    H123924   6.693   5.448   2.988
 7996TIP3    H223925   6.804   5.452   3.090
 7997TIP3   OH223926   6.896   5.363   3.211
 7997TIP3    H123927   6.882   5.288   3.269
 7997TIP3    H223928   6.950   5.422   3.267
 7998TIP3   OH223929   8.690   5.757   3.287
 7998TIP3    H123930   8.637   5.675   3.284
 7998TIP3    H223931   8.681   5.780   3.381
 7999TIP3   OH223932   8.667   5.476   3.869
 7999TIP3    H123933   8.600   5.475   3.941
 7999TIP3    H223934   8.707   5.565   3.878
 8000TIP3   OH223935   8.533   5.528   3.317
 8000TIP3    H123936   8.466   5.568   3.377
 8000TIP3    H223937   8.476   5.477   3.256
 8001TIP3   OH223938   8.426   4.616   2.857
 8001TIP3    H123939   8.523   4.597   2.853
 8001TIP3    H223940   8.428   4.709   2.879
 8002TIP3   OH223941   7.082   4.772   3.598
 8002TIP3    H123942   7.074   4.744   3.505
 8002TIP3    H223943   7.180   4.769   3.608
 8003TIP3   OH223944   7.301   4.457   4.263
 8003TIP3    H123945   7.398   4.449   4.263
 8003TIP3    H223946   7.276   4.371   4.302
 8004TIP3   OH223947   7.264   4.145   3.591
 8004TIP3    H123948   7.326   4.070   3.601
 8004TIP3    H223949   7.326   4.220   3.584
 8005TIP3   OH223950   7.067   4.419   3.665
 8005TIP3    H123951   7.111   4.407   3.578
 8005TIP3    H223952   7.105   4.503   3.692
 8006TIP3   OH223953   7.049   3.927   3.169
 8006TIP3    H123954   6.954   3.919   3.192
 8006TIP3    H223955   7.045   3.982   3.088
 8007TIP3   OH223956   8.205   5.627   2.671
 8007TIP3    H123957   8.255   5.612   2.587
 8007TIP3    H223958   8.262   5.690   2.716
 8008TIP3   OH223959   7.269   3.999   3.978
 8008TIP3    H123960   7.219   3.996   4.061
 8008TIP3    H223961   7.203   4.041   3.919
 8009TIP3   OH223962   7.309   5.426   4.054
 8009TIP3    H123963   7.216   5.402   4.040
 8009TIP3    H223964   7.319   5.414   4.150
 8010TIP3   OH223965   7.485   5.462   3.602
 8010TIP3    H123966   7.439   5.539   3.563
 8010TIP3    H223967   7.572   5.474   3.560
 8011TIP3   OH223968   7.932   5.707   3.741
 8011TIP3    H123969   7.974   5.708   3.830
 8011TIP3    H223970   7.998   5.757   3.689
 8012TIP3   OH223971   8.111   5.858   3.600
 8012TIP3    H123972   8.184   5.808   3.559
 8012TIP3    H223973   8.161   5.916   3.661
 8013TIP3   OH223974   7.162   5.716   3.629
 8013TIP3    H123975   7.072   5.750   3.605
 8013TIP3    H223976   7.174   5.760   3.714
 8014TIP3   OH223977   7.398   5.696   3.485
 8014TIP3    H123978   7.312   5.710   3.529
 8014TIP3    H223979   7.380   5.730   3.395
 8015TIP3   OH223980   7.824   5.727   3.283
 8015TIP3    H123981   7.756   5.748   3.217
 8015TIP3    H223982   7.838   5.814   3.326
 8016TIP3   OH223983   8.093   5.662   3.334
 8016TIP3    H123984   8.000   5.684   3.314
 8016TIP3    H223985   8.139   5.740   3.297
 8017TIP3   OH223986   8.283   5.850   3.247
 8017TIP3    H123987   8.281   5.939   3.206
 8017TIP3    H223988   8.316   5.794   3.174
 8018TIP3   OH223989   7.075   5.512   3.370
 8018TIP3    H123990   7.101   5.490   3.462
 8018TIP3    H223991   7.149   5.468   3.321
 8019TIP3   OH223992   7.269   5.383   3.229
 8019TIP3    H123993   7.286   5.299   3.278
 8019TIP3    H223994   7.359   5.421   3.224
 8020TIP3   OH223995   7.533   5.479   3.232
 8020TIP3    H123996   7.567   5.389   3.219
 8020TIP3    H223997   7.579   5.501   3.316
 8021TIP3   OH223998   8.078   4.115   3.299
 8021TIP3    H123999   8.053   4.053   3.369
 8021TIP3    H224000   8.162   4.082   3.266
 8022TIP3   OH224001   7.359   3.845   3.336
 8022TIP3    H124002   7.266   3.813   3.336
 8022TIP3    H224003   7.406   3.759   3.330
 8023TIP3   OH224004   7.153   3.713   2.986
 8023TIP3    H124005   7.176   3.770   2.910
 8023TIP3    H224006   7.117   3.778   3.050
 8024TIP3   OH224007   7.808   3.871   3.219
 8024TIP3    H124008   7.858   3.929   3.158
 8024TIP3    H224009   7.810   3.922   3.301
 8025TIP3   OH224010   8.309   3.984   3.167
 8025TIP3    H124011   8.376   4.029   3.115
 8025TIP3    H224012   8.360   3.950   3.242
 8026TIP3   OH224013   6.863   5.284   2.764
 8026TIP3    H124014   6.778   5.251   2.730
 8026TIP3    H224015   6.852   5.379   2.744
 8027TIP3   OH224016   7.262   3.872   2.748
 8027TIP3    H124017   7.309   3.810   2.689
 8027TIP3    H224018   7.335   3.926   2.784
 8028TIP3   OH224019   7.774   4.049   2.845
 8028TIP3    H124020   7.831   4.003   2.908
 8028TIP3    H224021   7.796   4.142   2.869
 8029TIP3   OH224022   7.634   5.473   2.346
 8029TIP3    H124023   7.722   5.496   2.310
 8029TIP3    H224024   7.611   5.399   2.286
 8030TIP3   OH224025   8.344   5.595   2.439
 8030TIP3    H124026   8.340   5.497   2.428
 8030TIP3    H224027   8.314   5.624   2.351
 8031TIP3   OH224028   7.567   4.125   4.225
 8031TIP3    H124029   7.531   4.055   4.283
 8031TIP3    H224030   7.661   4.125   4.254
 8032TIP3   OH224031   7.815   4.121   4.346
 8032TIP3    H124032   7.902   4.096   4.311
 8032TIP3    H224033   7.801   4.051   4.414
 8033TIP3   OH224034   6.938   5.312   2.402
 8033TIP3    H124035   6.936   5.337   2.495
 8033TIP3    H224036   7.027   5.270   2.393
 8034TIP3   OH224037   8.575   5.744   3.630
 8034TIP3    H124038   8.500   5.707   3.580
 8034TIP3    H224039   8.552   5.839   3.630
 8035TIP3   OH224040   0.492   5.638   4.602
 8035TIP3    H124041   0.464   5.729   4.582
 8035TIP3    H224042   0.431   5.589   4.543
 8036TIP3   OH224043   0.523   5.623   4.963
 8036TIP3    H124044   0.541   5.590   5.052
 8036TIP3    H224045   0.487   5.543   4.921
 8037TIP3   OH224046   0.744   5.940   4.656
 8037TIP3    H124047   0.733   5.874   4.725
 8037TIP3    H224048   0.770   6.019   4.707
 8038TIP3   OH224049   0.454   6.427   4.671
 8038TIP3    H124050   0.483   6.342   4.635
 8038TIP3    H224051   0.372   6.402   4.719
 8039TIP3   OH224052   0.331   5.813   5.027
 8039TIP3    H124053   0.396   5.756   4.982
 8039TIP3    H224054   0.388   5.888   5.052
 8040TIP3   OH224055   1.323   5.194   5.003
 8040TIP3    H124056   1.349   5.267   5.064
 8040TIP3    H224057   1.306   5.245   4.922
 8041TIP3   OH224058   0.708   5.367   5.059
 8041TIP3    H124059   0.751   5.281   5.077
 8041TIP3    H224060   0.678   5.353   4.967
 8042TIP3   OH224061   0.744   5.124   4.647
 8042TIP3    H124062   0.820   5.104   4.707
 8042TIP3    H224063   0.792   5.154   4.568
 8043TIP3   OH224064   1.380   5.381   5.193
 8043TIP3    H124065   1.299   5.433   5.177
 8043TIP3    H224066   1.405   5.414   5.282
 8044TIP3   OH224067   0.375   5.859   4.478
 8044TIP3    H124068   0.356   5.824   4.389
 8044TIP3    H224069   0.425   5.940   4.457
 8045TIP3   OH224070   0.957   5.119   4.816
 8045TIP3    H124071   0.949   5.063   4.894
 8045TIP3    H224072   1.007   5.196   4.849
 8046TIP3   OH224073   0.817   6.182   4.829
 8046TIP3    H124074   0.724   6.177   4.862
 8046TIP3    H224075   0.813   6.268   4.782
 8047TIP3   OH224076   1.105   5.089   5.184
 8047TIP3    H124077   1.014   5.114   5.161
 8047TIP3    H224078   1.156   5.117   5.106
 8048TIP3   OH224079   0.407   4.718   5.156
 8048TIP3    H124080   0.406   4.622   5.175
 8048TIP3    H224081   0.363   4.752   5.235
 8049TIP3   OH224082   0.514   6.215   4.491
 8049TIP3    H124083   0.564   6.135   4.464
 8049TIP3    H224084   0.572   6.285   4.453
 8050TIP3   OH224085   0.641   5.991   4.404
 8050TIP3    H124086   0.665   5.921   4.341
 8050TIP3    H224087   0.690   5.966   4.485
 8051TIP3   OH224088   0.341   5.505   4.418
 8051TIP3    H124089   0.252   5.467   4.405
 8051TIP3    H224090   0.386   5.483   4.334
 8052TIP3   OH224091   1.225   5.729   5.005
 8052TIP3    H124092   1.153   5.794   5.011
 8052TIP3    H224093   1.266   5.755   4.919
 8053TIP3   OH224094   0.683   5.583   4.404
 8053TIP3    H124095   0.630   5.599   4.484
 8053TIP3    H224096   0.767   5.550   4.443
 8054TIP3   OH224097   0.913   5.616   5.305
 8054TIP3    H124098   0.888   5.684   5.369
 8054TIP3    H224099   0.831   5.609   5.253
 8055TIP3   OH224100   0.574   6.182   4.941
 8055TIP3    H124101   0.550   6.268   4.980
 8055TIP3    H224102   0.554   6.117   5.011
 8056TIP3   OH224103   0.529   5.435   4.228
 8056TIP3    H124104   0.590   5.498   4.273
 8056TIP3    H224105   0.547   5.454   4.133
 8057TIP3   OH224106   1.038   4.673   4.274
 8057TIP3    H124107   0.954   4.693   4.321
 8057TIP3    H224108   1.050   4.754   4.220
 8058TIP3   OH224109   0.837   6.040   3.822
 8058TIP3    H124110   0.847   6.135   3.803
 8058TIP3    H224111   0.929   6.008   3.809
 8059TIP3   OH224112   1.281   6.452   5.213
 8059TIP3    H124113   1.289   6.359   5.238
 8059TIP3    H224114   1.198   6.478   5.259
 8060TIP3   OH224115   0.358   6.269   3.934
 8060TIP3    H124116   0.411   6.192   3.903
 8060TIP3    H224117   0.362   6.256   4.032
 8061TIP3   OH224118   0.398   6.273   4.204
 8061TIP3    H124119   0.345   6.348   4.240
 8061TIP3    H224120   0.460   6.260   4.277
 8062TIP3   OH224121   1.159   5.575   5.484
 8062TIP3    H124122   1.090   5.570   5.417
 8062TIP3    H224123   1.185   5.481   5.491
 8063TIP3   OH224124   0.705   4.921   5.492
 8063TIP3    H124125   0.775   4.893   5.554
 8063TIP3    H224126   0.623   4.899   5.541
 8064TIP3   OH224127   0.933   5.346   5.410
 8064TIP3    H124128   0.890   5.339   5.498
 8064TIP3    H224129   0.906   5.435   5.381
 8065TIP3   OH224130   0.599   5.486   3.971
 8065TIP3    H124131   0.561   5.454   3.887
 8065TIP3    H224132   0.682   5.526   3.940
 8066TIP3   OH224133   0.317   4.845   4.253
 8066TIP3    H124134   0.288   4.853   4.347
 8066TIP3    H224135   0.275   4.760   4.231
 8067TIP3   OH224136   0.473   5.301   4.561
 8067TIP3    H124137   0.420   5.369   4.514
 8067TIP3    H224138   0.525   5.263   4.486
 8068TIP3   OH224139   0.670   5.561   5.635
 8068TIP3    H124140   0.640   5.491   5.697
 8068TIP3    H224141   0.763   5.572   5.664
 8069TIP3   OH224142   0.625   5.324   4.797
 8069TIP3    H124143   0.566   5.349   4.722
 8069TIP3    H224144   0.662   5.242   4.756
 8070TIP3   OH224145   0.644   5.567   5.226
 8070TIP3    H124146   0.674   5.497   5.164
 8070TIP3    H224147   0.614   5.510   5.301
 8071TIP3   OH224148   0.325   5.042   4.894
 8071TIP3    H124149   0.239   5.017   4.929
 8071TIP3    H224150   0.387   5.023   4.967
 8072TIP3   OH224151   0.800   5.106   5.099
 8072TIP3    H124152   0.762   5.115   5.189
 8072TIP3    H224153   0.739   5.041   5.059
 8073TIP3   OH224154   0.973   6.786   5.314
 8073TIP3    H124155   0.967   6.817   5.222
 8073TIP3    H224156   1.045   6.842   5.349
 8074TIP3   OH224157   0.399   5.355   4.989
 8074TIP3    H124158   0.461   5.311   4.929
 8074TIP3    H224159   0.414   5.309   5.073
 8075TIP3   OH224160   0.390   5.238   5.281
 8075TIP3    H124161   0.324   5.311   5.274
 8075TIP3    H224162   0.463   5.285   5.326
 8076TIP3   OH224163   0.983   5.909   5.025
 8076TIP3    H124164   1.028   5.943   4.943
 8076TIP3    H224165   0.920   5.844   4.985
 8077TIP3   OH224166   0.561   4.959   4.242
 8077TIP3    H124167   0.465   4.936   4.241
 8077TIP3    H224168   0.560   5.054   4.262
 8078TIP3   OH224169   0.501   5.963   5.371
 8078TIP3    H124170   0.520   5.955   5.466
 8078TIP3    H224171   0.447   6.046   5.370
 8079TIP3   OH224172   0.627   5.209   4.349
 8079TIP3    H124173   0.724   5.216   4.349
 8079TIP3    H224174   0.600   5.284   4.291
 8080TIP3   OH224175   0.246   5.800   4.212
 8080TIP3    H124176   0.189   5.878   4.209
 8080TIP3    H224177   0.186   5.733   4.245
 8081TIP3   OH224178   0.453   5.693   5.738
 8081TIP3    H124179   0.397   5.624   5.700
 8081TIP3    H224180   0.539   5.672   5.696
 8082TIP3   OH224181   0.694   6.207   5.259
 8082TIP3    H124182   0.597   6.214   5.259
 8082TIP3    H224183   0.712   6.263   5.339
 8083TIP3   OH224184   1.074   5.295   4.177
 8083TIP3    H124185   1.012   5.249   4.115
 8083TIP3    H224186   1.070   5.383   4.134
 8084TIP3   OH224187   1.279   6.146   5.260
 8084TIP3    H124188   1.200   6.193   5.232
 8084TIP3    H224189   1.308   6.104   5.176
 8085TIP3   OH224190   0.778   6.111   4.086
 8085TIP3    H124191   0.746   6.037   4.139
 8085TIP3    H224192   0.788   6.071   3.998
 8086TIP3   OH224193   0.778   5.737   4.934
 8086TIP3    H124194   0.684   5.710   4.937
 8086TIP3    H224195   0.815   5.662   4.883
 8087TIP3   OH224196   0.566   5.950   5.105
 8087TIP3    H124197   0.554   5.955   5.203
 8087TIP3    H224198   0.630   5.879   5.094
 8088TIP3   OH224199   0.534   5.843   3.985
 8088TIP3    H124200   0.578   5.818   4.068
 8088TIP3    H224201   0.445   5.806   3.997
 8089TIP3   OH224202   0.809   6.474   5.143
 8089TIP3    H124203   0.722   6.430   5.137
 8089TIP3    H224204   0.794   6.548   5.080
 8090TIP3   OH224205   0.873   6.315   3.805
 8090TIP3    H124206   0.917   6.386   3.756
 8090TIP3    H224207   0.785   6.356   3.814
 8091TIP3   OH224208   0.691   5.787   4.217
 8091TIP3    H124209   0.681   5.711   4.279
 8091TIP3    H224210   0.785   5.775   4.192
 8092TIP3   OH224211   0.718   5.160   5.358
 8092TIP3    H124212   0.802   5.195   5.391
 8092TIP3    H224213   0.709   5.077   5.409
 8093TIP3   OH224214   0.604   4.906   4.519
 8093TIP3    H124215   0.582   4.924   4.426
 8093TIP3    H224216   0.639   4.992   4.549
 8094TIP3   OH224217   0.297   5.096   4.625
 8094TIP3    H124218   0.369   5.159   4.605
 8094TIP3    H224219   0.299   5.093   4.723
 8095TIP3   OH224220   0.571   5.402   5.426
 8095TIP3    H124221   0.597   5.456   5.504
 8095TIP3    H224222   0.625   5.322   5.439
 8096TIP3   OH224223   0.445   4.819   4.734
 8096TIP3    H124224   0.432   4.906   4.776
 8096TIP3    H224225   0.499   4.847   4.655
 8097TIP3   OH224226   1.202   5.307   5.414
 8097TIP3    H124227   1.104   5.304   5.418
 8097TIP3    H224228   1.217   5.264   5.329
 8098TIP3   OH224229   0.856   5.500   4.801
 8098TIP3    H124230   0.778   5.441   4.806
 8098TIP3    H224231   0.925   5.448   4.846
 8099TIP3   OH224232   0.828   6.449   4.748
 8099TIP3    H124233   0.779   6.494   4.675
 8099TIP3    H224234   0.919   6.474   4.723
 8100TIP3   OH224235   0.741   6.340   5.488
 8100TIP3    H124236   0.712   6.291   5.569
 8100TIP3    H224237   0.795   6.411   5.528
 8101TIP3   OH224238   0.497   6.066   3.811
 8101TIP3    H124239   0.538   5.998   3.868
 8101TIP3    H224240   0.551   6.062   3.730
 8102TIP3   OH224241   0.227   5.747   3.929
 8102TIP3    H124242   0.219   5.753   4.025
 8102TIP3    H224243   0.227   5.649   3.917
 8103TIP3   OH224244   0.691   5.905   5.707
 8103TIP3    H124245   0.786   5.922   5.701
 8103TIP3    H224246   0.687   5.838   5.778
 8104TIP3   OH224247   0.833   5.570   3.846
 8104TIP3    H124248   0.814   5.523   3.763
 8104TIP3    H224249   0.801   5.660   3.821
 8105TIP3   OH224250   0.267   5.037   5.429
 8105TIP3    H124251   0.321   5.101   5.378
 8105TIP3    H224252   0.228   5.095   5.497
 8106TIP3   OH224253   0.386   5.679   5.329
 8106TIP3    H124254   0.477   5.664   5.298
 8106TIP3    H224255   0.367   5.765   5.288
 8107TIP3   OH224256   0.923   5.581   5.752
 8107TIP3    H124257   0.959   5.496   5.781
 8107TIP3    H224258   1.004   5.633   5.743
 8108TIP3   OH224259   0.446   4.850   5.559
 8108TIP3    H124260   0.384   4.920   5.530
 8108TIP3    H224261   0.391   4.771   5.548
 8109TIP3   OH224262   0.564   5.360   5.792
 8109TIP3    H124263   0.594   5.355   5.885
 8109TIP3    H224264   0.481   5.311   5.797
 8110TIP3   OH224265   0.805   5.295   5.641
 8110TIP3    H124266   0.733   5.293   5.707
 8110TIP3    H224267   0.882   5.266   5.695
 8111TIP3   OH224268   1.029   5.239   5.788
 8111TIP3    H124269   1.044   5.144   5.809
 8111TIP3    H224270   1.024   5.280   5.877
 8112TIP3   OH224271   0.539   4.862   5.821
 8112TIP3    H124272   0.604   4.789   5.823
 8112TIP3    H224273   0.500   4.851   5.732
 8113TIP3   OH224274   0.614   5.076   5.972
 8113TIP3    H124275   0.592   4.996   5.918
 8113TIP3    H224276   0.526   5.118   5.979
 8114TIP3   OH224277   1.079   6.543   4.706
 8114TIP3    H124278   1.102   6.587   4.789
 8114TIP3    H224279   1.134   6.592   4.642
 8115TIP3   OH224280   1.103   6.569   4.989
 8115TIP3    H124281   1.069   6.479   4.980
 8115TIP3    H224282   1.185   6.554   5.039
 8116TIP3   OH224283   1.146   6.241   5.546
 8116TIP3    H124284   1.078   6.250   5.617
 8116TIP3    H224285   1.192   6.328   5.553
 8117TIP3   OH224286   0.965   5.759   4.179
 8117TIP3    H124287   1.033   5.821   4.147
 8117TIP3    H224288   1.012   5.719   4.256
 8118TIP3   OH224289   1.095   5.625   4.381
 8118TIP3    H124290   1.031   5.582   4.441
 8118TIP3    H224291   1.162   5.661   4.443
 8119TIP3   OH224292   1.141   6.007   4.823
 8119TIP3    H124293   1.196   5.946   4.770
 8119TIP3    H224294   1.139   6.086   4.765
 8120TIP3   OH224295   0.972   6.276   5.046
 8120TIP3    H124296   0.919   6.354   5.072
 8120TIP3    H224297   0.939   6.258   4.955
 8121TIP3   OH224298   1.033   5.532   4.030
 8121TIP3    H124299   0.963   5.533   3.961
 8121TIP3    H224300   1.005   5.609   4.083
 8122TIP3   OH224301   0.904   5.207   3.986
 8122TIP3    H124302   0.865   5.242   3.905
 8122TIP3    H224303   0.880   5.111   3.977
 8123TIP3   OH224304   0.909   5.480   4.529
 8123TIP3    H124305   0.915   5.383   4.517
 8123TIP3    H224306   0.898   5.489   4.626
 8124TIP3   OH224307   1.373   5.731   5.422
 8124TIP3    H124308   1.296   5.676   5.444
 8124TIP3    H224309   1.445   5.665   5.424
 8125TIP3   OH224310   0.847   4.941   3.974
 8125TIP3    H124311   0.919   4.903   4.027
 8125TIP3    H224312   0.772   4.882   3.991
 8126TIP3   OH224313   0.912   5.200   4.427
 8126TIP3    H124314   0.949   5.110   4.441
 8126TIP3    H224315   0.966   5.228   4.351
 8127TIP3   OH224316   1.070   5.367   4.919
 8127TIP3    H124317   1.151   5.400   4.875
 8127TIP3    H224318   1.083   5.406   5.008
 8128TIP3   OH224319   1.135   5.515   5.148
 8128TIP3    H124320   1.058   5.552   5.195
 8128TIP3    H224321   1.169   5.594   5.100
 8129TIP3   OH224322   1.582   5.101   5.706
 8129TIP3    H124323   1.646   5.037   5.667
 8129TIP3    H224324   1.563   5.160   5.630
 8130TIP3   OH224325   1.012   4.946   4.467
 8130TIP3    H124326   1.059   4.925   4.550
 8130TIP3    H224327   0.951   4.870   4.459
 8131TIP3   OH224328   1.461   5.247   5.508
 8131TIP3    H124329   1.375   5.285   5.537
 8131TIP3    H224330   1.430   5.173   5.454
 8132TIP3   OH224331   1.101   4.879   4.098
 8132TIP3    H124332   1.134   4.808   4.039
 8132TIP3    H224333   1.164   4.951   4.083
 8133TIP3   OH224334   0.663   6.396   4.362
 8133TIP3    H124335   0.718   6.394   4.282
 8133TIP3    H224336   0.694   6.476   4.407
 8134TIP3   OH224337   0.558   6.636   5.299
 8134TIP3    H124338   0.625   6.585   5.254
 8134TIP3    H224339   0.614   6.696   5.353
 8135TIP3   OH224340   1.363   5.007   5.384
 8135TIP3    H124341   1.269   4.998   5.360
 8135TIP3    H224342   1.392   4.913   5.378
 8136TIP3   OH224343   0.543   6.455   5.029
 8136TIP3    H124344   0.453   6.483   5.048
 8136TIP3    H224345   0.576   6.531   4.979
 8137TIP3   OH224346   0.763   6.648   4.939
 8137TIP3    H124347   0.740   6.731   4.892
 8137TIP3    H224348   0.779   6.587   4.865
 8138TIP3   OH224349   0.565   4.924   5.017
 8138TIP3    H124350   0.521   4.847   5.056
 8138TIP3    H224351   0.630   4.883   4.957
 8139TIP3   OH224352   1.086   4.818   4.923
 8139TIP3    H124353   1.117   4.860   4.840
 8139TIP3    H224354   0.989   4.819   4.911
 8140TIP3   OH224355   1.189   4.907   4.686
 8140TIP3    H124356   1.250   4.848   4.635
 8140TIP3    H224357   1.228   4.994   4.667
 8141TIP3   OH224358   0.260   4.670   4.919
 8141TIP3    H124359   0.308   4.709   4.844
 8141TIP3    H224360   0.319   4.691   4.993
 8142TIP3   OH224361   0.804   4.811   4.889
 8142TIP3    H124362   0.799   4.773   4.800
 8142TIP3    H224363   0.789   4.731   4.945
 8143TIP3   OH224364   0.832   4.735   4.453
 8143TIP3    H124365   0.744   4.776   4.460
 8143TIP3    H224366   0.815   4.649   4.498
 8144TIP3   OH224367   0.261   4.839   4.520
 8144TIP3    H124368   0.293   4.806   4.604
 8144TIP3    H224369   0.249   4.934   4.539
 8145TIP3   OH224370   0.801   6.378   4.122
 8145TIP3    H124371   0.798   6.279   4.121
 8145TIP3    H224372   0.777   6.396   4.031
 8146TIP3   OH224373   1.093   4.970   5.824
 8146TIP3    H124374   1.111   4.939   5.915
 8146TIP3    H224375   1.182   4.965   5.783
 8147TIP3   OH224376   1.032   6.520   5.313
 8147TIP3    H124377   0.950   6.496   5.264
 8147TIP3    H224378   1.018   6.617   5.319
 8148TIP3   OH224379   2.298   5.895   4.083
 8148TIP3    H124380   2.270   5.987   4.063
 8148TIP3    H224381   2.222   5.846   4.048
 8149TIP3   OH224382   2.294   5.897   4.464
 8149TIP3    H124383   2.328   5.868   4.550
 8149TIP3    H224384   2.258   5.815   4.427
 8150TIP3   OH224385   1.595   5.794   4.834
 8150TIP3    H124386   1.629   5.726   4.895
 8150TIP3    H224387   1.676   5.844   4.816
 8151TIP3   OH224388   2.540   6.198   4.144
 8151TIP3    H124389   2.528   6.128   4.210
 8151TIP3    H224390   2.570   6.273   4.199
 8152TIP3   OH224391   1.567   6.199   4.554
 8152TIP3    H124392   1.560   6.101   4.556
 8152TIP3    H224393   1.664   6.209   4.546
 8153TIP3   OH224394   1.269   5.397   4.344
 8153TIP3    H124395   1.225   5.483   4.354
 8153TIP3    H224396   1.201   5.349   4.292
 8154TIP3   OH224397   1.333   5.688   4.511
 8154TIP3    H124398   1.385   5.612   4.544
 8154TIP3    H224399   1.393   5.726   4.445
 8155TIP3   OH224400   2.188   6.660   4.160
 8155TIP3    H124401   2.235   6.589   4.111
 8155TIP3    H224402   2.185   6.623   4.249
 8156TIP3   OH224403   2.096   6.121   4.513
 8156TIP3    H124404   2.136   6.044   4.468
 8156TIP3    H224405   2.179   6.168   4.536
 8157TIP3   OH224406   3.105   5.444   4.507
 8157TIP3    H124407   3.139   5.524   4.551
 8157TIP3    H224408   3.134   5.458   4.415
 8158TIP3   OH224409   2.504   5.624   4.545
 8158TIP3    H124410   2.551   5.540   4.565
 8158TIP3    H224411   2.477   5.607   4.452
 8159TIP3   OH224412   1.843   5.278   4.512
 8159TIP3    H124413   1.828   5.353   4.450
 8159TIP3    H224414   1.797   5.207   4.462
 8160TIP3   OH224415   2.539   5.375   4.131
 8160TIP3    H124416   2.610   5.359   4.197
 8160TIP3    H224417   2.593   5.408   4.057
 8161TIP3   OH224418   1.478   5.477   4.618
 8161TIP3    H124419   1.560   5.456   4.668
 8161TIP3    H224420   1.498   5.430   4.534
 8162TIP3   OH224421   1.921   5.682   4.412
 8162TIP3    H124422   2.015   5.658   4.422
 8162TIP3    H224423   1.883   5.597   4.378
 8163TIP3   OH224424   3.183   5.650   4.677
 8163TIP3    H124425   3.099   5.696   4.659
 8163TIP3    H224426   3.194   5.670   4.771
 8164TIP3   OH224427   1.835   5.260   4.938
 8164TIP3    H124428   1.778   5.305   4.872
 8164TIP3    H224429   1.788   5.284   5.021
 8165TIP3   OH224430   2.188   6.116   3.953
 8165TIP3    H124431   2.149   6.098   3.867
 8165TIP3    H224432   2.145   6.201   3.977
 8166TIP3   OH224433   1.948   6.041   4.738
 8166TIP3    H124434   1.888   6.109   4.775
 8166TIP3    H224435   1.993   6.091   4.666
 8167TIP3   OH224436   2.748   5.377   4.303
 8167TIP3    H124437   2.753   5.321   4.381
 8167TIP3    H224438   2.806   5.452   4.328
 8168TIP3   OH224439   1.712   5.385   4.728
 8168TIP3    H124440   1.777   5.456   4.748
 8168TIP3    H224441   1.757   5.341   4.653
 8169TIP3   OH224442   1.776   6.236   4.836
 8169TIP3    H124443   1.752   6.322   4.796
 8169TIP3    H224444   1.697   6.221   4.892
 8170TIP3   OH224445   1.169   5.925   4.073
 8170TIP3    H124446   1.132   5.951   3.987
 8170TIP3    H224447   1.202   6.010   4.108
 8171TIP3   OH224448   2.611   6.441   4.313
 8171TIP3    H124449   2.521   6.432   4.351
 8171TIP3    H224450   2.603   6.527   4.267
 8172TIP3   OH224451   2.901   5.348   4.676
 8172TIP3    H124452   2.814   5.374   4.641
 8172TIP3    H224453   2.962   5.377   4.604
 8173TIP3   OH224454   2.196   4.986   4.648
 8173TIP3    H124455   2.192   4.892   4.672
 8173TIP3    H224456   2.123   5.022   4.703
 8174TIP3   OH224457   2.312   6.487   3.986
 8174TIP3    H124458   2.362   6.404   3.966
 8174TIP3    H224459   2.373   6.552   3.945
 8175TIP3   OH224460   2.454   6.272   3.893
 8175TIP3    H124461   2.423   6.192   3.850
 8175TIP3    H224462   2.491   6.237   3.977
 8176TIP3   OH224463   2.837   6.354   4.656
 8176TIP3    H124464   2.827   6.277   4.597
 8176TIP3    H224465   2.820   6.429   4.595
 8177TIP3   OH224466   2.129   5.748   3.912
 8177TIP3    H124467   2.050   5.801   3.889
 8177TIP3    H224468   2.176   5.744   3.827
 8178TIP3   OH224469   2.087   5.531   3.630
 8178TIP3    H124470   2.155   5.583   3.677
 8178TIP3    H224471   2.145   5.468   3.582
 8179TIP3   OH224472   3.033   5.992   4.501
 8179TIP3    H124473   2.949   6.043   4.506
 8179TIP3    H224474   3.062   6.014   4.410
 8180TIP3   OH224475   2.476   5.830   3.885
 8180TIP3    H124476   2.422   5.854   3.964
 8180TIP3    H224477   2.560   5.804   3.928
 8181TIP3   OH224478   2.711   5.870   4.797
 8181TIP3    H124479   2.709   5.953   4.848
 8181TIP3    H224480   2.626   5.875   4.750
 8182TIP3   OH224481   1.708   5.828   4.304
 8182TIP3    H124482   1.666   5.771   4.236
 8182TIP3    H224483   1.785   5.775   4.332
 8183TIP3   OH224484   1.836   6.235   4.453
 8183TIP3    H124485   1.819   6.198   4.365
 8183TIP3    H224486   1.927   6.203   4.470
 8184TIP3   OH224487   1.839   5.801   4.655
 8184TIP3    H124488   1.876   5.776   4.568
 8184TIP3    H224489   1.887   5.884   4.675
 8185TIP3   OH224490   2.369   6.437   4.432
 8185TIP3    H124491   2.357   6.517   4.486
 8185TIP3    H224492   2.355   6.364   4.496
 8186TIP3   OH224493   1.984   6.355   4.979
 8186TIP3    H124494   1.924   6.418   5.026
 8186TIP3    H224495   1.918   6.302   4.930
 8187TIP3   OH224496   2.316   5.689   3.710
 8187TIP3    H124497   2.376   5.748   3.762
 8187TIP3    H224498   2.342   5.712   3.618
 8188TIP3   OH224499   1.740   5.913   5.083
 8188TIP3    H124500   1.743   6.000   5.127
 8188TIP3    H224501   1.644   5.893   5.089
 8189TIP3   OH224502   2.058   6.369   3.988
 8189TIP3    H124503   2.139   6.421   4.003
 8189TIP3    H224504   2.000   6.434   3.946
 8190TIP3   OH224505   1.778   6.523   5.065
 8190TIP3    H124506   1.742   6.525   4.974
 8190TIP3    H224507   1.699   6.501   5.119
 8191TIP3   OH224508   2.832   4.930   3.758
 8191TIP3    H124509   2.751   4.950   3.809
 8191TIP3    H224510   2.845   5.013   3.708
 8192TIP3   OH224511   1.572   5.671   4.111
 8192TIP3    H124512   1.509   5.717   4.052
 8192TIP3    H224513   1.536   5.582   4.111
 8193TIP3   OH224514   2.632   6.296   3.307
 8193TIP3    H124515   2.640   6.393   3.292
 8193TIP3    H224516   2.724   6.267   3.294
 8194TIP3   OH224517   1.351   6.053   5.019
 8194TIP3    H124518   1.300   6.031   4.939
 8194TIP3    H224519   1.396   5.968   5.040
 8195TIP3   OH224520   1.210   6.240   4.661
 8195TIP3    H124521   1.304   6.238   4.638
 8195TIP3    H224522   1.202   6.328   4.701
 8196TIP3   OH224523   3.076   6.699   4.701
 8196TIP3    H124524   3.075   6.603   4.715
 8196TIP3    H224525   2.993   6.724   4.747
 8197TIP3   OH224526   2.181   6.485   4.836
 8197TIP3    H124527   2.180   6.578   4.869
 8197TIP3    H224528   2.110   6.445   4.892
 8198TIP3   OH224529   1.940   6.613   3.789
 8198TIP3    H124530   1.896   6.596   3.704
 8198TIP3    H224531   1.909   6.703   3.811
 8199TIP3   OH224532   1.378   6.463   4.173
 8199TIP3    H124533   1.428   6.454   4.257
 8199TIP3    H224534   1.321   6.385   4.178
 8200TIP3   OH224535   2.142   6.514   3.428
 8200TIP3    H124536   2.201   6.445   3.392
 8200TIP3    H224537   2.177   6.524   3.519
 8201TIP3   OH224538   2.192   6.563   3.699
 8201TIP3    H124539   2.104   6.572   3.741
 8201TIP3    H224540   2.244   6.524   3.770
 8202TIP3   OH224541   2.965   5.830   4.976
 8202TIP3    H124542   2.885   5.842   4.923
 8202TIP3    H224543   2.982   5.735   4.964
 8203TIP3   OH224544   1.559   6.235   5.002
 8203TIP3    H124545   1.611   6.222   5.085
 8203TIP3    H224546   1.486   6.172   5.014
 8204TIP3   OH224547   1.959   5.055   4.788
 8204TIP3    H124548   1.888   5.040   4.726
 8204TIP3    H224549   1.930   5.137   4.832
 8205TIP3   OH224550   2.496   5.176   4.979
 8205TIP3    H124551   2.567   5.147   5.041
 8205TIP3    H224552   2.414   5.154   5.028
 8206TIP3   OH224553   2.731   5.604   4.897
 8206TIP3    H124554   2.683   5.602   4.983
 8206TIP3    H224555   2.710   5.693   4.863
 8207TIP3   OH224556   2.392   5.737   3.455
 8207TIP3    H124557   2.360   5.710   3.367
 8207TIP3    H224558   2.475   5.783   3.430
 8208TIP3   OH224559   2.104   5.111   3.757
 8208TIP3    H124560   2.072   5.107   3.849
 8208TIP3    H224561   2.068   5.027   3.723
 8209TIP3   OH224562   1.890   5.578   4.803
 8209TIP3    H124563   1.844   5.603   4.886
 8209TIP3    H224564   1.875   5.659   4.749
 8210TIP3   OH224565   1.776   5.461   4.321
 8210TIP3    H124566   1.683   5.436   4.335
 8210TIP3    H224567   1.792   5.423   4.232
 8211TIP3   OH224568   2.266   5.548   4.045
 8211TIP3    H124569   2.215   5.619   4.002
 8211TIP3    H224570   2.322   5.517   3.972
 8212TIP3   OH224571   2.441   5.827   5.132
 8212TIP3    H124572   2.421   5.754   5.194
 8212TIP3    H224573   2.535   5.842   5.153
 8213TIP3   OH224574   2.422   5.577   4.285
 8213TIP3    H124575   2.364   5.606   4.212
 8213TIP3    H224576   2.457   5.496   4.243
 8214TIP3   OH224577   1.707   5.608   5.016
 8214TIP3    H124578   1.749   5.670   5.078
 8214TIP3    H224579   1.704   5.526   5.068
 8215TIP3   OH224580   1.760   5.082   3.723
 8215TIP3    H124581   1.752   5.080   3.820
 8215TIP3    H224582   1.681   5.135   3.699
 8216TIP3   OH224583   1.341   5.120   4.606
 8216TIP3    H124584   1.388   5.201   4.583
 8216TIP3    H224585   1.330   5.080   4.516
 8217TIP3   OH224586   1.280   5.107   4.117
 8217TIP3    H124587   1.324   5.144   4.036
 8217TIP3    H224588   1.218   5.180   4.134
 8218TIP3   OH224589   2.430   5.823   4.709
 8218TIP3    H124590   2.465   5.752   4.650
 8218TIP3    H224591   2.404   5.769   4.787
 8219TIP3   OH224592   2.103   5.291   4.380
 8219TIP3    H124593   2.024   5.283   4.437
 8219TIP3    H224594   2.176   5.282   4.443
 8220TIP3   OH224595   1.533   5.334   4.391
 8220TIP3    H124596   1.441   5.341   4.358
 8220TIP3    H224597   1.563   5.247   4.360
 8221TIP3   OH224598   1.806   5.338   4.077
 8221TIP3    H124599   1.901   5.351   4.058
 8221TIP3    H224600   1.762   5.360   3.992
 8222TIP3   OH224601   2.596   5.364   4.585
 8222TIP3    H124602   2.558   5.373   4.675
 8222TIP3    H224603   2.535   5.300   4.545
 8223TIP3   OH224604   1.647   5.372   3.855
 8223TIP3    H124605   1.577   5.325   3.804
 8223TIP3    H224606   1.700   5.408   3.781
 8224TIP3   OH224607   2.765   7.049   4.801
 8224TIP3    H124608   2.763   7.074   4.706
 8224TIP3    H224609   2.842   7.099   4.833
 8225TIP3   OH224610   1.720   6.159   5.224
 8225TIP3    H124611   1.803   6.189   5.268
 8225TIP3    H224612   1.658   6.164   5.299
 8226TIP3   OH224613   2.187   5.612   4.475
 8226TIP3    H124614   2.259   5.576   4.421
 8226TIP3    H224615   2.201   5.569   4.561
 8227TIP3   OH224616   1.710   5.102   4.350
 8227TIP3    H124617   1.682   5.021   4.397
 8227TIP3    H224618   1.766   5.067   4.279
 8228TIP3   OH224619   2.162   5.505   4.775
 8228TIP3    H124620   2.075   5.548   4.783
 8228TIP3    H224621   2.223   5.567   4.819
 8229TIP3   OH224622   1.898   5.902   3.861
 8229TIP3    H124623   1.826   5.835   3.851
 8229TIP3    H224624   1.881   5.935   3.952
 8230TIP3   OH224625   2.800   6.137   4.492
 8230TIP3    H124626   2.824   6.186   4.411
 8230TIP3    H224627   2.715   6.095   4.466
 8231TIP3   OH224628   2.358   5.213   3.724
 8231TIP3    H124629   2.261   5.197   3.732
 8231TIP3    H224630   2.368   5.307   3.748
 8232TIP3   OH224631   2.294   6.216   4.861
 8232TIP3    H124632   2.327   6.199   4.950
 8232TIP3    H224633   2.262   6.307   4.866
 8233TIP3   OH224634   2.427   5.461   3.828
 8233TIP3    H124635   2.524   5.465   3.844
 8233TIP3    H224636   2.411   5.540   3.774
 8234TIP3   OH224637   1.588   5.916   4.538
 8234TIP3    H124638   1.626   5.894   4.451
 8234TIP3    H224639   1.643   5.861   4.597
 8235TIP3   OH224640   2.044   6.050   3.682
 8235TIP3    H124641   1.997   6.136   3.688
 8235TIP3    H224642   1.991   5.995   3.743
 8236TIP3   OH224643   1.472   5.845   5.153
 8236TIP3    H124644   1.498   5.841   5.247
 8236TIP3    H224645   1.408   5.773   5.148
 8237TIP3   OH224646   2.199   5.956   5.171
 8237TIP3    H124647   2.144   5.899   5.114
 8237TIP3    H224648   2.289   5.924   5.146
 8238TIP3   OH224649   2.459   6.475   4.756
 8238TIP3    H124650   2.362   6.478   4.768
 8238TIP3    H224651   2.488   6.528   4.833
 8239TIP3   OH224652   2.869   5.550   3.664
 8239TIP3    H124653   2.807   5.506   3.602
 8239TIP3    H224654   2.867   5.639   3.623
 8240TIP3   OH224655   3.088   6.408   4.744
 8240TIP3    H124656   2.990   6.402   4.736
 8240TIP3    H224657   3.114   6.378   4.654
 8241TIP3   OH224658   2.568   6.369   3.571
 8241TIP3    H124659   2.545   6.298   3.632
 8241TIP3    H224660   2.582   6.323   3.487
 8242TIP3   OH224661   2.566   5.999   4.411
 8242TIP3    H124662   2.472   5.974   4.423
 8242TIP3    H224663   2.600   5.919   4.366
 8243TIP3   OH224664   1.693   6.227   4.165
 8243TIP3    H124665   1.696   6.307   4.109
 8243TIP3    H224666   1.598   6.211   4.169
 8244TIP3   OH224667   1.257   5.530   3.866
 8244TIP3    H124668   1.302   5.615   3.886
 8244TIP3    H224669   1.180   5.536   3.927
 8245TIP3   OH224670   1.830   5.991   4.106
 8245TIP3    H124671   1.797   6.081   4.125
 8245TIP3    H224672   1.795   5.942   4.183
 8246TIP3   OH224673   1.961   6.569   4.632
 8246TIP3    H124674   2.002   6.643   4.582
 8246TIP3    H224675   2.038   6.535   4.681
 8247TIP3   OH224676   1.612   6.466   4.015
 8247TIP3    H124677   1.527   6.476   4.061
 8247TIP3    H224678   1.646   6.558   4.018
 8248TIP3   OH224679   2.350   6.204   4.591
 8248TIP3    H124680   2.340   6.200   4.688
 8248TIP3    H224681   2.431   6.153   4.577
 8249TIP3   OH224682   2.325   6.097   3.474
 8249TIP3    H124683   2.379   6.072   3.552
 8249TIP3    H224684   2.237   6.070   3.504
 8250TIP3   OH224685   2.598   6.738   4.641
 8250TIP3    H124686   2.519   6.682   4.632
 8250TIP3    H224687   2.584   6.803   4.569
 8251TIP3   OH224688   2.664   6.572   3.293
 8251TIP3    H124689   2.703   6.644   3.241
 8251TIP3    H224690   2.584   6.618   3.326
 8252TIP3   OH224691   1.688   5.345   5.161
 8252TIP3    H124692   1.594   5.355   5.184
 8252TIP3    H224693   1.722   5.293   5.236
 8253TIP3   OH224694   2.485   6.032   3.692
 8253TIP3    H124695   2.475   5.965   3.762
 8253TIP3    H224696   2.582   6.029   3.678
 8254TIP3   OH224697   1.398   6.433   4.794
 8254TIP3    H124698   1.458   6.362   4.823
 8254TIP3    H224699   1.431   6.508   4.845
 8255TIP3   OH224700   1.689   6.078   3.473
 8255TIP3    H124701   1.706   5.987   3.444
 8255TIP3    H224702   1.671   6.065   3.568
 8256TIP3   OH224703   1.635   6.082   3.747
 8256TIP3    H124704   1.711   6.056   3.801
 8256TIP3    H224705   1.640   6.180   3.753
 8257TIP3   OH224706   1.372   5.776   3.948
 8257TIP3    H124707   1.306   5.822   4.005
 8257TIP3    H224708   1.387   5.845   3.880
 8258TIP3   OH224709   2.516   5.416   4.844
 8258TIP3    H124710   2.601   5.452   4.875
 8258TIP3    H224711   2.508   5.334   4.897
 8259TIP3   OH224712   2.397   5.166   4.006
 8259TIP3    H124713   2.388   5.188   3.911
 8259TIP3    H224714   2.439   5.247   4.042
 8260TIP3   OH224715   1.901   6.279   3.694
 8260TIP3    H124716   1.815   6.308   3.730
 8260TIP3    H224717   1.919   6.351   3.632
 8261TIP3   OH224718   2.087   5.345   4.108
 8261TIP3    H124719   2.154   5.415   4.089
 8261TIP3    H224720   2.096   5.337   4.205
 8262TIP3   OH224721   2.359   5.661   4.916
 8262TIP3    H124722   2.384   5.713   4.995
 8262TIP3    H224723   2.416   5.582   4.925
 8263TIP3   OH224724   2.233   5.070   4.208
 8263TIP3    H124725   2.237   5.143   4.273
 8263TIP3    H224726   2.294   5.105   4.139
 8264TIP3   OH224727   1.644   6.355   3.761
 8264TIP3    H124728   1.615   6.425   3.698
 8264TIP3    H224729   1.630   6.400   3.847
 8265TIP3   OH224730   1.745   5.069   4.000
 8265TIP3    H124731   1.746   5.160   4.035
 8265TIP3    H224732   1.841   5.048   4.007
 8266TIP3   OH224733   3.000   5.565   4.894
 8266TIP3    H124734   2.902   5.562   4.901
 8266TIP3    H224735   3.011   5.514   4.812
 8267TIP3   OH224736   2.650   5.758   4.285
 8267TIP3    H124737   2.576   5.696   4.296
 8267TIP3    H224738   2.723   5.712   4.331
 8268TIP3   OH224739   1.363   5.986   3.754
 8268TIP3    H124740   1.431   6.056   3.763
 8268TIP3    H224741   1.408   5.930   3.687
 8269TIP3   OH224742   1.304   5.260   3.892
 8269TIP3    H124743   1.305   5.357   3.884
 8269TIP3    H224744   1.230   5.236   3.836
 8270TIP3   OH224745   2.619   6.712   4.234
 8270TIP3    H124746   2.577   6.759   4.158
 8270TIP3    H224747   2.713   6.730   4.213
 8271TIP3   OH224748   1.235   6.196   4.144
 8271TIP3    H124749   1.161   6.231   4.195
 8271TIP3    H224750   1.216   6.237   4.056
 8272TIP3   OH224751   1.392   6.742   5.213
 8272TIP3    H124752   1.478   6.745   5.261
 8272TIP3    H224753   1.373   6.647   5.212
 8273TIP3   OH224754   1.870   6.706   5.259
 8273TIP3    H124755   1.966   6.692   5.267
 8273TIP3    H224756   1.850   6.647   5.184
 8274TIP3   OH224757   1.854   6.282   3.386
 8274TIP3    H124758   1.799   6.210   3.424
 8274TIP3    H224759   1.930   6.230   3.353
 8275TIP3   OH224760   2.512   6.611   4.990
 8275TIP3    H124761   2.503   6.542   5.060
 8275TIP3    H224762   2.589   6.662   5.021
 8276TIP3   OH224763   2.290   6.322   3.297
 8276TIP3    H124764   2.335   6.259   3.356
 8276TIP3    H224765   2.347   6.322   3.217
 8277TIP3   OH224766   1.514   6.140   5.413
 8277TIP3    H124767   1.540   6.046   5.412
 8277TIP3    H224768   1.427   6.138   5.367
 8278TIP3   OH224769   1.498   5.799   3.607
 8278TIP3    H124770   1.554   5.765   3.679
 8278TIP3    H224771   1.564   5.803   3.535
 8279TIP3   OH224772   2.128   6.231   5.188
 8279TIP3    H124773   2.091   6.250   5.099
 8279TIP3    H224774   2.161   6.139   5.179
 8280TIP3   OH224775   2.006   5.996   3.413
 8280TIP3    H124776   2.011   6.009   3.510
 8280TIP3    H224777   2.008   5.898   3.408
 8281TIP3   OH224778   2.621   6.241   4.792
 8281TIP3    H124779   2.697   6.283   4.749
 8281TIP3    H224780   2.552   6.309   4.778
 8282TIP3   OH224781   1.640   5.878   5.394
 8282TIP3    H124782   1.719   5.829   5.369
 8282TIP3    H224783   1.666   5.912   5.483
 8283TIP3   OH224784   1.706   5.701   3.829
 8283TIP3    H124785   1.683   5.656   3.911
 8283TIP3    H224786   1.744   5.628   3.775
 8284TIP3   OH224787   1.970   5.759   5.050
 8284TIP3    H124788   1.899   5.827   5.056
 8284TIP3    H224789   2.026   5.796   4.978
 8285TIP3   OH224790   1.807   5.496   3.670
 8285TIP3    H124791   1.782   5.499   3.575
 8285TIP3    H224792   1.905   5.499   3.663
 8286TIP3   OH224793   2.491   6.167   5.190
 8286TIP3    H124794   2.573   6.146   5.144
 8286TIP3    H224795   2.491   6.101   5.262
 8287TIP3   OH224796   2.628   5.827   3.332
 8287TIP3    H124797   2.609   5.780   3.249
 8287TIP3    H224798   2.596   5.917   3.308
 8288TIP3   OH224799   2.094   5.553   5.185
 8288TIP3    H124800   2.100   5.473   5.128
 8288TIP3    H224801   2.054   5.619   5.123
 8289TIP3   OH224802   2.096   5.338   4.992
 8289TIP3    H124803   2.128   5.382   4.910
 8289TIP3    H224804   2.003   5.317   4.967
 8290TIP3   OH224805   2.127   5.874   4.865
 8290TIP3    H124806   2.212   5.882   4.821
 8290TIP3    H224807   2.074   5.943   4.819
 8291TIP3   OH224808   2.711   5.843   5.245
 8291TIP3    H124809   2.759   5.759   5.254
 8291TIP3    H224810   2.780   5.901   5.210
 8292TIP3   OH224811   2.751   6.097   4.980
 8292TIP3    H124812   2.694   6.150   4.921
 8292TIP3    H224813   2.839   6.116   4.941
 8293TIP3   OH224814   1.971   5.668   5.412
 8293TIP3    H124815   1.905   5.598   5.426
 8293TIP3    H224816   2.010   5.641   5.326
 8294TIP3   OH224817   2.234   5.105   5.058
 8294TIP3    H124818   2.184   5.187   5.035
 8294TIP3    H224819   2.167   5.036   5.046
 8295TIP3   OH224820   2.359   5.610   5.274
 8295TIP3    H124821   2.353   5.597   5.370
 8295TIP3    H224822   2.269   5.583   5.248
 8296TIP3   OH224823   2.600   5.561   5.129
 8296TIP3    H124824   2.525   5.559   5.192
 8296TIP3    H224825   2.674   5.529   5.184
 8297TIP3   OH224826   2.825   5.498   5.279
 8297TIP3    H124827   2.840   5.403   5.296
 8297TIP3    H224828   2.824   5.536   5.369
 8298TIP3   OH224829   1.810   5.447   5.467
 8298TIP3    H124830   1.826   5.357   5.433
 8298TIP3    H224831   1.850   5.439   5.556
 8299TIP3   OH224832   2.326   5.113   5.317
 8299TIP3    H124833   2.396   5.045   5.312
 8299TIP3    H224834   2.290   5.108   5.226
 8300TIP3   OH224835   2.393   5.329   5.474
 8300TIP3    H124836   2.373   5.257   5.410
 8300TIP3    H224837   2.315   5.387   5.466
 8301TIP3   OH224838   1.614   6.557   3.573
 8301TIP3    H124839   1.710   6.553   3.555
 8301TIP3    H224840   1.586   6.607   3.495
 8302TIP3   OH224841   1.095   5.938   3.793
 8302TIP3    H124842   1.189   5.961   3.776
 8302TIP3    H224843   1.089   5.850   3.750
 8303TIP3   OH224844   1.007   6.551   4.203
 8303TIP3    H124845   0.941   6.488   4.168
 8303TIP3    H224846   1.054   6.496   4.269
 8304TIP3   OH224847   1.144   6.405   4.389
 8304TIP3    H124848   1.133   6.331   4.451
 8304TIP3    H224849   1.198   6.466   4.444
 8305TIP3   OH224850   2.871   6.804   4.190
 8305TIP3    H124851   2.898   6.837   4.278
 8305TIP3    H224852   2.933   6.849   4.131
 8306TIP3   OH224853   2.901   6.824   4.472
 8306TIP3    H124854   2.858   6.736   4.467
 8306TIP3    H224855   2.976   6.802   4.530
 8307TIP3   OH224856   2.947   6.500   5.045
 8307TIP3    H124857   2.874   6.509   5.110
 8307TIP3    H224858   2.988   6.589   5.049
 8308TIP3   OH224859   2.763   6.014   3.666
 8308TIP3    H124860   2.832   6.077   3.636
 8308TIP3    H224861   2.807   5.975   3.745
 8309TIP3   OH224862   2.891   5.882   3.870
 8309TIP3    H124863   2.826   5.839   3.929
 8309TIP3    H224864   2.957   5.919   3.932
 8310TIP3   OH224865   2.945   6.272   4.301
 8310TIP3    H124866   2.999   6.207   4.252
 8310TIP3    H224867   2.940   6.346   4.237
 8311TIP3   OH224868   2.778   6.573   4.496
 8311TIP3    H124869   2.706   6.616   4.548
 8311TIP3    H224870   2.728   6.526   4.427
 8312TIP3   OH224871   2.830   5.789   3.516
 8312TIP3    H124872   2.758   5.791   3.448
 8312TIP3    H224873   2.802   5.865   3.571
 8313TIP3   OH224874   2.699   5.463   3.471
 8313TIP3    H124875   2.660   5.499   3.391
 8313TIP3    H224876   2.675   5.368   3.463
 8314TIP3   OH224877   2.705   5.737   4.015
 8314TIP3    H124878   2.715   5.641   4.009
 8314TIP3    H224879   2.692   5.751   4.112
 8315TIP3   OH224880   1.332   5.809   4.765
 8315TIP3    H124881   1.332   5.780   4.671
 8315TIP3    H224882   1.430   5.812   4.781
 8316TIP3   OH224883   2.995   6.162   4.872
 8316TIP3    H124884   3.067   6.096   4.864
 8316TIP3    H224885   3.022   6.231   4.810
 8317TIP3   OH224886   3.181   5.968   4.891
 8317TIP3    H124887   3.106   5.917   4.929
 8317TIP3    H224888   3.254   5.904   4.905
 8318TIP3   OH224889   2.644   5.197   3.457
 8318TIP3    H124890   2.721   5.166   3.509
 8318TIP3    H224891   2.573   5.135   3.482
 8319TIP3   OH224892   2.701   5.453   3.910
 8319TIP3    H124893   2.741   5.364   3.926
 8319TIP3    H224894   2.761   5.485   3.840
 8320TIP3   OH224895   2.863   5.631   4.404
 8320TIP3    H124896   2.950   5.655   4.364
 8320TIP3    H224897   2.878   5.664   4.495
 8321TIP3   OH224898   2.933   5.772   4.638
 8321TIP3    H124899   2.855   5.806   4.685
 8321TIP3    H224900   2.966   5.852   4.592
 8322TIP3   OH224901   1.541   5.502   5.429
 8322TIP3    H124902   1.639   5.500   5.434
 8322TIP3    H224903   1.521   5.418   5.474
 8323TIP3   OH224904   3.383   5.361   5.194
 8323TIP3    H124905   3.443   5.295   5.153
 8323TIP3    H224906   3.358   5.416   5.116
 8324TIP3   OH224907   2.809   5.204   3.948
 8324TIP3    H124908   2.860   5.187   4.030
 8324TIP3    H224909   2.750   5.125   3.948
 8325TIP3   OH224910   1.316   5.456   4.841
 8325TIP3    H124911   1.365   5.459   4.756
 8325TIP3    H224912   1.343   5.541   4.879
 8326TIP3   OH224913   3.255   5.503   4.997
 8326TIP3    H124914   3.167   5.541   5.015
 8326TIP3    H224915   3.230   5.429   4.939
 8327TIP3   OH224916   2.892   5.139   3.579
 8327TIP3    H124917   2.933   5.066   3.529
 8327TIP3    H224918   2.961   5.208   3.575
 8328TIP3   OH224919   1.286   4.998   4.364
 8328TIP3    H124920   1.194   4.968   4.364
 8328TIP3    H224921   1.295   5.038   4.275
 8329TIP3   OH224922   2.456   6.670   3.847
 8329TIP3    H124923   2.507   6.657   3.765
 8329TIP3    H224924   2.510   6.737   3.893
 8330TIP3   OH224925   1.511   5.041   5.133
 8330TIP3    H124926   1.478   5.029   5.224
 8330TIP3    H224927   1.443   5.104   5.099
 8331TIP3   OH224928   1.562   6.468   5.232
 8331TIP3    H124929   1.467   6.452   5.219
 8331TIP3    H224930   1.571   6.464   5.328
 8332TIP3   OH224931   1.733   6.506   4.779
 8332TIP3    H124932   1.688   6.584   4.739
 8332TIP3    H224933   1.821   6.518   4.736
 8333TIP3   OH224934   2.180   6.752   4.918
 8333TIP3    H124935   2.222   6.752   5.006
 8333TIP3    H224936   2.246   6.802   4.866
 8334TIP3   OH224937   2.360   6.902   4.777
 8334TIP3    H124938   2.432   6.852   4.736
 8334TIP3    H224939   2.410   6.960   4.838
 8335TIP3   OH224940   3.153   5.263   4.879
 8335TIP3    H124941   3.062   5.250   4.845
 8335TIP3    H224942   3.189   5.171   4.867
 8336TIP3   OH224943   1.410   6.759   4.807
 8336TIP3    H124944   1.321   6.794   4.783
 8336TIP3    H224945   1.425   6.807   4.889
 8337TIP3   OH224946   1.646   6.740   4.662
 8337TIP3    H124947   1.560   6.754   4.706
 8337TIP3    H224948   1.629   6.775   4.572
 8338TIP3   OH224949   2.073   6.770   4.460
 8338TIP3    H124950   2.006   6.792   4.393
 8338TIP3    H224951   2.087   6.858   4.503
 8339TIP3   OH224952   2.343   6.709   4.511
 8339TIP3    H124953   2.249   6.728   4.491
 8339TIP3    H224954   2.386   6.786   4.470
 8340TIP3   OH224955   2.550   6.902   4.426
 8340TIP3    H124956   2.536   6.987   4.379
 8340TIP3    H224957   2.576   6.842   4.353
 8341TIP3   OH224958   1.322   6.556   4.547
 8341TIP3    H124959   1.349   6.534   4.639
 8341TIP3    H224960   1.396   6.513   4.498
 8342TIP3   OH224961   1.517   6.428   4.406
 8342TIP3    H124962   1.535   6.344   4.454
 8342TIP3    H224963   1.607   6.466   4.401
 8343TIP3   OH224964   1.781   6.523   4.410
 8343TIP3    H124965   1.815   6.434   4.395
 8343TIP3    H224966   1.827   6.546   4.493
 8344TIP3   OH224967   2.352   5.178   4.487
 8344TIP3    H124968   2.315   5.107   4.541
 8344TIP3    H224969   2.431   5.136   4.448
 8345TIP3   OH224970   2.877   5.063   4.399
 8345TIP3    H124971   2.917   5.110   4.324
 8345TIP3    H224972   2.783   5.082   4.388
 8346TIP3   OH224973   2.976   5.163   4.163
 8346TIP3    H124974   3.050   5.109   4.127
 8346TIP3    H224975   3.012   5.254   4.148
 8347TIP3   OH224976   1.603   4.896   4.534
 8347TIP3    H124977   1.513   4.861   4.523
 8347TIP3    H224978   1.656   4.813   4.532
 8348TIP3   OH224979   1.399   4.755   4.159
 8348TIP3    H124980   1.430   4.809   4.083
 8348TIP3    H224981   1.366   4.823   4.219
 8349TIP3   OH224982   2.048   4.932   4.400
 8349TIP3    H124983   2.103   4.973   4.331
 8349TIP3    H224984   2.093   4.962   4.480
 8350TIP3   OH224985   2.588   5.066   4.378
 8350TIP3    H124986   2.602   5.026   4.291
 8350TIP3    H224987   2.580   4.986   4.435
 8351TIP3   OH224988   2.627   4.989   3.938
 8351TIP3    H124989   2.540   5.029   3.950
 8351TIP3    H224990   2.615   4.904   3.987
 8352TIP3   OH224991   1.112   6.330   3.945
 8352TIP3    H124992   1.029   6.296   3.906
 8352TIP3    H224993   1.102   6.425   3.923
 8353TIP3   OH224994   1.511   4.916   3.926
 8353TIP3    H124995   1.558   4.853   3.867
 8353TIP3    H224996   1.585   4.970   3.960
 8354TIP3   OH224997   2.022   5.094   4.022
 8354TIP3    H124998   2.083   5.046   4.081
 8354TIP3    H224999   2.046   5.186   4.048
 8355TIP3   OH225000   1.883   6.518   3.523
 8355TIP3    H125001   1.971   6.541   3.487
 8355TIP3    H225002   1.861   6.443   3.462
 8356TIP3   OH225003   2.601   6.636   3.615
 8356TIP3    H125004   2.593   6.538   3.603
 8356TIP3    H225005   2.557   6.668   3.534
 8357TIP3   OH225006   1.815   5.165   5.399
 8357TIP3    H125007   1.782   5.098   5.461
 8357TIP3    H225008   1.909   5.168   5.426
 8358TIP3   OH225009   2.062   5.166   5.519
 8358TIP3    H125010   2.149   5.144   5.482
 8358TIP3    H225011   2.053   5.096   5.588
 8359TIP3   OH225012   1.187   6.354   3.579
 8359TIP3    H125013   1.193   6.382   3.672
 8359TIP3    H225014   1.276   6.313   3.565
 8360TIP3   OH225015   2.890   5.229   5.310
 8360TIP3    H125016   2.910   5.196   5.401
 8360TIP3    H225017   2.978   5.224   5.267
 8361TIP3   OH225018   2.829   6.781   4.802
 8361TIP3    H125019   2.750   6.749   4.753
 8361TIP3    H225020   2.809   6.877   4.806
 8362TIP3   OH225021   4.094   6.153   3.571
 8362TIP3    H125022   4.065   6.244   3.548
 8362TIP3    H225023   4.019   6.102   3.535
 8363TIP3   OH225024   4.091   6.156   3.953
 8363TIP3    H125025   4.124   6.120   4.037
 8363TIP3    H225026   4.053   6.077   3.912
 8364TIP3   OH225027   3.392   6.048   4.316
 8364TIP3    H125028   3.423   5.979   4.378
 8364TIP3    H225029   3.472   6.101   4.306
 8365TIP3   OH225030   4.334   6.456   3.631
 8365TIP3    H125031   4.324   6.381   3.691
 8365TIP3    H225032   4.370   6.525   3.688
 8366TIP3   OH225033   3.363   6.458   4.037
 8366TIP3    H125034   3.354   6.360   4.040
 8366TIP3    H225035   3.459   6.467   4.041
 8367TIP3   OH225036   3.071   5.662   3.825
 8367TIP3    H125037   3.021   5.745   3.839
 8367TIP3    H225038   3.001   5.605   3.788
 8368TIP3   OH225039   3.130   5.947   3.996
 8368TIP3    H125040   3.178   5.870   4.033
 8368TIP3    H225041   3.189   5.974   3.924
 8369TIP3   OH225042   3.988   6.918   3.649
 8369TIP3    H125043   4.032   6.848   3.595
 8369TIP3    H225044   3.977   6.873   3.733
 8370TIP3   OH225045   3.892   6.380   3.998
 8370TIP3    H125046   3.925   6.299   3.954
 8370TIP3    H225047   3.978   6.420   4.020
 8371TIP3   OH225048   4.905   5.699   3.994
 8371TIP3    H125049   4.935   5.782   4.037
 8371TIP3    H225050   4.933   5.714   3.902
 8372TIP3   OH225051   4.304   5.883   4.031
 8372TIP3    H125052   4.346   5.797   4.052
 8372TIP3    H225053   4.274   5.865   3.939
 8373TIP3   OH225054   3.641   5.540   3.996
 8373TIP3    H125055   3.621   5.612   3.932
 8373TIP3    H225056   3.594   5.465   3.952
 8374TIP3   OH225057   4.336   5.632   3.617
 8374TIP3    H125058   4.407   5.614   3.683
 8374TIP3    H225059   4.390   5.665   3.543
 8375TIP3   OH225060   3.276   5.741   4.102
 8375TIP3    H125061   3.359   5.721   4.150
 8375TIP3    H225062   3.289   5.685   4.023
 8376TIP3   OH225063   3.717   5.939   3.897
 8376TIP3    H125064   3.811   5.914   3.910
 8376TIP3    H225065   3.678   5.855   3.865
 8377TIP3   OH225066   4.981   5.906   4.165
 8377TIP3    H125067   4.896   5.952   4.147
 8377TIP3    H225068   4.991   5.925   4.259
 8378TIP3   OH225069   3.640   5.523   4.429
 8378TIP3    H125070   3.578   5.558   4.363
 8378TIP3    H225071   3.589   5.537   4.511
 8379TIP3   OH225072   3.984   6.373   3.440
 8379TIP3    H125073   3.944   6.352   3.355
 8379TIP3    H225074   3.940   6.458   3.463
 8380TIP3   OH225075   3.748   6.298   4.224
 8380TIP3    H125076   3.683   6.363   4.261
 8380TIP3    H225077   3.786   6.348   4.149
 8381TIP3   OH225078   4.545   5.633   3.789
 8381TIP3    H125079   4.542   5.580   3.870
 8381TIP3    H225080   4.602   5.707   3.815
 8382TIP3   OH225081   3.509   5.638   4.214
 8382TIP3    H125082   3.574   5.708   4.238
 8382TIP3    H225083   3.558   5.596   4.139
 8383TIP3   OH225084   3.570   6.486   4.315
 8383TIP3    H125085   3.554   6.579   4.290
 8383TIP3    H225086   3.496   6.473   4.378
 8384TIP3   OH225087   2.968   6.181   3.559
 8384TIP3    H125088   2.928   6.209   3.474
 8384TIP3    H225089   2.999   6.267   3.595
 8385TIP3   OH225090   4.410   6.699   3.802
 8385TIP3    H125091   4.318   6.688   3.834
 8385TIP3    H225092   4.402   6.783   3.752
 8386TIP3   OH225093   4.697   5.601   4.161
 8386TIP3    H125094   4.610   5.629   4.129
 8386TIP3    H225095   4.757   5.633   4.090
 8387TIP3   OH225096   3.995   5.240   4.143
 8387TIP3    H125097   3.984   5.145   4.164
 8387TIP3    H225098   3.917   5.277   4.190
 8388TIP3   OH225099   4.109   6.745   3.475
 8388TIP3    H125100   4.157   6.662   3.454
 8388TIP3    H225101   4.170   6.809   3.432
 8389TIP3   OH225102   4.249   6.531   3.379
 8389TIP3    H125103   4.220   6.450   3.335
 8389TIP3    H225104   4.285   6.495   3.463
 8390TIP3   OH225105   4.629   6.612   4.142
 8390TIP3    H125106   4.623   6.533   4.083
 8390TIP3    H225107   4.621   6.685   4.077
 8391TIP3   OH225108   3.926   6.006   3.399
 8391TIP3    H125109   3.846   6.057   3.376
 8391TIP3    H225110   3.973   6.001   3.314
 8392TIP3   OH225111   3.884   5.789   3.116
 8392TIP3    H125112   3.952   5.839   3.164
 8392TIP3    H225113   3.940   5.724   3.069
 8393TIP3   OH225114   4.828   6.249   3.988
 8393TIP3    H125115   4.745   6.301   3.992
 8393TIP3    H225116   4.857   6.269   3.897
 8394TIP3   OH225117   4.272   6.088   3.371
 8394TIP3    H125118   4.218   6.111   3.451
 8394TIP3    H225119   4.356   6.060   3.414
 8395TIP3   OH225120   4.508   6.126   4.283
 8395TIP3    H125121   4.504   6.209   4.333
 8395TIP3    H225122   4.421   6.128   4.237
 8396TIP3   OH225123   3.506   6.086   3.788
 8396TIP3    H125124   3.463   6.028   3.722
 8396TIP3    H225125   3.581   6.030   3.818
 8397TIP3   OH225126   3.639   6.502   3.934
 8397TIP3    H125127   3.610   6.457   3.852
 8397TIP3    H225128   3.726   6.460   3.950
 8398TIP3   OH225129   3.640   6.055   4.144
 8398TIP3    H125130   3.673   6.031   4.055
 8398TIP3    H225131   3.685   6.140   4.162
 8399TIP3   OH225132   4.166   6.693   3.914
 8399TIP3    H125133   4.143   6.774   3.963
 8399TIP3    H225134   4.150   6.620   3.977
 8400TIP3   OH225135   4.112   5.946   3.197
 8400TIP3    H125136   4.172   6.004   3.249
 8400TIP3    H225137   4.139   5.969   3.105
 8401TIP3   OH225138   3.534   6.171   4.567
 8401TIP3    H125139   3.536   6.257   4.613
 8401TIP3    H225140   3.439   6.148   4.575
 8402TIP3   OH225141   3.855   6.626   3.476
 8402TIP3    H125142   3.935   6.679   3.488
 8402TIP3    H225143   3.795   6.688   3.431
 8403TIP3   OH225144   3.576   6.794   4.556
 8403TIP3    H125145   3.552   6.771   4.465
 8403TIP3    H225146   3.499   6.761   4.607
 8404TIP3   OH225147   4.629   5.186   3.245
 8404TIP3    H125148   4.548   5.206   3.296
 8404TIP3    H225149   4.642   5.270   3.196
 8405TIP3   OH225150   3.370   5.929   3.596
 8405TIP3    H125151   3.303   5.971   3.537
 8405TIP3    H225152   3.334   5.840   3.606
 8406TIP3   OH225153   4.428   6.552   2.794
 8406TIP3    H125154   4.438   6.649   2.781
 8406TIP3    H225155   4.521   6.522   2.781
 8407TIP3   OH225156   3.153   6.312   4.499
 8407TIP3    H125157   3.088   6.288   4.431
 8407TIP3    H225158   3.190   6.225   4.525
 8408TIP3   OH225159   3.006   6.504   4.133
 8408TIP3    H125160   3.102   6.498   4.124
 8408TIP3    H225161   2.996   6.584   4.187
 8409TIP3   OH225162   4.869   6.954   4.185
 8409TIP3    H125163   4.871   6.857   4.201
 8409TIP3    H225164   4.787   6.978   4.234
 8410TIP3   OH225165   3.738   6.871   3.275
 8410TIP3    H125166   3.692   6.851   3.192
 8410TIP3    H225167   3.704   6.959   3.298
 8411TIP3   OH225168   3.175   6.720   3.659
 8411TIP3    H125169   3.222   6.710   3.745
 8411TIP3    H225170   3.119   6.640   3.661
 8412TIP3   OH225171   3.939   6.772   2.915
 8412TIP3    H125172   3.998   6.702   2.879
 8412TIP3    H225173   3.973   6.780   3.006
 8413TIP3   OH225174   3.989   6.820   3.185
 8413TIP3    H125175   3.901   6.830   3.226
 8413TIP3    H225176   4.039   6.776   3.256
 8414TIP3   OH225177   4.758   6.087   4.462
 8414TIP3    H125178   4.679   6.093   4.407
 8414TIP3    H225179   4.778   5.991   4.455
 8415TIP3   OH225180   3.359   6.495   4.490
 8415TIP3    H125181   3.409   6.477   4.572
 8415TIP3    H225182   3.285   6.431   4.496
 8416TIP3   OH225183   3.755   5.320   4.268
 8416TIP3    H125184   3.666   5.288   4.243
 8416TIP3    H225185   3.729   5.399   4.319
 8417TIP3   OH225186   4.291   5.435   4.468
 8417TIP3    H125187   4.360   5.404   4.530
 8417TIP3    H225188   4.208   5.412   4.514
 8418TIP3   OH225189   4.528   5.860   4.384
 8418TIP3    H125190   4.480   5.857   4.470
 8418TIP3    H225191   4.504   5.948   4.350
 8419TIP3   OH225192   4.189   5.995   2.942
 8419TIP3    H125193   4.156   5.967   2.855
 8419TIP3    H225194   4.272   6.039   2.917
 8420TIP3   OH225195   3.901   5.368   3.244
 8420TIP3    H125196   3.869   5.364   3.336
 8420TIP3    H225197   3.864   5.284   3.210
 8421TIP3   OH225198   3.689   5.833   4.293
 8421TIP3    H125199   3.636   5.853   4.374
 8421TIP3    H225200   3.672   5.914   4.239
 8422TIP3   OH225201   3.571   5.721   3.805
 8422TIP3    H125202   3.479   5.692   3.823
 8422TIP3    H225203   3.585   5.680   3.717
 8423TIP3   OH225204   4.064   5.806   3.533
 8423TIP3    H125205   4.011   5.876   3.490
 8423TIP3    H225206   4.119   5.774   3.459
 8424TIP3   OH225207   4.238   6.089   4.624
 8424TIP3    H125208   4.215   6.013   4.683
 8424TIP3    H225209   4.333   6.095   4.641
 8425TIP3   OH225210   4.220   5.835   3.771
 8425TIP3    H125211   4.160   5.861   3.699
 8425TIP3    H225212   4.255   5.753   3.730
 8426TIP3   OH225213   3.507   5.862   4.501
 8426TIP3    H125214   3.535   5.922   4.571
 8426TIP3    H225215   3.496   5.778   4.549
 8427TIP3   OH225216   3.556   5.339   3.209
 8427TIP3    H125217   3.550   5.336   3.306
 8427TIP3    H225218   3.477   5.392   3.187
 8428TIP3   OH225219   3.101   5.387   4.079
 8428TIP3    H125220   3.177   5.416   4.133
 8428TIP3    H225221   3.143   5.350   3.999
 8429TIP3   OH225222   3.073   5.365   3.600
 8429TIP3    H125223   3.119   5.402   3.522
 8429TIP3    H225224   3.013   5.439   3.620
 8430TIP3   OH225225   4.231   6.081   4.196
 8430TIP3    H125226   4.263   6.010   4.137
 8430TIP3    H225227   4.202   6.027   4.273
 8431TIP3   OH225228   3.899   5.547   3.867
 8431TIP3    H125229   3.818   5.541   3.922
 8431TIP3    H225230   3.969   5.536   3.934
 8432TIP3   OH225231   3.334   5.597   3.875
 8432TIP3    H125232   3.240   5.602   3.848
 8432TIP3    H225233   3.359   5.505   3.852
 8433TIP3   OH225234   3.603   5.595   3.563
 8433TIP3    H125235   3.697   5.607   3.543
 8433TIP3    H225236   3.558   5.616   3.479
 8434TIP3   OH225237   4.390   5.621   4.071
 8434TIP3    H125238   4.353   5.630   4.162
 8434TIP3    H225239   4.328   5.557   4.032
 8435TIP3   OH225240   3.443   5.630   3.342
 8435TIP3    H125241   3.372   5.583   3.294
 8435TIP3    H225242   3.495   5.664   3.266
 8436TIP3   OH225243   4.560   7.307   4.287
 8436TIP3    H125244   4.560   7.332   4.193
 8436TIP3    H225245   4.639   7.354   4.319
 8437TIP3   OH225246   3.519   6.416   4.711
 8437TIP3    H125247   3.596   6.449   4.761
 8437TIP3    H225248   3.452   6.413   4.782
 8438TIP3   OH225249   3.983   5.872   3.965
 8438TIP3    H125250   4.053   5.829   3.914
 8438TIP3    H225251   3.989   5.826   4.051
 8439TIP3   OH225252   3.505   5.357   3.842
 8439TIP3    H125253   3.471   5.278   3.890
 8439TIP3    H225254   3.561   5.317   3.774
 8440TIP3   OH225255   3.960   5.768   4.249
 8440TIP3    H125256   3.869   5.800   4.267
 8440TIP3    H225257   4.017   5.825   4.303
 8441TIP3   OH225258   3.694   6.159   3.348
 8441TIP3    H125259   3.623   6.092   3.338
 8441TIP3    H225260   3.677   6.192   3.440
 8442TIP3   OH225261   4.595   6.395   3.978
 8442TIP3    H125262   4.621   6.442   3.896
 8442TIP3    H225263   4.512   6.350   3.952
 8443TIP3   OH225264   4.154   5.470   3.210
 8443TIP3    H125265   4.057   5.453   3.219
 8443TIP3    H225266   4.163   5.564   3.235
 8444TIP3   OH225267   4.087   6.446   4.350
 8444TIP3    H125268   4.126   6.404   4.428
 8444TIP3    H225269   4.097   6.539   4.368
 8445TIP3   OH225270   4.224   5.717   3.315
 8445TIP3    H125271   4.320   5.721   3.331
 8445TIP3    H225272   4.208   5.797   3.261
 8446TIP3   OH225273   3.388   6.180   4.025
 8446TIP3    H125274   3.426   6.151   3.939
 8446TIP3    H225275   3.427   6.116   4.086
 8447TIP3   OH225276   3.840   6.307   3.169
 8447TIP3    H125277   3.793   6.393   3.176
 8447TIP3    H225278   3.786   6.251   3.230
 8448TIP3   OH225279   3.268   6.101   4.638
 8448TIP3    H125280   3.289   6.085   4.732
 8448TIP3    H225281   3.201   6.032   4.621
 8449TIP3   OH225282   3.996   6.217   4.656
 8449TIP3    H125283   3.934   6.157   4.611
 8449TIP3    H225284   4.082   6.177   4.631
 8450TIP3   OH225285   4.232   6.716   4.271
 8450TIP3    H125286   4.205   6.773   4.198
 8450TIP3    H225287   4.285   6.777   4.326
 8451TIP3   OH225288   4.668   5.807   3.150
 8451TIP3    H125289   4.605   5.762   3.089
 8451TIP3    H225290   4.664   5.897   3.110
 8452TIP3   OH225291   4.881   6.665   4.230
 8452TIP3    H125292   4.783   6.657   4.222
 8452TIP3    H225293   4.908   6.634   4.140
 8453TIP3   OH225294   4.363   6.626   3.058
 8453TIP3    H125295   4.343   6.554   3.120
 8453TIP3    H225296   4.378   6.578   2.974
 8454TIP3   OH225297   4.360   6.256   3.898
 8454TIP3    H125298   4.268   6.227   3.910
 8454TIP3    H225299   4.397   6.177   3.854
 8455TIP3   OH225300   3.489   6.484   3.653
 8455TIP3    H125301   3.488   6.564   3.597
 8455TIP3    H225302   3.395   6.464   3.659
 8456TIP3   OH225303   3.052   5.787   3.352
 8456TIP3    H125304   3.098   5.871   3.373
 8456TIP3    H225305   2.975   5.792   3.414
 8457TIP3   OH225306   3.628   6.249   3.594
 8457TIP3    H125307   3.593   6.338   3.614
 8457TIP3    H225308   3.592   6.197   3.668
 8458TIP3   OH225309   3.753   6.839   4.115
 8458TIP3    H125310   3.782   6.913   4.057
 8458TIP3    H225311   3.837   6.797   4.135
 8459TIP3   OH225312   3.408   6.722   3.502
 8459TIP3    H125313   3.323   6.730   3.548
 8459TIP3    H225314   3.440   6.815   3.504
 8460TIP3   OH225315   4.152   6.466   4.077
 8460TIP3    H125316   4.143   6.446   4.172
 8460TIP3    H225317   4.224   6.406   4.051
 8461TIP3   OH225318   4.121   6.355   2.960
 8461TIP3    H125319   4.175   6.330   3.039
 8461TIP3    H225320   4.034   6.325   2.989
 8462TIP3   OH225321   4.389   6.993   4.125
 8462TIP3    H125322   4.304   6.954   4.096
 8462TIP3    H225323   4.394   7.067   4.061
 8463TIP3   OH225324   4.461   6.828   2.779
 8463TIP3    H125325   4.481   6.889   2.706
 8463TIP3    H225326   4.384   6.875   2.818
 8464TIP3   OH225327   3.480   5.607   4.646
 8464TIP3    H125328   3.383   5.605   4.657
 8464TIP3    H225329   3.509   5.543   4.714
 8465TIP3   OH225330   4.281   6.291   3.179
 8465TIP3    H125331   4.271   6.223   3.249
 8465TIP3    H225332   4.378   6.286   3.164
 8466TIP3   OH225333   3.198   6.689   4.278
 8466TIP3    H125334   3.251   6.613   4.308
 8466TIP3    H225335   3.224   6.756   4.342
 8467TIP3   OH225336   3.486   6.335   2.960
 8467TIP3    H125337   3.501   6.243   2.930
 8467TIP3    H225338   3.467   6.321   3.055
 8468TIP3   OH225339   3.432   6.339   3.233
 8468TIP3    H125340   3.506   6.310   3.289
 8468TIP3    H225341   3.437   6.437   3.240
 8469TIP3   OH225342   3.167   6.032   3.434
 8469TIP3    H125343   3.102   6.077   3.492
 8469TIP3    H225344   3.183   6.102   3.368
 8470TIP3   OH225345   4.312   5.673   4.332
 8470TIP3    H125346   4.398   5.706   4.364
 8470TIP3    H225347   4.301   5.591   4.383
 8471TIP3   OH225348   4.195   5.422   3.492
 8471TIP3    H125349   4.184   5.445   3.398
 8471TIP3    H225350   4.236   5.504   3.528
 8472TIP3   OH225351   3.699   6.537   3.182
 8472TIP3    H125352   3.611   6.564   3.217
 8472TIP3    H225353   3.713   6.606   3.116
 8473TIP3   OH225354   3.885   5.601   3.595
 8473TIP3    H125355   3.951   5.672   3.578
 8473TIP3    H225356   3.891   5.593   3.693
 8474TIP3   OH225357   4.157   5.919   4.402
 8474TIP3    H125358   4.178   5.966   4.485
 8474TIP3    H225359   4.210   5.838   4.409
 8475TIP3   OH225360   4.031   5.328   3.696
 8475TIP3    H125361   4.031   5.402   3.759
 8475TIP3    H225362   4.090   5.363   3.626
 8476TIP3   OH225363   3.442   6.612   3.248
 8476TIP3    H125364   3.412   6.682   3.185
 8476TIP3    H225365   3.426   6.656   3.334
 8477TIP3   OH225366   3.542   5.326   3.485
 8477TIP3    H125367   3.541   5.415   3.524
 8477TIP3    H225368   3.638   5.306   3.494
 8478TIP3   OH225369   4.796   5.822   4.380
 8478TIP3    H125370   4.698   5.819   4.388
 8478TIP3    H225371   4.807   5.772   4.298
 8479TIP3   OH225372   4.447   6.017   3.773
 8479TIP3    H125373   4.372   5.954   3.782
 8479TIP3    H225374   4.519   5.969   3.819
 8480TIP3   OH225375   3.159   6.243   3.240
 8480TIP3    H125376   3.226   6.312   3.250
 8480TIP3    H225377   3.204   6.187   3.173
 8481TIP3   OH225378   3.104   5.518   3.375
 8481TIP3    H125379   3.103   5.616   3.370
 8481TIP3    H225380   3.022   5.494   3.330
 8482TIP3   OH225381   4.414   6.970   3.722
 8482TIP3    H125382   4.372   7.017   3.646
 8482TIP3    H225383   4.508   6.989   3.701
 8483TIP3   OH225384   3.489   5.240   4.248
 8483TIP3    H125385   3.460   5.202   4.163
 8483TIP3    H225386   3.484   5.163   4.308
 8484TIP3   OH225387   3.032   6.457   3.628
 8484TIP3    H125388   2.960   6.487   3.685
 8484TIP3    H225389   3.006   6.497   3.542
 8485TIP3   OH225390   3.186   6.997   4.698
 8485TIP3    H125391   3.272   6.996   4.746
 8485TIP3    H225392   3.165   6.902   4.698
 8486TIP3   OH225393   3.665   6.970   4.746
 8486TIP3    H125394   3.758   6.944   4.757
 8486TIP3    H225395   3.637   6.909   4.674
 8487TIP3   OH225396   3.651   6.538   2.874
 8487TIP3    H125397   3.594   6.466   2.911
 8487TIP3    H225398   3.726   6.486   2.840
 8488TIP3   OH225399   4.302   6.872   4.485
 8488TIP3    H125400   4.315   6.798   4.548
 8488TIP3    H225401   4.383   6.926   4.501
 8489TIP3   OH225402   4.087   6.579   2.784
 8489TIP3    H125403   4.130   6.514   2.843
 8489TIP3    H225404   4.144   6.576   2.705
 8490TIP3   OH225405   3.318   6.403   4.900
 8490TIP3    H125406   3.334   6.307   4.906
 8490TIP3    H225407   3.230   6.406   4.855
 8491TIP3   OH225408   3.294   6.056   3.094
 8491TIP3    H125409   3.349   6.021   3.166
 8491TIP3    H225410   3.361   6.060   3.022
 8492TIP3   OH225411   3.925   6.483   4.651
 8492TIP3    H125412   3.863   6.449   4.585
 8492TIP3    H225413   3.976   6.400   4.667
 8493TIP3   OH225414   3.803   6.253   2.900
 8493TIP3    H125415   3.807   6.265   2.997
 8493TIP3    H225416   3.805   6.155   2.894
 8494TIP3   OH225417   4.419   6.496   4.282
 8494TIP3    H125418   4.496   6.534   4.234
 8494TIP3    H225419   4.350   6.561   4.265
 8495TIP3   OH225420   3.438   6.139   4.881
 8495TIP3    H125421   3.509   6.078   4.861
 8495TIP3    H225422   3.464   6.171   4.970
 8496TIP3   OH225423   3.504   5.958   3.316
 8496TIP3    H125424   3.478   5.915   3.399
 8496TIP3    H225425   3.540   5.883   3.264
 8497TIP3   OH225426   3.773   6.027   4.547
 8497TIP3    H125427   3.693   6.083   4.545
 8497TIP3    H225428   3.822   6.059   4.468
 8498TIP3   OH225429   3.603   5.753   3.156
 8498TIP3    H125430   3.578   5.755   3.061
 8498TIP3    H225431   3.701   5.756   3.149
 8499TIP3   OH225432   4.291   6.427   4.674
 8499TIP3    H125433   4.373   6.399   4.629
 8499TIP3    H225434   4.286   6.361   4.745
 8500TIP3   OH225435   4.424   6.084   2.819
 8500TIP3    H125436   4.404   6.037   2.736
 8500TIP3    H225437   4.391   6.174   2.794
 8501TIP3   OH225438   3.893   5.810   4.671
 8501TIP3    H125439   3.895   5.730   4.616
 8501TIP3    H225440   3.850   5.875   4.612
 8502TIP3   OH225441   3.897   5.601   4.478
 8502TIP3    H125442   3.926   5.635   4.392
 8502TIP3    H225443   3.804   5.575   4.460
 8503TIP3   OH225444   3.927   6.135   4.353
 8503TIP3    H125445   4.008   6.135   4.302
 8503TIP3    H225446   3.872   6.201   4.305
 8504TIP3   OH225447   4.509   6.100   4.732
 8504TIP3    H125448   4.550   6.013   4.746
 8504TIP3    H225449   4.583   6.150   4.695
 8505TIP3   OH225450   4.548   6.355   4.472
 8505TIP3    H125451   4.493   6.407   4.409
 8505TIP3    H225452   4.637   6.371   4.432
 8506TIP3   OH225453   3.770   5.925   4.899
 8506TIP3    H125454   3.703   5.855   4.914
 8506TIP3    H225455   3.807   5.898   4.813
 8507TIP3   OH225456   4.031   5.362   4.543
 8507TIP3    H125457   3.979   5.442   4.522
 8507TIP3    H225458   3.964   5.292   4.532
 8508TIP3   OH225459   4.153   5.870   4.761
 8508TIP3    H125460   4.145   5.852   4.856
 8508TIP3    H225461   4.064   5.841   4.732
 8509TIP3   OH225462   4.396   5.823   4.617
 8509TIP3    H125463   4.321   5.814   4.679
 8509TIP3    H225464   4.470   5.787   4.670
 8510TIP3   OH225465   4.614   5.752   4.766
 8510TIP3    H125466   4.635   5.657   4.783
 8510TIP3    H225467   4.620   5.791   4.856
 8511TIP3   OH225468   3.614   5.705   4.954
 8511TIP3    H125469   3.617   5.613   4.918
 8511TIP3    H225470   3.651   5.690   5.043
 8512TIP3   OH225471   4.125   5.372   4.801
 8512TIP3    H125472   4.192   5.301   4.797
 8512TIP3    H225473   4.085   5.364   4.712
 8513TIP3   OH225474   4.191   5.586   4.960
 8513TIP3    H125475   4.170   5.514   4.896
 8513TIP3    H225476   4.112   5.643   4.953
 8514TIP3   OH225477   3.411   6.815   3.061
 8514TIP3    H125478   3.506   6.811   3.041
 8514TIP3    H225479   3.381   6.864   2.982
 8515TIP3   OH225480   2.891   6.196   3.277
 8515TIP3    H125481   2.985   6.218   3.263
 8515TIP3    H225482   2.885   6.107   3.237
 8516TIP3   OH225483   2.805   6.809   3.690
 8516TIP3    H125484   2.738   6.747   3.654
 8516TIP3    H225485   2.850   6.752   3.756
 8517TIP3   OH225486   2.941   6.661   3.878
 8517TIP3    H125487   2.930   6.586   3.939
 8517TIP3    H225488   2.992   6.722   3.934
 8518TIP3   OH225489   4.665   7.065   3.679
 8518TIP3    H125490   4.697   7.096   3.765
 8518TIP3    H225491   4.733   7.098   3.618
 8519TIP3   OH225492   4.698   7.082   3.962
 8519TIP3    H125493   4.658   6.993   3.953
 8519TIP3    H225494   4.774   7.059   4.017
 8520TIP3   OH225495   4.739   6.759   4.530
 8520TIP3    H125496   4.670   6.767   4.599
 8520TIP3    H225497   4.785   6.845   4.537
 8521TIP3   OH225498   4.558   6.273   3.150
 8521TIP3    H125499   4.628   6.335   3.121
 8521TIP3    H225500   4.599   6.236   3.232
 8522TIP3   OH225501   4.680   6.151   3.359
 8522TIP3    H125502   4.620   6.101   3.419
 8522TIP3    H225503   4.753   6.178   3.420
 8523TIP3   OH225504   4.740   6.528   3.786
 8523TIP3    H125505   4.795   6.461   3.740
 8523TIP3    H225506   4.738   6.601   3.721
 8524TIP3   OH225507   4.577   6.831   3.981
 8524TIP3    H125508   4.504   6.872   4.031
 8524TIP3    H225509   4.529   6.782   3.911
 8525TIP3   OH225510   4.624   6.046   3.004
 8525TIP3    H125511   4.553   6.048   2.936
 8525TIP3    H225512   4.598   6.123   3.058
 8526TIP3   OH225513   4.495   5.720   2.958
 8526TIP3    H125514   4.455   5.754   2.877
 8526TIP3    H225515   4.472   5.625   2.951
 8527TIP3   OH225516   4.500   5.994   3.502
 8527TIP3    H125517   4.513   5.898   3.495
 8527TIP3    H225518   4.488   6.006   3.599
 8528TIP3   OH225519   3.128   6.069   4.249
 8528TIP3    H125520   3.127   6.037   4.156
 8528TIP3    H225521   3.225   6.070   4.266
 8529TIP3   OH225522   4.790   6.419   4.359
 8529TIP3    H125523   4.861   6.351   4.353
 8529TIP3    H225524   4.823   6.487   4.297
 8530TIP3   OH225525   4.975   6.225   4.380
 8530TIP3    H125526   4.901   6.171   4.416
 8530TIP3    H225527   5.049   6.162   4.391
 8531TIP3   OH225528   4.440   5.454   2.943
 8531TIP3    H125529   4.517   5.424   2.995
 8531TIP3    H225530   4.370   5.392   2.968
 8532TIP3   OH225531   4.498   5.710   3.396
 8532TIP3    H125532   4.538   5.621   3.412
 8532TIP3    H225533   4.560   5.743   3.328
 8533TIP3   OH225534   4.659   5.887   3.891
 8533TIP3    H125535   4.746   5.912   3.850
 8533TIP3    H225536   4.675   5.920   3.981
 8534TIP3   OH225537   4.730   6.028   4.124
 8534TIP3    H125538   4.651   6.062   4.172
 8534TIP3    H225539   4.763   6.108   4.079
 8535TIP3   OH225540   3.347   5.757   4.929
 8535TIP3    H125541   3.445   5.748   4.926
 8535TIP3    H225542   3.323   5.670   4.965
 8536TIP3   OH225543   5.218   5.644   4.672
 8536TIP3    H125544   5.249   5.561   4.631
 8536TIP3    H225545   5.164   5.684   4.601
 8537TIP3   OH225546   4.605   5.461   3.436
 8537TIP3    H125547   4.656   5.444   3.519
 8537TIP3    H225548   4.546   5.383   3.435
 8538TIP3   OH225549   3.305   5.447   4.256
 8538TIP3    H125550   3.365   5.371   4.266
 8538TIP3    H225551   3.370   5.520   4.249
 8539TIP3   OH225552   3.109   5.722   4.326
 8539TIP3    H125553   3.159   5.712   4.242
 8539TIP3    H225554   3.143   5.805   4.359
 8540TIP3   OH225555   5.051   5.757   4.484
 8540TIP3    H125556   4.966   5.796   4.512
 8540TIP3    H225557   5.019   5.685   4.426
 8541TIP3   OH225558   4.686   5.396   3.065
 8541TIP3    H125559   4.729   5.324   3.016
 8541TIP3    H225560   4.755   5.466   3.064
 8542TIP3   OH225561   3.093   5.225   3.830
 8542TIP3    H125562   2.999   5.221   3.855
 8542TIP3    H225563   3.091   5.283   3.750
 8543TIP3   OH225564   4.253   6.927   3.335
 8543TIP3    H125565   4.302   6.911   3.252
 8543TIP3    H225566   4.310   6.993   3.378
 8544TIP3   OH225567   3.315   5.315   4.649
 8544TIP3    H125568   3.261   5.297   4.727
 8544TIP3    H225569   3.247   5.339   4.583
 8545TIP3   OH225570   3.356   6.729   4.723
 8545TIP3    H125571   3.265   6.703   4.700
 8545TIP3    H225572   3.359   6.710   4.817
 8546TIP3   OH225573   3.534   6.760   4.269
 8546TIP3    H125574   3.479   6.833   4.234
 8546TIP3    H225575   3.616   6.780   4.220
 8547TIP3   OH225576   4.145   7.157   4.264
 8547TIP3    H125577   4.220   7.112   4.223
 8547TIP3    H225578   4.192   7.213   4.330
 8548TIP3   OH225579   4.953   5.525   4.359
 8548TIP3    H125580   4.859   5.514   4.337
 8548TIP3    H225581   4.983   5.431   4.353
 8549TIP3   OH225582   3.210   7.022   4.289
 8549TIP3    H125583   3.120   7.054   4.266
 8549TIP3    H225584   3.217   7.055   4.379
 8550TIP3   OH225585   3.446   7.000   4.148
 8550TIP3    H125586   3.360   7.012   4.194
 8550TIP3    H225587   3.425   7.032   4.059
 8551TIP3   OH225588   3.870   7.026   3.947
 8551TIP3    H125589   3.802   7.045   3.879
 8551TIP3    H225590   3.882   7.115   3.986
 8552TIP3   OH225591   4.139   6.959   4.006
 8552TIP3    H125592   4.046   6.980   3.982
 8552TIP3    H225593   4.185   7.032   3.959
 8553TIP3   OH225594   4.345   7.157   3.914
 8553TIP3    H125595   4.329   7.242   3.868
 8553TIP3    H225596   4.372   7.099   3.840
 8554TIP3   OH225597   3.119   6.814   4.036
 8554TIP3    H125598   3.146   6.788   4.127
 8554TIP3    H225599   3.190   6.769   3.985
 8555TIP3   OH225600   3.312   6.685   3.893
 8555TIP3    H125601   3.328   6.600   3.941
 8555TIP3    H225602   3.403   6.720   3.885
 8556TIP3   OH225603   3.578   6.780   3.890
 8556TIP3    H125604   3.610   6.689   3.877
 8556TIP3    H225605   3.614   6.798   3.979
 8557TIP3   OH225606   4.149   5.434   3.978
 8557TIP3    H125607   4.110   5.365   4.034
 8557TIP3    H225608   4.226   5.387   3.939
 8558TIP3   OH225609   4.678   5.319   3.889
 8558TIP3    H125610   4.714   5.369   3.812
 8558TIP3    H225611   4.583   5.334   3.881
 8559TIP3   OH225612   4.772   5.415   3.652
 8559TIP3    H125613   4.844   5.362   3.611
 8559TIP3    H225614   4.808   5.505   3.636
 8560TIP3   OH225615   3.404   5.145   3.998
 8560TIP3    H125616   3.312   5.110   4.003
 8560TIP3    H225617   3.454   5.061   3.996
 8561TIP3   OH225618   3.184   5.015   3.645
 8561TIP3    H125619   3.219   5.072   3.574
 8561TIP3    H225620   3.162   5.081   3.714
 8562TIP3   OH225621   3.844   5.182   3.880
 8562TIP3    H125622   3.905   5.228   3.821
 8562TIP3    H225623   3.872   5.212   3.968
 8563TIP3   OH225624   4.394   5.325   3.864
 8563TIP3    H125625   4.394   5.285   3.776
 8563TIP3    H225626   4.381   5.245   3.921
 8564TIP3   OH225627   4.424   5.246   3.426
 8564TIP3    H125628   4.336   5.286   3.437
 8564TIP3    H225629   4.410   5.160   3.473
 8565TIP3   OH225630   2.907   6.585   3.427
 8565TIP3    H125631   2.822   6.552   3.393
 8565TIP3    H225632   2.896   6.680   3.409
 8566TIP3   OH225633   3.307   5.175   3.409
 8566TIP3    H125634   3.355   5.111   3.354
 8566TIP3    H225635   3.381   5.229   3.446
 8567TIP3   OH225636   3.820   5.350   3.509
 8567TIP3    H125637   3.878   5.301   3.569
 8567TIP3    H225638   3.843   5.442   3.535
 8568TIP3   OH225639   3.679   6.775   3.009
 8568TIP3    H125640   3.767   6.797   2.972
 8568TIP3    H225641   3.657   6.700   2.949
 8569TIP3   OH225642   4.396   6.891   3.102
 8569TIP3    H125643   4.389   6.793   3.090
 8569TIP3    H225644   4.350   6.922   3.021
 8570TIP3   OH225645   3.611   5.433   4.896
 8570TIP3    H125646   3.577   5.356   4.946
 8570TIP3    H225647   3.706   5.429   4.919
 8571TIP3   OH225648   3.862   5.426   5.010
 8571TIP3    H125649   3.945   5.397   4.968
 8571TIP3    H225650   3.849   5.355   5.076
 8572TIP3   OH225651   2.984   6.612   3.065
 8572TIP3    H125652   2.984   6.637   3.159
 8572TIP3    H225653   3.072   6.570   3.054
 8573TIP3   OH225654   4.686   5.486   4.801
 8573TIP3    H125655   4.706   5.456   4.892
 8573TIP3    H225656   4.775   5.479   4.759
 8574TIP3   OH225657   4.623   7.038   4.290
 8574TIP3    H125658   4.546   7.008   4.238
 8574TIP3    H225659   4.606   7.135   4.293
 8575TIP3   OH225660   5.891   6.412   3.057
 8575TIP3    H125661   5.860   6.502   3.032
 8575TIP3    H225662   5.817   6.359   3.024
 8576TIP3   OH225663   5.892   6.415   3.441
 8576TIP3    H125664   5.920   6.370   3.522
 8576TIP3    H225665   5.848   6.342   3.394
 8577TIP3   OH225666   5.187   6.305   3.803
 8577TIP3    H125667   5.218   6.236   3.864
 8577TIP3    H225668   5.268   6.357   3.792
 8578TIP3   OH225669   6.132   6.711   3.116
 8578TIP3    H125670   6.119   6.638   3.178
 8578TIP3    H225671   6.165   6.782   3.174
 8579TIP3   OH225672   5.159   6.713   3.530
 8579TIP3    H125673   5.152   6.615   3.529
 8579TIP3    H225674   5.256   6.723   3.526
 8580TIP3   OH225675   4.852   5.928   3.335
 8580TIP3    H125676   4.798   6.008   3.325
 8580TIP3    H225677   4.803   5.863   3.283
 8581TIP3   OH225678   4.932   6.204   3.482
 8581TIP3    H125679   4.969   6.121   3.520
 8581TIP3    H225680   4.987   6.212   3.403
 8582TIP3   OH225681   5.777   7.174   3.129
 8582TIP3    H125682   5.831   7.106   3.084
 8582TIP3    H225683   5.768   7.136   3.217
 8583TIP3   OH225684   5.686   6.637   3.483
 8583TIP3    H125685   5.708   6.555   3.437
 8583TIP3    H225686   5.775   6.674   3.495
 8584TIP3   OH225687   6.703   5.955   3.483
 8584TIP3    H125688   6.731   6.039   3.525
 8584TIP3    H225689   6.722   5.974   3.389
 8585TIP3   OH225690   6.105   6.141   3.517
 8585TIP3    H125691   6.142   6.053   3.538
 8585TIP3    H225692   6.069   6.124   3.428
 8586TIP3   OH225693   5.440   5.801   3.474
 8586TIP3    H125694   5.386   5.867   3.424
 8586TIP3    H225695   5.409   5.718   3.432
 8587TIP3   OH225696   6.133   5.888   3.106
 8587TIP3    H125697   6.206   5.870   3.170
 8587TIP3    H225698   6.184   5.922   3.031
 8588TIP3   OH225699   5.065   5.986   3.585
 8588TIP3    H125700   5.155   5.973   3.619
 8588TIP3    H225701   5.081   5.965   3.491
 8589TIP3   OH225702   5.514   6.204   3.386
 8589TIP3    H125703   5.599   6.157   3.394
 8589TIP3    H225704   5.451   6.130   3.368
 8590TIP3   OH225705   6.776   6.163   3.652
 8590TIP3    H125706   6.692   6.209   3.632
 8590TIP3    H225707   6.787   6.186   3.746
 8591TIP3   OH225708   5.436   5.779   3.917
 8591TIP3    H125709   5.377   5.814   3.848
 8591TIP3    H225710   5.382   5.797   3.997
 8592TIP3   OH225711   5.786   6.631   2.924
 8592TIP3    H125712   5.738   6.605   2.844
 8592TIP3    H225713   5.741   6.716   2.944
 8593TIP3   OH225714   5.545   6.557   3.712
 8593TIP3    H125715   5.477   6.616   3.753
 8593TIP3    H225716   5.573   6.609   3.635
 8594TIP3   OH225717   6.346   5.888   3.275
 8594TIP3    H125718   6.328   5.840   3.357
 8594TIP3    H225719   6.396   5.965   3.306
 8595TIP3   OH225720   5.309   5.891   3.700
 8595TIP3    H125721   5.370   5.965   3.720
 8595TIP3    H225722   5.353   5.855   3.620
 8596TIP3   OH225723   5.366   6.745   3.808
 8596TIP3    H125724   5.338   6.831   3.771
 8596TIP3    H225725   5.289   6.727   3.866
 8597TIP3   OH225726   4.763   6.438   3.046
 8597TIP3    H125727   4.724   6.467   2.963
 8597TIP3    H225728   4.794   6.523   3.084
 8598TIP3   OH225729   6.211   6.954   3.285
 8598TIP3    H125730   6.121   6.947   3.326
 8598TIP3    H225731   6.202   7.038   3.236
 8599TIP3   OH225732   6.494   5.855   3.650
 8599TIP3    H125733   6.405   5.881   3.620
 8599TIP3    H225734   6.551   5.888   3.577
 8600TIP3   OH225735   5.798   5.505   3.640
 8600TIP3    H125736   5.775   5.410   3.640
 8600TIP3    H225737   5.717   5.542   3.680
 8601TIP3   OH225738   5.913   7.003   2.969
 8601TIP3    H125739   5.958   6.918   2.944
 8601TIP3    H225740   5.972   7.066   2.922
 8602TIP3   OH225741   6.047   6.787   2.865
 8602TIP3    H125742   6.008   6.708   2.825
 8602TIP3    H225743   6.083   6.751   2.949
 8603TIP3   OH225744   6.421   6.869   3.628
 8603TIP3    H125745   6.419   6.791   3.568
 8603TIP3    H225746   6.414   6.943   3.565
 8604TIP3   OH225747   5.723   6.264   2.887
 8604TIP3    H125748   5.640   6.311   2.867
 8604TIP3    H225749   5.764   6.257   2.799
 8605TIP3   OH225750   5.680   6.048   2.600
 8605TIP3    H125751   5.748   6.096   2.650
 8605TIP3    H225752   5.735   5.981   2.555
 8606TIP3   OH225753   6.624   6.505   3.474
 8606TIP3    H125754   6.541   6.557   3.479
 8606TIP3    H225755   6.654   6.528   3.383
 8607TIP3   OH225756   6.069   6.346   2.859
 8607TIP3    H125757   6.013   6.368   2.937
 8607TIP3    H225758   6.152   6.318   2.903
 8608TIP3   OH225759   6.306   6.383   3.768
 8608TIP3    H125760   6.301   6.462   3.825
 8608TIP3    H225761   6.218   6.383   3.726
 8609TIP3   OH225762   5.303   6.349   3.269
 8609TIP3    H125763   5.256   6.290   3.207
 8609TIP3    H225764   5.368   6.286   3.306
 8610TIP3   OH225765   5.432   6.758   3.417
 8610TIP3    H125766   5.403   6.706   3.341
 8610TIP3    H225767   5.519   6.718   3.436
 8611TIP3   OH225768   5.444   6.308   3.635
 8611TIP3    H125769   5.465   6.285   3.542
 8611TIP3    H225770   5.481   6.398   3.644
 8612TIP3   OH225771   5.970   6.951   3.408
 8612TIP3    H125772   5.929   7.028   3.449
 8612TIP3    H225773   5.952   6.878   3.470
 8613TIP3   OH225774   5.579   6.855   3.949
 8613TIP3    H125775   5.527   6.924   3.995
 8613TIP3    H225776   5.506   6.808   3.903
 8614TIP3   OH225777   5.911   6.200   2.684
 8614TIP3    H125778   5.969   6.261   2.736
 8614TIP3    H225779   5.937   6.224   2.592
 8615TIP3   OH225780   5.331   6.430   4.052
 8615TIP3    H125781   5.334   6.514   4.102
 8615TIP3    H225782   5.237   6.407   4.062
 8616TIP3   OH225783   5.658   6.876   2.953
 8616TIP3    H125784   5.725   6.940   2.979
 8616TIP3    H225785   5.578   6.928   2.937
 8617TIP3   OH225786   5.372   7.038   4.040
 8617TIP3    H125787   5.334   7.033   3.950
 8617TIP3    H225788   5.293   7.017   4.095
 8618TIP3   OH225789   6.425   5.442   2.734
 8618TIP3    H125790   6.343   5.461   2.783
 8618TIP3    H225791   6.438   5.526   2.684
 8619TIP3   OH225792   5.182   6.194   3.064
 8619TIP3    H125793   5.093   6.203   3.025
 8619TIP3    H225794   5.173   6.117   3.124
 8620TIP3   OH225795   6.223   6.809   2.280
 8620TIP3    H125796   6.232   6.906   2.266
 8620TIP3    H225797   6.316   6.780   2.268
 8621TIP3   OH225798   4.948   6.568   3.986
 8621TIP3    H125799   4.886   6.542   3.916
 8621TIP3    H225800   4.987   6.482   4.013
 8622TIP3   OH225801   4.803   6.759   3.622
 8622TIP3    H125802   4.897   6.749   3.606
 8622TIP3    H225803   4.800   6.840   3.676
 8623TIP3   OH225804   6.669   7.209   3.674
 8623TIP3    H125805   6.668   7.113   3.690
 8623TIP3    H225806   6.586   7.236   3.719
 8624TIP3   OH225807   5.753   7.040   2.391
 8624TIP3    H125808   5.807   6.964   2.360
 8624TIP3    H225809   5.776   7.043   2.486
 8625TIP3   OH225810   5.779   7.078   2.671
 8625TIP3    H125811   5.687   7.061   2.696
 8625TIP3    H225812   5.829   7.033   2.741
 8626TIP3   OH225813   6.557   6.343   3.948
 8626TIP3    H125814   6.474   6.353   3.900
 8626TIP3    H225815   6.572   6.246   3.940
 8627TIP3   OH225816   5.154   6.751   3.978
 8627TIP3    H125817   5.204   6.733   4.060
 8627TIP3    H225818   5.080   6.687   3.985
 8628TIP3   OH225819   5.554   5.575   3.758
 8628TIP3    H125820   5.465   5.544   3.731
 8628TIP3    H225821   5.527   5.657   3.804
 8629TIP3   OH225822   6.085   5.690   3.954
 8629TIP3    H125823   6.151   5.664   4.021
 8629TIP3    H225824   6.000   5.671   3.999
 8630TIP3   OH225825   6.330   6.121   3.877
 8630TIP3    H125826   6.277   6.114   3.960
 8630TIP3    H225827   6.298   6.205   3.839
 8631TIP3   OH225828   5.986   6.250   2.429
 8631TIP3    H125829   5.952   6.222   2.342
 8631TIP3    H225830   6.067   6.298   2.402
 8632TIP3   OH225831   5.701   5.623   2.728
 8632TIP3    H125832   5.668   5.621   2.820
 8632TIP3    H225833   5.660   5.540   2.695
 8633TIP3   OH225834   5.489   6.087   3.783
 8633TIP3    H125835   5.433   6.107   3.861
 8633TIP3    H225836   5.471   6.166   3.727
 8634TIP3   OH225837   5.864   6.069   3.023
 8634TIP3    H125838   5.807   6.136   2.979
 8634TIP3    H225839   5.913   6.032   2.947
 8635TIP3   OH225840   6.032   6.342   4.108
 8635TIP3    H125841   6.005   6.273   4.172
 8635TIP3    H225842   6.125   6.354   4.132
 8636TIP3   OH225843   6.020   6.094   3.257
 8636TIP3    H125844   5.956   6.119   3.186
 8636TIP3    H225845   6.052   6.010   3.217
 8637TIP3   OH225846   5.304   6.119   3.987
 8637TIP3    H125847   5.333   6.178   4.058
 8637TIP3    H225848   5.291   6.035   4.035
 8638TIP3   OH225849   5.354   5.597   2.697
 8638TIP3    H125850   5.348   5.593   2.794
 8638TIP3    H225851   5.274   5.649   2.675
 8639TIP3   OH225852   4.899   5.636   3.571
 8639TIP3    H125853   4.970   5.677   3.624
 8639TIP3    H225854   4.941   5.625   3.485
 8640TIP3   OH225855   4.868   5.619   3.083
 8640TIP3    H125856   4.920   5.657   3.009
 8640TIP3    H225857   4.812   5.696   3.105
 8641TIP3   OH225858   6.034   6.341   3.684
 8641TIP3    H125859   6.064   6.268   3.625
 8641TIP3    H225860   6.001   6.288   3.760
 8642TIP3   OH225861   5.695   5.799   3.356
 8642TIP3    H125862   5.605   5.802   3.394
 8642TIP3    H225863   5.749   5.799   3.436
 8643TIP3   OH225864   5.417   5.820   3.015
 8643TIP3    H125865   5.491   5.877   3.040
 8643TIP3    H225866   5.349   5.881   2.982
 8644TIP3   OH225867   6.186   5.873   3.554
 8644TIP3    H125868   6.154   5.886   3.646
 8644TIP3    H225869   6.119   5.811   3.520
 8645TIP3   OH225870   5.217   5.902   2.825
 8645TIP3    H125871   5.155   5.847   2.774
 8645TIP3    H225872   5.283   5.923   2.756
 8646TIP3   OH225873   6.357   7.562   3.772
 8646TIP3    H125874   6.358   7.589   3.679
 8646TIP3    H225875   6.436   7.608   3.807
 8647TIP3   OH225876   5.315   6.677   4.197
 8647TIP3    H125877   5.396   6.703   4.247
 8647TIP3    H225878   5.251   6.671   4.271
 8648TIP3   OH225879   5.784   6.130   3.458
 8648TIP3    H125880   5.846   6.078   3.405
 8648TIP3    H225881   5.784   6.082   3.543
 8649TIP3   OH225882   5.354   5.585   3.337
 8649TIP3    H125883   5.286   5.525   3.374
 8649TIP3    H225884   5.332   5.587   3.243
 8650TIP3   OH225885   5.756   6.026   3.735
 8650TIP3    H125886   5.664   6.055   3.753
 8650TIP3    H225887   5.810   6.084   3.791
 8651TIP3   OH225888   5.491   6.416   2.835
 8651TIP3    H125889   5.421   6.347   2.826
 8651TIP3    H225890   5.474   6.447   2.928
 8652TIP3   OH225891   6.390   6.651   3.466
 8652TIP3    H125892   6.417   6.699   3.384
 8652TIP3    H225893   6.308   6.606   3.437
 8653TIP3   OH225894   5.949   5.728   2.693
 8653TIP3    H125895   5.853   5.707   2.705
 8653TIP3    H225896   5.956   5.821   2.723
 8654TIP3   OH225897   5.900   6.796   3.862
 8654TIP3    H125898   5.934   6.722   3.915
 8654TIP3    H225899   5.804   6.785   3.873
 8655TIP3   OH225900   6.019   5.973   2.803
 8655TIP3    H125901   6.115   5.979   2.818
 8655TIP3    H225902   6.000   6.053   2.750
 8656TIP3   OH225903   5.194   6.441   3.511
 8656TIP3    H125904   5.223   6.407   3.424
 8656TIP3    H225905   5.211   6.365   3.568
 8657TIP3   OH225906   5.629   6.572   2.657
 8657TIP3    H125907   5.579   6.656   2.666
 8657TIP3    H225908   5.578   6.513   2.717
 8658TIP3   OH225909   5.064   6.360   4.126
 8658TIP3    H125910   5.091   6.344   4.219
 8658TIP3    H225911   4.999   6.289   4.112
 8659TIP3   OH225912   5.787   6.482   4.133
 8659TIP3    H125913   5.727   6.414   4.099
 8659TIP3    H225914   5.873   6.439   4.122
 8660TIP3   OH225915   6.463   6.063   2.636
 8660TIP3    H125916   6.401   6.018   2.575
 8660TIP3    H225917   6.459   6.152   2.597
 8661TIP3   OH225918   6.676   6.920   3.718
 8661TIP3    H125919   6.578   6.915   3.711
 8661TIP3    H225920   6.702   6.891   3.628
 8662TIP3   OH225921   6.164   6.882   2.546
 8662TIP3    H125922   6.136   6.812   2.607
 8662TIP3    H225923   6.174   6.835   2.461
 8663TIP3   OH225924   6.155   6.511   3.387
 8663TIP3    H125925   6.063   6.480   3.398
 8663TIP3    H225926   6.194   6.434   3.341
 8664TIP3   OH225927   5.287   6.733   3.143
 8664TIP3    H125928   5.282   6.827   3.119
 8664TIP3    H225929   5.194   6.712   3.157
 8665TIP3   OH225930   4.844   6.042   2.837
 8665TIP3    H125931   4.893   6.124   2.860
 8665TIP3    H225932   4.770   6.047   2.902
 8666TIP3   OH225933   5.433   6.506   3.083
 8666TIP3    H125934   5.389   6.591   3.101
 8666TIP3    H225935   5.394   6.448   3.151
 8667TIP3   OH225936   5.547   7.089   3.605
 8667TIP3    H125937   5.588   7.157   3.548
 8667TIP3    H225938   5.612   7.081   3.676
 8668TIP3   OH225939   5.191   6.991   3.076
 8668TIP3    H125940   5.139   6.923   3.030
 8668TIP3    H225941   5.245   7.024   3.002
 8669TIP3   OH225942   5.970   6.729   3.578
 8669TIP3    H125943   5.940   6.700   3.666
 8669TIP3    H225944   6.016   6.652   3.542
 8670TIP3   OH225945   5.918   6.610   2.446
 8670TIP3    H125946   5.969   6.585   2.526
 8670TIP3    H225947   5.829   6.583   2.473
 8671TIP3   OH225948   6.178   7.242   3.609
 8671TIP3    H125949   6.091   7.214   3.574
 8671TIP3    H225950   6.195   7.318   3.549
 8672TIP3   OH225951   6.256   7.085   2.266
 8672TIP3    H125952   6.295   7.159   2.215
 8672TIP3    H225953   6.176   7.130   2.300
 8673TIP3   OH225954   5.276   5.862   4.132
 8673TIP3    H125955   5.180   5.865   4.146
 8673TIP3    H225956   5.305   5.804   4.205
 8674TIP3   OH225957   6.077   6.546   2.664
 8674TIP3    H125958   6.066   6.479   2.735
 8674TIP3    H225959   6.174   6.542   2.652
 8675TIP3   OH225960   4.990   6.947   3.768
 8675TIP3    H125961   5.042   6.868   3.789
 8675TIP3    H225962   5.024   7.009   3.834
 8676TIP3   OH225963   5.284   6.588   2.447
 8676TIP3    H125964   5.296   6.495   2.420
 8676TIP3    H225965   5.261   6.578   2.542
 8677TIP3   OH225966   5.229   6.608   2.721
 8677TIP3    H125967   5.295   6.563   2.776
 8677TIP3    H225968   5.255   6.701   2.730
 8678TIP3   OH225969   4.954   6.284   2.918
 8678TIP3    H125970   4.893   6.330   2.979
 8678TIP3    H225971   4.977   6.356   2.857
 8679TIP3   OH225972   6.115   5.926   3.813
 8679TIP3    H125973   6.192   5.962   3.860
 8679TIP3    H225974   6.096   5.844   3.865
 8680TIP3   OH225975   6.000   5.674   2.977
 8680TIP3    H125976   5.978   5.699   2.885
 8680TIP3    H225977   6.032   5.759   3.014
 8681TIP3   OH225978   5.476   6.810   2.677
 8681TIP3    H125979   5.402   6.861   2.714
 8681TIP3    H225980   5.500   6.871   2.604
 8682TIP3   OH225981   5.697   5.854   3.086
 8682TIP3    H125982   5.756   5.931   3.072
 8682TIP3    H225983   5.692   5.849   3.184
 8683TIP3   OH225984   5.953   6.179   3.887
 8683TIP3    H125985   5.969   6.232   3.968
 8683TIP3    H225986   6.003   6.098   3.905
 8684TIP3   OH225987   5.828   5.588   3.189
 8684TIP3    H125988   5.807   5.670   3.237
 8684TIP3    H225989   5.887   5.623   3.117
 8685TIP3   OH225990   5.338   5.568   2.972
 8685TIP3    H125991   5.348   5.664   2.992
 8685TIP3    H225992   5.432   5.542   2.983
 8686TIP3   OH225993   6.595   6.075   3.868
 8686TIP3    H125994   6.497   6.075   3.880
 8686TIP3    H225995   6.601   6.032   3.782
 8687TIP3   OH225996   6.244   6.273   3.260
 8687TIP3    H125997   6.167   6.213   3.268
 8687TIP3    H225998   6.314   6.223   3.306
 8688TIP3   OH225999   4.957   6.503   2.725
 8688TIP3    H126000   5.028   6.569   2.734
 8688TIP3    H226001   5.000   6.444   2.659
 8689TIP3   OH226002   4.902   5.773   2.854
 8689TIP3    H126003   4.904   5.870   2.854
 8689TIP3    H226004   4.812   5.754   2.828
 8690TIP3   OH226005   6.211   7.227   3.210
 8690TIP3    H126006   6.168   7.274   3.134
 8690TIP3    H226007   6.305   7.246   3.188
 8691TIP3   OH226008   5.289   5.496   3.734
 8691TIP3    H126009   5.256   5.464   3.647
 8691TIP3    H226010   5.276   5.417   3.790
 8692TIP3   OH226011   4.823   6.699   3.112
 8692TIP3    H126012   4.775   6.748   3.180
 8692TIP3    H226013   4.805   6.752   3.033
 8693TIP3   OH226014   4.983   7.253   4.186
 8693TIP3    H126015   5.070   7.252   4.232
 8693TIP3    H226016   4.964   7.158   4.184
 8694TIP3   OH226017   5.470   7.227   4.219
 8694TIP3    H126018   5.556   7.191   4.243
 8694TIP3    H226019   5.439   7.161   4.154
 8695TIP3   OH226020   5.443   6.790   2.354
 8695TIP3    H126021   5.385   6.722   2.396
 8695TIP3    H226022   5.519   6.735   2.328
 8696TIP3   OH226023   5.886   6.832   2.270
 8696TIP3    H126024   5.926   6.765   2.329
 8696TIP3    H226025   5.943   6.829   2.191
 8697TIP3   OH226026   5.113   6.659   4.385
 8697TIP3    H126027   5.131   6.564   4.395
 8697TIP3    H226028   5.026   6.659   4.340
 8698TIP3   OH226029   5.091   6.314   2.580
 8698TIP3    H126030   5.142   6.273   2.653
 8698TIP3    H226031   5.160   6.316   2.510
 8699TIP3   OH226032   5.729   6.752   4.159
 8699TIP3    H126033   5.670   6.762   4.082
 8699TIP3    H226034   5.753   6.657   4.154
 8700TIP3   OH226035   5.604   6.512   2.387
 8700TIP3    H126036   5.602   6.524   2.484
 8700TIP3    H226037   5.602   6.414   2.381
 8701TIP3   OH226038   6.210   6.758   3.780
 8701TIP3    H126039   6.287   6.792   3.728
 8701TIP3    H226040   6.140   6.757   3.714
 8702TIP3   OH226041   5.238   6.389   4.362
 8702TIP3    H126042   5.317   6.337   4.344
 8702TIP3    H226043   5.259   6.422   4.453
 8703TIP3   OH226044   5.303   6.217   2.802
 8703TIP3    H126045   5.267   6.186   2.888
 8703TIP3    H226046   5.332   6.134   2.760
 8704TIP3   OH226047   5.571   6.280   4.031
 8704TIP3    H126048   5.492   6.338   4.038
 8704TIP3    H226049   5.616   6.317   3.952
 8705TIP3   OH226050   5.399   6.006   2.642
 8705TIP3    H126051   5.373   6.010   2.548
 8705TIP3    H226052   5.496   6.012   2.636
 8706TIP3   OH226053   6.090   6.688   4.156
 8706TIP3    H126054   6.176   6.655   4.127
 8706TIP3    H226055   6.074   6.629   4.232
 8707TIP3   OH226056   6.223   6.340   2.305
 8707TIP3    H126057   6.201   6.293   2.222
 8707TIP3    H226058   6.190   6.430   2.281
 8708TIP3   OH226059   5.696   6.066   4.154
 8708TIP3    H126060   5.691   5.986   4.098
 8708TIP3    H226061   5.649   6.133   4.099
 8709TIP3   OH226062   5.695   5.852   3.961
 8709TIP3    H126063   5.720   5.892   3.875
 8709TIP3    H226064   5.601   5.830   3.946
 8710TIP3   OH226065   5.728   6.401   3.838
 8710TIP3    H126066   5.795   6.381   3.771
 8710TIP3    H226067   5.665   6.459   3.790
 8711TIP3   OH226068   6.304   6.353   4.215
 8711TIP3    H126069   6.352   6.270   4.231
 8711TIP3    H226070   6.375   6.409   4.182
 8712TIP3   OH226071   6.352   6.603   3.959
 8712TIP3    H126072   6.294   6.663   3.906
 8712TIP3    H226073   6.439   6.623   3.918
 8713TIP3   OH226074   5.548   6.186   4.364
 8713TIP3    H126075   5.493   6.110   4.392
 8713TIP3    H226076   5.599   6.148   4.290
 8714TIP3   OH226077   5.826   5.616   4.030
 8714TIP3    H126078   5.777   5.699   4.007
 8714TIP3    H226079   5.755   5.549   4.019
 8715TIP3   OH226080   5.956   6.119   4.244
 8715TIP3    H126081   5.940   6.130   4.340
 8715TIP3    H226082   5.865   6.093   4.216
 8716TIP3   OH226083   6.191   6.067   4.100
 8716TIP3    H126084   6.113   6.074   4.161
 8716TIP3    H226085   6.261   6.038   4.161
 8717TIP3   OH226086   6.427   6.012   4.252
 8717TIP3    H126087   6.434   5.916   4.272
 8717TIP3    H226088   6.418   6.052   4.342
 8718TIP3   OH226089   5.408   5.959   4.439
 8718TIP3    H126090   5.413   5.867   4.407
 8718TIP3    H226091   5.444   5.948   4.530
 8719TIP3   OH226092   5.924   5.628   4.286
 8719TIP3    H126093   5.988   5.554   4.279
 8719TIP3    H226094   5.880   5.622   4.199
 8720TIP3   OH226095   5.986   5.844   4.447
 8720TIP3    H126096   5.964   5.774   4.382
 8720TIP3    H226097   5.909   5.904   4.440
 8721TIP3   OH226098   4.687   6.455   2.761
 8721TIP3    H126099   4.782   6.476   2.749
 8721TIP3    H226100   4.682   6.365   2.723
 8722TIP3   OH226101   4.593   7.066   3.180
 8722TIP3    H126102   4.531   6.999   3.144
 8722TIP3    H226103   4.645   7.011   3.242
 8723TIP3   OH226104   4.734   6.921   3.366
 8723TIP3    H126105   4.725   6.843   3.422
 8723TIP3    H226106   4.789   6.978   3.424
 8724TIP3   OH226107   6.463   7.318   3.164
 8724TIP3    H126108   6.493   7.355   3.249
 8724TIP3    H226109   6.526   7.358   3.102
 8725TIP3   OH226110   6.493   7.340   3.448
 8725TIP3    H126111   6.455   7.250   3.440
 8725TIP3    H226112   6.570   7.320   3.503
 8726TIP3   OH226113   6.537   7.015   4.016
 8726TIP3    H126114   6.467   7.024   4.085
 8726TIP3    H226115   6.580   7.103   4.022
 8727TIP3   OH226116   6.356   6.526   2.639
 8727TIP3    H126117   6.425   6.590   2.610
 8727TIP3    H226118   6.399   6.487   2.719
 8728TIP3   OH226119   6.484   6.394   2.843
 8728TIP3    H126120   6.418   6.351   2.902
 8728TIP3    H226121   6.548   6.432   2.907
 8729TIP3   OH226122   6.536   6.785   3.274
 8729TIP3    H126123   6.591   6.719   3.226
 8729TIP3    H226124   6.533   6.859   3.211
 8730TIP3   OH226125   6.372   7.089   3.466
 8730TIP3    H126126   6.296   7.128   3.512
 8730TIP3    H226127   6.328   7.040   3.393
 8731TIP3   OH226128   6.423   6.302   2.489
 8731TIP3    H126129   6.351   6.304   2.421
 8731TIP3    H226130   6.394   6.377   2.545
 8732TIP3   OH226131   6.295   5.974   2.442
 8732TIP3    H126132   6.248   6.012   2.367
 8732TIP3    H226133   6.271   5.880   2.434
 8733TIP3   OH226134   6.299   6.250   2.990
 8733TIP3    H126135   6.304   6.153   2.982
 8733TIP3    H226136   6.285   6.263   3.086
 8734TIP3   OH226137   4.923   6.327   3.733
 8734TIP3    H126138   4.924   6.293   3.641
 8734TIP3    H226139   5.020   6.327   3.752
 8735TIP3   OH226140   6.589   6.676   3.844
 8735TIP3    H126141   6.661   6.609   3.837
 8735TIP3    H226142   6.622   6.746   3.785
 8736TIP3   OH226143   6.773   6.482   3.864
 8736TIP3    H126144   6.698   6.429   3.901
 8736TIP3    H226145   6.846   6.418   3.878
 8737TIP3   OH226146   6.237   5.708   2.428
 8737TIP3    H126147   6.309   5.677   2.487
 8737TIP3    H226148   6.161   5.652   2.452
 8738TIP3   OH226149   6.295   5.967   2.885
 8738TIP3    H126150   6.334   5.878   2.901
 8738TIP3    H226151   6.354   5.998   2.813
 8739TIP3   OH226152   6.456   6.140   3.378
 8739TIP3    H126153   6.542   6.167   3.339
 8739TIP3    H226154   6.469   6.176   3.468
 8740TIP3   OH226155   6.526   6.283   3.610
 8740TIP3    H126156   6.449   6.316   3.660
 8740TIP3    H226157   6.558   6.365   3.566
 8741TIP3   OH226158   5.142   6.013   4.413
 8741TIP3    H126159   5.239   6.006   4.414
 8741TIP3    H226160   5.119   5.927   4.454
 8742TIP3   OH226161   6.977   5.876   4.167
 8742TIP3    H126162   7.036   5.811   4.124
 8742TIP3    H226163   6.948   5.931   4.091
 8743TIP3   OH226164   6.404   5.717   2.921
 8743TIP3    H126165   6.450   5.700   3.006
 8743TIP3    H226166   6.341   5.641   2.919
 8744TIP3   OH226167   5.102   5.704   3.751
 8744TIP3    H126168   5.165   5.630   3.754
 8744TIP3    H226169   5.163   5.779   3.735
 8745TIP3   OH226170   4.905   5.978   3.813
 8745TIP3    H126171   4.953   5.964   3.728
 8745TIP3    H226172   4.944   6.060   3.843
 8746TIP3   OH226173   6.848   6.017   3.973
 8746TIP3    H126174   6.763   6.058   3.997
 8746TIP3    H226175   6.816   5.945   3.915
 8747TIP3   OH226176   6.486   5.651   2.555
 8747TIP3    H126177   6.524   5.579   2.501
 8747TIP3    H226178   6.553   5.722   2.547
 8748TIP3   OH226179   4.888   5.472   3.308
 8748TIP3    H126180   4.796   5.477   3.340
 8748TIP3    H226181   4.887   5.536   3.233
 8749TIP3   OH226182   6.052   7.182   2.821
 8749TIP3    H126183   6.100   7.167   2.738
 8749TIP3    H226184   6.105   7.252   2.862
 8750TIP3   OH226185   5.111   5.558   4.126
 8750TIP3    H126186   5.061   5.554   4.210
 8750TIP3    H226187   5.044   5.599   4.068
 8751TIP3   OH226188   5.150   6.994   4.207
 8751TIP3    H126189   5.060   6.959   4.193
 8751TIP3    H226190   5.169   6.966   4.297
 8752TIP3   OH226191   5.323   7.017   3.754
 8752TIP3    H126192   5.275   7.093   3.716
 8752TIP3    H226193   5.407   7.029   3.706
 8753TIP3   OH226194   5.801   7.231   3.880
 8753TIP3    H126195   5.817   7.249   3.975
 8753TIP3    H226196   5.845   7.308   3.838
 8754TIP3   OH226197   5.956   7.417   3.754
 8754TIP3    H126198   6.028   7.383   3.698
 8754TIP3    H226199   6.008   7.473   3.816
 8755TIP3   OH226200   6.745   5.786   3.851
 8755TIP3    H126201   6.653   5.778   3.818
 8755TIP3    H226202   6.777   5.694   3.840
 8756TIP3   OH226203   5.006   7.282   3.773
 8756TIP3    H126204   4.915   7.314   3.754
 8756TIP3    H226205   5.014   7.309   3.866
 8757TIP3   OH226206   5.243   7.258   3.637
 8757TIP3    H126207   5.156   7.270   3.681
 8757TIP3    H226208   5.223   7.286   3.545
 8758TIP3   OH226209   5.669   7.283   3.433
 8758TIP3    H126210   5.599   7.298   3.367
 8758TIP3    H226211   5.678   7.372   3.472
 8759TIP3   OH226212   5.933   7.225   3.487
 8759TIP3    H126213   5.838   7.244   3.471
 8759TIP3    H226214   5.974   7.298   3.437
 8760TIP3   OH226215   6.146   7.417   3.403
 8760TIP3    H126216   6.128   7.501   3.355
 8760TIP3    H226217   6.171   7.357   3.329
 8761TIP3   OH226218   4.912   7.073   3.531
 8761TIP3    H126219   4.942   7.044   3.620
 8761TIP3    H226220   4.981   7.029   3.476
 8762TIP3   OH226221   5.105   6.950   3.393
 8762TIP3    H126222   5.126   6.862   3.432
 8762TIP3    H226223   5.191   6.979   3.359
 8763TIP3   OH226224   5.386   7.041   3.375
 8763TIP3    H126225   5.406   6.946   3.364
 8763TIP3    H226226   5.420   7.055   3.465
 8764TIP3   OH226227   5.961   5.696   3.482
 8764TIP3    H126228   5.908   5.629   3.530
 8764TIP3    H226229   6.013   5.642   3.422
 8765TIP3   OH226230   6.479   5.571   3.377
 8765TIP3    H126231   6.512   5.625   3.302
 8765TIP3    H226232   6.382   5.586   3.370
 8766TIP3   OH226233   6.570   5.673   3.139
 8766TIP3    H126234   6.643   5.624   3.096
 8766TIP3    H226235   6.601   5.765   3.124
 8767TIP3   OH226236   5.193   5.400   3.492
 8767TIP3    H126237   5.101   5.365   3.493
 8767TIP3    H226238   5.243   5.316   3.485
 8768TIP3   OH226239   4.984   5.271   3.133
 8768TIP3    H126240   5.015   5.330   3.062
 8768TIP3    H226241   4.956   5.336   3.201
 8769TIP3   OH226242   5.660   5.422   3.369
 8769TIP3    H126243   5.706   5.482   3.309
 8769TIP3    H226244   5.636   5.480   3.441
 8770TIP3   OH226245   6.203   5.581   3.344
 8770TIP3    H126246   6.179   5.546   3.258
 8770TIP3    H226247   6.183   5.504   3.403
 8771TIP3   OH226248   6.221   5.504   2.914
 8771TIP3    H126249   6.135   5.549   2.926
 8771TIP3    H226250   6.203   5.418   2.958
 8772TIP3   OH226251   4.713   6.851   2.913
 8772TIP3    H126252   4.635   6.803   2.882
 8772TIP3    H226253   4.684   6.943   2.896
 8773TIP3   OH226254   5.102   5.433   2.896
 8773TIP3    H126255   5.151   5.369   2.841
 8773TIP3    H226256   5.176   5.485   2.934
 8774TIP3   OH226257   5.622   5.599   2.991
 8774TIP3    H126258   5.678   5.564   3.062
 8774TIP3    H226259   5.620   5.694   3.014
 8775TIP3   OH226260   5.503   7.022   2.503
 8775TIP3    H126261   5.579   7.047   2.448
 8775TIP3    H226262   5.451   6.967   2.442
 8776TIP3   OH226263   6.195   7.149   2.588
 8776TIP3    H126264   6.187   7.051   2.576
 8776TIP3    H226265   6.148   7.181   2.508
 8777TIP3   OH226266   5.408   5.684   4.373
 8777TIP3    H126267   5.369   5.618   4.433
 8777TIP3    H226268   5.501   5.683   4.405
 8778TIP3   OH226269   5.656   5.679   4.498
 8778TIP3    H126270   5.741   5.651   4.460
 8778TIP3    H226271   5.639   5.608   4.563
 8779TIP3   OH226272   4.781   6.871   2.555
 8779TIP3    H126273   4.783   6.880   2.651
 8779TIP3    H226274   4.867   6.827   2.537
 8780TIP3   OH226275   6.481   5.739   4.284
 8780TIP3    H126276   6.500   5.710   4.376
 8780TIP3    H226277   6.570   5.734   4.244
 8781TIP3   OH226278   6.422   7.293   3.771
 8781TIP3    H126279   6.341   7.262   3.728
 8781TIP3    H226280   6.404   7.389   3.779
 8782TIP3   OH226281   7.683   6.662   2.550
 8782TIP3    H126282   7.652   6.752   2.530
 8782TIP3    H226283   7.609   6.611   2.514
 8783TIP3   OH226284   7.679   6.662   2.924
 8783TIP3    H126285   7.714   6.635   3.011
 8783TIP3    H226286   7.639   6.580   2.891
 8784TIP3   OH226287   6.984   6.562   3.289
 8784TIP3    H126288   7.015   6.494   3.352
 8784TIP3    H226289   7.064   6.616   3.281
 8785TIP3   OH226290   7.915   6.956   2.609
 8785TIP3    H126291   7.911   6.887   2.677
 8785TIP3    H226292   7.929   7.035   2.661
 8786TIP3   OH226293   6.955   6.971   3.014
 8786TIP3    H126294   6.948   6.873   3.016
 8786TIP3    H226295   7.052   6.981   3.008
 8787TIP3   OH226296   6.664   6.175   2.799
 8787TIP3    H126297   6.614   6.258   2.813
 8787TIP3    H226298   6.594   6.119   2.761
 8788TIP3   OH226299   6.723   6.462   2.971
 8788TIP3    H126300   6.771   6.384   3.007
 8788TIP3    H226301   6.781   6.489   2.899
 8789TIP3   OH226302   7.593   7.404   2.618
 8789TIP3    H126303   7.659   7.334   2.607
 8789TIP3    H226304   7.562   7.387   2.708
 8790TIP3   OH226305   7.484   6.892   2.972
 8790TIP3    H126306   7.523   6.815   2.926
 8790TIP3    H226307   7.567   6.939   2.995
 8791TIP3   OH226308   8.484   6.222   2.967
 8791TIP3    H126309   8.523   6.289   3.024
 8791TIP3    H226310   8.523   6.243   2.882
 8792TIP3   OH226311   7.897   6.396   3.003
 8792TIP3    H126312   7.937   6.310   3.026
 8792TIP3    H226313   7.866   6.378   2.912
 8793TIP3   OH226314   7.235   6.052   2.969
 8793TIP3    H126315   7.214   6.125   2.907
 8793TIP3    H226316   7.187   5.979   2.925
 8794TIP3   OH226317   7.931   6.144   2.596
 8794TIP3    H126318   8.005   6.124   2.657
 8794TIP3    H226319   7.981   6.178   2.519
 8795TIP3   OH226320   6.868   6.254   3.076
 8795TIP3    H126321   6.951   6.235   3.124
 8795TIP3    H226322   6.881   6.198   2.996
 8796TIP3   OH226323   7.309   6.452   2.869
 8796TIP3    H126324   7.403   6.427   2.882
 8796TIP3    H226325   7.270   6.368   2.837
 8797TIP3   OH226326   7.231   6.035   3.404
 8797TIP3    H126327   7.171   6.073   3.336
 8797TIP3    H226328   7.179   6.054   3.485
 8798TIP3   OH226329   7.565   6.878   2.415
 8798TIP3    H126330   7.522   6.864   2.330
 8798TIP3    H226331   7.532   6.967   2.439
 8799TIP3   OH226332   7.338   6.811   3.199
 8799TIP3    H126333   7.276   6.877   3.237
 8799TIP3    H226334   7.380   6.862   3.127
 8800TIP3   OH226335   8.149   6.142   2.766
 8800TIP3    H126336   8.122   6.098   2.848
 8800TIP3    H226337   8.190   6.224   2.799
 8801TIP3   OH226338   7.102   6.151   3.188
 8801TIP3    H126339   7.164   6.224   3.212
 8801TIP3    H226340   7.151   6.110   3.113
 8802TIP3   OH226341   7.165   7.005   3.297
 8802TIP3    H126342   7.140   7.091   3.258
 8802TIP3    H226343   7.086   6.989   3.353
 8803TIP3   OH226344   6.561   6.695   2.532
 8803TIP3    H126345   6.519   6.722   2.449
 8803TIP3    H226346   6.591   6.780   2.569
 8804TIP3   OH226347   8.292   6.104   3.133
 8804TIP3    H126348   8.205   6.142   3.113
 8804TIP3    H226349   8.348   6.143   3.063
 8805TIP3   OH226350   7.587   5.756   3.116
 8805TIP3    H126351   7.575   5.661   3.134
 8805TIP3    H226352   7.510   5.794   3.164
 8806TIP3   OH226353   7.814   7.025   2.364
 8806TIP3    H126354   7.766   6.947   2.335
 8806TIP3    H226355   7.843   6.997   2.454
 8807TIP3   OH226356   7.517   6.517   2.375
 8807TIP3    H126357   7.438   6.570   2.353
 8807TIP3    H226358   7.562   6.512   2.288
 8808TIP3   OH226359   7.476   6.300   2.088
 8808TIP3    H126360   7.542   6.353   2.136
 8808TIP3    H226361   7.535   6.238   2.041
 8809TIP3   OH226362   8.452   6.741   2.993
 8809TIP3    H126363   8.359   6.773   3.000
 8809TIP3    H226364   8.476   6.783   2.909
 8810TIP3   OH226365   7.858   6.582   2.356
 8810TIP3    H126366   7.807   6.608   2.437
 8810TIP3    H226367   7.945   6.561   2.396
 8811TIP3   OH226368   8.099   6.637   3.260
 8811TIP3    H126369   8.098   6.718   3.313
 8811TIP3    H226370   8.012   6.643   3.216
 8812TIP3   OH226371   7.097   6.598   2.762
 8812TIP3    H126372   7.055   6.540   2.695
 8812TIP3    H226373   7.173   6.544   2.791
 8813TIP3   OH226374   7.226   7.009   2.911
 8813TIP3    H126375   7.206   6.967   2.826
 8813TIP3    H226376   7.316   6.975   2.930
 8814TIP3   OH226377   7.233   6.569   3.117
 8814TIP3    H126378   7.266   6.547   3.027
 8814TIP3    H226379   7.277   6.654   3.136
 8815TIP3   OH226380   7.727   7.192   2.869
 8815TIP3    H126381   7.749   7.272   2.920
 8815TIP3    H226382   7.734   7.121   2.935
 8816TIP3   OH226383   7.370   7.125   3.441
 8816TIP3    H126384   7.311   7.187   3.488
 8816TIP3    H226385   7.305   7.072   3.391
 8817TIP3   OH226386   7.701   6.456   2.170
 8817TIP3    H126387   7.762   6.509   2.226
 8817TIP3    H226388   7.732   6.479   2.079
 8818TIP3   OH226389   7.126   6.682   3.541
 8818TIP3    H126390   7.131   6.769   3.586
 8818TIP3    H226391   7.031   6.663   3.551
 8819TIP3   OH226392   7.455   7.148   2.441
 8819TIP3    H126393   7.486   7.220   2.497
 8819TIP3    H226394   7.382   7.190   2.393
 8820TIP3   OH226395   7.165   7.294   3.526
 8820TIP3    H126396   7.130   7.293   3.435
 8820TIP3    H226397   7.086   7.273   3.580
 8821TIP3   OH226398   8.213   5.698   2.213
 8821TIP3    H126399   8.136   5.708   2.272
 8821TIP3    H226400   8.236   5.790   2.195
 8822TIP3   OH226401   6.964   6.441   2.567
 8822TIP3    H126402   6.897   6.485   2.510
 8822TIP3    H226403   6.923   6.354   2.580
 8823TIP3   OH226404   6.743   6.824   3.474
 8823TIP3    H126405   6.681   6.800   3.402
 8823TIP3    H226406   6.782   6.738   3.499
 8824TIP3   OH226407   6.599   7.016   3.109
 8824TIP3    H126408   6.694   7.008   3.096
 8824TIP3    H226409   6.594   7.097   3.162
 8825TIP3   OH226410   7.560   7.259   3.294
 8825TIP3    H126411   7.560   7.351   3.326
 8825TIP3    H226412   7.492   7.218   3.352
 8826TIP3   OH226413   7.279   7.407   2.255
 8826TIP3    H126414   7.272   7.359   2.171
 8826TIP3    H226415   7.362   7.456   2.247
 8827TIP3   OH226416   6.766   7.234   2.634
 8827TIP3    H126417   6.815   7.224   2.718
 8827TIP3    H226418   6.712   7.153   2.635
 8828TIP3   OH226419   8.358   6.610   3.443
 8828TIP3    H126420   8.292   6.620   3.374
 8828TIP3    H226421   8.391   6.519   3.425
 8829TIP3   OH226422   6.948   7.007   3.463
 8829TIP3    H126423   6.999   6.990   3.545
 8829TIP3    H226424   6.875   6.943   3.472
 8830TIP3   OH226425   7.349   5.830   3.247
 8830TIP3    H126426   7.260   5.800   3.220
 8830TIP3    H226427   7.325   5.913   3.292
 8831TIP3   OH226428   7.883   5.945   3.441
 8831TIP3    H126429   7.952   5.919   3.505
 8831TIP3    H226430   7.800   5.926   3.488
 8832TIP3   OH226431   8.114   6.368   3.353
 8832TIP3    H126432   8.072   6.369   3.442
 8832TIP3    H226433   8.103   6.461   3.324
 8833TIP3   OH226434   7.784   6.507   1.918
 8833TIP3    H126435   7.744   6.479   1.833
 8833TIP3    H226436   7.856   6.563   1.888
 8834TIP3   OH226437   7.494   5.880   2.217
 8834TIP3    H126438   7.461   5.877   2.309
 8834TIP3    H226439   7.455   5.797   2.183
 8835TIP3   OH226440   7.280   6.346   3.265
 8835TIP3    H126441   7.231   6.368   3.346
 8835TIP3    H226442   7.265   6.427   3.211
 8836TIP3   OH226443   7.164   6.232   2.779
 8836TIP3    H126444   7.071   6.206   2.797
 8836TIP3    H226445   7.177   6.192   2.690
 8837TIP3   OH226446   7.656   6.318   2.507
 8837TIP3    H126447   7.602   6.389   2.464
 8837TIP3    H226448   7.711   6.288   2.432
 8838TIP3   OH226449   7.830   6.597   3.592
 8838TIP3    H126450   7.810   6.524   3.655
 8838TIP3    H226451   7.924   6.613   3.612
 8839TIP3   OH226452   7.813   6.349   2.744
 8839TIP3    H126453   7.752   6.377   2.673
 8839TIP3    H226454   7.846   6.266   2.702
 8840TIP3   OH226455   7.099   6.376   3.474
 8840TIP3    H126456   7.129   6.438   3.541
 8840TIP3    H226457   7.088   6.294   3.525
 8841TIP3   OH226458   7.149   5.852   2.183
 8841TIP3    H126459   7.141   5.850   2.281
 8841TIP3    H226460   7.071   5.905   2.159
 8842TIP3   OH226461   6.692   5.898   3.054
 8842TIP3    H126462   6.769   5.929   3.106
 8842TIP3    H226463   6.731   5.865   2.972
 8843TIP3   OH226464   6.667   5.879   2.574
 8843TIP3    H126465   6.712   5.918   2.495
 8843TIP3    H226466   6.605   5.952   2.594
 8844TIP3   OH226467   7.820   6.594   3.169
 8844TIP3    H126468   7.856   6.523   3.110
 8844TIP3    H226469   7.794   6.540   3.247
 8845TIP3   OH226470   7.491   6.055   2.840
 8845TIP3    H126471   7.409   6.054   2.893
 8845TIP3    H226472   7.559   6.054   2.910
 8846TIP3   OH226473   6.926   6.110   2.848
 8846TIP3    H126474   6.831   6.118   2.821
 8846TIP3    H226475   6.948   6.019   2.825
 8847TIP3   OH226476   7.196   6.106   2.537
 8847TIP3    H126477   7.290   6.122   2.515
 8847TIP3    H226478   7.148   6.129   2.453
 8848TIP3   OH226479   7.980   6.131   3.036
 8848TIP3    H126480   7.951   6.143   3.130
 8848TIP3    H226481   7.912   6.069   3.005
 8849TIP3   OH226482   7.037   6.140   2.316
 8849TIP3    H126483   6.964   6.096   2.269
 8849TIP3    H226484   7.088   6.176   2.241
 8850TIP3   OH226485   7.111   6.930   3.682
 8850TIP3    H126486   7.191   6.960   3.730
 8850TIP3    H226487   7.047   6.929   3.756
 8851TIP3   OH226488   7.574   6.382   2.937
 8851TIP3    H126489   7.647   6.342   2.888
 8851TIP3    H226490   7.583   6.341   3.025
 8852TIP3   OH226491   7.099   5.870   2.816
 8852TIP3    H126492   7.064   5.791   2.862
 8852TIP3    H226493   7.148   5.831   2.743
 8853TIP3   OH226494   7.552   6.279   3.228
 8853TIP3    H126495   7.462   6.316   3.243
 8853TIP3    H226496   7.610   6.339   3.278
 8854TIP3   OH226497   7.290   6.672   2.321
 8854TIP3    H126498   7.217   6.606   2.311
 8854TIP3    H226499   7.271   6.705   2.412
 8855TIP3   OH226500   8.193   6.815   2.939
 8855TIP3    H126501   8.185   6.910   2.917
 8855TIP3    H226502   8.099   6.789   2.937
 8856TIP3   OH226503   7.747   5.981   2.186
 8856TIP3    H126504   7.650   5.966   2.193
 8856TIP3    H226505   7.756   6.076   2.207
 8857TIP3   OH226506   7.686   6.979   3.322
 8857TIP3    H126507   7.709   6.958   3.414
 8857TIP3    H226508   7.650   7.069   3.329
 8858TIP3   OH226509   7.814   6.229   2.289
 8858TIP3    H126510   7.911   6.236   2.303
 8858TIP3    H226511   7.797   6.306   2.231
 8859TIP3   OH226512   6.980   6.693   2.999
 8859TIP3    H126513   7.018   6.664   2.913
 8859TIP3    H226514   7.021   6.630   3.060
 8860TIP3   OH226515   7.434   6.818   2.136
 8860TIP3    H126516   7.386   6.904   2.145
 8860TIP3    H226517   7.382   6.763   2.199
 8861TIP3   OH226518   6.860   6.615   3.612
 8861TIP3    H126519   6.882   6.600   3.706
 8861TIP3    H226520   6.793   6.545   3.597
 8862TIP3   OH226521   7.587   6.727   3.631
 8862TIP3    H126522   7.529   6.667   3.581
 8862TIP3    H226523   7.675   6.692   3.605
 8863TIP3   OH226524   7.834   7.225   3.240
 8863TIP3    H126525   7.738   7.234   3.226
 8863TIP3    H226526   7.845   7.277   3.323
 8864TIP3   OH226527   7.933   6.761   2.867
 8864TIP3    H126528   7.838   6.737   2.879
 8864TIP3    H226529   7.967   6.683   2.820
 8865TIP3   OH226530   7.082   6.996   2.622
 8865TIP3    H126531   7.080   7.078   2.569
 8865TIP3    H226532   6.988   6.978   2.632
 8866TIP3   OH226533   6.644   6.300   2.326
 8866TIP3    H126534   6.690   6.384   2.347
 8866TIP3    H226535   6.567   6.305   2.387
 8867TIP3   OH226536   7.219   6.761   2.566
 8867TIP3    H126537   7.184   6.851   2.585
 8867TIP3    H226538   7.183   6.710   2.641
 8868TIP3   OH226539   7.347   7.332   3.097
 8868TIP3    H126540   7.386   7.399   3.036
 8868TIP3    H226541   7.427   7.302   3.143
 8869TIP3   OH226542   7.002   7.232   2.476
 8869TIP3    H126543   6.916   7.244   2.521
 8869TIP3    H226544   7.036   7.324   2.478
 8870TIP3   OH226545   7.741   6.970   3.050
 8870TIP3    H126546   7.728   6.967   3.148
 8870TIP3    H226547   7.816   6.911   3.038
 8871TIP3   OH226548   7.635   6.852   1.922
 8871TIP3    H126549   7.715   6.850   1.976
 8871TIP3    H226550   7.566   6.829   1.985
 8872TIP3   OH226551   7.072   6.118   3.620
 8872TIP3    H126552   6.976   6.124   3.634
 8872TIP3    H226553   7.100   6.060   3.692
 8873TIP3   OH226554   7.884   6.779   2.169
 8873TIP3    H126555   7.845   6.723   2.239
 8873TIP3    H226556   7.971   6.736   2.161
 8874TIP3   OH226557   6.788   7.203   3.253
 8874TIP3    H126558   6.840   7.127   3.280
 8874TIP3    H226559   6.821   7.271   3.314
 8875TIP3   OH226560   7.072   6.848   1.933
 8875TIP3    H126561   7.097   6.757   1.905
 8875TIP3    H226562   7.057   6.835   2.029
 8876TIP3   OH226563   7.025   6.852   2.206
 8876TIP3    H126564   7.097   6.826   2.265
 8876TIP3    H226565   7.027   6.950   2.213
 8877TIP3   OH226566   6.761   6.546   2.408
 8877TIP3    H126567   6.694   6.590   2.465
 8877TIP3    H226568   6.775   6.615   2.341
 8878TIP3   OH226569   7.910   6.180   3.295
 8878TIP3    H126570   7.987   6.225   3.333
 8878TIP3    H226571   7.900   6.102   3.354
 8879TIP3   OH226572   7.790   5.934   2.466
 8879TIP3    H126573   7.776   5.957   2.372
 8879TIP3    H226574   7.828   6.017   2.501
 8880TIP3   OH226575   7.290   7.046   2.162
 8880TIP3    H126576   7.200   7.069   2.195
 8880TIP3    H226577   7.303   7.122   2.102
 8881TIP3   OH226578   7.479   6.113   2.568
 8881TIP3    H126579   7.544   6.185   2.551
 8881TIP3    H226580   7.484   6.106   2.666
 8882TIP3   OH226581   7.749   6.432   3.377
 8882TIP3    H126582   7.769   6.487   3.455
 8882TIP3    H226583   7.806   6.355   3.391
 8883TIP3   OH226584   7.623   5.840   2.671
 8883TIP3    H126585   7.617   5.917   2.730
 8883TIP3    H226586   7.683   5.876   2.601
 8884TIP3   OH226587   7.032   7.124   2.222
 8884TIP3    H126588   7.001   7.194   2.160
 8884TIP3    H226589   7.020   7.169   2.308
 8885TIP3   OH226590   7.135   5.839   2.460
 8885TIP3    H126591   7.132   5.929   2.496
 8885TIP3    H226592   7.231   5.821   2.468
 8886TIP3   OH226593   8.387   6.352   3.343
 8886TIP3    H126594   8.291   6.343   3.353
 8886TIP3    H226595   8.403   6.297   3.266
 8887TIP3   OH226596   8.036   6.529   2.745
 8887TIP3    H126597   7.961   6.469   2.755
 8887TIP3    H226598   8.107   6.482   2.794
 8888TIP3   OH226599   6.751   6.756   2.214
 8888TIP3    H126600   6.817   6.827   2.224
 8888TIP3    H226601   6.798   6.701   2.147
 8889TIP3   OH226602   6.697   6.031   2.347
 8889TIP3    H126603   6.695   6.128   2.343
 8889TIP3    H226604   6.612   6.008   2.307
 8890TIP3   OH226605   7.084   5.751   3.221
 8890TIP3    H126606   7.053   5.718   3.134
 8890TIP3    H226607   7.073   5.672   3.278
 8891TIP3   OH226608   6.625   6.972   2.603
 8891TIP3    H126609   6.550   7.001   2.657
 8891TIP3    H226610   6.600   7.010   2.516
 8892TIP3   OH226611   6.780   7.511   3.673
 8892TIP3    H126612   6.866   7.513   3.721
 8892TIP3    H226613   6.762   7.415   3.673
 8893TIP3   OH226614   7.259   7.476   3.719
 8893TIP3    H126615   7.354   7.457   3.727
 8893TIP3    H226616   7.236   7.417   3.645
 8894TIP3   OH226617   7.240   7.046   1.845
 8894TIP3    H126618   7.183   6.976   1.883
 8894TIP3    H226619   7.315   6.993   1.812
 8895TIP3   OH226620   7.896   7.375   3.459
 8895TIP3    H126621   7.891   7.307   3.530
 8895TIP3    H226622   7.978   7.421   3.482
 8896TIP3   OH226623   6.909   6.917   3.873
 8896TIP3    H126624   6.927   6.821   3.879
 8896TIP3    H226625   6.822   6.918   3.829
 8897TIP3   OH226626   6.887   6.569   2.067
 8897TIP3    H126627   6.942   6.535   2.140
 8897TIP3    H226628   6.954   6.574   1.995
 8898TIP3   OH226629   7.517   7.000   3.648
 8898TIP3    H126630   7.477   7.019   3.561
 8898TIP3    H226631   7.548   6.908   3.639
 8899TIP3   OH226632   7.363   6.756   1.873
 8899TIP3    H126633   7.378   6.773   1.968
 8899TIP3    H226634   7.384   6.660   1.868
 8900TIP3   OH226635   8.009   7.007   3.246
 8900TIP3    H126636   8.067   7.074   3.208
 8900TIP3    H226637   7.925   7.057   3.249
 8901TIP3   OH226638   7.029   6.651   3.855
 8901TIP3    H126639   7.104   6.594   3.834
 8901TIP3    H226640   7.055   6.684   3.944
 8902TIP3   OH226641   7.097   6.472   2.290
 8902TIP3    H126642   7.069   6.430   2.373
 8902TIP3    H226643   7.132   6.396   2.239
 8903TIP3   OH226644   7.363   6.535   3.516
 8903TIP3    H126645   7.287   6.596   3.518
 8903TIP3    H226646   7.415   6.569   3.439
 8904TIP3   OH226647   7.196   6.265   2.130
 8904TIP3    H126648   7.170   6.269   2.036
 8904TIP3    H226649   7.293   6.269   2.122
 8905TIP3   OH226650   7.885   6.937   3.649
 8905TIP3    H126651   7.965   6.911   3.601
 8905TIP3    H226652   7.881   6.871   3.720
 8906TIP3   OH226653   7.486   6.324   3.644
 8906TIP3    H126654   7.488   6.244   3.587
 8906TIP3    H226655   7.443   6.390   3.585
 8907TIP3   OH226656   7.490   6.110   3.451
 8907TIP3    H126657   7.518   6.152   3.367
 8907TIP3    H226658   7.396   6.088   3.432
 8908TIP3   OH226659   7.516   6.644   3.324
 8908TIP3    H126660   7.601   6.654   3.278
 8908TIP3    H226661   7.461   6.712   3.280
 8909TIP3   OH226662   8.103   6.613   3.706
 8909TIP3    H126663   8.151   6.529   3.713
 8909TIP3    H226664   8.172   6.671   3.670
 8910TIP3   OH226665   8.115   6.867   3.455
 8910TIP3    H126666   8.066   6.918   3.387
 8910TIP3    H226667   8.205   6.872   3.414
 8911TIP3   OH226668   7.364   6.437   3.874
 8911TIP3    H126669   7.296   6.368   3.888
 8911TIP3    H226670   7.400   6.411   3.786
 8912TIP3   OH226671   7.622   5.874   3.517
 8912TIP3    H126672   7.573   5.956   3.495
 8912TIP3    H226673   7.552   5.806   3.506
 8913TIP3   OH226674   7.748   6.379   3.734
 8913TIP3    H126675   7.739   6.367   3.830
 8913TIP3    H226676   7.658   6.354   3.706
 8914TIP3   OH226677   7.987   6.328   3.589
 8914TIP3    H126678   7.913   6.330   3.653
 8914TIP3    H226679   8.062   6.298   3.645
 8915TIP3   OH226680   8.214   6.268   3.740
 8915TIP3    H126681   8.227   6.173   3.758
 8915TIP3    H226682   8.213   6.307   3.830
 8916TIP3   OH226683   7.205   6.216   3.926
 8916TIP3    H126684   7.212   6.125   3.891
 8916TIP3    H226685   7.241   6.204   4.016
 8917TIP3   OH226686   7.716   5.883   3.776
 8917TIP3    H126687   7.785   5.814   3.769
 8917TIP3    H226688   7.677   5.878   3.686
 8918TIP3   OH226689   7.782   6.098   3.935
 8918TIP3    H126690   7.760   6.028   3.870
 8918TIP3    H226691   7.704   6.157   3.927
 8919TIP3   OH226692   6.994   7.328   2.039
 8919TIP3    H126693   7.090   7.317   2.029
 8919TIP3    H226694   6.975   7.376   1.955
 8920TIP3   OH226695   6.483   6.710   2.251
 8920TIP3    H126696   6.578   6.731   2.237
 8920TIP3    H226697   6.477   6.621   2.210
 8921TIP3   OH226698   6.397   7.323   2.663
 8921TIP3    H126699   6.330   7.260   2.627
 8921TIP3    H226700   6.442   7.266   2.729
 8922TIP3   OH226701   6.532   7.176   2.851
 8922TIP3    H126702   6.521   7.100   2.911
 8922TIP3    H226703   6.586   7.235   2.907
 8923TIP3   OH226704   8.062   6.241   1.942
 8923TIP3    H126705   8.051   6.273   1.852
 8923TIP3    H226706   8.049   6.145   1.929
 8924TIP3   OH226707   8.091   6.502   2.476
 8924TIP3    H126708   8.100   6.406   2.470
 8924TIP3    H226709   8.081   6.518   2.573
 8925TIP3   OH226710   6.720   6.582   3.223
 8925TIP3    H126711   6.719   6.550   3.130
 8925TIP3    H226712   6.817   6.584   3.240
 8926TIP3   OH226713   8.341   6.910   3.315
 8926TIP3    H126714   8.429   6.873   3.338
 8926TIP3    H226715   8.367   6.974   3.246
 8927TIP3   OH226716   8.029   5.968   1.931
 8927TIP3    H126717   8.090   5.920   1.987
 8927TIP3    H226718   7.950   5.911   1.928
 8928TIP3   OH226719   8.087   6.223   2.379
 8928TIP3    H126720   8.125   6.132   2.392
 8928TIP3    H226721   8.139   6.252   2.303
 8929TIP3   OH226722   8.252   6.396   2.854
 8929TIP3    H126723   8.339   6.427   2.824
 8929TIP3    H226724   8.255   6.430   2.947
 8930TIP3   OH226725   8.296   6.526   3.086
 8930TIP3    H126726   8.229   6.567   3.144
 8930TIP3    H226727   8.360   6.598   3.074
 8931TIP3   OH226728   6.938   6.269   3.898
 8931TIP3    H126729   7.036   6.262   3.900
 8931TIP3    H226730   6.914   6.183   3.939
 8932TIP3   OH226731   8.183   5.972   2.419
 8932TIP3    H126732   8.243   5.948   2.492
 8932TIP3    H226733   8.126   5.892   2.415
 8933TIP3   OH226734   6.900   5.959   3.228
 8933TIP3    H126735   6.962   5.885   3.238
 8933TIP3    H226736   6.962   6.034   3.222
 8934TIP3   OH226737   6.703   6.233   3.301
 8934TIP3    H126738   6.751   6.226   3.216
 8934TIP3    H226739   6.734   6.319   3.334
 8935TIP3   OH226740   6.685   5.739   2.804
 8935TIP3    H126741   6.591   5.733   2.829
 8935TIP3    H226742   6.682   5.796   2.725
 8936TIP3   OH226743   6.904   5.811   3.614
 8936TIP3    H126744   6.855   5.813   3.698
 8936TIP3    H226745   6.839   5.855   3.555
 8937TIP3   OH226746   6.946   7.245   3.693
 8937TIP3    H126747   6.854   7.216   3.677
 8937TIP3    H226748   6.957   7.226   3.787
 8938TIP3   OH226749   7.122   7.276   3.242
 8938TIP3    H126750   7.076   7.351   3.199
 8938TIP3    H226751   7.209   7.287   3.198
 8939TIP3   OH226752   7.582   7.531   3.375
 8939TIP3    H126753   7.613   7.524   3.468
 8939TIP3    H226754   7.657   7.576   3.335
 8940TIP3   OH226755   8.525   6.012   3.355
 8940TIP3    H126756   8.452   6.042   3.299
 8940TIP3    H226757   8.576   5.956   3.295
 8941TIP3   OH226758   6.799   7.536   3.263
 8941TIP3    H126759   6.708   7.569   3.243
 8941TIP3    H226760   6.810   7.569   3.353
 8942TIP3   OH226761   7.030   7.508   3.120
 8942TIP3    H126762   6.943   7.520   3.165
 8942TIP3    H226763   7.010   7.538   3.030
 8943TIP3   OH226764   7.445   7.515   2.925
 8943TIP3    H126765   7.419   7.565   2.846
 8943TIP3    H226766   7.473   7.588   2.984
 8944TIP3   OH226767   6.711   7.327   3.010
 8944TIP3    H126768   6.738   7.302   3.101
 8944TIP3    H226769   6.783   7.283   2.959
 8945TIP3   OH226770   6.905   7.198   2.867
 8945TIP3    H126771   6.921   7.114   2.915
 8945TIP3    H226772   6.996   7.235   2.862
 8946TIP3   OH226773   7.170   7.293   2.872
 8946TIP3    H126774   7.202   7.202   2.859
 8946TIP3    H226775   7.219   7.316   2.953
 8947TIP3   OH226776   7.747   5.949   2.955
 8947TIP3    H126777   7.703   5.881   3.009
 8947TIP3    H226778   7.820   5.899   2.913
 8948TIP3   OH226779   8.276   5.828   2.858
 8948TIP3    H126780   8.307   5.882   2.783
 8948TIP3    H226781   8.180   5.844   2.858
 8949TIP3   OH226782   8.376   5.927   2.617
 8949TIP3    H126783   8.449   5.871   2.584
 8949TIP3    H226784   8.415   6.015   2.615
 8950TIP3   OH226785   6.996   5.659   2.973
 8950TIP3    H126786   6.903   5.627   2.973
 8950TIP3    H226787   7.044   5.574   2.969
 8951TIP3   OH226788   6.786   5.528   2.622
 8951TIP3    H126789   6.812   5.586   2.548
 8951TIP3    H226790   6.754   5.592   2.688
 8952TIP3   OH226791   7.440   5.690   2.854
 8952TIP3    H126792   7.497   5.740   2.794
 8952TIP3    H226793   7.461   5.729   2.939
 8953TIP3   OH226794   7.992   5.837   2.837
 8953TIP3    H126795   7.987   5.798   2.749
 8953TIP3    H226796   7.976   5.758   2.894
 8954TIP3   OH226797   8.013   5.756   2.399
 8954TIP3    H126798   7.927   5.799   2.412
 8954TIP3    H226799   7.999   5.672   2.447
 8955TIP3   OH226800   6.500   7.098   2.400
 8955TIP3    H126801   6.414   7.065   2.367
 8955TIP3    H226802   6.489   7.192   2.382
 8956TIP3   OH226803   6.899   5.688   2.384
 8956TIP3    H126804   6.947   5.625   2.327
 8956TIP3    H226805   6.972   5.742   2.420
 8957TIP3   OH226806   7.413   5.863   2.482
 8957TIP3    H126807   7.472   5.816   2.543
 8957TIP3    H226808   7.434   5.955   2.508
 8958TIP3   OH226809   7.263   7.273   2.003
 8958TIP3    H126810   7.330   7.331   1.959
 8958TIP3    H226811   7.251   7.205   1.933
 8959TIP3   OH226812   7.204   5.938   3.862
 8959TIP3    H126813   7.169   5.870   3.921
 8959TIP3    H226814   7.298   5.939   3.890
 8960TIP3   OH226815   7.452   5.936   3.983
 8960TIP3    H126816   7.538   5.913   3.944
 8960TIP3    H226817   7.442   5.865   4.049
 8961TIP3   OH226818   6.575   7.125   2.040
 8961TIP3    H126819   6.577   7.150   2.133
 8961TIP3    H226820   6.664   7.084   2.027
 8962TIP3   OH226821   8.275   5.997   3.772
 8962TIP3    H126822   8.297   5.966   3.862
 8962TIP3    H226823   8.363   5.994   3.728
 8963TIP3   OH226824   0.950   6.999   4.660
 8963TIP3    H126825   0.976   7.081   4.705
 8963TIP3    H226826   0.972   7.021   4.567
 8964TIP3   OH226827   0.372   6.940   4.280
 8964TIP3    H126828   0.443   6.927   4.346
 8964TIP3    H226829   0.423   6.972   4.203
 8965TIP3   OH226830   1.015   7.204   4.837
 8965TIP3    H126831   0.936   7.258   4.819
 8965TIP3    H226832   1.048   7.245   4.919
 8966TIP3   OH226833   0.598   6.939   4.441
 8966TIP3    H126834   0.592   6.865   4.503
 8966TIP3    H226835   0.650   7.007   4.487
 8967TIP3   OH226836   0.747   6.903   4.825
 8967TIP3    H126837   0.667   6.949   4.796
 8967TIP3    H226838   0.812   6.929   4.757
 8968TIP3   OH226839   0.666   7.927   4.809
 8968TIP3    H126840   0.656   7.839   4.766
 8968TIP3    H226841   0.707   7.981   4.738
 8969TIP3   OH226842   0.875   7.542   4.648
 8969TIP3    H126843   0.795   7.599   4.658
 8969TIP3    H226844   0.906   7.570   4.560
 8970TIP3   OH226845   0.676   6.498   3.890
 8970TIP3    H126846   0.616   6.502   3.965
 8970TIP3    H226847   0.739   6.570   3.907
 8971TIP3   OH226848   0.819   7.389   5.133
 8971TIP3    H126849   0.746   7.415   5.076
 8971TIP3    H226850   0.821   7.291   5.121
 8972TIP3   OH226851   0.648   7.698   4.649
 8972TIP3    H126852   0.680   7.745   4.568
 8972TIP3    H226853   0.558   7.673   4.624
 8973TIP3   OH226854   0.707   7.103   3.810
 8973TIP3    H126855   0.643   7.057   3.752
 8973TIP3    H226856   0.704   7.193   3.770
 8974TIP3   OH226857   0.920   7.950   4.905
 8974TIP3    H126858   0.824   7.959   4.887
 8974TIP3    H226859   0.952   7.935   4.813
 8975TIP3   OH226860   0.822   7.124   5.052
 8975TIP3    H126861   0.736   7.083   5.064
 8975TIP3    H226862   0.846   7.097   4.962
 8976TIP3   OH226863   0.485   7.301   4.432
 8976TIP3    H126864   0.424   7.228   4.444
 8976TIP3    H226865   0.566   7.268   4.474
 8977TIP3   OH226866   0.481   7.379   3.474
 8977TIP3    H126867   0.431   7.337   3.401
 8977TIP3    H226868   0.472   7.473   3.453
 8978TIP3   OH226869   0.746   7.040   5.474
 8978TIP3    H126870   0.735   6.944   5.466
 8978TIP3    H226871   0.652   7.067   5.479
 8979TIP3   OH226872   0.611   7.559   3.810
 8979TIP3    H126873   0.682   7.622   3.789
 8979TIP3    H226874   0.644   7.522   3.895
 8980TIP3   OH226875   0.734   7.438   4.018
 8980TIP3    H126876   0.675   7.388   4.080
 8980TIP3    H226877   0.803   7.473   4.078
 8981TIP3   OH226878   0.770   7.824   4.444
 8981TIP3    H126879   0.837   7.768   4.399
 8981TIP3    H226880   0.778   7.909   4.399
 8982TIP3   OH226881   0.667   7.335   3.665
 8982TIP3    H126882   0.599   7.349   3.595
 8982TIP3    H226883   0.646   7.413   3.722
 8983TIP3   OH226884   0.524   6.993   3.620
 8983TIP3    H126885   0.507   7.083   3.589
 8983TIP3    H226886   0.501   6.942   3.540
 8984TIP3   OH226887   0.572   7.284   4.171
 8984TIP3    H126888   0.538   7.195   4.155
 8984TIP3    H226889   0.541   7.302   4.262
 8985TIP3   OH226890   0.828   7.712   5.022
 8985TIP3    H126891   0.904   7.651   5.017
 8985TIP3    H226892   0.857   7.786   4.966
 8986TIP3   OH226893   1.025   7.527   5.034
 8986TIP3    H126894   0.954   7.479   5.082
 8986TIP3    H226895   1.099   7.464   5.048
 8987TIP3   OH226896   0.543   7.004   4.065
 8987TIP3    H126897   0.596   6.924   4.082
 8987TIP3    H226898   0.594   7.049   3.997
 8988TIP3   OH226899   0.705   7.188   4.560
 8988TIP3    H126900   0.789   7.212   4.516
 8988TIP3    H226901   0.721   7.230   4.647
 8989TIP3   OH226902   0.763   7.333   4.790
 8989TIP3    H126903   0.678   7.366   4.826
 8989TIP3    H226904   0.800   7.413   4.747
 8990TIP3   OH226905   1.224   6.918   5.343
 8990TIP3    H126906   1.285   6.855   5.299
 8990TIP3    H226907   1.196   6.975   5.269
 8991TIP3   OH226908   0.658   6.748   4.088
 8991TIP3    H126909   0.712   6.749   4.170
 8991TIP3    H226910   0.588   6.687   4.118
 8992TIP3   OH226911   1.094   7.060   5.151
 8992TIP3    H126912   1.013   7.103   5.184
 8992TIP3    H226913   1.057   6.991   5.092
 8993TIP3   OH226914   0.993   6.824   5.027
 8993TIP3    H126915   0.902   6.814   4.994
 8993TIP3    H226916   1.026   6.732   5.017
 8994TIP3   OH226917   0.737   6.612   4.549
 8994TIP3    H126918   0.770   6.666   4.474
 8994TIP3    H226919   0.641   6.631   4.543
 8995TIP3   OH226920   0.816   6.719   4.309
 8995TIP3    H126921   0.891   6.667   4.274
 8995TIP3    H226922   0.852   6.810   4.299
 8996TIP3   OH226923   0.475   6.652   4.516
 8996TIP3    H126924   0.409   6.640   4.444
 8996TIP3    H226925   0.456   6.572   4.569
 8997TIP3   OH226926   0.465   6.548   4.061
 8997TIP3    H126927   0.399   6.575   4.130
 8997TIP3    H226928   0.468   6.454   4.086
 8998TIP3   OH226929   0.732   6.769   5.458
 8998TIP3    H126930   0.747   6.747   5.553
 8998TIP3    H226931   0.823   6.768   5.423
 8999TIP3   OH226932   1.934   7.700   3.727
 8999TIP3    H126933   1.905   7.788   3.698
 8999TIP3    H226934   1.861   7.647   3.691
 9000TIP3   OH226935   1.939   7.708   4.097
 9000TIP3    H126936   1.967   7.682   4.186
 9000TIP3    H226937   1.894   7.629   4.065
 9001TIP3   OH226938   1.232   7.607   4.467
 9001TIP3    H126939   1.266   7.541   4.529
 9001TIP3    H226940   1.308   7.668   4.461
 9002TIP3   OH226941   2.159   8.013   3.790
 9002TIP3    H126942   2.159   7.943   3.857
 9002TIP3    H226943   2.198   8.087   3.839
 9003TIP3   OH226944   1.265   7.950   4.273
 9003TIP3    H126945   1.228   7.872   4.228
 9003TIP3    H226946   1.344   7.969   4.218
 9004TIP3   OH226947   0.913   7.216   3.975
 9004TIP3    H126948   0.871   7.302   3.992
 9004TIP3    H226949   0.837   7.167   3.940
 9005TIP3   OH226950   0.968   7.504   4.146
 9005TIP3    H126951   1.019   7.427   4.182
 9005TIP3    H226952   1.038   7.555   4.103
 9006TIP3   OH226953   1.749   7.926   4.144
 9006TIP3    H126954   1.796   7.851   4.105
 9006TIP3    H226955   1.827   7.980   4.171
 9007TIP3   OH226956   2.746   7.256   4.146
 9007TIP3    H126957   2.775   7.339   4.190
 9007TIP3    H226958   2.767   7.276   4.053
 9008TIP3   OH226959   2.145   7.438   4.182
 9008TIP3    H126960   2.188   7.352   4.202
 9008TIP3    H226961   2.115   7.422   4.090
 9009TIP3   OH226962   1.483   7.097   4.147
 9009TIP3    H126963   1.464   7.170   4.085
 9009TIP3    H226964   1.434   7.024   4.101
 9010TIP3   OH226965   2.177   7.188   3.768
 9010TIP3    H126966   2.249   7.172   3.834
 9010TIP3    H226967   2.230   7.223   3.694
 9011TIP3   OH226968   1.116   7.298   4.254
 9011TIP3    H126969   1.200   7.281   4.301
 9011TIP3    H226970   1.130   7.244   4.173
 9012TIP3   OH226971   1.557   7.497   4.045
 9012TIP3    H126972   1.651   7.472   4.058
 9012TIP3    H226973   1.518   7.413   4.013
 9013TIP3   OH226974   2.819   7.464   4.316
 9013TIP3    H126975   2.736   7.512   4.297
 9013TIP3    H226976   2.834   7.491   4.408
 9014TIP3   OH226977   1.479   7.079   4.580
 9014TIP3    H126978   1.420   7.118   4.513
 9014TIP3    H226979   1.428   7.099   4.661
 9015TIP3   OH226980   1.833   7.902   3.573
 9015TIP3    H126981   1.776   7.885   3.497
 9015TIP3    H226982   1.807   7.993   3.595
 9016TIP3   OH226983   1.583   7.860   4.377
 9016TIP3    H126984   1.517   7.923   4.410
 9016TIP3    H226985   1.618   7.908   4.299
 9017TIP3   OH226986   2.388   7.190   3.940
 9017TIP3    H126987   2.377   7.143   4.024
 9017TIP3    H226988   2.441   7.267   3.966
 9018TIP3   OH226989   1.350   7.195   4.365
 9018TIP3    H126990   1.411   7.269   4.388
 9018TIP3    H226991   1.400   7.155   4.290
 9019TIP3   OH226992   1.414   8.076   4.481
 9019TIP3    H126993   1.373   8.074   4.392
 9019TIP3    H226994   1.333   8.067   4.536
 9020TIP3   OH226995   0.821   7.711   3.724
 9020TIP3    H126996   0.780   7.730   3.637
 9020TIP3    H226997   0.835   7.803   3.753
 9021TIP3   OH226998   2.539   7.155   4.311
 9021TIP3    H126999   2.452   7.186   4.282
 9021TIP3    H227000   2.599   7.188   4.241
 9022TIP3   OH227001   1.836   6.800   4.293
 9022TIP3    H127002   1.823   6.705   4.311
 9022TIP3    H227003   1.759   6.838   4.341
 9023TIP3   OH227004   2.177   8.002   3.514
 9023TIP3    H127005   2.104   7.943   3.498
 9023TIP3    H227006   2.188   7.996   3.612
 9024TIP3   OH227007   2.467   8.169   4.295
 9024TIP3    H127008   2.458   8.089   4.239
 9024TIP3    H227009   2.486   8.238   4.228
 9025TIP3   OH227010   1.769   7.558   3.554
 9025TIP3    H127011   1.686   7.608   3.538
 9025TIP3    H227012   1.811   7.562   3.466
 9026TIP3   OH227013   1.726   7.346   3.267
 9026TIP3    H127014   1.791   7.397   3.317
 9026TIP3    H227015   1.785   7.284   3.219
 9027TIP3   OH227016   2.672   7.804   4.137
 9027TIP3    H127017   2.589   7.856   4.144
 9027TIP3    H227018   2.700   7.830   4.046
 9028TIP3   OH227019   2.113   7.640   3.529
 9028TIP3    H127020   2.058   7.662   3.608
 9028TIP3    H227021   2.198   7.616   3.571
 9029TIP3   OH227022   2.349   7.684   4.434
 9029TIP3    H127023   2.348   7.767   4.484
 9029TIP3    H227024   2.262   7.689   4.389
 9030TIP3   OH227025   1.350   7.644   3.932
 9030TIP3    H127026   1.308   7.584   3.866
 9030TIP3    H227027   1.427   7.592   3.962
 9031TIP3   OH227028   1.484   8.009   4.135
 9031TIP3    H127029   1.451   8.007   4.043
 9031TIP3    H227030   1.580   8.019   4.124
 9032TIP3   OH227031   1.480   7.617   4.291
 9032TIP3    H127032   1.515   7.596   4.202
 9032TIP3    H227033   1.523   7.703   4.311
 9033TIP3   OH227034   1.656   8.073   4.618
 9033TIP3    H127035   1.625   8.162   4.642
 9033TIP3    H227036   1.581   8.045   4.562
 9034TIP3   OH227037   1.955   7.500   3.350
 9034TIP3    H127038   2.012   7.563   3.400
 9034TIP3    H227039   1.984   7.519   3.257
 9035TIP3   OH227040   1.375   7.726   4.717
 9035TIP3    H127041   1.382   7.813   4.760
 9035TIP3    H227042   1.280   7.706   4.730
 9036TIP3   OH227043   2.470   6.744   3.396
 9036TIP3    H127044   2.388   6.764   3.446
 9036TIP3    H227045   2.483   6.827   3.346
 9037TIP3   OH227046   1.213   7.483   3.744
 9037TIP3    H127047   1.151   7.528   3.683
 9037TIP3    H227048   1.168   7.400   3.760
 9038TIP3   OH227049   1.005   7.869   4.659
 9038TIP3    H127050   0.944   7.848   4.586
 9038TIP3    H227051   1.041   7.781   4.683
 9039TIP3   OH227052   2.604   7.644   4.613
 9039TIP3    H127053   2.521   7.658   4.565
 9039TIP3    H227054   2.617   7.548   4.602
 9040TIP3   OH227055   1.198   8.068   4.653
 9040TIP3    H127056   1.253   8.032   4.726
 9040TIP3    H227057   1.126   8.002   4.649
 9041TIP3   OH227058   1.598   6.874   4.424
 9041TIP3    H127059   1.508   6.846   4.397
 9041TIP3    H227060   1.575   6.958   4.468
 9042TIP3   OH227061   2.132   6.990   4.617
 9042TIP3    H127062   2.200   6.964   4.682
 9042TIP3    H227063   2.048   6.971   4.664
 9043TIP3   OH227064   2.370   7.420   4.536
 9043TIP3    H127065   2.321   7.416   4.621
 9043TIP3    H227066   2.347   7.508   4.501
 9044TIP3   OH227067   2.029   7.530   3.092
 9044TIP3    H127068   2.002   7.513   3.000
 9044TIP3    H227069   2.076   7.615   3.082
 9045TIP3   OH227070   1.741   6.925   3.394
 9045TIP3    H127071   1.710   6.922   3.486
 9045TIP3    H227072   1.704   6.841   3.361
 9046TIP3   OH227073   1.527   7.393   4.439
 9046TIP3    H127074   1.480   7.415   4.522
 9046TIP3    H227075   1.512   7.474   4.386
 9047TIP3   OH227076   1.414   7.276   3.956
 9047TIP3    H127077   1.320   7.252   3.973
 9047TIP3    H227078   1.426   7.236   3.867
 9048TIP3   OH227079   1.905   7.360   3.683
 9048TIP3    H127080   1.852   7.431   3.641
 9048TIP3    H227081   1.960   7.330   3.608
 9049TIP3   OH227082   2.080   7.639   4.766
 9049TIP3    H127083   2.058   7.568   4.830
 9049TIP3    H227084   2.173   7.657   4.790
 9050TIP3   OH227085   2.061   7.392   3.923
 9050TIP3    H127086   2.001   7.423   3.852
 9050TIP3    H227087   2.093   7.310   3.879
 9051TIP3   OH227088   1.348   7.420   4.650
 9051TIP3    H127089   1.376   7.486   4.716
 9051TIP3    H227090   1.340   7.340   4.704
 9052TIP3   OH227091   1.395   6.896   3.360
 9052TIP3    H127092   1.389   6.894   3.458
 9052TIP3    H227093   1.319   6.953   3.338
 9053TIP3   OH227094   0.948   6.936   4.226
 9053TIP3    H127095   1.012   6.977   4.288
 9053TIP3    H227096   1.003   6.918   4.149
 9054TIP3   OH227097   0.935   6.943   3.766
 9054TIP3    H127098   0.970   6.971   3.679
 9054TIP3    H227099   0.863   7.008   3.776
 9055TIP3   OH227100   2.070   7.638   4.346
 9055TIP3    H127101   2.104   7.566   4.287
 9055TIP3    H227102   2.041   7.585   4.423
 9056TIP3   OH227103   1.739   7.098   4.017
 9056TIP3    H127104   1.658   7.098   4.070
 9056TIP3    H227105   1.808   7.100   4.085
 9057TIP3   OH227106   1.174   7.155   4.027
 9057TIP3    H127107   1.080   7.164   3.997
 9057TIP3    H227108   1.198   7.065   3.998
 9058TIP3   OH227109   1.444   7.149   3.713
 9058TIP3    H127110   1.538   7.167   3.693
 9058TIP3    H227111   1.398   7.173   3.630
 9059TIP3   OH227112   2.233   7.175   4.218
 9059TIP3    H127113   2.200   7.187   4.309
 9059TIP3    H227114   2.165   7.114   4.182
 9060TIP3   OH227115   1.286   7.181   3.492
 9060TIP3    H127116   1.213   7.141   3.441
 9060TIP3    H227117   1.338   7.221   3.419
 9061TIP3   OH227118   1.363   7.972   4.857
 9061TIP3    H127119   1.442   8.001   4.907
 9061TIP3    H227120   1.299   7.962   4.930
 9062TIP3   OH227121   1.823   7.426   4.113
 9062TIP3    H127122   1.898   7.390   4.063
 9062TIP3    H227123   1.834   7.385   4.201
 9063TIP3   OH227124   1.346   6.916   3.992
 9063TIP3    H127125   1.314   6.835   4.037
 9063TIP3    H227126   1.399   6.880   3.919
 9064TIP3   OH227127   1.799   7.322   4.408
 9064TIP3    H127128   1.711   7.362   4.419
 9064TIP3    H227129   1.858   7.385   4.456
 9065TIP3   OH227130   1.539   7.696   3.509
 9065TIP3    H127131   1.456   7.646   3.492
 9065TIP3    H227132   1.515   7.743   3.593
 9066TIP3   OH227133   2.439   7.947   4.132
 9066TIP3    H127134   2.466   7.996   4.051
 9066TIP3    H227135   2.353   7.907   4.105
 9067TIP3   OH227136   1.995   7.028   3.359
 9067TIP3    H127137   1.898   7.012   3.368
 9067TIP3    H227138   2.005   7.122   3.384
 9068TIP3   OH227139   1.950   8.053   4.496
 9068TIP3    H127140   1.971   8.002   4.576
 9068TIP3    H227141   1.870   8.099   4.524
 9069TIP3   OH227142   2.065   7.273   3.464
 9069TIP3    H127143   2.161   7.281   3.480
 9069TIP3    H227144   2.046   7.355   3.413
 9070TIP3   OH227145   1.206   7.691   4.164
 9070TIP3    H127146   1.260   7.684   4.082
 9070TIP3    H227147   1.266   7.656   4.231
 9071TIP3   OH227148   1.653   7.872   3.337
 9071TIP3    H127149   1.603   7.949   3.369
 9071TIP3    H227150   1.609   7.801   3.389
 9072TIP3   OH227151   1.112   7.651   4.789
 9072TIP3    H127152   1.132   7.640   4.885
 9072TIP3    H227153   1.042   7.586   4.778
 9073TIP3   OH227154   1.838   7.762   4.813
 9073TIP3    H127155   1.778   7.712   4.756
 9073TIP3    H227156   1.926   7.730   4.781
 9074TIP3   OH227157   2.507   7.365   3.301
 9074TIP3    H127158   2.446   7.320   3.239
 9074TIP3    H227159   2.503   7.455   3.261
 9075TIP3   OH227160   2.724   8.205   4.385
 9075TIP3    H127161   2.627   8.217   4.374
 9075TIP3    H227162   2.749   8.191   4.291
 9076TIP3   OH227163   2.202   7.818   4.039
 9076TIP3    H127164   2.110   7.791   4.058
 9076TIP3    H227165   2.236   7.734   4.000
 9077TIP3   OH227166   0.893   7.344   3.502
 9077TIP3    H127167   0.941   7.427   3.520
 9077TIP3    H227168   0.818   7.352   3.564
 9078TIP3   OH227169   1.472   7.813   3.747
 9078TIP3    H127170   1.437   7.900   3.767
 9078TIP3    H227171   1.437   7.760   3.822
 9079TIP3   OH227172   1.991   8.015   4.224
 9079TIP3    H127173   1.981   8.026   4.321
 9079TIP3    H227174   2.076   7.971   4.217
 9080TIP3   OH227175   1.986   7.837   3.074
 9080TIP3    H127176   2.022   7.829   3.165
 9080TIP3    H227177   1.908   7.896   3.090
 9081TIP3   OH227178   1.323   7.160   4.797
 9081TIP3    H127179   1.228   7.167   4.815
 9081TIP3    H227180   1.353   7.105   4.871
 9082TIP3   OH227181   2.119   7.803   3.309
 9082TIP3    H127182   2.117   7.748   3.390
 9082TIP3    H227183   2.213   7.828   3.306
 9083TIP3   OH227184   1.268   7.820   3.173
 9083TIP3    H127185   1.342   7.766   3.141
 9083TIP3    H227186   1.311   7.909   3.184
 9084TIP3   OH227187   1.015   7.584   3.580
 9084TIP3    H127188   0.953   7.625   3.644
 9084TIP3    H227189   1.023   7.656   3.514
 9085TIP3   OH227190   2.159   7.226   4.476
 9085TIP3    H127191   2.237   7.266   4.518
 9085TIP3    H227192   2.145   7.146   4.531
 9086TIP3   OH227193   2.038   6.979   3.642
 9086TIP3    H127194   2.025   7.002   3.548
 9086TIP3    H227195   2.077   7.061   3.679
 9087TIP3   OH227196   1.727   7.158   3.745
 9087TIP3    H127197   1.792   7.229   3.727
 9087TIP3    H227198   1.732   7.150   3.842
 9088TIP3   OH227199   1.996   7.476   4.553
 9088TIP3    H127200   2.018   7.533   4.630
 9088TIP3    H227201   2.052   7.399   4.568
 9089TIP3   OH227202   1.872   6.884   3.847
 9089TIP3    H127203   1.866   6.960   3.907
 9089TIP3    H227204   1.932   6.921   3.778
 9090TIP3   OH227205   1.384   6.883   3.637
 9090TIP3    H127206   1.381   6.974   3.672
 9090TIP3    H227207   1.480   6.866   3.645
 9091TIP3   OH227208   2.637   7.376   4.533
 9091TIP3    H127209   2.539   7.374   4.541
 9091TIP3    H227210   2.648   7.337   4.445
 9092TIP3   OH227211   2.288   7.572   3.923
 9092TIP3    H127212   2.212   7.512   3.935
 9092TIP3    H227213   2.360   7.524   3.970
 9093TIP3   OH227214   1.007   7.801   3.392
 9093TIP3    H127215   1.035   7.894   3.394
 9093TIP3    H227216   1.070   7.763   3.328
 9094TIP3   OH227217   0.945   7.074   3.525
 9094TIP3    H127218   0.949   7.172   3.522
 9094TIP3    H227219   0.863   7.057   3.480
 9095TIP3   OH227220   1.332   6.796   4.399
 9095TIP3    H127221   1.302   6.763   4.311
 9095TIP3    H227222   1.322   6.717   4.455
 9096TIP3   OH227223   1.159   7.939   5.035
 9096TIP3    H127224   1.181   7.844   5.046
 9096TIP3    H227225   1.068   7.934   4.998
 9097TIP3   OH227226   1.129   7.588   3.245
 9097TIP3    H127227   1.186   7.562   3.319
 9097TIP3    H227228   1.196   7.635   3.190
 9098TIP3   OH227229   1.784   8.029   4.851
 9098TIP3    H127230   1.747   8.041   4.761
 9098TIP3    H227231   1.817   7.938   4.845
 9099TIP3   OH227232   1.599   7.786   3.061
 9099TIP3    H127233   1.632   7.803   3.151
 9099TIP3    H227234   1.615   7.691   3.050
 9100TIP3   OH227235   2.258   8.044   4.426
 9100TIP3    H127236   2.324   8.104   4.385
 9100TIP3    H227237   2.180   8.101   4.425
 9101TIP3   OH227238   1.282   7.689   5.034
 9101TIP3    H127239   1.360   7.635   5.014
 9101TIP3    H227240   1.305   7.724   5.122
 9102TIP3   OH227241   1.332   7.512   3.463
 9102TIP3    H127242   1.314   7.469   3.549
 9102TIP3    H227243   1.374   7.440   3.412
 9103TIP3   OH227244   1.611   7.578   4.690
 9103TIP3    H127245   1.536   7.640   4.694
 9103TIP3    H227246   1.663   7.614   4.615
 9104TIP3   OH227247   1.445   7.308   3.309
 9104TIP3    H127248   1.418   7.310   3.215
 9104TIP3    H227249   1.542   7.316   3.301
 9105TIP3   OH227250   2.132   7.972   4.827
 9105TIP3    H127251   2.217   7.958   4.784
 9105TIP3    H227252   2.134   7.909   4.900
 9106TIP3   OH227253   2.276   7.647   2.959
 9106TIP3    H127254   2.240   7.594   2.886
 9106TIP3    H227255   2.246   7.736   2.932
 9107TIP3   OH227256   1.735   7.369   4.820
 9107TIP3    H127257   1.737   7.289   4.763
 9107TIP3    H227258   1.692   7.435   4.761
 9108TIP3   OH227259   1.738   7.153   4.627
 9108TIP3    H127260   1.766   7.197   4.544
 9108TIP3    H227261   1.645   7.132   4.608
 9109TIP3   OH227262   1.763   7.693   4.500
 9109TIP3    H127263   1.846   7.702   4.451
 9109TIP3    H227264   1.707   7.761   4.458
 9110TIP3   OH227265   2.347   7.659   4.881
 9110TIP3    H127266   2.400   7.578   4.893
 9110TIP3    H227267   2.413   7.722   4.852
 9111TIP3   OH227268   2.390   7.907   4.616
 9111TIP3    H127269   2.332   7.960   4.557
 9111TIP3    H227270   2.477   7.928   4.577
 9112TIP3   OH227271   1.613   7.481   5.050
 9112TIP3    H127272   1.544   7.414   5.065
 9112TIP3    H227273   1.648   7.454   4.963
 9113TIP3   OH227274   1.871   6.918   4.694
 9113TIP3    H127275   1.822   7.001   4.671
 9113TIP3    H227276   1.801   6.851   4.682
 9114TIP3   OH227277   1.998   7.423   4.910
 9114TIP3    H127278   1.988   7.412   5.007
 9114TIP3    H227279   1.907   7.399   4.882
 9115TIP3   OH227280   2.235   7.368   4.763
 9115TIP3    H127281   2.161   7.374   4.827
 9115TIP3    H227282   2.309   7.341   4.821
 9116TIP3   OH227283   2.464   7.312   4.915
 9116TIP3    H127284   2.477   7.217   4.935
 9116TIP3    H227285   2.460   7.352   5.005
 9117TIP3   OH227286   1.451   7.261   5.103
 9117TIP3    H127287   1.463   7.170   5.069
 9117TIP3    H227288   1.487   7.252   5.193
 9118TIP3   OH227289   1.964   6.927   4.952
 9118TIP3    H127290   2.033   6.858   4.946
 9118TIP3    H227291   1.926   6.922   4.863
 9119TIP3   OH227292   2.030   7.143   5.111
 9119TIP3    H127293   2.008   7.073   5.046
 9119TIP3    H227294   1.952   7.203   5.104
 9120TIP3   OH227295   0.739   7.717   3.418
 9120TIP3    H127296   0.827   7.753   3.396
 9120TIP3    H227297   0.735   7.635   3.365
 9121TIP3   OH227298   2.612   8.334   4.657
 9121TIP3    H127299   2.535   8.315   4.716
 9121TIP3    H227300   2.655   8.406   4.704
 9122TIP3   OH227301   2.398   7.823   3.306
 9122TIP3    H127302   2.471   7.882   3.278
 9122TIP3    H227303   2.438   7.783   3.386
 9123TIP3   OH227304   2.527   7.691   3.506
 9123TIP3    H127305   2.463   7.651   3.568
 9123TIP3    H227306   2.595   7.729   3.566
 9124TIP3   OH227307   2.569   8.081   3.936
 9124TIP3    H127308   2.633   8.028   3.885
 9124TIP3    H227309   2.567   8.165   3.888
 9125TIP3   OH227310   2.466   7.602   3.152
 9125TIP3    H127311   2.396   7.608   3.083
 9125TIP3    H227312   2.439   7.677   3.209
 9126TIP3   OH227313   2.341   7.275   3.107
 9126TIP3    H127314   2.292   7.317   3.036
 9126TIP3    H227315   2.315   7.181   3.096
 9127TIP3   OH227316   2.343   7.551   3.655
 9127TIP3    H127317   2.352   7.455   3.648
 9127TIP3    H227318   2.330   7.564   3.751
 9128TIP3   OH227319   0.969   7.630   4.400
 9128TIP3    H127320   0.968   7.599   4.307
 9128TIP3    H227321   1.066   7.631   4.416
 9129TIP3   OH227322   2.630   7.973   4.510
 9129TIP3    H127323   2.705   7.910   4.501
 9129TIP3    H227324   2.658   8.046   4.451
 9130TIP3   OH227325   2.819   7.782   4.525
 9130TIP3    H127326   2.744   7.733   4.565
 9130TIP3    H227327   2.891   7.717   4.540
 9131TIP3   OH227328   2.282   7.009   3.091
 9131TIP3    H127329   2.357   6.980   3.147
 9131TIP3    H227330   2.209   6.950   3.119
 9132TIP3   OH227331   2.339   7.268   3.548
 9132TIP3    H127332   2.380   7.179   3.563
 9132TIP3    H227333   2.398   7.301   3.478
 9133TIP3   OH227334   2.501   7.442   4.042
 9133TIP3    H127335   2.587   7.468   4.002
 9133TIP3    H227336   2.514   7.479   4.132
 9134TIP3   OH227337   2.569   7.585   4.274
 9134TIP3    H127338   2.492   7.620   4.323
 9134TIP3    H227339   2.602   7.667   4.230
 9135TIP3   OH227340   1.185   7.307   5.062
 9135TIP3    H127341   1.282   7.306   5.072
 9135TIP3    H227342   1.162   7.226   5.112
 9136TIP3   OH227343   3.022   7.177   4.831
 9136TIP3    H127344   3.080   7.111   4.787
 9136TIP3    H227345   2.993   7.231   4.755
 9137TIP3   OH227346   2.448   7.018   3.585
 9137TIP3    H127347   2.497   7.002   3.669
 9137TIP3    H227348   2.388   6.941   3.584
 9138TIP3   OH227349   1.146   7.004   4.406
 9138TIP3    H127350   1.210   6.931   4.415
 9138TIP3    H227351   1.207   7.080   4.398
 9139TIP3   OH227352   0.951   7.276   4.479
 9139TIP3    H127353   1.000   7.273   4.394
 9139TIP3    H227354   0.978   7.362   4.513
 9140TIP3   OH227355   2.893   7.317   4.637
 9140TIP3    H127356   2.808   7.358   4.661
 9140TIP3    H227357   2.860   7.246   4.578
 9141TIP3   OH227358   2.529   6.953   3.217
 9141TIP3    H127359   2.570   6.881   3.165
 9141TIP3    H227360   2.596   7.023   3.212
 9142TIP3   OH227361   0.926   6.762   3.963
 9142TIP3    H127362   0.846   6.790   4.010
 9142TIP3    H227363   0.936   6.833   3.895
 9143TIP3   OH227364   1.152   6.855   4.791
 9143TIP3    H127365   1.104   6.859   4.875
 9143TIP3    H227366   1.089   6.899   4.731
 9144TIP3   OH227367   2.791   7.080   4.514
 9144TIP3    H127368   2.700   7.075   4.480
 9144TIP3    H227369   2.821   6.987   4.502
 9145TIP3   OH227370   1.996   6.994   4.131
 9145TIP3    H127371   1.952   6.925   4.184
 9145TIP3    H227372   2.070   6.946   4.089
 9146TIP3   OH227373   2.519   6.873   4.038
 9146TIP3    H127374   2.556   6.926   3.964
 9146TIP3    H227375   2.424   6.893   4.032
 9147TIP3   OH227376   2.614   6.974   3.802
 9147TIP3    H127377   2.687   6.923   3.762
 9147TIP3    H227378   2.647   7.066   3.788
 9148TIP3   OH227379   1.244   6.703   4.150
 9148TIP3    H127380   1.152   6.668   4.151
 9148TIP3    H227381   1.294   6.619   4.146
 9149TIP3   OH227382   1.031   6.570   3.797
 9149TIP3    H127383   1.055   6.626   3.722
 9149TIP3    H227384   1.002   6.639   3.862
 9150TIP3   OH227385   1.687   6.735   4.031
 9150TIP3    H127386   1.744   6.784   3.970
 9150TIP3    H227387   1.712   6.775   4.116
 9151TIP3   OH227388   2.234   6.882   4.014
 9151TIP3    H127389   2.235   6.845   3.925
 9151TIP3    H227390   2.221   6.801   4.069
 9152TIP3   OH227391   2.265   6.804   3.576
 9152TIP3    H127392   2.178   6.847   3.588
 9152TIP3    H227393   2.250   6.719   3.623
 9153TIP3   OH227394   1.148   6.732   3.558
 9153TIP3    H127395   1.199   6.671   3.502
 9153TIP3    H227396   1.220   6.787   3.596
 9154TIP3   OH227397   1.661   6.907   3.660
 9154TIP3    H127398   1.722   6.861   3.720
 9154TIP3    H227399   1.681   7.000   3.685
 9155TIP3   OH227400   1.453   6.980   5.036
 9155TIP3    H127401   1.418   6.914   5.097
 9155TIP3    H227402   1.547   6.983   5.065
 9156TIP3   OH227403   1.700   6.979   5.158
 9156TIP3    H127404   1.787   6.959   5.120
 9156TIP3    H227405   1.692   6.908   5.225
 9157TIP3   OH227406   2.526   7.041   4.948
 9157TIP3    H127407   2.545   7.010   5.039
 9157TIP3    H227408   2.615   7.037   4.906
 9158TIP3   OH227409   3.731   7.958   3.214
 9158TIP3    H127410   3.700   8.046   3.184
 9158TIP3    H227411   3.660   7.903   3.176
 9159TIP3   OH227412   3.735   7.966   3.585
 9159TIP3    H127413   3.763   7.936   3.673
 9159TIP3    H227414   3.691   7.888   3.549
 9160TIP3   OH227415   3.030   7.863   3.951
 9160TIP3    H127416   3.062   7.796   4.014
 9160TIP3    H227417   3.105   7.925   3.950
 9161TIP3   OH227418   3.956   8.267   3.279
 9161TIP3    H127419   3.956   8.196   3.344
 9161TIP3    H227420   3.992   8.341   3.329
 9162TIP3   OH227421   3.061   8.213   3.756
 9162TIP3    H127422   3.029   8.129   3.720
 9162TIP3    H227423   3.142   8.228   3.701
 9163TIP3   OH227424   2.709   7.473   3.463
 9163TIP3    H127425   2.664   7.558   3.478
 9163TIP3    H227426   2.637   7.422   3.422
 9164TIP3   OH227427   2.763   7.760   3.632
 9164TIP3    H127428   2.813   7.683   3.668
 9164TIP3    H227429   2.830   7.806   3.581
 9165TIP3   OH227430   3.545   8.185   3.629
 9165TIP3    H127431   3.590   8.108   3.591
 9165TIP3    H227432   3.624   8.237   3.656
 9166TIP3   OH227433   4.541   7.514   3.634
 9166TIP3    H127434   4.572   7.596   3.678
 9166TIP3    H227435   4.555   7.536   3.541
 9167TIP3   OH227436   3.942   7.695   3.668
 9167TIP3    H127437   3.984   7.609   3.687
 9167TIP3    H227438   3.911   7.680   3.577
 9168TIP3   OH227439   3.280   7.354   3.633
 9168TIP3    H127440   3.259   7.426   3.570
 9168TIP3    H227441   3.232   7.280   3.589
 9169TIP3   OH227442   3.973   7.446   3.255
 9169TIP3    H127443   4.046   7.429   3.320
 9169TIP3    H227444   4.025   7.480   3.181
 9170TIP3   OH227445   2.913   7.556   3.740
 9170TIP3    H127446   2.996   7.536   3.788
 9170TIP3    H227447   2.926   7.501   3.660
 9171TIP3   OH227448   3.353   7.754   3.532
 9171TIP3    H127449   3.447   7.728   3.545
 9171TIP3    H227450   3.313   7.670   3.500
 9172TIP3   OH227451   4.616   7.721   3.803
 9172TIP3    H127452   4.532   7.768   3.784
 9172TIP3    H227453   4.630   7.746   3.895
 9173TIP3   OH227454   3.277   7.338   4.068
 9173TIP3    H127455   3.217   7.374   4.000
 9173TIP3    H227456   3.225   7.355   4.149
 9174TIP3   OH227457   3.630   8.162   3.062
 9174TIP3    H127458   3.578   8.135   2.985
 9174TIP3    H227459   3.594   8.250   3.078
 9175TIP3   OH227460   3.380   8.118   3.864
 9175TIP3    H127461   3.311   8.178   3.897
 9175TIP3    H227462   3.413   8.167   3.785
 9176TIP3   OH227463   4.184   7.447   3.426
 9176TIP3    H127464   4.174   7.397   3.508
 9176TIP3    H227465   4.237   7.523   3.455
 9177TIP3   OH227466   3.147   7.452   3.852
 9177TIP3    H127467   3.209   7.525   3.874
 9177TIP3    H227468   3.196   7.412   3.776
 9178TIP3   OH227469   3.209   8.331   3.968
 9178TIP3    H127470   3.167   8.326   3.880
 9178TIP3    H227471   3.130   8.324   4.025
 9179TIP3   OH227472   2.613   7.965   3.209
 9179TIP3    H127473   2.575   7.982   3.121
 9179TIP3    H227474   2.627   8.057   3.236
 9180TIP3   OH227475   4.336   7.411   3.801
 9180TIP3    H127476   4.248   7.439   3.770
 9180TIP3    H227477   4.394   7.443   3.729
 9181TIP3   OH227478   3.635   7.056   3.784
 9181TIP3    H127479   3.617   6.960   3.796
 9181TIP3    H227480   3.556   7.094   3.828
 9182TIP3   OH227481   3.977   8.262   3.003
 9182TIP3    H127482   3.909   8.197   2.981
 9182TIP3    H227483   3.984   8.255   3.100
 9183TIP3   OH227484   4.265   8.426   3.780
 9183TIP3    H127485   4.255   8.344   3.727
 9183TIP3    H227486   4.272   8.494   3.711
 9184TIP3   OH227487   3.568   7.817   3.041
 9184TIP3    H127488   3.482   7.863   3.025
 9184TIP3    H227489   3.606   7.816   2.951
 9185TIP3   OH227490   3.523   7.601   2.756
 9185TIP3    H127491   3.591   7.654   2.803
 9185TIP3    H227492   3.581   7.539   2.707
 9186TIP3   OH227493   4.468   8.061   3.623
 9186TIP3    H127494   4.384   8.112   3.631
 9186TIP3    H227495   4.496   8.088   3.533
 9187TIP3   OH227496   3.910   7.897   3.016
 9187TIP3    H127497   3.854   7.918   3.094
 9187TIP3    H227498   3.994   7.872   3.059
 9188TIP3   OH227499   4.145   7.940   3.920
 9188TIP3    H127500   4.143   8.024   3.970
 9188TIP3    H227501   4.058   7.944   3.876
 9189TIP3   OH227502   3.146   7.900   3.418
 9189TIP3    H127503   3.103   7.841   3.353
 9189TIP3    H227504   3.223   7.846   3.448
 9190TIP3   OH227505   3.281   8.269   3.618
 9190TIP3    H127506   3.244   8.264   3.529
 9190TIP3    H227507   3.378   8.266   3.603
 9191TIP3   OH227508   3.279   7.873   3.778
 9191TIP3    H127509   3.312   7.851   3.688
 9191TIP3    H227510   3.321   7.959   3.797
 9192TIP3   OH227511   3.455   8.332   4.102
 9192TIP3    H127512   3.418   8.419   4.127
 9192TIP3    H227513   3.381   8.300   4.048
 9193TIP3   OH227514   3.751   7.757   2.836
 9193TIP3    H127515   3.808   7.820   2.885
 9193TIP3    H227516   3.780   7.775   2.743
 9194TIP3   OH227517   3.171   7.983   4.202
 9194TIP3    H127518   3.176   8.069   4.247
 9194TIP3    H227519   3.076   7.962   4.216
 9195TIP3   OH227520   4.266   7.000   2.883
 9195TIP3    H127521   4.184   7.019   2.933
 9195TIP3    H227522   4.280   7.084   2.835
 9196TIP3   OH227523   3.008   7.741   3.234
 9196TIP3    H127524   2.947   7.785   3.171
 9196TIP3    H227525   2.964   7.656   3.246
 9197TIP3   OH227526   2.805   8.124   4.137
 9197TIP3    H127527   2.733   8.108   4.074
 9197TIP3    H227528   2.834   8.034   4.162
 9198TIP3   OH227529   4.400   7.901   4.099
 9198TIP3    H127530   4.316   7.914   4.051
 9198TIP3    H227531   4.414   7.805   4.089
 9199TIP3   OH227532   2.995   8.325   4.141
 9199TIP3    H127533   3.048   8.285   4.214
 9199TIP3    H227534   2.922   8.259   4.132
 9200TIP3   OH227535   3.394   7.132   3.909
 9200TIP3    H127536   3.305   7.101   3.883
 9200TIP3    H227537   3.369   7.215   3.955
 9201TIP3   OH227538   3.928   7.247   4.102
 9201TIP3    H127539   3.996   7.220   4.167
 9201TIP3    H227540   3.844   7.230   4.149
 9202TIP3   OH227541   4.167   7.677   4.023
 9202TIP3    H127542   4.117   7.673   4.108
 9202TIP3    H227543   4.142   7.764   3.988
 9203TIP3   OH227544   3.828   7.787   2.580
 9203TIP3    H127545   3.798   7.768   2.489
 9203TIP3    H227546   3.872   7.873   2.566
 9204TIP3   OH227547   3.540   7.180   2.881
 9204TIP3    H127548   3.505   7.177   2.972
 9204TIP3    H227549   3.500   7.098   2.846
 9205TIP3   OH227550   3.326   7.649   3.927
 9205TIP3    H127551   3.274   7.669   4.009
 9205TIP3    H227552   3.308   7.731   3.874
 9206TIP3   OH227553   3.210   7.533   3.442
 9206TIP3    H127554   3.116   7.509   3.460
 9206TIP3    H227555   3.222   7.494   3.353
 9207TIP3   OH227556   3.702   7.619   3.171
 9207TIP3    H127557   3.648   7.689   3.128
 9207TIP3    H227558   3.755   7.587   3.096
 9208TIP3   OH227559   3.877   7.896   4.254
 9208TIP3    H127560   3.854   7.825   4.318
 9208TIP3    H227561   3.970   7.912   4.278
 9209TIP3   OH227562   3.858   7.649   3.409
 9209TIP3    H127563   3.797   7.678   3.338
 9209TIP3    H227564   3.891   7.567   3.366
 9210TIP3   OH227565   3.146   7.676   4.136
 9210TIP3    H127566   3.166   7.742   4.205
 9210TIP3    H227567   3.133   7.595   4.189
 9211TIP3   OH227568   3.193   7.154   2.847
 9211TIP3    H127569   3.185   7.151   2.944
 9211TIP3    H227570   3.116   7.208   2.823
 9212TIP3   OH227571   2.737   7.198   3.718
 9212TIP3    H127572   2.813   7.231   3.771
 9212TIP3    H227573   2.778   7.168   3.636
 9213TIP3   OH227574   2.711   7.180   3.237
 9213TIP3    H127575   2.756   7.218   3.159
 9213TIP3    H227576   2.650   7.253   3.258
 9214TIP3   OH227577   3.869   7.895   3.833
 9214TIP3    H127578   3.902   7.823   3.774
 9214TIP3    H227579   3.839   7.842   3.909
 9215TIP3   OH227580   3.537   7.356   3.504
 9215TIP3    H127581   3.453   7.354   3.554
 9215TIP3    H227582   3.603   7.356   3.576
 9216TIP3   OH227583   2.971   7.412   3.513
 9216TIP3    H127584   2.876   7.420   3.485
 9216TIP3    H227585   2.993   7.321   3.488
 9217TIP3   OH227586   3.241   7.408   3.200
 9217TIP3    H127587   3.334   7.424   3.176
 9217TIP3    H227588   3.192   7.430   3.117
 9218TIP3   OH227589   4.029   7.431   3.705
 9218TIP3    H127590   3.994   7.444   3.796
 9218TIP3    H227591   3.962   7.370   3.669
 9219TIP3   OH227592   3.082   7.439   2.980
 9219TIP3    H127593   3.009   7.397   2.930
 9219TIP3    H227594   3.134   7.477   2.906
 9220TIP3   OH227595   3.160   8.229   4.345
 9220TIP3    H127596   3.237   8.257   4.397
 9220TIP3    H227597   3.094   8.217   4.417
 9221TIP3   OH227598   3.620   7.685   3.602
 9221TIP3    H127599   3.691   7.644   3.551
 9221TIP3    H227600   3.628   7.641   3.688
 9222TIP3   OH227601   3.144   7.171   3.480
 9222TIP3    H127602   3.109   7.092   3.525
 9222TIP3    H227603   3.191   7.132   3.405
 9223TIP3   OH227604   3.596   7.580   3.893
 9223TIP3    H127605   3.506   7.616   3.905
 9223TIP3    H227606   3.652   7.642   3.942
 9224TIP3   OH227607   3.336   7.953   2.999
 9224TIP3    H127608   3.255   7.901   2.979
 9224TIP3    H227609   3.310   7.999   3.082
 9225TIP3   OH227610   4.234   8.204   3.620
 9225TIP3    H127611   4.261   8.252   3.538
 9225TIP3    H227612   4.149   8.163   3.593
 9226TIP3   OH227613   3.791   7.283   2.849
 9226TIP3    H127614   3.695   7.266   2.856
 9226TIP3    H227615   3.799   7.378   2.872
 9227TIP3   OH227616   3.747   8.312   3.983
 9227TIP3    H127617   3.768   8.255   4.059
 9227TIP3    H227618   3.663   8.351   4.013
 9228TIP3   OH227619   3.861   7.531   2.952
 9228TIP3    H127620   3.957   7.539   2.966
 9228TIP3    H227621   3.840   7.611   2.899
 9229TIP3   OH227622   3.007   7.957   3.652
 9229TIP3    H127623   3.058   7.943   3.569
 9229TIP3    H227624   3.060   7.909   3.718
 9230TIP3   OH227625   3.450   8.133   2.828
 9230TIP3    H127626   3.405   8.205   2.876
 9230TIP3    H227627   3.406   8.056   2.870
 9231TIP3   OH227628   2.909   7.905   4.275
 9231TIP3    H127629   2.924   7.892   4.371
 9231TIP3    H227630   2.836   7.843   4.259
 9232TIP3   OH227631   3.634   8.020   4.299
 9232TIP3    H127632   3.571   7.968   4.246
 9232TIP3    H227633   3.720   7.986   4.266
 9233TIP3   OH227634   4.306   7.622   2.786
 9233TIP3    H127635   4.244   7.576   2.725
 9233TIP3    H227636   4.300   7.711   2.746
 9234TIP3   OH227637   4.520   8.464   3.870
 9234TIP3    H127638   4.423   8.473   3.859
 9234TIP3    H227639   4.546   8.448   3.777
 9235TIP3   OH227640   3.998   8.074   3.526
 9235TIP3    H127641   3.906   8.047   3.545
 9235TIP3    H227642   4.033   7.991   3.487
 9236TIP3   OH227643   2.689   7.600   2.988
 9236TIP3    H127644   2.736   7.684   3.007
 9236TIP3    H227645   2.613   7.608   3.050
 9237TIP3   OH227646   3.269   8.076   3.238
 9237TIP3    H127647   3.220   8.156   3.261
 9237TIP3    H227648   3.238   8.016   3.309
 9238TIP3   OH227649   3.788   8.275   3.710
 9238TIP3    H127650   3.778   8.284   3.807
 9238TIP3    H227651   3.869   8.224   3.702
 9239TIP3   OH227652   3.788   8.091   2.561
 9239TIP3    H127653   3.821   8.085   2.653
 9239TIP3    H227654   3.708   8.147   2.572
 9240TIP3   OH227655   3.117   7.419   4.284
 9240TIP3    H127656   3.021   7.424   4.297
 9240TIP3    H227657   3.144   7.359   4.355
 9241TIP3   OH227658   3.915   8.064   2.800
 9241TIP3    H127659   3.914   8.004   2.878
 9241TIP3    H227660   4.010   8.085   2.794
 9242TIP3   OH227661   3.092   8.082   2.670
 9242TIP3    H127662   3.131   8.045   2.590
 9242TIP3    H227663   3.110   8.176   2.652
 9243TIP3   OH227664   2.812   7.841   3.067
 9243TIP3    H127665   2.748   7.881   3.130
 9243TIP3    H227666   2.820   7.913   3.001
 9244TIP3   OH227667   3.955   7.484   3.963
 9244TIP3    H127668   4.034   7.523   4.004
 9244TIP3    H227669   3.941   7.403   4.017
 9245TIP3   OH227670   3.834   7.235   3.129
 9245TIP3    H127671   3.819   7.257   3.035
 9245TIP3    H227672   3.872   7.318   3.164
 9246TIP3   OH227673   3.525   7.414   3.232
 9246TIP3    H127674   3.589   7.486   3.214
 9246TIP3    H227675   3.529   7.408   3.329
 9247TIP3   OH227676   3.792   7.734   4.039
 9247TIP3    H127677   3.813   7.789   4.117
 9247TIP3    H227678   3.847   7.655   4.054
 9248TIP3   OH227679   3.668   7.143   3.335
 9248TIP3    H127680   3.657   7.222   3.391
 9248TIP3    H227681   3.728   7.178   3.266
 9249TIP3   OH227682   3.179   7.140   3.124
 9249TIP3    H127683   3.177   7.231   3.159
 9249TIP3    H227684   3.275   7.122   3.132
 9250TIP3   OH227685   4.434   7.633   4.019
 9250TIP3    H127686   4.336   7.632   4.028
 9250TIP3    H227687   4.443   7.591   3.932
 9251TIP3   OH227688   4.084   7.829   3.410
 9251TIP3    H127689   4.008   7.769   3.420
 9251TIP3    H227690   4.155   7.780   3.457
 9252TIP3   OH227691   2.802   8.054   2.881
 9252TIP3    H127692   2.828   8.147   2.877
 9252TIP3    H227693   2.861   8.014   2.814
 9253TIP3   OH227694   2.741   7.331   3.012
 9253TIP3    H127695   2.742   7.429   3.008
 9253TIP3    H227696   2.656   7.311   2.971
 9254TIP3   OH227697   3.130   7.052   3.885
 9254TIP3    H127698   3.098   7.019   3.798
 9254TIP3    H227699   3.119   6.974   3.942
 9255TIP3   OH227700   2.956   8.199   4.523
 9255TIP3    H127701   2.976   8.103   4.531
 9255TIP3    H227702   2.866   8.197   4.486
 9256TIP3   OH227703   2.931   7.859   2.724
 9256TIP3    H127704   2.985   7.819   2.793
 9256TIP3    H227705   2.999   7.915   2.681
 9257TIP3   OH227706   3.579   8.286   4.338
 9257TIP3    H127707   3.543   8.298   4.248
 9257TIP3    H227708   3.613   8.194   4.332
 9258TIP3   OH227709   3.417   8.042   2.540
 9258TIP3    H127710   3.412   8.051   2.636
 9258TIP3    H227711   3.412   7.945   2.528
 9259TIP3   OH227712   4.056   8.300   3.914
 9259TIP3    H127713   4.119   8.363   3.873
 9259TIP3    H227714   3.974   8.353   3.912
 9260TIP3   OH227715   3.078   7.949   4.520
 9260TIP3    H127716   3.150   7.888   4.502
 9260TIP3    H227717   3.102   7.982   4.609
 9261TIP3   OH227718   3.134   7.768   2.954
 9261TIP3    H127719   3.109   7.720   3.035
 9261TIP3    H227720   3.173   7.697   2.899
 9262TIP3   OH227721   3.411   7.839   4.182
 9262TIP3    H127722   3.331   7.896   4.183
 9262TIP3    H227723   3.459   7.873   4.103
 9263TIP3   OH227724   3.241   7.565   2.796
 9263TIP3    H127725   3.212   7.563   2.702
 9263TIP3    H227726   3.338   7.573   2.786
 9264TIP3   OH227727   3.930   8.231   4.315
 9264TIP3    H127728   4.013   8.213   4.270
 9264TIP3    H227729   3.929   8.165   4.387
 9265TIP3   OH227730   4.073   7.907   2.447
 9265TIP3    H127731   4.039   7.853   2.373
 9265TIP3    H227732   4.044   7.995   2.417
 9266TIP3   OH227733   3.534   7.626   4.306
 9266TIP3    H127734   3.531   7.546   4.250
 9266TIP3    H227735   3.489   7.692   4.249
 9267TIP3   OH227736   3.536   7.409   4.114
 9267TIP3    H127737   3.562   7.452   4.030
 9267TIP3    H227738   3.442   7.387   4.096
 9268TIP3   OH227739   3.561   7.952   3.987
 9268TIP3    H127740   3.641   7.957   3.934
 9268TIP3    H227741   3.503   8.019   3.944
 9269TIP3   OH227742   4.143   7.915   4.368
 9269TIP3    H127743   4.195   7.834   4.381
 9269TIP3    H227744   4.210   7.978   4.338
 9270TIP3   OH227745   4.187   8.164   4.105
 9270TIP3    H127746   4.130   8.217   4.044
 9270TIP3    H227747   4.275   8.184   4.065
 9271TIP3   OH227748   3.412   7.737   4.538
 9271TIP3    H127749   3.342   7.670   4.553
 9271TIP3    H227750   3.445   7.712   4.449
 9272TIP3   OH227751   3.668   7.175   4.183
 9272TIP3    H127752   3.620   7.257   4.159
 9272TIP3    H227753   3.598   7.107   4.170
 9273TIP3   OH227754   3.794   7.680   4.397
 9273TIP3    H127755   3.781   7.668   4.493
 9273TIP3    H227756   3.704   7.656   4.366
 9274TIP3   OH227757   4.031   7.626   4.251
 9274TIP3    H127758   3.957   7.631   4.314
 9274TIP3    H227759   4.105   7.598   4.308
 9275TIP3   OH227760   4.260   7.568   4.402
 9275TIP3    H127761   4.272   7.473   4.422
 9275TIP3    H227762   4.256   7.609   4.491
 9276TIP3   OH227763   3.250   7.518   4.589
 9276TIP3    H127764   3.254   7.426   4.556
 9276TIP3    H227765   3.285   7.506   4.680
 9277TIP3   OH227766   3.760   7.189   4.440
 9277TIP3    H127767   3.840   7.139   4.424
 9277TIP3    H227768   3.714   7.182   4.354
 9278TIP3   OH227769   3.826   7.402   4.599
 9278TIP3    H127770   3.799   7.332   4.535
 9278TIP3    H227771   3.750   7.463   4.595
 9279TIP3   OH227772   2.531   7.974   2.911
 9279TIP3    H127773   2.617   8.013   2.886
 9279TIP3    H227774   2.531   7.891   2.858
 9280TIP3   OH227775   4.405   8.596   4.142
 9280TIP3    H127776   4.329   8.574   4.202
 9280TIP3    H227777   4.456   8.657   4.197
 9281TIP3   OH227778   4.194   8.080   2.794
 9281TIP3    H127779   4.267   8.139   2.766
 9281TIP3    H227780   4.235   8.039   2.873
 9282TIP3   OH227781   4.324   7.948   2.993
 9282TIP3    H127782   4.259   7.906   3.054
 9282TIP3    H227783   4.390   7.986   3.055
 9283TIP3   OH227784   4.366   8.338   3.424
 9283TIP3    H127785   4.430   8.282   3.374
 9283TIP3    H227786   4.364   8.420   3.373
 9284TIP3   OH227787   4.262   7.859   2.639
 9284TIP3    H127788   4.192   7.864   2.569
 9284TIP3    H227789   4.233   7.934   2.694
 9285TIP3   OH227790   4.139   7.531   2.593
 9285TIP3    H127791   4.088   7.574   2.524
 9285TIP3    H227792   4.111   7.437   2.581
 9286TIP3   OH227793   4.140   7.807   3.142
 9286TIP3    H127794   4.146   7.710   3.133
 9286TIP3    H227795   4.126   7.819   3.238
 9287TIP3   OH227796   2.766   7.883   3.886
 9287TIP3    H127797   2.763   7.853   3.793
 9287TIP3    H227798   2.863   7.885   3.902
 9288TIP3   OH227799   4.427   8.230   3.996
 9288TIP3    H127800   4.501   8.166   3.988
 9288TIP3    H227801   4.455   8.302   3.936
 9289TIP3   OH227802   4.616   8.039   4.012
 9289TIP3    H127803   4.541   7.989   4.051
 9289TIP3    H227804   4.688   7.974   4.027
 9290TIP3   OH227805   4.078   7.265   2.581
 9290TIP3    H127806   4.148   7.233   2.641
 9290TIP3    H227807   4.001   7.208   2.603
 9291TIP3   OH227808   4.137   7.525   3.036
 9291TIP3    H127809   4.177   7.436   3.051
 9291TIP3    H227810   4.194   7.556   2.964
 9292TIP3   OH227811   4.297   7.698   3.529
 9292TIP3    H127812   4.383   7.724   3.489
 9292TIP3    H227813   4.310   7.735   3.619
 9293TIP3   OH227814   4.366   7.842   3.761
 9293TIP3    H127815   4.288   7.876   3.810
 9293TIP3    H227816   4.398   7.924   3.717
 9294TIP3   OH227817   2.983   7.568   4.559
 9294TIP3    H127818   3.081   7.562   4.562
 9294TIP3    H227819   2.959   7.483   4.602
 9295TIP3   OH227820   4.815   7.431   4.317
 9295TIP3    H127821   4.876   7.366   4.275
 9295TIP3    H227822   4.790   7.487   4.241
 9296TIP3   OH227823   4.246   7.274   3.071
 9296TIP3    H127824   4.293   7.257   3.156
 9296TIP3    H227825   4.184   7.197   3.070
 9297TIP3   OH227826   2.944   7.260   3.891
 9297TIP3    H127827   3.007   7.186   3.901
 9297TIP3    H227828   3.006   7.335   3.885
 9298TIP3   OH227829   2.747   7.534   3.965
 9298TIP3    H127830   2.796   7.529   3.881
 9298TIP3    H227831   2.774   7.621   3.998
 9299TIP3   OH227832   4.690   7.574   4.123
 9299TIP3    H127833   4.604   7.615   4.147
 9299TIP3    H227834   4.658   7.502   4.065
 9300TIP3   OH227835   4.330   7.208   2.707
 9300TIP3    H127836   4.363   7.138   2.648
 9300TIP3    H227837   4.393   7.281   2.691
 9301TIP3   OH227838   2.730   7.038   3.466
 9301TIP3    H127839   2.637   7.035   3.492
 9301TIP3    H227840   2.728   7.097   3.387
 9302TIP3   OH227841   2.951   7.117   4.279
 9302TIP3    H127842   2.901   7.113   4.362
 9302TIP3    H227843   2.885   7.156   4.219
 9303TIP3   OH227844   4.588   7.336   4.002
 9303TIP3    H127845   4.498   7.331   3.964
 9303TIP3    H227846   4.619   7.244   3.989
 9304TIP3   OH227847   3.795   7.252   3.624
 9304TIP3    H127848   3.749   7.182   3.673
 9304TIP3    H227849   3.863   7.203   3.575
 9305TIP3   OH227850   4.315   7.133   3.529
 9305TIP3    H127851   4.352   7.183   3.452
 9305TIP3    H227852   4.219   7.148   3.518
 9306TIP3   OH227853   4.409   7.232   3.291
 9306TIP3    H127854   4.481   7.180   3.250
 9306TIP3    H227855   4.442   7.323   3.276
 9307TIP3   OH227856   3.040   6.960   3.636
 9307TIP3    H127857   2.948   6.927   3.638
 9307TIP3    H227858   3.089   6.875   3.633
 9308TIP3   OH227859   2.826   6.829   3.284
 9308TIP3    H127860   2.857   6.887   3.211
 9308TIP3    H227861   2.799   6.895   3.351
 9309TIP3   OH227862   3.484   6.991   3.516
 9309TIP3    H127863   3.543   7.041   3.457
 9309TIP3    H227864   3.502   7.033   3.601
 9310TIP3   OH227865   4.032   7.139   3.499
 9310TIP3    H127866   4.030   7.101   3.410
 9310TIP3    H227867   4.019   7.059   3.555
 9311TIP3   OH227868   4.061   7.061   3.063
 9311TIP3    H127869   3.974   7.103   3.073
 9311TIP3    H227870   4.047   6.976   3.109
 9312TIP3   OH227871   2.944   6.989   3.048
 9312TIP3    H127872   2.992   6.926   2.990
 9312TIP3    H227873   3.017   7.043   3.083
 9313TIP3   OH227874   3.457   7.164   3.146
 9313TIP3    H127875   3.516   7.116   3.206
 9313TIP3    H227876   3.479   7.256   3.172
 9314TIP3   OH227877   3.249   7.242   4.528
 9314TIP3    H127878   3.213   7.171   4.584
 9314TIP3    H227879   3.343   7.241   4.556
 9315TIP3   OH227880   3.498   7.238   4.648
 9315TIP3    H127881   3.581   7.208   4.609
 9315TIP3    H227882   3.482   7.168   4.715
 9316TIP3   OH227883   4.320   7.294   4.434
 9316TIP3    H127884   4.343   7.266   4.525
 9316TIP3    H227885   4.407   7.294   4.390
 9317TIP3   OH227886   5.528   8.213   2.702
 9317TIP3    H127887   5.497   8.301   2.673
 9317TIP3    H227888   5.457   8.159   2.664
 9318TIP3   OH227889   5.528   8.223   3.073
 9318TIP3    H127890   5.559   8.194   3.160
 9318TIP3    H227891   5.487   8.142   3.038
 9319TIP3   OH227892   4.826   8.118   3.437
 9319TIP3    H127893   4.857   8.051   3.502
 9319TIP3    H227894   4.901   8.179   3.437
 9320TIP3   OH227895   5.749   8.527   2.767
 9320TIP3    H127896   5.750   8.453   2.829
 9320TIP3    H227897   5.792   8.597   2.817
 9321TIP3   OH227898   4.857   8.474   3.241
 9321TIP3    H127899   4.826   8.386   3.210
 9321TIP3    H227900   4.937   8.487   3.186
 9322TIP3   OH227901   4.505   7.735   2.950
 9322TIP3    H127902   4.454   7.818   2.963
 9322TIP3    H227903   4.435   7.679   2.910
 9323TIP3   OH227904   4.560   8.018   3.121
 9323TIP3    H127905   4.610   7.942   3.156
 9323TIP3    H227906   4.625   8.061   3.064
 9324TIP3   OH227907   5.340   8.442   3.115
 9324TIP3    H127908   5.385   8.363   3.080
 9324TIP3    H227909   5.420   8.493   3.142
 9325TIP3   OH227910   6.338   7.769   3.121
 9325TIP3    H127911   6.368   7.853   3.162
 9325TIP3    H227912   6.359   7.787   3.027
 9326TIP3   OH227913   5.739   7.952   3.154
 9326TIP3    H127914   5.780   7.865   3.175
 9326TIP3    H227915   5.706   7.936   3.064
 9327TIP3   OH227916   5.076   7.612   3.123
 9327TIP3    H127917   5.055   7.682   3.057
 9327TIP3    H227918   5.037   7.534   3.083
 9328TIP3   OH227919   5.770   7.704   2.742
 9328TIP3    H127920   5.842   7.686   2.807
 9328TIP3    H227921   5.823   7.736   2.667
 9329TIP3   OH227922   4.710   7.814   3.226
 9329TIP3    H127923   4.792   7.795   3.276
 9329TIP3    H227924   4.722   7.752   3.151
 9330TIP3   OH227925   5.151   8.011   3.018
 9330TIP3    H127926   5.245   7.986   3.033
 9330TIP3    H227927   5.112   7.926   2.989
 9331TIP3   OH227928   6.413   7.978   3.289
 9331TIP3    H127929   6.328   8.024   3.271
 9331TIP3    H227930   6.426   8.002   3.383
 9332TIP3   OH227931   5.072   7.593   3.554
 9332TIP3    H127932   5.012   7.634   3.488
 9332TIP3    H227933   5.021   7.609   3.636
 9333TIP3   OH227934   5.424   8.416   2.554
 9333TIP3    H127935   5.370   8.392   2.477
 9333TIP3    H227936   5.402   8.510   2.565
 9334TIP3   OH227937   5.177   8.374   3.349
 9334TIP3    H127938   5.108   8.435   3.383
 9334TIP3    H227939   5.210   8.423   3.272
 9335TIP3   OH227940   5.981   7.704   2.912
 9335TIP3    H127941   5.971   7.651   2.993
 9335TIP3    H227942   6.034   7.779   2.943
 9336TIP3   OH227943   4.943   7.712   3.341
 9336TIP3    H127944   5.004   7.785   3.365
 9336TIP3    H227945   4.993   7.673   3.266
 9337TIP3   OH227946   5.004   8.588   3.454
 9337TIP3    H127947   4.960   8.578   3.367
 9337TIP3    H227948   4.926   8.579   3.512
 9338TIP3   OH227949   4.408   8.222   2.693
 9338TIP3    H127950   4.368   8.229   2.604
 9338TIP3    H227951   4.419   8.317   2.711
 9339TIP3   OH227952   6.132   7.668   3.288
 9339TIP3    H127953   6.044   7.695   3.257
 9339TIP3    H227954   6.191   7.700   3.216
 9340TIP3   OH227955   5.432   7.307   3.271
 9340TIP3    H127956   5.414   7.213   3.292
 9340TIP3    H227957   5.354   7.349   3.313
 9341TIP3   OH227958   5.772   8.519   2.491
 9341TIP3    H127959   5.706   8.453   2.470
 9341TIP3    H227960   5.779   8.511   2.589
 9342TIP3   OH227961   6.060   8.684   3.267
 9342TIP3    H127962   6.052   8.602   3.213
 9342TIP3    H227963   6.085   8.750   3.199
 9343TIP3   OH227964   5.363   8.075   2.527
 9343TIP3    H127965   5.279   8.121   2.507
 9343TIP3    H227966   5.405   8.069   2.439
 9344TIP3   OH227967   5.317   7.859   2.242
 9344TIP3    H127968   5.387   7.910   2.287
 9344TIP3    H227969   5.372   7.794   2.194
 9345TIP3   OH227970   6.261   8.315   3.109
 9345TIP3    H127971   6.178   8.367   3.117
 9345TIP3    H227972   6.290   8.342   3.019
 9346TIP3   OH227973   5.706   8.154   2.502
 9346TIP3    H127974   5.651   8.174   2.581
 9346TIP3    H227975   5.791   8.128   2.545
 9347TIP3   OH227976   5.941   8.197   3.407
 9347TIP3    H127977   5.939   8.280   3.457
 9347TIP3    H227978   5.854   8.201   3.363
 9348TIP3   OH227979   4.944   8.157   2.905
 9348TIP3    H127980   4.900   8.097   2.840
 9348TIP3    H227981   5.019   8.102   2.935
 9349TIP3   OH227982   5.078   8.528   3.105
 9349TIP3    H127983   5.041   8.520   3.015
 9349TIP3    H227984   5.174   8.520   3.090
 9350TIP3   OH227985   5.074   8.130   3.264
 9350TIP3    H127986   5.109   8.107   3.175
 9350TIP3    H227987   5.118   8.215   3.283
 9351TIP3   OH227988   5.252   8.590   3.586
 9351TIP3    H127989   5.211   8.673   3.615
 9351TIP3    H227990   5.179   8.556   3.531
 9352TIP3   OH227991   5.545   8.016   2.323
 9352TIP3    H127992   5.604   8.076   2.372
 9352TIP3    H227993   5.574   8.033   2.230
 9353TIP3   OH227994   4.966   8.242   3.687
 9353TIP3    H127995   4.971   8.327   3.735
 9353TIP3    H227996   4.872   8.219   3.702
 9354TIP3   OH227997   6.062   7.257   2.370
 9354TIP3    H127998   5.979   7.275   2.419
 9354TIP3    H227999   6.074   7.341   2.321
 9355TIP3   OH228000   4.804   7.996   2.721
 9355TIP3    H128001   4.742   8.043   2.660
 9355TIP3    H228002   4.760   7.911   2.729
 9356TIP3   OH228003   4.601   8.381   3.624
 9356TIP3    H128004   4.529   8.365   3.561
 9356TIP3    H228005   4.631   8.291   3.649
 9357TIP3   OH228006   6.196   8.158   3.585
 9357TIP3    H128007   6.113   8.170   3.537
 9357TIP3    H228008   6.210   8.062   3.576
 9358TIP3   OH228009   4.791   8.582   3.628
 9358TIP3    H128010   4.843   8.543   3.701
 9358TIP3    H228011   4.718   8.516   3.619
 9359TIP3   OH228012   5.190   7.390   3.396
 9359TIP3    H128013   5.103   7.355   3.368
 9359TIP3    H228014   5.162   7.469   3.445
 9360TIP3   OH228015   5.721   7.504   3.591
 9360TIP3    H128016   5.786   7.481   3.660
 9360TIP3    H228017   5.635   7.486   3.634
 9361TIP3   OH228018   5.963   7.933   3.511
 9361TIP3    H128019   5.913   7.929   3.595
 9361TIP3    H228020   5.938   8.020   3.475
 9362TIP3   OH228021   5.626   8.046   2.068
 9362TIP3    H128022   5.592   8.026   1.978
 9362TIP3    H228023   5.680   8.124   2.050
 9363TIP3   OH228024   5.338   7.442   2.368
 9363TIP3    H128025   5.302   7.432   2.458
 9363TIP3    H228026   5.301   7.361   2.327
 9364TIP3   OH228027   5.121   7.908   3.415
 9364TIP3    H128028   5.072   7.928   3.497
 9364TIP3    H228029   5.104   7.989   3.362
 9365TIP3   OH228030   5.004   7.789   2.931
 9365TIP3    H128031   4.909   7.768   2.943
 9365TIP3    H228032   5.018   7.754   2.840
 9366TIP3   OH228033   5.497   7.875   2.658
 9366TIP3    H128034   5.445   7.946   2.614
 9366TIP3    H228035   5.552   7.843   2.584
 9367TIP3   OH228036   5.673   8.153   3.742
 9367TIP3    H128037   5.650   8.082   3.805
 9367TIP3    H228038   5.766   8.169   3.765
 9368TIP3   OH228039   5.654   7.906   2.895
 9368TIP3    H128040   5.593   7.933   2.824
 9368TIP3    H228041   5.688   7.824   2.853
 9369TIP3   OH228042   4.941   7.933   3.624
 9369TIP3    H128043   4.965   7.996   3.693
 9369TIP3    H228044   4.929   7.850   3.675
 9370TIP3   OH228045   4.988   7.407   2.339
 9370TIP3    H128046   4.979   7.406   2.436
 9370TIP3    H228047   4.911   7.461   2.313
 9371TIP3   OH228048   4.527   7.461   3.207
 9371TIP3    H128049   4.608   7.486   3.255
 9371TIP3    H228050   4.560   7.422   3.123
 9372TIP3   OH228051   4.512   7.441   2.725
 9372TIP3    H128052   4.551   7.479   2.644
 9372TIP3    H228053   4.447   7.511   2.746
 9373TIP3   OH228054   5.664   8.151   3.319
 9373TIP3    H128055   5.697   8.079   3.260
 9373TIP3    H228056   5.635   8.098   3.396
 9374TIP3   OH228057   5.339   7.625   2.994
 9374TIP3    H128058   5.258   7.613   3.045
 9374TIP3    H228059   5.408   7.611   3.061
 9375TIP3   OH228060   4.758   7.664   2.991
 9375TIP3    H128061   4.665   7.695   2.977
 9375TIP3    H228062   4.752   7.576   2.951
 9376TIP3   OH228063   5.036   7.665   2.688
 9376TIP3    H128064   5.131   7.674   2.666
 9376TIP3    H228065   4.990   7.687   2.604
 9377TIP3   OH228066   5.824   7.687   3.193
 9377TIP3    H128067   5.789   7.701   3.284
 9377TIP3    H228068   5.758   7.625   3.157
 9378TIP3   OH228069   4.878   7.696   2.466
 9378TIP3    H128070   4.806   7.653   2.417
 9378TIP3    H228071   4.930   7.733   2.391
 9379TIP3   OH228072   4.955   8.488   3.833
 9379TIP3    H128073   5.034   8.515   3.885
 9379TIP3    H228074   4.890   8.475   3.906
 9380TIP3   OH228075   5.416   7.944   3.089
 9380TIP3    H128076   5.484   7.899   3.036
 9380TIP3    H228077   5.423   7.898   3.175
 9381TIP3   OH228078   5.392   7.837   3.378
 9381TIP3    H128079   5.302   7.874   3.392
 9381TIP3    H228080   5.449   7.898   3.429
 9382TIP3   OH228081   5.131   8.215   2.481
 9382TIP3    H128082   5.053   8.155   2.468
 9382TIP3    H228083   5.107   8.258   2.566
 9383TIP3   OH228084   6.030   8.460   3.107
 9383TIP3    H128085   6.057   8.508   3.025
 9383TIP3    H228086   5.945   8.419   3.080
 9384TIP3   OH228087   5.587   7.542   2.333
 9384TIP3    H128088   5.491   7.521   2.344
 9384TIP3    H228089   5.593   7.636   2.360
 9385TIP3   OH228090   5.541   8.567   3.470
 9385TIP3    H128091   5.565   8.510   3.544
 9385TIP3    H228092   5.458   8.606   3.502
 9386TIP3   OH228093   5.656   7.789   2.440
 9386TIP3    H128094   5.753   7.794   2.454
 9386TIP3    H228095   5.638   7.868   2.386
 9387TIP3   OH228096   4.807   8.218   3.140
 9387TIP3    H128097   4.856   8.201   3.057
 9387TIP3    H228098   4.858   8.166   3.205
 9388TIP3   OH228099   5.243   8.394   2.312
 9388TIP3    H128100   5.204   8.465   2.367
 9388TIP3    H228101   5.205   8.316   2.357
 9389TIP3   OH228102   4.705   8.163   3.762
 9389TIP3    H128103   4.722   8.150   3.858
 9389TIP3    H228104   4.633   8.099   3.746
 9390TIP3   OH228105   5.430   8.278   3.785
 9390TIP3    H128106   5.368   8.224   3.733
 9390TIP3    H228107   5.517   8.244   3.754
 9391TIP3   OH228108   6.100   7.878   2.273
 9391TIP3    H128109   6.038   7.832   2.211
 9391TIP3    H228110   6.093   7.968   2.234
 9392TIP3   OH228111   6.317   8.720   3.359
 9392TIP3    H128112   6.220   8.730   3.346
 9392TIP3    H228113   6.344   8.704   3.265
 9393TIP3   OH228114   5.794   8.331   3.012
 9393TIP3    H128115   5.702   8.303   3.032
 9393TIP3    H228116   5.829   8.247   2.973
 9394TIP3   OH228117   4.487   7.857   2.479
 9394TIP3    H128118   4.531   7.942   2.496
 9394TIP3    H228119   4.408   7.864   2.536
 9395TIP3   OH228120   5.063   8.333   2.722
 9395TIP3    H128121   5.016   8.412   2.750
 9395TIP3    H228122   5.035   8.271   2.792
 9396TIP3   OH228123   5.582   8.531   3.197
 9396TIP3    H128124   5.574   8.540   3.295
 9396TIP3    H228125   5.666   8.483   3.188
 9397TIP3   OH228126   5.582   8.356   2.048
 9397TIP3    H128127   5.617   8.345   2.139
 9397TIP3    H228128   5.502   8.410   2.064
 9398TIP3   OH228129   4.914   7.676   3.770
 9398TIP3    H128130   4.818   7.680   3.785
 9398TIP3    H228131   4.943   7.617   3.842
 9399TIP3   OH228132   5.708   8.323   2.288
 9399TIP3    H128133   5.708   8.261   2.364
 9399TIP3    H228134   5.804   8.341   2.280
 9400TIP3   OH228135   4.909   8.361   2.128
 9400TIP3    H128136   4.941   8.272   2.102
 9400TIP3    H228137   4.929   8.362   2.222
 9401TIP3   OH228138   4.611   8.101   2.556
 9401TIP3    H128139   4.544   8.137   2.617
 9401TIP3    H228140   4.615   8.174   2.490
 9402TIP3   OH228141   5.750   7.741   3.451
 9402TIP3    H128142   5.829   7.779   3.492
 9402TIP3    H228143   5.735   7.660   3.505
 9403TIP3   OH228144   5.627   7.494   2.617
 9403TIP3    H128145   5.614   7.515   2.523
 9403TIP3    H228146   5.666   7.577   2.652
 9404TIP3   OH228147   5.321   7.669   2.721
 9404TIP3    H128148   5.385   7.741   2.701
 9404TIP3    H228149   5.325   7.667   2.819
 9405TIP3   OH228150   5.589   7.991   3.526
 9405TIP3    H128151   5.610   8.044   3.605
 9405TIP3    H228152   5.643   7.912   3.539
 9406TIP3   OH228153   5.470   7.409   2.836
 9406TIP3    H128154   5.456   7.495   2.879
 9406TIP3    H228155   5.529   7.433   2.761
 9407TIP3   OH228156   4.975   7.390   2.622
 9407TIP3    H128157   4.973   7.484   2.650
 9407TIP3    H228158   5.073   7.377   2.620
 9408TIP3   OH228159   6.230   7.890   3.505
 9408TIP3    H128160   6.132   7.889   3.515
 9408TIP3    H228161   6.239   7.849   3.418
 9409TIP3   OH228162   5.880   8.086   2.896
 9409TIP3    H128163   5.804   8.026   2.907
 9409TIP3    H228164   5.952   8.038   2.944
 9410TIP3   OH228165   4.600   8.316   2.374
 9410TIP3    H128166   4.621   8.410   2.360
 9410TIP3    H228167   4.651   8.272   2.303
 9411TIP3   OH228168   4.536   7.588   2.497
 9411TIP3    H128169   4.535   7.686   2.496
 9411TIP3    H228170   4.454   7.566   2.452
 9412TIP3   OH228171   4.924   7.299   3.373
 9412TIP3    H128172   4.872   7.252   3.307
 9412TIP3    H228173   4.926   7.232   3.444
 9413TIP3   OH228174   4.752   8.458   4.013
 9413TIP3    H128175   4.773   8.363   4.021
 9413TIP3    H228176   4.662   8.454   3.973
 9414TIP3   OH228177   4.725   8.123   2.220
 9414TIP3    H128178   4.773   8.083   2.294
 9414TIP3    H228179   4.795   8.122   2.152
 9415TIP3   OH228180   5.374   8.545   3.823
 9415TIP3    H128181   5.339   8.553   3.732
 9415TIP3    H228182   5.409   8.453   3.820
 9416TIP3   OH228183   5.187   8.302   2.035
 9416TIP3    H128184   5.216   8.315   2.127
 9416TIP3    H228185   5.213   8.209   2.019
 9417TIP3   OH228186   5.851   8.558   3.400
 9417TIP3    H128187   5.918   8.617   3.358
 9417TIP3    H228188   5.773   8.614   3.396
 9418TIP3   OH228189   4.875   8.207   4.006
 9418TIP3    H128190   4.946   8.143   3.990
 9418TIP3    H228191   4.899   8.239   4.095
 9419TIP3   OH228192   4.933   8.026   2.440
 9419TIP3    H128193   4.904   7.980   2.520
 9419TIP3    H228194   4.970   7.953   2.386
 9420TIP3   OH228195   5.206   8.094   3.667
 9420TIP3    H128196   5.127   8.154   3.668
 9420TIP3    H228197   5.256   8.129   3.589
 9421TIP3   OH228198   5.037   7.824   2.282
 9421TIP3    H128199   5.011   7.822   2.187
 9421TIP3    H228200   5.134   7.827   2.274
 9422TIP3   OH228201   5.726   8.489   3.800
 9422TIP3    H128202   5.810   8.469   3.757
 9422TIP3    H228203   5.725   8.424   3.873
 9423TIP3   OH228204   5.864   8.164   1.936
 9423TIP3    H128205   5.835   8.110   1.859
 9423TIP3    H228206   5.839   8.253   1.903
 9424TIP3   OH228207   5.329   7.882   3.793
 9424TIP3    H128208   5.328   7.802   3.738
 9424TIP3    H228209   5.284   7.948   3.735
 9425TIP3   OH228210   5.331   7.667   3.601
 9425TIP3    H128211   5.358   7.709   3.517
 9425TIP3    H228212   5.238   7.644   3.583
 9426TIP3   OH228213   5.357   8.207   3.474
 9426TIP3    H128214   5.438   8.211   3.422
 9426TIP3    H228215   5.301   8.275   3.430
 9427TIP3   OH228216   5.939   8.172   3.854
 9427TIP3    H128217   5.990   8.091   3.869
 9427TIP3    H228218   6.007   8.233   3.824
 9428TIP3   OH228219   5.983   8.421   3.591
 9428TIP3    H128220   5.926   8.474   3.531
 9428TIP3    H228221   6.071   8.441   3.551
 9429TIP3   OH228222   5.206   7.995   4.022
 9429TIP3    H128223   5.137   7.927   4.039
 9429TIP3    H228224   5.241   7.967   3.936
 9430TIP3   OH228225   5.463   7.431   3.666
 9430TIP3    H128226   5.413   7.513   3.644
 9430TIP3    H228227   5.393   7.363   3.656
 9431TIP3   OH228228   5.590   7.937   3.884
 9431TIP3    H128229   5.578   7.924   3.980
 9431TIP3    H228230   5.500   7.912   3.854
 9432TIP3   OH228231   5.827   7.883   3.738
 9432TIP3    H128232   5.753   7.887   3.801
 9432TIP3    H228233   5.901   7.854   3.796
 9433TIP3   OH228234   6.056   7.824   3.889
 9433TIP3    H128235   6.069   7.730   3.910
 9433TIP3    H228236   6.052   7.866   3.978
 9434TIP3   OH228237   5.046   7.774   4.076
 9434TIP3    H128238   5.051   7.682   4.044
 9434TIP3    H228239   5.082   7.763   4.167
 9435TIP3   OH228240   5.570   7.442   3.919
 9435TIP3    H128241   5.617   7.357   3.917
 9435TIP3    H228242   5.521   7.438   3.833
 9436TIP3   OH228243   5.625   7.658   4.083
 9436TIP3    H128244   5.604   7.587   4.018
 9436TIP3    H228245   5.546   7.715   4.078
 9437TIP3   OH228246   4.335   8.225   2.411
 9437TIP3    H128247   4.417   8.265   2.375
 9437TIP3    H228248   4.319   8.151   2.348
 9438TIP3   OH228249   6.198   8.856   3.628
 9438TIP3    H128250   6.125   8.834   3.690
 9438TIP3    H228251   6.256   8.910   3.683
 9439TIP3   OH228252   5.987   8.334   2.281
 9439TIP3    H128253   6.058   8.396   2.252
 9439TIP3    H228254   6.031   8.296   2.361
 9440TIP3   OH228255   6.122   8.206   2.483
 9440TIP3    H128256   6.056   8.164   2.542
 9440TIP3    H228257   6.185   8.247   2.545
 9441TIP3   OH228258   6.156   8.590   2.906
 9441TIP3    H128259   6.223   8.535   2.861
 9441TIP3    H228260   6.161   8.674   2.859
 9442TIP3   OH228261   6.055   8.115   2.126
 9442TIP3    H128262   5.984   8.122   2.057
 9442TIP3    H228263   6.030   8.191   2.182
 9443TIP3   OH228264   5.935   7.788   2.077
 9443TIP3    H128265   5.882   7.828   2.008
 9443TIP3    H228266   5.909   7.694   2.069
 9444TIP3   OH228267   5.936   8.064   2.628
 9444TIP3    H128268   5.943   7.967   2.620
 9444TIP3    H228269   5.922   8.076   2.724
 9445TIP3   OH228270   4.562   8.142   3.372
 9445TIP3    H128271   4.559   8.110   3.280
 9445TIP3    H228272   4.659   8.142   3.388
 9446TIP3   OH228273   6.224   8.487   3.482
 9446TIP3    H128274   6.299   8.424   3.475
 9446TIP3    H228275   6.253   8.560   3.424
 9447TIP3   OH228276   6.414   8.296   3.503
 9447TIP3    H128277   6.337   8.247   3.541
 9447TIP3    H228278   6.484   8.229   3.517
 9448TIP3   OH228279   5.874   7.523   2.065
 9448TIP3    H128280   5.947   7.492   2.123
 9448TIP3    H228281   5.799   7.465   2.090
 9449TIP3   OH228282   5.932   7.781   2.522
 9449TIP3    H128283   5.971   7.692   2.538
 9449TIP3    H228284   5.991   7.812   2.450
 9450TIP3   OH228285   6.093   7.956   3.016
 9450TIP3    H128286   6.180   7.982   2.976
 9450TIP3    H228287   6.107   7.991   3.106
 9451TIP3   OH228288   6.162   8.097   3.249
 9451TIP3    H128289   6.084   8.132   3.298
 9451TIP3    H228290   6.193   8.178   3.202
 9452TIP3   OH228291   4.780   7.825   4.046
 9452TIP3    H128292   4.878   7.819   4.050
 9452TIP3    H228293   4.756   7.740   4.088
 9453TIP3   OH228294   6.609   7.687   3.804
 9453TIP3    H128295   6.671   7.623   3.763
 9453TIP3    H228296   6.585   7.744   3.728
 9454TIP3   OH228297   6.040   7.531   2.559
 9454TIP3    H128298   6.088   7.514   2.643
 9454TIP3    H228299   5.979   7.455   2.557
 9455TIP3   OH228300   4.745   7.515   3.369
 9455TIP3    H128301   4.807   7.442   3.389
 9455TIP3    H228302   4.804   7.592   3.370
 9456TIP3   OH228303   4.545   7.790   3.452
 9456TIP3    H128304   4.592   7.787   3.367
 9456TIP3    H228305   4.571   7.876   3.487
 9457TIP3   OH228306   6.486   7.832   3.609
 9457TIP3    H128307   6.400   7.872   3.634
 9457TIP3    H228308   6.454   7.759   3.551
 9458TIP3   OH228309   6.122   7.466   2.191
 9458TIP3    H128310   6.161   7.393   2.139
 9458TIP3    H228311   6.191   7.536   2.184
 9459TIP3   OH228312   4.529   7.313   2.962
 9459TIP3    H128313   4.436   7.294   2.982
 9459TIP3    H228314   4.522   7.361   2.877
 9460TIP3   OH228315   4.748   7.376   3.767
 9460TIP3    H128316   4.697   7.369   3.850
 9460TIP3    H228317   4.679   7.412   3.707
 9461TIP3   OH228318   6.384   7.595   3.487
 9461TIP3    H128319   6.294   7.590   3.450
 9461TIP3    H228320   6.415   7.503   3.475
 9462TIP3   OH228321   5.588   7.512   3.115
 9462TIP3    H128322   5.543   7.441   3.164
 9462TIP3    H228323   5.646   7.462   3.056
 9463TIP3   OH228324   6.114   7.391   3.016
 9463TIP3    H128325   6.149   7.441   2.939
 9463TIP3    H228326   6.017   7.403   3.005
 9464TIP3   OH228327   6.207   7.488   2.777
 9464TIP3    H128328   6.280   7.437   2.736
 9464TIP3    H228329   6.239   7.580   2.761
 9465TIP3   OH228330   4.658   7.100   2.784
 9465TIP3    H128331   4.663   7.149   2.700
 9465TIP3    H228332   4.601   7.158   2.839
 9466TIP3   OH228333   5.238   7.286   2.993
 9466TIP3    H128334   5.313   7.314   2.938
 9466TIP3    H228335   5.282   7.274   3.079
 9467TIP3   OH228336   5.835   7.396   2.984
 9467TIP3    H128337   5.820   7.361   2.895
 9467TIP3    H228338   5.816   7.316   3.040
 9468TIP3   OH228339   5.857   7.319   2.551
 9468TIP3    H128340   5.768   7.358   2.558
 9468TIP3    H228341   5.842   7.233   2.596
 9469TIP3   OH228342   4.740   7.244   2.534
 9469TIP3    H128343   4.786   7.180   2.476
 9469TIP3    H228344   4.814   7.297   2.567
 9470TIP3   OH228345   5.249   7.415   2.633
 9470TIP3    H128346   5.313   7.354   2.674
 9470TIP3    H228347   5.282   7.501   2.665
 9471TIP3   OH228348   5.045   7.499   4.015
 9471TIP3    H128349   5.010   7.428   4.071
 9471TIP3    H228350   5.139   7.498   4.043
 9472TIP3   OH228351   5.294   7.494   4.133
 9472TIP3    H128352   5.380   7.464   4.099
 9472TIP3    H228353   5.278   7.426   4.203
 9473TIP3   OH228354   6.121   7.554   3.923
 9473TIP3    H128355   6.140   7.524   4.015
 9473TIP3    H228356   6.210   7.552   3.883
 9474TIP3   OH228357   6.616   8.371   2.917
 9474TIP3    H128358   6.670   8.330   2.986
 9474TIP3    H228359   6.684   8.408   2.856
 9475TIP3   OH228360   6.298   7.990   2.434
 9475TIP3    H128361   6.247   8.072   2.449
 9475TIP3    H228362   6.228   7.934   2.396
 9476TIP3   OH228363   6.364   8.279   2.609
 9476TIP3    H128364   6.410   8.200   2.646
 9476TIP3    H228365   6.422   8.303   2.536
 9477TIP3   OH228366   6.831   7.866   2.616
 9477TIP3    H128367   6.813   7.932   2.547
 9477TIP3    H228368   6.799   7.786   2.569
 9478TIP3   OH228369   6.502   8.069   2.714
 9478TIP3    H128370   6.584   8.051   2.764
 9478TIP3    H228371   6.515   8.009   2.638
 9479TIP3   OH228372   6.860   7.845   3.048
 9479TIP3    H128373   6.803   7.885   2.979
 9479TIP3    H228374   6.805   7.863   3.127
 9480TIP3   OH228375   6.730   7.970   2.841
 9480TIP3    H128376   6.796   8.040   2.858
 9480TIP3    H228377   6.769   7.928   2.760
 9481TIP3   OH228378   6.204   8.479   2.195
 9481TIP3    H128379   6.178   8.502   2.105
 9481TIP3    H228380   6.240   8.565   2.223
 9482TIP3   OH228381   7.207   7.565   2.752
 9482TIP3    H128382   7.207   7.472   2.780
 9482TIP3    H228383   7.132   7.601   2.804
 9483TIP3   OH228384   6.727   8.501   3.180
 9483TIP3    H128385   6.714   8.588   3.220
 9483TIP3    H228386   6.636   8.466   3.188
 9484TIP3   OH228387   6.590   8.228   2.162
 9484TIP3    H128388   6.575   8.321   2.183
 9484TIP3    H228389   6.528   8.182   2.219
 9485TIP3   OH228390   6.386   8.633   3.114
 9485TIP3    H128391   6.323   8.616   3.042
 9485TIP3    H228392   6.419   8.545   3.139
 9486TIP3   OH228393   6.979   7.648   2.886
 9486TIP3    H128394   6.891   7.614   2.857
 9486TIP3    H228395   6.949   7.726   2.937
 9487TIP3   OH228396   7.496   7.718   3.106
 9487TIP3    H128397   7.527   7.763   3.186
 9487TIP3    H228398   7.400   7.713   3.123
 9488TIP3   OH228399   6.923   8.152   2.912
 9488TIP3    H128400   6.864   8.188   2.982
 9488TIP3    H228401   6.928   8.225   2.849
 9489TIP3   OH228402   6.778   8.030   2.395
 9489TIP3    H128403   6.690   8.004   2.430
 9489TIP3    H228404   6.753   8.069   2.310
 9490TIP3   OH228405   6.752   8.199   3.121
 9490TIP3    H128406   6.734   8.262   3.192
 9490TIP3    H228407   6.732   8.114   3.165
 9491TIP3   OH228408   6.768   7.634   1.817
 9491TIP3    H128409   6.767   7.637   1.914
 9491TIP3    H228410   6.692   7.691   1.795
 9492TIP3   OH228411   6.328   7.714   2.691
 9492TIP3    H128412   6.405   7.742   2.744
 9492TIP3    H228413   6.367   7.677   2.610
 9493TIP3   OH228414   6.305   7.694   2.209
 9493TIP3    H128415   6.351   7.730   2.131
 9493TIP3    H228416   6.244   7.767   2.229
 9494TIP3   OH228417   7.085   7.805   2.539
 9494TIP3    H128418   7.002   7.821   2.587
 9494TIP3    H228419   7.145   7.868   2.581
 9495TIP3   OH228420   6.553   7.916   2.491
 9495TIP3    H128421   6.458   7.928   2.465
 9495TIP3    H228422   6.572   7.825   2.466
 9496TIP3   OH228423   6.629   7.938   1.982
 9496TIP3    H128424   6.558   7.898   1.928
 9496TIP3    H228425   6.636   8.027   1.945
 9497TIP3   OH228426   6.737   7.679   2.446
 9497TIP3    H128427   6.703   7.600   2.493
 9497TIP3    H228428   6.802   7.639   2.386
 9498TIP3   OH228429   6.483   8.413   3.256
 9498TIP3    H128430   6.495   8.397   3.352
 9498TIP3    H228431   6.409   8.354   3.236
 9499TIP3   OH228432   6.276   8.108   1.966
 9499TIP3    H128433   6.312   8.196   1.979
 9499TIP3    H228434   6.196   8.112   2.023
 9500TIP3   OH228435   6.709   7.932   3.259
 9500TIP3    H128436   6.612   7.936   3.273
 9500TIP3    H228437   6.737   7.874   3.332
 9501TIP3   OH228438   6.744   7.648   2.092
 9501TIP3    H128439   6.731   7.740   2.120
 9501TIP3    H228440   6.838   7.635   2.118
 9502TIP3   OH228441   6.327   7.840   1.974
 9502TIP3    H128442   6.323   7.938   1.979
 9502TIP3    H228443   6.236   7.818   1.951
 9503TIP3   OH228444   6.719   7.565   2.859
 9503TIP3    H128445   6.689   7.531   2.772
 9503TIP3    H228446   6.709   7.486   2.916
 9504TIP3   OH228447   6.557   8.715   3.487
 9504TIP3    H128448   6.587   8.623   3.483
 9504TIP3    H228449   6.467   8.708   3.448
 9505TIP3   OH228450   6.675   8.465   3.488
 9505TIP3    H128451   6.738   8.392   3.482
 9505TIP3    H228452   6.690   8.495   3.580
 9506TIP3   OH228453   7.097   8.148   3.282
 9506TIP3    H128454   7.131   8.061   3.256
 9506TIP3    H228455   7.050   8.177   3.204
 9507TIP3   OH228456   7.109   7.942   3.065
 9507TIP3    H128457   7.082   7.983   2.982
 9507TIP3    H228458   7.023   7.901   3.089
 9508TIP3   OH228459   6.999   8.250   3.516
 9508TIP3    H128460   6.931   8.181   3.531
 9508TIP3    H228461   7.038   8.221   3.431
 9509TIP3   OH228462   7.231   7.694   3.161
 9509TIP3    H128463   7.177   7.769   3.131
 9509TIP3    H228464   7.169   7.619   3.148
 9510TIP3   OH228465   6.843   8.029   3.562
 9510TIP3    H128466   6.849   7.937   3.530
 9510TIP3    H228467   6.877   8.017   3.654
 9511TIP3   OH228468   7.353   7.692   3.408
 9511TIP3    H128469   7.424   7.626   3.399
 9511TIP3    H228470   7.304   7.681   3.324
 9512TIP3   OH228471   7.418   7.899   3.576
 9512TIP3    H128472   7.395   7.834   3.507
 9512TIP3    H228473   7.349   7.968   3.565
 9513TIP3   OH228474   6.111   8.484   1.879
 9513TIP3    H128475   6.192   8.527   1.851
 9513TIP3    H228476   6.108   8.405   1.820
 9514TIP3   OH228477   6.354   8.402   2.859
 9514TIP3    H128478   6.355   8.364   2.768
 9514TIP3    H228479   6.451   8.399   2.879
 9515TIP3   OH228480   6.577   8.082   3.534
 9515TIP3    H128481   6.675   8.076   3.537
 9515TIP3    H228482   6.552   7.997   3.574
 9516TIP3   OH228483   6.534   7.772   2.865
 9516TIP3    H128484   6.597   7.698   2.875
 9516TIP3    H228485   6.595   7.848   2.865
 9517TIP3   OH228486   6.340   8.047   2.939
 9517TIP3    H128487   6.388   8.041   2.855
 9517TIP3    H228488   6.369   8.133   2.972
 9518TIP3   OH228489   6.323   7.556   2.442
 9518TIP3    H128490   6.229   7.548   2.465
 9518TIP3    H228491   6.319   7.612   2.361
 9519TIP3   OH228492   6.543   7.631   3.254
 9519TIP3    H128493   6.493   7.628   3.337
 9519TIP3    H228494   6.476   7.669   3.193
 9520TIP3   OH228495   6.633   7.475   2.610
 9520TIP3    H128496   6.541   7.441   2.611
 9520TIP3    H228497   6.682   7.390   2.606
 9521TIP3   OH228498   6.419   7.342   2.258
 9521TIP3    H128499   6.449   7.398   2.184
 9521TIP3    H228500   6.392   7.408   2.324
 9522TIP3   OH228501   7.059   7.497   2.516
 9522TIP3    H128502   7.117   7.552   2.463
 9522TIP3    H228503   7.079   7.532   2.604
 9523TIP3   OH228504   6.526   7.496   2.017
 9523TIP3    H128505   6.578   7.434   1.962
 9523TIP3    H228506   6.598   7.552   2.053
 9524TIP3   OH228507   7.006   7.668   2.159
 9524TIP3    H128508   7.063   7.598   2.125
 9524TIP3    H228509   7.058   7.746   2.132
 9525TIP3   OH228510   6.841   7.755   3.499
 9525TIP3    H128511   6.805   7.685   3.556
 9525TIP3    H228512   6.935   7.753   3.528
 9526TIP3   OH228513   7.087   7.748   3.618
 9526TIP3    H128514   7.177   7.732   3.585
 9526TIP3    H228515   7.078   7.678   3.686
 9527TIP3   OH228516   2.265   0.944   7.519
 9527TIP3    H128517   2.275   0.871   7.581
 9527TIP3    H228518   2.307   1.017   7.567
 9528TIP3   OH228519   1.921   1.395   7.539
 9528TIP3    H128520   1.983   1.338   7.488
 9528TIP3    H228521   1.937   1.362   7.628
 9529TIP3   OH228522   1.949   0.876   7.340
 9529TIP3    H128523   1.901   0.839   7.265
 9529TIP3    H228524   1.937   0.971   7.327
 9530TIP3   OH228525   2.083   1.238   7.395
 9530TIP3    H128526   2.120   1.155   7.360
 9530TIP3    H228527   2.130   1.302   7.337
 9531TIP3   OH228528   2.193   1.021   7.267
 9531TIP3    H128529   2.168   0.941   7.219
 9531TIP3    H228530   2.224   0.983   7.352
 9532TIP3   OH228531   2.203   0.595   7.273
 9532TIP3    H128532   2.150   0.592   7.353
 9532TIP3    H228533   2.284   0.548   7.301
 9533TIP3   OH228534   1.823   1.160   7.305
 9533TIP3    H128535   1.872   1.196   7.380
 9533TIP3    H228536   1.731   1.171   7.331
 9534TIP3   OH228537   2.368   1.040   6.686
 9534TIP3    H128538   2.377   1.137   6.672
 9534TIP3    H228539   2.461   1.011   6.674
 9535TIP3   OH228540   1.647   1.360   7.162
 9535TIP3    H128541   1.627   1.357   7.068
 9535TIP3    H228542   1.640   1.455   7.184
 9536TIP3   OH228543   1.880   1.256   6.809
 9536TIP3    H128544   1.942   1.190   6.770
 9536TIP3    H228545   1.920   1.269   6.897
 9537TIP3   OH228546   1.919   1.311   7.081
 9537TIP3    H128547   1.839   1.301   7.137
 9537TIP3    H228548   1.983   1.264   7.138
 9538TIP3   OH228549   2.114   0.499   6.824
 9538TIP3    H128550   2.097   0.452   6.742
 9538TIP3    H228551   2.204   0.532   6.812
 9539TIP3   OH228552   1.829   0.848   7.007
 9539TIP3    H128553   1.766   0.920   7.026
 9539TIP3    H228554   1.811   0.785   7.080
 9540TIP3   OH228555   2.614   0.303   7.033
 9540TIP3    H128556   2.550   0.247   6.983
 9540TIP3    H228557   2.593   0.390   6.992
 9541TIP3   OH228558   2.299   1.113   6.950
 9541TIP3    H128559   2.284   1.040   7.012
 9541TIP3    H228560   2.319   1.067   6.866
 9542TIP3   OH228561   2.059   0.844   6.851
 9542TIP3    H128562   2.118   0.811   6.923
 9542TIP3    H228563   1.974   0.843   6.900
 9543TIP3   OH228564   2.401   1.315   6.672
 9543TIP3    H128565   2.439   1.386   6.619
 9543TIP3    H228566   2.321   1.362   6.706
 9544TIP3   OH228567   2.221   0.783   7.069
 9544TIP3    H128568   2.205   0.712   7.135
 9544TIP3    H228569   2.318   0.774   7.057
 9545TIP3   OH228570   1.638   1.038   7.058
 9545TIP3    H128571   1.577   1.053   7.131
 9545TIP3    H228572   1.663   1.129   7.035
 9546TIP3   OH228573   2.351   1.467   7.641
 9546TIP3    H128574   2.309   1.514   7.565
 9546TIP3    H228575   2.444   1.475   7.615
 9547TIP3   OH228576   1.590   1.007   6.774
 9547TIP3    H128577   1.596   0.968   6.864
 9547TIP3    H228578   1.669   0.970   6.731
 9548TIP3   OH228579   2.027   1.067   6.673
 9548TIP3    H128580   2.073   1.006   6.734
 9548TIP3    H228581   2.087   1.069   6.596
 9549TIP3   OH228582   2.365   0.570   6.708
 9549TIP3    H128583   2.348   0.527   6.622
 9549TIP3    H228584   2.331   0.660   6.688
 9550TIP3   OH228585   1.355   1.322   6.927
 9550TIP3    H128586   1.451   1.303   6.923
 9550TIP3    H228587   1.341   1.372   6.845
 9551TIP3   OH228588   2.617   1.546   7.585
 9551TIP3    H128589   2.644   1.613   7.648
 9551TIP3    H228590   2.664   1.573   7.504
 9552TIP3   OH228591   2.499   0.761   7.043
 9552TIP3    H128592   2.569   0.823   7.014
 9552TIP3    H228593   2.542   0.721   7.122
 9553TIP3   OH228594   2.623   0.627   7.243
 9553TIP3    H128595   2.562   0.588   7.308
 9553TIP3    H228596   2.694   0.666   7.300
 9554TIP3   OH228597   2.653   1.019   7.668
 9554TIP3    H128598   2.723   0.952   7.652
 9554TIP3    H228599   2.677   1.088   7.605
 9555TIP3   OH228600   2.562   0.535   6.894
 9555TIP3    H128601   2.492   0.542   6.826
 9555TIP3    H228602   2.537   0.611   6.951
 9556TIP3   OH228603   2.442   0.196   6.841
 9556TIP3    H128604   2.398   0.264   6.789
 9556TIP3    H228605   2.390   0.118   6.819
 9557TIP3   OH228606   2.435   0.480   7.398
 9557TIP3    H128607   2.465   0.389   7.388
 9557TIP3    H228608   2.449   0.497   7.492
 9558TIP3   OH228609   2.186   1.420   7.222
 9558TIP3    H128610   2.239   1.404   7.141
 9558TIP3    H228611   2.245   1.478   7.273
 9559TIP3   OH228612   1.621   1.269   6.888
 9559TIP3    H128613   1.716   1.278   6.862
 9559TIP3    H228614   1.599   1.187   6.841
 9560TIP3   OH228615   2.336   1.378   6.996
 9560TIP3    H128616   2.328   1.281   6.982
 9560TIP3    H228617   2.292   1.412   6.915
 9561TIP3   OH228618   3.831   0.896   6.949
 9561TIP3    H128619   3.804   0.988   6.929
 9561TIP3    H228620   3.753   0.848   6.914
 9562TIP3   OH228621   3.828   0.898   7.333
 9562TIP3    H128622   3.859   0.870   7.421
 9562TIP3    H228623   3.790   0.816   7.298
 9563TIP3   OH228624   3.138   0.825   7.673
 9563TIP3    H128625   3.137   0.767   7.751
 9563TIP3    H228626   3.230   0.818   7.641
 9564TIP3   OH228627   4.074   1.198   7.011
 9564TIP3    H128628   4.060   1.128   7.075
 9564TIP3    H228629   4.103   1.272   7.067
 9565TIP3   OH228630   3.099   1.205   7.425
 9565TIP3    H128631   3.087   1.107   7.420
 9565TIP3    H228632   3.195   1.211   7.414
 9566TIP3   OH228633   2.797   0.406   7.218
 9566TIP3    H128634   2.751   0.492   7.222
 9566TIP3    H228635   2.735   0.356   7.162
 9567TIP3   OH228636   2.855   0.701   7.365
 9567TIP3    H128637   2.895   0.622   7.410
 9567TIP3    H228638   2.929   0.730   7.310
 9568TIP3   OH228639   3.724   1.662   7.028
 9568TIP3    H128640   3.769   1.591   6.977
 9568TIP3    H228641   3.716   1.621   7.115
 9569TIP3   OH228642   3.630   1.122   7.380
 9569TIP3    H128643   3.666   1.044   7.336
 9569TIP3    H228644   3.715   1.166   7.402
 9570TIP3   OH228645   4.049   0.629   7.423
 9570TIP3    H128646   4.068   0.540   7.455
 9570TIP3    H228647   4.010   0.614   7.335
 9571TIP3   OH228648   3.354   0.253   7.360
 9571TIP3    H128649   3.338   0.337   7.312
 9571TIP3    H228650   3.282   0.198   7.327
 9572TIP3   OH228651   4.044   0.414   7.044
 9572TIP3    H128652   4.104   0.361   7.102
 9572TIP3    H228653   4.092   0.409   6.960
 9573TIP3   OH228654   2.981   0.492   7.473
 9573TIP3    H128655   3.059   0.480   7.531
 9573TIP3    H228656   3.005   0.427   7.404
 9574TIP3   OH228657   3.449   0.687   7.280
 9574TIP3    H128658   3.543   0.662   7.297
 9574TIP3    H228659   3.412   0.601   7.254
 9575TIP3   OH228660   4.690   0.639   7.558
 9575TIP3    H128661   4.610   0.691   7.537
 9575TIP3    H228662   4.738   0.697   7.618
 9576TIP3   OH228663   3.725   1.120   6.816
 9576TIP3    H128664   3.681   1.098   6.733
 9576TIP3    H228665   3.678   1.202   6.842
 9577TIP3   OH228666   3.490   1.054   7.606
 9577TIP3    H128667   3.422   1.119   7.634
 9577TIP3    H228668   3.532   1.099   7.530
 9578TIP3   OH228669   3.222   0.422   7.557
 9578TIP3    H128670   3.293   0.482   7.589
 9578TIP3    H228671   3.275   0.355   7.511
 9579TIP3   OH228672   3.300   1.227   7.706
 9579TIP3    H128673   3.269   1.304   7.654
 9579TIP3    H228674   3.234   1.222   7.777
 9580TIP3   OH228675   2.704   0.927   6.938
 9580TIP3    H128676   2.667   0.955   6.853
 9580TIP3    H228677   2.737   1.011   6.976
 9581TIP3   OH228678   4.145   1.443   7.179
 9581TIP3    H128679   4.055   1.433   7.218
 9581TIP3    H228680   4.135   1.529   7.133
 9582TIP3   OH228681   3.847   1.489   6.854
 9582TIP3    H128682   3.896   1.406   6.834
 9582TIP3    H228683   3.908   1.554   6.812
 9583TIP3   OH228684   3.990   1.274   6.759
 9583TIP3    H128685   3.947   1.196   6.722
 9583TIP3    H228686   4.025   1.239   6.843
 9584TIP3   OH228687   4.369   1.358   7.521
 9584TIP3    H128688   4.360   1.277   7.465
 9584TIP3    H228689   4.354   1.429   7.456
 9585TIP3   OH228690   3.661   0.754   6.776
 9585TIP3    H128691   3.579   0.803   6.756
 9585TIP3    H228692   3.703   0.749   6.688
 9586TIP3   OH228693   3.621   0.526   6.502
 9586TIP3    H128694   3.692   0.580   6.541
 9586TIP3    H228695   3.673   0.461   6.451
 9587TIP3   OH228696   4.568   0.997   7.367
 9587TIP3    H128697   4.483   1.045   7.374
 9587TIP3    H228698   4.592   1.018   7.274
 9588TIP3   OH228699   4.009   0.832   6.750
 9588TIP3    H128700   3.953   0.855   6.829
 9588TIP3    H228701   4.093   0.808   6.795
 9589TIP3   OH228702   4.244   0.881   7.659
 9589TIP3    H128703   4.235   0.955   7.721
 9589TIP3    H228704   4.155   0.880   7.619
 9590TIP3   OH228705   3.244   0.830   7.165
 9590TIP3    H128706   3.202   0.770   7.099
 9590TIP3    H228707   3.319   0.776   7.197
 9591TIP3   OH228708   3.371   1.240   7.318
 9591TIP3    H128709   3.348   1.199   7.233
 9591TIP3    H228710   3.461   1.205   7.333
 9592TIP3   OH228711   3.370   0.824   7.517
 9592TIP3    H128712   3.401   0.789   7.431
 9592TIP3    H228713   3.421   0.907   7.528
 9593TIP3   OH228714   3.903   1.439   7.298
 9593TIP3    H128715   3.889   1.517   7.354
 9593TIP3    H228716   3.889   1.364   7.359
 9594TIP3   OH228717   3.516   1.388   7.792
 9594TIP3    H128718   3.469   1.443   7.856
 9594TIP3    H228719   3.453   1.314   7.778
 9595TIP3   OH228720   3.852   0.686   6.577
 9595TIP3    H128721   3.908   0.749   6.627
 9595TIP3    H228722   3.877   0.710   6.484
 9596TIP3   OH228723   3.592   1.369   6.857
 9596TIP3    H128724   3.671   1.424   6.870
 9596TIP3    H228725   3.532   1.428   6.809
 9597TIP3   OH228726   3.298   1.582   7.851
 9597TIP3    H128727   3.298   1.565   7.752
 9597TIP3    H228728   3.259   1.502   7.883
 9598TIP3   OH228729   3.108   0.670   6.973
 9598TIP3    H128730   3.043   0.716   6.916
 9598TIP3    H228731   3.065   0.585   6.987
 9599TIP3   OH228732   4.164   1.298   6.172
 9599TIP3    H128733   4.171   1.395   6.159
 9599TIP3    H228734   4.257   1.270   6.160
 9600TIP3   OH228735   2.744   1.252   7.509
 9600TIP3    H128736   2.838   1.233   7.498
 9600TIP3    H228737   2.744   1.335   7.559
 9601TIP3   OH228738   4.605   1.698   7.567
 9601TIP3    H128739   4.607   1.601   7.581
 9601TIP3    H228740   4.522   1.721   7.614
 9602TIP3   OH228741   3.738   1.491   7.694
 9602TIP3    H128742   3.723   1.585   7.717
 9602TIP3    H228743   3.655   1.451   7.729
 9603TIP3   OH228744   3.475   1.615   6.654
 9603TIP3    H128745   3.429   1.593   6.571
 9603TIP3    H228746   3.441   1.704   6.675
 9604TIP3   OH228747   2.911   1.464   7.039
 9604TIP3    H128748   2.960   1.454   7.123
 9604TIP3    H228749   2.858   1.383   7.039
 9605TIP3   OH228750   3.677   1.518   6.295
 9605TIP3    H128751   3.734   1.448   6.258
 9605TIP3    H228752   3.709   1.525   6.387
 9606TIP3   OH228753   3.726   1.564   6.566
 9606TIP3    H128754   3.637   1.574   6.605
 9606TIP3    H228755   3.774   1.521   6.638
 9607TIP3   OH228756   4.497   0.821   7.819
 9607TIP3    H128757   4.413   0.849   7.783
 9607TIP3    H228758   4.474   0.730   7.844
 9608TIP3   OH228759   4.304   0.617   7.773
 9608TIP3    H128760   4.259   0.597   7.858
 9608TIP3    H228761   4.248   0.688   7.740
 9609TIP3   OH228762   3.933   0.729   6.322
 9609TIP3    H128763   3.891   0.709   6.237
 9609TIP3    H228764   4.004   0.789   6.294
 9610TIP3   OH228765   3.415   0.587   7.639
 9610TIP3    H128766   3.454   0.593   7.727
 9610TIP3    H228767   3.414   0.679   7.607
 9611TIP3   OH228768   3.309   0.463   7.192
 9611TIP3    H128769   3.214   0.445   7.202
 9611TIP3    H228770   3.324   0.434   7.099
 9612TIP3   OH228771   3.792   0.555   6.910
 9612TIP3    H128772   3.744   0.627   6.865
 9612TIP3    H228773   3.858   0.529   6.844
 9613TIP3   OH228774   3.936   0.620   7.173
 9613TIP3    H128775   3.880   0.660   7.104
 9613TIP3    H228776   3.967   0.541   7.124
 9614TIP3   OH228777   2.875   0.215   7.011
 9614TIP3    H128778   2.885   0.213   6.914
 9614TIP3    H228779   2.780   0.240   7.018
 9615TIP3   OH228780   3.960   0.828   7.580
 9615TIP3    H128781   4.000   0.758   7.524
 9615TIP3    H228782   3.944   0.776   7.662
 9616TIP3   OH228783   3.059   0.342   7.240
 9616TIP3    H128784   2.966   0.371   7.227
 9616TIP3    H228785   3.054   0.255   7.198
 9617TIP3   OH228786   3.354   0.361   6.942
 9617TIP3    H128787   3.443   0.347   6.906
 9617TIP3    H228788   3.297   0.354   6.863
 9618TIP3   OH228789   3.180   0.347   6.719
 9618TIP3    H128790   3.105   0.329   6.660
 9618TIP3    H228791   3.239   0.394   6.656
 9619TIP3   OH228792   4.298   2.053   7.663
 9619TIP3    H128793   4.298   2.077   7.569
 9619TIP3    H228794   4.377   2.101   7.696
 9620TIP3   OH228795   3.704   0.615   7.343
 9620TIP3    H128796   3.791   0.588   7.309
 9620TIP3    H228797   3.710   0.587   7.438
 9621TIP3   OH228798   3.719   0.552   7.606
 9621TIP3    H128799   3.640   0.505   7.637
 9621TIP3    H228800   3.771   0.560   7.688
 9622TIP3   OH228801   3.431   0.902   6.729
 9622TIP3    H128802   3.359   0.837   6.718
 9622TIP3    H228803   3.413   0.936   6.820
 9623TIP3   OH228804   4.332   1.140   7.359
 9623TIP3    H128805   4.356   1.188   7.276
 9623TIP3    H228806   4.248   1.095   7.334
 9624TIP3   OH228807   3.866   0.283   6.546
 9624TIP3    H128808   3.805   0.233   6.604
 9624TIP3    H228809   3.902   0.348   6.610
 9625TIP3   OH228810   3.845   1.225   7.718
 9625TIP3    H128811   3.839   1.171   7.798
 9625TIP3    H228812   3.793   1.304   7.739
 9626TIP3   OH228813   3.969   0.474   6.709
 9626TIP3    H128814   4.067   0.483   6.716
 9626TIP3    H228815   3.945   0.552   6.654
 9627TIP3   OH228816   3.116   0.932   7.390
 9627TIP3    H128817   3.163   0.896   7.313
 9627TIP3    H228818   3.149   0.877   7.463
 9628TIP3   OH228819   3.581   1.053   6.556
 9628TIP3    H128820   3.532   1.138   6.559
 9628TIP3    H228821   3.523   0.997   6.613
 9629TIP3   OH228822   4.000   1.490   7.620
 9629TIP3    H128823   3.905   1.467   7.628
 9629TIP3    H228824   4.008   1.554   7.692
 9630TIP3   OH228825   4.401   0.550   6.519
 9630TIP3    H128826   4.340   0.501   6.460
 9630TIP3    H228827   4.388   0.641   6.483
 9631TIP3   OH228828   4.621   1.412   7.608
 9631TIP3    H128829   4.523   1.402   7.603
 9631TIP3    H228830   4.646   1.380   7.519
 9632TIP3   OH228831   4.109   1.369   6.440
 9632TIP3    H128832   4.074   1.302   6.500
 9632TIP3    H228833   4.113   1.323   6.355
 9633TIP3   OH228834   4.097   1.003   7.275
 9633TIP3    H128835   4.005   0.973   7.290
 9633TIP3    H228836   4.135   0.923   7.233
 9634TIP3   OH228837   3.226   1.229   7.032
 9634TIP3    H128838   3.226   1.308   6.975
 9634TIP3    H228839   3.132   1.208   7.036
 9635TIP3   OH228840   2.785   0.533   6.732
 9635TIP3    H128841   2.834   0.615   6.752
 9635TIP3    H228842   2.710   0.540   6.795
 9636TIP3   OH228843   3.366   0.994   6.974
 9636TIP3    H128844   3.330   1.083   6.993
 9636TIP3    H228845   3.329   0.942   7.048
 9637TIP3   OH228846   3.496   1.573   7.487
 9637TIP3    H128847   3.538   1.649   7.441
 9637TIP3    H228848   3.570   1.540   7.540
 9638TIP3   OH228849   3.145   1.467   6.882
 9638TIP3    H128850   3.059   1.476   6.927
 9638TIP3    H228851   3.177   1.560   6.883
 9639TIP3   OH228852   3.887   1.207   7.452
 9639TIP3    H128853   3.879   1.205   7.551
 9639TIP3    H228854   3.962   1.146   7.438
 9640TIP3   OH228855   3.858   1.099   6.337
 9640TIP3    H128856   3.907   1.073   6.418
 9640TIP3    H228857   3.768   1.071   6.360
 9641TIP3   OH228858   4.128   1.743   7.511
 9641TIP3    H128859   4.052   1.685   7.496
 9641TIP3    H228860   4.119   1.806   7.435
 9642TIP3   OH228861   4.198   1.574   6.159
 9642TIP3    H128862   4.232   1.647   6.105
 9642TIP3    H228863   4.118   1.617   6.194
 9643TIP3   OH228864   4.018   1.031   6.555
 9643TIP3    H128865   4.006   0.966   6.628
 9643TIP3    H228866   4.115   1.029   6.544
 9644TIP3   OH228867   2.944   1.445   7.640
 9644TIP3    H128868   2.983   1.358   7.657
 9644TIP3    H228869   2.932   1.479   7.730
 9645TIP3   OH228870   3.223   1.082   6.342
 9645TIP3    H128871   3.235   0.992   6.304
 9645TIP3    H228872   3.203   1.061   6.435
 9646TIP3   OH228873   3.166   1.083   6.618
 9646TIP3    H128874   3.243   1.057   6.670
 9646TIP3    H228875   3.172   1.181   6.619
 9647TIP3   OH228876   2.905   0.776   6.815
 9647TIP3    H128877   2.840   0.822   6.871
 9647TIP3    H228878   2.921   0.845   6.747
 9648TIP3   OH228879   3.437   1.281   6.565
 9648TIP3    H128880   3.349   1.310   6.597
 9648TIP3    H228881   3.447   1.339   6.487
 9649TIP3   OH228882   3.649   0.328   6.942
 9649TIP3    H128883   3.697   0.414   6.933
 9649TIP3    H228884   3.636   0.324   7.038
 9650TIP3   OH228885   3.913   0.673   7.807
 9650TIP3    H128886   3.923   0.730   7.886
 9650TIP3    H228887   3.960   0.595   7.841
 9651TIP3   OH228888   3.180   1.357   6.627
 9651TIP3    H128889   3.149   1.426   6.564
 9651TIP3    H228890   3.163   1.400   6.713
 9652TIP3   OH228891   4.185   0.763   7.151
 9652TIP3    H128892   4.106   0.711   7.175
 9652TIP3    H228893   4.257   0.715   7.200
 9653TIP3   OH228894   2.895   0.988   6.620
 9653TIP3    H128895   2.964   1.056   6.629
 9653TIP3    H228896   2.939   0.931   6.553
 9654TIP3   OH228897   2.842   0.263   6.734
 9654TIP3    H128898   2.832   0.361   6.732
 9654TIP3    H228899   2.750   0.233   6.740
 9655TIP3   OH228900   4.151   1.715   7.101
 9655TIP3    H128901   4.109   1.762   7.026
 9655TIP3    H228902   4.246   1.733   7.080
 9656TIP3   OH228903   2.770   1.204   7.009
 9656TIP3    H128904   2.695   1.233   7.062
 9656TIP3    H228905   2.746   1.242   6.921
 9657TIP3   OH228906   3.391   1.282   6.259
 9657TIP3    H128907   3.334   1.209   6.290
 9657TIP3    H228908   3.462   1.233   6.213
 9658TIP3   OH228909   4.050   1.602   7.885
 9658TIP3    H128910   4.098   1.521   7.861
 9658TIP3    H228911   4.124   1.664   7.898
 9659TIP3   OH228912   3.827   1.326   6.165
 9659TIP3    H128913   3.867   1.258   6.221
 9659TIP3    H228914   3.881   1.322   6.084
 9660TIP3   OH228915   3.028   0.800   6.473
 9660TIP3    H128916   3.086   0.767   6.544
 9660TIP3    H228917   3.093   0.805   6.400
 9661TIP3   OH228918   3.548   1.000   6.284
 9661TIP3    H128919   3.545   1.009   6.381
 9661TIP3    H228920   3.544   0.902   6.276
 9662TIP3   OH228921   4.159   1.243   7.666
 9662TIP3    H128922   4.232   1.285   7.618
 9662TIP3    H228923   4.084   1.300   7.642
 9663TIP3   OH228924   3.240   0.704   6.698
 9663TIP3    H128925   3.216   0.660   6.781
 9663TIP3    H228926   3.276   0.629   6.645
 9664TIP3   OH228927   3.338   0.495   6.543
 9664TIP3    H128928   3.310   0.499   6.449
 9664TIP3    H228929   3.435   0.500   6.533
 9665TIP3   OH228930   4.168   0.828   6.195
 9665TIP3    H128931   4.141   0.783   6.112
 9665TIP3    H228932   4.133   0.918   6.175
 9666TIP3   OH228933   3.662   0.896   7.754
 9666TIP3    H128934   3.741   0.865   7.709
 9666TIP3    H228935   3.620   0.954   7.687
 9667TIP3   OH228936   4.295   1.103   7.855
 9667TIP3    H128937   4.232   1.149   7.795
 9667TIP3    H228938   4.379   1.116   7.806
 9668TIP3   OH228939   3.148   1.562   6.442
 9668TIP3    H128940   3.243   1.555   6.421
 9668TIP3    H228941   3.118   1.608   6.361
 9669TIP3   OH228942   2.627   0.942   6.658
 9669TIP3    H128943   2.722   0.965   6.643
 9669TIP3    H228944   2.623   0.852   6.617
 9670TIP3   OH228945   2.539   1.553   7.072
 9670TIP3    H128946   2.474   1.490   7.034
 9670TIP3    H228947   2.585   1.496   7.136
 9671TIP3   OH228948   2.675   1.405   7.258
 9671TIP3    H128949   2.668   1.329   7.318
 9671TIP3    H228950   2.733   1.464   7.310
 9672TIP3   OH228951   4.405   1.805   7.057
 9672TIP3    H128952   4.432   1.838   7.144
 9672TIP3    H228953   4.466   1.851   6.997
 9673TIP3   OH228954   4.434   1.826   7.340
 9673TIP3    H128955   4.391   1.738   7.333
 9673TIP3    H228956   4.510   1.801   7.395
 9674TIP3   OH228957   4.476   1.511   7.890
 9674TIP3    H128958   4.427   1.490   7.970
 9674TIP3    H228959   4.525   1.593   7.912
 9675TIP3   OH228960   4.298   1.013   6.530
 9675TIP3    H128961   4.365   1.079   6.504
 9675TIP3    H228962   4.339   0.976   6.612
 9676TIP3   OH228963   4.421   0.888   6.737
 9676TIP3    H128964   4.356   0.845   6.796
 9676TIP3    H228965   4.485   0.926   6.800
 9677TIP3   OH228966   4.478   1.275   7.166
 9677TIP3    H128967   4.533   1.209   7.120
 9677TIP3    H228968   4.471   1.346   7.100
 9678TIP3   OH228969   4.311   1.577   7.359
 9678TIP3    H128970   4.237   1.612   7.413
 9678TIP3    H228971   4.263   1.527   7.290
 9679TIP3   OH228972   4.359   0.788   6.382
 9679TIP3    H128973   4.290   0.797   6.312
 9679TIP3    H228974   4.334   0.864   6.439
 9680TIP3   OH228975   4.228   0.448   6.326
 9680TIP3    H128976   4.207   0.527   6.277
 9680TIP3    H228977   4.173   0.382   6.280
 9681TIP3   OH228978   4.239   0.747   6.881
 9681TIP3    H128979   4.243   0.651   6.866
 9681TIP3    H228980   4.226   0.754   6.978
 9682TIP3   OH228981   2.862   0.852   7.609
 9682TIP3    H128982   2.863   0.806   7.523
 9682TIP3    H228983   2.953   0.835   7.641
 9683TIP3   OH228984   4.528   1.163   7.726
 9683TIP3    H128985   4.597   1.093   7.725
 9683TIP3    H228986   4.565   1.230   7.668
 9684TIP3   OH228987   4.712   0.972   7.751
 9684TIP3    H128988   4.639   0.918   7.789
 9684TIP3    H228989   4.787   0.913   7.771
 9685TIP3   OH228990   4.241   0.486   6.749
 9685TIP3    H128991   4.268   0.404   6.797
 9685TIP3    H228992   4.306   0.491   6.676
 9686TIP3   OH228993   4.392   0.634   7.274
 9686TIP3    H128994   4.480   0.658   7.235
 9686TIP3    H228995   4.406   0.668   7.364
 9687TIP3   OH228996   4.458   0.776   7.500
 9687TIP3    H128997   4.385   0.806   7.558
 9687TIP3    H228998   4.492   0.859   7.464
 9688TIP3   OH228999   3.991   1.671   6.715
 9688TIP3    H129000   4.040   1.657   6.631
 9688TIP3    H229001   4.045   1.739   6.758
 9689TIP3   OH229002   3.264   1.482   7.600
 9689TIP3    H129003   3.212   1.558   7.566
 9689TIP3    H229004   3.351   1.503   7.560
 9690TIP3   OH229005   3.701   1.754   7.757
 9690TIP3    H129006   3.732   1.759   7.850
 9690TIP3    H229007   3.769   1.806   7.710
 9691TIP3   OH229008   3.893   1.901   7.638
 9691TIP3    H129009   3.965   1.858   7.590
 9691TIP3    H229010   3.944   1.961   7.697
 9692TIP3   OH229011   2.946   1.777   7.656
 9692TIP3    H129012   2.860   1.818   7.635
 9692TIP3    H229013   2.942   1.773   7.752
 9693TIP3   OH229014   3.185   1.740   7.523
 9693TIP3    H129015   3.100   1.755   7.570
 9693TIP3    H229016   3.164   1.776   7.435
 9694TIP3   OH229017   3.608   1.773   7.326
 9694TIP3    H129018   3.539   1.792   7.260
 9694TIP3    H229019   3.619   1.861   7.368
 9695TIP3   OH229020   3.876   1.713   7.380
 9695TIP3    H129021   3.782   1.728   7.359
 9695TIP3    H229022   3.919   1.786   7.334
 9696TIP3   OH229023   4.086   1.904   7.294
 9696TIP3    H129024   4.069   1.988   7.246
 9696TIP3    H229025   4.110   1.843   7.220
 9697TIP3   OH229026   2.854   1.559   7.409
 9697TIP3    H129027   2.888   1.537   7.500
 9697TIP3    H229028   2.926   1.516   7.357
 9698TIP3   OH229029   3.049   1.429   7.272
 9698TIP3    H129030   3.065   1.346   7.323
 9698TIP3    H229031   3.140   1.465   7.266
 9699TIP3   OH229032   3.314   1.525   7.273
 9699TIP3    H129033   3.346   1.434   7.258
 9699TIP3    H229034   3.363   1.547   7.354
 9700TIP3   OH229035   2.642   1.331   6.809
 9700TIP3    H129036   2.557   1.300   6.774
 9700TIP3    H229037   2.637   1.425   6.783
 9701TIP3   OH229038   3.415   1.522   6.387
 9701TIP3    H129039   3.504   1.543   6.351
 9701TIP3    H229040   3.393   1.446   6.328
 9702TIP3   OH229041   4.136   1.637   6.482
 9702TIP3    H129042   4.129   1.539   6.470
 9702TIP3    H229043   4.089   1.669   6.402
 9703TIP3   OH229044   2.719   1.355   6.444
 9703TIP3    H129045   2.723   1.385   6.536
 9703TIP3    H229046   2.808   1.314   6.432
 9704TIP3   OH229047   4.357   1.784   7.670
 9704TIP3    H129048   4.282   1.754   7.614
 9704TIP3    H229049   4.341   1.881   7.669
 9705TIP3   OH229050   5.623   1.149   6.430
 9705TIP3    H129051   5.600   1.243   6.421
 9705TIP3    H229052   5.545   1.109   6.389
 9706TIP3   OH229053   5.616   1.151   6.820
 9706TIP3    H129054   5.655   1.134   6.908
 9706TIP3    H229055   5.586   1.063   6.794
 9707TIP3   OH229056   4.929   1.051   7.174
 9707TIP3    H129057   4.949   0.978   7.236
 9707TIP3    H229058   5.001   1.112   7.196
 9708TIP3   OH229059   5.868   1.455   6.498
 9708TIP3    H129060   5.860   1.387   6.566
 9708TIP3    H229061   5.897   1.532   6.551
 9709TIP3   OH229062   4.895   1.460   6.905
 9709TIP3    H129063   4.886   1.362   6.910
 9709TIP3    H229064   4.991   1.469   6.911
 9710TIP3   OH229065   4.593   0.679   6.694
 9710TIP3    H129066   4.535   0.756   6.707
 9710TIP3    H229067   4.532   0.619   6.647
 9711TIP3   OH229068   4.659   0.959   6.859
 9711TIP3    H129069   4.696   0.877   6.899
 9711TIP3    H229070   4.716   0.970   6.783
 9712TIP3   OH229071   5.518   1.919   6.513
 9712TIP3    H129072   5.565   1.846   6.468
 9712TIP3    H229073   5.512   1.886   6.603
 9713TIP3   OH229074   5.430   1.375   6.857
 9713TIP3    H129075   5.476   1.295   6.827
 9713TIP3    H229076   5.509   1.428   6.882
 9714TIP3   OH229077   5.848   0.884   6.909
 9714TIP3    H129078   5.864   0.794   6.940
 9714TIP3    H229079   5.804   0.871   6.823
 9715TIP3   OH229080   5.118   0.497   6.841
 9715TIP3    H129081   5.131   0.592   6.824
 9715TIP3    H229082   5.082   0.502   6.931
 9716TIP3   OH229083   5.849   0.682   6.534
 9716TIP3    H129084   5.899   0.620   6.590
 9716TIP3    H229085   5.884   0.660   6.447
 9717TIP3   OH229086   4.786   0.746   6.961
 9717TIP3    H129087   4.879   0.749   6.995
 9717TIP3    H229088   4.796   0.671   6.899
 9718TIP3   OH229089   5.253   0.951   6.711
 9718TIP3    H129090   5.341   0.938   6.755
 9718TIP3    H229091   5.227   0.856   6.705
 9719TIP3   OH229092   6.484   0.895   7.043
 9719TIP3    H129093   6.406   0.950   7.022
 9719TIP3    H229094   6.531   0.948   7.109
 9720TIP3   OH229095   5.507   1.370   6.305
 9720TIP3    H129096   5.481   1.363   6.212
 9720TIP3    H229097   5.467   1.456   6.329
 9721TIP3   OH229098   5.277   1.297   7.091
 9721TIP3    H129099   5.213   1.360   7.133
 9721TIP3    H229100   5.320   1.354   7.026
 9722TIP3   OH229101   5.041   0.715   7.035
 9722TIP3    H129102   5.117   0.765   7.070
 9722TIP3    H229103   5.050   0.633   7.087
 9723TIP3   OH229104   5.104   1.492   7.188
 9723TIP3    H129105   5.079   1.580   7.154
 9723TIP3    H229106   5.027   1.475   7.246
 9724TIP3   OH229107   4.504   1.183   6.424
 9724TIP3    H129108   4.456   1.211   6.344
 9724TIP3    H229109   4.531   1.269   6.462
 9725TIP3   OH229110   5.936   1.695   6.658
 9725TIP3    H129111   5.847   1.688   6.701
 9725TIP3    H229112   5.930   1.785   6.619
 9726TIP3   OH229113   5.642   1.744   6.339
 9726TIP3    H129114   5.692   1.662   6.318
 9726TIP3    H229115   5.703   1.810   6.298
 9727TIP3   OH229116   5.784   1.527   6.245
 9727TIP3    H129117   5.761   1.443   6.202
 9727TIP3    H229118   5.819   1.495   6.332
 9728TIP3   OH229119   6.165   1.615   7.009
 9728TIP3    H129120   6.155   1.538   6.949
 9728TIP3    H229121   6.155   1.691   6.947
 9729TIP3   OH229122   5.440   1.012   6.254
 9729TIP3    H129123   5.361   0.992   6.204
 9729TIP3    H229124   5.508   1.014   6.184
 9730TIP3   OH229125   5.416   0.790   5.991
 9730TIP3    H129126   5.494   0.839   6.025
 9730TIP3    H229127   5.460   0.716   5.945
 9731TIP3   OH229128   6.363   1.251   6.853
 9731TIP3    H129129   6.279   1.301   6.861
 9731TIP3    H229130   6.390   1.274   6.762
 9732TIP3   OH229131   5.808   1.089   6.238
 9732TIP3    H129132   5.755   1.112   6.318
 9732TIP3    H229133   5.892   1.062   6.281
 9733TIP3   OH229134   6.038   1.130   7.150
 9733TIP3    H129135   6.035   1.211   7.205
 9733TIP3    H229136   5.951   1.136   7.106
 9734TIP3   OH229137   5.173   1.503   6.800
 9734TIP3    H129138   5.149   1.458   6.718
 9734TIP3    H229139   5.261   1.466   6.819
 9735TIP3   OH229140   5.185   1.053   7.002
 9735TIP3    H129141   5.225   1.042   6.916
 9735TIP3    H229142   5.219   1.140   7.032
 9736TIP3   OH229143   5.698   1.693   6.785
 9736TIP3    H129144   5.687   1.774   6.838
 9736TIP3    H229145   5.685   1.622   6.851
 9737TIP3   OH229146   5.311   1.616   7.329
 9737TIP3    H129147   5.253   1.677   7.379
 9737TIP3    H229148   5.245   1.561   7.283
 9738TIP3   OH229149   5.642   0.952   6.069
 9738TIP3    H129150   5.706   1.008   6.119
 9738TIP3    H229151   5.668   0.972   5.976
 9739TIP3   OH229152   5.060   1.179   7.422
 9739TIP3    H129153   5.069   1.259   7.477
 9739TIP3    H229154   4.970   1.150   7.447
 9740TIP3   OH229155   5.389   1.624   6.336
 9740TIP3    H129156   5.468   1.678   6.357
 9740TIP3    H229157   5.327   1.689   6.303
 9741TIP3   OH229158   5.105   1.784   7.420
 9741TIP3    H129159   5.070   1.780   7.330
 9741TIP3    H229160   5.026   1.763   7.474
 9742TIP3   OH229161   4.930   0.948   6.454
 9742TIP3    H129162   4.851   0.981   6.407
 9742TIP3    H229163   4.901   0.860   6.481
 9743TIP3   OH229164   5.959   1.555   5.657
 9743TIP3    H129165   5.967   1.652   5.647
 9743TIP3    H229166   6.052   1.527   5.644
 9744TIP3   OH229167   4.687   1.312   7.365
 9744TIP3    H129168   4.620   1.286   7.299
 9744TIP3    H229169   4.724   1.225   7.393
 9745TIP3   OH229170   4.539   1.507   6.996
 9745TIP3    H129171   4.635   1.500   6.992
 9745TIP3    H229172   4.527   1.585   7.053
 9746TIP3   OH229173   6.366   1.933   7.017
 9746TIP3    H129174   6.411   1.863   7.065
 9746TIP3    H229175   6.309   1.972   7.086
 9747TIP3   OH229176   5.508   1.745   7.188
 9747TIP3    H129177   5.508   1.836   7.223
 9747TIP3    H229178   5.437   1.704   7.242
 9748TIP3   OH229179   5.273   1.874   6.140
 9748TIP3    H129180   5.223   1.856   6.059
 9748TIP3    H229181   5.238   1.960   6.168
 9749TIP3   OH229182   4.709   1.721   6.525
 9749TIP3    H129183   4.756   1.712   6.611
 9749TIP3    H229184   4.650   1.644   6.529
 9750TIP3   OH229185   5.473   1.774   5.781
 9750TIP3    H129186   5.532   1.703   5.746
 9750TIP3    H229187   5.505   1.783   5.873
 9751TIP3   OH229188   5.523   1.820   6.051
 9751TIP3    H129189   5.434   1.831   6.091
 9751TIP3    H229190   5.573   1.784   6.126
 9752TIP3   OH229191   6.296   1.077   7.315
 9752TIP3    H129192   6.211   1.105   7.278
 9752TIP3    H229193   6.281   0.982   7.325
 9753TIP3   OH229194   4.890   1.497   7.356
 9753TIP3    H129195   4.941   1.478   7.438
 9753TIP3    H229196   4.817   1.431   7.364
 9754TIP3   OH229197   6.081   0.874   7.270
 9754TIP3    H129198   6.032   0.882   7.352
 9754TIP3    H229199   6.049   0.948   7.217
 9755TIP3   OH229200   5.726   0.989   5.813
 9755TIP3    H129201   5.687   0.965   5.727
 9755TIP3    H229202   5.802   1.043   5.785
 9756TIP3   OH229203   5.236   0.844   7.173
 9756TIP3    H129204   5.180   0.863   7.251
 9756TIP3    H229205   5.223   0.926   7.120
 9757TIP3   OH229206   5.586   0.819   6.395
 9757TIP3    H129207   5.537   0.887   6.345
 9757TIP3    H229208   5.652   0.788   6.330
 9758TIP3   OH229209   5.780   1.119   7.481
 9758TIP3    H129210   5.755   1.034   7.526
 9758TIP3    H229211   5.876   1.122   7.502
 9759TIP3   OH229212   5.727   0.879   6.662
 9759TIP3    H129213   5.673   0.915   6.589
 9759TIP3    H229214   5.766   0.802   6.614
 9760TIP3   OH229215   5.034   0.866   7.369
 9760TIP3    H129216   5.070   0.921   7.439
 9760TIP3    H229217   5.018   0.782   7.415
 9761TIP3   OH229218   4.670   0.475   6.496
 9761TIP3    H129219   4.681   0.473   6.399
 9761TIP3    H229220   4.575   0.495   6.504
 9762TIP3   OH229221   5.756   1.087   7.058
 9762TIP3    H129222   5.797   1.016   7.004
 9762TIP3    H229223   5.737   1.036   7.140
 9763TIP3   OH229224   4.831   0.570   6.751
 9763TIP3    H129225   4.740   0.603   6.732
 9763TIP3    H229226   4.867   0.567   6.663
 9764TIP3   OH229227   4.953   0.605   6.204
 9764TIP3    H129228   4.892   0.586   6.130
 9764TIP3    H229229   5.026   0.648   6.156
 9765TIP3   OH229230   6.094   2.312   7.153
 9765TIP3    H129231   6.096   2.331   7.058
 9765TIP3    H229232   6.179   2.350   7.183
 9766TIP3   OH229233   5.052   1.422   7.574
 9766TIP3    H129234   5.132   1.447   7.625
 9766TIP3    H229235   4.989   1.411   7.648
 9767TIP3   OH229236   5.496   0.880   6.833
 9767TIP3    H129237   5.576   0.843   6.792
 9767TIP3    H229238   5.502   0.842   6.925
 9768TIP3   OH229239   5.509   0.796   7.092
 9768TIP3    H129240   5.419   0.791   7.130
 9768TIP3    H229241   5.559   0.835   7.166
 9769TIP3   OH229242   6.130   1.395   6.845
 9769TIP3    H129243   6.154   1.445   6.764
 9769TIP3    H229244   6.044   1.354   6.820
 9770TIP3   OH229245   5.658   0.543   6.034
 9770TIP3    H129246   5.598   0.490   6.090
 9770TIP3    H229247   5.695   0.605   6.100
 9771TIP3   OH229248   5.628   1.478   7.210
 9771TIP3    H129249   5.650   1.448   7.300
 9771TIP3    H229250   5.590   1.565   7.225
 9772TIP3   OH229251   5.764   0.733   6.197
 9772TIP3    H129252   5.862   0.737   6.206
 9772TIP3    H229253   5.746   0.810   6.139
 9773TIP3   OH229254   4.923   1.180   6.903
 9773TIP3    H129255   4.972   1.131   6.837
 9773TIP3    H229256   4.940   1.127   6.983
 9774TIP3   OH229257   5.376   1.312   6.037
 9774TIP3    H129258   5.333   1.401   6.043
 9774TIP3    H229259   5.310   1.258   6.082
 9775TIP3   OH229260   4.802   1.102   7.504
 9775TIP3    H129261   4.823   1.089   7.598
 9775TIP3    H229262   4.733   1.035   7.490
 9776TIP3   OH229263   5.525   1.219   7.523
 9776TIP3    H129264   5.469   1.149   7.485
 9776TIP3    H229265   5.614   1.188   7.497
 9777TIP3   OH229266   5.787   1.739   7.106
 9777TIP3    H129267   5.691   1.735   7.121
 9777TIP3    H229268   5.817   1.788   7.185
 9778TIP3   OH229269   6.199   0.807   6.005
 9778TIP3    H129270   6.135   0.759   5.947
 9778TIP3    H229271   6.184   0.898   5.970
 9779TIP3   OH229272   6.419   1.652   7.103
 9779TIP3    H129273   6.321   1.662   7.094
 9779TIP3    H229274   6.442   1.633   7.009
 9780TIP3   OH229275   5.902   1.627   5.925
 9780TIP3    H129276   5.872   1.561   5.989
 9780TIP3    H229277   5.908   1.577   5.842
 9781TIP3   OH229278   5.894   1.260   6.759
 9781TIP3    H129279   5.803   1.232   6.776
 9781TIP3    H229280   5.931   1.179   6.717
 9782TIP3   OH229281   5.017   1.463   6.510
 9782TIP3    H129282   5.029   1.546   6.460
 9782TIP3    H229283   4.923   1.465   6.529
 9783TIP3   OH229284   4.583   0.788   6.221
 9783TIP3    H129285   4.629   0.872   6.242
 9783TIP3    H229286   4.506   0.793   6.282
 9784TIP3   OH229287   5.291   1.828   6.985
 9784TIP3    H129288   5.334   1.900   6.936
 9784TIP3    H229289   5.366   1.793   7.036
 9785TIP3   OH229290   4.942   1.721   6.367
 9785TIP3    H129291   4.857   1.729   6.415
 9785TIP3    H229292   4.974   1.814   6.371
 9786TIP3   OH229293   5.679   1.461   6.943
 9786TIP3    H129294   5.667   1.462   7.041
 9786TIP3    H229295   5.762   1.412   6.935
 9787TIP3   OH229296   5.657   1.355   5.825
 9787TIP3    H129297   5.707   1.330   5.906
 9787TIP3    H229298   5.567   1.327   5.850
 9788TIP3   OH229299   5.928   1.996   6.996
 9788TIP3    H129300   5.851   1.937   6.989
 9788TIP3    H229301   5.912   2.059   6.922
 9789TIP3   OH229302   5.994   1.831   5.645
 9789TIP3    H129303   6.032   1.908   5.599
 9789TIP3    H229304   5.913   1.874   5.680
 9790TIP3   OH229305   5.814   1.289   6.046
 9790TIP3    H129306   5.804   1.222   6.117
 9790TIP3    H229307   5.911   1.286   6.033
 9791TIP3   OH229308   4.730   1.689   7.145
 9791TIP3    H129309   4.781   1.614   7.180
 9791TIP3    H229310   4.758   1.759   7.205
 9792TIP3   OH229311   5.023   1.334   5.822
 9792TIP3    H129312   5.031   1.241   5.794
 9792TIP3    H229313   5.006   1.324   5.918
 9793TIP3   OH229314   4.974   1.341   6.093
 9793TIP3    H129315   5.007   1.320   6.181
 9793TIP3    H229316   4.973   1.440   6.096
 9794TIP3   OH229317   4.704   1.035   6.303
 9794TIP3    H129318   4.634   1.076   6.359
 9794TIP3    H229319   4.709   1.104   6.233
 9795TIP3   OH229320   5.232   1.539   6.046
 9795TIP3    H129321   5.145   1.563   6.083
 9795TIP3    H229322   5.246   1.614   5.986
 9796TIP3   OH229323   5.471   0.577   6.446
 9796TIP3    H129324   5.512   0.665   6.443
 9796TIP3    H229325   5.383   0.600   6.484
 9797TIP3   OH229326   5.705   0.923   7.272
 9797TIP3    H129327   5.690   0.979   7.350
 9797TIP3    H229328   5.747   0.847   7.315
 9798TIP3   OH229329   4.975   1.612   6.115
 9798TIP3    H129330   4.944   1.682   6.052
 9798TIP3    H229331   4.958   1.655   6.201
 9799TIP3   OH229332   5.981   1.019   6.637
 9799TIP3    H129333   5.903   0.967   6.661
 9799TIP3    H229334   6.053   0.972   6.686
 9800TIP3   OH229335   4.693   1.242   6.109
 9800TIP3    H129336   4.745   1.323   6.110
 9800TIP3    H229337   4.741   1.191   6.040
 9801TIP3   OH229338   4.637   0.516   6.220
 9801TIP3    H129339   4.631   0.613   6.220
 9801TIP3    H229340   4.545   0.489   6.216
 9802TIP3   OH229341   5.948   1.969   6.586
 9802TIP3    H129342   5.907   2.016   6.510
 9802TIP3    H229343   6.042   1.988   6.568
 9803TIP3   OH229344   4.563   1.456   6.493
 9803TIP3    H129345   4.496   1.486   6.555
 9803TIP3    H229346   4.533   1.498   6.410
 9804TIP3   OH229347   4.720   1.997   7.568
 9804TIP3    H129348   4.807   1.996   7.612
 9804TIP3    H229349   4.701   1.902   7.564
 9805TIP3   OH229350   5.203   1.966   7.609
 9805TIP3    H129351   5.296   1.942   7.619
 9805TIP3    H229352   5.176   1.906   7.536
 9806TIP3   OH229353   5.184   1.539   5.737
 9806TIP3    H129354   5.127   1.469   5.775
 9806TIP3    H229355   5.259   1.486   5.704
 9807TIP3   OH229356   5.842   1.870   7.343
 9807TIP3    H129357   5.831   1.800   7.412
 9807TIP3    H229358   5.919   1.919   7.375
 9808TIP3   OH229359   5.622   1.580   5.650
 9808TIP3    H129360   5.663   1.515   5.710
 9808TIP3    H229361   5.681   1.578   5.573
 9809TIP3   OH229362   4.851   1.407   7.764
 9809TIP3    H129363   4.871   1.313   7.778
 9809TIP3    H229364   4.765   1.403   7.718
 9810TIP3   OH229365   4.827   1.061   5.955
 9810TIP3    H129366   4.875   1.016   6.026
 9810TIP3    H229367   4.895   1.063   5.885
 9811TIP3   OH229368   5.459   1.491   7.539
 9811TIP3    H129369   5.417   1.503   7.453
 9811TIP3    H229370   5.489   1.398   7.536
 9812TIP3   OH229371   5.343   1.258   5.765
 9812TIP3    H129372   5.340   1.271   5.862
 9812TIP3    H229373   5.345   1.160   5.760
 9813TIP3   OH229374   5.950   1.497   7.143
 9813TIP3    H129375   6.026   1.543   7.101
 9813TIP3    H229376   5.880   1.564   7.132
 9814TIP3   OH229377   4.974   1.146   7.741
 9814TIP3    H129378   5.033   1.069   7.737
 9814TIP3    H229379   4.994   1.175   7.832
 9815TIP3   OH229380   5.081   0.953   6.215
 9815TIP3    H129381   5.010   0.913   6.268
 9815TIP3    H229382   5.094   0.886   6.145
 9816TIP3   OH229383   5.300   1.025   7.406
 9816TIP3    H129384   5.226   1.089   7.410
 9816TIP3    H229385   5.354   1.060   7.331
 9817TIP3   OH229386   5.131   0.758   6.028
 9817TIP3    H129387   5.103   0.755   5.934
 9817TIP3    H229388   5.228   0.756   6.018
 9818TIP3   OH229389   5.826   1.431   7.544
 9818TIP3    H129390   5.902   1.397   7.494
 9818TIP3    H229391   5.811   1.358   7.607
 9819TIP3   OH229392   5.962   1.086   5.682
 9819TIP3    H129393   5.936   1.039   5.600
 9819TIP3    H229394   5.927   1.175   5.661
 9820TIP3   OH229395   5.419   0.806   7.551
 9820TIP3    H129396   5.421   0.712   7.525
 9820TIP3    H229397   5.372   0.850   7.479
 9821TIP3   OH229398   5.461   1.132   7.214
 9821TIP3    H129399   5.544   1.139   7.163
 9821TIP3    H229400   5.405   1.200   7.171
 9822TIP3   OH229401   6.036   1.110   7.576
 9822TIP3    H129402   6.067   1.042   7.640
 9822TIP3    H229403   6.120   1.153   7.552
 9823TIP3   OH229404   6.081   1.354   7.332
 9823TIP3    H129405   6.022   1.408   7.273
 9823TIP3    H229406   6.168   1.375   7.292
 9824TIP3   OH229407   5.291   0.952   7.749
 9824TIP3    H129408   5.233   0.883   7.782
 9824TIP3    H229409   5.348   0.904   7.684
 9825TIP3   OH229410   5.681   0.887   7.564
 9825TIP3    H129411   5.705   0.868   7.657
 9825TIP3    H229412   5.591   0.849   7.564
 9826TIP3   OH229413   4.943   1.813   5.926
 9826TIP3    H129414   5.039   1.812   5.906
 9826TIP3    H229415   4.911   1.864   5.849
 9827TIP3   OH229416   4.423   1.197   6.142
 9827TIP3    H129417   4.519   1.217   6.129
 9827TIP3    H229418   4.416   1.109   6.101
 9828TIP3   OH229419   4.340   1.809   6.556
 9828TIP3    H129420   4.271   1.748   6.520
 9828TIP3    H229421   4.383   1.752   6.622
 9829TIP3   OH229422   4.476   1.660   6.743
 9829TIP3    H129423   4.462   1.588   6.807
 9829TIP3    H229424   4.526   1.722   6.799
 9830TIP3   OH229425   6.201   2.063   6.544
 9830TIP3    H129426   6.224   2.087   6.636
 9830TIP3    H229427   6.266   2.113   6.493
 9831TIP3   OH229428   6.233   2.081   6.821
 9831TIP3    H129429   6.193   1.991   6.824
 9831TIP3    H229430   6.306   2.063   6.884
 9832TIP3   OH229431   6.278   1.758   7.400
 9832TIP3    H129432   6.202   1.768   7.461
 9832TIP3    H229433   6.317   1.848   7.403
 9833TIP3   OH229434   6.094   1.271   6.018
 9833TIP3    H129435   6.163   1.335   5.993
 9833TIP3    H229436   6.134   1.231   6.099
 9834TIP3   OH229437   6.218   1.141   6.221
 9834TIP3    H129438   6.154   1.099   6.283
 9834TIP3    H229439   6.284   1.180   6.282
 9835TIP3   OH229440   6.272   1.530   6.652
 9835TIP3    H129441   6.329   1.466   6.605
 9835TIP3    H229442   6.264   1.603   6.588
 9836TIP3   OH229443   6.103   1.829   6.843
 9836TIP3    H129444   6.037   1.871   6.902
 9836TIP3    H229445   6.048   1.781   6.779
 9837TIP3   OH229446   6.155   1.045   5.869
 9837TIP3    H129447   6.085   1.054   5.800
 9837TIP3    H229448   6.130   1.121   5.927
 9838TIP3   OH229449   6.022   0.707   5.816
 9838TIP3    H129450   6.000   0.779   5.756
 9838TIP3    H229451   5.976   0.632   5.775
 9839TIP3   OH229452   6.034   1.002   6.367
 9839TIP3    H129453   6.038   0.905   6.355
 9839TIP3    H229454   6.021   1.010   6.465
 9840TIP3   OH229455   4.661   1.075   7.113
 9840TIP3    H129456   4.659   1.042   7.020
 9840TIP3    H229457   4.758   1.071   7.132
 9841TIP3   OH229458   6.321   1.418   7.221
 9841TIP3    H129459   6.395   1.354   7.216
 9841TIP3    H229460   6.352   1.492   7.166
 9842TIP3   OH229461   6.510   1.230   7.247
 9842TIP3    H129462   6.435   1.173   7.276
 9842TIP3    H229463   6.583   1.167   7.262
 9843TIP3   OH229464   6.035   0.740   6.234
 9843TIP3    H129465   6.061   0.660   6.285
 9843TIP3    H229466   6.103   0.743   6.164
 9844TIP3   OH229467   6.189   0.894   6.762
 9844TIP3    H129468   6.277   0.918   6.723
 9844TIP3    H229469   6.204   0.926   6.854
 9845TIP3   OH229470   6.254   1.035   6.992
 9845TIP3    H129471   6.178   1.069   7.043
 9845TIP3    H229472   6.289   1.116   6.949
 9846TIP3   OH229473   4.873   0.754   7.777
 9846TIP3    H129474   4.968   0.757   7.791
 9846TIP3    H229475   4.848   0.671   7.821
 9847TIP3   OH229476   4.637   0.723   7.191
 9847TIP3    H129477   4.688   0.728   7.108
 9847TIP3    H229478   4.673   0.797   7.241
 9848TIP3   OH229479   5.785   1.927   6.199
 9848TIP3    H129480   5.841   1.918   6.119
 9848TIP3    H229481   5.834   1.993   6.251
 9849TIP3   OH229482   4.885   1.737   7.587
 9849TIP3    H129483   4.796   1.703   7.569
 9849TIP3    H229484   4.901   1.706   7.677
 9850TIP3   OH229485   5.064   1.763   7.133
 9850TIP3    H129486   5.016   1.839   7.094
 9850TIP3    H229487   5.150   1.777   7.090
 9851TIP3   OH229488   5.510   2.010   7.272
 9851TIP3    H129489   5.552   2.009   7.361
 9851TIP3    H229490   5.578   2.060   7.220
 9852TIP3   OH229491   5.691   2.160   7.129
 9852TIP3    H129492   5.763   2.108   7.091
 9852TIP3    H229493   5.741   2.218   7.190
 9853TIP3   OH229494   4.741   2.022   7.156
 9853TIP3    H129495   4.652   2.056   7.133
 9853TIP3    H229496   4.750   2.056   7.245
 9854TIP3   OH229497   4.977   2.000   7.014
 9854TIP3    H129498   4.891   2.013   7.060
 9854TIP3    H229499   4.957   2.033   6.925
 9855TIP3   OH229500   5.404   2.031   6.811
 9855TIP3    H129501   5.332   2.051   6.748
 9855TIP3    H229502   5.416   2.117   6.855
 9856TIP3   OH229503   5.672   1.967   6.861
 9856TIP3    H129504   5.578   1.986   6.843
 9856TIP3    H229505   5.715   2.046   6.825
 9857TIP3   OH229506   5.879   2.160   6.780
 9857TIP3    H129507   5.865   2.245   6.731
 9857TIP3    H229508   5.905   2.100   6.707
 9858TIP3   OH229509   4.653   1.815   6.902
 9858TIP3    H129510   4.679   1.789   6.993
 9858TIP3    H229511   4.724   1.771   6.852
 9859TIP3   OH229512   4.846   1.686   6.758
 9859TIP3    H129513   4.861   1.603   6.809
 9859TIP3    H229514   4.937   1.723   6.756
 9860TIP3   OH229515   5.113   1.781   6.763
 9860TIP3    H129516   5.145   1.689   6.756
 9860TIP3    H229517   5.156   1.806   6.847
 9861TIP3   OH229518   4.442   1.586   6.291
 9861TIP3    H129519   4.356   1.554   6.259
 9861TIP3    H229520   4.431   1.681   6.275
 9862TIP3   OH229521   5.212   1.775   5.875
 9862TIP3    H129522   5.300   1.798   5.839
 9862TIP3    H229523   5.190   1.701   5.815
 9863TIP3   OH229524   5.935   1.895   5.967
 9863TIP3    H129525   5.924   1.797   5.956
 9863TIP3    H229526   5.885   1.927   5.889
 9864TIP3   OH229527   4.516   1.615   5.932
 9864TIP3    H129528   4.510   1.641   6.025
 9864TIP3    H229529   4.605   1.574   5.926
 9865TIP3   OH229530   6.151   2.041   7.167
 9865TIP3    H129531   6.077   2.010   7.112
 9865TIP3    H229532   6.137   2.137   7.164
 9866TIP3   OH229533   7.429   1.408   5.920
 9866TIP3    H129534   7.401   1.501   5.907
 9866TIP3    H229535   7.346   1.362   5.899
 9867TIP3   OH229536   7.394   1.414   6.272
 9867TIP3    H129537   7.428   1.411   6.364
 9867TIP3    H229538   7.364   1.323   6.261
 9868TIP3   OH229539   6.723   1.304   6.662
 9868TIP3    H129540   6.750   1.237   6.728
 9868TIP3    H229541   6.793   1.369   6.672
 9869TIP3   OH229542   7.665   1.716   5.984
 9869TIP3    H129543   7.653   1.645   6.048
 9869TIP3    H229544   7.696   1.789   6.040
 9870TIP3   OH229545   6.691   1.715   6.386
 9870TIP3    H129546   6.682   1.617   6.391
 9870TIP3    H229547   6.787   1.724   6.399
 9871TIP3   OH229548   6.396   0.928   6.187
 9871TIP3    H129549   6.341   1.007   6.201
 9871TIP3    H229550   6.334   0.871   6.139
 9872TIP3   OH229551   6.454   1.214   6.343
 9872TIP3    H129552   6.492   1.131   6.382
 9872TIP3    H229553   6.523   1.239   6.282
 9873TIP3   OH229554   7.317   2.180   5.998
 9873TIP3    H129555   7.363   2.106   5.953
 9873TIP3    H229556   7.306   2.146   6.087
 9874TIP3   OH229557   7.222   1.633   6.350
 9874TIP3    H129558   7.260   1.558   6.302
 9874TIP3    H229559   7.305   1.679   6.375
 9875TIP3   OH229560   7.670   1.128   6.392
 9875TIP3    H129561   7.685   1.034   6.404
 9875TIP3    H229562   7.622   1.130   6.307
 9876TIP3   OH229563   6.973   0.755   6.297
 9876TIP3    H129564   6.940   0.847   6.294
 9876TIP3    H229565   6.891   0.707   6.316
 9877TIP3   OH229566   7.639   0.929   6.018
 9877TIP3    H129567   7.693   0.872   6.077
 9877TIP3    H229568   7.686   0.918   5.935
 9878TIP3   OH229569   6.583   1.001   6.445
 9878TIP3    H129570   6.675   1.004   6.479
 9878TIP3    H229571   6.598   0.938   6.372
 9879TIP3   OH229572   7.043   1.202   6.248
 9879TIP3    H129573   7.137   1.176   6.260
 9879TIP3    H229574   7.002   1.116   6.223
 9880TIP3   OH229575   7.319   1.635   5.794
 9880TIP3    H129576   7.272   1.611   5.713
 9880TIP3    H229577   7.275   1.720   5.816
 9881TIP3   OH229578   7.084   1.552   6.590
 9881TIP3    H129579   7.016   1.614   6.624
 9881TIP3    H229580   7.120   1.602   6.514
 9882TIP3   OH229581   6.839   0.965   6.507
 9882TIP3    H129582   6.907   1.016   6.554
 9882TIP3    H229583   6.851   0.879   6.552
 9883TIP3   OH229584   6.903   1.746   6.671
 9883TIP3    H129585   6.878   1.835   6.640
 9883TIP3    H229586   6.826   1.729   6.730
 9884TIP3   OH229587   6.299   1.441   5.913
 9884TIP3    H129588   6.249   1.474   5.837
 9884TIP3    H229589   6.330   1.524   5.953
 9885TIP3   OH229590   7.735   1.953   6.148
 9885TIP3    H129591   7.647   1.944   6.191
 9885TIP3    H229592   7.728   2.042   6.108
 9886TIP3   OH229593   7.438   2.002   5.825
 9886TIP3    H129594   7.489   1.919   5.806
 9886TIP3    H229595   7.500   2.067   5.785
 9887TIP3   OH229596   7.583   1.787   5.732
 9887TIP3    H129597   7.543   1.706   5.697
 9887TIP3    H229598   7.619   1.755   5.818
 9888TIP3   OH229599   7.930   1.864   6.484
 9888TIP3    H129600   7.947   1.792   6.421
 9888TIP3    H229601   7.959   1.943   6.436
 9889TIP3   OH229602   7.252   1.262   5.749
 9889TIP3    H129603   7.173   1.315   5.727
 9889TIP3    H229604   7.302   1.260   5.666
 9890TIP3   OH229605   7.213   1.048   5.471
 9890TIP3    H129606   7.287   1.092   5.518
 9890TIP3    H229607   7.261   0.973   5.431
 9891TIP3   OH229608   8.185   1.499   6.336
 9891TIP3    H129609   8.094   1.532   6.348
 9891TIP3    H229610   8.203   1.528   6.244
 9892TIP3   OH229611   7.602   1.344   5.721
 9892TIP3    H129612   7.548   1.367   5.800
 9892TIP3    H229613   7.686   1.319   5.764
 9893TIP3   OH229614   7.804   1.389   6.583
 9893TIP3    H129615   7.879   1.427   6.632
 9893TIP3    H229616   7.790   1.459   6.518
 9894TIP3   OH229617   6.838   1.344   6.136
 9894TIP3    H129618   6.798   1.282   6.071
 9894TIP3    H229619   6.912   1.290   6.171
 9895TIP3   OH229620   6.972   1.762   6.284
 9895TIP3    H129621   6.944   1.704   6.212
 9895TIP3    H229622   7.060   1.725   6.307
 9896TIP3   OH229623   6.980   1.309   6.500
 9896TIP3    H129624   7.006   1.288   6.408
 9896TIP3    H229625   7.020   1.397   6.515
 9897TIP3   OH229626   7.496   1.949   6.272
 9897TIP3    H129627   7.484   2.030   6.324
 9897TIP3    H229628   7.481   1.878   6.337
 9898TIP3   OH229629   7.102   1.869   6.819
 9898TIP3    H129630   7.042   1.930   6.867
 9898TIP3    H229631   7.037   1.816   6.769
 9899TIP3   OH229632   7.439   1.206   5.549
 9899TIP3    H129633   7.501   1.262   5.602
 9899TIP3    H229634   7.468   1.228   5.457
 9900TIP3   OH229635   6.851   1.439   6.909
 9900TIP3    H129636   6.858   1.519   6.965
 9900TIP3    H229637   6.760   1.411   6.932
 9901TIP3   OH229638   7.185   1.882   5.813
 9901TIP3    H129639   7.264   1.932   5.840
 9901TIP3    H229640   7.121   1.952   5.796
 9902TIP3   OH229641   6.897   2.041   6.908
 9902TIP3    H129642   6.867   2.038   6.815
 9902TIP3    H229643   6.813   2.062   6.954
 9903TIP3   OH229644   6.706   1.185   5.933
 9903TIP3    H129645   6.629   1.225   5.887
 9903TIP3    H229646   6.669   1.101   5.964
 9904TIP3   OH229647   7.751   1.812   5.148
 9904TIP3    H129648   7.763   1.908   5.133
 9904TIP3    H229649   7.843   1.779   5.136
 9905TIP3   OH229650   6.484   1.569   6.852
 9905TIP3    H129651   6.415   1.544   6.787
 9905TIP3    H229652   6.520   1.482   6.879
 9906TIP3   OH229653   6.336   1.766   6.480
 9906TIP3    H129654   6.432   1.759   6.482
 9906TIP3    H229655   6.320   1.838   6.542
 9907TIP3   OH229656   8.187   2.221   6.528
 9907TIP3    H129657   8.205   2.128   6.546
 9907TIP3    H229658   8.109   2.235   6.586
 9908TIP3   OH229659   7.303   1.996   6.676
 9908TIP3    H129660   7.306   2.088   6.709
 9908TIP3    H229661   7.231   1.960   6.733
 9909TIP3   OH229662   7.065   2.129   5.627
 9909TIP3    H129663   7.020   2.117   5.542
 9909TIP3    H229664   7.034   2.217   5.655
 9910TIP3   OH229665   6.506   1.977   6.012
 9910TIP3    H129666   6.555   1.969   6.097
 9910TIP3    H229667   6.443   1.904   6.022
 9911TIP3   OH229668   7.269   2.027   5.269
 9911TIP3    H129669   7.328   1.958   5.232
 9911TIP3    H229670   7.305   2.038   5.360
 9912TIP3   OH229671   7.318   2.077   5.540
 9912TIP3    H129672   7.230   2.087   5.582
 9912TIP3    H229673   7.369   2.037   5.612
 9913TIP3   OH229674   6.691   1.749   6.840
 9913TIP3    H129675   6.737   1.734   6.925
 9913TIP3    H229676   6.613   1.690   6.850
 9914TIP3   OH229677   7.516   1.254   5.295
 9914TIP3    H129678   7.484   1.224   5.207
 9914TIP3    H229679   7.600   1.297   5.269
 9915TIP3   OH229680   7.029   1.097   6.661
 9915TIP3    H129681   6.967   1.112   6.735
 9915TIP3    H229682   7.012   1.176   6.605
 9916TIP3   OH229683   6.894   0.990   6.160
 9916TIP3    H129684   6.805   0.954   6.179
 9916TIP3    H229685   6.914   0.948   6.073
 9917TIP3   OH229686   7.386   1.068   5.887
 9917TIP3    H129687   7.338   1.139   5.840
 9917TIP3    H229688   7.453   1.041   5.820
 9918TIP3   OH229689   7.535   1.136   6.148
 9918TIP3    H129690   7.475   1.176   6.082
 9918TIP3    H229691   7.563   1.056   6.097
 9919TIP3   OH229692   6.837   1.126   6.857
 9919TIP3    H129693   6.844   1.184   6.934
 9919TIP3    H229694   6.813   1.041   6.898
 9920TIP3   OH229695   6.465   0.731   5.985
 9920TIP3    H129696   6.477   0.710   5.891
 9920TIP3    H229697   6.370   0.752   5.988
 9921TIP3   OH229698   7.514   1.387   6.512
 9921TIP3    H129699   7.590   1.337   6.479
 9921TIP3    H229700   7.532   1.385   6.607
 9922TIP3   OH229701   6.654   0.854   6.215
 9922TIP3    H129702   6.562   0.883   6.193
 9922TIP3    H229703   6.652   0.764   6.182
 9923TIP3   OH229704   6.946   0.876   5.916
 9923TIP3    H129705   7.036   0.855   5.885
 9923TIP3    H229706   6.891   0.867   5.836
 9924TIP3   OH229707   6.773   0.865   5.692
 9924TIP3    H129708   6.694   0.845   5.639
 9924TIP3    H229709   6.829   0.905   5.624
 9925TIP3   OH229710   7.890   2.565   6.638
 9925TIP3    H129711   7.894   2.594   6.545
 9925TIP3    H229712   7.955   2.623   6.681
 9926TIP3   OH229713   6.848   1.675   7.064
 9926TIP3    H129714   6.927   1.707   7.112
 9926TIP3    H229715   6.782   1.674   7.136
 9927TIP3   OH229716   7.301   1.138   6.306
 9927TIP3    H129717   7.385   1.104   6.272
 9927TIP3    H229718   7.303   1.106   6.399
 9928TIP3   OH229719   7.296   1.057   6.564
 9928TIP3    H129720   7.202   1.038   6.582
 9928TIP3    H229721   7.333   1.044   6.653
 9929TIP3   OH229722   7.027   1.418   5.696
 9929TIP3    H129723   6.956   1.349   5.697
 9929TIP3    H229724   7.013   1.455   5.787
 9930TIP3   OH229725   7.938   1.633   6.331
 9930TIP3    H129726   7.961   1.688   6.253
 9930TIP3    H229727   7.849   1.601   6.307
 9931TIP3   OH229728   7.450   0.801   5.521
 9931TIP3    H129729   7.395   0.746   5.581
 9931TIP3    H229730   7.492   0.862   5.585
 9932TIP3   OH229731   7.432   1.743   6.708
 9932TIP3    H129732   7.400   1.709   6.792
 9932TIP3    H229733   7.385   1.829   6.701
 9933TIP3   OH229734   7.562   0.990   5.682
 9933TIP3    H129735   7.660   0.993   5.691
 9933TIP3    H229736   7.544   1.066   5.624
 9934TIP3   OH229737   6.720   1.437   6.378
 9934TIP3    H129738   6.760   1.404   6.295
 9934TIP3    H229739   6.752   1.373   6.444
 9935TIP3   OH229740   7.171   1.567   5.518
 9935TIP3    H129741   7.125   1.654   5.524
 9935TIP3    H229742   7.122   1.516   5.587
 9936TIP3   OH229743   6.600   1.354   6.988
 9936TIP3    H129744   6.623   1.345   7.083
 9936TIP3    H229745   6.527   1.291   6.978
 9937TIP3   OH229746   7.315   1.482   7.007
 9937TIP3    H129747   7.242   1.431   6.967
 9937TIP3    H229748   7.386   1.416   7.010
 9938TIP3   OH229749   7.579   1.998   6.588
 9938TIP3    H129750   7.483   1.988   6.602
 9938TIP3    H229751   7.602   2.049   6.668
 9939TIP3   OH229752   7.995   1.062   5.492
 9939TIP3    H129753   7.932   1.015   5.434
 9939TIP3    H229754   7.984   1.153   5.456
 9940TIP3   OH229755   7.686   1.884   5.411
 9940TIP3    H129756   7.674   1.813   5.475
 9940TIP3    H229757   7.708   1.837   5.328
 9941TIP3   OH229758   7.689   1.511   6.256
 9941TIP3    H129759   7.594   1.489   6.252
 9941TIP3    H229760   7.727   1.436   6.206
 9942TIP3   OH229761   6.815   1.736   5.991
 9942TIP3    H129762   6.812   1.822   5.946
 9942TIP3    H229763   6.725   1.727   6.024
 9943TIP3   OH229764   6.376   1.049   5.708
 9943TIP3    H129765   6.424   1.130   5.732
 9943TIP3    H229766   6.300   1.053   5.770
 9944TIP3   OH229767   6.959   1.506   5.940
 9944TIP3    H129768   6.919   1.594   5.960
 9944TIP3    H229769   6.927   1.454   6.015
 9945TIP3   OH229770   7.088   2.085   6.470
 9945TIP3    H129771   7.131   2.159   6.423
 9945TIP3    H229772   7.161   2.050   6.523
 9946TIP3   OH229773   6.736   1.980   5.851
 9946TIP3    H129774   6.652   1.986   5.900
 9946TIP3    H229775   6.767   2.073   5.856
 9947TIP3   OH229776   7.475   1.717   6.434
 9947TIP3    H129777   7.470   1.717   6.533
 9947TIP3    H229778   7.555   1.665   6.419
 9948TIP3   OH229779   7.443   1.603   5.319
 9948TIP3    H129780   7.510   1.580   5.388
 9948TIP3    H229781   7.362   1.592   5.372
 9949TIP3   OH229782   7.719   2.255   6.488
 9949TIP3    H129783   7.645   2.192   6.476
 9949TIP3    H229784   7.706   2.315   6.411
 9950TIP3   OH229785   7.789   2.088   5.133
 9950TIP3    H129786   7.825   2.161   5.080
 9950TIP3    H229787   7.708   2.132   5.167
 9951TIP3   OH229788   7.611   1.544   5.527
 9951TIP3    H129789   7.601   1.478   5.599
 9951TIP3    H229790   7.708   1.542   5.516
 9952TIP3   OH229791   6.529   1.949   6.633
 9952TIP3    H129792   6.580   1.877   6.674
 9952TIP3    H229793   6.531   2.015   6.704
 9953TIP3   OH229794   6.770   1.586   5.568
 9953TIP3    H129795   6.826   1.564   5.644
 9953TIP3    H229796   6.767   1.684   5.574
 9954TIP3   OH229797   6.495   1.292   5.789
 9954TIP3    H129798   6.429   1.334   5.848
 9954TIP3    H229799   6.510   1.364   5.726
 9955TIP3   OH229800   7.023   1.793   5.514
 9955TIP3    H129801   6.941   1.813   5.563
 9955TIP3    H229802   7.049   1.883   5.488
 9956TIP3   OH229803   7.239   0.841   5.913
 9956TIP3    H129804   7.287   0.927   5.912
 9956TIP3    H229805   7.226   0.828   6.008
 9957TIP3   OH229806   7.424   1.098   6.807
 9957TIP3    H129807   7.397   1.188   6.782
 9957TIP3    H229808   7.510   1.094   6.759
 9958TIP3   OH229809   6.768   1.863   5.600
 9958TIP3    H129810   6.739   1.935   5.540
 9958TIP3    H229811   6.753   1.904   5.688
 9959TIP3   OH229812   7.776   1.282   6.120
 9959TIP3    H129813   7.699   1.227   6.142
 9959TIP3    H229814   7.849   1.239   6.169
 9960TIP3   OH229815   6.490   1.505   5.597
 9960TIP3    H129816   6.523   1.590   5.631
 9960TIP3    H229817   6.556   1.490   5.528
 9961TIP3   OH229818   6.437   0.778   5.688
 9961TIP3    H129819   6.418   0.872   5.706
 9961TIP3    H229820   6.353   0.735   5.708
 9962TIP3   OH229821   7.743   2.228   6.073
 9962TIP3    H129822   7.702   2.280   6.000
 9962TIP3    H229823   7.838   2.248   6.056
 9963TIP3   OH229824   6.357   1.708   5.979
 9963TIP3    H129825   6.295   1.741   6.045
 9963TIP3    H229826   6.326   1.754   5.897
 9964TIP3   OH229827   7.028   2.246   7.053
 9964TIP3    H129828   7.097   2.199   7.102
 9964TIP3    H229829   6.983   2.173   7.007
 9965TIP3   OH229830   6.977   1.795   5.223
 9965TIP3    H129831   6.974   1.742   5.305
 9965TIP3    H229832   7.051   1.752   5.175
 9966TIP3   OH229833   7.598   2.130   6.830
 9966TIP3    H129834   7.607   2.056   6.894
 9966TIP3    H229835   7.683   2.179   6.844
 9967TIP3   OH229836   7.414   1.834   5.133
 9967TIP3    H129837   7.469   1.781   5.193
 9967TIP3    H229838   7.470   1.838   5.052
 9968TIP3   OH229839   6.647   1.664   7.254
 9968TIP3    H129840   6.663   1.569   7.263
 9968TIP3    H229841   6.560   1.665   7.209
 9969TIP3   OH229842   7.270   1.755   7.002
 9969TIP3    H129843   7.204   1.772   6.932
 9969TIP3    H229844   7.280   1.657   7.002
 9970TIP3   OH229845   7.062   1.476   5.287
 9970TIP3    H129846   7.110   1.522   5.359
 9970TIP3    H229847   7.128   1.411   5.257
 9971TIP3   OH229848   7.737   1.745   6.630
 9971TIP3    H129849   7.812   1.789   6.584
 9971TIP3    H229850   7.668   1.812   6.616
 9972TIP3   OH229851   6.774   1.390   7.222
 9972TIP3    H129852   6.847   1.326   7.222
 9972TIP3    H229853   6.778   1.418   7.316
 9973TIP3   OH229854   6.845   1.220   5.668
 9973TIP3    H129855   6.803   1.194   5.752
 9973TIP3    H229856   6.868   1.132   5.630
 9974TIP3   OH229857   7.099   1.329   6.893
 9974TIP3    H129858   7.009   1.369   6.897
 9974TIP3    H229859   7.117   1.329   6.798
 9975TIP3   OH229860   6.935   1.019   5.508
 9975TIP3    H129861   6.909   0.996   5.416
 9975TIP3    H229862   7.032   1.004   5.505
 9976TIP3   OH229863   7.751   1.340   5.173
 9976TIP3    H129864   7.735   1.295   5.087
 9976TIP3    H229865   7.721   1.430   5.149
 9977TIP3   OH229866   7.217   1.123   7.013
 9977TIP3    H129867   7.223   1.073   6.930
 9977TIP3    H229868   7.182   1.209   6.978
 9978TIP3   OH229869   7.290   1.393   6.688
 9978TIP3    H129870   7.342   1.396   6.606
 9978TIP3    H229871   7.220   1.458   6.668
 9979TIP3   OH229872   7.028   1.203   7.196
 9979TIP3    H129873   6.982   1.119   7.209
 9979TIP3    H229874   7.097   1.180   7.131
 9980TIP3   OH229875   6.738   2.061   5.406
 9980TIP3    H129876   6.834   2.066   5.393
 9980TIP3    H229877   6.709   2.119   5.334
 9981TIP3   OH229878   6.217   1.457   5.621
 9981TIP3    H129879   6.314   1.474   5.617
 9981TIP3    H229880   6.212   1.366   5.586
 9982TIP3   OH229881   6.139   2.065   6.042
 9982TIP3    H129882   6.068   2.005   6.009
 9982TIP3    H229883   6.180   2.008   6.111
 9983TIP3   OH229884   6.275   1.915   6.230
 9983TIP3    H129885   6.261   1.845   6.296
 9983TIP3    H229886   6.322   1.980   6.286
 9984TIP3   OH229887   7.992   2.329   6.029
 9984TIP3    H129888   8.026   2.352   6.117
 9984TIP3    H229889   8.067   2.352   5.972
 9985TIP3   OH229890   8.028   2.343   6.311
 9985TIP3    H129891   7.982   2.256   6.306
 9985TIP3    H229892   8.101   2.318   6.370
 9986TIP3   OH229893   7.888   1.532   5.502
 9986TIP3    H129894   7.959   1.594   5.475
 9986TIP3    H229895   7.928   1.493   5.583
 9987TIP3   OH229896   8.009   1.409   5.710
 9987TIP3    H129897   7.945   1.359   5.766
 9987TIP3    H229898   8.072   1.443   5.776
 9988TIP3   OH229899   8.065   1.790   6.141
 9988TIP3    H129900   8.121   1.725   6.093
 9988TIP3    H229901   8.059   1.862   6.076
 9989TIP3   OH229902   7.905   2.098   6.325
 9989TIP3    H129903   7.838   2.118   6.392
 9989TIP3    H229904   7.856   2.040   6.264
 9990TIP3   OH229905   7.949   1.302   5.357
 9990TIP3    H129906   7.880   1.310   5.288
 9990TIP3    H229907   7.926   1.380   5.411
 9991TIP3   OH229908   7.815   0.965   5.304
 9991TIP3    H129909   7.802   1.035   5.239
 9991TIP3    H229910   7.776   0.889   5.260
 9992TIP3   OH229911   7.831   1.259   5.850
 9992TIP3    H129912   7.837   1.163   5.835
 9992TIP3    H229913   7.817   1.265   5.947
 9993TIP3   OH229914   6.457   1.330   6.599
 9993TIP3    H129915   6.456   1.299   6.506
 9993TIP3    H229916   6.554   1.328   6.618
 9994TIP3   OH229917   7.834   0.999   5.722
 9994TIP3    H129918   7.861   0.918   5.769
 9994TIP3    H229919   7.900   1.004   5.650
 9995TIP3   OH229920   7.993   1.169   6.245
 9995TIP3    H129921   8.088   1.167   6.228
 9995TIP3    H229922   7.991   1.165   6.342
 9996TIP3   OH229923   6.664   1.007   7.272
 9996TIP3    H129924   6.759   0.996   7.275
 9996TIP3    H229925   6.634   0.924   7.313
 9997TIP3   OH229926   6.434   0.980   6.677
 9997TIP3    H129927   6.483   0.983   6.593
 9997TIP3    H229928   6.468   1.057   6.724
 9998TIP3   OH229929   7.582   2.189   5.688
 9998TIP3    H129930   7.628   2.169   5.603
 9998TIP3    H229931   7.648   2.244   5.732
 9999TIP3   OH229932   6.864   2.016   6.621
 9999TIP3    H129933   6.808   2.089   6.587
 9999TIP3    H229934   6.947   2.038   6.573
10000TIP3   OH229935   7.306   2.262   6.754
10000TIP3    H129936   7.340   2.269   6.846
10000TIP3    H229937   7.372   2.315   6.705
10001TIP3   OH229938   7.484   2.415   6.609
10001TIP3    H129939   7.557   2.361   6.576
10001TIP3    H229940   7.532   2.477   6.668
10002TIP3   OH229941   6.542   2.282   6.644
10002TIP3    H129942   6.451   2.318   6.632
10002TIP3    H229943   6.551   2.288   6.740
10003TIP3   OH229944   6.775   2.257   6.501
10003TIP3    H129945   6.690   2.270   6.551
10003TIP3    H229946   6.750   2.290   6.413
10004TIP3   OH229947   7.202   2.289   6.295
10004TIP3    H129948   7.126   2.308   6.236
10004TIP3    H229949   7.211   2.374   6.343
10005TIP3   OH229950   7.468   2.222   6.346
10005TIP3    H129951   7.373   2.240   6.330
10005TIP3    H229952   7.510   2.304   6.314
10006TIP3   OH229953   7.680   2.419   6.268
10006TIP3    H129954   7.666   2.501   6.217
10006TIP3    H229955   7.705   2.355   6.198
10007TIP3   OH229956   6.451   2.073   6.388
10007TIP3    H129957   6.476   2.049   6.480
10007TIP3    H229958   6.522   2.026   6.340
10008TIP3   OH229959   6.644   1.942   6.243
10008TIP3    H129960   6.656   1.858   6.295
10008TIP3    H229961   6.735   1.978   6.244
10009TIP3   OH229962   6.911   2.037   6.247
10009TIP3    H129963   6.941   1.944   6.241
10009TIP3    H229964   6.951   2.061   6.332
10010TIP3   OH229965   6.240   1.841   5.776
10010TIP3    H129966   6.153   1.811   5.744
10010TIP3    H229967   6.227   1.937   5.768
10011TIP3   OH229968   7.009   2.035   5.362
10011TIP3    H129969   7.098   2.055   5.326
10011TIP3    H229970   6.984   1.962   5.301
10012TIP3   OH229971   7.725   2.149   5.455
10012TIP3    H129972   7.716   2.051   5.442
10012TIP3    H229973   7.682   2.182   5.373
10013TIP3   OH229974   6.307   1.869   5.420
10013TIP3    H129975   6.302   1.899   5.512
10013TIP3    H229976   6.397   1.830   5.416
10014TIP3   OH229977   7.946   2.297   6.637
10014TIP3    H129978   7.870   2.267   6.583
10014TIP3    H229979   7.930   2.394   6.639
10015TIP3   OH229980   8.472   1.962   5.921
10015TIP3    H129981   8.439   1.880   5.883
10015TIP3    H229982   8.564   1.962   5.886
10016TIP3   OH229983   8.193   1.202   5.692
10016TIP3    H129984   8.123   1.268   5.677
10016TIP3    H229985   8.163   1.128   5.638
10017TIP3   OH229986   8.274   1.463   5.833
10017TIP3    H129987   8.290   1.367   5.835
10017TIP3    H229988   8.316   1.487   5.749
10018TIP3   OH229989   8.096   1.695   5.400
10018TIP3    H129990   8.052   1.724   5.318
10018TIP3    H229991   8.122   1.782   5.439
10019TIP3   OH229992   8.297   1.804   6.300
10019TIP3    H129993   8.214   1.810   6.248
10019TIP3    H229994   8.264   1.770   6.384
10020TIP3   OH229995   8.135   2.020   5.971
10020TIP3    H129996   8.232   2.018   5.967
10020TIP3    H229997   8.122   2.096   6.031
10021TIP3   OH229998   8.271   2.226   5.494
10021TIP3    H129999   8.354   2.239   5.542
10021TIP3    H230000   8.234   2.151   5.543
10022TIP3   OH230001   8.259   0.981   5.463
10022TIP3    H130002   8.271   0.995   5.367
10022TIP3    H230003   8.164   0.999   5.473
10023TIP3   OH230004   8.171   1.294   5.193
10023TIP3    H130005   8.221   1.377   5.211
10023TIP3    H230006   8.097   1.304   5.256
10024TIP3   OH230007   8.315   2.204   6.120
10024TIP3    H130008   8.374   2.132   6.150
10024TIP3    H230009   8.348   2.278   6.172
10025TIP3   OH230010   8.275   1.536   5.261
10025TIP3    H130011   8.218   1.581   5.325
10025TIP3    H230012   8.290   1.607   5.195
10026TIP3   OH230013   8.273   1.743   5.063
10026TIP3    H130014   8.343   1.804   5.094
10026TIP3    H230015   8.302   1.727   4.971
10027TIP3   OH230016   8.239   1.031   5.188
10027TIP3    H130017   8.223   1.128   5.190
10027TIP3    H230018   8.150   0.995   5.183
10028TIP3   OH230019   8.141   1.953   5.471
10028TIP3    H130020   8.075   1.999   5.524
10028TIP3    H230021   8.142   2.008   5.390
10029TIP3   OH230022   8.277   2.477   6.517
10029TIP3    H130023   8.365   2.476   6.558
10029TIP3    H230024   8.253   2.382   6.522
10030TIP3   OH230025   8.005   1.708   5.117
10030TIP3    H130026   8.100   1.726   5.102
10030TIP3    H230027   7.998   1.617   5.081
10031TIP3   OH230028   7.923   2.324   5.537
10031TIP3    H130029   7.861   2.258   5.498
10031TIP3    H230030   7.975   2.267   5.597
10032TIP3   OH230031   8.066   2.171   5.716
10032TIP3    H130032   8.060   2.100   5.782
10032TIP3    H230033   8.119   2.236   5.766
10033TIP3   OH230034   8.251   1.592   6.074
10033TIP3    H130035   8.255   1.548   5.986
10033TIP3    H230036   8.344   1.604   6.095
10034TIP3   OH230037   8.324   2.529   6.135
10034TIP3    H130038   8.241   2.572   6.106
10034TIP3    H230039   8.326   2.559   6.227
10035TIP3   OH230040   8.582   2.511   6.007
10035TIP3    H130041   8.490   2.519   6.039
10035TIP3    H230042   8.572   2.544   5.915
10036TIP3   OH230043   8.235   2.330   5.880
10036TIP3    H130044   8.268   2.308   5.970
10036TIP3    H230045   8.308   2.289   5.827
10037TIP3   OH230046   8.422   2.198   5.735
10037TIP3    H130047   8.434   2.106   5.765
10037TIP3    H230048   8.513   2.218   5.705
10038TIP3   OH230049   8.038   2.097   5.257
10038TIP3    H130050   7.949   2.070   5.228
10038TIP3    H230051   8.029   2.194   5.254
10039TIP3   OH230052   8.111   2.133   4.916
10039TIP3    H130053   8.080   2.166   5.003
10039TIP3    H230054   8.184   2.075   4.941
10040TIP3   OH230055   1.673   2.452   7.098
10040TIP3    H130056   1.647   2.545   7.081
10040TIP3    H230057   1.592   2.406   7.071
10041TIP3   OH230058   1.649   2.461   7.465
10041TIP3    H130059   1.702   2.443   7.545
10041TIP3    H230060   1.617   2.373   7.440
10042TIP3   OH230061   1.914   2.756   7.162
10042TIP3    H130062   1.902   2.686   7.227
10042TIP3    H230063   1.944   2.830   7.217
10043TIP3   OH230064   0.942   2.763   7.563
10043TIP3    H130065   0.928   2.666   7.567
10043TIP3    H230066   1.039   2.766   7.571
10044TIP3   OH230067   0.697   2.234   7.501
10044TIP3    H130068   0.750   2.200   7.573
10044TIP3    H230069   0.760   2.289   7.454
10045TIP3   OH230070   1.563   3.220   7.177
10045TIP3    H130071   1.610   3.149   7.128
10045TIP3    H230072   1.557   3.182   7.265
10046TIP3   OH230073   1.471   2.679   7.513
10046TIP3    H130074   1.512   2.599   7.477
10046TIP3    H230075   1.552   2.723   7.546
10047TIP3   OH230076   2.476   2.001   7.516
10047TIP3    H130077   2.494   2.083   7.567
10047TIP3    H230078   2.501   2.029   7.426
10048TIP3   OH230079   1.870   2.162   7.564
10048TIP3    H130080   1.926   2.084   7.581
10048TIP3    H230081   1.853   2.153   7.468
10049TIP3   OH230082   1.246   1.847   7.526
10049TIP3    H130083   1.202   1.924   7.487
10049TIP3    H230084   1.187   1.774   7.500
10050TIP3   OH230085   1.914   1.927   7.150
10050TIP3    H130086   1.987   1.916   7.215
10050TIP3    H230087   1.964   1.963   7.074
10051TIP3   OH230088   1.297   2.243   7.427
10051TIP3    H130089   1.391   2.217   7.437
10051TIP3    H230090   1.257   2.161   7.393
10052TIP3   OH230091   2.542   2.197   7.699
10052TIP3    H130092   2.455   2.243   7.692
10052TIP3    H230093   2.592   2.256   7.759
10053TIP3   OH230094   1.562   2.675   6.970
10053TIP3    H130095   1.522   2.658   6.883
10053TIP3    H230096   1.520   2.760   6.994
10054TIP3   OH230097   2.118   1.937   7.325
10054TIP3    H130098   2.133   1.882   7.403
10054TIP3    H230099   2.179   2.011   7.342
10055TIP3   OH230100   0.560   2.480   7.086
10055TIP3    H130101   0.506   2.506   7.009
10055TIP3    H230102   0.577   2.565   7.130
10056TIP3   OH230103   1.987   3.000   7.328
10056TIP3    H130104   1.897   2.990   7.368
10056TIP3    H230105   1.977   3.086   7.283
10057TIP3   OH230106   2.273   1.895   7.700
10057TIP3    H130107   2.187   1.923   7.667
10057TIP3    H230108   2.335   1.925   7.631
10058TIP3   OH230109   1.687   3.047   7.004
10058TIP3    H130110   1.736   2.964   6.984
10058TIP3    H230111   1.748   3.112   6.962
10059TIP3   OH230112   1.828   2.832   6.910
10059TIP3    H130113   1.798   2.751   6.867
10059TIP3    H230114   1.864   2.796   6.994
10060TIP3   OH230115   2.209   2.915   7.670
10060TIP3    H130116   2.199   2.835   7.613
10060TIP3    H230117   2.193   2.987   7.606
10061TIP3   OH230118   1.499   2.302   6.927
10061TIP3    H130119   1.423   2.360   6.907
10061TIP3    H230120   1.553   2.309   6.846
10062TIP3   OH230121   1.474   2.078   6.634
10062TIP3    H130122   1.523   2.136   6.696
10062TIP3    H230123   1.548   2.025   6.599
10063TIP3   OH230124   2.407   2.548   7.518
10063TIP3    H130125   2.325   2.601   7.526
10063TIP3    H230126   2.435   2.573   7.427
10064TIP3   OH230127   1.849   2.387   6.899
10064TIP3    H130128   1.796   2.411   6.979
10064TIP3    H230129   1.933   2.361   6.942
10065TIP3   OH230130   2.076   2.452   7.790
10065TIP3    H130131   2.074   2.547   7.809
10065TIP3    H230132   1.996   2.443   7.736
10066TIP3   OH230133   1.084   2.389   7.315
10066TIP3    H130134   1.046   2.328   7.249
10066TIP3    H230135   1.160   2.337   7.350
10067TIP3   OH230136   1.219   2.805   7.463
10067TIP3    H130137   1.195   2.754   7.384
10067TIP3    H230138   1.307   2.766   7.485
10068TIP3   OH230139   1.201   2.381   7.651
10068TIP3    H130140   1.239   2.325   7.579
10068TIP3    H230141   1.278   2.430   7.680
10069TIP3   OH230142   1.746   2.993   7.448
10069TIP3    H130143   1.730   3.075   7.497
10069TIP3    H230144   1.726   2.923   7.513
10070TIP3   OH230145   1.687   2.245   6.727
10070TIP3    H130146   1.752   2.296   6.781
10070TIP3    H230147   1.717   2.269   6.636
10071TIP3   OH230148   1.434   2.927   7.001
10071TIP3    H130149   1.513   2.979   7.020
10071TIP3    H230150   1.373   2.993   6.964
10072TIP3   OH230151   2.204   1.480   6.778
10072TIP3    H130152   2.123   1.512   6.823
10072TIP3    H230153   2.232   1.561   6.729
10073TIP3   OH230154   0.954   2.229   7.116
10073TIP3    H130155   0.883   2.271   7.062
10073TIP3    H230156   0.911   2.147   7.143
10074TIP3   OH230157   2.006   2.855   6.325
10074TIP3    H130158   2.015   2.952   6.309
10074TIP3    H230159   2.098   2.825   6.312
10075TIP3   OH230160   2.444   3.262   7.702
10075TIP3    H130161   2.450   3.166   7.719
10075TIP3    H230162   2.371   3.283   7.764
10076TIP3   OH230163   1.576   3.059   7.869
10076TIP3    H130164   1.521   3.135   7.892
10076TIP3    H230165   1.509   2.986   7.868
10077TIP3   OH230166   1.313   3.172   6.805
10077TIP3    H130167   1.270   3.154   6.720
10077TIP3    H230168   1.282   3.262   6.827
10078TIP3   OH230169   0.752   3.023   7.190
10078TIP3    H130170   0.803   3.014   7.273
10078TIP3    H230171   0.702   2.939   7.190
10079TIP3   OH230172   1.517   3.074   6.445
10079TIP3    H130173   1.575   3.004   6.408
10079TIP3    H230174   1.552   3.082   6.536
10080TIP3   OH230175   1.566   3.122   6.716
10080TIP3    H130176   1.478   3.131   6.759
10080TIP3    H230177   1.617   3.081   6.787
10081TIP3   OH230178   1.758   2.299   6.470
10081TIP3    H130179   1.735   2.267   6.381
10081TIP3    H230180   1.846   2.338   6.453
10082TIP3   OH230181   1.160   2.029   7.328
10082TIP3    H130182   1.070   1.992   7.344
10082TIP3    H230183   1.178   1.986   7.242
10083TIP3   OH230184   1.641   2.106   7.061
10083TIP3    H130185   1.590   2.178   7.018
10083TIP3    H230186   1.698   2.075   6.988
10084TIP3   OH230187   1.798   2.134   7.298
10084TIP3    H130188   1.740   2.167   7.227
10084TIP3    H230189   1.831   2.053   7.254
10085TIP3   OH230190   1.151   1.637   6.749
10085TIP3    H130191   1.118   1.628   6.841
10085TIP3    H230192   1.078   1.689   6.709
10086TIP3   OH230193   1.817   2.406   7.672
10086TIP3    H130194   1.839   2.312   7.647
10086TIP3    H230195   1.787   2.398   7.764
10087TIP3   OH230196   1.481   1.838   7.389
10087TIP3    H130197   1.396   1.844   7.438
10087TIP3    H230198   1.544   1.855   7.461
10088TIP3   OH230199   0.941   1.881   7.370
10088TIP3    H130200   0.853   1.895   7.412
10088TIP3    H230201   0.961   1.789   7.391
10089TIP3   OH230202   1.186   1.893   7.090
10089TIP3    H130203   1.279   1.915   7.069
10089TIP3    H230204   1.135   1.923   7.011
10090TIP3   OH230205   1.972   1.910   7.617
10090TIP3    H130206   1.935   1.917   7.706
10090TIP3    H230207   1.905   1.857   7.570
10091TIP3   OH230208   1.018   1.933   6.875
10091TIP3    H130209   0.945   1.884   6.834
10091TIP3    H230210   1.069   1.959   6.796
10092TIP3   OH230211   2.155   3.607   7.802
10092TIP3    H130212   2.154   3.624   7.706
10092TIP3    H230213   2.230   3.663   7.831
10093TIP3   OH230214   1.564   2.170   7.478
10093TIP3    H130215   1.640   2.138   7.425
10093TIP3    H230216   1.592   2.148   7.568
10094TIP3   OH230217   1.115   1.641   7.394
10094TIP3    H130218   1.064   1.568   7.355
10094TIP3    H230219   1.185   1.652   7.329
10095TIP3   OH230220   1.273   2.459   6.877
10095TIP3    H130221   1.201   2.394   6.868
10095TIP3    H230222   1.256   2.494   6.968
10096TIP3   OH230223   2.176   2.696   7.508
10096TIP3    H130224   2.200   2.745   7.427
10096TIP3    H230225   2.090   2.656   7.484
10097TIP3   OH230226   1.797   2.000   6.851
10097TIP3    H130227   1.895   1.996   6.852
10097TIP3    H230228   1.783   2.064   6.779
10098TIP3   OH230229   0.962   2.480   7.551
10098TIP3    H130230   1.001   2.456   7.465
10098TIP3    H230231   1.030   2.443   7.611
10099TIP3   OH230232   1.416   2.607   6.697
10099TIP3    H130233   1.370   2.694   6.703
10099TIP3    H230234   1.364   2.554   6.760
10100TIP3   OH230235   1.840   3.032   7.789
10100TIP3    H130236   1.743   3.042   7.802
10100TIP3    H230237   1.875   3.085   7.862
10101TIP3   OH230238   2.243   2.101   6.675
10101TIP3    H130239   2.176   2.042   6.630
10101TIP3    H230240   2.227   2.184   6.626
10102TIP3   OH230241   2.454   2.971   7.760
10102TIP3    H130242   2.357   2.961   7.749
10102TIP3    H230243   2.483   2.935   7.674
10103TIP3   OH230244   1.942   2.928   6.589
10103TIP3    H130245   1.920   2.856   6.649
10103TIP3    H230246   1.956   2.883   6.504
10104TIP3   OH230247   1.942   2.564   7.419
10104TIP3    H130248   1.852   2.536   7.442
10104TIP3    H230249   1.977   2.483   7.377
10105TIP3   OH230250   1.066   2.783   7.175
10105TIP3    H130251   1.066   2.866   7.123
10105TIP3    H230252   0.972   2.770   7.191
10106TIP3   OH230253   0.612   2.093   6.900
10106TIP3    H130254   0.679   2.164   6.899
10106TIP3    H230255   0.554   2.128   6.970
10107TIP3   OH230256   1.205   2.550   7.120
10107TIP3    H130257   1.171   2.640   7.140
10107TIP3    H230258   1.172   2.500   7.197
10108TIP3   OH230259   1.331   3.130   7.630
10108TIP3    H130260   1.375   3.208   7.592
10108TIP3    H230261   1.404   3.085   7.673
10109TIP3   OH230262   0.985   3.026   7.030
10109TIP3    H130263   0.900   3.036   7.078
10109TIP3    H230264   1.018   3.119   7.034
10110TIP3   OH230265   1.727   2.762   7.610
10110TIP3    H130266   1.753   2.766   7.703
10110TIP3    H230267   1.806   2.719   7.573
10111TIP3   OH230268   1.699   2.657   6.491
10111TIP3    H130269   1.754   2.631   6.569
10111TIP3    H230270   1.611   2.630   6.522
10112TIP3   OH230271   1.965   3.298   7.659
10112TIP3    H130272   1.887   3.241   7.643
10112TIP3    H230273   1.955   3.363   7.586
10113TIP3   OH230274   2.038   3.131   6.310
10113TIP3    H130275   2.077   3.202   6.256
10113TIP3    H230276   1.958   3.177   6.342
10114TIP3   OH230277   1.858   2.592   6.709
10114TIP3    H130278   1.848   2.522   6.777
10114TIP3    H230279   1.955   2.588   6.695
10115TIP3   OH230280   1.064   2.638   6.490
10115TIP3    H130281   1.080   2.546   6.461
10115TIP3    H230282   1.047   2.625   6.585
10116TIP3   OH230283   1.011   2.641   6.763
10116TIP3    H130284   1.083   2.615   6.822
10116TIP3    H230285   1.015   2.739   6.769
10117TIP3   OH230286   0.748   2.330   6.958
10117TIP3    H130287   0.684   2.375   7.017
10117TIP3    H230288   0.766   2.403   6.895
10118TIP3   OH230289   1.771   1.748   7.002
10118TIP3    H130290   1.768   1.813   6.928
10118TIP3    H230291   1.822   1.803   7.065
10119TIP3   OH230292   1.275   2.837   6.710
10119TIP3    H130293   1.189   2.866   6.746
10119TIP3    H230294   1.293   2.910   6.648
10120TIP3   OH230295   1.464   1.902   7.120
10120TIP3    H130296   1.529   1.974   7.104
10120TIP3    H230297   1.469   1.894   7.218
10121TIP3   OH230298   1.616   1.636   7.225
10121TIP3    H130299   1.599   1.712   7.285
10121TIP3    H230300   1.671   1.679   7.156
10122TIP3   OH230301   1.018   2.914   6.778
10122TIP3    H130302   0.989   2.984   6.715
10122TIP3    H230303   1.003   2.958   6.864
10123TIP3   OH230304   1.137   1.633   7.031
10123TIP3    H130305   1.143   1.729   7.051
10123TIP3    H230306   1.232   1.611   7.029
10124TIP3   OH230307   2.024   2.317   7.302
10124TIP3    H130308   1.951   2.254   7.311
10124TIP3    H230309   2.098   2.271   7.349
10125TIP3   OH230310   0.739   2.548   6.768
10125TIP3    H130311   0.806   2.617   6.779
10125TIP3    H230312   0.785   2.492   6.701
10126TIP3   OH230313   0.726   1.848   6.821
10126TIP3    H130314   0.715   1.933   6.867
10126TIP3    H230315   0.668   1.791   6.874
10127TIP3   OH230316   1.992   3.272   7.250
10127TIP3    H130317   1.949   3.320   7.176
10127TIP3    H230318   2.086   3.290   7.229
10128TIP3   OH230319   0.611   2.771   7.166
10128TIP3    H130320   0.525   2.799   7.199
10128TIP3    H230321   0.602   2.800   7.073
10129TIP3   OH230322   1.229   2.842   6.402
10129TIP3    H130323   1.174   2.769   6.440
10129TIP3    H230324   1.304   2.791   6.367
10130TIP3   OH230325   1.664   2.881   6.313
10130TIP3    H130326   1.710   2.818   6.371
10130TIP3    H230327   1.720   2.881   6.233
10131TIP3   OH230328   0.872   2.357   6.623
10131TIP3    H130329   0.928   2.326   6.696
10131TIP3    H230330   0.939   2.361   6.552
10132TIP3   OH230331   1.379   2.551   6.429
10132TIP3    H130332   1.385   2.566   6.526
10132TIP3    H230333   1.376   2.453   6.425
10133TIP3   OH230334   1.983   2.780   7.772
10133TIP3    H130335   2.074   2.814   7.757
10133TIP3    H230336   1.938   2.863   7.793
10134TIP3   OH230337   1.078   2.260   6.845
10134TIP3    H130338   1.052   2.224   6.932
10134TIP3    H230339   1.113   2.180   6.800
10135TIP3   OH230340   1.184   2.052   6.685
10135TIP3    H130341   1.152   2.057   6.593
10135TIP3    H230342   1.280   2.066   6.674
10136TIP3   OH230343   2.000   2.387   6.351
10136TIP3    H130344   1.982   2.335   6.271
10136TIP3    H230345   1.966   2.475   6.322
10137TIP3   OH230346   0.988   3.117   6.591
10137TIP3    H130347   1.084   3.112   6.572
10137TIP3    H230348   0.959   3.166   6.511
10138TIP3   OH230349   0.477   2.489   6.810
10138TIP3    H130350   0.570   2.516   6.797
10138TIP3    H230351   0.474   2.403   6.765
10139TIP3   OH230352   0.361   3.112   7.226
10139TIP3    H130353   0.318   3.042   7.176
10139TIP3    H230354   0.412   3.061   7.293
10140TIP3   OH230355   0.505   2.974   7.411
10140TIP3    H130356   0.530   2.888   7.446
10140TIP3    H230357   0.563   3.033   7.463
10141TIP3   OH230358   2.245   3.364   7.207
10141TIP3    H130359   2.276   3.395   7.294
10141TIP3    H230360   2.308   3.405   7.146
10142TIP3   OH230361   2.282   3.381   7.491
10142TIP3    H130362   2.230   3.299   7.479
10142TIP3    H230363   2.346   3.346   7.556
10143TIP3   OH230364   2.136   2.574   6.683
10143TIP3    H130365   2.205   2.636   6.652
10143TIP3    H230366   2.180   2.534   6.761
10144TIP3   OH230367   2.265   2.443   6.886
10144TIP3    H130368   2.200   2.398   6.945
10144TIP3    H230369   2.330   2.477   6.950
10145TIP3   OH230370   2.321   2.833   7.318
10145TIP3    H130371   2.373   2.766   7.270
10145TIP3    H230372   2.313   2.905   7.251
10146TIP3   OH230373   2.151   3.136   7.508
10146TIP3    H130374   2.079   3.169   7.564
10146TIP3    H230375   2.102   3.085   7.439
10147TIP3   OH230376   2.203   2.347   6.531
10147TIP3    H130377   2.130   2.349   6.464
10147TIP3    H230378   2.175   2.422   6.587
10148TIP3   OH230379   2.079   2.297   7.031
10148TIP3    H130380   2.088   2.200   7.021
10148TIP3    H230381   2.067   2.308   7.127
10149TIP3   OH230382   2.349   2.697   7.862
10149TIP3    H130383   2.437   2.663   7.888
10149TIP3    H230384   2.367   2.790   7.844
10150TIP3   OH230385   2.551   2.524   7.921
10150TIP3    H130386   2.470   2.475   7.940
10150TIP3    H230387   2.613   2.453   7.896
10151TIP3   OH230388   2.074   2.012   6.930
10151TIP3    H130389   2.117   1.924   6.945
10151TIP3    H230390   2.123   2.040   6.851
10152TIP3   OH230391   2.237   2.192   7.424
10152TIP3    H130392   2.324   2.216   7.384
10152TIP3    H230393   2.252   2.225   7.514
10153TIP3   OH230394   2.304   2.334   7.664
10153TIP3    H130395   2.228   2.371   7.713
10153TIP3    H230396   2.336   2.413   7.615
10154TIP3   OH230397   2.179   1.763   6.972
10154TIP3    H130398   2.234   1.745   7.050
10154TIP3    H230399   2.124   1.682   6.967
10155TIP3   OH230400   2.304   1.680   6.624
10155TIP3    H130401   2.308   1.621   6.547
10155TIP3    H230402   2.287   1.766   6.585
10156TIP3   OH230403   1.830   3.231   6.864
10156TIP3    H130404   1.879   3.215   6.781
10156TIP3    H230405   1.887   3.295   6.908
10157TIP3   OH230406   1.095   3.074   7.789
10157TIP3    H130407   1.079   3.159   7.744
10157TIP3    H230408   1.188   3.062   7.767
10158TIP3   OH230409   1.730   3.467   7.757
10158TIP3    H130410   1.809   3.413   7.745
10158TIP3    H230411   1.737   3.495   7.849
10159TIP3   OH230412   1.010   3.308   7.674
10159TIP3    H130413   0.930   3.347   7.712
10159TIP3    H230414   1.001   3.334   7.580
10160TIP3   OH230415   1.452   3.334   7.472
10160TIP3    H130416   1.378   3.349   7.410
10160TIP3    H230417   1.459   3.422   7.513
10161TIP3   OH230418   1.717   3.263   7.520
10161TIP3    H130419   1.622   3.284   7.505
10161TIP3    H230420   1.758   3.346   7.492
10162TIP3   OH230421   1.932   3.462   7.444
10162TIP3    H130422   1.911   3.545   7.396
10162TIP3    H230423   1.951   3.400   7.371
10163TIP3   OH230424   0.696   3.113   7.556
10163TIP3    H130425   0.716   3.099   7.649
10163TIP3    H230426   0.772   3.068   7.512
10164TIP3   OH230427   0.893   2.987   7.420
10164TIP3    H130428   0.909   2.901   7.467
10164TIP3    H230429   0.985   3.023   7.417
10165TIP3   OH230430   1.156   3.080   7.425
10165TIP3    H130431   1.187   2.987   7.414
10165TIP3    H230432   1.207   3.102   7.506
10166TIP3   OH230433   1.747   1.746   7.509
10166TIP3    H130434   1.717   1.670   7.560
10166TIP3    H230435   1.819   1.706   7.455
10167TIP3   OH230436   2.256   1.614   7.417
10167TIP3    H130437   2.297   1.664   7.344
10167TIP3    H230438   2.163   1.640   7.412
10168TIP3   OH230439   2.351   1.720   7.184
10168TIP3    H130440   2.423   1.668   7.142
10168TIP3    H230441   2.385   1.812   7.167
10169TIP3   OH230442   1.403   1.504   7.376
10169TIP3    H130443   1.481   1.548   7.339
10169TIP3    H230444   1.421   1.505   7.470
10170TIP3   OH230445   1.963   1.623   7.392
10170TIP3    H130446   1.983   1.588   7.304
10170TIP3    H230447   1.953   1.540   7.444
10171TIP3   OH230448   2.000   1.549   6.959
10171TIP3    H130449   1.914   1.593   6.965
10171TIP3    H230450   1.983   1.465   7.006
10172TIP3   OH230451   0.471   2.892   6.964
10172TIP3    H130452   0.407   2.842   6.912
10172TIP3    H230453   0.463   2.981   6.923
10173TIP3   OH230454   1.416   1.647   7.029
10173TIP3    H130455   1.466   1.606   7.102
10173TIP3    H230456   1.429   1.742   7.054
10174TIP3   OH230457   1.257   3.078   6.539
10174TIP3    H130458   1.345   3.100   6.503
10174TIP3    H230459   1.235   3.003   6.479
10175TIP3   OH230460   1.975   3.195   6.632
10175TIP3    H130461   1.967   3.097   6.620
10175TIP3    H230462   1.931   3.227   6.551
10176TIP3   OH230463   0.561   2.912   6.596
10176TIP3    H130464   0.564   2.951   6.685
10176TIP3    H230465   0.651   2.872   6.587
10177TIP3   OH230466   2.195   3.331   7.808
10177TIP3    H130467   2.116   3.311   7.754
10177TIP3    H230468   2.183   3.426   7.825
10178TIP3   OH230469   3.468   2.711   6.587
10178TIP3    H130470   3.440   2.802   6.567
10178TIP3    H230471   3.392   2.661   6.551
10179TIP3   OH230472   3.466   2.713   6.967
10179TIP3    H130473   3.498   2.682   7.053
10179TIP3    H230474   3.426   2.633   6.930
10180TIP3   OH230475   2.767   2.609   7.331
10180TIP3    H130476   2.796   2.540   7.394
10180TIP3    H230477   2.848   2.660   7.320
10181TIP3   OH230478   3.708   3.015   6.648
10181TIP3    H130479   3.698   2.943   6.712
10181TIP3    H230480   3.743   3.087   6.703
10182TIP3   OH230481   2.738   3.018   7.060
10182TIP3    H130482   2.730   2.920   7.060
10182TIP3    H230483   2.835   3.025   7.049
10183TIP3   OH230484   2.443   2.221   6.841
10183TIP3    H130485   2.390   2.302   6.852
10183TIP3    H230486   2.377   2.162   6.800
10184TIP3   OH230487   2.505   2.508   7.014
10184TIP3    H130488   2.552   2.429   7.049
10184TIP3    H230489   2.561   2.532   6.939
10185TIP3   OH230490   3.361   3.476   6.666
10185TIP3    H130491   3.405   3.406   6.613
10185TIP3    H230492   3.356   3.434   6.752
10186TIP3   OH230493   3.266   2.938   7.016
10186TIP3    H130494   3.304   2.861   6.970
10186TIP3    H230495   3.350   2.983   7.039
10187TIP3   OH230496   4.279   2.257   7.013
10187TIP3    H130497   4.308   2.341   7.055
10187TIP3    H230498   4.300   2.276   6.919
10188TIP3   OH230499   3.677   2.439   7.048
10188TIP3    H130500   3.721   2.354   7.068
10188TIP3    H230501   3.647   2.424   6.957
10189TIP3   OH230502   3.016   2.099   7.013
10189TIP3    H130503   2.996   2.171   6.950
10189TIP3    H230504   2.970   2.024   6.968
10190TIP3   OH230505   3.710   2.191   6.635
10190TIP3    H130506   3.783   2.174   6.700
10190TIP3    H230507   3.763   2.225   6.560
10191TIP3   OH230508   2.649   2.300   7.119
10191TIP3    H130509   2.733   2.279   7.166
10191TIP3    H230510   2.661   2.244   7.039
10192TIP3   OH230511   3.090   2.498   6.914
10192TIP3    H130512   3.184   2.472   6.925
10192TIP3    H230513   3.051   2.414   6.881
10193TIP3   OH230514   4.353   2.464   7.183
10193TIP3    H130515   4.271   2.512   7.162
10193TIP3    H230516   4.367   2.492   7.275
10194TIP3   OH230517   3.014   2.082   7.445
10194TIP3    H130518   2.954   2.117   7.376
10194TIP3    H230519   2.961   2.103   7.525
10195TIP3   OH230520   3.358   2.931   6.457
10195TIP3    H130521   3.318   2.912   6.371
10195TIP3    H230522   3.315   3.016   6.480
10196TIP3   OH230523   3.121   2.857   7.243
10196TIP3    H130524   3.058   2.923   7.280
10196TIP3    H230525   3.162   2.907   7.169
10197TIP3   OH230526   3.922   2.191   6.806
10197TIP3    H130527   3.913   2.142   6.888
10197TIP3    H230528   3.975   2.268   6.833
10198TIP3   OH230529   2.884   2.197   7.231
10198TIP3    H130530   2.947   2.269   7.253
10198TIP3    H230531   2.932   2.156   7.155
10199TIP3   OH230532   2.946   3.050   7.342
10199TIP3    H130533   2.920   3.134   7.300
10199TIP3    H230534   2.867   3.035   7.398
10200TIP3   OH230535   2.341   2.740   6.575
10200TIP3    H130536   2.301   2.766   6.490
10200TIP3    H230537   2.373   2.825   6.611
10201TIP3   OH230538   3.781   3.257   6.820
10201TIP3    H130539   3.690   3.249   6.856
10201TIP3    H230540   3.774   3.341   6.771
10202TIP3   OH230541   4.073   2.157   7.179
10202TIP3    H130542   3.985   2.186   7.148
10202TIP3    H230543   4.132   2.190   7.108
10203TIP3   OH230544   3.370   1.800   7.161
10203TIP3    H130545   3.356   1.705   7.176
10203TIP3    H230546   3.292   1.838   7.207
10204TIP3   OH230547   3.481   3.304   6.489
10204TIP3    H130548   3.531   3.221   6.470
10204TIP3    H230549   3.544   3.369   6.448
10205TIP3   OH230550   3.623   3.089   6.397
10205TIP3    H130551   3.594   3.008   6.353
10205TIP3    H230552   3.659   3.054   6.481
10206TIP3   OH230553   4.008   3.170   7.159
10206TIP3    H130554   3.998   3.092   7.100
10206TIP3    H230555   3.992   3.244   7.098
10207TIP3   OH230556   3.300   2.564   6.416
10207TIP3    H130557   3.219   2.615   6.393
10207TIP3    H230558   3.346   2.559   6.331
10208TIP3   OH230559   3.258   2.347   6.133
10208TIP3    H130560   3.326   2.399   6.181
10208TIP3    H230561   3.315   2.284   6.085
10209TIP3   OH230562   4.204   2.806   7.004
10209TIP3    H130563   4.121   2.859   7.007
10209TIP3    H230564   4.235   2.830   6.914
10210TIP3   OH230565   3.646   2.646   6.388
10210TIP3    H130566   3.592   2.670   6.467
10210TIP3    H230567   3.730   2.620   6.431
10211TIP3   OH230568   3.882   2.685   7.300
10211TIP3    H130569   3.878   2.769   7.349
10211TIP3    H230570   3.796   2.689   7.253
10212TIP3   OH230571   2.879   2.644   6.806
10212TIP3    H130572   2.836   2.586   6.739
10212TIP3    H230573   2.955   2.590   6.834
10213TIP3   OH230574   3.007   3.054   6.955
10213TIP3    H130575   2.987   3.014   6.869
10213TIP3    H230576   3.098   3.020   6.972
10214TIP3   OH230577   3.015   2.614   7.160
10214TIP3    H130578   3.047   2.591   7.071
10214TIP3    H230579   3.059   2.700   7.178
10215TIP3   OH230580   3.536   3.254   6.936
10215TIP3    H130581   3.528   3.332   6.994
10215TIP3    H230582   3.525   3.179   6.998
10216TIP3   OH230583   3.152   3.174   7.480
10216TIP3    H130584   3.091   3.233   7.529
10216TIP3    H230585   3.087   3.118   7.433
10217TIP3   OH230586   3.486   2.504   6.215
10217TIP3    H130587   3.546   2.564   6.266
10217TIP3    H230588   3.513   2.527   6.122
10218TIP3   OH230589   2.911   2.725   7.584
10218TIP3    H130590   2.916   2.814   7.624
10218TIP3    H230591   2.815   2.708   7.589
10219TIP3   OH230592   3.228   3.185   6.493
10219TIP3    H130593   3.310   3.237   6.505
10219TIP3    H230594   3.170   3.248   6.448
10220TIP3   OH230595   2.944   3.341   7.569
10220TIP3    H130596   2.912   3.335   7.476
10220TIP3    H230597   2.864   3.316   7.621
10221TIP3   OH230598   4.004   1.744   6.263
10221TIP3    H130599   3.921   1.764   6.312
10221TIP3    H230600   4.017   1.828   6.213
10222TIP3   OH230601   2.744   2.487   6.613
10222TIP3    H130602   2.678   2.530   6.554
10222TIP3    H230603   2.707   2.399   6.621
10223TIP3   OH230604   3.801   3.112   5.811
10223TIP3    H130605   3.810   3.209   5.796
10223TIP3    H230606   3.894   3.082   5.797
10224TIP3   OH230607   2.527   2.874   7.517
10224TIP3    H130608   2.459   2.851   7.450
10224TIP3    H230609   2.564   2.786   7.541
10225TIP3   OH230610   2.379   3.064   7.147
10225TIP3    H130611   2.475   3.054   7.138
10225TIP3    H230612   2.372   3.142   7.204
10226TIP3   OH230613   4.243   3.516   7.204
10226TIP3    H130614   4.244   3.418   7.213
10226TIP3    H230615   4.160   3.537   7.250
10227TIP3   OH230616   3.351   3.301   7.340
10227TIP3    H130617   3.349   3.394   7.372
10227TIP3    H230618   3.279   3.261   7.393
10228TIP3   OH230619   3.110   3.429   6.293
10228TIP3    H130620   3.067   3.409   6.208
10228TIP3    H230621   3.079   3.518   6.313
10229TIP3   OH230622   2.548   3.279   6.676
10229TIP3    H130623   2.597   3.269   6.761
10229TIP3    H230624   2.495   3.198   6.676
10230TIP3   OH230625   3.313   3.330   5.932
10230TIP3    H130626   3.371   3.261   5.895
10230TIP3    H230627   3.348   3.339   6.023
10231TIP3   OH230628   3.363   3.379   6.203
10231TIP3    H130629   3.274   3.387   6.245
10231TIP3    H230630   3.414   3.337   6.273
10232TIP3   OH230631   4.135   2.646   7.479
10232TIP3    H130632   4.054   2.657   7.427
10232TIP3    H230633   4.150   2.549   7.470
10233TIP3   OH230634   2.729   3.060   7.510
10233TIP3    H130635   2.785   3.035   7.586
10233TIP3    H230636   2.656   2.994   7.516
10234TIP3   OH230637   3.131   1.876   7.288
10234TIP3    H130638   3.042   1.845   7.261
10234TIP3    H230639   3.105   1.959   7.333
10235TIP3   OH230640   3.663   1.993   7.483
10235TIP3    H130641   3.732   1.965   7.547
10235TIP3    H230642   3.579   1.972   7.530
10236TIP3   OH230643   3.904   2.421   7.402
10236TIP3    H130644   3.855   2.417   7.487
10236TIP3    H230645   3.880   2.508   7.367
10237TIP3   OH230646   3.564   2.554   5.961
10237TIP3    H130647   3.529   2.527   5.873
10237TIP3    H230648   3.646   2.600   5.934
10238TIP3   OH230649   3.275   1.926   6.260
10238TIP3    H130650   3.242   1.922   6.352
10238TIP3    H230651   3.238   1.842   6.226
10239TIP3   OH230652   3.063   2.392   7.308
10239TIP3    H130653   3.011   2.413   7.388
10239TIP3    H230654   3.047   2.473   7.254
10240TIP3   OH230655   2.945   2.279   6.823
10240TIP3    H130656   2.852   2.251   6.839
10240TIP3    H230657   2.959   2.238   6.734
10241TIP3   OH230658   3.437   2.365   6.550
10241TIP3    H130659   3.385   2.436   6.507
10241TIP3    H230660   3.492   2.333   6.475
10242TIP3   OH230661   3.614   2.647   7.635
10242TIP3    H130662   3.592   2.572   7.695
10242TIP3    H230663   3.708   2.659   7.656
10243TIP3   OH230664   3.593   2.393   6.789
10243TIP3    H130665   3.534   2.423   6.717
10243TIP3    H230666   3.627   2.312   6.746
10244TIP3   OH230667   2.881   2.422   7.515
10244TIP3    H130668   2.910   2.486   7.582
10244TIP3    H230669   2.872   2.340   7.567
10245TIP3   OH230670   2.930   1.899   6.226
10245TIP3    H130671   2.923   1.894   6.324
10245TIP3    H230672   2.851   1.951   6.204
10246TIP3   OH230673   2.471   1.947   7.103
10246TIP3    H130674   2.554   1.974   7.147
10246TIP3    H230675   2.500   1.914   7.016
10247TIP3   OH230676   2.469   1.942   6.626
10247TIP3    H130677   2.502   1.975   6.540
10247TIP3    H230678   2.393   2.001   6.640
10248TIP3   OH230679   3.603   2.638   7.213
10248TIP3    H130680   3.636   2.567   7.154
10248TIP3    H230681   3.575   2.584   7.290
10249TIP3   OH230682   3.274   2.103   6.884
10249TIP3    H130683   3.191   2.099   6.936
10249TIP3    H230684   3.342   2.099   6.953
10250TIP3   OH230685   2.706   2.155   6.892
10250TIP3    H130686   2.612   2.162   6.864
10250TIP3    H230687   2.729   2.064   6.867
10251TIP3   OH230688   2.977   2.154   6.580
10251TIP3    H130689   3.071   2.167   6.557
10251TIP3    H230690   2.930   2.175   6.496
10252TIP3   OH230691   3.766   2.176   7.087
10252TIP3    H130692   3.729   2.189   7.177
10252TIP3    H230693   3.700   2.115   7.049
10253TIP3   OH230694   2.818   2.188   6.359
10253TIP3    H130695   2.746   2.142   6.313
10253TIP3    H230696   2.869   2.222   6.283
10254TIP3   OH230697   3.933   3.866   7.303
10254TIP3    H130698   3.929   3.884   7.207
10254TIP3    H230699   4.014   3.913   7.329
10255TIP3   OH230700   2.909   2.978   7.713
10255TIP3    H130701   2.984   3.005   7.768
10255TIP3    H230702   2.837   2.979   7.780
10256TIP3   OH230703   3.357   2.429   6.980
10256TIP3    H130704   3.428   2.390   6.928
10256TIP3    H230705   3.368   2.384   7.066
10257TIP3   OH230706   2.883   1.916   6.859
10257TIP3    H130707   2.846   1.837   6.904
10257TIP3    H230708   2.929   1.877   6.784
10258TIP3   OH230709   3.333   2.322   7.274
10258TIP3    H130710   3.244   2.360   7.285
10258TIP3    H230711   3.391   2.385   7.321
10259TIP3   OH230712   3.068   2.718   6.365
10259TIP3    H130713   2.997   2.650   6.355
10259TIP3    H230714   3.051   2.750   6.456
10260TIP3   OH230715   3.971   2.953   6.995
10260TIP3    H130716   3.997   3.002   6.914
10260TIP3    H230717   3.886   2.911   6.968
10261TIP3   OH230718   3.528   2.027   6.231
10261TIP3    H130719   3.431   2.010   6.236
10261TIP3    H230720   3.536   2.122   6.251
10262TIP3   OH230721   3.470   3.034   7.363
10262TIP3    H130722   3.493   3.012   7.453
10262TIP3    H230723   3.431   3.123   7.371
10263TIP3   OH230724   3.597   2.277   6.332
10263TIP3    H130725   3.694   2.282   6.347
10263TIP3    H230726   3.579   2.356   6.278
10264TIP3   OH230727   2.763   2.741   7.041
10264TIP3    H130728   2.800   2.711   6.955
10264TIP3    H230729   2.801   2.676   7.102
10265TIP3   OH230730   3.214   2.866   6.186
10265TIP3    H130731   3.167   2.952   6.192
10265TIP3    H230732   3.161   2.810   6.246
10266TIP3   OH230733   2.643   2.660   7.645
10266TIP3    H130734   2.667   2.654   7.739
10266TIP3    H230735   2.567   2.599   7.638
10267TIP3   OH230736   3.369   2.773   7.671
10267TIP3    H130737   3.311   2.717   7.618
10267TIP3    H230738   3.457   2.740   7.643
10268TIP3   OH230739   3.629   3.297   7.255
10268TIP3    H130740   3.533   3.293   7.270
10268TIP3    H230741   3.658   3.346   7.335
10269TIP3   OH230742   4.040   2.366   6.166
10269TIP3    H130743   3.977   2.321   6.104
10269TIP3    H230744   4.036   2.455   6.127
10270TIP3   OH230745   4.258   3.226   7.247
10270TIP3    H130746   4.161   3.219   7.239
10270TIP3    H230747   4.285   3.194   7.158
10271TIP3   OH230748   3.737   3.185   6.075
10271TIP3    H130749   3.716   3.113   6.136
10271TIP3    H230750   3.751   3.139   5.990
10272TIP3   OH230751   3.736   2.814   6.915
10272TIP3    H130752   3.642   2.789   6.927
10272TIP3    H230753   3.770   2.735   6.870
10273TIP3   OH230754   2.863   3.043   6.670
10273TIP3    H130755   2.864   3.123   6.613
10273TIP3    H230756   2.769   3.023   6.672
10274TIP3   OH230757   2.425   2.346   6.369
10274TIP3    H130758   2.472   2.429   6.390
10274TIP3    H230759   2.349   2.350   6.431
10275TIP3   OH230760   3.001   2.808   6.611
10275TIP3    H130761   2.967   2.897   6.630
10275TIP3    H230762   2.965   2.757   6.685
10276TIP3   OH230763   3.132   3.386   7.136
10276TIP3    H130764   3.174   3.457   7.084
10276TIP3    H230765   3.208   3.349   7.183
10277TIP3   OH230766   2.782   3.281   6.518
10277TIP3    H130767   2.696   3.290   6.565
10277TIP3    H230768   2.814   3.374   6.521
10278TIP3   OH230769   3.521   3.021   7.093
10278TIP3    H130770   3.512   3.017   7.191
10278TIP3    H230771   3.600   2.966   7.078
10279TIP3   OH230772   3.495   2.912   5.977
10279TIP3    H130773   3.549   2.887   6.056
10279TIP3    H230774   3.407   2.884   6.007
10280TIP3   OH230775   3.767   3.557   7.148
10280TIP3    H130776   3.690   3.497   7.140
10280TIP3    H230777   3.752   3.618   7.073
10281TIP3   OH230778   3.834   3.387   5.796
10281TIP3    H130779   3.872   3.459   5.743
10281TIP3    H230780   3.754   3.433   5.829
10282TIP3   OH230781   2.856   2.165   7.657
10282TIP3    H130782   2.760   2.156   7.670
10282TIP3    H230783   2.891   2.102   7.723
10283TIP3   OH230784   3.655   2.849   6.196
10283TIP3    H130785   3.645   2.781   6.265
10283TIP3    H230786   3.752   2.845   6.181
10284TIP3   OH230787   2.572   3.252   7.297
10284TIP3    H130788   2.618   3.168   7.313
10284TIP3    H230789   2.607   3.304   7.370
10285TIP3   OH230790   2.860   2.894   5.977
10285TIP3    H130791   2.876   2.802   5.947
10285TIP3    H230792   2.841   2.880   6.072
10286TIP3   OH230793   2.806   2.898   6.250
10286TIP3    H130794   2.880   2.870   6.305
10286TIP3    H230795   2.811   2.996   6.257
10287TIP3   OH230796   2.543   2.592   6.451
10287TIP3    H130797   2.476   2.635   6.508
10287TIP3    H230798   2.557   2.661   6.384
10288TIP3   OH230799   3.689   2.231   7.346
10288TIP3    H130800   3.771   2.267   7.383
10288TIP3    H230801   3.676   2.149   7.398
10289TIP3   OH230802   3.570   1.980   6.510
10289TIP3    H130803   3.556   2.002   6.415
10289TIP3    H230804   3.609   2.064   6.544
10290TIP3   OH230805   3.072   3.095   6.199
10290TIP3    H130806   2.985   3.123   6.233
10290TIP3    H230807   3.088   3.165   6.133
10291TIP3   OH230808   3.261   2.160   6.611
10291TIP3    H130809   3.326   2.231   6.594
10291TIP3    H230810   3.266   2.153   6.709
10292TIP3   OH230811   3.529   2.478   7.420
10292TIP3    H130812   3.553   2.531   7.499
10292TIP3    H230813   3.585   2.399   7.431
10293TIP3   OH230814   3.405   1.887   6.714
10293TIP3    H130815   3.398   1.965   6.772
10293TIP3    H230816   3.465   1.922   6.644
10294TIP3   OH230817   2.816   3.171   6.264
10294TIP3    H130818   2.786   3.241   6.201
10294TIP3    H230819   2.800   3.215   6.351
10295TIP3   OH230820   2.916   1.884   6.503
10295TIP3    H130821   2.914   1.975   6.540
10295TIP3    H230822   3.012   1.866   6.511
10296TIP3   OH230823   4.171   2.378   7.400
10296TIP3    H130824   4.073   2.376   7.408
10296TIP3    H230825   4.182   2.339   7.312
10297TIP3   OH230826   3.821   2.574   6.790
10297TIP3    H130827   3.746   2.512   6.800
10297TIP3    H230828   3.893   2.526   6.836
10298TIP3   OH230829   2.533   2.802   6.257
10298TIP3    H130830   2.601   2.871   6.266
10298TIP3    H230831   2.578   2.746   6.190
10299TIP3   OH230832   2.476   2.076   6.386
10299TIP3    H130833   2.475   2.174   6.384
10299TIP3    H230834   2.386   2.054   6.359
10300TIP3   OH230835   3.788   3.530   6.739
10300TIP3    H130836   3.746   3.577   6.664
10300TIP3    H230837   3.882   3.550   6.718
10301TIP3   OH230838   2.865   1.798   7.265
10301TIP3    H130839   2.835   1.765   7.177
10301TIP3    H230840   2.855   1.718   7.321
10302TIP3   OH230841   2.408   3.019   6.646
10302TIP3    H130842   2.332   3.047   6.700
10302TIP3    H230843   2.382   3.056   6.559
10303TIP3   OH230844   2.559   3.544   7.716
10303TIP3    H130845   2.630   3.499   7.765
10303TIP3    H230846   2.507   3.465   7.692
10304TIP3   OH230847   3.067   3.519   7.743
10304TIP3    H130848   3.156   3.480   7.756
10304TIP3    H230849   3.032   3.455   7.677
10305TIP3   OH230850   3.025   3.097   5.890
10305TIP3    H130851   2.968   3.025   5.927
10305TIP3    H230852   3.100   3.045   5.857
10306TIP3   OH230853   3.685   3.425   7.493
10306TIP3    H130854   3.674   3.355   7.562
10306TIP3    H230855   3.760   3.477   7.527
10307TIP3   OH230856   3.460   3.138   5.800
10307TIP3    H130857   3.506   3.075   5.859
10307TIP3    H230858   3.517   3.138   5.721
10308TIP3   OH230859   2.699   2.978   7.881
10308TIP3    H130860   2.711   2.886   7.910
10308TIP3    H230861   2.605   2.977   7.852
10309TIP3   OH230862   2.668   2.615   6.110
10309TIP3    H130863   2.723   2.580   6.182
10309TIP3    H230864   2.735   2.619   6.038
10310TIP3   OH230865   3.300   3.049   7.688
10310TIP3    H130866   3.259   3.061   7.600
10310TIP3    H230867   3.332   2.956   7.684
10311TIP3   OH230868   3.177   2.812   5.917
10311TIP3    H130869   3.181   2.825   6.014
10311TIP3    H230870   3.179   2.714   5.911
10312TIP3   OH230871   3.793   3.056   7.298
10312TIP3    H130872   3.867   3.099   7.252
10312TIP3    H230873   3.722   3.121   7.281
10313TIP3   OH230874   2.807   2.695   7.878
10313TIP3    H130875   2.893   2.663   7.847
10313TIP3    H230876   2.806   2.665   7.971
10314TIP3   OH230877   2.878   2.517   6.333
10314TIP3    H130878   2.851   2.473   6.415
10314TIP3    H230879   2.914   2.442   6.281
10315TIP3   OH230880   3.147   2.579   7.561
10315TIP3    H130881   3.069   2.640   7.562
10315TIP3    H230882   3.197   2.613   7.483
10316TIP3   OH230883   2.977   2.312   6.173
10316TIP3    H130884   2.952   2.314   6.078
10316TIP3    H230885   3.075   2.315   6.166
10317TIP3   OH230886   3.664   2.986   7.695
10317TIP3    H130887   3.742   2.958   7.645
10317TIP3    H230888   3.660   2.919   7.765
10318TIP3   OH230889   3.800   2.643   5.836
10318TIP3    H130890   3.779   2.596   5.753
10318TIP3    H230891   3.766   2.733   5.812
10319TIP3   OH230892   3.270   2.368   7.690
10319TIP3    H130893   3.272   2.289   7.633
10319TIP3    H230894   3.227   2.434   7.630
10320TIP3   OH230895   3.270   2.158   7.497
10320TIP3    H130896   3.300   2.198   7.413
10320TIP3    H230897   3.178   2.134   7.475
10321TIP3   OH230898   3.299   2.692   7.370
10321TIP3    H130899   3.382   2.698   7.321
10321TIP3    H230900   3.243   2.758   7.323
10322TIP3   OH230901   3.880   2.659   7.746
10322TIP3    H130902   3.928   2.576   7.763
10322TIP3    H230903   3.951   2.716   7.711
10323TIP3   OH230904   3.923   2.913   7.486
10323TIP3    H130905   3.865   2.966   7.426
10323TIP3    H230906   4.010   2.932   7.446
10324TIP3   OH230907   3.117   2.500   7.888
10324TIP3    H130908   3.065   2.419   7.899
10324TIP3    H230909   3.174   2.475   7.813
10325TIP3   OH230910   3.403   1.921   7.560
10325TIP3    H130911   3.353   2.002   7.536
10325TIP3    H230912   3.335   1.851   7.547
10326TIP3   OH230913   3.534   2.427   7.769
10326TIP3    H130914   3.520   2.421   7.866
10326TIP3    H230915   3.445   2.399   7.738
10327TIP3   OH230916   3.770   2.374   7.631
10327TIP3    H130917   3.695   2.375   7.693
10327TIP3    H230918   3.844   2.342   7.687
10328TIP3   OH230919   4.002   2.313   7.774
10328TIP3    H130920   4.010   2.218   7.794
10328TIP3    H230921   3.995   2.353   7.864
10329TIP3   OH230922   2.974   2.268   7.938
10329TIP3    H130923   2.989   2.174   7.911
10329TIP3    H230924   3.019   2.270   8.024
10330TIP3   OH230925   3.505   1.936   7.813
10330TIP3    H130926   3.565   1.860   7.800
10330TIP3    H230927   3.456   1.931   7.728
10331TIP3   OH230928   3.572   2.154   7.964
10331TIP3    H130929   3.558   2.071   7.915
10331TIP3    H230930   3.482   2.189   7.965
10332TIP3   OH230931   2.785   3.374   6.078
10332TIP3    H130932   2.880   3.369   6.059
10332TIP3    H230933   2.755   3.422   5.999
10333TIP3   OH230934   2.265   2.755   6.295
10333TIP3    H130935   2.359   2.777   6.279
10333TIP3    H230936   2.259   2.666   6.254
10334TIP3   OH230937   2.178   3.368   6.707
10334TIP3    H130938   2.112   3.305   6.671
10334TIP3    H230939   2.223   3.311   6.773
10335TIP3   OH230940   2.314   3.221   6.895
10335TIP3    H130941   2.304   3.145   6.954
10335TIP3    H230942   2.366   3.281   6.952
10336TIP3   OH230943   4.036   3.638   6.692
10336TIP3    H130944   4.077   3.653   6.778
10336TIP3    H230945   4.109   3.651   6.631
10337TIP3   OH230946   4.073   3.641   6.979
10337TIP3    H130947   4.026   3.556   6.969
10337TIP3    H230948   4.151   3.610   7.028
10338TIP3   OH230949   4.117   3.316   7.549
10338TIP3    H130950   4.044   3.324   7.613
10338TIP3    H230951   4.158   3.405   7.554
10339TIP3   OH230952   3.933   2.831   6.167
10339TIP3    H130953   4.003   2.893   6.139
10339TIP3    H230954   3.975   2.790   6.247
10340TIP3   OH230955   4.058   2.694   6.368
10340TIP3    H130956   3.997   2.654   6.433
10340TIP3    H230957   4.131   2.729   6.424
10341TIP3   OH230958   4.117   3.086   6.804
10341TIP3    H130959   4.170   3.024   6.751
10341TIP3    H230960   4.116   3.166   6.746
10342TIP3   OH230961   3.948   3.391   7.000
10342TIP3    H130962   3.873   3.428   7.050
10342TIP3    H230963   3.903   3.341   6.929
10343TIP3   OH230964   4.000   2.604   6.019
10343TIP3    H130965   3.928   2.607   5.952
10343TIP3    H230966   3.973   2.680   6.075
10344TIP3   OH230967   3.871   2.278   5.973
10344TIP3    H130968   3.829   2.315   5.894
10344TIP3    H230969   3.846   2.183   5.964
10345TIP3   OH230970   3.874   2.552   6.520
10345TIP3    H130971   3.883   2.456   6.514
10345TIP3    H230972   3.861   2.566   6.617
10346TIP3   OH230973   2.501   2.627   7.266
10346TIP3    H130974   2.501   2.595   7.173
10346TIP3    H230975   2.598   2.629   7.283
10347TIP3   OH230976   4.166   2.978   7.376
10347TIP3    H130977   4.238   2.912   7.367
10347TIP3    H230978   4.191   3.045   7.311
10348TIP3   OH230979   4.351   2.784   7.395
10348TIP3    H130980   4.276   2.733   7.432
10348TIP3    H230981   4.424   2.719   7.409
10349TIP3   OH230982   3.814   2.012   5.961
10349TIP3    H130983   3.887   1.979   6.017
10349TIP3    H230984   3.740   1.953   5.983
10350TIP3   OH230985   3.872   2.268   6.415
10350TIP3    H130986   3.913   2.180   6.430
10350TIP3    H230987   3.931   2.301   6.344
10351TIP3   OH230988   4.035   2.443   6.909
10351TIP3    H130989   4.120   2.470   6.868
10351TIP3    H230990   4.048   2.480   6.998
10352TIP3   OH230991   4.104   2.587   7.141
10352TIP3    H130992   4.025   2.622   7.188
10352TIP3    H230993   4.136   2.668   7.095
10353TIP3   OH230994   2.711   2.308   7.882
10353TIP3    H130995   2.809   2.311   7.878
10353TIP3    H230996   2.701   2.239   7.950
10354TIP3   OH230997   4.553   2.176   7.697
10354TIP3    H130998   4.613   2.111   7.654
10354TIP3    H230999   4.526   2.231   7.621
10355TIP3   OH231000   3.982   2.019   6.452
10355TIP3    H131001   4.029   2.002   6.536
10355TIP3    H231002   3.921   1.942   6.450
10356TIP3   OH231003   2.683   2.007   7.277
10356TIP3    H131004   2.744   1.930   7.281
10356TIP3    H231005   2.745   2.080   7.265
10357TIP3   OH231006   2.485   2.278   7.346
10357TIP3    H131007   2.533   2.270   7.261
10357TIP3    H231008   2.512   2.366   7.375
10358TIP3   OH231009   4.425   2.318   7.504
10358TIP3    H131010   4.339   2.359   7.523
10358TIP3    H231011   4.396   2.246   7.444
10359TIP3   OH231012   4.063   1.953   6.086
10359TIP3    H131013   4.102   1.882   6.030
10359TIP3    H231014   4.129   2.025   6.077
10360TIP3   OH231015   2.467   1.802   6.858
10360TIP3    H131016   2.372   1.780   6.860
10360TIP3    H231017   2.474   1.847   6.771
10361TIP3   OH231018   3.627   3.488   6.352
10361TIP3    H131019   3.674   3.470   6.268
10361TIP3    H231020   3.687   3.551   6.395
10362TIP3   OH231021   2.685   1.889   7.655
10362TIP3    H131022   2.609   1.847   7.696
10362TIP3    H231023   2.637   1.937   7.584
10363TIP3   OH231024   2.722   3.305   7.751
10363TIP3    H131025   2.636   3.268   7.725
10363TIP3    H231026   2.738   3.258   7.835
10364TIP3   OH231027   2.905   3.324   7.286
10364TIP3    H131028   2.858   3.398   7.243
10364TIP3    H231029   2.992   3.335   7.243
10365TIP3   OH231030   3.348   3.569   7.421
10365TIP3    H131031   3.392   3.565   7.509
10365TIP3    H231032   3.415   3.618   7.369
10366TIP3   OH231033   3.528   3.719   7.280
10366TIP3    H131034   3.598   3.667   7.237
10366TIP3    H231035   3.582   3.774   7.342
10367TIP3   OH231036   4.324   2.081   7.380
10367TIP3    H131037   4.234   2.075   7.345
10367TIP3    H231038   4.355   1.988   7.368
10368TIP3   OH231039   2.587   3.601   7.315
10368TIP3    H131040   2.501   3.632   7.280
10368TIP3    H231041   2.558   3.563   7.398
10369TIP3   OH231042   2.818   3.558   7.166
10369TIP3    H131043   2.733   3.578   7.211
10369TIP3    H231044   2.800   3.589   7.075
10370TIP3   OH231045   3.243   3.587   6.964
10370TIP3    H131046   3.176   3.606   6.896
10370TIP3    H231047   3.256   3.675   7.005
10371TIP3   OH231048   3.513   3.528   7.018
10371TIP3    H131049   3.419   3.543   6.995
10371TIP3    H231050   3.556   3.600   6.969
10372TIP3   OH231051   3.723   3.720   6.929
10372TIP3    H131052   3.706   3.803   6.880
10372TIP3    H231053   3.749   3.658   6.857
10373TIP3   OH231054   2.494   3.373   7.056
10373TIP3    H131055   2.522   3.343   7.145
10373TIP3    H231056   2.565   3.330   7.002
10374TIP3   OH231057   2.686   3.245   6.911
10374TIP3    H131058   2.703   3.160   6.958
10374TIP3    H231059   2.777   3.281   6.904
10375TIP3   OH231060   2.953   3.340   6.913
10375TIP3    H131061   2.984   3.249   6.896
10375TIP3    H231062   2.999   3.359   6.996
10376TIP3   OH231063   3.529   1.996   7.001
10376TIP3    H131064   3.485   1.925   7.052
10376TIP3    H231065   3.600   1.947   6.955
10377TIP3   OH231066   4.053   1.877   6.907
10377TIP3    H131067   4.089   1.928   6.830
10377TIP3    H231068   3.957   1.893   6.898
10378TIP3   OH231069   4.147   1.974   6.669
10378TIP3    H131070   4.221   1.924   6.628
10378TIP3    H231071   4.180   2.066   6.654
10379TIP3   OH231072   2.778   1.706   7.018
10379TIP3    H131073   2.685   1.675   7.015
10379TIP3    H231074   2.825   1.620   7.013
10380TIP3   OH231075   2.578   1.568   6.665
10380TIP3    H131076   2.599   1.625   6.589
10380TIP3    H231077   2.521   1.627   6.717
10381TIP3   OH231078   3.221   1.737   6.897
10381TIP3    H131079   3.279   1.785   6.836
10381TIP3    H231080   3.245   1.775   6.982
10382TIP3   OH231081   3.769   1.883   6.880
10382TIP3    H131082   3.766   1.846   6.791
10382TIP3    H231083   3.756   1.803   6.936
10383TIP3   OH231084   3.799   1.805   6.443
10383TIP3    H131085   3.711   1.846   6.452
10383TIP3    H231086   3.783   1.720   6.489
10384TIP3   OH231087   2.281   3.145   6.444
10384TIP3    H131088   2.196   3.111   6.410
10384TIP3    H231089   2.270   3.239   6.424
10385TIP3   OH231090   2.681   1.733   6.422
10385TIP3    H131091   2.732   1.670   6.368
10385TIP3    H231092   2.752   1.787   6.463
10386TIP3   OH231093   3.193   1.909   6.525
10386TIP3    H131094   3.252   1.860   6.584
10386TIP3    H231095   3.217   2.001   6.552
10387TIP3   OH231096   3.053   3.334   6.026
10387TIP3    H131097   3.142   3.356   5.990
10387TIP3    H231098   3.031   3.259   5.966
10388TIP3   OH231099   3.770   3.451   6.119
10388TIP3    H131100   3.762   3.353   6.106
10388TIP3    H231101   3.727   3.484   6.037
10389TIP3   OH231102   3.022   2.008   7.876
10389TIP3    H131103   3.014   1.936   7.941
10389TIP3    H231104   3.118   2.009   7.860
10390TIP3   OH231105   2.358   3.171   6.082
10390TIP3    H131106   2.360   3.195   6.175
10390TIP3    H231107   2.446   3.128   6.069
10391TIP3   OH231108   4.058   2.045   7.799
10391TIP3    H131109   4.087   2.025   7.892
10391TIP3    H231110   4.145   2.046   7.754
10392TIP3   OH231111   3.997   3.596   7.309
10392TIP3    H131112   3.921   3.561   7.258
10392TIP3    H231113   3.974   3.691   7.310
10393TIP3   OH231114   5.266   2.969   6.070
10393TIP3    H131115   5.239   3.061   6.051
10393TIP3    H231116   5.185   2.922   6.046
10394TIP3   OH231117   5.271   2.965   6.450
10394TIP3    H131118   5.297   2.938   6.539
10394TIP3    H231119   5.221   2.887   6.419
10395TIP3   OH231120   4.562   2.868   6.833
10395TIP3    H131121   4.600   2.797   6.888
10395TIP3    H231122   4.641   2.922   6.814
10396TIP3   OH231123   5.509   3.268   6.134
10396TIP3    H131124   5.490   3.201   6.201
10396TIP3    H231125   5.534   3.345   6.188
10397TIP3   OH231126   4.244   2.470   6.328
10397TIP3    H131127   4.205   2.558   6.346
10397TIP3    H231128   4.167   2.425   6.288
10398TIP3   OH231129   4.297   2.760   6.489
10398TIP3    H131130   4.346   2.686   6.532
10398TIP3    H231131   4.373   2.820   6.472
10399TIP3   OH231132   5.157   3.733   6.150
10399TIP3    H131133   5.206   3.662   6.103
10399TIP3    H231134   5.143   3.693   6.237
10400TIP3   OH231135   5.062   3.191   6.506
10400TIP3    H131136   5.097   3.118   6.452
10400TIP3    H231137   5.147   3.235   6.529
10401TIP3   OH231138   6.074   2.516   6.500
10401TIP3    H131139   6.104   2.597   6.545
10401TIP3    H231140   6.093   2.539   6.407
10402TIP3   OH231141   5.477   2.697   6.534
10402TIP3    H131142   5.517   2.610   6.555
10402TIP3    H231143   5.444   2.681   6.444
10403TIP3   OH231144   4.814   2.354   6.498
10403TIP3    H131145   4.792   2.428   6.437
10403TIP3    H231146   4.765   2.281   6.455
10404TIP3   OH231147   5.507   2.444   6.122
10404TIP3    H131148   5.578   2.428   6.188
10404TIP3    H231149   5.560   2.481   6.049
10405TIP3   OH231150   4.443   2.553   6.609
10405TIP3    H131151   4.528   2.538   6.653
10405TIP3    H231152   4.457   2.504   6.526
10406TIP3   OH231153   4.887   2.753   6.405
10406TIP3    H131154   4.980   2.726   6.415
10406TIP3    H231155   4.846   2.671   6.369
10407TIP3   OH231156   6.149   2.723   6.667
10407TIP3    H131157   6.064   2.769   6.650
10407TIP3    H231158   6.158   2.738   6.762
10408TIP3   OH231159   4.810   2.338   6.934
10408TIP3    H131160   4.750   2.375   6.866
10408TIP3    H231161   4.757   2.356   7.015
10409TIP3   OH231162   5.164   3.194   5.937
10409TIP3    H131163   5.109   3.169   5.862
10409TIP3    H231164   5.118   3.277   5.965
10410TIP3   OH231165   4.918   3.114   6.732
10410TIP3    H131166   4.853   3.179   6.768
10410TIP3    H231167   4.955   3.163   6.656
10411TIP3   OH231168   5.719   2.447   6.293
10411TIP3    H131169   5.701   2.402   6.377
10411TIP3    H231170   5.769   2.525   6.322
10412TIP3   OH231171   4.682   2.452   6.718
10412TIP3    H131172   4.743   2.526   6.740
10412TIP3    H231173   4.730   2.412   6.643
10413TIP3   OH231174   4.745   3.305   6.833
10413TIP3    H131175   4.713   3.376   6.775
10413TIP3    H231176   4.663   3.292   6.887
10414TIP3   OH231177   4.139   2.997   6.063
10414TIP3    H131178   4.098   3.029   5.981
10414TIP3    H231179   4.172   3.080   6.103
10415TIP3   OH231180   5.580   3.513   6.302
10415TIP3    H131181   5.491   3.504   6.343
10415TIP3    H231182   5.570   3.599   6.257
10416TIP3   OH231183   5.868   2.414   6.664
10416TIP3    H131184   5.780   2.445   6.635
10416TIP3    H231185   5.927   2.448   6.594
10417TIP3   OH231186   5.166   2.059   6.648
10417TIP3    H131187   5.152   1.964   6.665
10417TIP3    H231188   5.088   2.097   6.694
10418TIP3   OH231189   5.287   3.560   5.982
10418TIP3    H131190   5.334   3.477   5.958
10418TIP3    H231191   5.345   3.625   5.937
10419TIP3   OH231192   5.425   3.342   5.881
10419TIP3    H131193   5.368   3.269   5.855
10419TIP3    H231194   5.462   3.309   5.966
10420TIP3   OH231195   5.805   3.427   6.646
10420TIP3    H131196   5.792   3.349   6.588
10420TIP3    H231197   5.786   3.501   6.585
10421TIP3   OH231198   5.094   2.815   5.903
10421TIP3    H131199   5.013   2.869   5.887
10421TIP3    H231200   5.138   2.823   5.817
10422TIP3   OH231201   5.051   2.610   5.612
10422TIP3    H131202   5.116   2.656   5.669
10422TIP3    H231203   5.109   2.544   5.570
10423TIP3   OH231204   6.000   3.064   6.490
10423TIP3    H131205   5.916   3.115   6.496
10423TIP3    H231206   6.028   3.089   6.399
10424TIP3   OH231207   5.443   2.901   5.876
10424TIP3    H131208   5.387   2.926   5.953
10424TIP3    H231209   5.527   2.877   5.921
10425TIP3   OH231210   5.678   2.942   6.786
10425TIP3    H131211   5.674   3.026   6.836
10425TIP3    H231212   5.591   2.944   6.742
10426TIP3   OH231213   4.694   2.905   6.265
10426TIP3    H131214   4.639   2.840   6.217
10426TIP3    H231215   4.752   2.848   6.318
10427TIP3   OH231216   4.831   3.342   6.418
10427TIP3    H131217   4.762   3.279   6.393
10427TIP3    H231218   4.906   3.285   6.440
10428TIP3   OH231219   4.808   2.874   6.648
10428TIP3    H131220   4.838   2.851   6.558
10428TIP3    H231221   4.854   2.958   6.666
10429TIP3   OH231222   5.341   3.509   6.424
10429TIP3    H131223   5.323   3.588   6.477
10429TIP3    H231224   5.322   3.435   6.486
10430TIP3   OH231225   4.949   3.429   6.971
10430TIP3    H131226   4.888   3.492   7.015
10430TIP3    H231227   4.884   3.376   6.920
10431TIP3   OH231228   5.288   2.758   5.701
10431TIP3    H131229   5.343   2.819   5.754
10431TIP3    H231230   5.314   2.783   5.609
10432TIP3   OH231231   4.707   2.982   7.076
10432TIP3    H131232   4.708   3.070   7.118
10432TIP3    H231233   4.611   2.964   7.076
10433TIP3   OH231234   5.031   3.436   5.970
10433TIP3    H131235   5.101   3.497   5.997
10433TIP3    H231236   4.962   3.495   5.938
10434TIP3   OH231237   4.743   3.601   7.058
10434TIP3    H131238   4.713   3.596   6.965
10434TIP3    H231239   4.663   3.576   7.107
10435TIP3   OH231240   5.798   2.001   5.748
10435TIP3    H131241   5.717   2.020   5.800
10435TIP3    H231242   5.811   2.086   5.702
10436TIP3   OH231243   4.546   2.735   6.082
10436TIP3    H131244   4.476   2.785   6.035
10436TIP3    H231245   4.495   2.661   6.118
10437TIP3   OH231246   5.596   3.368   5.296
10437TIP3    H131247   5.603   3.465   5.282
10437TIP3    H231248   5.690   3.341   5.285
10438TIP3   OH231249   4.323   3.128   7.004
10438TIP3    H131250   4.262   3.108   6.929
10438TIP3    H231251   4.361   3.040   7.024
10439TIP3   OH231252   4.165   3.313   6.649
10439TIP3    H131253   4.250   3.285   6.608
10439TIP3    H231254   4.193   3.395   6.692
10440TIP3   OH231255   6.041   3.771   6.692
10440TIP3    H131256   6.039   3.674   6.705
10440TIP3    H231257   5.958   3.796   6.738
10441TIP3   OH231258   5.149   3.556   6.829
10441TIP3    H131259   5.145   3.649   6.860
10441TIP3    H231260   5.074   3.517   6.880
10442TIP3   OH231261   4.909   3.688   5.778
10442TIP3    H131262   4.862   3.668   5.694
10442TIP3    H231263   4.875   3.776   5.801
10443TIP3   OH231264   4.340   3.534   6.152
10443TIP3    H131265   4.390   3.538   6.236
10443TIP3    H231266   4.293   3.449   6.163
10444TIP3   OH231267   5.110   3.589   5.419
10444TIP3    H131268   5.168   3.518   5.383
10444TIP3    H231269   5.143   3.596   5.511
10445TIP3   OH231270   5.160   3.634   5.690
10445TIP3    H131271   5.070   3.645   5.729
10445TIP3    H231272   5.206   3.592   5.764
10446TIP3   OH231273   5.931   2.904   6.965
10446TIP3    H131274   5.849   2.914   6.916
10446TIP3    H231275   5.948   2.808   6.956
10447TIP3   OH231276   4.526   3.315   7.001
10447TIP3    H131277   4.578   3.287   7.079
10447TIP3    H231278   4.453   3.250   6.999
10448TIP3   OH231279   4.927   2.134   6.775
10448TIP3    H131280   4.838   2.103   6.749
10448TIP3    H231281   4.902   2.216   6.822
10449TIP3   OH231282   5.460   2.248   6.971
10449TIP3    H131283   5.529   2.220   7.035
10449TIP3    H231284   5.377   2.228   7.018
10450TIP3   OH231285   5.699   2.678   6.889
10450TIP3    H131286   5.650   2.674   6.974
10450TIP3    H231287   5.674   2.765   6.854
10451TIP3   OH231288   5.357   2.801   5.441
10451TIP3    H131289   5.327   2.781   5.350
10451TIP3    H231290   5.428   2.865   5.424
10452TIP3   OH231291   5.075   2.181   5.748
10452TIP3    H131292   5.041   2.179   5.840
10452TIP3    H231293   5.033   2.100   5.713
10453TIP3   OH231294   4.860   2.650   6.794
10453TIP3    H131295   4.809   2.669   6.875
10453TIP3    H231296   4.842   2.731   6.741
10454TIP3   OH231297   4.744   2.534   6.308
10454TIP3    H131298   4.650   2.512   6.327
10454TIP3    H231299   4.753   2.492   6.220
10455TIP3   OH231300   5.234   2.622   6.037
10455TIP3    H131301   5.179   2.692   5.996
10455TIP3    H231302   5.287   2.591   5.961
10456TIP3   OH231303   5.408   2.900   7.124
10456TIP3    H131304   5.385   2.827   7.185
10456TIP3    H231305   5.502   2.912   7.145
10457TIP3   OH231306   5.391   2.649   6.276
10457TIP3    H131307   5.330   2.680   6.206
10457TIP3    H231308   5.422   2.567   6.233
10458TIP3   OH231309   4.683   2.676   7.005
10458TIP3    H131310   4.702   2.741   7.074
10458TIP3    H231311   4.669   2.594   7.056
10459TIP3   OH231312   4.729   2.156   5.713
10459TIP3    H131313   4.720   2.152   5.810
10459TIP3    H231314   4.649   2.208   5.690
10460TIP3   OH231315   4.270   2.198   6.586
10460TIP3    H131316   4.345   2.232   6.638
10460TIP3    H231317   4.310   2.171   6.502
10461TIP3   OH231318   4.245   2.182   6.102
10461TIP3    H131319   4.289   2.222   6.024
10461TIP3    H231320   4.184   2.255   6.125
10462TIP3   OH231321   5.403   2.896   6.700
10462TIP3    H131322   5.435   2.824   6.640
10462TIP3    H231323   5.372   2.843   6.776
10463TIP3   OH231324   5.069   2.355   6.369
10463TIP3    H131325   4.985   2.355   6.419
10463TIP3    H231326   5.134   2.357   6.441
10464TIP3   OH231327   4.504   2.415   6.378
10464TIP3    H131328   4.409   2.424   6.352
10464TIP3    H231329   4.524   2.322   6.355
10465TIP3   OH231330   4.774   2.405   6.067
10465TIP3    H131331   4.866   2.427   6.043
10465TIP3    H231332   4.724   2.430   5.986
10466TIP3   OH231333   5.560   2.432   6.569
10466TIP3    H131334   5.529   2.445   6.662
10466TIP3    H231335   5.492   2.371   6.536
10467TIP3   OH231336   4.617   2.439   5.848
10467TIP3    H131337   4.539   2.399   5.805
10467TIP3    H231338   4.665   2.474   5.770
10468TIP3   OH231339   5.731   4.122   6.791
10468TIP3    H131340   5.728   4.144   6.696
10468TIP3    H231341   5.810   4.171   6.820
10469TIP3   OH231342   4.689   3.231   7.214
10469TIP3    H131343   4.768   3.262   7.262
10469TIP3    H231344   4.624   3.228   7.287
10470TIP3   OH231345   5.153   2.684   6.469
10470TIP3    H131346   5.227   2.643   6.421
10470TIP3    H231347   5.160   2.643   6.557
10471TIP3   OH231348   4.678   2.171   6.347
10471TIP3    H131349   4.641   2.093   6.393
10471TIP3    H231350   4.724   2.131   6.272
10472TIP3   OH231351   5.130   2.582   6.756
10472TIP3    H131352   5.039   2.617   6.770
10472TIP3    H231353   5.186   2.643   6.807
10473TIP3   OH231354   4.870   2.968   5.851
10473TIP3    H131355   4.794   2.907   5.844
10473TIP3    H231356   4.852   3.008   5.941
10474TIP3   OH231357   5.766   3.208   6.482
10474TIP3    H131358   5.789   3.258   6.402
10474TIP3    H231359   5.681   3.166   6.458
10475TIP3   OH231360   5.321   2.291   5.701
10475TIP3    H131361   5.227   2.269   5.721
10475TIP3    H231362   5.332   2.381   5.738
10476TIP3   OH231363   5.273   3.295   6.848
10476TIP3    H131364   5.284   3.266   6.939
10476TIP3    H231365   5.226   3.380   6.857
10477TIP3   OH231366   5.395   2.530   5.815
10477TIP3    H131367   5.490   2.539   5.836
10477TIP3    H231368   5.375   2.613   5.769
10478TIP3   OH231369   4.532   2.894   6.521
10478TIP3    H131370   4.550   2.975   6.472
10478TIP3    H231371   4.605   2.893   6.585
10479TIP3   OH231372   5.007   3.120   5.671
10479TIP3    H131373   4.963   3.208   5.678
10479TIP3    H231374   4.954   3.068   5.735
10480TIP3   OH231375   4.438   2.915   7.142
10480TIP3    H131376   4.456   2.899   7.237
10480TIP3    H231377   4.369   2.849   7.123
10481TIP3   OH231378   5.163   3.030   7.161
10481TIP3    H131379   5.102   2.971   7.114
10481TIP3    H231380   5.250   2.994   7.132
10482TIP3   OH231381   5.428   3.555   6.744
10482TIP3    H131382   5.332   3.547   6.757
10482TIP3    H231383   5.453   3.605   6.824
10483TIP3   OH231384   5.838   2.622   5.654
10483TIP3    H131385   5.776   2.578   5.591
10483TIP3    H231386   5.834   2.712   5.616
10484TIP3   OH231387   6.055   3.481   6.734
10484TIP3    H131388   5.957   3.475   6.726
10484TIP3    H231389   6.080   3.450   6.644
10485TIP3   OH231390   5.541   3.441   5.563
10485TIP3    H131391   5.508   3.374   5.625
10485TIP3    H231392   5.548   3.393   5.479
10486TIP3   OH231393   5.533   3.071   6.401
10486TIP3    H131394   5.439   3.045   6.415
10486TIP3    H231395   5.566   2.991   6.355
10487TIP3   OH231396   4.654   3.292   6.137
10487TIP3    H131397   4.643   3.377   6.092
10487TIP3    H231398   4.570   3.282   6.184
10488TIP3   OH231399   4.224   2.602   5.860
10488TIP3    H131400   4.268   2.688   5.880
10488TIP3    H231401   4.146   2.608   5.919
10489TIP3   OH231402   4.811   3.072   6.089
10489TIP3    H131403   4.768   3.157   6.110
10489TIP3    H231404   4.772   3.015   6.159
10490TIP3   OH231405   4.928   3.645   6.627
10490TIP3    H131406   4.969   3.714   6.571
10490TIP3    H231407   5.006   3.606   6.670
10491TIP3   OH231408   4.577   3.538   6.003
10491TIP3    H131409   4.490   3.544   6.048
10491TIP3    H231410   4.607   3.632   6.007
10492TIP3   OH231411   5.318   3.275   6.580
10492TIP3    H131412   5.309   3.276   6.678
10492TIP3    H231413   5.397   3.220   6.568
10493TIP3   OH231414   5.291   3.162   5.462
10493TIP3    H131415   5.342   3.139   5.543
10493TIP3    H231416   5.200   3.147   5.492
10494TIP3   OH231417   5.566   3.811   6.632
10494TIP3    H131418   5.487   3.753   6.625
10494TIP3    H231419   5.549   3.874   6.559
10495TIP3   OH231420   5.630   3.643   5.283
10495TIP3    H131421   5.664   3.715   5.226
10495TIP3    H231422   5.551   3.689   5.318
10496TIP3   OH231423   4.650   2.420   7.150
10496TIP3    H131424   4.553   2.423   7.162
10496TIP3    H231425   4.677   2.360   7.221
10497TIP3   OH231426   5.451   3.095   5.675
10497TIP3    H131427   5.442   3.036   5.753
10497TIP3    H231428   5.548   3.099   5.667
10498TIP3   OH231429   4.357   3.514   6.787
10498TIP3    H131430   4.399   3.429   6.767
10498TIP3    H231431   4.417   3.548   6.855
10499TIP3   OH231432   4.662   3.152   5.461
10499TIP3    H131433   4.679   3.062   5.430
10499TIP3    H231434   4.644   3.140   5.556
10500TIP3   OH231435   4.608   3.152   5.732
10500TIP3    H131436   4.666   3.130   5.806
10500TIP3    H231437   4.607   3.250   5.738
10501TIP3   OH231438   4.338   2.850   5.939
10501TIP3    H131439   4.272   2.892   5.998
10501TIP3    H231440   4.349   2.922   5.873
10502TIP3   OH231441   5.490   2.483   6.828
10502TIP3    H131442   5.567   2.522   6.871
10502TIP3    H231443   5.474   2.403   6.883
10503TIP3   OH231444   5.373   2.235   5.993
10503TIP3    H131445   5.354   2.263   5.902
10503TIP3    H231446   5.409   2.316   6.034
10504TIP3   OH231447   4.870   3.352   5.684
10504TIP3    H131448   4.783   3.377   5.721
10504TIP3    H231449   4.883   3.424   5.620
10505TIP3   OH231450   5.060   2.414   6.098
10505TIP3    H131451   5.123   2.489   6.083
10505TIP3    H231452   5.061   2.407   6.195
10506TIP3   OH231453   5.326   2.735   6.906
10506TIP3    H131454   5.345   2.789   6.985
10506TIP3    H231455   5.381   2.656   6.922
10507TIP3   OH231456   5.202   2.143   6.201
10507TIP3    H131457   5.192   2.220   6.261
10507TIP3    H231458   5.262   2.180   6.133
10508TIP3   OH231459   4.612   3.425   5.751
10508TIP3    H131460   4.582   3.495   5.689
10508TIP3    H231461   4.596   3.468   5.838
10509TIP3   OH231462   4.714   2.140   5.989
10509TIP3    H131463   4.709   2.231   6.025
10509TIP3    H231464   4.810   2.124   5.998
10510TIP3   OH231465   5.966   2.638   6.883
10510TIP3    H131466   5.868   2.636   6.893
10510TIP3    H231467   5.976   2.586   6.802
10511TIP3   OH231468   5.618   2.829   6.274
10511TIP3    H131469   5.541   2.771   6.288
10511TIP3    H231470   5.689   2.782   6.323
10512TIP3   OH231471   4.329   3.057   5.746
10512TIP3    H131472   4.387   3.134   5.756
10512TIP3    H231473   4.377   3.010   5.675
10513TIP3   OH231474   4.276   2.333   5.873
10513TIP3    H131475   4.272   2.430   5.874
10513TIP3    H231476   4.190   2.309   5.837
10514TIP3   OH231477   5.586   3.785   6.225
10514TIP3    H131478   5.542   3.832   6.150
10514TIP3    H231479   5.680   3.803   6.203
10515TIP3   OH231480   4.664   2.053   6.751
10515TIP3    H131481   4.631   2.020   6.664
10515TIP3    H231482   4.652   1.975   6.809
10516TIP3   OH231483   4.198   3.270   6.127
10516TIP3    H131484   4.128   3.300   6.186
10516TIP3    H231485   4.172   3.313   6.043
10517TIP3   OH231486   4.352   3.813   7.212
10517TIP3    H131487   4.442   3.804   7.250
10517TIP3    H231488   4.328   3.719   7.203
10518TIP3   OH231489   4.839   3.778   7.248
10518TIP3    H131490   4.933   3.755   7.253
10518TIP3    H231491   4.810   3.720   7.175
10519TIP3   OH231492   4.825   3.357   5.377
10519TIP3    H131493   4.768   3.284   5.412
10519TIP3    H231494   4.895   3.307   5.332
10520TIP3   OH231495   5.476   3.687   6.984
10520TIP3    H131496   5.467   3.615   7.050
10520TIP3    H231497   5.555   3.734   7.013
10521TIP3   OH231498   5.259   3.396   5.287
10521TIP3    H131499   5.309   3.334   5.342
10521TIP3    H231500   5.308   3.396   5.203
10522TIP3   OH231501   4.487   3.221   7.405
10522TIP3    H131502   4.504   3.125   7.409
10522TIP3    H231503   4.401   3.222   7.358
10523TIP3   OH231504   4.472   2.870   5.591
10523TIP3    H131505   4.517   2.838   5.671
10523TIP3    H231506   4.547   2.889   5.533
10524TIP3   OH231507   5.094   3.305   7.178
10524TIP3    H131508   5.051   3.321   7.091
10524TIP3    H231509   5.124   3.212   7.170
10525TIP3   OH231510   4.983   3.062   5.405
10525TIP3    H131511   4.980   3.081   5.501
10525TIP3    H231512   4.959   2.969   5.401
10526TIP3   OH231513   5.590   3.311   6.784
10526TIP3    H131514   5.662   3.359   6.740
10526TIP3    H231515   5.515   3.372   6.771
10527TIP3   OH231516   4.607   2.956   7.386
10527TIP3    H131517   4.679   2.897   7.363
10527TIP3    H231518   4.633   2.986   7.475
10528TIP3   OH231519   4.672   2.775   5.818
10528TIP3    H131520   4.641   2.743   5.905
10528TIP3    H231521   4.706   2.693   5.777
10529TIP3   OH231522   4.946   2.841   7.050
10529TIP3    H131523   4.865   2.897   7.051
10529TIP3    H231524   4.992   2.875   6.970
10530TIP3   OH231525   4.773   2.564   5.658
10530TIP3    H131526   4.747   2.567   5.564
10530TIP3    H231527   4.870   2.574   5.651
10531TIP3   OH231528   5.461   3.242   7.183
10531TIP3    H131529   5.538   3.213   7.132
10531TIP3    H231530   5.455   3.173   7.252
10532TIP3   OH231531   5.603   2.901   5.323
10532TIP3    H131532   5.576   2.857   5.240
10532TIP3    H231533   5.570   2.992   5.304
10533TIP3   OH231534   5.065   2.627   7.173
10533TIP3    H131535   5.065   2.547   7.117
10533TIP3    H231536   5.021   2.693   7.116
10534TIP3   OH231537   5.068   2.413   6.980
10534TIP3    H131538   5.095   2.454   6.896
10534TIP3    H231539   4.974   2.390   6.963
10535TIP3   OH231540   5.097   2.950   6.854
10535TIP3    H131541   5.178   2.959   6.803
10535TIP3    H231542   5.038   3.016   6.811
10536TIP3   OH231543   5.677   2.915   7.235
10536TIP3    H131544   5.725   2.831   7.248
10536TIP3    H231545   5.747   2.971   7.200
10537TIP3   OH231546   5.719   3.170   6.974
10537TIP3    H131547   5.661   3.222   6.913
10537TIP3    H231548   5.806   3.188   6.933
10538TIP3   OH231549   4.944   2.739   7.405
10538TIP3    H131550   4.875   2.671   7.418
10538TIP3    H231551   4.978   2.714   7.316
10539TIP3   OH231552   5.200   2.176   7.046
10539TIP3    H131553   5.151   2.258   7.024
10539TIP3    H231554   5.130   2.108   7.036
10540TIP3   OH231555   5.326   2.682   7.264
10540TIP3    H131556   5.314   2.668   7.359
10540TIP3    H231557   5.236   2.657   7.233
10541TIP3   OH231558   5.565   2.631   7.118
10541TIP3    H131559   5.490   2.631   7.181
10541TIP3    H231560   5.639   2.599   7.175
10542TIP3   OH231561   5.793   2.571   7.269
10542TIP3    H131562   5.807   2.475   7.286
10542TIP3    H231563   5.791   2.609   7.359
10543TIP3   OH231564   4.783   2.519   7.456
10543TIP3    H131565   4.789   2.428   7.421
10543TIP3    H231566   4.819   2.507   7.546
10544TIP3   OH231567   5.295   2.187   7.304
10544TIP3    H131568   5.363   2.116   7.300
10544TIP3    H231569   5.255   2.180   7.215
10545TIP3   OH231570   5.361   2.402   7.463
10545TIP3    H131571   5.339   2.331   7.399
10545TIP3    H231572   5.282   2.460   7.457
10546TIP3   OH231573   4.581   3.629   5.564
10546TIP3    H131574   4.676   3.626   5.544
10546TIP3    H231575   4.549   3.678   5.486
10547TIP3   OH231576   4.059   3.013   5.777
10547TIP3    H131577   4.155   3.034   5.766
10547TIP3    H231578   4.055   2.923   5.738
10548TIP3   OH231579   3.973   3.625   6.196
10548TIP3    H131580   3.908   3.561   6.159
10548TIP3    H231581   4.019   3.568   6.261
10549TIP3   OH231582   4.112   3.477   6.380
10549TIP3    H131583   4.112   3.395   6.432
10549TIP3    H231584   4.165   3.535   6.438
10550TIP3   OH231585   5.840   3.874   6.180
10550TIP3    H131586   5.865   3.908   6.268
10550TIP3    H231587   5.898   3.922   6.121
10551TIP3   OH231588   5.868   3.896   6.463
10551TIP3    H131589   5.823   3.810   6.457
10551TIP3    H231590   5.943   3.872   6.519
10552TIP3   OH231591   5.914   3.573   7.035
10552TIP3    H131592   5.841   3.581   7.100
10552TIP3    H231593   5.955   3.662   7.041
10553TIP3   OH231594   5.732   3.083   5.655
10553TIP3    H131595   5.798   3.150   5.627
10553TIP3    H231596   5.775   3.046   5.735
10554TIP3   OH231597   5.859   2.951   5.860
10554TIP3    H131598   5.792   2.910   5.919
10554TIP3    H231599   5.921   2.992   5.923
10555TIP3   OH231600   5.913   3.346   6.293
10555TIP3    H131601   5.965   3.281   6.241
10555TIP3    H231602   5.904   3.420   6.230
10556TIP3   OH231603   5.744   3.646   6.486
10556TIP3    H131604   5.672   3.688   6.538
10556TIP3    H231605   5.694   3.599   6.416
10557TIP3   OH231606   5.798   2.859   5.506
10557TIP3    H131607   5.727   2.865   5.439
10557TIP3    H231608   5.772   2.935   5.563
10558TIP3   OH231609   5.674   2.532   5.457
10558TIP3    H131610   5.619   2.576   5.392
10558TIP3    H231611   5.646   2.438   5.447
10559TIP3   OH231612   5.673   2.809   6.006
10559TIP3    H131613   5.680   2.713   6.003
10559TIP3    H231614   5.658   2.825   6.102
10560TIP3   OH231615   4.301   2.876   6.753
10560TIP3    H131616   4.301   2.857   6.657
10560TIP3    H231617   4.398   2.882   6.770
10561TIP3   OH231618   5.962   3.234   6.863
10561TIP3    H131619   6.034   3.168   6.854
10561TIP3    H231620   5.988   3.303   6.800
10562TIP3   OH231621   6.148   3.040   6.878
10562TIP3    H131622   6.073   2.990   6.917
10562TIP3    H231623   6.221   2.976   6.893
10563TIP3   OH231624   5.610   2.265   5.435
10563TIP3    H131625   5.684   2.241   5.495
10563TIP3    H231626   5.536   2.211   5.469
10564TIP3   OH231627   5.667   2.524   5.901
10564TIP3    H131628   5.708   2.436   5.917
10564TIP3    H231629   5.728   2.559   5.833
10565TIP3   OH231630   5.830   2.699   6.395
10565TIP3    H131631   5.916   2.725   6.356
10565TIP3    H231632   5.842   2.735   6.485
10566TIP3   OH231633   5.898   2.844   6.626
10566TIP3    H131634   5.820   2.877   6.676
10566TIP3    H231635   5.930   2.925   6.583
10567TIP3   OH231636   4.516   2.570   7.428
10567TIP3    H131637   4.614   2.564   7.429
10567TIP3    H231638   4.492   2.484   7.469
10568TIP3   OH231639   6.353   2.424   7.182
10568TIP3    H131640   6.424   2.365   7.147
10568TIP3    H231641   6.336   2.480   7.104
10569TIP3   OH231642   5.778   2.275   5.936
10569TIP3    H131643   5.826   2.260   6.021
10569TIP3    H231644   5.716   2.199   5.937
10570TIP3   OH231645   4.477   2.261   6.759
10570TIP3    H131646   4.541   2.188   6.768
10570TIP3    H231647   4.538   2.337   6.751
10571TIP3   OH231648   4.281   2.537   6.833
10571TIP3    H131649   4.329   2.529   6.749
10571TIP3    H231650   4.305   2.626   6.860
10572TIP3   OH231651   6.225   2.578   6.985
10572TIP3    H131652   6.137   2.613   7.009
10572TIP3    H231653   6.199   2.499   6.933
10573TIP3   OH231654   5.855   2.214   5.567
10573TIP3    H131655   5.898   2.140   5.519
10573TIP3    H231656   5.925   2.282   5.566
10574TIP3   OH231657   4.263   2.039   6.331
10574TIP3    H131658   4.170   2.036   6.358
10574TIP3    H231659   4.260   2.098   6.253
10575TIP3   OH231660   5.426   3.742   5.838
10575TIP3    H131661   5.474   3.728   5.754
10575TIP3    H231662   5.478   3.812   5.880
10576TIP3   OH231663   4.484   2.119   7.147
10576TIP3    H131664   4.433   2.114   7.229
10576TIP3    H231665   4.418   2.158   7.086
10577TIP3   OH231666   4.522   3.556   7.228
10577TIP3    H131667   4.435   3.521   7.201
10577TIP3    H231668   4.532   3.520   7.317
10578TIP3   OH231669   4.700   3.586   6.778
10578TIP3    H131670   4.652   3.657   6.731
10578TIP3    H231671   4.786   3.594   6.732
10579TIP3   OH231672   5.147   3.824   6.911
10579TIP3    H131673   5.191   3.825   6.999
10579TIP3    H231674   5.212   3.873   6.857
10580TIP3   OH231675   5.325   3.975   6.768
10580TIP3    H131676   5.394   3.924   6.724
10580TIP3    H231677   5.379   4.031   6.828
10581TIP3   OH231678   6.123   2.335   6.867
10581TIP3    H131679   6.032   2.322   6.836
10581TIP3    H231680   6.159   2.244   6.858
10582TIP3   OH231681   4.382   3.851   6.788
10582TIP3    H131682   4.291   3.880   6.765
10582TIP3    H231683   4.376   3.849   6.884
10583TIP3   OH231684   4.618   3.818   6.651
10583TIP3    H131685   4.531   3.832   6.696
10583TIP3    H231686   4.596   3.845   6.560
10584TIP3   OH231687   5.042   3.844   6.449
10584TIP3    H131688   4.970   3.859   6.384
10584TIP3    H231689   5.051   3.932   6.489
10585TIP3   OH231690   5.309   3.784   6.503
10585TIP3    H131691   5.215   3.799   6.482
10585TIP3    H231692   5.351   3.858   6.457
10586TIP3   OH231693   5.520   3.976   6.417
10586TIP3    H131694   5.503   4.060   6.368
10586TIP3    H231695   5.543   3.915   6.344
10587TIP3   OH231696   4.285   3.629   6.544
10587TIP3    H131697   4.316   3.599   6.633
10587TIP3    H231698   4.358   3.594   6.489
10588TIP3   OH231699   4.485   3.538   6.379
10588TIP3    H131700   4.482   3.450   6.424
10588TIP3    H231701   4.581   3.557   6.382
10589TIP3   OH231702   4.761   3.603   6.394
10589TIP3    H131703   4.788   3.509   6.381
10589TIP3    H231704   4.798   3.615   6.484
10590TIP3   OH231705   5.326   2.252   6.487
10590TIP3    H131706   5.281   2.184   6.540
10590TIP3    H231707   5.398   2.201   6.445
10591TIP3   OH231708   5.849   2.127   6.386
10591TIP3    H131709   5.884   2.184   6.315
10591TIP3    H231710   5.754   2.149   6.386
10592TIP3   OH231711   5.944   2.233   6.152
10592TIP3    H131712   6.019   2.183   6.115
10592TIP3    H231713   5.976   2.326   6.140
10593TIP3   OH231714   4.574   1.961   6.502
10593TIP3    H131715   4.481   1.929   6.504
10593TIP3    H231716   4.622   1.876   6.499
10594TIP3   OH231717   4.365   1.831   6.152
10594TIP3    H131718   4.389   1.889   6.078
10594TIP3    H231719   4.332   1.894   6.218
10595TIP3   OH231720   5.019   1.990   6.382
10595TIP3    H131721   5.077   2.044   6.326
10595TIP3    H231722   5.033   2.031   6.469
10596TIP3   OH231723   5.566   2.140   6.367
10596TIP3    H131724   5.560   2.101   6.279
10596TIP3    H231725   5.552   2.060   6.424
10597TIP3   OH231726   5.594   2.062   5.928
10597TIP3    H131727   5.508   2.107   5.944
10597TIP3    H231728   5.579   1.977   5.976
10598TIP3   OH231729   4.077   3.402   5.927
10598TIP3    H131730   3.991   3.370   5.894
10598TIP3    H231731   4.067   3.497   5.910
10599TIP3   OH231732   4.477   1.991   5.914
10599TIP3    H131733   4.526   1.928   5.857
10599TIP3    H231734   4.549   2.044   5.951
10600TIP3   OH231735   4.992   2.165   6.011
10600TIP3    H131736   5.049   2.118   6.075
10600TIP3    H231737   5.011   2.257   6.038
10601TIP3   OH231738   4.850   3.592   5.514
10601TIP3    H131739   4.937   3.616   5.476
10601TIP3    H231740   4.827   3.517   5.453
10602TIP3   OH231741   5.570   3.709   5.605
10602TIP3    H131742   5.562   3.611   5.593
10602TIP3    H231743   5.522   3.741   5.526
10603TIP3   OH231744   4.782   2.243   7.395
10603TIP3    H131745   4.747   2.172   7.451
10603TIP3    H231746   4.876   2.243   7.421
10604TIP3   OH231747   5.031   2.239   7.513
10604TIP3    H131748   5.116   2.212   7.474
10604TIP3    H231749   5.018   2.169   7.580
10605TIP3   OH231750   4.153   3.426   5.569
10605TIP3    H131751   4.154   3.453   5.662
10605TIP3    H231752   4.242   3.385   5.558
10606TIP3   OH231753   5.856   2.301   7.300
10606TIP3    H131754   5.875   2.269   7.391
10606TIP3    H231755   5.944   2.297   7.259
10607TIP3   OH231756   5.794   3.853   6.793
10607TIP3    H131757   5.716   3.820   6.744
10607TIP3    H231758   5.774   3.948   6.797
10608TIP3   OH231759   7.063   3.224   5.559
10608TIP3    H131760   7.035   3.316   5.540
10608TIP3    H231761   6.984   3.176   5.527
10609TIP3   OH231762   7.068   3.220   5.929
10609TIP3    H131763   7.076   3.204   6.025
10609TIP3    H231764   7.018   3.143   5.899
10610TIP3   OH231765   6.361   3.118   6.302
10610TIP3    H131766   6.390   3.051   6.366
10610TIP3    H231767   6.434   3.182   6.308
10611TIP3   OH231768   7.305   3.524   5.623
10611TIP3    H131769   7.284   3.464   5.695
10611TIP3    H231770   7.333   3.604   5.670
10612TIP3   OH231771   6.330   3.531   6.030
10612TIP3    H131772   6.321   3.433   6.033
10612TIP3    H231773   6.427   3.539   6.025
10613TIP3   OH231774   6.040   2.734   5.815
10613TIP3    H131775   5.991   2.817   5.832
10613TIP3    H231776   5.968   2.679   5.780
10614TIP3   OH231777   6.097   3.021   5.986
10614TIP3    H131778   6.145   2.944   6.024
10614TIP3    H231779   6.156   3.050   5.916
10615TIP3   OH231780   6.951   3.989   5.636
10615TIP3    H131781   6.999   3.917   5.590
10615TIP3    H231782   6.944   3.954   5.726
10616TIP3   OH231783   6.858   3.451   5.988
10616TIP3    H131784   6.895   3.381   5.932
10616TIP3    H231785   6.942   3.494   6.015
10617TIP3   OH231786   7.850   2.778   5.975
10617TIP3    H131787   7.884   2.855   6.026
10617TIP3    H231788   7.892   2.797   5.888
10618TIP3   OH231789   6.612   2.612   5.984
10618TIP3    H131790   6.587   2.684   5.923
10618TIP3    H231791   6.561   2.538   5.943
10619TIP3   OH231792   7.307   2.701   5.611
10619TIP3    H131793   7.379   2.692   5.676
10619TIP3    H231794   7.355   2.733   5.533
10620TIP3   OH231795   6.243   2.815   6.092
10620TIP3    H131796   6.325   2.794   6.141
10620TIP3    H231797   6.256   2.757   6.014
10621TIP3   OH231798   6.685   3.011   5.881
10621TIP3    H131799   6.777   2.984   5.898
10621TIP3    H231800   6.643   2.927   5.852
10622TIP3   OH231801   7.938   2.976   6.158
10622TIP3    H131802   7.904   3.060   6.124
10622TIP3    H231803   7.969   3.003   6.247
10623TIP3   OH231804   6.607   2.594   6.420
10623TIP3    H131805   6.544   2.632   6.356
10623TIP3    H231806   6.557   2.606   6.503
10624TIP3   OH231807   6.954   3.446   5.428
10624TIP3    H131808   6.909   3.428   5.345
10624TIP3    H231809   6.911   3.530   5.454
10625TIP3   OH231810   6.712   3.371   6.218
10625TIP3    H131811   6.648   3.435   6.256
10625TIP3    H231812   6.752   3.422   6.145
10626TIP3   OH231813   7.531   2.734   5.801
10626TIP3    H131814   7.513   2.649   5.843
10626TIP3    H231815   7.621   2.722   5.769
10627TIP3   OH231816   6.476   2.711   6.204
10627TIP3    H131817   6.538   2.782   6.229
10627TIP3    H231818   6.526   2.669   6.131
10628TIP3   OH231819   6.539   3.563   6.313
10628TIP3    H131820   6.514   3.650   6.275
10628TIP3    H231821   6.460   3.548   6.370
10629TIP3   OH231822   5.936   3.254   5.550
10629TIP3    H131823   5.893   3.281   5.467
10629TIP3    H231824   5.965   3.340   5.587
10630TIP3   OH231825   7.373   3.768   5.786
10630TIP3    H131826   7.284   3.761   5.827
10630TIP3    H231827   7.366   3.856   5.743
10631TIP3   OH231828   7.656   2.681   6.152
10631TIP3    H131829   7.570   2.668   6.109
10631TIP3    H231830   7.717   2.702   6.078
10632TIP3   OH231831   6.962   2.315   6.135
10632TIP3    H131832   6.948   2.220   6.153
10632TIP3    H231833   6.884   2.353   6.182
10633TIP3   OH231834   7.078   3.815   5.466
10633TIP3    H131835   7.128   3.733   5.442
10633TIP3    H231836   7.138   3.882   5.424
10634TIP3   OH231837   7.220   3.600   5.370
10634TIP3    H131838   7.177   3.522   5.331
10634TIP3    H231839   7.256   3.564   5.454
10635TIP3   OH231840   7.598   3.682   6.134
10635TIP3    H131841   7.591   3.605   6.073
10635TIP3    H231842   7.581   3.757   6.073
10636TIP3   OH231843   6.892   3.075   5.391
10636TIP3    H131844   6.811   3.128   5.372
10636TIP3    H231845   6.935   3.075   5.304
10637TIP3   OH231846   6.851   2.859   5.107
10637TIP3    H131847   6.917   2.912   5.155
10637TIP3    H231848   6.910   2.797   5.059
10638TIP3   OH231849   7.807   3.311   5.976
10638TIP3    H131850   7.720   3.354   5.990
10638TIP3    H231851   7.829   3.343   5.886
10639TIP3   OH231852   7.236   3.159   5.359
10639TIP3    H131853   7.182   3.184   5.437
10639TIP3    H231854   7.321   3.136   5.401
10640TIP3   OH231855   7.466   3.195   6.275
10640TIP3    H131856   7.482   3.281   6.318
10640TIP3    H231857   7.380   3.212   6.232
10641TIP3   OH231858   6.471   3.156   5.778
10641TIP3    H131859   6.429   3.099   5.710
10641TIP3    H231860   6.548   3.103   5.806
10642TIP3   OH231861   6.600   3.568   5.928
10642TIP3    H131862   6.579   3.527   5.843
10642TIP3    H231863   6.690   3.534   5.945
10643TIP3   OH231864   6.615   3.125   6.133
10643TIP3    H131865   6.642   3.110   6.041
10643TIP3    H231866   6.652   3.214   6.153
10644TIP3   OH231867   7.134   3.764   5.910
10644TIP3    H131868   7.119   3.847   5.960
10644TIP3    H231869   7.116   3.694   5.976
10645TIP3   OH231870   6.745   3.684   6.456
10645TIP3    H131871   6.686   3.747   6.503
10645TIP3    H231872   6.679   3.631   6.407
10646TIP3   OH231873   7.081   3.013   5.186
10646TIP3    H131874   7.137   3.076   5.237
10646TIP3    H231875   7.106   3.037   5.094
10647TIP3   OH231876   6.498   3.242   6.554
10647TIP3    H131877   6.504   3.328   6.601
10647TIP3    H231878   6.404   3.220   6.570
10648TIP3   OH231879   6.824   3.695   5.464
10648TIP3    H131880   6.901   3.752   5.481
10648TIP3    H231881   6.761   3.757   5.424
10649TIP3   OH231882   6.540   3.853   6.544
10649TIP3    H131883   6.505   3.852   6.453
10649TIP3    H231884   6.460   3.831   6.597
10650TIP3   OH231885   7.595   2.258   5.236
10650TIP3    H131886   7.513   2.280   5.286
10650TIP3    H231887   7.609   2.340   5.185
10651TIP3   OH231888   6.339   2.999   5.580
10651TIP3    H131889   6.272   3.045   5.525
10651TIP3    H231890   6.294   2.916   5.599
10652TIP3   OH231891   7.393   3.625   4.783
10652TIP3    H131892   7.401   3.722   4.770
10652TIP3    H231893   7.487   3.597   4.771
10653TIP3   OH231894   6.119   3.383   6.490
10653TIP3    H131895   6.052   3.362   6.423
10653TIP3    H231896   6.155   3.295   6.514
10654TIP3   OH231897   5.972   3.576   6.123
10654TIP3    H131898   6.068   3.573   6.115
10654TIP3    H231899   5.959   3.656   6.176
10655TIP3   OH231900   7.838   4.026   6.180
10655TIP3    H131901   7.835   3.930   6.195
10655TIP3    H231902   7.754   4.053   6.225
10656TIP3   OH231903   6.944   3.813   6.314
10656TIP3    H131904   6.943   3.905   6.346
10656TIP3    H231905   6.872   3.773   6.368
10657TIP3   OH231906   6.705   3.943   5.265
10657TIP3    H131907   6.658   3.925   5.182
10657TIP3    H231908   6.672   4.031   5.290
10658TIP3   OH231909   6.142   3.792   5.649
10658TIP3    H131910   6.189   3.782   5.734
10658TIP3    H231911   6.081   3.717   5.654
10659TIP3   OH231912   6.906   3.844   4.905
10659TIP3    H131913   6.964   3.774   4.869
10659TIP3    H231914   6.939   3.853   4.997
10660TIP3   OH231915   6.956   3.891   5.175
10660TIP3    H131916   6.867   3.902   5.216
10660TIP3    H231917   7.006   3.853   5.249
10661TIP3   OH231918   7.729   3.158   6.455
10661TIP3    H131919   7.649   3.173   6.403
10661TIP3    H231920   7.743   3.061   6.446
10662TIP3   OH231921   6.324   3.566   6.479
10662TIP3    H131922   6.373   3.549   6.562
10662TIP3    H231923   6.249   3.503   6.487
10663TIP3   OH231924   6.723   2.393   6.260
10663TIP3    H131925   6.634   2.361   6.236
10663TIP3    H231926   6.697   2.472   6.312
10664TIP3   OH231927   7.254   2.506   6.457
10664TIP3    H131928   7.323   2.478   6.522
10664TIP3    H231929   7.171   2.486   6.504
10665TIP3   OH231930   7.489   2.938   6.361
10665TIP3    H131931   7.448   2.928   6.450
10665TIP3    H231932   7.475   3.033   6.343
10666TIP3   OH231933   7.156   3.062   4.932
10666TIP3    H131934   7.122   3.038   4.843
10666TIP3    H231935   7.235   3.114   4.908
10667TIP3   OH231936   6.869   2.438   5.234
10667TIP3    H131937   6.835   2.436   5.326
10667TIP3    H231938   6.828   2.356   5.199
10668TIP3   OH231939   6.658   2.903   6.283
10668TIP3    H131940   6.606   2.923   6.364
10668TIP3    H231941   6.641   2.985   6.230
10669TIP3   OH231942   6.539   2.792   5.795
10669TIP3    H131943   6.446   2.766   5.814
10669TIP3    H231944   6.550   2.750   5.706
10670TIP3   OH231945   7.030   2.877   5.523
10670TIP3    H131946   6.976   2.948   5.482
10670TIP3    H231947   7.082   2.847   5.447
10671TIP3   OH231948   7.203   3.156   6.608
10671TIP3    H131949   7.180   3.084   6.672
10671TIP3    H231950   7.296   3.173   6.632
10672TIP3   OH231951   7.197   2.917   5.747
10672TIP3    H131952   7.127   2.943   5.683
10672TIP3    H231953   7.219   2.829   5.710
10673TIP3   OH231954   6.476   2.932   6.490
10673TIP3    H131955   6.496   2.996   6.560
10673TIP3    H231956   6.462   2.850   6.541
10674TIP3   OH231957   6.523   2.411   5.200
10674TIP3    H131958   6.513   2.410   5.297
10674TIP3    H231959   6.445   2.464   5.175
10675TIP3   OH231960   6.067   2.458   6.067
10675TIP3    H131961   6.140   2.489   6.124
10675TIP3    H231962   6.113   2.422   5.989
10676TIP3   OH231963   6.040   2.438   5.590
10676TIP3    H131964   6.087   2.478   5.514
10676TIP3    H231965   5.979   2.511   5.613
10677TIP3   OH231966   7.197   3.144   6.182
10677TIP3    H131967   7.189   3.060   6.138
10677TIP3    H231968   7.172   3.117   6.273
10678TIP3   OH231969   6.866   2.616   5.858
10678TIP3    H131970   6.781   2.613   5.906
10678TIP3    H231971   6.931   2.608   5.930
10679TIP3   OH231972   6.301   2.671   5.864
10679TIP3    H131973   6.206   2.679   5.838
10679TIP3    H231974   6.321   2.578   5.843
10680TIP3   OH231975   6.571   2.664   5.553
10680TIP3    H131976   6.663   2.683   5.529
10680TIP3    H231977   6.521   2.687   5.470
10681TIP3   OH231978   7.378   2.718   6.062
10681TIP3    H131979   7.338   2.719   6.153
10681TIP3    H231980   7.319   2.655   6.019
10682TIP3   OH231981   6.412   2.696   5.333
10682TIP3    H131982   6.337   2.655   5.286
10682TIP3    H231983   6.462   2.733   5.257
10683TIP3   OH231984   7.528   4.378   6.277
10683TIP3    H131985   7.526   4.403   6.183
10683TIP3    H231986   7.607   4.427   6.308
10684TIP3   OH231987   6.486   3.488   6.699
10684TIP3    H131988   6.565   3.519   6.748
10684TIP3    H231989   6.420   3.486   6.772
10685TIP3   OH231990   6.957   2.945   5.963
10685TIP3    H131991   7.022   2.893   5.915
10685TIP3    H231992   6.948   2.898   6.048
10686TIP3   OH231993   6.473   2.429   5.834
10686TIP3    H131994   6.436   2.351   5.882
10686TIP3    H231995   6.522   2.387   5.762
10687TIP3   OH231996   6.927   2.848   6.232
10687TIP3    H131997   6.835   2.873   6.254
10687TIP3    H231998   6.979   2.901   6.295
10688TIP3   OH231999   6.665   3.228   5.341
10688TIP3    H132000   6.591   3.164   5.329
10688TIP3    H232001   6.644   3.263   5.431
10689TIP3   OH232002   7.567   3.461   5.969
10689TIP3    H132003   7.594   3.512   5.890
10689TIP3    H232004   7.479   3.428   5.943
10690TIP3   OH232005   7.121   2.541   5.204
10690TIP3    H132006   7.024   2.525   5.208
10690TIP3    H232007   7.130   2.636   5.223
10691TIP3   OH232008   7.061   3.546   6.337
10691TIP3    H132009   7.084   3.527   6.428
10691TIP3    H232010   7.023   3.636   6.342
10692TIP3   OH232011   7.191   2.790   5.306
10692TIP3    H132012   7.288   2.798   5.316
10692TIP3    H232013   7.168   2.868   5.252
10693TIP3   OH232014   6.356   3.252   6.017
10693TIP3    H132015   6.393   3.221   5.932
10693TIP3    H232016   6.390   3.187   6.080
10694TIP3   OH232017   6.807   3.379   5.161
10694TIP3    H132018   6.760   3.465   5.165
10694TIP3    H232019   6.752   3.324   5.222
10695TIP3   OH232020   6.236   3.170   6.627
10695TIP3    H132021   6.255   3.157   6.722
10695TIP3    H232022   6.166   3.104   6.612
10696TIP3   OH232023   6.959   3.286   6.647
10696TIP3    H132024   6.898   3.224   6.605
10696TIP3    H232025   7.046   3.251   6.619
10697TIP3   OH232026   7.221   3.801   6.235
10697TIP3    H132027   7.125   3.805   6.246
10697TIP3    H232028   7.251   3.856   6.310
10698TIP3   OH232029   7.630   2.880   5.142
10698TIP3    H132030   7.569   2.835   5.079
10698TIP3    H232031   7.628   2.969   5.100
10699TIP3   OH232032   7.849   3.735   6.222
10699TIP3    H132033   7.751   3.731   6.213
10699TIP3    H232034   7.876   3.706   6.132
10700TIP3   OH232035   7.333   3.698   5.049
10700TIP3    H132036   7.306   3.629   5.110
10700TIP3    H232037   7.344   3.650   4.964
10701TIP3   OH232038   7.325   3.330   5.888
10701TIP3    H132039   7.230   3.307   5.900
10701TIP3    H232040   7.361   3.245   5.862
10702TIP3   OH232041   6.455   3.554   5.638
10702TIP3    H132042   6.454   3.636   5.585
10702TIP3    H232043   6.361   3.540   5.651
10703TIP3   OH232044   6.013   2.860   5.334
10703TIP3    H132045   6.062   2.942   5.355
10703TIP3    H232046   5.940   2.866   5.400
10704TIP3   OH232047   6.596   3.321   5.585
10704TIP3    H132048   6.559   3.410   5.601
10704TIP3    H232049   6.556   3.271   5.659
10705TIP3   OH232050   6.724   3.899   6.109
10705TIP3    H132051   6.765   3.972   6.058
10705TIP3    H232052   6.801   3.866   6.158
10706TIP3   OH232053   6.376   3.793   5.493
10706TIP3    H132054   6.290   3.802   5.538
10706TIP3    H232055   6.408   3.886   5.495
10707TIP3   OH232056   7.112   3.528   6.068
10707TIP3    H132057   7.102   3.531   6.166
10707TIP3    H232058   7.199   3.488   6.059
10708TIP3   OH232059   7.087   3.424   4.949
10708TIP3    H132060   7.139   3.399   5.029
10708TIP3    H232061   6.998   3.400   4.978
10709TIP3   OH232062   7.361   4.066   6.117
10709TIP3    H132063   7.280   4.012   6.107
10709TIP3    H232064   7.348   4.132   6.045
10710TIP3   OH232065   7.427   3.901   4.770
10710TIP3    H132066   7.465   3.975   4.719
10710TIP3    H232067   7.347   3.946   4.804
10711TIP3   OH232068   6.449   2.676   6.636
10711TIP3    H132069   6.353   2.677   6.653
10711TIP3    H232070   6.481   2.620   6.709
10712TIP3   OH232071   7.247   3.359   5.165
10712TIP3    H132072   7.237   3.293   5.237
10712TIP3    H232073   7.344   3.358   5.154
10713TIP3   OH232074   6.164   3.761   6.268
10713TIP3    H132075   6.215   3.686   6.301
10713TIP3    H232076   6.191   3.831   6.329
10714TIP3   OH232077   6.456   3.406   4.949
10714TIP3    H132078   6.467   3.314   4.921
10714TIP3    H232079   6.436   3.395   5.045
10715TIP3   OH232080   6.402   3.411   5.221
10715TIP3    H132081   6.470   3.387   5.285
10715TIP3    H232082   6.402   3.509   5.227
10716TIP3   OH232083   6.134   3.104   5.425
10716TIP3    H132084   6.068   3.149   5.482
10716TIP3    H232085   6.147   3.174   5.358
10717TIP3   OH232086   7.287   2.736   6.313
10717TIP3    H132087   7.353   2.778   6.372
10717TIP3    H232088   7.264   2.656   6.366
10718TIP3   OH232089   7.164   2.490   5.481
10718TIP3    H132090   7.148   2.513   5.387
10718TIP3    H232091   7.201   2.574   5.516
10719TIP3   OH232092   6.665   3.609   5.171
10719TIP3    H132093   6.578   3.634   5.207
10719TIP3    H232094   6.681   3.682   5.109
10720TIP3   OH232095   6.856   2.670   5.584
10720TIP3    H132096   6.918   2.744   5.567
10720TIP3    H232097   6.857   2.665   5.682
10721TIP3   OH232098   7.127   2.992   6.395
10721TIP3    H132099   7.139   3.051   6.473
10721TIP3    H232100   7.176   2.914   6.423
10722TIP3   OH232101   6.998   2.400   5.689
10722TIP3    H132102   6.988   2.478   5.746
10722TIP3    H232103   7.057   2.436   5.618
10723TIP3   OH232104   6.408   3.683   5.238
10723TIP3    H132105   6.378   3.752   5.175
10723TIP3    H232106   6.392   3.727   5.325
10724TIP3   OH232107   6.509   2.397   5.477
10724TIP3    H132108   6.504   2.488   5.513
10724TIP3    H232109   6.606   2.382   5.486
10725TIP3   OH232110   7.759   2.889   6.380
10725TIP3    H132111   7.661   2.883   6.381
10725TIP3    H232112   7.780   2.842   6.298
10726TIP3   OH232113   7.426   3.040   5.833
10726TIP3    H132114   7.339   3.014   5.796
10726TIP3    H232115   7.488   3.009   5.764
10727TIP3   OH232116   6.125   3.313   5.233
10727TIP3    H132117   6.185   3.389   5.241
10727TIP3    H232118   6.173   3.262   5.164
10728TIP3   OH232119   6.076   2.593   5.368
10728TIP3    H132120   6.073   2.691   5.359
10728TIP3    H232121   5.993   2.568   5.327
10729TIP3   OH232122   7.382   4.039   5.711
10729TIP3    H132123   7.339   4.086   5.635
10729TIP3    H232124   7.476   4.059   5.690
10730TIP3   OH232125   6.461   2.310   6.237
10730TIP3    H132126   6.426   2.274   6.153
10730TIP3    H232127   6.450   2.234   6.298
10731TIP3   OH232128   5.996   3.525   5.618
10731TIP3    H132129   5.927   3.557   5.677
10731TIP3    H232130   5.969   3.567   5.533
10732TIP3   OH232131   6.153   4.069   6.691
10732TIP3    H132132   6.239   4.068   6.737
10732TIP3    H232133   6.131   3.974   6.689
10733TIP3   OH232134   6.635   4.035   6.735
10733TIP3    H132135   6.730   4.016   6.741
10733TIP3    H232136   6.609   3.976   6.661
10734TIP3   OH232137   6.617   3.611   4.862
10734TIP3    H132138   6.561   3.540   4.900
10734TIP3    H232139   6.692   3.558   4.828
10735TIP3   OH232140   7.276   3.940   6.467
10735TIP3    H132141   7.266   3.871   6.536
10735TIP3    H232142   7.352   3.991   6.498
10736TIP3   OH232143   7.054   3.651   4.774
10736TIP3    H132144   7.099   3.588   4.832
10736TIP3    H232145   7.109   3.651   4.694
10737TIP3   OH232146   6.285   3.477   6.890
10737TIP3    H132147   6.301   3.381   6.897
10737TIP3    H232148   6.197   3.479   6.846
10738TIP3   OH232149   6.262   3.128   5.083
10738TIP3    H132150   6.317   3.097   5.156
10738TIP3    H232151   6.328   3.132   5.011
10739TIP3   OH232152   6.893   3.562   6.664
10739TIP3    H132153   6.849   3.578   6.578
10739TIP3    H232154   6.922   3.468   6.656
10740TIP3   OH232155   6.773   3.326   4.891
10740TIP3    H132156   6.773   3.339   4.988
10740TIP3    H232157   6.770   3.228   4.886
10741TIP3   OH232158   7.383   3.566   6.267
10741TIP3    H132159   7.459   3.612   6.226
10741TIP3    H232160   7.314   3.636   6.258
10742TIP3   OH232161   6.405   3.212   6.870
10742TIP3    H132162   6.475   3.148   6.854
10742TIP3    H232163   6.429   3.244   6.960
10743TIP3   OH232164   6.471   3.031   5.307
10743TIP3    H132165   6.441   2.991   5.390
10743TIP3    H232166   6.505   2.953   5.257
10744TIP3   OH232167   6.740   3.098   6.535
10744TIP3    H132168   6.660   3.154   6.537
10744TIP3    H232169   6.787   3.131   6.455
10745TIP3   OH232170   6.570   2.822   5.147
10745TIP3    H132171   6.542   2.828   5.053
10745TIP3    H232172   6.667   2.829   5.138
10746TIP3   OH232173   7.254   3.496   6.668
10746TIP3    H132174   7.337   3.475   6.624
10746TIP3    H232175   7.251   3.430   6.740
10747TIP3   OH232176   7.394   3.155   4.809
10747TIP3    H132177   7.371   3.110   4.726
10747TIP3    H232178   7.361   3.245   4.787
10748TIP3   OH232179   6.864   2.885   6.660
10748TIP3    H132180   6.859   2.803   6.607
10748TIP3    H232181   6.816   2.950   6.603
10749TIP3   OH232182   6.865   2.671   6.464
10749TIP3    H132183   6.888   2.707   6.378
10749TIP3    H232184   6.770   2.646   6.452
10750TIP3   OH232185   6.893   3.204   6.335
10750TIP3    H132186   6.973   3.224   6.287
10750TIP3    H232187   6.831   3.271   6.299
10751TIP3   OH232188   7.473   3.170   6.722
10751TIP3    H132189   7.524   3.089   6.737
10751TIP3    H232190   7.541   3.231   6.689
10752TIP3   OH232191   7.516   3.420   6.452
10752TIP3    H132192   7.457   3.474   6.395
10752TIP3    H232193   7.604   3.446   6.414
10753TIP3   OH232194   6.738   2.997   6.889
10753TIP3    H132195   6.671   2.928   6.906
10753TIP3    H232196   6.774   2.969   6.803
10754TIP3   OH232197   6.996   2.431   6.527
10754TIP3    H132198   6.945   2.513   6.511
10754TIP3    H232199   6.925   2.363   6.522
10755TIP3   OH232200   7.124   2.939   6.749
10755TIP3    H132201   7.114   2.923   6.845
10755TIP3    H232202   7.034   2.914   6.720
10756TIP3   OH232203   7.363   2.879   6.595
10756TIP3    H132204   7.289   2.886   6.659
10756TIP3    H232205   7.437   2.855   6.654
10757TIP3   OH232206   7.590   2.834   6.752
10757TIP3    H132207   7.602   2.737   6.766
10757TIP3    H232208   7.585   2.868   6.843
10758TIP3   OH232209   6.581   2.781   6.945
10758TIP3    H132210   6.580   2.689   6.910
10758TIP3    H232211   6.619   2.765   7.034
10759TIP3   OH232212   7.101   2.452   6.782
10759TIP3    H132213   7.157   2.372   6.787
10759TIP3    H232214   7.053   2.436   6.698
10760TIP3   OH232215   7.162   2.663   6.944
10760TIP3    H132216   7.139   2.590   6.882
10760TIP3    H232217   7.080   2.716   6.943
10761TIP3   OH232218   6.377   3.884   5.050
10761TIP3    H132219   6.472   3.883   5.031
10761TIP3    H232220   6.345   3.934   4.973
10762TIP3   OH232221   5.857   3.269   5.269
10762TIP3    H132222   5.952   3.290   5.255
10762TIP3    H232223   5.850   3.182   5.224
10763TIP3   OH232224   5.773   3.881   5.680
10763TIP3    H132225   5.705   3.820   5.643
10763TIP3    H232226   5.816   3.823   5.746
10764TIP3   OH232227   5.910   3.731   5.866
10764TIP3    H132228   5.894   3.659   5.929
10764TIP3    H232229   5.959   3.793   5.923
10765TIP3   OH232230   7.635   4.131   5.667
10765TIP3    H132231   7.660   4.166   5.755
10765TIP3    H232232   7.694   4.179   5.608
10766TIP3   OH232233   7.662   4.153   5.949
10766TIP3    H132234   7.622   4.064   5.946
10766TIP3    H232235   7.740   4.134   6.005
10767TIP3   OH232236   7.710   3.828   6.523
10767TIP3    H132237   7.637   3.838   6.587
10767TIP3    H232238   7.752   3.917   6.526
10768TIP3   OH232239   7.526   3.342   5.142
10768TIP3    H132240   7.593   3.408   5.112
10768TIP3    H232241   7.572   3.305   5.220
10769TIP3   OH232242   7.656   3.210   5.343
10769TIP3    H132243   7.591   3.170   5.404
10769TIP3    H232244   7.723   3.248   5.404
10770TIP3   OH232245   7.705   3.600   5.777
10770TIP3    H132246   7.762   3.538   5.728
10770TIP3    H232247   7.702   3.677   5.716
10771TIP3   OH232248   7.540   3.901   5.974
10771TIP3    H132249   7.469   3.946   6.024
10771TIP3    H232250   7.489   3.855   5.904
10772TIP3   OH232251   7.592   3.116   4.994
10772TIP3    H132252   7.522   3.120   4.925
10772TIP3    H232253   7.565   3.194   5.048
10773TIP3   OH232254   7.463   2.791   4.949
10773TIP3    H132255   7.421   2.831   4.871
10773TIP3    H232256   7.438   2.697   4.938
10774TIP3   OH232257   7.466   3.068   5.489
10774TIP3    H132258   7.472   2.971   5.480
10774TIP3    H232259   7.453   3.083   5.583
10775TIP3   OH232260   6.095   3.139   6.239
10775TIP3    H132261   6.093   3.109   6.146
10775TIP3    H232262   6.193   3.140   6.255
10776TIP3   OH232263   7.758   3.492   6.349
10776TIP3    H132264   7.831   3.426   6.339
10776TIP3    H232265   7.786   3.563   6.289
10777TIP3   OH232266   7.942   3.297   6.365
10777TIP3    H132267   7.870   3.245   6.407
10777TIP3    H232268   8.017   3.234   6.377
10778TIP3   OH232269   7.406   2.526   4.936
10778TIP3    H132270   7.482   2.493   4.988
10778TIP3    H232271   7.334   2.464   4.957
10779TIP3   OH232272   7.469   2.786   5.393
10779TIP3    H132273   7.506   2.695   5.404
10779TIP3    H232274   7.524   2.817   5.318
10780TIP3   OH232275   6.316   2.830   6.916
10780TIP3    H132276   6.413   2.821   6.918
10780TIP3    H232277   6.290   2.744   6.954
10781TIP3   OH232278   8.177   2.692   6.662
10781TIP3    H132279   8.192   2.607   6.615
10781TIP3    H232280   8.129   2.743   6.594
10782TIP3   OH232281   7.568   2.533   5.428
10782TIP3    H132282   7.625   2.511   5.505
10782TIP3    H232283   7.510   2.455   5.424
10783TIP3   OH232284   6.274   2.517   6.239
10783TIP3    H132285   6.335   2.443   6.255
10783TIP3    H232286   6.335   2.593   6.238
10784TIP3   OH232287   6.076   2.791   6.317
10784TIP3    H132288   6.126   2.790   6.232
10784TIP3    H232289   6.103   2.877   6.353
10785TIP3   OH232290   8.015   2.824   6.488
10785TIP3    H132291   7.930   2.869   6.506
10785TIP3    H232292   7.986   2.759   6.421
10786TIP3   OH232293   7.655   2.466   5.059
10786TIP3    H132294   7.695   2.395   5.005
10786TIP3    H232295   7.721   2.538   5.052
10787TIP3   OH232296   6.059   2.290   5.816
10787TIP3    H132297   5.967   2.292   5.847
10787TIP3    H232298   6.056   2.352   5.740
10788TIP3   OH232299   7.219   3.998   5.324
10788TIP3    H132300   7.271   3.986   5.242
10788TIP3    H232301   7.270   4.066   5.370
10789TIP3   OH232302   6.281   2.376   6.631
10789TIP3    H132303   6.234   2.367   6.716
10789TIP3    H232304   6.210   2.413   6.575
10790TIP3   OH232305   6.320   3.803   6.710
10790TIP3    H132306   6.228   3.776   6.693
10790TIP3    H232307   6.329   3.783   6.804
10791TIP3   OH232308   6.498   3.834   6.258
10791TIP3    H132309   6.449   3.909   6.219
10791TIP3    H232310   6.584   3.849   6.213
10792TIP3   OH232311   6.943   4.079   6.395
10792TIP3    H132312   6.985   4.081   6.484
10792TIP3    H232313   7.009   4.130   6.343
10793TIP3   OH232314   7.123   4.231   6.254
10793TIP3    H132315   7.195   4.182   6.213
10793TIP3    H232316   7.173   4.289   6.315
10794TIP3   OH232317   7.915   2.592   6.353
10794TIP3    H132318   7.823   2.572   6.330
10794TIP3    H232319   7.955   2.502   6.344
10795TIP3   OH232320   6.174   4.093   6.281
10795TIP3    H132321   6.085   4.126   6.256
10795TIP3    H232322   6.182   4.128   6.370
10796TIP3   OH232323   6.411   4.070   6.139
10796TIP3    H132324   6.324   4.083   6.183
10796TIP3    H232325   6.391   4.104   6.049
10797TIP3   OH232326   6.837   4.100   5.936
10797TIP3    H132327   6.767   4.119   5.871
10797TIP3    H232328   6.849   4.188   5.978
10798TIP3   OH232329   7.105   4.037   5.987
10798TIP3    H132330   7.011   4.056   5.968
10798TIP3    H232331   7.149   4.114   5.947
10799TIP3   OH232332   7.312   4.230   5.903
10799TIP3    H132333   7.297   4.316   5.857
10799TIP3    H232334   7.338   4.172   5.829
10800TIP3   OH232335   6.086   3.887   6.026
10800TIP3    H132336   6.112   3.861   6.117
10800TIP3    H232337   6.157   3.842   5.975
10801TIP3   OH232338   6.279   3.757   5.883
10801TIP3    H132339   6.295   3.674   5.933
10801TIP3    H232340   6.370   3.794   5.878
10802TIP3   OH232341   6.545   3.852   5.886
10802TIP3    H132342   6.577   3.761   5.874
10802TIP3    H232343   6.588   3.875   5.970
10803TIP3   OH232344   7.120   2.509   5.973
10803TIP3    H132345   7.075   2.444   6.030
10803TIP3    H232346   7.190   2.456   5.932
10804TIP3   OH232347   7.645   2.404   5.887
10804TIP3    H132348   7.684   2.441   5.805
10804TIP3    H232349   7.549   2.401   5.867
10805TIP3   OH232350   7.736   2.493   5.645
10805TIP3    H132351   7.806   2.433   5.609
10805TIP3    H232352   7.779   2.579   5.624
10806TIP3   OH232353   6.371   2.217   5.987
10806TIP3    H132354   6.278   2.183   5.992
10806TIP3    H232355   6.420   2.132   5.985
10807TIP3   OH232356   6.154   2.087   5.634
10807TIP3    H132357   6.184   2.147   5.563
10807TIP3    H232358   6.126   2.151   5.703
10808TIP3   OH232359   6.814   2.248   5.869
10808TIP3    H132360   6.874   2.301   5.815
10808TIP3    H232361   6.828   2.285   5.957
10809TIP3   OH232362   7.369   2.398   5.848
10809TIP3    H132363   7.355   2.355   5.763
10809TIP3    H232364   7.354   2.322   5.909
10810TIP3   OH232365   7.390   2.319   5.417
10810TIP3    H132366   7.302   2.361   5.427
10810TIP3    H232367   7.375   2.233   5.463
10811TIP3   OH232368   5.874   3.658   5.417
10811TIP3    H132369   5.788   3.626   5.384
10811TIP3    H232370   5.864   3.753   5.397
10812TIP3   OH232371   6.273   2.244   5.407
10812TIP3    H132372   6.320   2.187   5.344
10812TIP3    H232373   6.345   2.301   5.440
10813TIP3   OH232374   6.788   2.420   5.500
10813TIP3    H132375   6.846   2.375   5.564
10813TIP3    H232376   6.807   2.513   5.524
10814TIP3   OH232377   6.646   3.847   5.000
10814TIP3    H132378   6.734   3.870   4.963
10814TIP3    H232379   6.623   3.773   4.939
10815TIP3   OH232380   7.365   3.965   5.092
10815TIP3    H132381   7.356   3.868   5.079
10815TIP3    H232382   7.319   3.998   5.012
10816TIP3   OH232383   6.587   2.527   6.866
10816TIP3    H132384   6.552   2.446   6.911
10816TIP3    H232385   6.679   2.519   6.898
10817TIP3   OH232386   6.829   2.490   7.010
10817TIP3    H132387   6.914   2.454   6.982
10817TIP3    H232388   6.786   2.410   7.046
10818TIP3   OH232389   5.949   3.681   5.055
10818TIP3    H132390   5.946   3.713   5.147
10818TIP3    H232391   6.039   3.643   5.048
10819TIP3   OH232392   7.644   2.564   6.772
10819TIP3    H132393   7.654   2.532   6.864
10819TIP3    H232394   7.736   2.555   6.739
10820TIP3   OH232395   7.591   4.109   6.280
10820TIP3    H132396   7.512   4.079   6.230
10820TIP3    H232397   7.573   4.205   6.283
10821TIP3   OH232398   8.155   3.376   5.791
10821TIP3    H132399   8.181   3.308   5.856
10821TIP3    H232400   8.230   3.436   5.796
10822TIP3   OH232401   8.123   3.786   5.516
10822TIP3    H132402   8.116   3.688   5.519
10822TIP3    H232403   8.220   3.796   5.514
10823TIP3   OH232404   7.830   2.985   5.303
10823TIP3    H132405   7.787   3.071   5.317
10823TIP3    H232406   7.758   2.936   5.259
10824TIP3   OH232407   7.891   3.274   5.472
10824TIP3    H132408   7.941   3.198   5.511
10824TIP3    H232409   7.955   3.308   5.407
10825TIP3   OH232410   8.756   4.203   5.104
10825TIP3    H132411   8.852   4.180   5.108
10825TIP3    H232412   8.739   4.224   5.197
10826TIP3   OH232413   8.665   3.692   5.478
10826TIP3    H132414   8.672   3.660   5.387
10826TIP3    H232415   8.742   3.751   5.488
10827TIP3   OH232416   8.379   2.869   5.485
10827TIP3    H132417   8.394   2.936   5.417
10827TIP3    H232418   8.346   2.794   5.431
10828TIP3   OH232419   8.036   3.069   5.580
10828TIP3    H132420   8.117   3.052   5.632
10828TIP3    H232421   8.055   3.015   5.501
10829TIP3   OH232422   8.467   3.272   5.367
10829TIP3    H132423   8.558   3.238   5.383
10829TIP3    H232424   8.423   3.188   5.339
10830TIP3   OH232425   8.404   2.858   5.914
10830TIP3    H132426   8.346   2.891   5.843
10830TIP3    H232427   8.348   2.878   5.992
10831TIP3   OH232428   8.511   3.623   5.712
10831TIP3    H132429   8.445   3.687   5.749
10831TIP3    H232430   8.554   3.677   5.643
10832TIP3   OH232431   8.264   2.969   5.703
10832TIP3    H132432   8.329   3.040   5.723
10832TIP3    H232433   8.309   2.927   5.625
10833TIP3   OH232434   8.336   3.818   5.798
10833TIP3    H132435   8.311   3.906   5.762
10833TIP3    H232436   8.257   3.802   5.855
10834TIP3   OH232437   7.731   3.511   5.036
10834TIP3    H132438   7.689   3.540   4.953
10834TIP3    H232439   7.761   3.596   5.074
10835TIP3   OH232440   8.259   3.416   5.263
10835TIP3    H132441   8.221   3.357   5.195
10835TIP3    H232442   8.337   3.364   5.293
10836TIP3   OH232443   8.391   3.827   5.412
10836TIP3    H132444   8.368   3.785   5.327
10836TIP3    H232445   8.477   3.789   5.433
10837TIP3   OH232446   8.403   3.387   5.616
10837TIP3    H132447   8.434   3.364   5.526
10837TIP3    H232448   8.446   3.472   5.635
10838TIP3   OH232449   8.539   3.937   5.950
10838TIP3    H132450   8.480   4.003   5.993
10838TIP3    H232451   8.473   3.886   5.899
10839TIP3   OH232452   8.294   3.504   6.040
10839TIP3    H132453   8.298   3.589   6.089
10839TIP3    H232454   8.200   3.480   6.057
10840TIP3   OH232455   8.631   3.990   4.972
10840TIP3    H132456   8.658   4.075   5.012
10840TIP3    H232457   8.563   4.017   4.909
10841TIP3   OH232458   8.336   4.108   6.030
10841TIP3    H132459   8.299   4.109   5.939
10841TIP3    H232460   8.256   4.088   6.084
10842TIP3   OH232461   8.135   3.255   5.066
10842TIP3    H132462   8.068   3.300   5.011
10842TIP3    H232463   8.091   3.172   5.086
10843TIP3   OH232464   7.914   3.641   5.977
10843TIP3    H132465   7.850   3.616   5.908
10843TIP3    H232466   7.953   3.554   6.003
10844TIP3   OH232467   7.769   3.832   5.613
10844TIP3    H132468   7.865   3.829   5.603
10844TIP3    H232469   7.757   3.912   5.665
10845TIP3   OH232470   8.728   4.057   5.791
10845TIP3    H132471   8.736   4.149   5.825
10845TIP3    H232472   8.660   4.021   5.852
10846TIP3   OH232473   8.500   4.197   4.751
10846TIP3    H132474   8.453   4.184   4.666
10846TIP3    H232475   8.469   4.286   4.778
10847TIP3   OH232476   7.937   4.048   5.136
10847TIP3    H132477   7.987   4.040   5.221
10847TIP3    H232478   7.877   3.973   5.144
10848TIP3   OH232479   8.765   4.159   4.680
10848TIP3    H132480   8.673   4.175   4.710
10848TIP3    H232481   8.781   4.069   4.714
10849TIP3   OH232482   8.122   3.821   5.965
10849TIP3    H132483   8.170   3.807   6.049
10849TIP3    H232484   8.046   3.759   5.974
10850TIP3   OH232485   8.505   2.633   5.770
10850TIP3    H132486   8.416   2.615   5.735
10850TIP3    H232487   8.496   2.725   5.797
10851TIP3   OH232488   8.441   3.167   5.768
10851TIP3    H132489   8.394   3.188   5.851
10851TIP3    H232490   8.424   3.248   5.715
10852TIP3   OH232491   8.335   3.049   5.278
10852TIP3    H132492   8.245   3.017   5.302
10852TIP3    H232493   8.347   3.005   5.191
10853TIP3   OH232494   8.259   3.192   5.981
10853TIP3    H132495   8.308   3.249   6.042
10853TIP3    H232496   8.259   3.107   6.031
10854TIP3   OH232497   8.299   2.626   4.677
10854TIP3    H132498   8.302   2.653   4.770
10854TIP3    H232499   8.246   2.698   4.639
10855TIP3   OH232500   7.861   2.713   5.562
10855TIP3    H132501   7.935   2.748   5.615
10855TIP3    H232502   7.904   2.686   5.480
10856TIP3   OH232503   7.835   2.694   5.077
10856TIP3    H132504   7.881   2.732   4.999
10856TIP3    H232505   7.775   2.768   5.098
10857TIP3   OH232506   8.096   2.929   5.349
10857TIP3    H132507   8.000   2.931   5.324
10857TIP3    H232508   8.122   2.837   5.332
10858TIP3   OH232509   8.375   2.924   5.031
10858TIP3    H132510   8.459   2.940   4.988
10858TIP3    H232511   8.311   2.941   4.958
10859TIP3   OH232512   8.210   2.950   4.821
10859TIP3    H132513   8.138   2.908   4.771
10859TIP3    H232514   8.262   2.987   4.747
10860TIP3   OH232515   8.282   3.745   6.187
10860TIP3    H132516   8.362   3.775   6.235
10860TIP3    H232517   8.217   3.745   6.261
10861TIP3   OH232518   8.260   2.687   5.315
10861TIP3    H132519   8.231   2.611   5.370
10861TIP3    H232520   8.314   2.643   5.249
10862TIP3   OH232521   8.711   3.092   5.783
10862TIP3    H132522   8.620   3.120   5.757
10862TIP3    H232523   8.762   3.174   5.777
10863TIP3   OH232524   8.435   3.507   4.825
10863TIP3    H132525   8.382   3.425   4.821
10863TIP3    H232526   8.440   3.524   4.922
10864TIP3   OH232527   8.820   3.775   5.857
10864TIP3    H132528   8.856   3.768   5.946
10864TIP3    H232529   8.804   3.870   5.848
10865TIP3   OH232530   8.149   3.507   5.503
10865TIP3    H132531   8.186   3.478   5.418
10865TIP3    H232532   8.190   3.445   5.566
10866TIP3   OH232533   8.569   3.631   4.620
10866TIP3    H132534   8.542   3.721   4.648
10866TIP3    H232535   8.541   3.580   4.699
10867TIP3   OH232536   8.032   3.433   6.116
10867TIP3    H132537   8.058   3.415   6.208
10867TIP3    H232538   7.964   3.364   6.100
10868TIP3   OH232539   8.759   3.542   6.135
10868TIP3    H132540   8.713   3.494   6.065
10868TIP3    H232541   8.850   3.511   6.126
10869TIP3   OH232542   8.252   3.810   5.126
10869TIP3    H132543   8.252   3.892   5.072
10869TIP3    H232544   8.157   3.797   5.137
10870TIP3   OH232545   7.814   3.116   4.829
10870TIP3    H132546   7.860   3.200   4.850
10870TIP3    H232547   7.737   3.121   4.890
10871TIP3   OH232548   8.404   3.579   5.089
10871TIP3    H132549   8.360   3.667   5.093
10871TIP3    H232550   8.351   3.529   5.154
10872TIP3   OH232551   8.519   4.151   5.596
10872TIP3    H132552   8.554   4.229   5.548
10872TIP3    H232553   8.596   4.125   5.649
10873TIP3   OH232554   8.172   4.051   4.979
10873TIP3    H132555   8.086   4.060   5.025
10873TIP3    H232556   8.205   4.143   4.982
10874TIP3   OH232557   8.243   2.936   6.126
10874TIP3    H132558   8.148   2.937   6.142
10874TIP3    H232559   8.274   2.874   6.193
10875TIP3   OH232560   7.959   4.017   5.755
10875TIP3    H132561   8.014   3.945   5.791
10875TIP3    H232562   7.985   4.091   5.812
10876TIP3   OH232563   8.247   3.662   4.437
10876TIP3    H132564   8.257   3.569   4.412
10876TIP3    H232565   8.231   3.654   4.534
10877TIP3   OH232566   8.199   3.666   4.708
10877TIP3    H132567   8.277   3.635   4.756
10877TIP3    H232568   8.203   3.763   4.721
10878TIP3   OH232569   7.930   3.361   4.912
10878TIP3    H132570   7.864   3.406   4.969
10878TIP3    H232571   7.945   3.431   4.846
10879TIP3   OH232572   8.459   3.875   4.661
10879TIP3    H132573   8.370   3.900   4.693
10879TIP3    H232574   8.484   3.956   4.613
10880TIP3   OH232575   8.199   3.941   4.725
10880TIP3    H132576   8.167   4.011   4.663
10880TIP3    H232577   8.186   3.985   4.812
10881TIP3   OH232578   8.307   2.658   4.963
10881TIP3    H132579   8.296   2.745   5.006
10881TIP3    H232580   8.396   2.669   4.924
10882TIP3   OH232581   7.922   3.570   4.718
10882TIP3    H132582   7.987   3.642   4.731
10882TIP3    H232583   7.970   3.519   4.649
10883TIP3   OH232584   7.867   2.847   4.853
10883TIP3    H132585   7.865   2.945   4.848
10883TIP3    H232586   7.787   2.823   4.806
10884TIP3   OH232587   8.236   2.569   5.727
10884TIP3    H132588   8.224   2.531   5.637
10884TIP3    H232589   8.239   2.490   5.783
10885TIP3   OH232590   7.791   3.779   5.105
10885TIP3    H132591   7.722   3.814   5.163
10885TIP3    H232592   7.768   3.823   5.020
10886TIP3   OH232593   7.949   4.326   6.179
10886TIP3    H132594   8.036   4.328   6.225
10886TIP3    H232595   7.932   4.231   6.177
10887TIP3   OH232596   8.427   4.290   6.224
10887TIP3    H132597   8.523   4.278   6.233
10887TIP3    H232598   8.407   4.232   6.148
10888TIP3   OH232599   8.408   3.863   4.348
10888TIP3    H132600   8.346   3.797   4.386
10888TIP3    H232601   8.493   3.824   4.373
10889TIP3   OH232602   8.080   3.734   6.377
10889TIP3    H132603   8.097   3.639   6.388
10889TIP3    H232604   7.993   3.734   6.332
10890TIP3   OH232605   8.063   3.384   4.568
10890TIP3    H132606   8.114   3.353   4.644
10890TIP3    H232607   8.133   3.389   4.500
10891TIP3   OH232608   8.702   3.819   6.147
10891TIP3    H132609   8.650   3.834   6.066
10891TIP3    H232610   8.716   3.721   6.146
10892TIP3   OH232611   8.553   3.563   4.364
10892TIP3    H132612   8.571   3.600   4.455
10892TIP3    H232613   8.486   3.497   4.388
10893TIP3   OH232614   8.208   3.454   6.354
10893TIP3    H132615   8.293   3.410   6.335
10893TIP3    H232616   8.227   3.493   6.442
10894TIP3   OH232617   8.262   3.284   4.789
10894TIP3    H132618   8.237   3.245   4.875
10894TIP3    H232619   8.305   3.210   4.743
10895TIP3   OH232620   8.507   3.329   6.036
10895TIP3    H132621   8.441   3.401   6.045
10895TIP3    H232622   8.567   3.369   5.969
10896TIP3   OH232623   8.370   3.076   4.633
10896TIP3    H132624   8.333   3.080   4.543
10896TIP3    H232625   8.464   3.061   4.611
10897TIP3   OH232626   8.655   3.134   6.156
10897TIP3    H132627   8.661   3.053   6.101
10897TIP3    H232628   8.603   3.193   6.099
10898TIP3   OH232629   8.667   2.912   5.977
10898TIP3    H132630   8.677   2.966   5.896
10898TIP3    H232631   8.577   2.875   5.961
10899TIP3   OH232632   8.665   3.457   5.865
10899TIP3    H132633   8.731   3.444   5.795
10899TIP3    H232634   8.608   3.526   5.823
10900TIP3   OH232635   8.470   3.279   6.337
10900TIP3    H132636   8.431   3.194   6.366
10900TIP3    H232637   8.529   3.251   6.265
10901TIP3   OH232638   8.366   3.037   6.414
10901TIP3    H132639   8.372   2.942   6.391
10901TIP3    H232640   8.408   3.034   6.504
10902TIP3   OH232641   8.163   4.142   4.535
10902TIP3    H132642   8.260   4.142   4.525
10902TIP3    H232643   8.139   4.196   4.457
10903TIP3   OH232644   7.653   3.525   4.754
10903TIP3    H132645   7.748   3.547   4.741
10903TIP3    H232646   7.648   3.436   4.713
10904TIP3   OH232647   7.569   4.137   5.166
10904TIP3    H132648   7.501   4.076   5.131
10904TIP3    H232649   7.612   4.080   5.233
10905TIP3   OH232650   7.706   3.988   5.353
10905TIP3    H132651   7.692   3.916   5.417
10905TIP3    H232652   7.756   4.051   5.408
10906TIP3   OH232653   7.890   3.398   5.724
10906TIP3    H132654   7.891   3.367   5.632
10906TIP3    H232655   7.987   3.398   5.743
10907TIP3   OH232656   8.098   3.073   6.387
10907TIP3    H132657   8.196   3.079   6.389
10907TIP3    H232658   8.085   2.994   6.443
10908TIP3   OH232659   8.061   2.779   5.739
10908TIP3    H132660   8.122   2.702   5.745
10908TIP3    H232661   8.126   2.852   5.734
10909TIP3   OH232662   7.864   3.042   5.808
10909TIP3    H132663   7.917   3.041   5.726
10909TIP3    H232664   7.884   3.130   5.843
10910TIP3   OH232665   7.853   2.553   5.306
10910TIP3    H132666   7.759   2.551   5.327
10910TIP3    H232667   7.856   2.611   5.227
10911TIP3   OH232668   8.074   2.645   6.123
10911TIP3    H132669   8.021   2.630   6.203
10911TIP3    H232670   8.007   2.670   6.058
10912TIP3   OH232671   8.116   4.057   6.194
10912TIP3    H132672   8.023   4.032   6.181
10912TIP3    H232673   8.129   4.044   6.289
10913TIP3   OH232674   8.293   4.088   5.742
10913TIP3    H132675   8.245   4.165   5.704
10913TIP3    H232676   8.380   4.103   5.698
10914TIP3   OH232677   8.730   4.322   5.885
10914TIP3    H132678   8.775   4.330   5.972
10914TIP3    H232679   8.782   4.384   5.829
10915TIP3   OH232680   8.871   4.487   5.710
10915TIP3    H132681   8.923   4.481   5.627
10915TIP3    H232682   8.909   4.568   5.750
10916TIP3   OH232683   7.970   4.346   5.770
10916TIP3    H132684   7.881   4.380   5.746
10916TIP3    H232685   7.984   4.392   5.854
10917TIP3   OH232686   8.204   4.323   5.624
10917TIP3    H132687   8.118   4.338   5.670
10917TIP3    H232688   8.186   4.360   5.536
10918TIP3   OH232689   8.607   4.362   5.429
10918TIP3    H132690   8.535   4.381   5.364
10918TIP3    H232691   8.622   4.451   5.465
10919TIP3   OH232692   8.856   4.261   5.406
10919TIP3    H132693   8.766   4.298   5.417
10919TIP3    H232694   8.910   4.338   5.434
10920TIP3   OH232695   7.881   4.142   5.512
10920TIP3    H132696   7.907   4.118   5.603
10920TIP3    H232697   7.954   4.099   5.462
10921TIP3   OH232698   8.075   4.014   5.368
10921TIP3    H132699   8.091   3.930   5.419
10921TIP3    H232700   8.165   4.052   5.365
10922TIP3   OH232701   8.339   4.110   5.372
10922TIP3    H132702   8.370   4.018   5.363
10922TIP3    H232703   8.384   4.134   5.456
10923TIP3   OH232704   8.169   2.476   5.470
10923TIP3    H132705   8.078   2.441   5.477
10923TIP3    H232706   8.220   2.391   5.466
10924TIP3   OH232707   7.952   2.344   5.116
10924TIP3    H132708   7.983   2.404   5.046
10924TIP3    H232709   7.927   2.407   5.186
10925TIP3   OH232710   7.671   3.914   4.904
10925TIP3    H132711   7.585   3.882   4.870
10925TIP3    H232712   7.660   4.009   4.889
10926TIP3   OH232713   8.067   2.502   4.894
10926TIP3    H132714   8.111   2.447   4.826
10926TIP3    H232715   8.141   2.559   4.924
10927TIP3   OH232716   8.432   4.104   4.493
10927TIP3    H132717   8.525   4.113   4.462
10927TIP3    H232718   8.405   4.031   4.433
10928TIP3   OH232719   8.380   2.762   6.369
10928TIP3    H132720   8.353   2.700   6.439
10928TIP3    H232721   8.476   2.747   6.366
10929TIP3   OH232722   7.744   3.939   4.543
10929TIP3    H132723   7.743   3.968   4.635
10929TIP3    H232724   7.834   3.901   4.534
10930TIP3   OH232725   1.310   4.269   6.736
10930TIP3    H132726   1.282   4.360   6.717
10930TIP3    H232727   1.233   4.219   6.704
10931TIP3   OH232728   1.308   4.269   7.116
10931TIP3    H132729   1.340   4.240   7.203
10931TIP3    H232730   1.266   4.189   7.082
10932TIP3   OH232731   0.637   4.147   7.445
10932TIP3    H132732   0.624   4.100   7.528
10932TIP3    H232733   0.686   4.225   7.473
10933TIP3   OH232734   1.551   4.572   6.798
10933TIP3    H132735   1.538   4.502   6.863
10933TIP3    H232736   1.581   4.646   6.853
10934TIP3   OH232737   0.585   4.558   7.153
10934TIP3    H132738   0.568   4.463   7.173
10934TIP3    H232739   0.675   4.567   7.187
10935TIP3   OH232740   0.353   4.054   7.122
10935TIP3    H132741   0.390   4.018   7.204
10935TIP3    H232742   0.416   4.124   7.102
10936TIP3   OH232743   1.200   5.033   6.816
10936TIP3    H132744   1.245   4.964   6.764
10936TIP3    H232745   1.201   4.993   6.904
10937TIP3   OH232746   1.108   4.495   7.165
10937TIP3    H132747   1.147   4.417   7.121
10937TIP3    H232748   1.192   4.540   7.190
10938TIP3   OH232749   2.122   3.815   7.162
10938TIP3    H132750   2.150   3.899   7.203
10938TIP3    H232751   2.143   3.832   7.069
10939TIP3   OH232752   1.520   3.997   7.197
10939TIP3    H132753   1.562   3.912   7.218
10939TIP3    H232754   1.489   3.981   7.106
10940TIP3   OH232755   0.858   3.656   7.163
10940TIP3    H132756   0.839   3.729   7.100
10940TIP3    H232757   0.812   3.582   7.118
10941TIP3   OH232758   1.551   3.748   6.784
10941TIP3    H132759   1.623   3.731   6.850
10941TIP3    H232760   1.604   3.782   6.710
10942TIP3   OH232761   0.495   3.857   7.275
10942TIP3    H132762   0.577   3.848   7.326
10942TIP3    H232763   0.520   3.815   7.190
10943TIP3   OH232764   0.936   4.056   7.049
10943TIP3    H132765   1.027   4.030   7.072
10943TIP3    H232766   0.896   3.969   7.026
10944TIP3   OH232767   2.196   4.025   7.332
10944TIP3    H132768   2.112   4.070   7.310
10944TIP3    H232769   2.204   4.047   7.426
10945TIP3   OH232770   0.852   3.629   7.594
10945TIP3    H132771   0.799   3.677   7.528
10945TIP3    H232772   0.806   3.649   7.676
10946TIP3   OH232773   1.201   4.491   6.606
10946TIP3    H132774   1.158   4.470   6.522
10946TIP3    H232775   1.157   4.575   6.630
10947TIP3   OH232776   0.960   4.420   7.396
10947TIP3    H132777   0.899   4.484   7.437
10947TIP3    H232778   1.000   4.471   7.323
10948TIP3   OH232779   1.761   3.749   6.956
10948TIP3    H132780   1.754   3.699   7.038
10948TIP3    H232781   1.815   3.826   6.983
10949TIP3   OH232782   0.731   3.753   7.384
10949TIP3    H132783   0.789   3.830   7.406
10949TIP3    H232784   0.781   3.717   7.307
10950TIP3   OH232785   0.778   4.600   7.510
10950TIP3    H132786   0.727   4.660   7.453
10950TIP3    H232787   0.705   4.562   7.563
10951TIP3   OH232788   1.622   4.814   6.966
10951TIP3    H132789   1.532   4.805   7.005
10951TIP3    H232790   1.615   4.900   6.921
10952TIP3   OH232791   1.914   3.717   7.330
10952TIP3    H132792   1.825   3.743   7.299
10952TIP3    H232793   1.971   3.748   7.257
10953TIP3   OH232794   1.212   3.355   7.307
10953TIP3    H132795   1.199   3.261   7.328
10953TIP3    H232796   1.137   3.395   7.357
10954TIP3   OH232797   1.323   4.861   6.640
10954TIP3    H132798   1.373   4.779   6.620
10954TIP3    H232799   1.384   4.926   6.599
10955TIP3   OH232800   1.466   4.647   6.546
10955TIP3    H132801   1.431   4.566   6.506
10955TIP3    H232802   1.503   4.612   6.631
10956TIP3   OH232803   1.849   4.727   7.311
10956TIP3    H132804   1.838   4.650   7.250
10956TIP3    H232805   1.831   4.802   7.250
10957TIP3   OH232806   1.140   4.121   6.566
10957TIP3    H132807   1.061   4.173   6.543
10957TIP3    H232808   1.187   4.117   6.481
10958TIP3   OH232809   1.098   3.905   6.284
10958TIP3    H132810   1.166   3.956   6.331
10958TIP3    H232811   1.156   3.842   6.236
10959TIP3   OH232812   2.044   4.364   7.154
10959TIP3    H132813   1.961   4.416   7.159
10959TIP3    H232814   2.074   4.388   7.064
10960TIP3   OH232815   1.487   4.204   6.538
10960TIP3    H132816   1.433   4.227   6.617
10960TIP3    H232817   1.571   4.178   6.581
10961TIP3   OH232818   1.722   4.244   7.449
10961TIP3    H132819   1.718   4.329   7.497
10961TIP3    H232820   1.636   4.246   7.404
10962TIP3   OH232821   0.723   4.199   6.954
10962TIP3    H132822   0.681   4.140   6.888
10962TIP3    H232823   0.802   4.146   6.980
10963TIP3   OH232824   0.865   4.625   7.099
10963TIP3    H132825   0.832   4.572   7.026
10963TIP3    H232826   0.952   4.585   7.116
10964TIP3   OH232827   0.898   4.165   7.305
10964TIP3    H132828   0.906   4.158   7.208
10964TIP3    H232829   0.914   4.260   7.323
10965TIP3   OH232830   1.379   4.810   7.085
10965TIP3    H132831   1.369   4.890   7.140
10965TIP3    H232832   1.366   4.738   7.150
10966TIP3   OH232833   0.994   4.728   7.633
10966TIP3    H132834   0.937   4.790   7.683
10966TIP3    H232835   0.925   4.673   7.591
10967TIP3   OH232836   1.327   4.063   6.364
10967TIP3    H132837   1.387   4.121   6.416
10967TIP3    H232838   1.354   4.086   6.272
10968TIP3   OH232839   0.730   4.264   7.715
10968TIP3    H132840   0.748   4.348   7.764
10968TIP3    H232841   0.636   4.276   7.698
10969TIP3   OH232842   1.070   4.742   6.639
10969TIP3    H132843   1.151   4.794   6.657
10969TIP3    H232844   1.011   4.808   6.600
10970TIP3   OH232845   0.782   4.891   7.712
10970TIP3    H132846   0.754   4.898   7.618
10970TIP3    H232847   0.701   4.864   7.757
10971TIP3   OH232848   1.844   3.303   6.413
10971TIP3    H132849   1.763   3.324   6.463
10971TIP3    H232850   1.857   3.386   6.362
10972TIP3   OH232851   0.592   4.039   6.760
10972TIP3    H132852   0.530   4.078   6.695
10972TIP3    H232853   0.551   3.954   6.777
10973TIP3   OH232854   1.643   4.670   5.960
10973TIP3    H132855   1.653   4.766   5.946
10973TIP3    H232856   1.736   4.640   5.948
10974TIP3   OH232857   2.088   5.072   7.357
10974TIP3    H132858   2.084   4.976   7.370
10974TIP3    H232859   2.004   5.099   7.402
10975TIP3   OH232860   1.190   4.858   7.487
10975TIP3    H132861   1.191   4.951   7.520
10975TIP3    H232862   1.121   4.819   7.544
10976TIP3   OH232863   0.951   4.987   6.442
10976TIP3    H132864   0.906   4.973   6.357
10976TIP3    H232865   0.922   5.077   6.467
10977TIP3   OH232866   1.154   4.888   6.081
10977TIP3    H132867   1.214   4.818   6.046
10977TIP3    H232868   1.188   4.898   6.173
10978TIP3   OH232869   1.203   4.936   6.351
10978TIP3    H132870   1.115   4.946   6.394
10978TIP3    H232871   1.255   4.897   6.423
10979TIP3   OH232872   1.975   4.203   7.630
10979TIP3    H132873   1.894   4.216   7.579
10979TIP3    H232874   1.990   4.107   7.618
10980TIP3   OH232875   0.973   3.432   7.433
10980TIP3    H132876   0.883   3.402   7.409
10980TIP3    H232877   0.949   3.516   7.478
10981TIP3   OH232878   1.509   3.558   7.624
10981TIP3    H132879   1.578   3.518   7.682
10981TIP3    H232880   1.424   3.530   7.664
10982TIP3   OH232881   1.748   3.981   7.551
10982TIP3    H132882   1.699   3.975   7.637
10982TIP3    H232883   1.719   4.067   7.516
10983TIP3   OH232884   1.404   4.112   6.109
10983TIP3    H132885   1.371   4.083   6.022
10983TIP3    H232886   1.487   4.156   6.084
10984TIP3   OH232887   1.116   3.484   6.411
10984TIP3    H132888   1.083   3.480   6.503
10984TIP3    H232889   1.079   3.401   6.376
10985TIP3   OH232890   0.905   3.946   7.459
10985TIP3    H132891   0.854   3.971   7.540
10985TIP3    H232892   0.896   4.028   7.405
10986TIP3   OH232893   0.786   3.834   6.972
10986TIP3    H132894   0.691   3.812   6.986
10986TIP3    H232895   0.801   3.795   6.883
10987TIP3   OH232896   1.278   3.921   6.699
10987TIP3    H132897   1.226   3.993   6.657
10987TIP3    H232898   1.333   3.890   6.625
10988TIP3   OH232899   1.460   4.213   7.783
10988TIP3    H132900   1.435   4.131   7.830
10988TIP3    H232901   1.555   4.217   7.804
10989TIP3   OH232902   1.435   3.951   6.939
10989TIP3    H132903   1.375   3.980   6.868
10989TIP3    H232904   1.468   3.869   6.896
10990TIP3   OH232905   0.735   3.972   7.678
10990TIP3    H132906   0.755   4.057   7.722
10990TIP3    H232907   0.661   3.939   7.730
10991TIP3   OH232908   0.773   3.455   6.376
10991TIP3    H132909   0.764   3.455   6.473
10991TIP3    H232910   0.691   3.498   6.349
10992TIP3   OH232911   0.333   3.533   7.232
10992TIP3    H132912   0.409   3.533   7.293
10992TIP3    H232913   0.348   3.453   7.179
10993TIP3   OH232914   0.309   3.529   6.798
10993TIP3    H132915   0.341   3.538   6.705
10993TIP3    H232916   0.299   3.622   6.821
10994TIP3   OH232917   1.448   4.198   7.361
10994TIP3    H132918   1.480   4.126   7.302
10994TIP3    H232919   1.417   4.145   7.437
10995TIP3   OH232920   1.114   3.661   7.034
10995TIP3    H132921   1.034   3.658   7.089
10995TIP3    H232922   1.185   3.656   7.100
10996TIP3   OH232923   0.546   3.705   7.037
10996TIP3    H132924   0.454   3.675   7.043
10996TIP3    H232925   0.594   3.620   7.023
10997TIP3   OH232926   0.818   3.710   6.729
10997TIP3    H132927   0.913   3.724   6.711
10997TIP3    H232928   0.774   3.734   6.644
10998TIP3   OH232929   1.607   3.734   7.237
10998TIP3    H132930   1.571   3.747   7.327
10998TIP3    H232931   1.542   3.673   7.199
10999TIP3   OH232932   0.655   3.747   6.506
10999TIP3    H132933   0.591   3.700   6.449
10999TIP3    H232934   0.713   3.786   6.436
11000TIP3   OH232935   1.776   5.421   7.455
11000TIP3    H132936   1.775   5.449   7.361
11000TIP3    H232937   1.855   5.470   7.487
11001TIP3   OH232938   0.734   4.496   7.852
11001TIP3    H132939   0.807   4.552   7.886
11001TIP3    H232940   0.659   4.528   7.902
11002TIP3   OH232941   1.197   3.987   7.130
11002TIP3    H132942   1.270   3.947   7.081
11002TIP3    H232943   1.205   3.944   7.218
11003TIP3   OH232944   0.717   3.478   7.009
11003TIP3    H132945   0.685   3.397   7.054
11003TIP3    H232946   0.772   3.440   6.938
11004TIP3   OH232947   1.174   3.883   7.420
11004TIP3    H132948   1.085   3.921   7.433
11004TIP3    H232949   1.232   3.945   7.468
11005TIP3   OH232950   0.910   4.275   6.513
11005TIP3    H132951   0.838   4.209   6.505
11005TIP3    H232952   0.894   4.307   6.606
11006TIP3   OH232953   1.811   4.510   7.146
11006TIP3    H132954   1.835   4.560   7.065
11006TIP3    H232955   1.726   4.468   7.120
11007TIP3   OH232956   1.369   3.586   6.379
11007TIP3    H132957   1.272   3.569   6.386
11007TIP3    H232958   1.379   3.680   6.402
11008TIP3   OH232959   1.310   4.593   7.513
11008TIP3    H132960   1.331   4.571   7.604
11008TIP3    H232961   1.274   4.682   7.520
11009TIP3   OH232962   1.438   3.834   6.482
11009TIP3    H132963   1.535   3.839   6.497
11009TIP3    H232964   1.421   3.914   6.428
11010TIP3   OH232965   0.608   4.288   7.195
11010TIP3    H132966   0.654   4.245   7.120
11010TIP3    H232967   0.617   4.224   7.268
11011TIP3   OH232968   1.054   4.423   6.334
11011TIP3    H132969   1.007   4.510   6.341
11011TIP3    H232970   1.002   4.368   6.396
11012TIP3   OH232971   1.209   4.331   7.809
11012TIP3    H132972   1.148   4.268   7.765
11012TIP3    H232973   1.296   4.295   7.782
11013TIP3   OH232974   1.470   4.849   7.407
11013TIP3    H132975   1.374   4.850   7.420
11013TIP3    H232976   1.500   4.903   7.483
11014TIP3   OH232977   1.881   3.924   6.318
11014TIP3    H132978   1.818   3.879   6.257
11014TIP3    H232979   1.878   4.013   6.277
11015TIP3   OH232980   2.099   4.780   7.399
11015TIP3    H132981   2.001   4.776   7.390
11015TIP3    H232982   2.125   4.751   7.309
11016TIP3   OH232983   1.578   4.743   6.225
11016TIP3    H132984   1.556   4.673   6.287
11016TIP3    H232985   1.593   4.695   6.141
11017TIP3   OH232986   1.577   4.372   7.064
11017TIP3    H132987   1.483   4.347   7.078
11017TIP3    H232988   1.611   4.292   7.020
11018TIP3   OH232989   0.706   4.597   6.810
11018TIP3    H132990   0.702   4.679   6.758
11018TIP3    H232991   0.619   4.595   6.851
11019TIP3   OH232992   0.269   3.911   6.531
11019TIP3    H132993   0.328   3.988   6.543
11019TIP3    H232994   0.184   3.950   6.553
11020TIP3   OH232995   0.844   4.363   6.759
11020TIP3    H132996   0.808   4.452   6.776
11020TIP3    H232997   0.809   4.313   6.836
11021TIP3   OH232998   0.979   4.946   7.286
11021TIP3    H132999   1.023   5.017   7.234
11021TIP3    H233000   1.055   4.909   7.334
11022TIP3   OH233001   0.621   4.842   6.671
11022TIP3    H133002   0.542   4.862   6.723
11022TIP3    H233003   0.662   4.932   6.669
11023TIP3   OH233004   1.361   4.577   7.244
11023TIP3    H133005   1.352   4.575   7.342
11023TIP3    H233006   1.441   4.524   7.231
11024TIP3   OH233007   1.335   4.472   6.128
11024TIP3    H133008   1.390   4.446   6.205
11024TIP3    H233009   1.248   4.443   6.158
11025TIP3   OH233010   1.611   5.110   7.294
11025TIP3    H133011   1.531   5.055   7.286
11025TIP3    H233012   1.595   5.176   7.222
11026TIP3   OH233013   1.676   4.946   5.947
11026TIP3    H133014   1.718   5.021   5.901
11026TIP3    H233015   1.595   4.991   5.979
11027TIP3   OH233016   1.496   4.405   6.344
11027TIP3    H133017   1.486   4.338   6.415
11027TIP3    H233018   1.593   4.402   6.331
11028TIP3   OH233019   0.700   4.450   6.123
11028TIP3    H133020   0.718   4.357   6.098
11028TIP3    H233021   0.684   4.440   6.219
11029TIP3   OH233022   0.653   4.457   6.399
11029TIP3    H133023   0.726   4.429   6.455
11029TIP3    H233024   0.659   4.555   6.405
11030TIP3   OH233025   0.395   4.144   6.601
11030TIP3    H133026   0.359   4.195   6.675
11030TIP3    H233027   0.411   4.215   6.535
11031TIP3   OH233028   1.531   3.794   7.495
11031TIP3    H133029   1.615   3.825   7.532
11031TIP3    H233030   1.517   3.710   7.545
11032TIP3   OH233031   1.410   3.538   6.659
11032TIP3    H133032   1.398   3.560   6.565
11032TIP3    H233033   1.450   3.621   6.695
11033TIP3   OH233034   0.912   4.654   6.346
11033TIP3    H133035   0.827   4.682   6.384
11033TIP3    H233036   0.931   4.729   6.288
11034TIP3   OH233037   1.099   3.718   6.762
11034TIP3    H133038   1.165   3.788   6.744
11034TIP3    H233039   1.106   3.710   6.859
11035TIP3   OH233040   1.369   4.035   7.563
11035TIP3    H133041   1.384   4.083   7.646
11035TIP3    H233042   1.423   3.954   7.576
11036TIP3   OH233043   1.245   3.444   6.863
11036TIP3    H133044   1.243   3.519   6.925
11036TIP3    H233045   1.306   3.479   6.794
11037TIP3   OH233046   0.656   4.730   6.417
11037TIP3    H133047   0.627   4.798   6.352
11037TIP3    H233048   0.639   4.775   6.502
11038TIP3   OH233049   0.757   3.443   6.654
11038TIP3    H133050   0.757   3.534   6.690
11038TIP3    H233051   0.852   3.422   6.661
11039TIP3   OH233052   2.012   3.936   7.546
11039TIP3    H133053   1.914   3.936   7.556
11039TIP3    H233054   2.019   3.891   7.461
11040TIP3   OH233055   1.662   4.131   6.939
11040TIP3    H133056   1.587   4.070   6.950
11040TIP3    H233057   1.734   4.083   6.986
11041TIP3   OH233058   0.384   4.366   6.442
11041TIP3    H133059   0.460   4.426   6.431
11041TIP3    H233060   0.396   4.313   6.360
11042TIP3   OH233061   0.300   3.633   6.548
11042TIP3    H133062   0.306   3.730   6.540
11042TIP3    H233063   0.269   3.606   6.460
11043TIP3   OH233064   1.630   5.085   6.887
11043TIP3    H133065   1.588   5.132   6.812
11043TIP3    H233066   1.725   5.104   6.867
11044TIP3   OH233067   0.708   3.351   7.414
11044TIP3    H133068   0.679   3.319   7.326
11044TIP3    H233069   0.695   3.271   7.469
11045TIP3   OH233070   0.865   5.094   7.887
11045TIP3    H133071   0.950   5.089   7.933
11045TIP3    H233072   0.870   5.019   7.825
11046TIP3   OH233073   0.864   4.654   6.038
11046TIP3    H133074   0.808   4.583   6.077
11046TIP3    H233075   0.941   4.602   6.010
11047TIP3   OH233076   1.527   4.990   7.636
11047TIP3    H133077   1.512   4.916   7.700
11047TIP3    H233078   1.602   5.038   7.674
11048TIP3   OH233079   1.302   4.695   5.950
11048TIP3    H133080   1.344   4.631   6.012
11048TIP3    H233081   1.362   4.693   5.874
11049TIP3   OH233082   0.509   4.175   6.264
11049TIP3    H133083   0.567   4.142   6.335
11049TIP3    H233084   0.572   4.177   6.190
11050TIP3   OH233085   1.155   4.604   7.828
11050TIP3    H133086   1.113   4.623   7.742
11050TIP3    H233087   1.181   4.510   7.818
11051TIP3   OH233088   1.016   4.371   6.066
11051TIP3    H133089   1.022   4.383   6.163
11051TIP3    H233090   1.019   4.273   6.061
11052TIP3   OH233091   1.633   4.614   7.448
11052TIP3    H133092   1.708   4.658   7.403
11052TIP3    H233093   1.562   4.679   7.434
11053TIP3   OH233094   0.716   4.075   6.483
11053TIP3    H133095   0.700   4.029   6.567
11053TIP3    H233096   0.754   4.003   6.428
11054TIP3   OH233097   0.991   4.144   7.713
11054TIP3    H133098   0.909   4.196   7.711
11054TIP3    H233099   1.037   4.174   7.631
11055TIP3   OH233100   0.819   3.871   6.325
11055TIP3    H133101   0.793   3.871   6.230
11055TIP3    H233102   0.917   3.872   6.317
11056TIP3   OH233103   1.506   4.538   7.849
11056TIP3    H133104   1.580   4.516   7.791
11056TIP3    H233105   1.504   4.462   7.909
11057TIP3   OH233106   1.639   4.201   5.986
11057TIP3    H133107   1.620   4.153   5.903
11057TIP3    H233108   1.606   4.290   5.961
11058TIP3   OH233109   1.105   3.920   7.836
11058TIP3    H133110   1.097   3.845   7.774
11058TIP3    H233111   1.050   3.990   7.795
11059TIP3   OH233112   1.103   3.723   7.641
11059TIP3    H133113   1.134   3.768   7.560
11059TIP3    H233114   1.011   3.699   7.619
11060TIP3   OH233115   1.142   4.252   7.516
11060TIP3    H133116   1.224   4.259   7.464
11060TIP3    H233117   1.084   4.316   7.471
11061TIP3   OH233118   1.731   4.209   7.893
11061TIP3    H133119   1.772   4.122   7.904
11061TIP3    H233120   1.805   4.259   7.854
11062TIP3   OH233121   1.762   4.470   7.635
11062TIP3    H133122   1.705   4.524   7.575
11062TIP3    H233123   1.850   4.490   7.595
11063TIP3   OH233124   1.246   3.488   7.646
11063TIP3    H133125   1.191   3.569   7.648
11063TIP3    H233126   1.181   3.418   7.662
11064TIP3   OH233127   1.362   3.979   7.882
11064TIP3    H133128   1.345   4.019   7.970
11064TIP3    H233129   1.270   3.949   7.860
11065TIP3   OH233130   1.619   3.934   7.783
11065TIP3    H133131   1.533   3.930   7.827
11065TIP3    H233132   1.681   3.908   7.854
11066TIP3   OH233133   1.834   3.901   7.971
11066TIP3    H133134   1.862   3.807   7.962
11066TIP3    H233135   1.823   3.907   8.068
11067TIP3   OH233136   1.285   3.343   7.889
11067TIP3    H133137   1.330   3.374   7.969
11067TIP3    H233138   1.259   3.427   7.849
11068TIP3   OH233139   0.627   4.924   6.224
11068TIP3    H133140   0.723   4.927   6.206
11068TIP3    H233141   0.594   4.981   6.154
11069TIP3   OH233142   1.883   5.178   6.843
11069TIP3    H133143   1.908   5.211   6.931
11069TIP3    H233144   1.945   5.223   6.785
11070TIP3   OH233145   1.910   5.197   7.125
11070TIP3    H133146   1.870   5.108   7.123
11070TIP3    H233147   1.988   5.179   7.180
11071TIP3   OH233148   1.961   4.873   7.702
11071TIP3    H133149   1.884   4.882   7.762
11071TIP3    H233150   2.000   4.962   7.703
11072TIP3   OH233151   1.774   4.388   6.320
11072TIP3    H133152   1.843   4.451   6.290
11072TIP3    H233153   1.818   4.348   6.398
11073TIP3   OH233154   1.902   4.255   6.523
11073TIP3    H133155   1.837   4.212   6.582
11073TIP3    H233156   1.967   4.292   6.585
11074TIP3   OH233157   1.957   4.646   6.955
11074TIP3    H133158   2.009   4.581   6.905
11074TIP3    H233159   1.951   4.721   6.892
11075TIP3   OH233160   1.789   4.945   7.151
11075TIP3    H133161   1.718   4.990   7.202
11075TIP3    H233162   1.738   4.899   7.081
11076TIP3   OH233163   1.841   4.163   6.170
11076TIP3    H133164   1.769   4.165   6.102
11076TIP3    H233165   1.813   4.238   6.225
11077TIP3   OH233166   1.709   3.837   6.126
11077TIP3    H133167   1.672   3.872   6.044
11077TIP3    H233168   1.686   3.742   6.118
11078TIP3   OH233169   1.717   4.111   6.669
11078TIP3    H133170   1.725   4.014   6.662
11078TIP3    H233171   1.703   4.124   6.765
11079TIP3   OH233172   2.005   4.536   7.527
11079TIP3    H133173   2.078   4.471   7.518
11079TIP3    H233174   2.031   4.605   7.464
11080TIP3   OH233175   2.190   4.342   7.546
11080TIP3    H133176   2.115   4.291   7.582
11080TIP3    H233177   2.263   4.278   7.559
11081TIP3   OH233178   1.655   3.571   6.113
11081TIP3    H133179   1.731   3.539   6.164
11081TIP3    H233180   1.584   3.509   6.135
11082TIP3   OH233181   1.713   3.827   6.564
11082TIP3    H133182   1.753   3.738   6.580
11082TIP3    H233183   1.772   3.859   6.493
11083TIP3   OH233184   1.876   4.001   7.059
11083TIP3    H133185   1.962   4.027   7.019
11083TIP3    H233186   1.889   4.038   7.149
11084TIP3   OH233187   1.945   4.145   7.292
11084TIP3    H133188   1.866   4.178   7.339
11084TIP3    H233189   1.976   4.226   7.246
11085TIP3   OH233190   2.395   3.741   7.842
11085TIP3    H133191   2.457   3.678   7.800
11085TIP3    H233192   2.369   3.798   7.767
11086TIP3   OH233193   1.821   3.577   6.603
11086TIP3    H133194   1.870   3.560   6.686
11086TIP3    H233195   1.761   3.499   6.601
11087TIP3   OH233196   0.533   3.562   7.426
11087TIP3    H133197   0.596   3.487   7.429
11087TIP3    H233198   0.594   3.636   7.407
11088TIP3   OH233199   2.266   3.877   7.645
11088TIP3    H133200   2.181   3.918   7.671
11088TIP3    H233201   2.231   3.806   7.587
11089TIP3   OH233202   1.904   3.511   6.234
11089TIP3    H133203   1.943   3.439   6.181
11089TIP3    H233204   1.972   3.581   6.227
11090TIP3   OH233205   0.327   3.354   7.006
11090TIP3    H133206   0.234   3.357   7.031
11090TIP3    H233207   0.329   3.415   6.929
11091TIP3   OH233208   1.466   5.044   6.500
11091TIP3    H133209   1.519   5.031   6.419
11091TIP3    H233210   1.519   5.109   6.549
11092TIP3   OH233211   0.745   4.907   7.429
11092TIP3    H133212   0.727   4.986   7.374
11092TIP3    H233213   0.837   4.890   7.401
11093TIP3   OH233214   1.190   5.123   7.567
11093TIP3    H133215   1.230   5.124   7.657
11093TIP3    H233216   1.257   5.176   7.517
11094TIP3   OH233217   1.371   5.277   7.429
11094TIP3    H133218   1.444   5.226   7.391
11094TIP3    H233219   1.421   5.335   7.492
11095TIP3   OH233220   2.166   3.637   7.525
11095TIP3    H133221   2.073   3.631   7.494
11095TIP3    H233222   2.194   3.543   7.514
11096TIP3   OH233223   0.661   5.138   7.290
11096TIP3    H133224   0.632   5.226   7.322
11096TIP3    H233225   0.614   5.130   7.206
11097TIP3   OH233226   1.084   5.144   7.117
11097TIP3    H133227   1.033   5.170   7.039
11097TIP3    H233228   1.101   5.231   7.160
11098TIP3   OH233229   1.355   5.082   7.164
11098TIP3    H133230   1.261   5.102   7.146
11098TIP3    H233231   1.399   5.159   7.125
11099TIP3   OH233232   1.558   5.274   7.080
11099TIP3    H133233   1.546   5.360   7.033
11099TIP3    H233234   1.587   5.215   7.007
11100TIP3   OH233235   0.532   4.803   7.050
11100TIP3    H133236   0.539   4.714   7.093
11100TIP3    H233237   0.625   4.833   7.055
11101TIP3   OH233238   0.804   4.903   7.065
11101TIP3    H133239   0.830   4.811   7.046
11101TIP3    H233240   0.854   4.916   7.148
11102TIP3   OH233241   1.367   3.552   7.145
11102TIP3    H133242   1.326   3.483   7.201
11102TIP3    H233243   1.442   3.505   7.106
11103TIP3   OH233244   1.893   3.436   7.057
11103TIP3    H133245   1.929   3.486   6.980
11103TIP3    H233246   1.797   3.451   7.048
11104TIP3   OH233247   1.988   3.534   6.820
11104TIP3    H133248   2.060   3.482   6.779
11104TIP3    H233249   2.021   3.625   6.804
11105TIP3   OH233250   0.617   3.263   7.168
11105TIP3    H133251   0.524   3.234   7.162
11105TIP3    H233252   0.664   3.177   7.163
11106TIP3   OH233253   0.430   3.124   6.824
11106TIP3    H133254   0.446   3.180   6.746
11106TIP3    H233255   0.379   3.183   6.882
11107TIP3   OH233256   1.060   3.297   7.049
11107TIP3    H133257   1.119   3.344   6.987
11107TIP3    H233258   1.091   3.331   7.134
11108TIP3   OH233259   1.609   3.441   7.031
11108TIP3    H133260   1.609   3.403   6.942
11108TIP3    H233261   1.596   3.361   7.087
11109TIP3   OH233262   1.639   3.363   6.593
11109TIP3    H133263   1.551   3.404   6.603
11109TIP3    H233264   1.625   3.278   6.640
11110TIP3   OH233265   0.523   3.289   6.588
11110TIP3    H133266   0.567   3.226   6.527
11110TIP3    H233267   0.598   3.341   6.620
11111TIP3   OH233268   1.034   3.466   6.677
11111TIP3    H133269   1.095   3.419   6.736
11111TIP3    H233270   1.057   3.559   6.702
11112TIP3   OH233271   0.896   4.891   6.175
11112TIP3    H133272   0.985   4.912   6.140
11112TIP3    H233273   0.873   4.816   6.116
11113TIP3   OH233274   1.613   5.009   6.268
11113TIP3    H133275   1.604   4.911   6.257
11113TIP3    H233276   1.568   5.041   6.187
11114TIP3   OH233277   1.936   3.644   7.958
11114TIP3    H133278   1.967   3.582   8.027
11114TIP3    H233279   2.005   3.630   7.890
11115TIP3   OH233280   1.840   5.154   7.457
11115TIP3    H133281   1.761   5.123   7.408
11115TIP3    H233282   1.822   5.250   7.459
11116TIP3   OH233283   3.105   4.525   6.225
11116TIP3    H133284   3.077   4.616   6.203
11116TIP3    H233285   3.030   4.475   6.188
11117TIP3   OH233286   3.105   4.527   6.603
11117TIP3    H133287   3.135   4.494   6.689
11117TIP3    H233288   3.064   4.449   6.564
11118TIP3   OH233289   2.404   4.423   6.970
11118TIP3    H133290   2.436   4.355   7.031
11118TIP3    H233291   2.484   4.477   6.958
11119TIP3   OH233292   3.348   4.827   6.285
11119TIP3    H133293   3.333   4.758   6.350
11119TIP3    H233294   3.377   4.902   6.340
11120TIP3   OH233295   2.375   4.831   6.694
11120TIP3    H133296   2.367   4.733   6.696
11120TIP3    H233297   2.472   4.840   6.687
11121TIP3   OH233298   2.082   4.034   6.480
11121TIP3    H133299   2.033   4.117   6.493
11121TIP3    H233300   2.012   3.979   6.440
11122TIP3   OH233301   2.141   4.321   6.650
11122TIP3    H133302   2.190   4.244   6.686
11122TIP3    H233303   2.200   4.350   6.579
11123TIP3   OH233304   2.996   5.291   6.301
11123TIP3    H133305   3.042   5.220   6.251
11123TIP3    H233306   2.991   5.252   6.389
11124TIP3   OH233307   2.903   4.752   6.653
11124TIP3    H133308   2.941   4.676   6.606
11124TIP3    H233309   2.987   4.797   6.677
11125TIP3   OH233310   3.915   4.072   6.648
11125TIP3    H133311   3.947   4.156   6.687
11125TIP3    H233312   3.940   4.084   6.555
11126TIP3   OH233313   3.314   4.253   6.686
11126TIP3    H133314   3.358   4.168   6.704
11126TIP3    H233315   3.285   4.239   6.594
11127TIP3   OH233316   2.653   3.913   6.650
11127TIP3    H133317   2.634   3.985   6.587
11127TIP3    H233318   2.606   3.839   6.605
11128TIP3   OH233319   3.347   4.006   6.272
11128TIP3    H133320   3.419   3.989   6.337
11128TIP3    H233321   3.399   4.039   6.196
11129TIP3   OH233322   2.287   4.114   6.757
11129TIP3    H133323   2.370   4.095   6.804
11129TIP3    H233324   2.300   4.059   6.677
11130TIP3   OH233325   2.728   4.312   6.551
11130TIP3    H133326   2.822   4.287   6.562
11130TIP3    H233327   2.689   4.228   6.518
11131TIP3   OH233328   3.992   4.282   6.819
11131TIP3    H133329   3.909   4.327   6.792
11131TIP3    H233330   3.992   4.301   6.914
11132TIP3   OH233331   2.649   3.898   7.085
11132TIP3    H133332   2.591   3.933   7.015
11132TIP3    H233333   2.595   3.918   7.164
11133TIP3   OH233334   2.995   4.745   6.095
11133TIP3    H133335   2.957   4.727   6.008
11133TIP3    H233336   2.952   4.830   6.117
11134TIP3   OH233337   2.758   4.671   6.880
11134TIP3    H133338   2.695   4.738   6.916
11134TIP3    H233339   2.799   4.721   6.806
11135TIP3   OH233340   3.556   4.007   6.443
11135TIP3    H133341   3.557   3.951   6.521
11135TIP3    H233342   3.613   4.081   6.470
11136TIP3   OH233343   2.521   4.011   6.869
11136TIP3    H133344   2.584   4.083   6.891
11136TIP3    H233345   2.569   3.970   6.792
11137TIP3   OH233346   2.585   4.865   6.977
11137TIP3    H133347   2.559   4.951   6.937
11137TIP3    H233348   2.506   4.849   7.033
11138TIP3   OH233349   1.979   4.555   6.213
11138TIP3    H133350   1.939   4.583   6.128
11138TIP3    H233351   2.011   4.640   6.250
11139TIP3   OH233352   3.420   5.071   6.455
11139TIP3    H133353   3.329   5.063   6.493
11139TIP3    H233354   3.411   5.156   6.407
11140TIP3   OH233355   3.709   3.977   6.818
11140TIP3    H133356   3.621   3.999   6.784
11140TIP3    H233357   3.768   4.005   6.745
11141TIP3   OH233358   3.007   3.615   6.797
11141TIP3    H133359   2.994   3.520   6.814
11141TIP3    H233360   2.929   3.652   6.844
11142TIP3   OH233361   3.120   5.118   6.128
11142TIP3    H133362   3.169   5.035   6.107
11142TIP3    H233363   3.181   5.183   6.086
11143TIP3   OH233364   3.260   4.903   6.034
11143TIP3    H133365   3.234   4.822   5.987
11143TIP3    H233366   3.297   4.866   6.117
11144TIP3   OH233367   3.646   4.983   6.797
11144TIP3    H133368   3.634   4.907   6.737
11144TIP3    H233369   3.627   5.059   6.737
11145TIP3   OH233370   2.937   4.379   6.053
11145TIP3    H133371   2.857   4.430   6.030
11145TIP3    H233372   2.983   4.374   5.968
11146TIP3   OH233373   2.895   4.161   5.772
11146TIP3    H133374   2.964   4.213   5.817
11146TIP3    H233375   2.951   4.097   5.724
11147TIP3   OH233376   3.841   4.622   6.643
11147TIP3    H133377   3.757   4.673   6.646
11147TIP3    H233378   3.870   4.644   6.552
11148TIP3   OH233379   3.283   4.460   6.026
11148TIP3    H133380   3.229   4.484   6.104
11148TIP3    H233381   3.367   4.435   6.068
11149TIP3   OH233382   3.519   4.500   6.936
11149TIP3    H133383   3.514   4.586   6.982
11149TIP3    H233384   3.432   4.501   6.890
11150TIP3   OH233385   2.515   4.458   6.443
11150TIP3    H133386   2.473   4.401   6.376
11150TIP3    H233387   2.592   4.404   6.471
11151TIP3   OH233388   2.645   4.868   6.592
11151TIP3    H133389   2.624   4.828   6.506
11151TIP3    H233390   2.735   4.834   6.609
11152TIP3   OH233391   2.652   4.429   6.797
11152TIP3    H133392   2.684   4.406   6.708
11152TIP3    H233393   2.696   4.515   6.815
11153TIP3   OH233394   3.177   5.067   6.573
11153TIP3    H133395   3.164   5.147   6.626
11153TIP3    H233396   3.162   4.994   6.637
11154TIP3   OH233397   2.790   4.984   7.122
11154TIP3    H133398   2.729   5.048   7.166
11154TIP3    H233399   2.725   4.932   7.071
11155TIP3   OH233400   3.123   4.319   5.851
11155TIP3    H133401   3.183   4.378   5.902
11155TIP3    H233402   3.150   4.342   5.758
11156TIP3   OH233403   2.546   4.540   7.224
11156TIP3    H133404   2.549   4.629   7.266
11156TIP3    H233405   2.450   4.522   7.230
11157TIP3   OH233406   2.866   4.999   6.129
11157TIP3    H133407   2.947   5.052   6.143
11157TIP3    H233408   2.807   5.063   6.086
11158TIP3   OH233409   2.585   5.153   7.207
11158TIP3    H133410   2.549   5.154   7.116
11158TIP3    H233411   2.506   5.131   7.260
11159TIP3   OH233412   3.640   3.560   5.899
11159TIP3    H133413   3.559   3.581   5.949
11159TIP3    H233414   3.654   3.642   5.849
11160TIP3   OH233415   2.380   4.301   6.251
11160TIP3    H133416   2.316   4.345   6.191
11160TIP3    H233417   2.343   4.213   6.257
11161TIP3   OH233418   3.439   4.926   5.450
11161TIP3    H133419   3.448   5.022   5.432
11161TIP3    H233420   3.531   4.896   5.436
11162TIP3   OH233421   2.163   4.685   7.154
11162TIP3    H133422   2.097   4.663   7.085
11162TIP3    H233423   2.200   4.597   7.177
11163TIP3   OH233424   2.017   4.877   6.788
11163TIP3    H133425   2.113   4.871   6.778
11163TIP3    H233426   2.009   4.957   6.842
11164TIP3   OH233427   3.883   5.329   6.844
11164TIP3    H133428   3.880   5.232   6.854
11164TIP3    H233429   3.799   5.354   6.888
11165TIP3   OH233430   2.989   5.113   6.979
11165TIP3    H133431   2.988   5.206   7.010
11165TIP3    H233432   2.916   5.075   7.032
11166TIP3   OH233433   2.747   5.243   5.930
11166TIP3    H133434   2.704   5.225   5.844
11166TIP3    H233435   2.716   5.333   5.951
11167TIP3   OH233436   2.185   5.093   6.314
11167TIP3    H133437   2.235   5.085   6.398
11167TIP3    H233438   2.130   5.013   6.318
11168TIP3   OH233439   2.949   5.145   5.570
11168TIP3    H133440   3.008   5.075   5.532
11168TIP3    H233441   2.985   5.153   5.660
11169TIP3   OH233442   3.000   5.194   5.840
11169TIP3    H133443   2.912   5.202   5.883
11169TIP3    H233444   3.051   5.152   5.911
11170TIP3   OH233445   3.770   4.457   7.119
11170TIP3    H133446   3.691   4.476   7.066
11170TIP3    H233447   3.784   4.362   7.100
11171TIP3   OH233448   2.368   4.866   7.142
11171TIP3    H133449   2.417   4.852   7.225
11171TIP3    H233450   2.294   4.804   7.150
11172TIP3   OH233451   2.768   3.690   6.926
11172TIP3    H133452   2.679   3.659   6.899
11172TIP3    H233453   2.743   3.774   6.970
11173TIP3   OH233454   3.302   3.808   7.121
11173TIP3    H133455   3.371   3.776   7.183
11173TIP3    H233456   3.219   3.785   7.167
11174TIP3   OH233457   3.546   4.237   7.043
11174TIP3    H133458   3.492   4.234   7.125
11174TIP3    H233459   3.517   4.322   7.003
11175TIP3   OH233460   3.200   4.367   5.595
11175TIP3    H133461   3.167   4.340   5.507
11175TIP3    H233462   3.283   4.412   5.570
11176TIP3   OH233463   2.913   3.740   5.898
11176TIP3    H133464   2.879   3.736   5.990
11176TIP3    H233465   2.875   3.658   5.863
11177TIP3   OH233466   2.699   4.206   6.945
11177TIP3    H133467   2.648   4.228   7.026
11177TIP3    H233468   2.684   4.287   6.891
11178TIP3   OH233469   2.583   4.093   6.460
11178TIP3    H133470   2.490   4.066   6.476
11178TIP3    H233471   2.597   4.053   6.371
11179TIP3   OH233472   3.074   4.179   6.187
11179TIP3    H133473   3.022   4.250   6.144
11179TIP3    H233474   3.129   4.147   6.112
11180TIP3   OH233475   3.249   4.458   7.275
11180TIP3    H133476   3.226   4.384   7.335
11180TIP3    H233477   3.344   4.469   7.294
11181TIP3   OH233478   3.230   4.208   6.426
11181TIP3    H133479   3.171   4.237   6.354
11181TIP3    H233480   3.265   4.127   6.383
11182TIP3   OH233481   2.519   4.237   7.153
11182TIP3    H133482   2.544   4.302   7.221
11182TIP3    H233483   2.507   4.156   7.206
11183TIP3   OH233484   2.569   3.714   5.863
11183TIP3    H133485   2.559   3.711   5.961
11183TIP3    H233486   2.490   3.765   5.837
11184TIP3   OH233487   2.111   3.758   6.736
11184TIP3    H133488   2.188   3.789   6.787
11184TIP3    H233489   2.149   3.726   6.653
11185TIP3   OH233490   2.085   3.738   6.255
11185TIP3    H133491   2.130   3.776   6.176
11185TIP3    H233492   2.024   3.812   6.275
11186TIP3   OH233493   3.244   4.453   6.851
11186TIP3    H133494   3.275   4.381   6.791
11186TIP3    H233495   3.212   4.399   6.926
11187TIP3   OH233496   2.911   3.917   6.521
11187TIP3    H133497   2.829   3.914   6.574
11187TIP3    H233498   2.979   3.913   6.590
11188TIP3   OH233499   2.344   3.970   6.530
11188TIP3    H133500   2.250   3.977   6.502
11188TIP3    H233501   2.368   3.879   6.505
11189TIP3   OH233502   2.614   3.968   6.217
11189TIP3    H133503   2.708   3.982   6.195
11189TIP3    H233504   2.568   3.990   6.132
11190TIP3   OH233505   3.404   3.991   6.727
11190TIP3    H133506   3.363   4.003   6.816
11190TIP3    H233507   3.341   3.930   6.685
11191TIP3   OH233508   2.455   4.002   5.996
11191TIP3    H133509   2.385   3.955   5.946
11191TIP3    H233510   2.507   4.038   5.921
11192TIP3   OH233511   3.573   5.678   6.940
11192TIP3    H133512   3.568   5.702   6.846
11192TIP3    H233513   3.648   5.732   6.971
11193TIP3   OH233514   2.529   4.788   7.363
11193TIP3    H133515   2.609   4.821   7.410
11193TIP3    H233516   2.464   4.791   7.436
11194TIP3   OH233517   2.994   4.243   6.617
11194TIP3    H133518   3.065   4.205   6.564
11194TIP3    H233519   3.006   4.198   6.703
11195TIP3   OH233520   2.518   3.731   6.496
11195TIP3    H133521   2.484   3.651   6.541
11195TIP3    H233522   2.567   3.693   6.421
11196TIP3   OH233523   2.970   4.136   6.912
11196TIP3    H133524   2.881   4.175   6.922
11196TIP3    H233525   3.027   4.200   6.959
11197TIP3   OH233526   2.705   4.532   6.002
11197TIP3    H133527   2.634   4.465   5.992
11197TIP3    H233528   2.688   4.565   6.093
11198TIP3   OH233529   3.607   4.766   6.633
11198TIP3    H133530   3.631   4.816   6.552
11198TIP3    H233531   3.522   4.724   6.607
11199TIP3   OH233532   3.166   3.841   5.868
11199TIP3    H133533   3.069   3.825   5.873
11199TIP3    H233534   3.174   3.937   5.888
11200TIP3   OH233535   3.108   4.849   7.000
11200TIP3    H133536   3.126   4.828   7.092
11200TIP3    H233537   3.068   4.938   7.004
11201TIP3   OH233538   3.235   4.091   5.970
11201TIP3    H133539   3.331   4.096   5.983
11201TIP3    H233540   3.217   4.170   5.914
11202TIP3   OH233541   2.399   4.552   6.679
11202TIP3    H133542   2.436   4.525   6.593
11202TIP3    H233543   2.440   4.489   6.739
11203TIP3   OH233544   2.852   4.680   5.824
11203TIP3    H133545   2.805   4.766   5.829
11203TIP3    H233546   2.798   4.625   5.884
11204TIP3   OH233547   2.279   4.472   7.292
11204TIP3    H133548   2.298   4.458   7.386
11204TIP3    H233549   2.210   4.406   7.275
11205TIP3   OH233550   3.005   4.586   7.312
11205TIP3    H133551   2.945   4.530   7.261
11205TIP3    H233552   3.092   4.552   7.283
11206TIP3   OH233553   3.268   5.106   6.897
11206TIP3    H133554   3.171   5.106   6.907
11206TIP3    H233555   3.294   5.160   6.974
11207TIP3   OH233556   3.677   4.181   5.805
11207TIP3    H133557   3.614   4.136   5.744
11207TIP3    H233558   3.675   4.269   5.763
11208TIP3   OH233559   3.896   5.039   6.885
11208TIP3    H133560   3.798   5.033   6.876
11208TIP3    H233561   3.922   5.008   6.795
11209TIP3   OH233562   3.376   4.999   5.713
11209TIP3    H133563   3.353   4.925   5.771
11209TIP3    H233564   3.391   4.956   5.627
11210TIP3   OH233565   3.373   4.628   6.554
11210TIP3    H133566   3.279   4.603   6.565
11210TIP3    H233567   3.407   4.549   6.507
11211TIP3   OH233568   2.501   4.857   6.305
11211TIP3    H133569   2.502   4.937   6.250
11211TIP3    H233570   2.406   4.840   6.312
11212TIP3   OH233571   2.064   4.161   6.006
11212TIP3    H133572   2.110   4.244   6.027
11212TIP3    H233573   1.987   4.166   6.068
11213TIP3   OH233574   2.638   4.621   6.248
11213TIP3    H133575   2.605   4.711   6.266
11213TIP3    H233576   2.602   4.571   6.323
11214TIP3   OH233577   2.769   5.200   6.772
11214TIP3    H133578   2.809   5.274   6.721
11214TIP3    H233579   2.846   5.166   6.820
11215TIP3   OH233580   2.419   5.096   6.155
11215TIP3    H133581   2.334   5.105   6.202
11215TIP3    H233582   2.452   5.189   6.158
11216TIP3   OH233583   3.158   4.834   6.730
11216TIP3    H133584   3.149   4.831   6.828
11216TIP3    H233585   3.236   4.780   6.716
11217TIP3   OH233586   3.131   4.727   5.615
11217TIP3    H133587   3.185   4.702   5.694
11217TIP3    H233588   3.043   4.699   5.645
11218TIP3   OH233589   3.406   5.368   6.782
11218TIP3    H133590   3.327   5.313   6.772
11218TIP3    H233591   3.392   5.433   6.709
11219TIP3   OH233592   3.471   5.201   5.434
11219TIP3    H133593   3.510   5.271   5.378
11219TIP3    H233594   3.392   5.249   5.466
11220TIP3   OH233595   2.484   3.982   7.297
11220TIP3    H133596   2.387   3.992   7.306
11220TIP3    H233597   2.502   3.914   7.363
11221TIP3   OH233598   3.292   4.665   5.834
11221TIP3    H133599   3.282   4.595   5.903
11221TIP3    H233600   3.389   4.660   5.819
11222TIP3   OH233601   2.207   5.062   6.932
11222TIP3    H133602   2.262   4.990   6.965
11222TIP3    H233603   2.234   5.134   6.989
11223TIP3   OH233604   2.495   4.708   5.614
11223TIP3    H133605   2.514   4.617   5.584
11223TIP3    H233606   2.477   4.694   5.709
11224TIP3   OH233607   2.442   4.712   5.888
11224TIP3    H133608   2.518   4.685   5.942
11224TIP3    H233609   2.448   4.810   5.894
11225TIP3   OH233610   2.179   4.406   6.089
11225TIP3    H133611   2.113   4.451   6.146
11225TIP3    H233612   2.195   4.475   6.022
11226TIP3   OH233613   3.325   4.048   6.987
11226TIP3    H133614   3.411   4.078   7.019
11226TIP3    H233615   3.312   3.964   7.037
11227TIP3   OH233616   3.205   3.795   6.147
11227TIP3    H133617   3.193   3.816   6.052
11227TIP3    H233618   3.245   3.878   6.181
11228TIP3   OH233619   2.709   4.909   5.836
11228TIP3    H133620   2.622   4.938   5.870
11228TIP3    H233621   2.726   4.978   5.770
11229TIP3   OH233622   2.897   3.974   6.248
11229TIP3    H133623   2.962   4.045   6.230
11229TIP3    H233624   2.903   3.967   6.346
11230TIP3   OH233625   3.165   4.292   7.056
11230TIP3    H133626   3.189   4.343   7.135
11230TIP3    H233627   3.221   4.212   7.064
11231TIP3   OH233628   3.042   3.701   6.351
11231TIP3    H133629   3.036   3.779   6.409
11231TIP3    H233630   3.102   3.736   6.281
11232TIP3   OH233631   2.452   4.986   5.901
11232TIP3    H133632   2.423   5.056   5.839
11232TIP3    H233633   2.437   5.029   5.988
11233TIP3   OH233634   2.552   3.699   6.141
11233TIP3    H133635   2.552   3.790   6.176
11233TIP3    H233636   2.648   3.680   6.148
11234TIP3   OH233637   3.812   4.192   7.036
11234TIP3    H133638   3.714   4.192   7.046
11234TIP3    H233639   3.818   4.145   6.951
11235TIP3   OH233640   3.458   4.388   6.426
11235TIP3    H133641   3.383   4.326   6.435
11235TIP3    H233642   3.530   4.339   6.473
11236TIP3   OH233643   2.170   4.617   5.893
11236TIP3    H133644   2.239   4.685   5.904
11236TIP3    H233645   2.216   4.560   5.827
11237TIP3   OH233646   2.114   3.891   6.031
11237TIP3    H133647   2.114   3.989   6.025
11237TIP3    H233648   2.036   3.867   5.980
11238TIP3   OH233649   3.426   5.342   6.375
11238TIP3    H133650   3.383   5.389   6.300
11238TIP3    H233651   3.521   5.361   6.354
11239TIP3   OH233652   2.502   3.611   6.902
11239TIP3    H133653   2.472   3.579   6.815
11239TIP3    H233654   2.492   3.532   6.958
11240TIP3   OH233655   2.043   4.829   6.283
11240TIP3    H133656   1.970   4.861   6.338
11240TIP3    H233657   2.019   4.869   6.196
11241TIP3   OH233658   2.199   5.371   7.352
11241TIP3    H133659   2.284   5.373   7.401
11241TIP3    H233660   2.179   5.276   7.354
11242TIP3   OH233661   2.680   5.334   7.401
11242TIP3    H133662   2.776   5.321   7.403
11242TIP3    H233663   2.654   5.276   7.326
11243TIP3   OH233664   2.661   4.912   5.528
11243TIP3    H133665   2.607   4.838   5.564
11243TIP3    H233666   2.737   4.863   5.491
11244TIP3   OH233667   3.318   5.243   7.132
11244TIP3    H133668   3.311   5.173   7.200
11244TIP3    H233669   3.396   5.294   7.163
11245TIP3   OH233670   3.097   4.953   5.438
11245TIP3    H133671   3.145   4.890   5.495
11245TIP3    H233672   3.150   4.953   5.356
11246TIP3   OH233673   2.329   4.776   7.555
11246TIP3    H133674   2.346   4.679   7.555
11246TIP3    H233675   2.242   4.780   7.510
11247TIP3   OH233676   2.305   4.429   5.748
11247TIP3    H133677   2.361   4.394   5.819
11247TIP3    H233678   2.371   4.433   5.675
11248TIP3   OH233679   2.937   4.862   7.327
11248TIP3    H133680   2.894   4.880   7.241
11248TIP3    H233681   2.966   4.769   7.318
11249TIP3   OH233682   2.811   4.626   5.555
11249TIP3    H133683   2.818   4.638   5.652
11249TIP3    H233684   2.815   4.528   5.550
11250TIP3   OH233685   3.430   4.870   6.936
11250TIP3    H133686   3.504   4.915   6.890
11250TIP3    H233687   3.358   4.934   6.921
11251TIP3   OH233688   2.447   4.512   7.537
11251TIP3    H133689   2.522   4.457   7.513
11251TIP3    H233690   2.473   4.544   7.626
11252TIP3   OH233691   2.514   4.331   5.969
11252TIP3    H133692   2.489   4.286   6.052
11252TIP3    H233693   2.551   4.258   5.916
11253TIP3   OH233694   2.784   4.397   7.199
11253TIP3    H133695   2.705   4.455   7.199
11253TIP3    H233696   2.833   4.431   7.121
11254TIP3   OH233697   2.615   4.126   5.811
11254TIP3    H133698   2.589   4.127   5.716
11254TIP3    H233699   2.712   4.129   5.803
11255TIP3   OH233700   3.302   4.799   7.335
11255TIP3    H133701   3.376   4.771   7.279
11255TIP3    H233702   3.297   4.729   7.401
11256TIP3   OH233703   3.435   4.455   5.473
11256TIP3    H133704   3.418   4.410   5.389
11256TIP3    H233705   3.403   4.545   5.449
11257TIP3   OH233706   2.906   4.184   7.323
11257TIP3    H133707   2.907   4.105   7.265
11257TIP3    H233708   2.863   4.250   7.265
11258TIP3   OH233709   2.908   3.971   7.133
11258TIP3    H133710   2.937   4.012   7.049
11258TIP3    H233711   2.814   3.948   7.112
11259TIP3   OH233712   2.936   4.507   7.006
11259TIP3    H133713   3.019   4.515   6.957
11259TIP3    H233714   2.879   4.573   6.961
11260TIP3   OH233715   3.517   4.476   7.385
11260TIP3    H133716   3.562   4.391   7.397
11260TIP3    H233717   3.585   4.530   7.342
11261TIP3   OH233718   3.560   4.729   7.125
11261TIP3    H133719   3.501   4.780   7.065
11261TIP3    H233720   3.647   4.748   7.084
11262TIP3   OH233721   2.785   4.298   7.553
11262TIP3    H133722   2.715   4.231   7.565
11262TIP3    H233723   2.819   4.274   7.465
11263TIP3   OH233724   3.041   3.735   7.197
11263TIP3    H133725   2.992   3.816   7.173
11263TIP3    H233726   2.974   3.665   7.183
11264TIP3   OH233727   3.167   4.239   7.413
11264TIP3    H133728   3.161   4.226   7.509
11264TIP3    H233729   3.077   4.213   7.385
11265TIP3   OH233730   3.409   4.193   7.272
11265TIP3    H133731   3.331   4.190   7.331
11265TIP3    H233732   3.480   4.155   7.328
11266TIP3   OH233733   3.650   4.130   7.418
11266TIP3    H133734   3.655   4.033   7.437
11266TIP3    H233735   3.637   4.168   7.508
11267TIP3   OH233736   2.622   4.077   7.606
11267TIP3    H133737   2.632   3.983   7.581
11267TIP3    H233738   2.642   4.074   7.701
11268TIP3   OH233739   3.135   3.744   7.454
11268TIP3    H133740   3.203   3.674   7.450
11268TIP3    H233741   3.097   3.737   7.365
11269TIP3   OH233742   3.198   3.961   7.610
11269TIP3    H133743   3.179   3.889   7.546
11269TIP3    H233744   3.120   4.020   7.598
11270TIP3   OH233745   2.422   5.188   5.714
11270TIP3    H133746   2.518   5.182   5.697
11270TIP3    H233747   2.394   5.238   5.635
11271TIP3   OH233748   1.902   4.570   5.930
11271TIP3    H133749   1.996   4.592   5.916
11271TIP3    H233750   1.897   4.480   5.891
11272TIP3   OH233751   1.816   5.182   6.344
11272TIP3    H133752   1.749   5.119   6.309
11272TIP3    H233753   1.861   5.126   6.410
11273TIP3   OH233754   1.952   5.035   6.531
11273TIP3    H133755   1.941   4.961   6.593
11273TIP3    H233756   2.004   5.096   6.586
11274TIP3   OH233757   3.679   5.433   6.331
11274TIP3    H133758   3.707   5.470   6.417
11274TIP3    H233759   3.740   5.477   6.269
11275TIP3   OH233760   3.707   5.455   6.614
11275TIP3    H133761   3.664   5.367   6.607
11275TIP3    H233762   3.785   5.431   6.667
11276TIP3   OH233763   3.757   5.130   7.188
11276TIP3    H133764   3.682   5.139   7.250
11276TIP3    H233765   3.796   5.219   7.190
11277TIP3   OH233766   3.569   4.644   5.807
11277TIP3    H133767   3.637   4.707   5.775
11277TIP3    H233768   3.615   4.605   5.885
11278TIP3   OH233769   3.699   4.512   6.010
11278TIP3    H133770   3.633   4.469   6.069
11278TIP3    H233771   3.763   4.549   6.073
11279TIP3   OH233772   3.754   4.903   6.443
11279TIP3    H133773   3.805   4.837   6.392
11279TIP3    H233774   3.748   4.977   6.380
11280TIP3   OH233775   3.585   5.203   6.639
11280TIP3    H133776   3.513   5.247   6.687
11280TIP3    H233777   3.536   5.156   6.567
11281TIP3   OH233778   3.637   4.419   5.656
11281TIP3    H133779   3.566   4.420   5.588
11281TIP3    H233780   3.608   4.495   5.710
11282TIP3   OH233781   3.506   4.093   5.614
11282TIP3    H133782   3.471   4.131   5.532
11282TIP3    H233783   3.481   3.999   5.604
11283TIP3   OH233784   3.513   4.368   6.156
11283TIP3    H133785   3.521   4.271   6.148
11283TIP3    H233786   3.499   4.380   6.252
11284TIP3   OH233787   2.139   4.439   6.903
11284TIP3    H133788   2.138   4.409   6.810
11284TIP3    H233789   2.236   4.443   6.920
11285TIP3   OH233790   3.801   4.792   7.013
11285TIP3    H133791   3.874   4.727   7.003
11285TIP3    H233792   3.825   4.860   6.948
11286TIP3   OH233793   3.986   4.597   7.034
11286TIP3    H133794   3.911   4.547   7.072
11286TIP3    H233795   4.059   4.533   7.050
11287TIP3   OH233796   3.451   3.827   5.599
11287TIP3    H133797   3.527   3.795   5.652
11287TIP3    H233798   3.379   3.766   5.621
11288TIP3   OH233799   3.510   4.084   6.052
11288TIP3    H133800   3.550   3.995   6.067
11288TIP3    H233801   3.568   4.116   5.980
11289TIP3   OH233802   3.672   4.260   6.546
11289TIP3    H133803   3.758   4.285   6.506
11289TIP3    H233804   3.686   4.295   6.636
11290TIP3   OH233805   3.742   4.403   6.780
11290TIP3    H133806   3.662   4.436   6.825
11290TIP3    H233807   3.773   4.483   6.733
11291TIP3   OH233808   2.355   4.131   7.580
11291TIP3    H133809   2.453   4.124   7.577
11291TIP3    H233810   2.332   4.043   7.616
11292TIP3   OH233811   4.195   3.999   7.342
11292TIP3    H133812   4.251   3.930   7.301
11292TIP3    H233813   4.162   4.046   7.263
11293TIP3   OH233814   3.617   3.834   6.090
11293TIP3    H133815   3.667   3.816   6.173
11293TIP3    H233816   3.557   3.756   6.088
11294TIP3   OH233817   2.318   3.820   6.911
11294TIP3    H133818   2.380   3.744   6.918
11294TIP3    H233819   2.380   3.894   6.902
11295TIP3   OH233820   2.122   4.093   6.983
11295TIP3    H133821   2.170   4.086   6.898
11295TIP3    H233822   2.150   4.181   7.011
11296TIP3   OH233823   4.059   4.132   7.143
11296TIP3    H133824   3.968   4.168   7.144
11296TIP3    H233825   4.044   4.058   7.082
11297TIP3   OH233826   3.700   3.768   5.722
11297TIP3    H133827   3.739   3.696   5.668
11297TIP3    H233828   3.767   3.838   5.714
11298TIP3   OH233829   2.104   3.601   6.486
11298TIP3    H133830   2.010   3.594   6.508
11298TIP3    H233831   2.103   3.657   6.405
11299TIP3   OH233832   3.263   5.301   5.988
11299TIP3    H133833   3.312   5.285   5.905
11299TIP3    H233834   3.319   5.367   6.032
11300TIP3   OH233835   2.327   3.682   7.299
11300TIP3    H133836   2.271   3.672   7.378
11300TIP3    H233837   2.262   3.717   7.235
11301TIP3   OH233838   2.367   5.098   7.373
11301TIP3    H133839   2.273   5.076   7.356
11301TIP3    H233840   2.372   5.092   7.469
11302TIP3   OH233841   2.542   5.136   6.921
11302TIP3    H133842   2.494   5.212   6.882
11302TIP3    H233843   2.628   5.150   6.876
11303TIP3   OH233844   2.988   5.380   7.059
11303TIP3    H133845   3.030   5.384   7.148
11303TIP3    H233846   3.053   5.431   7.006
11304TIP3   OH233847   3.166   5.532   6.918
11304TIP3    H133848   3.237   5.483   6.874
11304TIP3    H233849   3.218   5.590   6.978
11305TIP3   OH233850   3.960   3.892   7.020
11305TIP3    H133851   3.870   3.884   6.984
11305TIP3    H233852   3.994   3.800   7.008
11306TIP3   OH233853   2.219   5.392   6.946
11306TIP3    H133854   2.129   5.425   6.923
11306TIP3    H233855   2.231   5.436   7.031
11307TIP3   OH233856   2.455   5.371   6.802
11307TIP3    H133857   2.368   5.384   6.847
11307TIP3    H233858   2.436   5.405   6.713
11308TIP3   OH233859   2.881   5.400   6.601
11308TIP3    H133860   2.813   5.421   6.534
11308TIP3    H233861   2.894   5.488   6.643
11309TIP3   OH233862   3.150   5.340   6.653
11309TIP3    H133863   3.056   5.357   6.633
11309TIP3    H233864   3.193   5.416   6.609
11310TIP3   OH233865   3.358   5.532   6.567
11310TIP3    H133866   3.343   5.617   6.520
11310TIP3    H233867   3.384   5.473   6.493
11311TIP3   OH233868   2.130   5.187   6.689
11311TIP3    H133869   2.156   5.162   6.780
11311TIP3    H233870   2.202   5.143   6.639
11312TIP3   OH233871   2.324   5.058   6.546
11312TIP3    H133872   2.340   4.975   6.595
11312TIP3    H233873   2.415   5.095   6.541
11313TIP3   OH233874   2.589   5.154   6.549
11313TIP3    H133875   2.622   5.063   6.536
11313TIP3    H233876   2.633   5.175   6.633
11314TIP3   OH233877   3.166   3.810   6.637
11314TIP3    H133878   3.123   3.739   6.688
11314TIP3    H233879   3.238   3.763   6.592
11315TIP3   OH233880   3.688   3.696   6.547
11315TIP3    H133881   3.726   3.742   6.469
11315TIP3    H233882   3.592   3.708   6.533
11316TIP3   OH233883   3.783   3.790   6.308
11316TIP3    H133884   3.856   3.738   6.267
11316TIP3    H233885   3.818   3.881   6.291
11317TIP3   OH233886   2.414   3.519   6.655
11317TIP3    H133887   2.322   3.487   6.655
11317TIP3    H233888   2.463   3.434   6.650
11318TIP3   OH233889   2.202   3.388   6.301
11318TIP3    H133890   2.232   3.444   6.227
11318TIP3    H233891   2.174   3.454   6.367
11319TIP3   OH233892   2.857   3.552   6.534
11319TIP3    H133893   2.915   3.599   6.472
11319TIP3    H233894   2.884   3.590   6.619
11320TIP3   OH233895   3.404   3.698   6.517
11320TIP3    H133896   3.405   3.659   6.428
11320TIP3    H233897   3.392   3.617   6.573
11321TIP3   OH233898   3.435   3.620   6.080
11321TIP3    H133899   3.347   3.661   6.089
11321TIP3    H233900   3.421   3.535   6.126
11322TIP3   OH233901   1.919   4.958   6.081
11322TIP3    H133902   1.834   4.925   6.047
11322TIP3    H233903   1.907   5.053   6.068
11323TIP3   OH233904   2.318   3.547   6.065
11323TIP3    H133905   2.366   3.484   6.007
11323TIP3    H233906   2.392   3.601   6.100
11324TIP3   OH233907   2.830   3.723   6.164
11324TIP3    H133908   2.890   3.675   6.222
11324TIP3    H233909   2.853   3.815   6.188
11325TIP3   OH233910   2.690   5.149   5.663
11325TIP3    H133911   2.778   5.171   5.627
11325TIP3    H233912   2.668   5.073   5.603
11326TIP3   OH233913   3.408   5.266   5.756
11326TIP3    H133914   3.400   5.168   5.743
11326TIP3    H233915   3.365   5.298   5.674
11327TIP3   OH233916   2.648   3.804   7.567
11327TIP3    H133917   2.608   3.727   7.610
11327TIP3    H233918   2.703   3.764   7.498
11328TIP3   OH233919   1.995   4.986   5.719
11328TIP3    H133920   1.997   5.007   5.814
11328TIP3    H233921   2.082   4.943   5.705
11329TIP3   OH233922   3.695   3.858   7.454
11329TIP3    H133923   3.711   3.825   7.546
11329TIP3    H233924   3.784   3.848   7.414
11330TIP3   OH233925   3.635   5.409   6.945
11330TIP3    H133926   3.557   5.378   6.894
11330TIP3    H233927   3.616   5.506   6.946
11331TIP3   OH233928   4.901   4.782   5.711
11331TIP3    H133929   4.872   4.873   5.688
11331TIP3    H233930   4.826   4.732   5.674
11332TIP3   OH233931   4.902   4.784   6.090
11332TIP3    H133932   4.931   4.750   6.176
11332TIP3    H233933   4.860   4.706   6.049
11333TIP3   OH233934   4.200   4.681   6.459
11333TIP3    H133935   4.233   4.611   6.518
11333TIP3    H233936   4.282   4.729   6.439
11334TIP3   OH233937   5.147   5.082   5.772
11334TIP3    H133938   5.128   5.014   5.838
11334TIP3    H233939   5.173   5.158   5.826
11335TIP3   OH233940   4.173   5.088   6.184
11335TIP3    H133941   4.164   4.990   6.185
11335TIP3    H233942   4.269   5.096   6.171
11336TIP3   OH233943   3.877   4.291   5.967
11336TIP3    H133944   3.828   4.374   5.979
11336TIP3    H233945   3.809   4.236   5.926
11337TIP3   OH233946   3.938   4.579   6.138
11337TIP3    H133947   3.987   4.501   6.173
11337TIP3    H233948   3.993   4.604   6.063
11338TIP3   OH233949   4.796   5.550   5.789
11338TIP3    H133950   4.838   5.479   5.736
11338TIP3    H233951   4.786   5.505   5.874
11339TIP3   OH233952   4.699   5.008   6.141
11339TIP3    H133953   4.735   4.933   6.091
11339TIP3    H233954   4.783   5.053   6.164
11340TIP3   OH233955   5.714   4.328   6.137
11340TIP3    H133956   5.742   4.412   6.178
11340TIP3    H233957   5.733   4.346   6.043
11341TIP3   OH233958   5.112   4.510   6.172
11341TIP3    H133959   5.154   4.424   6.190
11341TIP3    H233960   5.080   4.496   6.081
11342TIP3   OH233961   4.450   4.169   6.137
11342TIP3    H133962   4.429   4.241   6.073
11342TIP3    H233963   4.403   4.095   6.092
11343TIP3   OH233964   5.144   4.262   5.760
11343TIP3    H133965   5.217   4.245   5.823
11343TIP3    H233966   5.194   4.296   5.684
11344TIP3   OH233967   4.083   4.370   6.244
11344TIP3    H133968   4.166   4.350   6.290
11344TIP3    H233969   4.095   4.315   6.163
11345TIP3   OH233970   4.523   4.569   6.040
11345TIP3    H133971   4.617   4.543   6.050
11345TIP3    H233972   4.484   4.485   6.005
11346TIP3   OH233973   5.787   4.536   6.306
11346TIP3    H133974   5.704   4.583   6.285
11346TIP3    H233975   5.799   4.562   6.399
11347TIP3   OH233976   4.447   4.155   6.571
11347TIP3    H133977   4.387   4.189   6.503
11347TIP3    H233978   4.394   4.172   6.652
11348TIP3   OH233979   4.791   5.002   5.581
11348TIP3    H133980   4.753   4.984   5.493
11348TIP3    H233981   4.747   5.086   5.604
11349TIP3   OH233982   4.554   4.928   6.367
11349TIP3    H133983   4.491   4.995   6.403
11349TIP3    H233984   4.595   4.977   6.292
11350TIP3   OH233985   5.356   4.262   5.930
11350TIP3    H133986   5.345   4.212   6.011
11350TIP3    H233987   5.408   4.339   5.958
11351TIP3   OH233988   4.318   4.267   6.355
11351TIP3    H133989   4.381   4.339   6.377
11351TIP3    H233990   4.365   4.226   6.279
11352TIP3   OH233991   4.381   5.122   6.466
11352TIP3    H133992   4.355   5.206   6.423
11352TIP3    H233993   4.301   5.107   6.520
11353TIP3   OH233994   3.774   4.811   5.699
11353TIP3    H133995   3.736   4.835   5.613
11353TIP3    H233996   3.805   4.897   5.734
11354TIP3   OH233997   5.217   5.328   5.942
11354TIP3    H133998   5.126   5.319   5.980
11354TIP3    H233999   5.207   5.412   5.893
11355TIP3   OH234000   5.505   4.230   6.303
11355TIP3    H134001   5.417   4.256   6.271
11355TIP3    H234002   5.564   4.261   6.231
11356TIP3   OH234003   4.804   3.869   6.286
11356TIP3    H134004   4.791   3.774   6.304
11356TIP3    H234005   4.725   3.906   6.331
11357TIP3   OH234006   4.916   5.375   5.614
11357TIP3    H134007   4.963   5.291   5.594
11357TIP3    H234008   4.980   5.438   5.573
11358TIP3   OH234009   5.055   5.159   5.522
11358TIP3    H134010   5.027   5.079   5.475
11358TIP3    H234011   5.093   5.121   5.604
11359TIP3   OH234012   5.441   5.241   6.283
11359TIP3    H134013   5.430   5.163   6.224
11359TIP3    H234014   5.423   5.315   6.223
11360TIP3   OH234015   4.734   4.636   5.541
11360TIP3    H134016   4.653   4.687   5.519
11360TIP3    H234017   4.777   4.631   5.454
11361TIP3   OH234018   4.692   4.415   5.261
11361TIP3    H134019   4.760   4.470   5.304
11361TIP3    H234020   4.749   4.353   5.211
11362TIP3   OH234021   5.636   4.878   6.128
11362TIP3    H134022   5.553   4.929   6.133
11362TIP3    H234023   5.666   4.902   6.038
11363TIP3   OH234024   5.080   4.717   5.513
11363TIP3    H134025   5.025   4.741   5.591
11363TIP3    H234026   5.164   4.692   5.557
11364TIP3   OH234027   5.315   4.756   6.423
11364TIP3    H134028   5.311   4.841   6.470
11364TIP3    H234029   5.228   4.758   6.378
11365TIP3   OH234030   4.310   4.715   5.930
11365TIP3    H134031   4.268   4.658   5.863
11365TIP3    H234032   4.387   4.661   5.957
11366TIP3   OH234033   4.439   5.123   6.080
11366TIP3    H134034   4.418   5.088   5.992
11366TIP3    H234035   4.529   5.089   6.095
11367TIP3   OH234036   4.447   4.685   6.286
11367TIP3    H134037   4.478   4.662   6.196
11367TIP3    H234038   4.492   4.771   6.302
11368TIP3   OH234039   4.974   5.324   6.061
11368TIP3    H134040   4.960   5.403   6.115
11368TIP3    H234041   4.959   5.250   6.123
11369TIP3   OH234042   4.586   5.242   6.609
11369TIP3    H134043   4.525   5.305   6.653
11369TIP3    H234044   4.522   5.189   6.557
11370TIP3   OH234045   4.921   4.573   5.339
11370TIP3    H134046   4.979   4.635   5.389
11370TIP3    H234047   4.946   4.596   5.245
11371TIP3   OH234048   4.343   4.796   6.714
11371TIP3    H134049   4.344   4.886   6.753
11371TIP3    H234050   4.247   4.779   6.713
11372TIP3   OH234051   4.661   5.257   5.621
11372TIP3    H134052   4.743   5.310   5.628
11372TIP3    H234053   4.603   5.314   5.569
11373TIP3   OH234054   4.381   5.412   6.694
11373TIP3    H134055   4.347   5.412   6.602
11373TIP3    H234056   4.300   5.389   6.745
11374TIP3   OH234057   5.437   3.815   5.388
11374TIP3    H134058   5.354   3.836   5.436
11374TIP3    H234059   5.451   3.898   5.337
11375TIP3   OH234060   4.175   4.558   5.740
11375TIP3    H134061   4.113   4.604   5.679
11375TIP3    H234062   4.138   4.469   5.742
11376TIP3   OH234063   5.224   5.186   4.936
11376TIP3    H134064   5.214   5.278   4.909
11376TIP3    H234065   5.319   5.167   4.920
11377TIP3   OH234066   3.959   4.942   6.640
11377TIP3    H134067   3.894   4.921   6.570
11377TIP3    H234068   3.996   4.854   6.662
11378TIP3   OH234069   3.813   5.132   6.278
11378TIP3    H134070   3.909   5.127   6.263
11378TIP3    H234071   3.805   5.215   6.327
11379TIP3   OH234072   5.678   5.586   6.329
11379TIP3    H134073   5.676   5.489   6.341
11379TIP3    H234074   5.595   5.610   6.375
11380TIP3   OH234075   4.785   5.370   6.466
11380TIP3    H134076   4.783   5.463   6.497
11380TIP3    H234077   4.712   5.331   6.519
11381TIP3   OH234078   4.544   5.497   5.417
11381TIP3    H134079   4.502   5.477   5.331
11381TIP3    H234080   4.515   5.588   5.435
11382TIP3   OH234081   3.981   5.351   5.800
11382TIP3    H134082   4.029   5.340   5.885
11382TIP3    H234083   3.927   5.270   5.800
11383TIP3   OH234084   4.735   5.393   5.060
11383TIP3    H134085   4.802   5.338   5.014
11383TIP3    H234086   4.783   5.412   5.143
11384TIP3   OH234087   4.798   5.444   5.329
11384TIP3    H134088   4.709   5.456   5.368
11384TIP3    H234089   4.846   5.401   5.401
11385TIP3   OH234090   5.567   4.716   6.604
11385TIP3    H134091   5.487   4.729   6.551
11385TIP3    H234092   5.583   4.620   6.592
11386TIP3   OH234093   4.164   5.125   6.631
11386TIP3    H134094   4.213   5.106   6.713
11386TIP3    H234095   4.089   5.061   6.636
11387TIP3   OH234096   4.564   3.948   6.411
11387TIP3    H134097   4.476   3.915   6.384
11387TIP3    H234098   4.537   4.029   6.458
11388TIP3   OH234099   5.097   4.065   6.608
11388TIP3    H134100   5.164   4.033   6.671
11388TIP3    H234101   5.013   4.042   6.653
11389TIP3   OH234102   5.339   4.493   6.527
11389TIP3    H134103   5.287   4.490   6.611
11389TIP3    H234104   5.313   4.579   6.489
11390TIP3   OH234105   5.000   4.620   5.085
11390TIP3    H134106   4.962   4.596   4.998
11390TIP3    H234107   5.076   4.675   5.057
11391TIP3   OH234108   4.711   3.995   5.385
11391TIP3    H134109   4.674   3.991   5.476
11391TIP3    H234110   4.670   3.914   5.349
11392TIP3   OH234111   4.497   4.463   6.433
11392TIP3    H134112   4.444   4.483   6.512
11392TIP3    H234113   4.481   4.543   6.378
11393TIP3   OH234114   4.380   4.350   5.946
11393TIP3    H134115   4.286   4.324   5.962
11393TIP3    H234116   4.393   4.310   5.857
11394TIP3   OH234117   4.871   4.436   5.674
11394TIP3    H134118   4.818   4.507   5.631
11394TIP3    H234119   4.924   4.404   5.599
11395TIP3   OH234120   5.045   4.715   6.762
11395TIP3    H134121   5.023   4.641   6.823
11395TIP3    H234122   5.140   4.726   6.781
11396TIP3   OH234123   5.027   4.465   5.913
11396TIP3    H134124   4.967   4.495   5.841
11396TIP3    H234125   5.061   4.384   5.870
11397TIP3   OH234126   4.316   4.493   6.640
11397TIP3    H134127   4.342   4.557   6.707
11397TIP3    H234128   4.304   4.411   6.692
11398TIP3   OH234129   4.366   3.970   5.351
11398TIP3    H134130   4.354   3.968   5.447
11398TIP3    H234131   4.288   4.022   5.323
11399TIP3   OH234132   3.907   4.015   6.224
11399TIP3    H134133   3.985   4.045   6.274
11399TIP3    H234134   3.943   3.982   6.140
11400TIP3   OH234135   3.881   3.995   5.743
11400TIP3    H134136   3.925   4.033   5.663
11400TIP3    H234137   3.819   4.068   5.762
11401TIP3   OH234138   5.040   4.709   6.338
11401TIP3    H134139   5.072   4.638   6.278
11401TIP3    H234140   5.008   4.655   6.413
11402TIP3   OH234141   4.708   4.173   6.008
11402TIP3    H134142   4.624   4.169   6.058
11402TIP3    H234143   4.774   4.170   6.079
11403TIP3   OH234144   4.140   4.226   6.017
11403TIP3    H134145   4.046   4.234   5.989
11403TIP3    H234146   4.164   4.136   5.992
11404TIP3   OH234147   4.411   4.226   5.703
11404TIP3    H134148   4.505   4.239   5.679
11404TIP3    H234149   4.363   4.246   5.620
11405TIP3   OH234150   5.199   4.247   6.212
11405TIP3    H134151   5.161   4.259   6.301
11405TIP3    H234152   5.134   4.185   6.173
11406TIP3   OH234153   4.252   4.258   5.484
11406TIP3    H134154   4.182   4.211   5.435
11406TIP3    H234155   4.304   4.294   5.409
11407TIP3   OH234156   5.369   5.936   6.428
11407TIP3    H134157   5.366   5.960   6.333
11407TIP3    H234158   5.447   5.985   6.459
11408TIP3   OH234159   4.325   5.045   6.851
11408TIP3    H134160   4.405   5.077   6.897
11408TIP3    H234161   4.260   5.047   6.924
11409TIP3   OH234162   4.790   4.500   6.105
11409TIP3    H134163   4.861   4.460   6.052
11409TIP3    H234164   4.800   4.454   6.191
11410TIP3   OH234165   4.315   3.987   5.983
11410TIP3    H134166   4.280   3.907   6.029
11410TIP3    H234167   4.362   3.948   5.908
11411TIP3   OH234168   4.767   4.394   6.396
11411TIP3    H134169   4.677   4.430   6.408
11411TIP3    H234170   4.823   4.457   6.445
11412TIP3   OH234171   4.502   4.788   5.491
11412TIP3    H134172   4.431   4.721   5.479
11412TIP3    H234173   4.484   4.821   5.582
11413TIP3   OH234174   5.403   5.023   6.120
11413TIP3    H134175   5.427   5.072   6.039
11413TIP3    H234176   5.318   4.981   6.094
11414TIP3   OH234177   4.962   4.097   5.357
11414TIP3    H134178   4.865   4.080   5.360
11414TIP3    H234179   4.969   4.193   5.374
11415TIP3   OH234180   4.904   5.106   6.486
11415TIP3    H134181   4.924   5.085   6.578
11415TIP3    H234182   4.865   5.195   6.492
11416TIP3   OH234183   5.031   4.348   5.458
11416TIP3    H134184   5.127   4.355   5.469
11416TIP3    H234185   5.010   4.426   5.402
11417TIP3   OH234186   4.196   4.810   6.166
11417TIP3    H134187   4.231   4.784   6.078
11417TIP3    H234188   4.236   4.744   6.224
11418TIP3   OH234189   4.651   4.937   5.316
11418TIP3    H134190   4.603   5.023   5.318
11418TIP3    H234191   4.594   4.882   5.373
11419TIP3   OH234192   4.074   4.730   6.779
11419TIP3    H134193   4.092   4.712   6.874
11419TIP3    H234194   4.005   4.664   6.759
11420TIP3   OH234195   4.801   4.842   6.801
11420TIP3    H134196   4.741   4.787   6.747
11420TIP3    H234197   4.888   4.809   6.771
11421TIP3   OH234198   5.064   5.365   6.383
11421TIP3    H134199   4.968   5.362   6.394
11421TIP3    H234200   5.090   5.418   6.462
11422TIP3   OH234201   5.475   4.437   5.290
11422TIP3    H134202   5.412   4.392   5.228
11422TIP3    H234203   5.470   4.527   5.250
11423TIP3   OH234204   5.691   5.295   6.372
11423TIP3    H134205   5.594   5.289   6.363
11423TIP3    H234206   5.718   5.264   6.282
11424TIP3   OH234207   5.196   5.251   5.209
11424TIP3    H134208   5.146   5.188   5.263
11424TIP3    H234209   5.186   5.215   5.119
11425TIP3   OH234210   5.169   4.884   6.041
11425TIP3    H134211   5.075   4.859   6.052
11425TIP3    H234212   5.203   4.806   5.994
11426TIP3   OH234213   4.297   5.115   5.796
11426TIP3    H134214   4.299   5.193   5.738
11426TIP3    H234215   4.203   5.094   5.794
11427TIP3   OH234216   3.862   4.417   5.494
11427TIP3    H134217   3.907   4.502   5.513
11427TIP3    H234218   3.784   4.423   5.553
11428TIP3   OH234219   4.435   4.879   5.737
11428TIP3    H134220   4.402   4.969   5.754
11428TIP3    H234221   4.396   4.829   5.811
11429TIP3   OH234222   4.565   5.457   6.260
11429TIP3    H134223   4.605   5.529   6.208
11429TIP3    H234224   4.643   5.422   6.306
11430TIP3   OH234225   4.216   5.352   5.644
11430TIP3    H134226   4.130   5.361   5.689
11430TIP3    H234227   4.248   5.445   5.644
11431TIP3   OH234228   4.955   5.091   6.217
11431TIP3    H134229   4.946   5.088   6.315
11431TIP3    H234230   5.032   5.035   6.202
11432TIP3   OH234231   4.930   4.978   5.102
11432TIP3    H134232   4.978   4.954   5.184
11432TIP3    H234233   4.839   4.956   5.127
11433TIP3   OH234234   5.202   5.626   6.269
11433TIP3    H134235   5.123   5.569   6.260
11433TIP3    H234236   5.187   5.690   6.196
11434TIP3   OH234237   4.285   4.239   6.792
11434TIP3    H134238   4.188   4.236   6.794
11434TIP3    H234239   4.309   4.166   6.851
11435TIP3   OH234240   5.088   4.921   5.324
11435TIP3    H134241   5.079   4.851   5.392
11435TIP3    H234242   5.184   4.917   5.306
11436TIP3   OH234243   4.003   5.320   6.419
11436TIP3    H134244   4.056   5.244   6.446
11436TIP3    H234245   4.037   5.389   6.478
11437TIP3   OH234246   4.295   4.964   5.102
11437TIP3    H134247   4.305   4.874   5.067
11437TIP3    H234248   4.273   4.947   5.196
11438TIP3   OH234249   4.238   4.969   5.377
11438TIP3    H134250   4.316   4.944   5.429
11438TIP3    H234251   4.243   5.067   5.379
11439TIP3   OH234252   3.977   4.663   5.576
11439TIP3    H134253   3.910   4.708   5.631
11439TIP3    H234254   3.991   4.731   5.507
11440TIP3   OH234255   5.122   4.304   6.472
11440TIP3    H134256   5.206   4.336   6.506
11440TIP3    H234257   5.108   4.221   6.523
11441TIP3   OH234258   5.005   4.050   5.633
11441TIP3    H134259   4.989   4.071   5.539
11441TIP3    H234260   5.041   4.135   5.667
11442TIP3   OH234261   4.507   5.166   5.325
11442TIP3    H134262   4.419   5.196   5.354
11442TIP3    H234263   4.525   5.230   5.254
11443TIP3   OH234264   4.696   4.229   5.735
11443TIP3    H134265   4.759   4.302   5.717
11443TIP3    H234266   4.700   4.225   5.833
11444TIP3   OH234267   4.961   4.549   6.543
11444TIP3    H134268   4.986   4.600   6.622
11444TIP3    H234269   5.017   4.469   6.552
11445TIP3   OH234270   4.839   3.959   5.839
11445TIP3    H134271   4.828   4.039   5.894
11445TIP3    H234272   4.899   3.993   5.769
11446TIP3   OH234273   4.250   5.243   5.387
11446TIP3    H134274   4.219   5.311   5.324
11446TIP3    H234275   4.234   5.287   5.474
11447TIP3   OH234276   4.348   3.955   5.628
11447TIP3    H134277   4.347   4.047   5.663
11447TIP3    H234278   4.444   3.937   5.634
11448TIP3   OH234279   5.605   4.449   6.523
11448TIP3    H134280   5.507   4.448   6.531
11448TIP3    H234281   5.615   4.407   6.437
11449TIP3   OH234282   5.255   4.644   5.913
11449TIP3    H134283   5.178   4.584   5.922
11449TIP3    H234284   5.326   4.595   5.960
11450TIP3   OH234285   3.966   4.872   5.382
11450TIP3    H134286   4.035   4.941   5.389
11450TIP3    H234287   4.009   4.816   5.314
11451TIP3   OH234288   3.910   4.147   5.519
11451TIP3    H134289   3.911   4.245   5.513
11451TIP3    H234290   3.836   4.124   5.463
11452TIP3   OH234291   5.222   5.601   5.862
11452TIP3    H134292   5.178   5.648   5.788
11452TIP3    H234293   5.315   5.620   5.840
11453TIP3   OH234294   4.298   3.868   6.390
11453TIP3    H134295   4.269   3.833   6.303
11453TIP3    H234296   4.288   3.789   6.447
11454TIP3   OH234297   3.841   5.089   5.771
11454TIP3    H134298   3.764   5.119   5.822
11454TIP3    H234299   3.818   5.126   5.682
11455TIP3   OH234300   3.993   5.625   6.842
11455TIP3    H134301   4.081   5.624   6.886
11455TIP3    H234302   3.972   5.530   6.838
11456TIP3   OH234303   4.476   5.590   6.888
11456TIP3    H134304   4.572   5.573   6.890
11456TIP3    H234305   4.449   5.534   6.813
11457TIP3   OH234306   4.457   5.169   5.016
11457TIP3    H134307   4.403   5.094   5.050
11457TIP3    H234308   4.534   5.121   4.980
11458TIP3   OH234309   5.113   5.501   6.620
11458TIP3    H134310   5.105   5.430   6.688
11458TIP3    H234311   5.192   5.550   6.650
11459TIP3   OH234312   4.884   5.201   4.920
11459TIP3    H134313   4.939   5.152   4.983
11459TIP3    H234314   4.950   5.237   4.858
11460TIP3   OH234315   4.124   5.033   7.042
11460TIP3    H134316   4.140   4.937   7.044
11460TIP3    H234317   4.038   5.038   6.996
11461TIP3   OH234318   4.101   4.687   5.234
11461TIP3    H134319   4.159   4.652   5.304
11461TIP3    H234320   4.164   4.691   5.160
11462TIP3   OH234321   4.730   5.118   6.815
11462TIP3    H134322   4.691   5.136   6.728
11462TIP3    H234323   4.762   5.025   6.806
11463TIP3   OH234324   4.614   4.885   5.044
11463TIP3    H134325   4.616   4.895   5.141
11463TIP3    H234326   4.612   4.787   5.036
11464TIP3   OH234327   5.226   5.127   6.423
11464TIP3    H134328   5.300   5.171   6.376
11464TIP3    H234329   5.155   5.191   6.407
11465TIP3   OH234330   4.243   4.766   7.027
11465TIP3    H134331   4.322   4.725   6.991
11465TIP3    H234332   4.274   4.799   7.114
11466TIP3   OH234333   4.314   4.587   5.459
11466TIP3    H134334   4.285   4.540   5.538
11466TIP3    H234335   4.349   4.514   5.404
11467TIP3   OH234336   4.580   4.654   6.687
11467TIP3    H134337   4.501   4.712   6.686
11467TIP3    H234338   4.630   4.687   6.608
11468TIP3   OH234339   4.411   4.383   5.298
11468TIP3    H134340   4.384   4.386   5.204
11468TIP3    H234341   4.509   4.386   5.289
11469TIP3   OH234342   5.097   5.056   6.820
11469TIP3    H134343   5.173   5.031   6.767
11469TIP3    H234344   5.094   4.985   6.887
11470TIP3   OH234345   5.238   4.713   4.958
11470TIP3    H134346   5.212   4.667   4.876
11470TIP3    H234347   5.203   4.803   4.937
11471TIP3   OH234348   4.701   4.441   6.813
11471TIP3    H134349   4.703   4.362   6.756
11471TIP3    H234350   4.659   4.507   6.753
11472TIP3   OH234351   4.705   4.230   6.621
11472TIP3    H134352   4.733   4.268   6.536
11472TIP3    H234353   4.612   4.205   6.600
11473TIP3   OH234354   4.733   4.765   6.495
11473TIP3    H134355   4.815   4.770   6.444
11473TIP3    H234356   4.676   4.830   6.448
11474TIP3   OH234357   5.316   4.731   6.875
11474TIP3    H134358   5.363   4.646   6.877
11474TIP3    H234359   5.383   4.789   6.836
11475TIP3   OH234360   5.355   4.985   6.611
11475TIP3    H134361   5.298   5.037   6.551
11475TIP3    H234362   5.443   5.003   6.571
11476TIP3   OH234363   4.577   4.553   7.045
11476TIP3    H134364   4.513   4.479   7.050
11476TIP3    H234365   4.614   4.539   6.956
11477TIP3   OH234366   4.838   3.992   6.685
11477TIP3    H134367   4.787   4.073   6.662
11477TIP3    H234368   4.771   3.922   6.672
11478TIP3   OH234369   4.963   4.496   6.900
11478TIP3    H134370   4.950   4.482   6.996
11478TIP3    H234371   4.874   4.470   6.868
11479TIP3   OH234372   5.204   4.450   6.758
11479TIP3    H134373   5.128   4.446   6.818
11479TIP3    H234374   5.277   4.415   6.813
11480TIP3   OH234375   5.433   4.386   6.908
11480TIP3    H134376   5.445   4.290   6.924
11480TIP3    H234377   5.430   4.423   6.999
11481TIP3   OH234378   4.421   4.334   7.098
11481TIP3    H134379   4.422   4.246   7.055
11481TIP3    H234380   4.464   4.312   7.183
11482TIP3   OH234381   4.932   4.001   6.943
11482TIP3    H134382   4.998   3.930   6.936
11482TIP3    H234383   4.892   3.996   6.853
11483TIP3   OH234384   4.998   4.215   7.102
11483TIP3    H134385   4.978   4.143   7.037
11483TIP3    H234386   4.920   4.273   7.092
11484TIP3   OH234387   4.216   5.448   5.204
11484TIP3    H134388   4.312   5.441   5.185
11484TIP3    H234389   4.188   5.494   5.122
11485TIP3   OH234390   3.699   4.824   5.422
11485TIP3    H134391   3.792   4.847   5.404
11485TIP3    H234392   3.692   4.736   5.378
11486TIP3   OH234393   3.610   5.440   5.831
11486TIP3    H134394   3.545   5.377   5.794
11486TIP3    H234395   3.656   5.383   5.896
11487TIP3   OH234396   3.746   5.293   6.018
11487TIP3    H134397   3.737   5.216   6.077
11487TIP3    H234398   3.800   5.352   6.075
11488TIP3   OH234399   5.474   5.695   5.816
11488TIP3    H134400   5.507   5.723   5.904
11488TIP3    H234401   5.542   5.728   5.756
11489TIP3   OH234402   5.506   5.712   6.100
11489TIP3    H134403   5.460   5.625   6.095
11489TIP3    H234404   5.582   5.687   6.154
11490TIP3   OH234405   5.552   5.387   6.674
11490TIP3    H134406   5.478   5.396   6.737
11490TIP3    H234407   5.593   5.476   6.677
11491TIP3   OH234408   5.367   4.898   5.293
11491TIP3    H134409   5.433   4.964   5.264
11491TIP3    H234410   5.412   4.860   5.372
11492TIP3   OH234411   5.497   4.766   5.497
11492TIP3    H134412   5.429   4.725   5.555
11492TIP3    H234413   5.558   4.806   5.561
11493TIP3   OH234414   5.550   5.160   5.930
11493TIP3    H134415   5.601   5.094   5.879
11493TIP3    H234416   5.543   5.234   5.867
11494TIP3   OH234417   5.382   5.461   6.124
11494TIP3    H134418   5.309   5.502   6.175
11494TIP3    H234419   5.333   5.413   6.054
11495TIP3   OH234420   5.434   4.675   5.143
11495TIP3    H134421   5.364   4.677   5.075
11495TIP3    H234422   5.405   4.751   5.198
11496TIP3   OH234423   5.307   4.348   5.097
11496TIP3    H134424   5.260   4.388   5.023
11496TIP3    H234425   5.281   4.254   5.086
11497TIP3   OH234426   5.311   4.624   5.643
11497TIP3    H134427   5.316   4.527   5.636
11497TIP3    H234428   5.296   4.637   5.740
11498TIP3   OH234429   3.935   4.695   6.391
11498TIP3    H134430   3.934   4.665   6.298
11498TIP3    H234431   4.032   4.699   6.407
11499TIP3   OH234432   5.598   5.049   6.501
11499TIP3    H134433   5.671   4.983   6.491
11499TIP3    H234434   5.623   5.117   6.437
11500TIP3   OH234435   5.783   4.854   6.519
11500TIP3    H134436   5.708   4.803   6.557
11500TIP3    H234437   5.856   4.790   6.533
11501TIP3   OH234438   5.248   4.082   5.084
11501TIP3    H134439   5.318   4.048   5.143
11501TIP3    H234440   5.171   4.025   5.104
11502TIP3   OH234441   5.307   4.341   5.540
11502TIP3    H134442   5.347   4.252   5.554
11502TIP3    H234443   5.364   4.372   5.467
11503TIP3   OH234444   5.468   4.514   6.034
11503TIP3    H134445   5.554   4.540   5.993
11503TIP3    H234446   5.481   4.551   6.123
11504TIP3   OH234447   5.537   4.659   6.266
11504TIP3    H134448   5.458   4.692   6.312
11504TIP3    H234449   5.569   4.739   6.219
11505TIP3   OH234450   4.154   4.388   7.085
11505TIP3    H134451   4.249   4.375   7.066
11505TIP3    H234452   4.127   4.297   7.105
11506TIP3   OH234453   5.989   4.250   6.821
11506TIP3    H134454   6.047   4.183   6.779
11506TIP3    H234455   5.959   4.303   6.745
11507TIP3   OH234456   5.415   4.090   5.576
11507TIP3    H134457   5.462   4.073   5.660
11507TIP3    H234458   5.353   4.014   5.573
11508TIP3   OH234459   4.114   4.077   6.401
11508TIP3    H134460   4.175   4.000   6.407
11508TIP3    H234461   4.178   4.150   6.389
11509TIP3   OH234462   3.919   4.351   6.470
11509TIP3    H134463   3.965   4.339   6.385
11509TIP3    H234464   3.948   4.440   6.494
11510TIP3   OH234465   5.858   4.388   6.627
11510TIP3    H134466   5.771   4.429   6.644
11510TIP3    H234467   5.831   4.316   6.568
11511TIP3   OH234468   5.498   4.023   5.212
11511TIP3    H134469   5.535   3.953   5.154
11511TIP3    H234470   5.562   4.096   5.200
11512TIP3   OH234471   3.900   3.859   5.974
11512TIP3    H134472   3.806   3.851   5.994
11512TIP3    H234473   3.899   3.914   5.893
11513TIP3   OH234474   5.070   5.552   5.477
11513TIP3    H134475   5.102   5.536   5.385
11513TIP3    H234476   5.124   5.628   5.501
11514TIP3   OH234477   4.124   3.948   6.791
11514TIP3    H134478   4.067   3.926   6.866
11514TIP3    H234479   4.058   3.972   6.724
11515TIP3   OH234480   4.161   5.360   6.861
11515TIP3    H134481   4.070   5.333   6.841
11515TIP3    H234482   4.167   5.343   6.956
11516TIP3   OH234483   4.339   5.395   6.410
11516TIP3    H134484   4.290   5.469   6.369
11516TIP3    H234485   4.424   5.408   6.364
11517TIP3   OH234486   4.784   5.637   6.547
11517TIP3    H134487   4.827   5.640   6.635
11517TIP3    H234488   4.849   5.688   6.493
11518TIP3   OH234489   4.962   5.789   6.405
11518TIP3    H134490   5.032   5.739   6.361
11518TIP3    H234491   5.015   5.846   6.465
11519TIP3   OH234492   5.757   4.151   6.505
11519TIP3    H134493   5.666   4.145   6.471
11519TIP3    H234494   5.788   4.058   6.493
11520TIP3   OH234495   4.015   5.650   6.431
11520TIP3    H134496   3.926   5.684   6.406
11520TIP3    H234497   4.022   5.687   6.520
11521TIP3   OH234498   4.252   5.629   6.290
11521TIP3    H134499   4.165   5.642   6.333
11521TIP3    H234500   4.233   5.661   6.199
11522TIP3   OH234501   4.677   5.657   6.089
11522TIP3    H134502   4.609   5.675   6.021
11522TIP3    H234503   4.689   5.745   6.129
11523TIP3   OH234504   4.946   5.598   6.141
11523TIP3    H134505   4.852   5.613   6.120
11523TIP3    H234506   4.988   5.671   6.093
11524TIP3   OH234507   5.158   5.791   6.054
11524TIP3    H134508   5.139   5.873   6.004
11524TIP3    H234509   5.181   5.729   5.981
11525TIP3   OH234510   3.926   5.444   6.177
11525TIP3    H134511   3.953   5.418   6.268
11525TIP3    H234512   3.998   5.400   6.126
11526TIP3   OH234513   4.119   5.316   6.034
11526TIP3    H134514   4.137   5.231   6.082
11526TIP3    H234515   4.210   5.352   6.027
11527TIP3   OH234516   4.385   5.412   6.036
11527TIP3    H134517   4.418   5.322   6.018
11527TIP3    H234518   4.430   5.430   6.120
11528TIP3   OH234519   4.964   4.067   6.129
11528TIP3    H134520   4.918   3.997   6.178
11528TIP3    H234521   5.031   4.018   6.079
11529TIP3   OH234522   5.487   3.949   6.031
11529TIP3    H134523   5.522   3.999   5.955
11529TIP3    H234524   5.391   3.963   6.022
11530TIP3   OH234525   5.581   4.046   5.794
11530TIP3    H134526   5.654   3.996   5.751
11530TIP3    H234527   5.612   4.138   5.778
11531TIP3   OH234528   4.211   3.776   6.141
11531TIP3    H134529   4.118   3.743   6.143
11531TIP3    H234530   4.258   3.690   6.134
11532TIP3   OH234531   3.997   3.645   5.786
11532TIP3    H134532   4.028   3.701   5.713
11532TIP3    H234533   3.970   3.711   5.853
11533TIP3   OH234534   4.653   3.809   6.020
11533TIP3    H134535   4.713   3.858   5.962
11533TIP3    H234536   4.677   3.843   6.107
11534TIP3   OH234537   5.206   3.955   6.003
11534TIP3    H134538   5.196   3.919   5.914
11534TIP3    H234539   5.191   3.874   6.059
11535TIP3   OH234540   5.232   3.877   5.567
11535TIP3    H134541   5.145   3.919   5.576
11535TIP3    H234542   5.215   3.791   5.613
11536TIP3   OH234543   3.713   5.216   5.570
11536TIP3    H134544   3.629   5.182   5.535
11536TIP3    H234545   3.703   5.310   5.547
11537TIP3   OH234546   4.114   3.802   5.553
11537TIP3    H134547   4.161   3.740   5.494
11537TIP3    H234548   4.187   3.857   5.587
11538TIP3   OH234549   4.626   3.979   5.650
11538TIP3    H134550   4.685   3.931   5.710
11538TIP3    H234551   4.650   4.071   5.675
11539TIP3   OH234552   4.482   5.405   5.153
11539TIP3    H134553   4.573   5.421   5.119
11539TIP3    H234554   4.458   5.331   5.092
11540TIP3   OH234555   5.193   5.526   5.229
11540TIP3    H134556   5.196   5.427   5.225
11540TIP3    H234557   5.141   5.542   5.146
11541TIP3   OH234558   4.415   4.063   7.043
11541TIP3    H134559   4.384   3.983   7.087
11541TIP3    H234560   4.511   4.059   7.061
11542TIP3   OH234561   4.669   4.060   7.154
11542TIP3    H134562   4.750   4.033   7.108
11542TIP3    H234563   4.658   3.986   7.218
11543TIP3   OH234564   3.794   5.246   5.206
11543TIP3    H134565   3.797   5.265   5.301
11543TIP3    H234566   3.879   5.200   5.191
11544TIP3   OH234567   5.493   4.115   6.938
11544TIP3    H134568   5.513   4.083   7.029
11544TIP3    H234569   5.581   4.109   6.896
11545TIP3   OH234570   5.431   5.667   6.431
11545TIP3    H134571   5.353   5.635   6.381
11545TIP3    H234572   5.412   5.763   6.434
11546TIP3   OH234573   6.698   5.038   5.196
11546TIP3    H134574   6.672   5.131   5.177
11546TIP3    H234575   6.620   4.991   5.164
11547TIP3   OH234576   6.699   5.037   5.575
11547TIP3    H134577   6.729   5.011   5.663
11547TIP3    H234578   6.655   4.957   5.544
11548TIP3   OH234579   5.997   4.936   5.943
11548TIP3    H134580   6.029   4.868   6.005
11548TIP3    H234581   6.076   4.991   5.933
11549TIP3   OH234582   6.940   5.343   5.258
11549TIP3    H134583   6.925   5.276   5.327
11549TIP3    H234584   6.969   5.420   5.310
11550TIP3   OH234585   5.968   5.345   5.670
11550TIP3    H134586   5.960   5.247   5.671
11550TIP3    H234587   6.064   5.354   5.659
11551TIP3   OH234588   5.675   4.548   5.453
11551TIP3    H134589   5.625   4.630   5.467
11551TIP3    H234590   5.605   4.493   5.413
11552TIP3   OH234591   5.735   4.836   5.626
11552TIP3    H134592   5.783   4.758   5.660
11552TIP3    H234593   5.790   4.863   5.552
11553TIP3   OH234594   6.495   5.263   5.626
11553TIP3    H134595   6.533   5.189   5.577
11553TIP3    H234596   6.579   5.307   5.654
11554TIP3   OH234597   7.509   4.585   5.624
11554TIP3    H134598   7.537   4.667   5.668
11554TIP3    H234599   7.529   4.606   5.531
11555TIP3   OH234600   6.908   4.766   5.659
11555TIP3    H134601   6.950   4.681   5.678
11555TIP3    H234602   6.877   4.751   5.567
11556TIP3   OH234603   6.247   4.426   5.623
11556TIP3    H134604   6.225   4.499   5.561
11556TIP3    H234605   6.199   4.352   5.579
11557TIP3   OH234606   6.940   4.517   5.246
11557TIP3    H134607   7.012   4.501   5.311
11557TIP3    H234608   6.992   4.552   5.172
11558TIP3   OH234609   5.879   4.627   5.730
11558TIP3    H134610   5.962   4.607   5.777
11558TIP3    H234611   5.891   4.571   5.650
11559TIP3   OH234612   6.320   4.825   5.523
11559TIP3    H134613   6.414   4.799   5.536
11559TIP3    H234614   6.281   4.741   5.490
11560TIP3   OH234615   7.580   4.790   5.796
11560TIP3    H134616   7.498   4.840   5.776
11560TIP3    H234617   7.603   4.826   5.883
11561TIP3   OH234618   6.243   4.409   6.058
11561TIP3    H134619   6.183   4.446   5.990
11561TIP3    H234620   6.190   4.428   6.139
11562TIP3   OH234621   6.596   5.264   5.063
11562TIP3    H134622   6.544   5.243   4.984
11562TIP3    H234623   6.551   5.345   5.093
11563TIP3   OH234624   6.349   5.185   5.854
11563TIP3    H134625   6.287   5.251   5.891
11563TIP3    H234626   6.390   5.234   5.780
11564TIP3   OH234627   7.151   4.518   5.417
11564TIP3    H134628   7.138   4.473   5.502
11564TIP3    H234629   7.204   4.596   5.444
11565TIP3   OH234630   6.114   4.524   5.842
11565TIP3    H134631   6.176   4.597   5.865
11565TIP3    H234632   6.162   4.484   5.766
11566TIP3   OH234633   6.177   5.378   5.952
11566TIP3    H134634   6.152   5.463   5.910
11566TIP3    H234635   6.097   5.364   6.007
11567TIP3   OH234636   5.573   5.068   5.186
11567TIP3    H134637   5.527   5.094   5.104
11567TIP3    H234638   5.600   5.154   5.223
11568TIP3   OH234639   7.018   5.569   5.421
11568TIP3    H134640   6.932   5.571   5.469
11568TIP3    H234641   7.015   5.658   5.378
11569TIP3   OH234642   7.302   4.482   5.788
11569TIP3    H134643   7.215   4.514   5.759
11569TIP3    H234644   7.361   4.517   5.718
11570TIP3   OH234645   6.600   4.129   5.773
11570TIP3    H134646   6.585   4.034   5.788
11570TIP3    H234647   6.522   4.167   5.818
11571TIP3   OH234648   6.698   5.628   5.077
11571TIP3    H134649   6.760   5.552   5.068
11571TIP3    H234650   6.759   5.702   5.059
11572TIP3   OH234651   6.862   5.413   5.003
11572TIP3    H134652   6.803   5.341   4.980
11572TIP3    H234653   6.897   5.383   5.090
11573TIP3   OH234654   7.236   5.497   5.770
11573TIP3    H134655   7.225   5.420   5.710
11573TIP3    H234656   7.217   5.572   5.710
11574TIP3   OH234657   6.528   4.890   5.027
11574TIP3    H134658   6.447   4.942   5.007
11574TIP3    H234659   6.573   4.889   4.941
11575TIP3   OH234660   6.487   4.676   4.742
11575TIP3    H134661   6.553   4.726   4.793
11575TIP3    H234662   6.545   4.613   4.696
11576TIP3   OH234663   7.432   5.132   5.613
11576TIP3    H134664   7.349   5.185   5.619
11576TIP3    H234665   7.462   5.158   5.524
11577TIP3   OH234666   6.876   4.973   5.000
11577TIP3    H134667   6.821   4.998   5.078
11577TIP3    H234668   6.960   4.949   5.044
11578TIP3   OH234669   7.111   5.013   5.911
11578TIP3    H134670   7.109   5.097   5.960
11578TIP3    H234671   7.025   5.017   5.865
11579TIP3   OH234672   6.108   4.971   5.416
11579TIP3    H134673   6.066   4.914   5.348
11579TIP3    H234674   6.185   4.917   5.444
11580TIP3   OH234675   6.235   5.377   5.567
11580TIP3    H134676   6.217   5.341   5.479
11580TIP3    H234677   6.326   5.346   5.584
11581TIP3   OH234678   6.246   4.942   5.771
11581TIP3    H134679   6.277   4.922   5.680
11581TIP3    H234680   6.288   5.028   5.790
11582TIP3   OH234681   6.789   5.581   5.561
11582TIP3    H134682   6.717   5.645   5.570
11582TIP3    H234683   6.759   5.505   5.616
11583TIP3   OH234684   6.382   5.498   6.096
11583TIP3    H134685   6.322   5.562   6.140
11583TIP3    H234686   6.318   5.446   6.045
11584TIP3   OH234687   6.718   4.830   4.826
11584TIP3    H134688   6.776   4.891   4.878
11584TIP3    H234689   6.744   4.854   4.734
11585TIP3   OH234690   6.138   5.054   6.197
11585TIP3    H134691   6.142   5.142   6.239
11585TIP3    H234692   6.042   5.035   6.204
11586TIP3   OH234693   6.459   5.509   5.107
11586TIP3    H134694   6.543   5.559   5.113
11586TIP3    H234695   6.400   5.574   5.067
11587TIP3   OH234696   6.177   5.668   6.181
11587TIP3    H134697   6.144   5.669   6.089
11587TIP3    H234698   6.096   5.646   6.232
11588TIP3   OH234699   7.232   4.072   4.873
11588TIP3    H134700   7.150   4.093   4.923
11588TIP3    H234701   7.246   4.156   4.824
11589TIP3   OH234702   5.975   4.814   5.220
11589TIP3    H134703   5.909   4.860   5.164
11589TIP3    H234704   5.932   4.728   5.232
11590TIP3   OH234705   7.030   5.437   4.415
11590TIP3    H134706   7.037   5.534   4.407
11590TIP3    H234707   7.124   5.411   4.407
11591TIP3   OH234708   5.755   5.198   6.127
11591TIP3    H134709   5.690   5.177   6.058
11591TIP3    H234710   5.792   5.110   6.150
11592TIP3   OH234711   5.610   5.389   5.764
11592TIP3    H134712   5.705   5.383   5.749
11592TIP3    H234713   5.604   5.470   5.816
11593TIP3   OH234714   7.476   5.843   5.815
11593TIP3    H134715   7.476   5.747   5.831
11593TIP3    H234716   7.393   5.868   5.861
11594TIP3   OH234717   6.583   5.626   5.954
11594TIP3    H134718   6.581   5.719   5.985
11594TIP3    H234719   6.509   5.588   6.005
11595TIP3   OH234720   6.341   5.758   4.902
11595TIP3    H134721   6.294   5.740   4.818
11595TIP3    H234722   6.308   5.847   4.926
11596TIP3   OH234723   5.779   5.607   5.286
11596TIP3    H134724   5.826   5.596   5.372
11596TIP3    H234725   5.719   5.530   5.288
11597TIP3   OH234726   6.543   5.659   4.543
11597TIP3    H134727   6.602   5.589   4.508
11597TIP3    H234728   6.575   5.669   4.635
11598TIP3   OH234729   6.593   5.704   4.814
11598TIP3    H134730   6.504   5.716   4.854
11598TIP3    H234731   6.643   5.673   4.892
11599TIP3   OH234732   7.364   4.972   6.092
11599TIP3    H134733   7.284   4.986   6.039
11599TIP3    H234734   7.379   4.876   6.080
11600TIP3   OH234735   5.960   5.381   6.117
11600TIP3    H134736   6.010   5.363   6.199
11600TIP3    H234737   5.886   5.318   6.124
11601TIP3   OH234738   6.361   4.204   5.900
11601TIP3    H134739   6.271   4.173   5.873
11601TIP3    H234740   6.336   4.287   5.945
11602TIP3   OH234741   6.894   4.319   6.095
11602TIP3    H134742   6.961   4.292   6.160
11602TIP3    H234743   6.809   4.300   6.141
11603TIP3   OH234744   7.132   4.748   6.012
11603TIP3    H134745   7.083   4.746   6.097
11603TIP3    H234746   7.109   4.836   5.976
11604TIP3   OH234747   6.791   4.876   4.569
11604TIP3    H134748   6.761   4.852   4.479
11604TIP3    H234749   6.870   4.930   4.548
11605TIP3   OH234750   6.507   4.252   4.872
11605TIP3    H134751   6.472   4.250   4.963
11605TIP3    H234752   6.466   4.171   4.837
11606TIP3   OH234753   6.292   4.719   5.919
11606TIP3    H134754   6.241   4.741   6.000
11606TIP3    H234755   6.277   4.800   5.865
11607TIP3   OH234756   6.176   4.605   5.433
11607TIP3    H134757   6.083   4.580   5.450
11607TIP3    H234758   6.188   4.565   5.344
11608TIP3   OH234759   6.667   4.692   5.160
11608TIP3    H134760   6.613   4.763   5.119
11608TIP3    H234761   6.720   4.661   5.085
11609TIP3   OH234762   6.841   4.970   6.247
11609TIP3    H134763   6.820   4.897   6.309
11609TIP3    H234764   6.935   4.984   6.268
11610TIP3   OH234765   6.823   4.720   5.400
11610TIP3    H134766   6.764   4.752   5.329
11610TIP3    H234767   6.855   4.639   5.357
11611TIP3   OH234768   6.112   4.749   6.127
11611TIP3    H134769   6.137   4.814   6.195
11611TIP3    H234770   6.100   4.668   6.179
11612TIP3   OH234771   6.163   4.227   4.837
11612TIP3    H134772   6.151   4.224   4.934
11612TIP3    H234773   6.083   4.278   4.811
11613TIP3   OH234774   5.703   4.271   5.710
11613TIP3    H134775   5.780   4.302   5.761
11613TIP3    H234776   5.741   4.240   5.626
11614TIP3   OH234777   5.679   4.254   5.228
11614TIP3    H134778   5.722   4.292   5.149
11614TIP3    H234779   5.616   4.325   5.249
11615TIP3   OH234780   6.832   4.966   5.823
11615TIP3    H134781   6.866   4.895   5.764
11615TIP3    H234782   6.803   4.912   5.900
11616TIP3   OH234783   6.502   4.426   5.494
11616TIP3    H134784   6.419   4.426   5.545
11616TIP3    H234785   6.569   4.430   5.564
11617TIP3   OH234786   5.936   4.484   5.503
11617TIP3    H134787   5.842   4.493   5.475
11617TIP3    H234788   5.958   4.392   5.478
11618TIP3   OH234789   6.207   4.480   5.190
11618TIP3    H134790   6.300   4.497   5.166
11618TIP3    H234791   6.158   4.502   5.108
11619TIP3   OH234792   6.994   4.503   5.695
11619TIP3    H134793   6.961   4.516   5.786
11619TIP3    H234794   6.926   4.442   5.659
11620TIP3   OH234795   6.049   4.513   4.971
11620TIP3    H134796   5.976   4.468   4.926
11620TIP3    H234797   6.099   4.548   4.895
11621TIP3   OH234798   7.163   6.191   5.913
11621TIP3    H134799   7.162   6.215   5.819
11621TIP3    H234800   7.238   6.243   5.947
11622TIP3   OH234801   6.121   5.302   6.337
11622TIP3    H134802   6.201   5.333   6.383
11622TIP3    H234803   6.057   5.302   6.410
11623TIP3   OH234804   6.586   4.755   5.591
11623TIP3    H134805   6.660   4.718   5.541
11623TIP3    H234806   6.596   4.713   5.678
11624TIP3   OH234807   6.112   4.243   5.470
11624TIP3    H134808   6.075   4.165   5.516
11624TIP3    H234809   6.156   4.204   5.394
11625TIP3   OH234810   6.563   4.651   5.884
11625TIP3    H134811   6.473   4.688   5.896
11625TIP3    H234812   6.620   4.714   5.932
11626TIP3   OH234813   6.301   5.043   4.977
11626TIP3    H134814   6.228   4.978   4.965
11626TIP3    H234815   6.282   5.078   5.068
11627TIP3   OH234816   7.200   5.278   5.606
11627TIP3    H134817   7.224   5.330   5.526
11627TIP3    H234818   7.114   5.238   5.581
11628TIP3   OH234819   6.757   4.357   4.835
11628TIP3    H134820   6.661   4.339   4.846
11628TIP3    H234821   6.766   4.451   4.862
11629TIP3   OH234822   6.697   5.361   5.976
11629TIP3    H134823   6.722   5.344   6.068
11629TIP3    H234824   6.661   5.451   5.979
11630TIP3   OH234825   6.827   4.602   4.942
11630TIP3    H134826   6.923   4.610   4.958
11630TIP3    H234827   6.808   4.683   4.891
11631TIP3   OH234828   5.992   5.066   5.653
11631TIP3    H134829   6.029   5.038   5.566
11631TIP3    H234830   6.031   5.001   5.713
11632TIP3   OH234831   6.442   5.193   4.794
11632TIP3    H134832   6.396   5.279   4.800
11632TIP3    H234833   6.389   5.138   4.857
11633TIP3   OH234834   5.871   4.986   6.266
11633TIP3    H134835   5.890   4.971   6.360
11633TIP3    H234836   5.802   4.920   6.248
11634TIP3   OH234837   6.597   5.099   6.286
11634TIP3    H134838   6.538   5.042   6.235
11634TIP3    H234839   6.685   5.066   6.257
11635TIP3   OH234840   6.861   5.620   5.875
11635TIP3    H134841   6.765   5.618   5.885
11635TIP3    H234842   6.887   5.675   5.952
11636TIP3   OH234843   7.270   4.693   4.778
11636TIP3    H134844   7.207   4.649   4.716
11636TIP3    H234845   7.266   4.782   4.738
11637TIP3   OH234846   7.486   5.550   5.858
11637TIP3    H134847   7.388   5.545   5.849
11637TIP3    H234848   7.512   5.520   5.768
11638TIP3   OH234849   6.971   5.513   4.685
11638TIP3    H134850   6.941   5.450   4.753
11638TIP3    H234851   6.979   5.458   4.606
11639TIP3   OH234852   6.965   5.141   5.526
11639TIP3    H134853   6.872   5.116   5.538
11639TIP3    H234854   6.999   5.062   5.480
11640TIP3   OH234855   6.092   5.369   5.276
11640TIP3    H134856   6.094   5.451   5.223
11640TIP3    H234857   5.998   5.354   5.285
11641TIP3   OH234858   5.657   4.673   4.981
11641TIP3    H134859   5.700   4.759   5.000
11641TIP3    H234860   5.578   4.678   5.040
11642TIP3   OH234861   6.232   5.135   5.221
11642TIP3    H134862   6.197   5.225   5.238
11642TIP3    H234863   6.194   5.085   5.296
11643TIP3   OH234864   6.356   5.709   5.749
11643TIP3    H134865   6.385   5.791   5.702
11643TIP3    H234866   6.439   5.682   5.791
11644TIP3   OH234867   6.013   5.609   5.130
11644TIP3    H134868   5.926   5.617   5.174
11644TIP3    H234869   6.043   5.702   5.133
11645TIP3   OH234870   6.745   5.342   5.707
11645TIP3    H134871   6.738   5.341   5.805
11645TIP3    H234872   6.830   5.298   5.692
11646TIP3   OH234873   6.727   5.236   4.584
11646TIP3    H134874   6.779   5.211   4.664
11646TIP3    H234875   6.637   5.215   4.614
11647TIP3   OH234876   6.997   5.885   5.755
11647TIP3    H134877   6.924   5.823   5.742
11647TIP3    H234878   6.988   5.947   5.680
11648TIP3   OH234879   7.063   5.714   4.407
11648TIP3    H134880   7.102   5.788   4.357
11648TIP3    H234881   6.984   5.759   4.442
11649TIP3   OH234882   6.083   4.492   6.274
11649TIP3    H134883   5.986   4.495   6.285
11649TIP3    H234884   6.109   4.430   6.344
11650TIP3   OH234885   6.885   5.165   4.797
11650TIP3    H134886   6.874   5.107   4.874
11650TIP3    H234887   6.982   5.170   4.792
11651TIP3   OH234888   5.798   5.578   5.907
11651TIP3    H134889   5.851   5.500   5.932
11651TIP3    H234890   5.835   5.645   5.965
11652TIP3   OH234891   6.092   5.219   4.585
11652TIP3    H134892   6.105   5.126   4.560
11652TIP3    H234893   6.073   5.211   4.681
11653TIP3   OH234894   6.040   5.226   4.856
11653TIP3    H134895   6.106   5.200   4.921
11653TIP3    H234896   6.040   5.324   4.864
11654TIP3   OH234897   5.773   4.921   5.063
11654TIP3    H134898   5.706   4.964   5.119
11654TIP3    H234899   5.784   4.990   4.995
11655TIP3   OH234900   6.921   4.555   5.953
11655TIP3    H134901   7.001   4.595   5.993
11655TIP3    H234902   6.907   4.475   6.008
11656TIP3   OH234903   6.803   4.306   5.119
11656TIP3    H134904   6.787   4.331   5.026
11656TIP3    H234905   6.840   4.389   5.156
11657TIP3   OH234906   6.302   5.424   4.806
11657TIP3    H134907   6.215   5.448   4.844
11657TIP3    H234908   6.318   5.502   4.751
11658TIP3   OH234909   6.492   4.486   5.222
11658TIP3    H134910   6.555   4.559   5.205
11658TIP3    H234911   6.495   4.479   5.319
11659TIP3   OH234912   6.759   4.805   6.030
11659TIP3    H134913   6.779   4.860   6.109
11659TIP3    H234914   6.815   4.727   6.044
11660TIP3   OH234915   6.635   4.214   5.325
11660TIP3    H134916   6.624   4.292   5.383
11660TIP3    H234917   6.695   4.250   5.256
11661TIP3   OH234918   6.046   5.498   4.876
11661TIP3    H134919   6.015   5.566   4.813
11661TIP3    H234920   6.029   5.542   4.962
11662TIP3   OH234921   6.146   4.212   5.115
11662TIP3    H134922   6.143   4.303   5.149
11662TIP3    H234923   6.242   4.195   5.122
11663TIP3   OH234924   7.399   4.705   6.014
11663TIP3    H134925   7.301   4.702   6.017
11663TIP3    H234926   7.415   4.672   5.924
11664TIP3   OH234927   7.051   4.900   5.398
11664TIP3    H134928   6.975   4.840   5.411
11664TIP3    H234929   7.123   4.853   5.446
11665TIP3   OH234930   5.763   5.128   4.870
11665TIP3    H134931   5.824   5.204   4.876
11665TIP3    H234932   5.810   5.076   4.801
11666TIP3   OH234933   5.708   4.404   5.001
11666TIP3    H134934   5.705   4.502   4.998
11666TIP3    H234935   5.625   4.380   4.958
11667TIP3   OH234936   7.031   5.828   5.341
11667TIP3    H134937   6.969   5.882   5.289
11667TIP3    H234938   7.116   5.870   5.316
11668TIP3   OH234939   6.096   4.125   5.875
11668TIP3    H134940   6.064   4.091   5.788
11668TIP3    H234941   6.085   4.046   5.932
11669TIP3   OH234942   5.633   5.344   5.254
11669TIP3    H134943   5.559   5.373   5.309
11669TIP3    H234944   5.609   5.385   5.168
11670TIP3   OH234945   5.790   5.883   6.328
11670TIP3    H134946   5.877   5.882   6.373
11670TIP3    H234947   5.769   5.788   6.325
11671TIP3   OH234948   6.272   5.847   6.375
11671TIP3    H134949   6.367   5.831   6.377
11671TIP3    H234950   6.246   5.791   6.299
11672TIP3   OH234951   6.253   5.424   4.497
11672TIP3    H134952   6.193   5.357   4.538
11672TIP3    H234953   6.329   5.367   4.476
11673TIP3   OH234954   6.909   5.758   6.109
11673TIP3    H134955   6.903   5.686   6.177
11673TIP3    H234956   6.991   5.805   6.136
11674TIP3   OH234957   6.689   5.465   4.412
11674TIP3    H134958   6.733   5.402   4.472
11674TIP3    H234959   6.748   5.466   4.334
11675TIP3   OH234960   5.921   5.290   6.529
11675TIP3    H134961   5.938   5.194   6.531
11675TIP3    H234962   5.834   5.293   6.483
11676TIP3   OH234963   5.900   4.943   4.719
11676TIP3    H134964   5.953   4.910   4.793
11676TIP3    H234965   5.968   4.947   4.649
11677TIP3   OH234966   6.527   5.375   6.302
11677TIP3    H134967   6.487   5.394   6.215
11677TIP3    H234968   6.558   5.282   6.292
11678TIP3   OH234969   6.410   5.142   4.526
11678TIP3    H134970   6.410   5.155   4.623
11678TIP3    H234971   6.407   5.044   4.521
11679TIP3   OH234972   7.021   5.383   5.907
11679TIP3    H134973   7.097   5.427   5.863
11679TIP3    H234974   6.952   5.451   5.894
11680TIP3   OH234975   6.039   5.025   6.510
11680TIP3    H134976   6.115   4.971   6.485
11680TIP3    H234977   6.067   5.058   6.598
11681TIP3   OH234978   6.110   4.845   4.944
11681TIP3    H134979   6.078   4.805   5.027
11681TIP3    H234980   6.143   4.767   4.895
11682TIP3   OH234981   6.376   4.910   6.172
11682TIP3    H134982   6.298   4.969   6.172
11682TIP3    H234983   6.426   4.944   6.093
11683TIP3   OH234984   6.206   4.638   4.783
11683TIP3    H134985   6.180   4.642   4.689
11683TIP3    H234986   6.304   4.643   4.775
11684TIP3   OH234987   6.892   5.311   6.306
11684TIP3    H134988   6.971   5.289   6.256
11684TIP3    H234989   6.891   5.243   6.375
11685TIP3   OH234990   7.029   4.970   4.442
11685TIP3    H134991   7.005   4.922   4.361
11685TIP3    H234992   6.995   5.060   4.420
11686TIP3   OH234993   6.499   4.698   6.297
11686TIP3    H134994   6.499   4.618   6.241
11686TIP3    H234995   6.455   4.764   6.239
11687TIP3   OH234996   6.501   4.483   6.105
11687TIP3    H134997   6.529   4.526   6.022
11687TIP3    H234998   6.408   4.461   6.086
11688TIP3   OH234999   6.529   5.020   5.978
11688TIP3    H135000   6.612   5.030   5.931
11688TIP3    H235001   6.472   5.086   5.934
11689TIP3   OH235002   7.112   4.987   6.360
11689TIP3    H135003   7.162   4.904   6.366
11689TIP3    H235004   7.178   5.048   6.324
11690TIP3   OH235005   7.151   5.240   6.095
11690TIP3    H135006   7.094   5.293   6.036
11690TIP3    H235007   7.239   5.260   6.056
11691TIP3   OH235008   6.377   4.809   6.530
11691TIP3    H135009   6.309   4.741   6.542
11691TIP3    H235010   6.411   4.787   6.441
11692TIP3   OH235011   6.633   4.247   6.171
11692TIP3    H135012   6.584   4.329   6.148
11692TIP3    H235013   6.564   4.179   6.159
11693TIP3   OH235014   6.760   4.752   6.388
11693TIP3    H135015   6.747   4.739   6.483
11693TIP3    H235016   6.670   4.727   6.356
11694TIP3   OH235017   6.999   4.701   6.242
11694TIP3    H135018   6.923   4.703   6.304
11694TIP3    H235019   7.072   4.671   6.299
11695TIP3   OH235020   7.226   4.642   6.394
11695TIP3    H135021   7.239   4.546   6.412
11695TIP3    H235022   7.223   4.680   6.484
11696TIP3   OH235023   6.216   4.590   6.580
11696TIP3    H135024   6.221   4.499   6.544
11696TIP3    H235025   6.252   4.576   6.670
11697TIP3   OH235026   6.728   4.257   6.429
11697TIP3    H135027   6.795   4.186   6.422
11697TIP3    H235028   6.688   4.252   6.340
11698TIP3   OH235029   6.794   4.472   6.588
11698TIP3    H135030   6.772   4.401   6.524
11698TIP3    H235031   6.716   4.531   6.581
11699TIP3   OH235032   6.014   5.699   4.688
11699TIP3    H135033   6.109   5.698   4.667
11699TIP3    H235034   5.981   5.749   4.611
11700TIP3   OH235035   5.493   5.086   4.903
11700TIP3    H135036   5.589   5.105   4.890
11700TIP3    H235037   5.486   4.997   4.863
11701TIP3   OH235038   5.400   5.695   5.317
11701TIP3    H135039   5.335   5.635   5.274
11701TIP3    H235040   5.445   5.634   5.378
11702TIP3   OH235041   5.544   5.547   5.502
11702TIP3    H135042   5.531   5.473   5.562
11702TIP3    H235043   5.596   5.607   5.559
11703TIP3   OH235044   7.279   5.944   5.302
11703TIP3    H135045   7.292   5.978   5.392
11703TIP3    H235046   7.331   6.006   5.249
11704TIP3   OH235047   7.309   5.967   5.584
11704TIP3    H135048   7.258   5.883   5.577
11704TIP3    H235049   7.376   5.940   5.649
11705TIP3   OH235050   7.349   5.645   6.161
11705TIP3    H135051   7.274   5.654   6.223
11705TIP3    H235052   7.390   5.734   6.166
11706TIP3   OH235053   7.165   5.156   4.779
11706TIP3    H135054   7.233   5.221   4.752
11706TIP3    H235055   7.207   5.118   4.859
11707TIP3   OH235056   7.291   5.023   4.983
11707TIP3    H135057   7.225   4.982   5.043
11707TIP3    H235058   7.356   5.062   5.045
11708TIP3   OH235059   7.347   5.416   5.418
11708TIP3    H135060   7.398   5.352   5.365
11708TIP3    H235061   7.334   5.490   5.355
11709TIP3   OH235062   7.178   5.716   5.610
11709TIP3    H135063   7.106   5.762   5.657
11709TIP3    H235064   7.130   5.672   5.537
11710TIP3   OH235065   7.230   4.931   4.629
11710TIP3    H135066   7.158   4.935   4.563
11710TIP3    H235067   7.204   5.007   4.686
11711TIP3   OH235068   7.102   4.604   4.583
11711TIP3    H135069   7.056   4.642   4.508
11711TIP3    H235070   7.077   4.510   4.575
11712TIP3   OH235071   7.106   4.881   5.130
11712TIP3    H135072   7.113   4.784   5.125
11712TIP3    H235073   7.092   4.896   5.226
11713TIP3   OH235074   5.732   4.952   5.878
11713TIP3    H135075   5.730   4.922   5.785
11713TIP3    H235076   5.829   4.955   5.894
11714TIP3   OH235077   7.394   5.305   5.987
11714TIP3    H135078   7.467   5.240   5.978
11714TIP3    H235079   7.420   5.375   5.925
11715TIP3   OH235080   7.579   5.111   6.005
11715TIP3    H135081   7.505   5.059   6.044
11715TIP3    H235082   7.653   5.047   6.016
11716TIP3   OH235083   7.044   4.338   4.568
11716TIP3    H135084   7.118   4.308   4.625
11716TIP3    H235085   6.970   4.281   4.594
11717TIP3   OH235086   7.101   4.596   5.025
11717TIP3    H135087   7.142   4.507   5.040
11717TIP3    H235088   7.160   4.629   4.956
11718TIP3   OH235089   7.263   4.770   5.520
11718TIP3    H135090   7.349   4.796   5.479
11718TIP3    H235091   7.276   4.808   5.609
11719TIP3   OH235092   7.332   4.915   5.752
11719TIP3    H135093   7.254   4.949   5.799
11719TIP3    H235094   7.364   4.995   5.706
11720TIP3   OH235095   5.949   4.641   6.554
11720TIP3    H135096   6.046   4.634   6.553
11720TIP3    H235097   5.925   4.555   6.593
11721TIP3   OH235098   7.782   4.504   6.309
11721TIP3    H135099   7.843   4.439   6.266
11721TIP3    H235100   7.755   4.559   6.233
11722TIP3   OH235101   7.211   4.346   5.062
11722TIP3    H135102   7.259   4.331   5.146
11722TIP3    H235103   7.150   4.270   5.061
11723TIP3   OH235104   5.911   4.333   5.883
11723TIP3    H135105   5.974   4.258   5.892
11723TIP3    H235106   5.973   4.408   5.876
11724TIP3   OH235107   5.715   4.606   5.957
11724TIP3    H135108   5.762   4.599   5.871
11724TIP3    H235109   5.741   4.695   5.985
11725TIP3   OH235110   7.654   4.645   6.116
11725TIP3    H135111   7.568   4.687   6.134
11725TIP3    H235112   7.625   4.574   6.055
11726TIP3   OH235113   7.292   4.282   4.695
11726TIP3    H135114   7.333   4.210   4.643
11726TIP3    H235115   7.359   4.352   4.690
11727TIP3   OH235116   5.697   4.114   5.459
11727TIP3    H135117   5.602   4.107   5.481
11727TIP3    H235118   5.695   4.170   5.378
11728TIP3   OH235119   6.851   5.820   4.962
11728TIP3    H135120   6.909   5.806   4.885
11728TIP3    H235121   6.905   5.877   5.019
11729TIP3   OH235122   5.918   4.191   6.271
11729TIP3    H135123   5.865   4.184   6.352
11729TIP3    H235124   5.852   4.229   6.210
11730TIP3   OH235125   5.957   5.618   6.348
11730TIP3    H135126   5.865   5.590   6.329
11730TIP3    H235127   5.964   5.599   6.442
11731TIP3   OH235128   6.133   5.650   5.897
11731TIP3    H135129   6.088   5.726   5.855
11731TIP3    H235130   6.220   5.661   5.851
11732TIP3   OH235131   6.581   5.893   6.034
11732TIP3    H135132   6.624   5.897   6.122
11732TIP3    H235133   6.646   5.943   5.980
11733TIP3   OH235134   6.764   6.038   5.891
11733TIP3    H135135   6.840   5.998   5.846
11733TIP3    H235136   6.809   6.101   5.951
11734TIP3   OH235137   7.554   4.409   5.992
11734TIP3    H135138   7.463   4.405   5.957
11734TIP3    H235139   7.583   4.316   5.979
11735TIP3   OH235140   5.809   5.908   5.917
11735TIP3    H135141   5.721   5.945   5.895
11735TIP3    H235142   5.820   5.941   6.007
11736TIP3   OH235143   6.046   5.881   5.775
11736TIP3    H135144   5.960   5.897   5.819
11736TIP3    H235145   6.029   5.915   5.685
11737TIP3   OH235146   6.447   5.915   5.597
11737TIP3    H135147   6.415   5.927   5.506
11737TIP3    H235148   6.538   5.948   5.584
11738TIP3   OH235149   6.977   6.055   5.544
11738TIP3    H135150   6.932   6.135   5.510
11738TIP3    H235151   6.929   5.989   5.490
11739TIP3   OH235152   5.721   5.701   5.665
11739TIP3    H135153   5.751   5.676   5.755
11739TIP3    H235154   5.793   5.658   5.612
11740TIP3   OH235155   5.915   5.572   5.522
11740TIP3    H135156   5.932   5.488   5.570
11740TIP3    H235157   6.005   5.610   5.516
11741TIP3   OH235158   6.180   5.667   5.525
11741TIP3    H135159   6.214   5.577   5.511
11741TIP3    H235160   6.228   5.690   5.607
11742TIP3   OH235161   6.760   4.324   5.612
11742TIP3    H135162   6.715   4.255   5.663
11742TIP3    H235163   6.831   4.274   5.567
11743TIP3   OH235164   7.282   4.200   5.515
11743TIP3    H135165   7.319   4.254   5.441
11743TIP3    H235166   7.187   4.221   5.510
11744TIP3   OH235167   7.377   4.303   5.279
11744TIP3    H135168   7.451   4.253   5.238
11744TIP3    H235169   7.409   4.395   5.265
11745TIP3   OH235170   6.007   4.033   5.627
11745TIP3    H135171   5.915   4.001   5.628
11745TIP3    H235172   6.055   3.947   5.622
11746TIP3   OH235173   5.800   3.901   5.276
11746TIP3    H135174   5.824   3.958   5.201
11746TIP3    H235175   5.765   3.965   5.340
11747TIP3   OH235176   6.452   4.061   5.507
11747TIP3    H135177   6.509   4.114   5.448
11747TIP3    H235178   6.468   4.104   5.592
11748TIP3   OH235179   6.999   4.211   5.491
11748TIP3    H135180   6.994   4.175   5.402
11748TIP3    H235181   6.985   4.130   5.546
11749TIP3   OH235182   7.027   4.133   5.053
11749TIP3    H135183   6.941   4.177   5.066
11749TIP3    H235184   7.011   4.048   5.099
11750TIP3   OH235185   5.510   5.476   5.053
11750TIP3    H135186   5.422   5.441   5.032
11750TIP3    H235187   5.502   5.567   5.018
11751TIP3   OH235188   5.910   4.059   5.039
11751TIP3    H135189   5.958   3.998   4.981
11751TIP3    H235190   5.983   4.114   5.075
11752TIP3   OH235191   6.424   4.236   5.136
11752TIP3    H135192   6.483   4.189   5.198
11752TIP3    H235193   6.445   4.328   5.162
11753TIP3   OH235194   6.283   5.660   4.637
11753TIP3    H135195   6.371   5.684   4.600
11753TIP3    H235196   6.260   5.587   4.576
11754TIP3   OH235197   7.004   5.780   4.730
11754TIP3    H135198   6.995   5.683   4.718
11754TIP3    H235199   6.956   5.812   4.651
11755TIP3   OH235200   6.214   4.314   6.519
11755TIP3    H135201   6.180   4.242   6.575
11755TIP3    H235202   6.309   4.314   6.546
11756TIP3   OH235203   6.464   4.311   6.638
11756TIP3    H135204   6.548   4.285   6.597
11756TIP3    H235205   6.452   4.240   6.704
11757TIP3   OH235206   5.584   5.498   4.692
11757TIP3    H135207   5.578   5.534   4.781
11757TIP3    H235208   5.675   5.460   4.689
11758TIP3   OH235209   7.289   4.371   6.425
11758TIP3    H135210   7.309   4.340   6.516
11758TIP3    H235211   7.378   4.367   6.383
11759TIP3   OH235212   7.230   5.924   5.913
11759TIP3    H135213   7.149   5.893   5.867
11759TIP3    H235214   7.209   6.020   5.919
11760TIP3   OH235215   8.493   5.296   4.682
11760TIP3    H135216   8.466   5.388   4.666
11760TIP3    H235217   8.412   5.249   4.657
11761TIP3   OH235218   8.487   5.295   5.064
11761TIP3    H135219   8.519   5.278   5.155
11761TIP3    H235220   8.449   5.209   5.041
11762TIP3   OH235221   7.793   5.191   5.428
11762TIP3    H135222   7.822   5.123   5.492
11762TIP3    H235223   7.872   5.247   5.426
11763TIP3   OH235224   8.733   5.592   4.747
11763TIP3    H135225   8.723   5.527   4.818
11763TIP3    H235226   8.765   5.670   4.795
11764TIP3   OH235227   7.768   5.601   5.154
11764TIP3    H135228   7.753   5.504   5.157
11764TIP3    H235229   7.865   5.604   5.149
11765TIP3   OH235230   7.471   4.804   4.939
11765TIP3    H135231   7.424   4.887   4.955
11765TIP3    H235232   7.399   4.750   4.901
11766TIP3   OH235233   7.530   5.090   5.109
11766TIP3    H135234   7.578   5.014   5.147
11766TIP3    H235235   7.592   5.122   5.042
11767TIP3   OH235236   8.383   6.057   4.761
11767TIP3    H135237   8.430   5.988   4.709
11767TIP3    H235238   8.390   6.020   4.850
11768TIP3   OH235239   8.293   5.524   5.111
11768TIP3    H135240   8.329   5.443   5.070
11768TIP3    H235241   8.378   5.565   5.137
11769TIP3   OH235242   8.699   5.043   5.143
11769TIP3    H135243   8.712   4.951   5.175
11769TIP3    H235244   8.657   5.023   5.057
11770TIP3   OH235245   8.038   4.682   5.112
11770TIP3    H135246   8.023   4.755   5.049
11770TIP3    H235247   7.991   4.610   5.065
11771TIP3   OH235248   8.726   4.771   4.741
11771TIP3    H135249   8.792   4.723   4.794
11771TIP3    H235250   8.782   4.833   4.693
11772TIP3   OH235251   7.675   4.885   5.216
11772TIP3    H135252   7.758   4.866   5.265
11772TIP3    H235253   7.690   4.829   5.137
11773TIP3   OH235254   8.119   5.082   5.008
11773TIP3    H135255   8.212   5.056   5.023
11773TIP3    H235256   8.080   4.997   4.978
11774TIP3   OH235257   8.038   4.665   5.544
11774TIP3    H135258   7.979   4.704   5.477
11774TIP3    H235259   7.987   4.684   5.625
11775TIP3   OH235260   8.389   5.520   4.547
11775TIP3    H135261   8.339   5.499   4.467
11775TIP3    H235262   8.343   5.601   4.577
11776TIP3   OH235263   8.145   5.441   5.337
11776TIP3    H135264   8.083   5.506   5.376
11776TIP3    H235265   8.189   5.493   5.268
11777TIP3   OH235266   7.908   4.781   5.330
11777TIP3    H135267   7.970   4.854   5.353
11777TIP3    H235268   7.957   4.741   5.255
11778TIP3   OH235269   7.971   5.633   5.437
11778TIP3    H135270   7.939   5.717   5.400
11778TIP3    H235271   7.896   5.611   5.496
11779TIP3   OH235272   7.370   5.326   4.673
11779TIP3    H135273   7.327   5.356   4.592
11779TIP3    H235274   7.400   5.410   4.712
11780TIP3   OH235275   8.803   5.839   4.910
11780TIP3    H135276   8.715   5.827   4.952
11780TIP3    H235277   8.793   5.928   4.870
11781TIP3   OH235278   8.388   4.381   5.259
11781TIP3    H135279   8.371   4.286   5.277
11781TIP3    H235280   8.311   4.422   5.304
11782TIP3   OH235281   8.509   5.887   4.587
11782TIP3    H135282   8.559   5.805   4.565
11782TIP3    H235283   8.569   5.953   4.546
11783TIP3   OH235284   8.647   5.667   4.492
11783TIP3    H135285   8.585   5.594   4.476
11783TIP3    H235286   8.690   5.637   4.576
11784TIP3   OH235287   9.031   5.752   5.274
11784TIP3    H135288   9.034   5.675   5.213
11784TIP3    H235289   9.030   5.825   5.208
11785TIP3   OH235290   8.321   5.145   4.512
11785TIP3    H135291   8.241   5.198   4.495
11785TIP3    H235292   8.366   5.148   4.426
11786TIP3   OH235293   8.282   4.931   4.230
11786TIP3    H135294   8.348   4.984   4.279
11786TIP3    H235295   8.342   4.870   4.182
11787TIP3   OH235296   8.667   5.228   4.487
11787TIP3    H135297   8.610   5.258   4.562
11787TIP3    H235298   8.739   5.185   4.537
11788TIP3   OH235299   8.893   5.252   5.384
11788TIP3    H135300   8.904   5.335   5.439
11788TIP3    H235301   8.805   5.273   5.349
11789TIP3   OH235302   7.906   5.228   4.902
11789TIP3    H135303   7.865   5.169   4.835
11789TIP3    H235304   7.982   5.174   4.932
11790TIP3   OH235305   8.040   5.644   5.051
11790TIP3    H135306   8.013   5.601   4.969
11790TIP3    H235307   8.128   5.603   5.067
11791TIP3   OH235308   8.041   5.199   5.255
11791TIP3    H135309   8.077   5.177   5.167
11791TIP3    H235310   8.086   5.283   5.277
11792TIP3   OH235311   8.563   5.837   5.034
11792TIP3    H135312   8.555   5.920   5.086
11792TIP3    H235313   8.552   5.766   5.100
11793TIP3   OH235314   8.175   5.771   5.563
11793TIP3    H135315   8.116   5.812   5.628
11793TIP3    H235316   8.114   5.705   5.522
11794TIP3   OH235317   8.515   5.080   4.311
11794TIP3    H135318   8.569   5.145   4.362
11794TIP3    H235319   8.541   5.103   4.219
11795TIP3   OH235320   7.931   5.317   5.678
11795TIP3    H135321   7.936   5.401   5.727
11795TIP3    H235322   7.837   5.293   5.692
11796TIP3   OH235323   8.255   5.768   4.589
11796TIP3    H135324   8.335   5.821   4.603
11796TIP3    H235325   8.195   5.831   4.547
11797TIP3   OH235326   7.968   5.931   5.668
11797TIP3    H135327   7.933   5.915   5.578
11797TIP3    H235328   7.892   5.899   5.724
11798TIP3   OH235329   7.772   5.071   4.705
11798TIP3    H135330   7.704   5.115   4.649
11798TIP3    H235331   7.731   4.986   4.723
11799TIP3   OH235332   8.827   5.699   3.910
11799TIP3    H135333   8.822   5.794   3.889
11799TIP3    H235334   8.913   5.675   3.873
11800TIP3   OH235335   7.552   5.456   5.613
11800TIP3    H135336   7.485   5.433   5.546
11800TIP3    H235337   7.589   5.368   5.638
11801TIP3   OH235338   7.405   5.647   5.246
11801TIP3    H135339   7.501   5.651   5.244
11801TIP3    H235340   7.382   5.728   5.295
11802TIP3   OH235341   8.341   5.956   5.464
11802TIP3    H135342   8.422   5.955   5.519
11802TIP3    H235343   8.296   5.874   5.496
11803TIP3   OH235344   8.135   6.012   4.391
11803TIP3    H135345   8.093   5.995   4.305
11803TIP3    H235346   8.105   6.102   4.413
11804TIP3   OH235347   7.574   5.864   4.773
11804TIP3    H135348   7.622   5.853   4.859
11804TIP3    H235349   7.514   5.788   4.779
11805TIP3   OH235350   8.337   5.916   4.030
11805TIP3    H135351   8.396   5.847   3.992
11805TIP3    H235352   8.374   5.925   4.121
11806TIP3   OH235353   8.388   5.964   4.300
11806TIP3    H135354   8.300   5.971   4.344
11806TIP3    H235355   8.442   5.924   4.370
11807TIP3   OH235356   7.757   5.637   5.603
11807TIP3    H135357   7.804   5.623   5.688
11807TIP3    H235358   7.683   5.573   5.610
11808TIP3   OH235359   8.156   4.460   5.388
11808TIP3    H135360   8.066   4.431   5.362
11808TIP3    H235361   8.133   4.544   5.432
11809TIP3   OH235362   8.662   4.591   5.568
11809TIP3    H135363   8.727   4.553   5.631
11809TIP3    H235364   8.577   4.570   5.612
11810TIP3   OH235365   8.961   5.002   5.508
11810TIP3    H135366   8.904   5.007   5.587
11810TIP3    H235367   8.938   5.085   5.462
11811TIP3   OH235368   8.589   5.131   4.056
11811TIP3    H135369   8.562   5.107   3.964
11811TIP3    H235370   8.652   5.202   4.038
11812TIP3   OH235371   8.311   4.509   4.359
11812TIP3    H135372   8.277   4.508   4.451
11812TIP3    H235373   8.267   4.428   4.325
11813TIP3   OH235374   8.085   4.976   5.405
11813TIP3    H135375   8.039   5.001   5.488
11813TIP3    H235376   8.070   5.058   5.351
11814TIP3   OH235377   7.971   4.863   4.920
11814TIP3    H135378   7.879   4.835   4.938
11814TIP3    H235379   7.985   4.820   4.832
11815TIP3   OH235380   8.463   4.951   4.645
11815TIP3    H135381   8.406   5.021   4.608
11815TIP3    H235382   8.516   4.925   4.569
11816TIP3   OH235383   8.625   5.226   5.724
11816TIP3    H135384   8.619   5.151   5.789
11816TIP3    H235385   8.721   5.245   5.726
11817TIP3   OH235386   8.607   4.980   4.887
11817TIP3    H135387   8.550   5.001   4.810
11817TIP3    H235388   8.636   4.891   4.860
11818TIP3   OH235389   7.904   5.006   5.616
11818TIP3    H135390   7.941   5.068   5.681
11818TIP3    H235391   7.896   4.924   5.667
11819TIP3   OH235392   7.957   4.483   4.324
11819TIP3    H135393   7.949   4.481   4.421
11819TIP3    H235394   7.879   4.536   4.300
11820TIP3   OH235395   7.500   4.526   5.194
11820TIP3    H135396   7.574   4.560   5.249
11820TIP3    H235397   7.544   4.496   5.114
11821TIP3   OH235398   7.473   4.508   4.713
11821TIP3    H135399   7.519   4.547   4.636
11821TIP3    H235400   7.413   4.582   4.735
11822TIP3   OH235401   8.604   5.233   5.310
11822TIP3    H135402   8.650   5.167   5.254
11822TIP3    H235403   8.592   5.179   5.392
11823TIP3   OH235404   8.289   4.702   4.978
11823TIP3    H135405   8.215   4.690   5.041
11823TIP3    H235406   8.366   4.671   5.029
11824TIP3   OH235407   7.733   4.741   4.989
11824TIP3    H135408   7.639   4.748   4.962
11824TIP3    H235409   7.757   4.649   4.965
11825TIP3   OH235410   8.002   4.734   4.678
11825TIP3    H135411   8.096   4.752   4.660
11825TIP3    H235412   7.957   4.759   4.594
11826TIP3   OH235413   8.712   4.773   5.172
11826TIP3    H135414   8.705   4.783   5.270
11826TIP3    H235415   8.794   4.720   5.164
11827TIP3   OH235416   7.844   4.770   4.456
11827TIP3    H135417   7.771   4.726   4.408
11827TIP3    H235418   7.895   4.806   4.381
11828TIP3   OH235419   7.922   5.562   5.826
11828TIP3    H135420   8.000   5.589   5.877
11828TIP3    H235421   7.855   5.558   5.896
11829TIP3   OH235422   8.384   5.014   5.081
11829TIP3    H135423   8.451   4.967   5.030
11829TIP3    H235424   8.390   4.971   5.168
11830TIP3   OH235425   7.903   4.501   4.955
11830TIP3    H135426   7.871   4.421   5.002
11830TIP3    H235427   7.960   4.463   4.887
11831TIP3   OH235428   8.358   4.908   5.373
11831TIP3    H135429   8.271   4.949   5.386
11831TIP3    H235430   8.419   4.969   5.421
11832TIP3   OH235431   8.096   5.300   4.463
11832TIP3    H135432   8.023   5.235   4.452
11832TIP3    H235433   8.076   5.334   4.554
11833TIP3   OH235434   8.993   5.552   5.086
11833TIP3    H135435   9.017   5.545   4.993
11833TIP3    H235436   8.908   5.504   5.087
11834TIP3   OH235437   8.561   4.611   4.314
11834TIP3    H135438   8.466   4.589   4.329
11834TIP3    H235439   8.565   4.707   4.335
11835TIP3   OH235440   8.482   5.605   5.477
11835TIP3    H135441   8.543   5.558   5.537
11835TIP3    H235442   8.494   5.696   5.506
11836TIP3   OH235443   8.653   4.864   4.406
11836TIP3    H135444   8.733   4.914   4.427
11836TIP3    H235445   8.598   4.934   4.364
11837TIP3   OH235446   7.787   5.322   5.139
11837TIP3    H135447   7.827   5.293   5.055
11837TIP3    H235448   7.829   5.262   5.203
11838TIP3   OH235449   8.241   5.449   4.284
11838TIP3    H135450   8.194   5.535   4.288
11838TIP3    H235451   8.186   5.395   4.344
11839TIP3   OH235452   7.667   5.245   5.751
11839TIP3    H135453   7.694   5.231   5.844
11839TIP3    H235454   7.600   5.175   5.739
11840TIP3   OH235455   8.393   5.354   5.763
11840TIP3    H135456   8.337   5.291   5.714
11840TIP3    H235457   8.482   5.324   5.735
11841TIP3   OH235458   8.647   5.858   5.385
11841TIP3    H135459   8.579   5.914   5.347
11841TIP3    H235460   8.686   5.913   5.454
11842TIP3   OH235461   8.747   5.775   4.169
11842TIP3    H135462   8.757   5.720   4.248
11842TIP3    H235463   8.782   5.721   4.096
11843TIP3   OH235464   8.756   5.403   5.008
11843TIP3    H135465   8.663   5.381   5.027
11843TIP3    H235466   8.790   5.316   4.980
11844TIP3   OH235467   7.889   5.627   4.766
11844TIP3    H135468   7.888   5.707   4.710
11844TIP3    H235469   7.795   5.609   4.774
11845TIP3   OH235470   7.451   4.931   4.465
11845TIP3    H135471   7.498   5.014   4.487
11845TIP3    H235472   7.375   4.935   4.528
11846TIP3   OH235473   8.027   5.392   4.707
11846TIP3    H135474   7.992   5.482   4.727
11846TIP3    H235475   7.992   5.341   4.782
11847TIP3   OH235476   8.163   5.970   5.224
11847TIP3    H135477   8.200   6.028   5.153
11847TIP3    H235478   8.236   5.907   5.236
11848TIP3   OH235479   7.808   5.864   4.616
11848TIP3    H135480   7.723   5.873   4.662
11848TIP3    H235481   7.840   5.957   4.618
11849TIP3   OH235482   8.541   5.604   5.193
11849TIP3    H135483   8.534   5.599   5.291
11849TIP3    H235484   8.632   5.570   5.184
11850TIP3   OH235485   8.503   5.494   4.086
11850TIP3    H135486   8.561   5.469   4.161
11850TIP3    H235487   8.416   5.473   4.122
11851TIP3   OH235488   7.881   4.747   5.760
11851TIP3    H135489   7.785   4.752   5.776
11851TIP3    H235490   7.911   4.691   5.834
11852TIP3   OH235491   8.675   5.420   4.289
11852TIP3    H135492   8.665   5.355   4.362
11852TIP3    H235493   8.752   5.469   4.317
11853TIP3   OH235494   7.608   5.833   5.388
11853TIP3    H135495   7.648   5.755   5.430
11853TIP3    H235496   7.611   5.898   5.460
11854TIP3   OH235497   7.886   5.477   4.074
11854TIP3    H135498   7.902   5.386   4.045
11854TIP3    H235499   7.868   5.466   4.169
11855TIP3   OH235500   7.833   5.482   4.346
11855TIP3    H135501   7.904   5.456   4.406
11855TIP3    H235502   7.836   5.580   4.352
11856TIP3   OH235503   7.567   5.175   4.549
11856TIP3    H135504   7.502   5.220   4.607
11856TIP3    H235505   7.582   5.245   4.482
11857TIP3   OH235506   8.721   4.827   5.441
11857TIP3    H135507   8.800   4.860   5.488
11857TIP3    H235508   8.698   4.747   5.492
11858TIP3   OH235509   8.579   4.574   4.609
11858TIP3    H135510   8.577   4.595   4.515
11858TIP3    H235511   8.629   4.649   4.648
11859TIP3   OH235512   8.098   5.678   4.295
11859TIP3    H135513   8.011   5.706   4.330
11859TIP3    H235514   8.116   5.751   4.233
11860TIP3   OH235515   8.282   4.745   4.707
11860TIP3    H135516   8.350   4.815   4.694
11860TIP3    H235517   8.287   4.732   4.805
11861TIP3   OH235518   8.552   5.059   5.515
11861TIP3    H135519   8.571   5.114   5.594
11861TIP3    H235520   8.614   4.985   5.528
11862TIP3   OH235521   8.425   4.462   4.807
11862TIP3    H135522   8.452   4.513   4.887
11862TIP3    H235523   8.481   4.505   4.739
11863TIP3   OH235524   7.841   5.754   4.362
11863TIP3    H135525   7.811   5.824   4.299
11863TIP3    H235526   7.825   5.798   4.448
11864TIP3   OH235527   7.943   4.469   4.600
11864TIP3    H135528   7.939   4.559   4.638
11864TIP3    H235529   8.039   4.451   4.609
11865TIP3   OH235530   8.840   5.142   4.920
11865TIP3    H135531   8.753   5.102   4.899
11865TIP3    H235532   8.858   5.099   5.005
11866TIP3   OH235533   7.558   5.386   4.355
11866TIP3    H135534   7.622   5.458   4.365
11866TIP3    H235535   7.606   5.332   4.288
11867TIP3   OH235536   7.504   4.661   4.487
11867TIP3    H135537   7.504   4.759   4.484
11867TIP3    H235538   7.418   4.639   4.450
11868TIP3   OH235539   8.822   6.116   4.838
11868TIP3    H135540   8.776   6.163   4.765
11868TIP3    H235541   8.912   6.114   4.805
11869TIP3   OH235542   7.891   4.381   5.362
11869TIP3    H135543   7.860   4.348   5.275
11869TIP3    H235544   7.880   4.303   5.420
11870TIP3   OH235545   7.430   5.595   4.741
11870TIP3    H135546   7.362   5.628   4.802
11870TIP3    H235547   7.402   5.638   4.657
11871TIP3   OH235548   7.571   6.127   5.793
11871TIP3    H135549   7.652   6.129   5.849
11871TIP3    H235550   7.548   6.032   5.800
11872TIP3   OH235551   8.040   6.136   5.836
11872TIP3    H135552   8.134   6.152   5.817
11872TIP3    H235553   8.021   6.055   5.783
11873TIP3   OH235554   8.050   5.682   3.986
11873TIP3    H135555   7.995   5.609   4.024
11873TIP3    H235556   8.126   5.632   3.952
11874TIP3   OH235557   8.479   5.724   3.894
11874TIP3    H135558   8.530   5.667   3.954
11874TIP3    H235559   8.533   5.723   3.812
11875TIP3   OH235560   7.718   5.542   6.009
11875TIP3    H135561   7.733   5.447   6.020
11875TIP3    H235562   7.629   5.544   5.967
11876TIP3   OH235563   7.694   5.198   4.207
11876TIP3    H135564   7.749   5.166   4.280
11876TIP3    H235565   7.761   5.203   4.136
11877TIP3   OH235566   8.310   5.612   5.770
11877TIP3    H135567   8.288   5.597   5.677
11877TIP3    H235568   8.364   5.532   5.787
11878TIP3   OH235569   8.199   5.396   4.015
11878TIP3    H135570   8.204   5.409   4.111
11878TIP3    H235571   8.202   5.298   4.009
11879TIP3   OH235572   8.782   5.639   5.326
11879TIP3    H135573   8.875   5.664   5.326
11879TIP3    H235574   8.737   5.718   5.361
11880TIP3   OH235575   7.839   5.272   5.986
11880TIP3    H135576   7.919   5.221   5.970
11880TIP3    H235577   7.854   5.302   6.078
11881TIP3   OH235578   7.903   5.102   4.430
11881TIP3    H135579   7.876   5.062   4.514
11881TIP3    H235580   7.938   5.025   4.381
11882TIP3   OH235581   8.167   5.161   5.652
11882TIP3    H135582   8.095   5.227   5.656
11882TIP3    H235583   8.222   5.196   5.577
11883TIP3   OH235584   8.002   4.894   4.270
11883TIP3    H135585   7.976   4.899   4.176
11883TIP3    H235586   8.100   4.900   4.262
11884TIP3   OH235587   8.663   5.526   5.712
11884TIP3    H135588   8.747   5.572   5.719
11884TIP3    H235589   8.659   5.480   5.797
11885TIP3   OH235590   8.286   4.952   5.788
11885TIP3    H135591   8.296   4.874   5.729
11885TIP3    H235592   8.249   5.019   5.727
11886TIP3   OH235593   8.297   4.737   5.590
11886TIP3    H135594   8.326   4.783   5.508
11886TIP3    H235595   8.203   4.719   5.571
11887TIP3   OH235596   8.323   5.270   5.462
11887TIP3    H135597   8.411   5.277   5.422
11887TIP3    H235598   8.273   5.341   5.416
11888TIP3   OH235599   8.889   5.255   5.761
11888TIP3    H135600   8.928   5.173   5.799
11888TIP3    H235601   8.947   5.319   5.804
11889TIP3   OH235602   8.905   5.482   5.518
11889TIP3    H135603   8.907   5.532   5.613
11889TIP3    H235604   8.991   5.500   5.474
11890TIP3   OH235605   8.162   5.071   6.010
11890TIP3    H135606   8.100   4.998   6.027
11890TIP3    H235607   8.205   5.041   5.928
11891TIP3   OH235608   8.421   4.502   5.659
11891TIP3    H135609   8.372   4.585   5.638
11891TIP3    H235610   8.351   4.434   5.648
11892TIP3   OH235611   8.556   5.005   5.865
11892TIP3    H135612   8.574   4.991   5.960
11892TIP3    H235613   8.461   4.981   5.859
11893TIP3   OH235614   8.793   4.951   5.725
11893TIP3    H135615   8.716   4.960   5.784
11893TIP3    H235616   8.860   4.918   5.789
11894TIP3   OH235617   8.991   4.871   5.894
11894TIP3    H135618   9.063   4.820   5.934
11894TIP3    H235619   8.989   4.951   5.949
11895TIP3   OH235620   8.009   4.846   6.067
11895TIP3    H135621   8.024   4.756   6.033
11895TIP3    H235622   8.046   4.838   6.157
11896TIP3   OH235623   8.522   4.510   5.913
11896TIP3    H135624   8.583   4.434   5.910
11896TIP3    H235625   8.483   4.506   5.823
11897TIP3   OH235626   8.574   4.716   6.087
11897TIP3    H135627   8.560   4.655   6.012
11897TIP3    H235628   8.506   4.786   6.071
11898TIP3   OH235629   7.810   5.956   4.174
11898TIP3    H135630   7.906   5.952   4.157
11898TIP3    H235631   7.781   6.007   4.096
11899TIP3   OH235632   7.290   5.341   4.388
11899TIP3    H135633   7.385   5.363   4.378
11899TIP3    H235634   7.287   5.251   4.350
11900TIP3   OH235635   7.207   5.953   4.804
11900TIP3    H135636   7.138   5.892   4.769
11900TIP3    H235637   7.250   5.895   4.871
11901TIP3   OH235638   7.343   5.803   4.990
11901TIP3    H135639   7.325   5.731   5.053
11901TIP3    H235640   7.389   5.866   5.049
11902TIP3   OH235641   8.996   5.960   5.084
11902TIP3    H135642   8.937   6.004   5.147
11902TIP3    H235643   8.932   5.914   5.025
11903TIP3   OH235644   8.878   5.102   4.612
11903TIP3    H135645   8.968   5.061   4.621
11903TIP3    H235646   8.879   5.154   4.694
11904TIP3   OH235647   7.529   5.208   5.363
11904TIP3    H135648   7.527   5.179   5.270
11904TIP3    H235649   7.626   5.211   5.380
11905TIP3   OH235650   7.743   4.895   6.033
11905TIP3    H135651   7.841   4.892   6.037
11905TIP3    H235652   7.721   4.811   6.078
11906TIP3   OH235653   7.706   4.589   5.368
11906TIP3    H135654   7.769   4.515   5.379
11906TIP3    H235655   7.767   4.664   5.362
11907TIP3   OH235656   7.510   4.862   5.442
11907TIP3    H135657   7.559   4.859   5.358
11907TIP3    H235658   7.536   4.948   5.476
11908TIP3   OH235659   7.492   4.363   4.941
11908TIP3    H135660   7.400   4.363   4.969
11908TIP3    H235661   7.490   4.424   4.864
11909TIP3   OH235662   8.650   6.071   4.451
11909TIP3    H135663   8.698   6.056   4.366
11909TIP3    H235664   8.707   6.136   4.493
11910TIP3   OH235665   7.712   4.443   5.755
11910TIP3    H135666   7.663   4.442   5.839
11910TIP3    H235667   7.646   4.484   5.696
11911TIP3   OH235668   7.758   5.863   5.831
11911TIP3    H135669   7.664   5.843   5.817
11911TIP3    H235670   7.763   5.863   5.928
11912TIP3   OH235671   7.940   5.911   5.385
11912TIP3    H135672   7.874   5.971   5.345
11912TIP3    H235673   8.005   5.906   5.313
11913TIP3   OH235674   7.613   6.166   5.404
11913TIP3    H135675   7.523   6.196   5.378
11913TIP3    H235676   7.615   6.200   5.495
11914TIP3   OH235677   7.849   6.144   5.264
11914TIP3    H135678   7.762   6.157   5.310
11914TIP3    H235679   7.825   6.176   5.174
11915TIP3   OH235680   8.258   6.164   5.057
11915TIP3    H135681   8.195   6.189   4.987
11915TIP3    H235682   8.281   6.251   5.094
11916TIP3   OH235683   8.523   6.098   5.121
11916TIP3    H135684   8.437   6.126   5.086
11916TIP3    H235685   8.580   6.172   5.088
11917TIP3   OH235686   8.665   6.298   5.003
11917TIP3    H135687   8.709   6.384   5.011
11917TIP3    H235688   8.731   6.244   4.958
11918TIP3   OH235689   7.525   5.962   5.148
11918TIP3    H135690   7.548   5.933   5.239
11918TIP3    H235691   7.593   5.912   5.097
11919TIP3   OH235692   7.712   5.825   5.005
11919TIP3    H135693   7.728   5.742   5.056
11919TIP3    H235694   7.803   5.861   4.997
11920TIP3   OH235695   7.975   5.922   5.003
11920TIP3    H135696   8.009   5.832   4.988
11920TIP3    H235697   8.019   5.943   5.087
11921TIP3   OH235698   8.513   4.549   5.054
11921TIP3    H135699   8.498   4.502   5.138
11921TIP3    H235700   8.611   4.543   5.046
11922TIP3   OH235701   7.804   4.289   5.113
11922TIP3    H135702   7.711   4.256   5.115
11922TIP3    H235703   7.853   4.204   5.109
11923TIP3   OH235704   7.589   4.158   4.760
11923TIP3    H135705   7.618   4.217   4.689
11923TIP3    H235706   7.560   4.222   4.828
11924TIP3   OH235707   8.247   4.320   4.995
11924TIP3    H135708   8.302   4.370   4.933
11924TIP3    H235709   8.271   4.361   5.079
11925TIP3   OH235710   8.763   4.449   4.977
11925TIP3    H135711   8.785   4.429   4.886
11925TIP3    H235712   8.762   4.361   5.019
11926TIP3   OH235713   7.308   5.727   4.541
11926TIP3    H135714   7.222   5.696   4.508
11926TIP3    H235715   7.297   5.823   4.527
11927TIP3   OH235716   7.707   4.318   4.524
11927TIP3    H135717   7.756   4.256   4.468
11927TIP3    H235718   7.779   4.373   4.561
11928TIP3   OH235719   8.221   4.493   4.622
11928TIP3    H135720   8.282   4.450   4.684
11928TIP3    H235721   8.238   4.587   4.648
11929TIP3   OH235722   8.079   5.918   4.125
11929TIP3    H135723   8.167   5.940   4.089
11929TIP3    H235724   8.057   5.844   4.064
11930TIP3   OH235725   8.784   6.039   4.218
11930TIP3    H135726   8.780   5.942   4.204
11930TIP3    H235727   8.760   6.070   4.129
11931TIP3   OH235728   8.011   4.565   6.000
11931TIP3    H135729   7.976   4.498   6.061
11931TIP3    H235730   8.105   4.567   6.028
11932TIP3   OH235731   8.257   4.565   6.122
11932TIP3    H135732   8.346   4.551   6.087
11932TIP3    H235733   8.250   4.493   6.188
11933TIP3   OH235734   7.381   5.752   4.179
11933TIP3    H135735   7.381   5.780   4.272
11933TIP3    H235736   7.471   5.713   4.169
11934TIP3   OH235737   0.950   6.082   6.371
11934TIP3    H135738   0.918   6.174   6.378
11934TIP3    H235739   0.874   6.040   6.326
11935TIP3   OH235740   0.961   6.068   6.741
11935TIP3    H135741   0.987   6.049   6.833
11935TIP3    H235742   0.908   5.990   6.719
11936TIP3   OH235743   1.186   6.386   6.436
11936TIP3    H135744   1.179   6.319   6.506
11936TIP3    H235745   1.216   6.464   6.487
11937TIP3   OH235746   0.892   6.869   6.433
11937TIP3    H135747   0.936   6.783   6.418
11937TIP3    H235748   0.840   6.850   6.513
11938TIP3   OH235749   0.773   6.278   6.803
11938TIP3    H135750   0.814   6.206   6.753
11938TIP3    H235751   0.852   6.330   6.828
11939TIP3   OH235752   1.756   5.630   6.800
11939TIP3    H135753   1.785   5.712   6.847
11939TIP3    H235754   1.779   5.652   6.708
11940TIP3   OH235755   1.153   5.811   6.837
11940TIP3    H135756   1.198   5.726   6.857
11940TIP3    H235757   1.126   5.795   6.745
11941TIP3   OH235758   1.188   5.562   6.422
11941TIP3    H135759   1.258   5.546   6.489
11941TIP3    H235760   1.243   5.597   6.349
11942TIP3   OH235761   1.828   5.835   6.973
11942TIP3    H135762   1.746   5.885   6.955
11942TIP3    H235763   1.853   5.870   7.060
11943TIP3   OH235764   0.813   6.311   6.253
11943TIP3    H135765   0.813   6.266   6.168
11943TIP3    H235766   0.874   6.385   6.238
11944TIP3   OH235767   1.398   5.564   6.594
11944TIP3    H135768   1.389   5.517   6.677
11944TIP3    H235769   1.453   5.641   6.621
11945TIP3   OH235770   1.255   6.624   6.595
11945TIP3    H135771   1.166   6.619   6.637
11945TIP3    H235772   1.251   6.715   6.558
11946TIP3   OH235773   1.551   5.526   6.963
11946TIP3    H135774   1.465   5.561   6.936
11946TIP3    H235775   1.611   5.561   6.895
11947TIP3   OH235776   0.851   5.166   6.934
11947TIP3    H135777   0.848   5.070   6.954
11947TIP3    H235778   0.805   5.203   7.010
11948TIP3   OH235779   0.954   6.653   6.256
11948TIP3    H135780   1.011   6.575   6.237
11948TIP3    H235781   1.014   6.725   6.228
11949TIP3   OH235782   1.090   6.432   6.183
11949TIP3    H135783   1.113   6.356   6.127
11949TIP3    H235784   1.138   6.412   6.267
11950TIP3   OH235785   1.482   6.542   6.948
11950TIP3    H135786   1.474   6.465   6.887
11950TIP3    H235787   1.468   6.617   6.888
11951TIP3   OH235788   0.776   5.959   6.201
11951TIP3    H135789   0.694   5.907   6.218
11951TIP3    H235790   0.803   5.932   6.112
11952TIP3   OH235791   0.749   5.726   5.919
11952TIP3    H135792   0.823   5.773   5.962
11952TIP3    H235793   0.797   5.654   5.875
11953TIP3   OH235794   1.680   6.174   6.788
11953TIP3    H135795   1.599   6.229   6.796
11953TIP3    H235796   1.711   6.203   6.700
11954TIP3   OH235797   1.125   6.016   6.176
11954TIP3    H135798   1.072   6.039   6.255
11954TIP3    H235799   1.210   5.989   6.219
11955TIP3   OH235800   1.360   6.056   7.088
11955TIP3    H135801   1.362   6.136   7.145
11955TIP3    H235802   1.276   6.071   7.041
11956TIP3   OH235803   1.014   6.621   6.715
11956TIP3    H135804   0.992   6.706   6.756
11956TIP3    H235805   1.002   6.556   6.787
11957TIP3   OH235806   0.966   5.875   6.001
11957TIP3    H135807   1.021   5.934   6.058
11957TIP3    H235808   0.993   5.904   5.911
11958TIP3   OH235809   1.480   5.118   6.048
11958TIP3    H135810   1.399   5.136   6.101
11958TIP3    H235811   1.493   5.203   6.002
11959TIP3   OH235812   1.279   6.480   5.595
11959TIP3    H135813   1.286   6.578   5.583
11959TIP3    H235814   1.373   6.454   5.586
11960TIP3   OH235815   1.731   6.883   6.990
11960TIP3    H135816   1.727   6.789   7.012
11960TIP3    H235817   1.647   6.914   7.032
11961TIP3   OH235818   0.791   6.704   5.717
11961TIP3    H135819   0.852   6.635   5.685
11961TIP3    H235820   0.812   6.711   5.812
11962TIP3   OH235821   0.837   6.751   5.996
11962TIP3    H135822   0.772   6.756   6.069
11962TIP3    H235823   0.918   6.731   6.046
11963TIP3   OH235824   1.616   6.016   7.269
11963TIP3    H135825   1.533   6.031   7.221
11963TIP3    H235826   1.629   5.920   7.259
11964TIP3   OH235827   1.149   5.363   7.269
11964TIP3    H135828   1.219   5.339   7.334
11964TIP3    H235829   1.067   5.345   7.318
11965TIP3   OH235830   1.377   5.791   7.185
11965TIP3    H135831   1.333   5.788   7.273
11965TIP3    H235832   1.359   5.882   7.155
11966TIP3   OH235833   1.031   5.929   5.740
11966TIP3    H135834   1.042   5.885   5.655
11966TIP3    H235835   1.110   5.986   5.737
11967TIP3   OH235836   0.745   5.308   6.027
11967TIP3    H135837   0.731   5.305   6.125
11967TIP3    H235838   0.717   5.216   6.006
11968TIP3   OH235839   0.917   5.744   6.337
11968TIP3    H135840   0.863   5.816   6.300
11968TIP3    H235841   0.967   5.712   6.260
11969TIP3   OH235842   1.111   6.005   7.407
11969TIP3    H135843   1.085   5.939   7.475
11969TIP3    H235844   1.204   6.022   7.433
11970TIP3   OH235845   1.070   5.764   6.578
11970TIP3    H135846   1.012   5.796   6.507
11970TIP3    H235847   1.104   5.683   6.534
11971TIP3   OH235848   1.072   6.011   6.999
11971TIP3    H135849   1.111   5.942   6.941
11971TIP3    H235850   1.053   5.956   7.078
11972TIP3   OH235851   0.760   5.466   6.662
11972TIP3    H135852   0.670   5.489   6.691
11972TIP3    H235853   0.814   5.481   6.741
11973TIP3   OH235854   1.242   5.548   6.872
11973TIP3    H135855   1.209   5.561   6.964
11973TIP3    H235856   1.175   5.485   6.838
11974TIP3   OH235857   1.407   7.229   7.055
11974TIP3    H135858   1.405   7.253   6.961
11974TIP3    H235859   1.441   7.311   7.095
11975TIP3   OH235860   0.842   5.790   6.765
11975TIP3    H135861   0.918   5.760   6.713
11975TIP3    H235862   0.863   5.757   6.854
11976TIP3   OH235863   0.836   5.681   7.062
11976TIP3    H135864   0.769   5.753   7.054
11976TIP3    H235865   0.907   5.730   7.108
11977TIP3   OH235866   1.450   6.324   6.782
11977TIP3    H135867   1.475   6.375   6.702
11977TIP3    H235868   1.364   6.284   6.755
11978TIP3   OH235869   0.999   5.410   5.999
11978TIP3    H135870   0.905   5.389   6.019
11978TIP3    H235871   1.013   5.497   6.040
11979TIP3   OH235872   0.935   6.407   7.150
11979TIP3    H135873   0.974   6.405   7.239
11979TIP3    H235874   0.884   6.491   7.152
11980TIP3   OH235875   1.076   5.645   6.117
11980TIP3    H135876   1.172   5.648   6.139
11980TIP3    H235877   1.064   5.728   6.068
11981TIP3   OH235878   0.686   6.239   5.978
11981TIP3    H135879   0.631   6.319   5.987
11981TIP3    H235880   0.637   6.177   6.033
11982TIP3   OH235881   0.892   6.118   7.530
11982TIP3    H135882   0.834   6.071   7.468
11982TIP3    H235883   0.979   6.109   7.485
11983TIP3   OH235884   1.107   6.665   7.047
11983TIP3    H135885   1.012   6.670   7.062
11983TIP3    H235886   1.142   6.716   7.124
11984TIP3   OH235887   1.516   5.737   5.955
11984TIP3    H135888   1.451   5.694   5.895
11984TIP3    H235889   1.515   5.826   5.914
11985TIP3   OH235890   1.732   6.592   7.039
11985TIP3    H135891   1.635   6.589   7.026
11985TIP3    H235892   1.762   6.565   6.949
11986TIP3   OH235893   1.208   6.557   5.858
11986TIP3    H135894   1.200   6.485   5.922
11986TIP3    H235895   1.230   6.511   5.775
11987TIP3   OH235896   1.216   6.187   6.696
11987TIP3    H135897   1.123   6.160   6.710
11987TIP3    H235898   1.252   6.107   6.654
11988TIP3   OH235899   1.010   6.388   6.884
11988TIP3    H135900   0.997   6.397   6.981
11988TIP3    H235901   1.099   6.350   6.881
11989TIP3   OH235902   0.983   6.273   5.761
11989TIP3    H135903   1.025   6.256   5.848
11989TIP3    H235904   0.889   6.255   5.781
11990TIP3   OH235905   1.252   6.909   6.921
11990TIP3    H135906   1.170   6.856   6.915
11990TIP3    H235907   1.233   6.983   6.859
11991TIP3   OH235908   1.312   6.757   5.583
11991TIP3    H135909   1.352   6.830   5.533
11991TIP3    H235910   1.232   6.804   5.617
11992TIP3   OH235911   1.134   6.220   5.993
11992TIP3    H135912   1.128   6.147   6.058
11992TIP3    H235913   1.230   6.216   5.972
11993TIP3   OH235914   1.167   5.602   7.131
11993TIP3    H135915   1.247   5.644   7.167
11993TIP3    H235916   1.159   5.520   7.186
11994TIP3   OH235917   1.057   5.350   6.296
11994TIP3    H135918   1.035   5.380   6.206
11994TIP3    H235919   1.093   5.431   6.337
11995TIP3   OH235920   0.737   5.540   6.398
11995TIP3    H135921   0.806   5.609   6.389
11995TIP3    H235922   0.737   5.524   6.494
11996TIP3   OH235923   1.014   5.845   7.205
11996TIP3    H135924   1.039   5.903   7.280
11996TIP3    H235925   1.072   5.768   7.220
11997TIP3   OH235926   0.892   5.257   6.513
11997TIP3    H135927   0.872   5.339   6.563
11997TIP3    H235928   0.942   5.294   6.437
11998TIP3   OH235929   1.645   5.749   7.189
11998TIP3    H135930   1.547   5.745   7.192
11998TIP3    H235931   1.662   5.718   7.100
11999TIP3   OH235932   1.300   5.944   6.574
11999TIP3    H135933   1.224   5.886   6.590
11999TIP3    H235934   1.372   5.899   6.622
12000TIP3   OH235935   1.270   6.893   6.524
12000TIP3    H135936   1.228   6.942   6.450
12000TIP3    H235937   1.364   6.915   6.505
12001TIP3   OH235938   1.185   6.793   7.277
12001TIP3    H135939   1.143   6.740   7.349
12001TIP3    H235940   1.273   6.806   7.314
12002TIP3   OH235941   0.941   6.511   5.588
12002TIP3    H135942   0.995   6.455   5.646
12002TIP3    H235943   0.994   6.515   5.507
12003TIP3   OH235944   0.673   6.185   5.705
12003TIP3    H135945   0.665   6.199   5.801
12003TIP3    H235946   0.647   6.092   5.696
12004TIP3   OH235947   1.264   6.428   7.076
12004TIP3    H135948   1.342   6.472   7.037
12004TIP3    H235949   1.199   6.501   7.070
12005TIP3   OH235950   0.487   5.693   6.006
12005TIP3    H135951   0.464   5.691   5.911
12005TIP3    H235952   0.584   5.698   6.000
12006TIP3   OH235953   1.132   6.353   7.482
12006TIP3    H135954   1.219   6.346   7.442
12006TIP3    H235955   1.137   6.285   7.551
12007TIP3   OH235956   1.272   6.005   5.613
12007TIP3    H135957   1.312   5.969   5.532
12007TIP3    H235958   1.239   6.092   5.582
12008TIP3   OH235959   0.713   5.481   7.208
12008TIP3    H135960   0.767   5.545   7.156
12008TIP3    H235961   0.672   5.541   7.273
12009TIP3   OH235962   0.829   6.123   7.108
12009TIP3    H135963   0.920   6.103   7.078
12009TIP3    H235964   0.818   6.211   7.070
12010TIP3   OH235965   1.371   6.024   7.523
12010TIP3    H135966   1.429   5.950   7.545
12010TIP3    H235967   1.434   6.095   7.503
12011TIP3   OH235968   1.399   6.276   7.255
12011TIP3    H135969   1.341   6.334   7.201
12011TIP3    H235970   1.488   6.302   7.221
12012TIP3   OH235971   0.889   5.294   7.337
12012TIP3    H135972   0.830   5.366   7.307
12012TIP3    H235973   0.831   5.217   7.326
12013TIP3   OH235974   1.014   5.802   7.568
12013TIP3    H135975   1.042   5.799   7.662
12013TIP3    H235976   0.928   5.758   7.573
12014TIP3   OH235977   1.247   5.734   7.415
12014TIP3    H135978   1.176   5.744   7.481
12014TIP3    H235979   1.324   5.711   7.472
12015TIP3   OH235980   1.471   5.684   7.569
12015TIP3    H135981   1.486   5.590   7.590
12015TIP3    H235982   1.468   5.726   7.658
12016TIP3   OH235983   0.982   5.306   7.597
12016TIP3    H135984   1.047   5.232   7.599
12016TIP3    H235985   0.944   5.296   7.508
12017TIP3   OH235986   1.057   5.522   7.745
12017TIP3    H135987   1.035   5.442   7.692
12017TIP3    H235988   0.969   5.565   7.750
12018TIP3   OH235989   1.520   6.991   6.480
12018TIP3    H135990   1.544   7.019   6.570
12018TIP3    H235991   1.583   7.041   6.426
12019TIP3   OH235992   1.551   7.007   6.757
12019TIP3    H135993   1.512   6.918   6.760
12019TIP3    H235994   1.623   6.996   6.822
12020TIP3   OH235995   1.410   6.202   5.956
12020TIP3    H135996   1.478   6.266   5.926
12020TIP3    H235997   1.454   6.164   6.035
12021TIP3   OH235998   1.537   6.070   6.159
12021TIP3    H135999   1.475   6.028   6.222
12021TIP3    H236000   1.607   6.106   6.217
12022TIP3   OH236001   1.590   6.459   6.588
12022TIP3    H136002   1.648   6.397   6.540
12022TIP3    H236003   1.588   6.536   6.529
12023TIP3   OH236004   1.430   6.755   6.783
12023TIP3    H136005   1.364   6.805   6.836
12023TIP3    H236006   1.373   6.712   6.716
12024TIP3   OH236007   1.475   5.976   5.807
12024TIP3    H136008   1.401   5.979   5.743
12024TIP3    H236009   1.454   6.053   5.863
12025TIP3   OH236010   1.338   5.653   5.765
12025TIP3    H136011   1.321   5.684   5.675
12025TIP3    H236012   1.319   5.557   5.756
12026TIP3   OH236013   1.352   5.925   6.306
12026TIP3    H136014   1.364   5.828   6.303
12026TIP3    H236015   1.339   5.941   6.402
12027TIP3   OH236016   1.642   6.352   7.162
12027TIP3    H136017   1.715   6.287   7.159
12027TIP3    H236018   1.675   6.423   7.104
12028TIP3   OH236019   1.827   6.155   7.174
12028TIP3    H136020   1.755   6.105   7.219
12028TIP3    H236021   1.902   6.094   7.190
12029TIP3   OH236022   1.293   5.385   5.743
12029TIP3    H136023   1.372   5.357   5.795
12029TIP3    H236024   1.224   5.324   5.773
12030TIP3   OH236025   1.348   5.639   6.200
12030TIP3    H136026   1.389   5.550   6.216
12030TIP3    H236027   1.410   5.673   6.133
12031TIP3   OH236028   1.511   5.816   6.695
12031TIP3    H136029   1.598   5.841   6.656
12031TIP3    H236030   1.524   5.853   6.785
12032TIP3   OH236031   1.579   5.958   6.927
12032TIP3    H136032   1.503   5.994   6.978
12032TIP3    H236033   1.612   6.039   6.883
12033TIP3   OH236034   2.027   5.543   7.484
12033TIP3    H136035   2.090   5.482   7.439
12033TIP3    H236036   2.002   5.604   7.411
12034TIP3   OH236037   1.458   5.391   6.239
12034TIP3    H136038   1.508   5.376   6.322
12034TIP3    H236039   1.399   5.313   6.239
12035TIP3   OH236040   1.904   5.691   7.292
12035TIP3    H136041   1.820   5.732   7.319
12035TIP3    H236042   1.870   5.620   7.233
12036TIP3   OH236043   1.538   5.330   5.866
12036TIP3    H136044   1.583   5.254   5.823
12036TIP3    H236045   1.609   5.397   5.868
12037TIP3   OH236046   1.101   6.845   6.139
12037TIP3    H136047   1.158   6.844   6.059
12037TIP3    H236048   1.141   6.917   6.190
12038TIP3   OH236049   1.027   7.061   7.012
12038TIP3    H136050   1.111   7.018   7.033
12038TIP3    H236051   1.037   7.150   7.047
12039TIP3   OH236052   1.802   5.454   7.168
12039TIP3    H136053   1.711   5.450   7.135
12039TIP3    H236054   1.832   5.361   7.155
12040TIP3   OH236055   0.968   6.897   6.777
12040TIP3    H136056   0.900   6.926   6.839
12040TIP3    H236057   1.020   6.979   6.770
12041TIP3   OH236058   1.207   7.091   6.717
12041TIP3    H136059   1.182   7.172   6.667
12041TIP3    H236060   1.223   7.027   6.645
12042TIP3   OH236061   1.017   5.369   6.796
12042TIP3    H136062   0.966   5.294   6.831
12042TIP3    H236063   1.082   5.324   6.739
12043TIP3   OH236064   1.530   5.244   6.690
12043TIP3    H136065   1.567   5.299   6.617
12043TIP3    H236066   1.435   5.266   6.686
12044TIP3   OH236067   1.625   5.349   6.455
12044TIP3    H136068   1.699   5.297   6.416
12044TIP3    H236069   1.659   5.440   6.441
12045TIP3   OH236070   0.712   5.103   6.689
12045TIP3    H136071   0.758   5.155   6.621
12045TIP3    H236072   0.751   5.139   6.770
12046TIP3   OH236073   1.245   5.255   6.667
12046TIP3    H136074   1.244   5.216   6.579
12046TIP3    H236075   1.232   5.175   6.724
12047TIP3   OH236076   1.275   5.177   6.229
12047TIP3    H136077   1.190   5.222   6.246
12047TIP3    H236078   1.261   5.092   6.276
12048TIP3   OH236079   0.714   5.285   6.292
12048TIP3    H136080   0.725   5.236   6.375
12048TIP3    H236081   0.702   5.376   6.327
12049TIP3   OH236082   1.248   6.823   5.906
12049TIP3    H136083   1.236   6.727   5.890
12049TIP3    H236084   1.206   6.861   5.826
12050TIP3   OH236085   1.538   5.414   7.601
12050TIP3    H136086   1.558   5.385   7.692
12050TIP3    H236087   1.626   5.412   7.559
12051TIP3   OH236088   1.486   6.967   7.067
12051TIP3    H136089   1.403   6.925   7.040
12051TIP3    H236090   1.460   7.061   7.067
12052TIP3   OH236091   2.743   6.339   5.860
12052TIP3    H136092   2.716   6.431   5.841
12052TIP3    H236093   2.665   6.291   5.828
12053TIP3   OH236094   2.742   6.339   6.239
12053TIP3    H136095   2.773   6.313   6.328
12053TIP3    H236096   2.700   6.258   6.208
12054TIP3   OH236097   2.041   6.235   6.605
12054TIP3    H136098   2.072   6.168   6.669
12054TIP3    H236099   2.116   6.297   6.607
12055TIP3   OH236100   2.985   6.642   5.922
12055TIP3    H136101   2.971   6.574   5.989
12055TIP3    H236102   3.013   6.719   5.976
12056TIP3   OH236103   2.011   6.644   6.327
12056TIP3    H136104   2.003   6.546   6.332
12056TIP3    H236105   2.107   6.654   6.327
12057TIP3   OH236106   1.720   5.847   6.114
12057TIP3    H136107   1.676   5.932   6.132
12057TIP3    H236108   1.646   5.795   6.079
12058TIP3   OH236109   1.776   6.132   6.282
12058TIP3    H136110   1.826   6.058   6.323
12058TIP3    H236111   1.843   6.172   6.225
12059TIP3   OH236112   2.632   7.104   5.936
12059TIP3    H136113   2.680   7.032   5.891
12059TIP3    H236114   2.627   7.071   6.027
12060TIP3   OH236115   2.541   6.566   6.289
12060TIP3    H136116   2.581   6.490   6.243
12060TIP3    H236117   2.624   6.612   6.314
12061TIP3   OH236118   3.554   5.886   6.287
12061TIP3    H136119   3.582   5.969   6.329
12061TIP3    H236120   3.575   5.904   6.194
12062TIP3   OH236121   2.952   6.067   6.322
12062TIP3    H136122   2.996   5.982   6.342
12062TIP3    H236123   2.922   6.052   6.231
12063TIP3   OH236124   2.290   5.727   6.287
12063TIP3    H136125   2.271   5.800   6.225
12063TIP3    H236126   2.241   5.654   6.242
12064TIP3   OH236127   2.984   5.819   5.909
12064TIP3    H136128   3.056   5.802   5.974
12064TIP3    H236129   3.037   5.853   5.834
12065TIP3   OH236130   1.924   5.930   6.393
12065TIP3    H136131   2.007   5.912   6.442
12065TIP3    H236132   1.940   5.874   6.314
12066TIP3   OH236133   2.366   6.127   6.184
12066TIP3    H136134   2.460   6.102   6.199
12066TIP3    H236135   2.327   6.042   6.154
12067TIP3   OH236136   3.627   6.094   6.457
12067TIP3    H136137   3.544   6.141   6.437
12067TIP3    H236138   3.642   6.124   6.548
12068TIP3   OH236139   2.287   5.710   6.721
12068TIP3    H136140   2.227   5.748   6.654
12068TIP3    H236141   2.236   5.727   6.802
12069TIP3   OH236142   2.635   6.562   5.729
12069TIP3    H136143   2.591   6.543   5.645
12069TIP3    H236144   2.592   6.646   5.754
12070TIP3   OH236145   2.393   6.485   6.516
12070TIP3    H136146   2.331   6.551   6.555
12070TIP3    H236147   2.436   6.537   6.445
12071TIP3   OH236148   3.195   5.820   6.080
12071TIP3    H136149   3.186   5.772   6.163
12071TIP3    H236150   3.249   5.897   6.107
12072TIP3   OH236151   2.157   5.826   6.506
12072TIP3    H136152   2.219   5.899   6.530
12072TIP3    H236153   2.207   5.786   6.431
12073TIP3   OH236154   2.221   6.679   6.612
12073TIP3    H136155   2.197   6.767   6.576
12073TIP3    H236156   2.143   6.663   6.669
12074TIP3   OH236157   1.614   6.370   5.851
12074TIP3    H136158   1.578   6.402   5.766
12074TIP3    H236159   1.647   6.453   5.890
12075TIP3   OH236160   3.056   6.884   6.088
12075TIP3    H136161   2.966   6.876   6.129
12075TIP3    H236162   3.048   6.972   6.045
12076TIP3   OH236163   3.347   5.785   6.453
12076TIP3    H136164   3.259   5.815   6.423
12076TIP3    H236165   3.406   5.818   6.382
12077TIP3   OH236166   2.644   5.430   6.434
12077TIP3    H136167   2.630   5.335   6.452
12077TIP3    H236168   2.566   5.468   6.481
12078TIP3   OH236169   2.759   6.930   5.765
12078TIP3    H136170   2.809   6.848   5.743
12078TIP3    H236171   2.819   6.997   5.723
12079TIP3   OH236172   2.902   6.716   5.670
12079TIP3    H136173   2.861   6.636   5.633
12079TIP3    H236174   2.938   6.682   5.754
12080TIP3   OH236175   3.282   6.798   6.434
12080TIP3    H136176   3.271   6.721   6.374
12080TIP3    H236177   3.263   6.873   6.374
12081TIP3   OH236178   2.572   6.191   5.690
12081TIP3    H136179   2.493   6.244   5.668
12081TIP3    H236180   2.620   6.190   5.605
12082TIP3   OH236181   2.532   5.976   5.407
12082TIP3    H136182   2.598   6.027   5.456
12082TIP3    H236183   2.590   5.913   5.359
12083TIP3   OH236184   3.477   6.435   6.278
12083TIP3    H136185   3.394   6.487   6.284
12083TIP3    H236186   3.507   6.460   6.188
12084TIP3   OH236187   2.921   6.274   5.662
12084TIP3    H136188   2.866   6.298   5.741
12084TIP3    H236189   3.005   6.249   5.706
12085TIP3   OH236190   3.156   6.314   6.574
12085TIP3    H136191   3.153   6.398   6.624
12085TIP3    H236192   3.069   6.319   6.528
12086TIP3   OH236193   2.154   6.272   6.080
12086TIP3    H136194   2.114   6.214   6.012
12086TIP3    H236195   2.231   6.220   6.109
12087TIP3   OH236196   2.284   6.683   6.228
12087TIP3    H136197   2.264   6.641   6.144
12087TIP3    H236198   2.374   6.651   6.247
12088TIP3   OH236199   2.290   6.244   6.431
12088TIP3    H136200   2.325   6.224   6.342
12088TIP3    H236201   2.333   6.329   6.453
12089TIP3   OH236202   2.815   6.880   6.210
12089TIP3    H136203   2.801   6.962   6.261
12089TIP3    H236204   2.799   6.810   6.275
12090TIP3   OH236205   2.427   6.800   6.757
12090TIP3    H136206   2.368   6.862   6.804
12090TIP3    H236207   2.360   6.747   6.708
12091TIP3   OH236208   2.761   6.133   5.488
12091TIP3    H136209   2.820   6.192   5.540
12091TIP3    H236210   2.787   6.156   5.396
12092TIP3   OH236211   2.181   6.357   6.856
12092TIP3    H136212   2.188   6.444   6.901
12092TIP3    H236213   2.086   6.337   6.871
12093TIP3   OH236214   2.504   6.812   5.762
12093TIP3    H136215   2.583   6.865   5.782
12093TIP3    H236216   2.443   6.878   5.726
12094TIP3   OH236217   2.222   6.968   6.846
12094TIP3    H136218   2.184   6.969   6.756
12094TIP3    H236219   2.143   6.946   6.901
12095TIP3   OH236220   3.278   5.375   5.537
12095TIP3    H136221   3.196   5.395   5.587
12095TIP3    H236222   3.291   5.457   5.486
12096TIP3   OH236223   2.021   6.115   5.882
12096TIP3    H136224   1.954   6.159   5.826
12096TIP3    H236225   1.980   6.029   5.898
12097TIP3   OH236226   3.075   6.741   5.084
12097TIP3    H136227   3.083   6.838   5.071
12097TIP3    H236228   3.168   6.712   5.071
12098TIP3   OH236229   1.800   6.499   6.794
12098TIP3    H136230   1.736   6.474   6.724
12098TIP3    H236231   1.839   6.412   6.819
12099TIP3   OH236232   1.655   6.691   6.424
12099TIP3    H136233   1.751   6.689   6.417
12099TIP3    H236234   1.643   6.770   6.479
12100TIP3   OH236235   3.521   7.143   6.481
12100TIP3    H136236   3.517   7.047   6.495
12100TIP3    H236237   3.437   7.170   6.525
12101TIP3   OH236238   2.625   6.928   6.614
12101TIP3    H136239   2.625   7.021   6.646
12101TIP3    H236240   2.553   6.889   6.669
12102TIP3   OH236241   2.385   7.058   5.566
12102TIP3    H136242   2.340   7.043   5.481
12102TIP3    H236243   2.354   7.147   5.591
12103TIP3   OH236244   1.823   6.907   5.951
12103TIP3    H136245   1.875   6.900   6.034
12103TIP3    H236246   1.759   6.835   5.964
12104TIP3   OH236247   2.587   6.959   5.206
12104TIP3    H136248   2.646   6.890   5.170
12104TIP3    H236249   2.621   6.969   5.297
12105TIP3   OH236250   2.637   7.007   5.476
12105TIP3    H136251   2.549   7.017   5.519
12105TIP3    H236252   2.689   6.970   5.549
12106TIP3   OH236253   3.410   6.273   6.755
12106TIP3    H136254   3.328   6.289   6.705
12106TIP3    H236255   3.423   6.177   6.742
12107TIP3   OH236256   2.006   6.680   6.778
12107TIP3    H136257   2.055   6.669   6.862
12107TIP3    H236258   1.931   6.619   6.790
12108TIP3   OH236259   2.405   5.505   6.564
12108TIP3    H136260   2.315   5.475   6.538
12108TIP3    H236261   2.381   5.588   6.610
12109TIP3   OH236262   2.938   5.620   6.758
12109TIP3    H136263   3.006   5.593   6.823
12109TIP3    H236264   2.854   5.601   6.804
12110TIP3   OH236265   3.179   6.051   6.678
12110TIP3    H136266   3.128   6.047   6.762
12110TIP3    H236267   3.154   6.138   6.641
12111TIP3   OH236268   2.836   6.181   5.232
12111TIP3    H136269   2.805   6.154   5.144
12111TIP3    H236270   2.918   6.228   5.209
12112TIP3   OH236271   2.547   5.557   5.534
12112TIP3    H136272   2.517   5.552   5.627
12112TIP3    H236273   2.512   5.471   5.501
12113TIP3   OH236274   2.335   6.021   6.581
12113TIP3    H136275   2.287   6.044   6.664
12113TIP3    H236276   2.320   6.103   6.528
12114TIP3   OH236277   2.221   5.907   6.096
12114TIP3    H136278   2.128   5.880   6.114
12114TIP3    H236279   2.234   5.866   6.008
12115TIP3   OH236280   2.711   5.992   5.823
12115TIP3    H136281   2.658   6.064   5.781
12115TIP3    H236282   2.766   5.962   5.749
12116TIP3   OH236283   2.885   6.270   6.909
12116TIP3    H136284   2.863   6.199   6.972
12116TIP3    H236285   2.978   6.287   6.932
12117TIP3   OH236286   2.868   6.021   6.064
12117TIP3    H136287   2.808   6.052   5.992
12117TIP3    H236288   2.901   5.940   6.020
12118TIP3   OH236289   2.154   6.050   6.791
12118TIP3    H136290   2.181   6.115   6.858
12118TIP3    H236291   2.146   5.969   6.845
12119TIP3   OH236292   2.201   5.525   5.500
12119TIP3    H136293   2.198   5.524   5.598
12119TIP3    H236294   2.125   5.583   5.480
12120TIP3   OH236295   1.749   5.572   6.369
12120TIP3    H136296   1.822   5.605   6.426
12120TIP3    H236297   1.796   5.539   6.291
12121TIP3   OH236298   1.720   5.552   5.890
12121TIP3    H136299   1.769   5.590   5.813
12121TIP3    H236300   1.662   5.627   5.912
12122TIP3   OH236301   2.878   6.268   6.486
12122TIP3    H136302   2.911   6.196   6.427
12122TIP3    H236303   2.849   6.215   6.563
12123TIP3   OH236304   2.546   5.729   6.158
12123TIP3    H136305   2.465   5.728   6.212
12123TIP3    H236306   2.616   5.729   6.225
12124TIP3   OH236307   1.982   5.785   6.166
12124TIP3    H136308   1.888   5.791   6.139
12124TIP3    H236309   2.007   5.694   6.143
12125TIP3   OH236310   2.251   5.780   5.854
12125TIP3    H136311   2.346   5.796   5.835
12125TIP3    H236312   2.207   5.804   5.770
12126TIP3   OH236313   3.041   5.804   6.359
12126TIP3    H136314   3.006   5.817   6.450
12126TIP3    H236315   2.974   5.744   6.322
12127TIP3   OH236316   2.091   5.814   5.631
12127TIP3    H136317   2.020   5.771   5.580
12127TIP3    H236318   2.144   5.852   5.558
12128TIP3   OH236319   3.210   7.492   6.578
12128TIP3    H136320   3.207   7.520   6.485
12128TIP3    H236321   3.285   7.545   6.612
12129TIP3   OH236322   2.169   6.602   6.998
12129TIP3    H136323   2.248   6.635   7.047
12129TIP3    H236324   2.103   6.603   7.070
12130TIP3   OH236325   2.630   6.056   6.254
12130TIP3    H136326   2.705   6.019   6.204
12130TIP3    H236327   2.641   6.015   6.342
12131TIP3   OH236328   2.152   5.546   6.132
12131TIP3    H136329   2.120   5.466   6.179
12131TIP3    H236330   2.209   5.508   6.064
12132TIP3   OH236331   2.607   5.953   6.547
12132TIP3    H136332   2.518   5.991   6.560
12132TIP3    H236333   2.665   6.015   6.596
12133TIP3   OH236334   2.343   6.345   5.638
12133TIP3    H136335   2.270   6.280   5.628
12133TIP3    H236336   2.326   6.379   5.730
12134TIP3   OH236337   3.245   6.580   6.269
12134TIP3    H136338   3.269   6.631   6.189
12134TIP3    H236339   3.159   6.539   6.244
12135TIP3   OH236340   2.802   5.657   5.503
12135TIP3    H136341   2.705   5.642   5.510
12135TIP3    H236342   2.813   5.751   5.526
12136TIP3   OH236343   2.742   6.662   6.637
12136TIP3    H136344   2.766   6.643   6.729
12136TIP3    H236345   2.705   6.752   6.643
12137TIP3   OH236346   2.872   5.905   5.605
12137TIP3    H136347   2.968   5.910   5.621
12137TIP3    H236348   2.855   5.985   5.552
12138TIP3   OH236349   2.031   6.360   6.316
12138TIP3    H136350   2.075   6.336   6.232
12138TIP3    H236351   2.079   6.305   6.380
12139TIP3   OH236352   2.488   6.494   5.458
12139TIP3    H136353   2.441   6.580   5.464
12139TIP3    H236354   2.435   6.439   5.520
12140TIP3   OH236355   1.918   6.287   6.928
12140TIP3    H136356   1.942   6.278   7.023
12140TIP3    H236357   1.849   6.219   6.920
12141TIP3   OH236358   2.642   6.401   6.948
12141TIP3    H136359   2.583   6.341   6.900
12141TIP3    H236360   2.730   6.368   6.919
12142TIP3   OH236361   2.904   6.919   6.534
12142TIP3    H136362   2.807   6.921   6.546
12142TIP3    H236363   2.933   6.972   6.611
12143TIP3   OH236364   3.314   5.995   5.442
12143TIP3    H136365   3.252   5.950   5.380
12143TIP3    H236366   3.311   6.084   5.401
12144TIP3   OH236367   3.532   6.850   6.523
12144TIP3    H136368   3.434   6.847   6.514
12144TIP3    H236369   3.558   6.822   6.433
12145TIP3   OH236370   3.014   6.814   5.349
12145TIP3    H136371   2.988   6.745   5.412
12145TIP3    H236372   3.026   6.765   5.266
12146TIP3   OH236373   3.010   6.443   6.188
12146TIP3    H136374   2.917   6.419   6.201
12146TIP3    H236375   3.044   6.363   6.143
12147TIP3   OH236376   2.137   6.669   5.937
12147TIP3    H136377   2.139   6.752   5.885
12147TIP3    H236378   2.043   6.659   5.954
12148TIP3   OH236379   1.699   5.976   5.642
12148TIP3    H136380   1.748   6.058   5.662
12148TIP3    H236381   1.625   5.982   5.705
12149TIP3   OH236382   2.275   6.435   5.883
12149TIP3    H136383   2.240   6.525   5.900
12149TIP3    H236384   2.241   6.386   5.960
12150TIP3   OH236385   2.406   7.015   6.409
12150TIP3    H136386   2.447   7.088   6.359
12150TIP3    H236387   2.482   6.981   6.459
12151TIP3   OH236388   2.057   6.910   5.792
12151TIP3    H136389   1.971   6.919   5.838
12151TIP3    H236390   2.090   7.003   5.795
12152TIP3   OH236391   2.794   6.647   6.369
12152TIP3    H136392   2.784   6.647   6.467
12152TIP3    H236393   2.876   6.598   6.357
12153TIP3   OH236394   2.769   6.540   5.251
12153TIP3    H136395   2.823   6.515   5.329
12153TIP3    H236396   2.681   6.515   5.282
12154TIP3   OH236397   3.044   7.181   6.417
12154TIP3    H136398   2.963   7.126   6.409
12154TIP3    H236399   3.029   7.247   6.346
12155TIP3   OH236400   3.109   7.017   5.071
12155TIP3    H136401   3.146   7.090   5.019
12155TIP3    H236402   3.029   7.061   5.105
12156TIP3   OH236403   2.130   5.791   6.937
12156TIP3    H136404   2.035   5.798   6.956
12156TIP3    H236405   2.160   5.735   7.011
12157TIP3   OH236406   2.929   6.473   5.467
12157TIP3    H136407   2.919   6.409   5.539
12157TIP3    H236408   3.026   6.472   5.455
12158TIP3   OH236409   1.845   6.875   6.568
12158TIP3    H136410   1.901   6.806   6.607
12158TIP3    H236411   1.864   6.950   6.627
12159TIP3   OH236412   2.134   6.522   5.251
12159TIP3    H136413   2.151   6.430   5.223
12159TIP3    H236414   2.117   6.511   5.346
12160TIP3   OH236415   2.080   6.526   5.524
12160TIP3    H136416   2.153   6.501   5.582
12160TIP3    H236417   2.083   6.624   5.530
12161TIP3   OH236418   1.813   6.219   5.726
12161TIP3    H136419   1.750   6.266   5.784
12161TIP3    H236420   1.832   6.288   5.660
12162TIP3   OH236421   2.966   5.856   6.617
12162TIP3    H136422   3.045   5.895   6.659
12162TIP3    H236423   2.951   5.776   6.672
12163TIP3   OH236424   2.843   5.609   5.783
12163TIP3    H136425   2.832   5.632   5.689
12163TIP3    H236426   2.883   5.691   5.819
12164TIP3   OH236427   2.345   6.723   5.470
12164TIP3    H136428   2.259   6.751   5.507
12164TIP3    H236429   2.364   6.799   5.413
12165TIP3   OH236430   2.532   5.788   5.886
12165TIP3    H136431   2.598   5.859   5.867
12165TIP3    H236432   2.540   5.780   5.983
12166TIP3   OH236433   2.804   6.107   6.693
12166TIP3    H136434   2.824   6.162   6.771
12166TIP3    H236435   2.859   6.029   6.709
12167TIP3   OH236436   2.678   5.515   5.987
12167TIP3    H136437   2.674   5.591   6.048
12167TIP3    H236438   2.739   5.551   5.918
12168TIP3   OH236439   2.087   6.799   5.539
12168TIP3    H136440   2.059   6.869   5.476
12168TIP3    H236441   2.074   6.843   5.626
12169TIP3   OH236442   2.190   5.514   5.777
12169TIP3    H136443   2.190   5.604   5.814
12169TIP3    H236444   2.286   5.494   5.785
12170TIP3   OH236445   3.446   6.005   6.675
12170TIP3    H136446   3.348   6.004   6.682
12170TIP3    H236447   3.456   5.969   6.586
12171TIP3   OH236448   3.096   6.201   6.062
12171TIP3    H136449   3.020   6.141   6.074
12171TIP3    H236450   3.167   6.154   6.110
12172TIP3   OH236451   1.806   6.431   5.531
12172TIP3    H136452   1.870   6.503   5.543
12172TIP3    H236453   1.854   6.378   5.465
12173TIP3   OH236454   1.753   5.706   5.666
12173TIP3    H136455   1.756   5.803   5.660
12173TIP3    H236456   1.668   5.687   5.624
12174TIP3   OH236457   3.064   7.155   6.011
12174TIP3    H136458   3.022   7.201   5.935
12174TIP3    H236459   3.158   7.174   5.990
12175TIP3   OH236460   2.140   5.426   6.539
12175TIP3    H136461   2.109   5.392   6.452
12175TIP3    H236462   2.130   5.347   6.597
12176TIP3   OH236463   1.675   6.633   5.918
12176TIP3    H136464   1.611   6.674   5.978
12176TIP3    H236465   1.655   6.680   5.834
12177TIP3   OH236466   1.834   7.171   6.985
12177TIP3    H136467   1.920   7.176   7.032
12177TIP3    H236468   1.814   7.076   6.991
12178TIP3   OH236469   2.325   7.151   7.033
12178TIP3    H136470   2.417   7.122   7.040
12178TIP3    H236471   2.294   7.093   6.961
12179TIP3   OH236472   2.298   6.726   5.162
12179TIP3    H136473   2.242   6.655   5.202
12179TIP3    H236474   2.374   6.674   5.131
12180TIP3   OH236475   2.958   7.055   6.767
12180TIP3    H136476   2.948   6.987   6.837
12180TIP3    H236477   3.034   7.108   6.799
12181TIP3   OH236478   2.735   6.766   5.074
12181TIP3    H136479   2.780   6.704   5.133
12181TIP3    H236480   2.792   6.766   4.995
12182TIP3   OH236481   1.969   6.593   7.187
12182TIP3    H136482   1.981   6.497   7.200
12182TIP3    H236483   1.878   6.597   7.150
12183TIP3   OH236484   1.942   6.242   5.385
12183TIP3    H136485   1.999   6.211   5.458
12183TIP3    H236486   2.009   6.247   5.313
12184TIP3   OH236487   2.576   6.677   6.963
12184TIP3    H136488   2.532   6.694   6.878
12184TIP3    H236489   2.605   6.584   6.956
12185TIP3   OH236490   2.450   6.440   5.190
12185TIP3    H136491   2.455   6.454   5.287
12185TIP3    H236492   2.451   6.342   5.186
12186TIP3   OH236493   3.066   6.684   6.570
12186TIP3    H136494   3.141   6.730   6.527
12186TIP3    H236495   2.995   6.750   6.558
12187TIP3   OH236496   2.086   6.321   7.172
12187TIP3    H136497   2.163   6.264   7.158
12187TIP3    H236498   2.108   6.358   7.260
12188TIP3   OH236499   2.148   6.147   5.605
12188TIP3    H136500   2.126   6.106   5.691
12188TIP3    H236501   2.187   6.071   5.555
12189TIP3   OH236502   2.420   6.209   6.832
12189TIP3    H136503   2.343   6.270   6.836
12189TIP3    H236504   2.470   6.245   6.756
12190TIP3   OH236505   2.252   5.939   5.448
12190TIP3    H136506   2.227   5.943   5.353
12190TIP3    H236507   2.350   5.943   5.441
12191TIP3   OH236508   2.935   6.612   6.968
12191TIP3    H136509   3.018   6.590   6.923
12191TIP3    H236510   2.933   6.546   7.040
12192TIP3   OH236511   3.074   6.271   5.110
12192TIP3    H136512   3.053   6.225   5.026
12192TIP3    H236513   3.041   6.361   5.086
12193TIP3   OH236514   2.544   5.999   6.959
12193TIP3    H136515   2.543   5.919   6.902
12193TIP3    H236516   2.500   6.065   6.902
12194TIP3   OH236517   2.546   5.783   6.767
12194TIP3    H136518   2.573   5.827   6.684
12194TIP3    H236519   2.452   5.762   6.749
12195TIP3   OH236520   2.573   6.319   6.639
12195TIP3    H136521   2.657   6.332   6.594
12195TIP3    H236522   2.516   6.387   6.597
12196TIP3   OH236523   3.155   6.287   7.022
12196TIP3    H136524   3.207   6.206   7.031
12196TIP3    H236525   3.221   6.349   6.988
12197TIP3   OH236526   3.197   6.540   6.758
12197TIP3    H136527   3.138   6.593   6.699
12197TIP3    H236528   3.284   6.562   6.717
12198TIP3   OH236529   2.423   6.111   7.189
12198TIP3    H136530   2.352   6.046   7.206
12198TIP3    H236531   2.456   6.082   7.102
12199TIP3   OH236532   2.678   5.548   6.835
12199TIP3    H136533   2.629   5.630   6.812
12199TIP3    H236534   2.609   5.480   6.823
12200TIP3   OH236535   2.805   6.052   7.051
12200TIP3    H136536   2.791   6.042   7.146
12200TIP3    H236537   2.715   6.029   7.019
12201TIP3   OH236538   3.043   6.000   6.905
12201TIP3    H136539   2.967   6.005   6.967
12201TIP3    H236540   3.116   5.971   6.964
12202TIP3   OH236541   3.277   5.944   7.057
12202TIP3    H136542   3.285   5.848   7.076
12202TIP3    H236543   3.269   5.983   7.147
12203TIP3   OH236544   2.259   5.891   7.242
12203TIP3    H136545   2.268   5.800   7.211
12203TIP3    H236546   2.295   5.883   7.333
12204TIP3   OH236547   2.773   5.557   7.093
12204TIP3    H136548   2.840   5.486   7.085
12204TIP3    H236549   2.732   5.553   7.004
12205TIP3   OH236550   2.839   5.774   7.251
12205TIP3    H136551   2.816   5.704   7.187
12205TIP3    H236552   2.761   5.834   7.246
12206TIP3   OH236553   2.058   6.999   5.349
12206TIP3    H136554   2.154   6.996   5.333
12206TIP3    H236555   2.030   7.052   5.272
12207TIP3   OH236556   1.538   6.383   5.565
12207TIP3    H136557   1.633   6.407   5.554
12207TIP3    H236558   1.536   6.294   5.526
12208TIP3   OH236559   1.454   6.995   5.981
12208TIP3    H136560   1.386   6.933   5.946
12208TIP3    H236561   1.498   6.938   6.048
12209TIP3   OH236562   1.593   6.845   6.167
12209TIP3    H136563   1.580   6.775   6.233
12209TIP3    H236564   1.641   6.910   6.220
12210TIP3   OH236565   3.318   7.246   5.968
12210TIP3    H136566   3.340   7.280   6.056
12210TIP3    H236567   3.375   7.299   5.910
12211TIP3   OH236568   3.344   7.267   6.248
12211TIP3    H136569   3.303   7.178   6.246
12211TIP3    H236570   3.420   7.250   6.306
12212TIP3   OH236571   3.393   6.943   6.824
12212TIP3    H136572   3.319   6.953   6.887
12212TIP3    H236573   3.433   7.033   6.827
12213TIP3   OH236574   3.208   6.458   5.444
12213TIP3    H136575   3.277   6.522   5.415
12213TIP3    H236576   3.251   6.419   5.523
12214TIP3   OH236577   3.336   6.326   5.647
12214TIP3    H136578   3.270   6.283   5.706
12214TIP3    H236579   3.400   6.364   5.710
12215TIP3   OH236580   3.390   6.717   6.079
12215TIP3    H136581   3.443   6.653   6.028
12215TIP3    H236582   3.383   6.792   6.017
12216TIP3   OH236583   3.222   7.016   6.275
12216TIP3    H136584   3.151   7.062   6.326
12216TIP3    H236585   3.170   6.970   6.205
12217TIP3   OH236586   3.275   6.234   5.293
12217TIP3    H136587   3.203   6.236   5.226
12217TIP3    H236588   3.246   6.309   5.349
12218TIP3   OH236589   3.144   5.908   5.249
12218TIP3    H136590   3.104   5.943   5.169
12218TIP3    H236591   3.120   5.813   5.242
12219TIP3   OH236592   3.150   6.182   5.793
12219TIP3    H136593   3.158   6.085   5.787
12219TIP3    H236594   3.136   6.196   5.889
12220TIP3   OH236595   1.777   6.256   6.539
12220TIP3    H136596   1.777   6.227   6.446
12220TIP3    H236597   1.874   6.257   6.557
12221TIP3   OH236598   3.439   6.606   6.650
12221TIP3    H136599   3.512   6.542   6.640
12221TIP3    H236600   3.466   6.677   6.589
12222TIP3   OH236601   3.625   6.412   6.666
12222TIP3    H136602   3.550   6.362   6.706
12222TIP3    H236603   3.697   6.347   6.681
12223TIP3   OH236604   3.087   5.643   5.238
12223TIP3    H136605   3.165   5.610   5.288
12223TIP3    H236606   3.018   5.579   5.259
12224TIP3   OH236607   3.146   5.898   5.688
12224TIP3    H136608   3.186   5.809   5.704
12224TIP3    H236609   3.205   5.930   5.618
12225TIP3   OH236610   3.309   6.072   6.183
12225TIP3    H136611   3.395   6.098   6.143
12225TIP3    H236612   3.322   6.109   6.273
12226TIP3   OH236613   3.377   6.216   6.416
12226TIP3    H136614   3.299   6.250   6.464
12226TIP3    H236615   3.409   6.297   6.370
12227TIP3   OH236616   1.992   5.939   7.205
12227TIP3    H136617   2.090   5.938   7.214
12227TIP3    H236618   1.970   5.857   7.253
12228TIP3   OH236619   3.835   5.809   6.973
12228TIP3    H136620   3.890   5.741   6.927
12228TIP3    H236621   3.801   5.861   6.897
12229TIP3   OH236622   3.254   5.648   5.727
12229TIP3    H136623   3.304   5.632   5.810
12229TIP3    H236624   3.195   5.571   5.725
12230TIP3   OH236625   1.954   5.634   6.544
12230TIP3    H136626   2.017   5.560   6.555
12230TIP3    H236627   2.016   5.709   6.539
12231TIP3   OH236628   1.757   5.907   6.617
12231TIP3    H136629   1.809   5.906   6.534
12231TIP3    H236630   1.784   5.991   6.655
12232TIP3   OH236631   3.699   5.944   6.781
12232TIP3    H136632   3.613   5.988   6.800
12232TIP3    H236633   3.669   5.875   6.719
12233TIP3   OH236634   3.337   5.582   5.357
12233TIP3    H136635   3.375   5.509   5.304
12233TIP3    H236636   3.405   5.652   5.351
12234TIP3   OH236637   1.741   5.407   6.116
12234TIP3    H136638   1.649   5.409   6.147
12234TIP3    H236639   1.739   5.468   6.040
12235TIP3   OH236640   2.900   7.114   5.624
12235TIP3    H136641   2.954   7.103   5.543
12235TIP3    H236642   2.949   7.181   5.673
12236TIP3   OH236643   1.961   5.487   6.932
12236TIP3    H136644   1.913   5.487   7.016
12236TIP3    H236645   1.894   5.529   6.873
12237TIP3   OH236646   2.005   6.912   7.012
12237TIP3    H136647   1.912   6.890   6.994
12237TIP3    H236648   2.008   6.903   7.108
12238TIP3   OH236649   2.180   6.949   6.557
12238TIP3    H136650   2.131   7.025   6.520
12238TIP3    H236651   2.266   6.965   6.513
12239TIP3   OH236652   2.626   7.193   6.695
12239TIP3    H136653   2.667   7.196   6.784
12239TIP3    H236654   2.692   7.245   6.643
12240TIP3   OH236655   2.805   7.346   6.555
12240TIP3    H136656   2.877   7.297   6.514
12240TIP3    H236657   2.855   7.404   6.616
12241TIP3   OH236658   3.598   5.710   6.655
12241TIP3    H136659   3.507   5.705   6.620
12241TIP3    H236660   3.627   5.617   6.643
12242TIP3   OH236661   1.856   7.205   6.584
12242TIP3    H136662   1.767   7.241   6.560
12242TIP3    H236663   1.872   7.250   6.668
12243TIP3   OH236664   2.091   7.185   6.439
12243TIP3    H136665   2.005   7.198   6.485
12243TIP3    H236666   2.072   7.220   6.350
12244TIP3   OH236667   2.519   7.215   6.236
12244TIP3    H136668   2.449   7.237   6.172
12244TIP3    H236669   2.532   7.302   6.280
12245TIP3   OH236670   2.787   7.153   6.287
12245TIP3    H136671   2.693   7.172   6.269
12245TIP3    H236672   2.831   7.231   6.249
12246TIP3   OH236673   2.994   7.345   6.205
12246TIP3    H136674   2.980   7.431   6.158
12246TIP3    H236675   3.020   7.287   6.130
12247TIP3   OH236676   1.767   7.001   6.325
12247TIP3    H136677   1.793   6.978   6.416
12247TIP3    H236678   1.840   6.957   6.276
12248TIP3   OH236679   1.962   6.872   6.182
12248TIP3    H136680   1.977   6.789   6.232
12248TIP3    H236681   2.052   6.910   6.179
12249TIP3   OH236682   2.226   6.967   6.187
12249TIP3    H136683   2.259   6.876   6.177
12249TIP3    H236684   2.270   6.992   6.270
12250TIP3   OH236685   2.802   5.624   6.271
12250TIP3    H136686   2.760   5.554   6.325
12250TIP3    H236687   2.876   5.576   6.230
12251TIP3   OH236688   3.327   5.506   6.181
12251TIP3    H136689   3.363   5.556   6.105
12251TIP3    H236690   3.231   5.523   6.172
12252TIP3   OH236691   3.421   5.605   5.944
12252TIP3    H136692   3.494   5.553   5.903
12252TIP3    H236693   3.454   5.696   5.928
12253TIP3   OH236694   2.051   5.333   6.289
12253TIP3    H136695   1.960   5.299   6.293
12253TIP3    H236696   2.101   5.248   6.287
12254TIP3   OH236697   1.829   5.204   5.935
12254TIP3    H136698   1.867   5.261   5.866
12254TIP3    H236699   1.808   5.268   6.005
12255TIP3   OH236700   2.493   5.367   6.171
12255TIP3    H136701   2.552   5.414   6.111
12255TIP3    H236702   2.519   5.404   6.257
12256TIP3   OH236703   3.042   5.512   6.154
12256TIP3    H136704   3.043   5.475   6.065
12256TIP3    H236705   3.029   5.431   6.209
12257TIP3   OH236706   3.072   5.435   5.717
12257TIP3    H136707   2.984   5.476   5.727
12257TIP3    H236708   3.058   5.349   5.763
12258TIP3   OH236709   1.555   6.773   5.719
12258TIP3    H136710   1.469   6.744   5.683
12258TIP3    H236711   1.547   6.869   5.705
12259TIP3   OH236712   1.956   5.365   5.699
12259TIP3    H136713   2.005   5.301   5.644
12259TIP3    H236714   2.029   5.418   5.736
12260TIP3   OH236715   2.468   5.537   5.800
12260TIP3    H136716   2.529   5.490   5.860
12260TIP3    H236717   2.490   5.630   5.826
12261TIP3   OH236718   2.327   6.962   5.300
12261TIP3    H136719   2.415   6.985   5.264
12261TIP3    H236720   2.305   6.887   5.240
12262TIP3   OH236721   3.048   7.081   5.392
12262TIP3    H136722   3.038   6.983   5.380
12262TIP3    H236723   3.001   7.113   5.313
12263TIP3   OH236724   2.260   5.612   7.177
12263TIP3    H136725   2.224   5.545   7.237
12263TIP3    H236726   2.354   5.613   7.207
12264TIP3   OH236727   2.508   5.608   7.298
12264TIP3    H136728   2.594   5.585   7.261
12264TIP3    H236729   2.496   5.539   7.366
12265TIP3   OH236730   1.629   6.794   5.357
12265TIP3    H136731   1.632   6.828   5.447
12265TIP3    H236732   1.719   6.757   5.345
12266TIP3   OH236733   3.334   5.671   7.088
12266TIP3    H136734   3.353   5.641   7.179
12266TIP3    H236735   3.422   5.667   7.046
12267TIP3   OH236736   3.274   7.225   6.579
12267TIP3    H136737   3.194   7.194   6.531
12267TIP3    H236738   3.255   7.321   6.583
12268TIP3   OH236739   4.542   6.599   5.346
12268TIP3    H136740   4.509   6.689   5.325
12268TIP3    H236741   4.467   6.546   5.316
12269TIP3   OH236742   4.542   6.597   5.726
12269TIP3    H136743   4.570   6.567   5.814
12269TIP3    H236744   4.499   6.517   5.691
12270TIP3   OH236745   3.838   6.493   6.091
12270TIP3    H136746   3.869   6.425   6.154
12270TIP3    H236747   3.915   6.551   6.088
12271TIP3   OH236748   4.793   6.894   5.409
12271TIP3    H136749   4.761   6.828   5.471
12271TIP3    H236750   4.804   6.973   5.464
12272TIP3   OH236751   3.808   6.902   5.816
12272TIP3    H136752   3.799   6.805   5.819
12272TIP3    H236753   3.905   6.911   5.815
12273TIP3   OH236754   3.516   6.106   5.603
12273TIP3    H136755   3.466   6.189   5.617
12273TIP3    H236756   3.446   6.050   5.564
12274TIP3   OH236757   3.575   6.392   5.774
12274TIP3    H136758   3.623   6.315   5.811
12274TIP3    H236759   3.633   6.420   5.703
12275TIP3   OH236760   4.425   7.360   5.421
12275TIP3    H136761   4.478   7.288   5.379
12275TIP3    H236762   4.420   7.331   5.513
12276TIP3   OH236763   4.337   6.823   5.775
12276TIP3    H136764   4.374   6.746   5.729
12276TIP3    H236765   4.421   6.867   5.800
12277TIP3   OH236766   5.337   6.161   5.753
12277TIP3    H136767   5.385   6.224   5.811
12277TIP3    H236768   5.402   6.147   5.680
12278TIP3   OH236769   4.756   6.326   5.806
12278TIP3    H136770   4.791   6.237   5.827
12278TIP3    H236771   4.718   6.310   5.718
12279TIP3   OH236772   4.087   5.984   5.774
12279TIP3    H136773   4.066   6.056   5.711
12279TIP3    H236774   4.040   5.910   5.729
12280TIP3   OH236775   4.780   6.077   5.395
12280TIP3    H136776   4.851   6.059   5.460
12280TIP3    H236777   4.833   6.106   5.319
12281TIP3   OH236778   3.720   6.186   5.880
12281TIP3    H136779   3.803   6.166   5.928
12281TIP3    H236780   3.733   6.129   5.801
12282TIP3   OH236781   4.162   6.384   5.672
12282TIP3    H136782   4.255   6.358   5.686
12282TIP3    H236783   4.122   6.300   5.641
12283TIP3   OH236784   5.421   6.351   5.938
12283TIP3    H136785   5.333   6.394   5.931
12283TIP3    H236786   5.442   6.370   6.031
12284TIP3   OH236787   4.083   5.968   6.208
12284TIP3    H136788   4.024   6.004   6.140
12284TIP3    H236789   4.031   5.986   6.289
12285TIP3   OH236790   4.432   6.821   5.221
12285TIP3    H136791   4.387   6.794   5.140
12285TIP3    H236792   4.390   6.907   5.240
12286TIP3   OH236793   4.190   6.743   6.004
12286TIP3    H136794   4.127   6.808   6.042
12286TIP3    H236795   4.231   6.795   5.932
12287TIP3   OH236796   4.985   6.077   5.569
12287TIP3    H136797   4.985   6.009   5.639
12287TIP3    H236798   5.061   6.132   5.591
12288TIP3   OH236799   3.954   6.082   5.992
12288TIP3    H136800   4.017   6.154   6.015
12288TIP3    H236801   4.002   6.041   5.917
12289TIP3   OH236802   4.017   6.936   6.099
12289TIP3    H136803   3.992   7.023   6.063
12289TIP3    H236804   3.939   6.920   6.156
12290TIP3   OH236805   3.413   6.626   5.337
12290TIP3    H136806   3.370   6.655   5.255
12290TIP3    H236807   3.444   6.711   5.374
12291TIP3   OH236808   4.856   7.138   5.572
12291TIP3    H136809   4.768   7.132   5.616
12291TIP3    H236810   4.847   7.226   5.529
12292TIP3   OH236811   5.143   6.050   5.942
12292TIP3    H136812   5.051   6.065   5.913
12292TIP3    H236813   5.194   6.076   5.864
12293TIP3   OH236814   4.441   5.686   5.922
12293TIP3    H136815   4.426   5.591   5.937
12293TIP3    H236816   4.362   5.724   5.968
12294TIP3   OH236817   4.559   7.186   5.256
12294TIP3    H136818   4.607   7.104   5.232
12294TIP3    H236819   4.618   7.252   5.213
12295TIP3   OH236820   4.700   6.972   5.159
12295TIP3    H136821   4.665   6.894   5.114
12295TIP3    H236822   4.738   6.933   5.240
12296TIP3   OH236823   5.082   7.054   5.922
12296TIP3    H136824   5.071   6.979   5.861
12296TIP3    H236825   5.059   7.131   5.865
12297TIP3   OH236826   4.372   6.451   5.178
12297TIP3    H136827   4.291   6.499   5.153
12297TIP3    H236828   4.418   6.442   5.092
12298TIP3   OH236829   4.328   6.236   4.892
12298TIP3    H136830   4.398   6.284   4.940
12298TIP3    H236831   4.382   6.169   4.846
12299TIP3   OH236832   5.283   6.687   5.701
12299TIP3    H136833   5.201   6.736   5.721
12299TIP3    H236834   5.350   6.749   5.740
12300TIP3   OH236835   4.719   6.532   5.149
12300TIP3    H136836   4.663   6.555   5.227
12300TIP3    H236837   4.801   6.505   5.193
12301TIP3   OH236838   4.952   6.572   6.059
12301TIP3    H136839   4.950   6.654   6.112
12301TIP3    H236840   4.863   6.575   6.018
12302TIP3   OH236841   3.951   6.530   5.565
12302TIP3    H136842   3.908   6.472   5.498
12302TIP3    H236843   4.026   6.475   5.594
12303TIP3   OH236844   4.081   6.942   5.713
12303TIP3    H136845   4.058   6.895   5.632
12303TIP3    H236846   4.171   6.908   5.733
12304TIP3   OH236847   4.089   6.499   5.921
12304TIP3    H136848   4.120   6.479   5.830
12304TIP3    H236849   4.130   6.586   5.939
12305TIP3   OH236850   4.620   7.135   5.697
12305TIP3    H136851   4.600   7.218   5.745
12305TIP3    H236852   4.599   7.066   5.763
12306TIP3   OH236853   4.224   7.055   6.244
12306TIP3    H136854   4.165   7.119   6.290
12306TIP3    H236855   4.157   7.003   6.194
12307TIP3   OH236856   4.554   6.394   4.973
12307TIP3    H136857   4.617   6.449   5.025
12307TIP3    H236858   4.582   6.416   4.881
12308TIP3   OH236859   3.978   6.612   6.345
12308TIP3    H136860   3.983   6.700   6.389
12308TIP3    H236861   3.883   6.593   6.356
12309TIP3   OH236862   4.300   7.070   5.239
12309TIP3    H136863   4.377   7.121   5.270
12309TIP3    H236864   4.236   7.139   5.218
12310TIP3   OH236865   4.019   7.223   6.331
12310TIP3    H136866   3.982   7.225   6.241
12310TIP3    H236867   3.939   7.202   6.385
12311TIP3   OH236868   3.816   6.373   5.370
12311TIP3    H136869   3.747   6.415   5.315
12311TIP3    H236870   3.779   6.285   5.383
12312TIP3   OH236871   4.873   6.997   4.573
12312TIP3    H136872   4.884   7.093   4.557
12312TIP3    H236873   4.966   6.966   4.560
12313TIP3   OH236874   3.596   6.755   6.278
12313TIP3    H136875   3.530   6.734   6.209
12313TIP3    H236876   3.633   6.668   6.301
12314TIP3   OH236877   3.450   6.949   5.911
12314TIP3    H136878   3.547   6.946   5.904
12314TIP3    H236879   3.437   7.029   5.964
12315TIP3   OH236880   5.316   7.397   5.966
12315TIP3    H136881   5.315   7.301   5.983
12315TIP3    H236882   5.233   7.424   6.011
12316TIP3   OH236883   4.422   7.185   6.101
12316TIP3    H136884   4.421   7.278   6.133
12316TIP3    H236885   4.350   7.146   6.156
12317TIP3   OH236886   4.180   7.315   5.051
12317TIP3    H136887   4.131   7.304   4.968
12317TIP3    H236888   4.151   7.403   5.081
12318TIP3   OH236889   3.621   7.164   5.436
12318TIP3    H136890   3.668   7.156   5.522
12318TIP3    H236891   3.560   7.089   5.443
12319TIP3   OH236892   4.382   7.210   4.693
12319TIP3    H136893   4.445   7.145   4.657
12319TIP3    H236894   4.418   7.225   4.783
12320TIP3   OH236895   4.432   7.263   4.962
12320TIP3    H136896   4.345   7.275   5.006
12320TIP3    H236897   4.486   7.226   5.034
12321TIP3   OH236898   5.202   6.527   6.243
12321TIP3    H136899   5.119   6.542   6.195
12321TIP3    H236900   5.217   6.431   6.229
12322TIP3   OH236901   3.802   6.937   6.265
12322TIP3    H136902   3.850   6.923   6.349
12322TIP3    H236903   3.727   6.875   6.274
12323TIP3   OH236904   4.201   5.762   6.051
12323TIP3    H136905   4.113   5.730   6.023
12323TIP3    H236906   4.175   5.844   6.096
12324TIP3   OH236907   4.734   5.878   6.245
12324TIP3    H136908   4.802   5.849   6.309
12324TIP3    H236909   4.650   5.857   6.291
12325TIP3   OH236910   4.977   6.310   6.166
12325TIP3    H136911   4.925   6.302   6.250
12325TIP3    H236912   4.945   6.394   6.130
12326TIP3   OH236913   4.632   6.446   4.720
12326TIP3    H136914   4.601   6.412   4.634
12326TIP3    H236915   4.719   6.483   4.694
12327TIP3   OH236916   4.344   5.815   5.020
12327TIP3    H136917   4.313   5.810   5.113
12327TIP3    H236918   4.310   5.730   4.987
12328TIP3   OH236919   4.133   6.277   6.070
12328TIP3    H136920   4.082   6.298   6.150
12328TIP3    H236921   4.118   6.358   6.016
12329TIP3   OH236922   4.016   6.165   5.584
12329TIP3    H136923   3.923   6.137   5.601
12329TIP3    H236924   4.030   6.124   5.495
12330TIP3   OH236925   4.511   6.252   5.313
12330TIP3    H136926   4.457   6.320   5.268
12330TIP3    H236927   4.564   6.216   5.240
12331TIP3   OH236928   4.682   6.527   6.396
12331TIP3    H136929   4.660   6.455   6.459
12331TIP3    H236930   4.775   6.544   6.420
12332TIP3   OH236931   4.665   6.280   5.548
12332TIP3    H136932   4.603   6.304   5.477
12332TIP3    H236933   4.701   6.198   5.506
12333TIP3   OH236934   3.952   6.307   6.277
12333TIP3    H136935   3.976   6.372   6.345
12333TIP3    H236936   3.941   6.225   6.330
12334TIP3   OH236937   4.001   5.785   4.987
12334TIP3    H136938   3.994   5.780   5.084
12334TIP3    H236939   3.920   5.833   4.965
12335TIP3   OH236940   3.544   5.829   5.859
12335TIP3    H136941   3.621   5.860   5.911
12335TIP3    H236942   3.582   5.796   5.777
12336TIP3   OH236943   3.519   5.810   5.378
12336TIP3    H136944   3.564   5.847   5.300
12336TIP3    H236945   3.457   5.883   5.398
12337TIP3   OH236946   4.680   6.524   5.974
12337TIP3    H136947   4.711   6.452   5.914
12337TIP3    H236948   4.647   6.471   6.049
12338TIP3   OH236949   4.345   5.992   5.646
12338TIP3    H136950   4.262   5.986   5.697
12338TIP3    H236951   4.412   5.982   5.716
12339TIP3   OH236952   3.778   6.041   5.653
12339TIP3    H136953   3.684   6.048   5.625
12339TIP3    H236954   3.801   5.950   5.629
12340TIP3   OH236955   4.046   6.039   5.342
12340TIP3    H136956   4.141   6.051   5.321
12340TIP3    H236957   4.001   6.061   5.257
12341TIP3   OH236958   4.838   6.062   5.850
12341TIP3    H136959   4.799   6.073   5.940
12341TIP3    H236960   4.775   6.001   5.809
12342TIP3   OH236961   3.887   6.075   5.120
12342TIP3    H136962   3.815   6.028   5.074
12342TIP3    H236963   3.939   6.107   5.043
12343TIP3   OH236964   5.006   7.749   6.065
12343TIP3    H136965   5.002   7.777   5.972
12343TIP3    H236966   5.082   7.801   6.097
12344TIP3   OH236967   3.964   6.859   6.487
12344TIP3    H136968   4.043   6.891   6.535
12344TIP3    H236969   3.898   6.861   6.560
12345TIP3   OH236970   4.428   6.317   5.744
12345TIP3    H136971   4.494   6.271   5.691
12345TIP3    H236972   4.434   6.271   5.830
12346TIP3   OH236973   3.952   5.802   5.620
12346TIP3    H136974   3.917   5.722   5.665
12346TIP3    H236975   4.002   5.763   5.547
12347TIP3   OH236976   4.404   6.211   6.032
12347TIP3    H136977   4.313   6.246   6.045
12347TIP3    H236978   4.460   6.273   6.082
12348TIP3   OH236979   4.140   6.605   5.123
12348TIP3    H136980   4.070   6.536   5.115
12348TIP3    H236981   4.124   6.637   5.215
12349TIP3   OH236982   5.043   6.833   5.743
12349TIP3    H136983   5.022   6.887   5.666
12349TIP3    H236984   4.958   6.785   5.754
12350TIP3   OH236985   4.599   5.914   4.989
12350TIP3    H136986   4.503   5.895   4.998
12350TIP3    H236987   4.606   6.008   5.016
12351TIP3   OH236988   4.542   6.922   6.123
12351TIP3    H136989   4.561   6.898   6.215
12351TIP3    H236990   4.501   7.010   6.131
12352TIP3   OH236991   4.668   6.164   5.094
12352TIP3    H136992   4.765   6.164   5.105
12352TIP3    H236993   4.653   6.240   5.035
12353TIP3   OH236994   3.833   6.624   5.803
12353TIP3    H136995   3.872   6.594   5.718
12353TIP3    H236996   3.871   6.560   5.865
12354TIP3   OH236997   4.278   6.749   4.931
12354TIP3    H136998   4.234   6.835   4.943
12354TIP3    H236999   4.232   6.694   4.998
12355TIP3   OH237000   3.714   6.542   6.415
12355TIP3    H137001   3.733   6.530   6.510
12355TIP3    H237002   3.643   6.477   6.400
12356TIP3   OH237003   4.439   6.657   6.436
12356TIP3    H137004   4.379   6.599   6.387
12356TIP3    H237005   4.526   6.624   6.407
12357TIP3   OH237006   4.701   7.176   6.019
12357TIP3    H137007   4.605   7.177   6.032
12357TIP3    H237008   4.730   7.229   6.097
12358TIP3   OH237009   5.112   6.250   4.929
12358TIP3    H137010   5.051   6.201   4.869
12358TIP3    H237011   5.109   6.336   4.884
12359TIP3   OH237012   5.338   7.101   6.001
12359TIP3    H137013   5.241   7.097   5.986
12359TIP3    H237014   5.372   7.065   5.917
12360TIP3   OH237015   4.804   7.070   4.835
12360TIP3    H137016   4.790   6.996   4.895
12360TIP3    H237017   4.827   7.025   4.751
12361TIP3   OH237018   4.807   6.696   5.682
12361TIP3    H137019   4.713   6.675   5.693
12361TIP3    H237020   4.837   6.619   5.630
12362TIP3   OH237021   3.932   6.926   5.422
12362TIP3    H137022   3.929   7.010   5.372
12362TIP3    H237023   3.839   6.912   5.442
12363TIP3   OH237024   3.496   6.232   5.130
12363TIP3    H137025   3.542   6.316   5.152
12363TIP3    H237026   3.419   6.236   5.191
12364TIP3   OH237027   4.074   6.693   5.370
12364TIP3    H137028   4.036   6.781   5.388
12364TIP3    H237029   4.038   6.641   5.445
12365TIP3   OH237030   4.202   7.271   5.896
12365TIP3    H137031   4.242   7.345   5.847
12365TIP3    H237032   4.278   7.238   5.947
12366TIP3   OH237033   3.853   7.167   5.279
12366TIP3    H137034   3.767   7.174   5.325
12366TIP3    H237035   3.884   7.260   5.283
12367TIP3   OH237036   4.590   6.903   5.856
12367TIP3    H137037   4.578   6.906   5.954
12367TIP3    H237038   4.670   6.849   5.849
12368TIP3   OH237039   4.559   6.796   4.742
12368TIP3    H137040   4.622   6.773   4.815
12368TIP3    H237041   4.477   6.768   4.785
12369TIP3   OH237042   4.842   7.435   5.902
12369TIP3    H137043   4.761   7.381   5.896
12369TIP3    H237044   4.826   7.502   5.831
12370TIP3   OH237045   4.905   7.273   4.557
12370TIP3    H137046   4.945   7.345   4.506
12370TIP3    H237047   4.825   7.319   4.590
12371TIP3   OH237048   3.924   6.050   6.424
12371TIP3    H137049   3.827   6.054   6.437
12371TIP3    H237050   3.951   5.989   6.495
12372TIP3   OH237051   4.721   6.736   4.956
12372TIP3    H137052   4.714   6.666   5.025
12372TIP3    H237053   4.818   6.732   4.939
12373TIP3   OH237054   3.642   7.132   6.055
12373TIP3    H137055   3.696   7.061   6.092
12373TIP3    H237056   3.664   7.206   6.113
12374TIP3   OH237057   3.926   6.748   4.739
12374TIP3    H137058   3.930   6.650   4.734
12374TIP3    H237059   3.904   6.759   4.835
12375TIP3   OH237060   3.881   6.786   5.002
12375TIP3    H137061   3.943   6.754   5.067
12375TIP3    H237062   3.883   6.884   5.017
12376TIP3   OH237063   3.612   6.478   5.213
12376TIP3    H137064   3.546   6.520   5.271
12376TIP3    H237065   3.624   6.548   5.146
12377TIP3   OH237066   4.760   6.115   6.107
12377TIP3    H137067   4.841   6.150   6.148
12377TIP3    H237068   4.744   6.033   6.159
12378TIP3   OH237069   4.606   5.886   5.274
12378TIP3    H137070   4.619   5.889   5.177
12378TIP3    H237071   4.672   5.950   5.306
12379TIP3   OH237072   4.135   6.983   4.932
12379TIP3    H137073   4.056   7.001   4.986
12379TIP3    H237074   4.163   7.074   4.913
12380TIP3   OH237075   4.327   6.048   5.374
12380TIP3    H137076   4.398   6.112   5.354
12380TIP3    H237077   4.335   6.039   5.471
12381TIP3   OH237078   4.601   6.364   6.179
12381TIP3    H137079   4.621   6.418   6.258
12381TIP3    H237080   4.654   6.284   6.193
12382TIP3   OH237081   4.474   5.772   5.479
12382TIP3    H137082   4.468   5.851   5.535
12382TIP3    H237083   4.527   5.808   5.404
12383TIP3   OH237084   3.886   7.057   5.028
12383TIP3    H137085   3.854   7.127   4.966
12383TIP3    H237086   3.868   7.099   5.115
12384TIP3   OH237087   3.986   5.770   5.264
12384TIP3    H137088   3.986   5.860   5.301
12384TIP3    H237089   4.082   5.749   5.271
12385TIP3   OH237090   5.241   6.260   6.155
12385TIP3    H137091   5.144   6.264   6.168
12385TIP3    H237092   5.244   6.206   6.075
12386TIP3   OH237093   4.889   6.459   5.547
12386TIP3    H137094   4.811   6.400   5.558
12386TIP3    H237095   4.959   6.411   5.594
12387TIP3   OH237096   3.604   6.686   5.020
12387TIP3    H137097   3.662   6.763   5.027
12387TIP3    H237098   3.653   6.634   4.952
12388TIP3   OH237099   3.549   5.963   5.154
12388TIP3    H137100   3.546   6.060   5.148
12388TIP3    H237101   3.469   5.937   5.107
12389TIP3   OH237102   4.861   7.406   5.494
12389TIP3    H137103   4.816   7.455   5.421
12389TIP3    H237104   4.954   7.433   5.476
12390TIP3   OH237105   3.936   5.682   6.026
12390TIP3    H137106   3.905   5.649   5.939
12390TIP3    H237107   3.925   5.603   6.083
12391TIP3   OH237108   3.474   6.897   5.405
12391TIP3    H137109   3.406   6.930   5.466
12391TIP3    H237110   3.446   6.940   5.321
12392TIP3   OH237111   3.632   7.441   6.477
12392TIP3    H137112   3.717   7.442   6.525
12392TIP3    H237113   3.611   7.346   6.477
12393TIP3   OH237114   4.113   7.406   6.525
12393TIP3    H137115   4.208   7.391   6.529
12393TIP3    H237116   4.088   7.348   6.450
12394TIP3   OH237117   4.086   6.977   4.645
12394TIP3    H137118   4.078   6.944   4.737
12394TIP3    H237119   4.181   6.967   4.627
12395TIP3   OH237120   4.757   7.310   6.252
12395TIP3    H137121   4.745   7.243   6.323
12395TIP3    H237122   4.831   7.364   6.286
12396TIP3   OH237123   4.526   7.018   4.557
12396TIP3    H137124   4.575   6.961   4.618
12396TIP3    H237125   4.587   7.022   4.480
12397TIP3   OH237126   3.763   6.848   6.678
12397TIP3    H137127   3.778   6.752   6.682
12397TIP3    H237128   3.675   6.852   6.634
12398TIP3   OH237129   3.744   6.502   4.869
12398TIP3    H137130   3.793   6.462   4.944
12398TIP3    H237131   3.810   6.497   4.798
12399TIP3   OH237132   4.371   6.933   6.451
12399TIP3    H137133   4.328   6.951   6.365
12399TIP3    H237134   4.400   6.840   6.443
12400TIP3   OH237135   4.212   6.688   4.668
12400TIP3    H137136   4.233   6.707   4.762
12400TIP3    H237137   4.237   6.592   4.667
12401TIP3   OH237138   4.863   6.938   6.053
12401TIP3    H137139   4.937   6.992   6.018
12401TIP3    H237140   4.789   7.002   6.045
12402TIP3   OH237141   3.881   6.581   6.660
12402TIP3    H137142   3.958   6.527   6.639
12402TIP3    H237143   3.907   6.616   6.748
12403TIP3   OH237144   3.948   6.404   5.092
12403TIP3    H137145   3.920   6.364   5.175
12403TIP3    H237146   3.984   6.327   5.044
12404TIP3   OH237147   4.217   6.468   6.323
12404TIP3    H137148   4.138   6.526   6.324
12404TIP3    H237149   4.266   6.502   6.244
12405TIP3   OH237150   4.049   6.198   4.934
12405TIP3    H137151   4.024   6.194   4.839
12405TIP3    H237152   4.146   6.199   4.928
12406TIP3   OH237153   4.732   6.868   6.455
12406TIP3    H137154   4.816   6.848   6.413
12406TIP3    H237155   4.729   6.802   6.527
12407TIP3   OH237156   4.867   6.529   4.598
12407TIP3    H137157   4.850   6.480   4.514
12407TIP3    H237158   4.836   6.618   4.571
12408TIP3   OH237159   4.340   6.255   6.447
12408TIP3    H137160   4.340   6.176   6.390
12408TIP3    H237161   4.296   6.322   6.390
12409TIP3   OH237162   4.342   6.042   6.255
12409TIP3    H137163   4.369   6.083   6.170
12409TIP3    H237164   4.248   6.019   6.236
12410TIP3   OH237165   4.369   6.577   6.129
12410TIP3    H137166   4.451   6.587   6.080
12410TIP3    H237167   4.311   6.644   6.085
12411TIP3   OH237168   4.951   6.544   6.509
12411TIP3    H137169   5.001   6.462   6.520
12411TIP3    H237170   5.019   6.605   6.477
12412TIP3   OH237171   4.995   6.795   6.242
12412TIP3    H137172   4.936   6.849   6.183
12412TIP3    H237173   5.082   6.818   6.202
12413TIP3   OH237174   4.219   6.366   6.679
12413TIP3    H137175   4.149   6.299   6.692
12413TIP3    H237176   4.252   6.343   6.590
12414TIP3   OH237177   4.474   5.806   6.323
12414TIP3    H137178   4.425   5.888   6.299
12414TIP3    H237179   4.406   5.737   6.309
12415TIP3   OH237180   4.601   6.309   6.538
12415TIP3    H137181   4.589   6.299   6.634
12415TIP3    H237182   4.511   6.285   6.507
12416TIP3   OH237183   4.840   6.257   6.392
12416TIP3    H137184   4.764   6.261   6.454
12416TIP3    H237185   4.913   6.228   6.450
12417TIP3   OH237186   5.070   6.200   6.543
12417TIP3    H137187   5.081   6.104   6.561
12417TIP3    H237188   5.064   6.239   6.633
12418TIP3   OH237189   4.056   6.148   6.730
12418TIP3    H137190   4.062   6.057   6.695
12418TIP3    H237191   4.091   6.135   6.821
12419TIP3   OH237192   4.568   5.814   6.581
12419TIP3    H137193   4.636   5.744   6.573
12419TIP3    H237194   4.528   5.810   6.491
12420TIP3   OH237195   4.633   6.029   6.741
12420TIP3    H137196   4.612   5.959   6.675
12420TIP3    H237197   4.556   6.088   6.733
12421TIP3   OH237198   3.854   7.255   4.836
12421TIP3    H137199   3.950   7.257   4.818
12421TIP3    H237200   3.822   7.308   4.761
12422TIP3   OH237201   3.334   6.641   5.053
12422TIP3    H137202   3.430   6.661   5.041
12422TIP3    H237203   3.328   6.551   5.013
12423TIP3   OH237204   3.252   7.253   5.466
12423TIP3    H137205   3.183   7.192   5.432
12423TIP3    H237206   3.295   7.195   5.534
12424TIP3   OH237207   3.388   7.103   5.654
12424TIP3    H137208   3.373   7.032   5.718
12424TIP3    H237209   3.437   7.166   5.710
12425TIP3   OH237210   5.111   7.503   5.452
12425TIP3    H137211   5.134   7.536   5.541
12425TIP3    H237212   5.168   7.558   5.396
12426TIP3   OH237213   5.141   7.523   5.734
12426TIP3    H137214   5.101   7.433   5.733
12426TIP3    H237215   5.215   7.508   5.793
12427TIP3   OH237216   5.188   7.200   6.310
12427TIP3    H137217   5.115   7.209   6.374
12427TIP3    H237218   5.230   7.289   6.314
12428TIP3   OH237219   4.992   6.721   4.923
12428TIP3    H137220   5.058   6.788   4.896
12428TIP3    H237221   5.037   6.681   5.001
12429TIP3   OH237222   5.117   6.593   5.127
12429TIP3    H137223   5.056   6.537   5.180
12429TIP3    H237224   5.189   6.609   5.188
12430TIP3   OH237225   5.016   7.271   5.764
12430TIP3    H137226   4.950   7.321   5.816
12430TIP3    H237227   4.961   7.231   5.694
12431TIP3   OH237228   5.068   6.490   4.784
12431TIP3    H137229   4.998   6.488   4.714
12431TIP3    H237230   5.040   6.570   4.832
12432TIP3   OH237231   4.934   6.165   4.741
12432TIP3    H137232   4.904   6.192   4.654
12432TIP3    H237233   4.915   6.068   4.737
12433TIP3   OH237234   4.955   6.433   5.279
12433TIP3    H137235   4.956   6.337   5.265
12433TIP3    H237236   4.932   6.441   5.374
12434TIP3   OH237237   3.573   6.510   6.027
12434TIP3    H137238   3.571   6.480   5.934
12434TIP3    H237239   3.670   6.513   6.043
12435TIP3   OH237240   5.238   6.862   6.135
12435TIP3    H137241   5.311   6.797   6.129
12435TIP3    H237242   5.267   6.932   6.074
12436TIP3   OH237243   5.420   6.665   6.172
12436TIP3    H137244   5.344   6.614   6.206
12436TIP3    H237245   5.492   6.600   6.179
12437TIP3   OH237246   4.885   5.899   4.726
12437TIP3    H137247   4.968   5.875   4.772
12437TIP3    H237248   4.823   5.830   4.757
12438TIP3   OH237249   4.946   6.158   5.175
12438TIP3    H137250   4.984   6.068   5.192
12438TIP3    H237251   5.003   6.184   5.100
12439TIP3   OH237252   5.134   6.356   5.657
12439TIP3    H137253   5.203   6.289   5.667
12439TIP3    H237254   5.118   6.380   5.751
12440TIP3   OH237255   5.170   6.475   5.904
12440TIP3    H137256   5.093   6.501   5.959
12440TIP3    H237257   5.189   6.558   5.858
12441TIP3   OH237258   3.788   6.197   6.701
12441TIP3    H137259   3.886   6.192   6.702
12441TIP3    H237260   3.766   6.112   6.744
12442TIP3   OH237261   5.626   6.063   6.459
12442TIP3    H137262   5.684   5.997   6.416
12442TIP3    H237263   5.597   6.117   6.382
12443TIP3   OH237264   5.050   5.911   5.217
12443TIP3    H137265   5.098   5.885   5.298
12443TIP3    H237266   4.989   5.833   5.208
12444TIP3   OH237267   3.751   5.890   6.034
12444TIP3    H137268   3.814   5.815   6.042
12444TIP3    H237269   3.814   5.965   6.026
12445TIP3   OH237270   3.555   6.164   6.106
12445TIP3    H137271   3.604   6.158   6.021
12445TIP3    H237272   3.582   6.251   6.137
12446TIP3   OH237273   5.496   6.202   6.264
12446TIP3    H137274   5.411   6.244   6.288
12446TIP3    H237275   5.464   6.131   6.206
12447TIP3   OH237276   5.137   5.861   4.828
12447TIP3    H137277   5.158   5.767   4.810
12447TIP3    H237278   5.222   5.905   4.815
12448TIP3   OH237279   3.538   5.673   5.610
12448TIP3    H137280   3.443   5.666   5.632
12448TIP3    H237281   3.536   5.728   5.529
12449TIP3   OH237282   4.696   7.369   5.111
12449TIP3    H137283   4.749   7.359   5.029
12449TIP3    H237284   4.744   7.440   5.157
12450TIP3   OH237285   3.758   5.748   6.422
12450TIP3    H137286   3.706   5.744   6.503
12450TIP3    H237287   3.693   5.786   6.360
12451TIP3   OH237288   3.799   7.170   6.497
12451TIP3    H137289   3.706   7.147   6.480
12451TIP3    H237290   3.806   7.161   6.592
12452TIP3   OH237291   3.976   7.206   6.044
12452TIP3    H137292   3.926   7.281   6.006
12452TIP3    H237293   4.061   7.222   5.999
12453TIP3   OH237294   4.421   7.450   6.181
12453TIP3    H137295   4.462   7.453   6.271
12453TIP3    H237296   4.487   7.503   6.130
12454TIP3   OH237297   4.601   7.602   6.041
12454TIP3    H137298   4.675   7.554   6.003
12454TIP3    H237299   4.649   7.662   6.103
12455TIP3   OH237300   5.393   5.965   6.141
12455TIP3    H137301   5.301   5.954   6.110
12455TIP3    H237302   5.426   5.872   6.131
12456TIP3   OH237303   3.652   7.463   6.070
12456TIP3    H137304   3.563   7.496   6.046
12456TIP3    H237305   3.664   7.507   6.155
12457TIP3   OH237306   3.887   7.441   5.925
12457TIP3    H137307   3.802   7.455   5.971
12457TIP3    H237308   3.868   7.477   5.837
12458TIP3   OH237309   4.315   7.472   5.721
12458TIP3    H137310   4.243   7.494   5.659
12458TIP3    H237311   4.328   7.558   5.767
12459TIP3   OH237312   4.583   7.408   5.770
12459TIP3    H137313   4.489   7.428   5.755
12459TIP3    H237314   4.626   7.489   5.737
12460TIP3   OH237315   4.789   7.601   5.691
12460TIP3    H137316   4.776   7.689   5.647
12460TIP3    H237317   4.815   7.545   5.615
12461TIP3   OH237318   3.564   7.259   5.812
12461TIP3    H137319   3.589   7.234   5.903
12461TIP3    H237320   3.637   7.214   5.763
12462TIP3   OH237321   3.758   7.129   5.669
12462TIP3    H137322   3.773   7.046   5.720
12462TIP3    H237323   3.849   7.166   5.666
12463TIP3   OH237324   4.024   7.223   5.672
12463TIP3    H137325   4.055   7.131   5.665
12463TIP3    H237326   4.066   7.248   5.757
12464TIP3   OH237327   4.601   5.882   5.763
12464TIP3    H137328   4.557   5.811   5.813
12464TIP3    H237329   4.668   5.833   5.712
12465TIP3   OH237330   5.122   5.778   5.678
12465TIP3    H137331   5.160   5.815   5.595
12465TIP3    H237332   5.027   5.776   5.658
12466TIP3   OH237333   5.220   5.864   5.437
12466TIP3    H137334   5.288   5.810   5.390
12466TIP3    H237335   5.251   5.954   5.415
12467TIP3   OH237336   3.847   5.591   5.778
12467TIP3    H137337   3.755   5.558   5.778
12467TIP3    H237338   3.896   5.506   5.774
12468TIP3   OH237339   3.636   5.459   5.427
12468TIP3    H137340   3.666   5.514   5.352
12468TIP3    H237341   3.608   5.526   5.492
12469TIP3   OH237342   4.290   5.623   5.658
12469TIP3    H137343   4.349   5.668   5.595
12469TIP3    H237344   4.318   5.662   5.742
12470TIP3   OH237345   4.844   5.768   5.635
12470TIP3    H137346   4.837   5.733   5.545
12470TIP3    H237347   4.827   5.688   5.689
12471TIP3   OH237348   4.865   5.710   5.246
12471TIP3    H137349   4.797   5.710   5.178
12471TIP3    H237350   4.872   5.614   5.265
12472TIP3   OH237351   3.354   7.029   5.203
12472TIP3    H137352   3.268   6.997   5.170
12472TIP3    H237353   3.342   7.125   5.190
12473TIP3   OH237354   3.752   5.619   5.188
12473TIP3    H137355   3.798   5.554   5.131
12473TIP3    H237356   3.827   5.671   5.223
12474TIP3   OH237357   4.263   5.795   5.287
12474TIP3    H137358   4.324   5.745   5.343
12474TIP3    H237359   4.289   5.887   5.313
12475TIP3   OH237360   4.123   7.220   4.782
12475TIP3    H137361   4.214   7.237   4.750
12475TIP3    H237362   4.093   7.156   4.714
12476TIP3   OH237363   4.842   7.335   4.879
12476TIP3    H137364   4.831   7.238   4.866
12476TIP3    H237365   4.798   7.369   4.798
12477TIP3   OH237366   4.055   5.872   6.669
12477TIP3    H137367   4.021   5.801   6.725
12477TIP3    H237368   4.150   5.872   6.695
12478TIP3   OH237369   4.305   5.868   6.787
12478TIP3    H137370   4.389   5.845   6.745
12478TIP3    H237371   4.294   5.795   6.852
12479TIP3   OH237372   3.424   7.059   4.845
12479TIP3    H137373   3.421   7.084   4.938
12479TIP3    H237374   3.513   7.019   4.835
12480TIP3   OH237375   5.130   5.928   6.575
12480TIP3    H137376   5.149   5.897   6.666
12480TIP3    H237377   5.219   5.924   6.533
12481TIP3   OH237378   5.071   7.482   6.065
12481TIP3    H137379   4.990   7.451   6.018
12481TIP3    H237380   5.052   7.578   6.070
12482TIP3   OH237381   6.334   6.860   4.842
12482TIP3    H137382   6.303   6.948   4.811
12482TIP3    H237383   6.264   6.804   4.802
12483TIP3   OH237384   6.577   7.164   4.891
12483TIP3    H137385   6.572   7.093   4.955
12483TIP3    H237386   6.608   7.239   4.944
12484TIP3   OH237387   5.595   7.154   5.300
12484TIP3    H137388   5.597   7.058   5.317
12484TIP3    H237389   5.691   7.170   5.287
12485TIP3   OH237390   5.301   6.369   5.109
12485TIP3    H137391   5.250   6.445   5.075
12485TIP3    H237392   5.248   6.296   5.072
12486TIP3   OH237393   6.225   7.618   4.910
12486TIP3    H137394   6.273   7.546   4.864
12486TIP3    H237395   6.217   7.583   5.000
12487TIP3   OH237396   6.128   7.084   5.261
12487TIP3    H137397   6.149   7.033   5.182
12487TIP3    H237398   6.218   7.111   5.289
12488TIP3   OH237399   7.147   6.401   5.257
12488TIP3    H137400   7.177   6.482   5.303
12488TIP3    H237401   7.174   6.420   5.165
12489TIP3   OH237402   5.880   6.243   5.261
12489TIP3    H137403   5.860   6.312   5.195
12489TIP3    H237404   5.837   6.166   5.218
12490TIP3   OH237405   6.573   6.341   4.886
12490TIP3    H137406   6.644   6.315   4.949
12490TIP3    H237407   6.627   6.369   4.810
12491TIP3   OH237408   5.498   6.448   5.391
12491TIP3    H137409   5.586   6.420   5.423
12491TIP3    H237410   5.502   6.406   5.302
12492TIP3   OH237411   5.952   6.633   5.157
12492TIP3    H137412   6.038   6.590   5.160
12492TIP3    H237413   5.897   6.557   5.123
12493TIP3   OH237414   7.221   6.608   5.424
12493TIP3    H137415   7.134   6.651   5.411
12493TIP3    H237416   7.231   6.620   5.520
12494TIP3   OH237417   5.879   6.225   5.693
12494TIP3    H137418   5.817   6.261   5.627
12494TIP3    H237419   5.828   6.242   5.775
12495TIP3   OH237420   6.230   7.076   4.705
12495TIP3    H137421   6.182   7.048   4.625
12495TIP3    H237422   6.184   7.159   4.726
12496TIP3   OH237423   5.983   6.999   5.493
12496TIP3    H137424   5.920   7.062   5.534
12496TIP3    H237425   6.022   7.053   5.421
12497TIP3   OH237426   6.785   6.335   5.053
12497TIP3    H137427   6.774   6.280   5.132
12497TIP3    H237428   6.847   6.404   5.084
12498TIP3   OH237429   5.744   6.341   5.477
12498TIP3    H137430   5.807   6.412   5.502
12498TIP3    H237431   5.792   6.301   5.401
12499TIP3   OH237432   5.802   7.181   5.597
12499TIP3    H137433   5.770   7.269   5.570
12499TIP3    H237434   5.720   7.137   5.626
12500TIP3   OH237435   5.189   6.894   4.844
12500TIP3    H137436   5.184   6.896   4.747
12500TIP3    H237437   5.230   6.980   4.865
12501TIP3   OH237438   6.647   7.396   5.063
12501TIP3    H137439   6.557   7.391   5.103
12501TIP3    H237440   6.641   7.483   5.017
12502TIP3   OH237441   6.938   6.321   5.438
12502TIP3    H137442   6.849   6.325   5.401
12502TIP3    H237443   6.995   6.337   5.360
12503TIP3   OH237444   6.221   5.943   5.388
12503TIP3    H137445   6.223   5.851   5.420
12503TIP3    H237446   6.151   5.980   5.444
12504TIP3   OH237447   6.353   7.444   4.742
12504TIP3    H137448   6.401   7.362   4.717
12504TIP3    H237449   6.412   7.510   4.698
12505TIP3   OH237450   6.492   7.231   4.639
12505TIP3    H137451   6.455   7.151   4.600
12505TIP3    H237452   6.528   7.197   4.724
12506TIP3   OH237453   6.854   7.313   5.404
12506TIP3    H137454   6.855   7.236   5.343
12506TIP3    H237455   6.845   7.389   5.343
12507TIP3   OH237456   6.171   6.711   4.667
12507TIP3    H137457   6.083   6.751   4.649
12507TIP3    H237458   6.207   6.702   4.577
12508TIP3   OH237459   6.132   6.511   4.375
12508TIP3    H137460   6.209   6.550   4.419
12508TIP3    H237461   6.173   6.432   4.335
12509TIP3   OH237462   7.073   6.949   5.251
12509TIP3    H137463   6.990   7.002   5.259
12509TIP3    H237464   7.097   6.969   5.158
12510TIP3   OH237465   6.512   6.793   4.640
12510TIP3    H137466   6.458   6.816   4.719
12510TIP3    H237467   6.596   6.763   4.682
12511TIP3   OH237468   6.747   6.824   5.544
12511TIP3    H137469   6.758   6.893   5.613
12511TIP3    H237470   6.683   6.869   5.487
12512TIP3   OH237471   5.744   6.786   5.046
12512TIP3    H137472   5.712   6.738   4.968
12512TIP3    H237473   5.821   6.733   5.074
12513TIP3   OH237474   5.869   7.197   5.202
12513TIP3    H137475   5.851   7.159   5.114
12513TIP3    H237476   5.960   7.165   5.220
12514TIP3   OH237477   5.871   6.757   5.404
12514TIP3    H137478   5.907   6.738   5.315
12514TIP3    H237479   5.914   6.841   5.429
12515TIP3   OH237480   6.407   7.392   5.187
12515TIP3    H137481   6.392   7.477   5.233
12515TIP3    H237482   6.389   7.326   5.256
12516TIP3   OH237483   6.018   7.314   5.731
12516TIP3    H137484   5.961   7.377   5.779
12516TIP3    H237485   5.949   7.258   5.689
12517TIP3   OH237486   6.362   6.644   4.463
12517TIP3    H137487   6.416   6.707   4.515
12517TIP3    H237488   6.386   6.671   4.371
12518TIP3   OH237489   6.098   7.325   4.738
12518TIP3    H137490   6.175   7.381   4.755
12518TIP3    H237491   6.035   7.387   4.699
12519TIP3   OH237492   5.815   7.487   5.819
12519TIP3    H137493   5.779   7.487   5.729
12519TIP3    H237494   5.736   7.462   5.872
12520TIP3   OH237495   6.869   5.886   4.510
12520TIP3    H137496   6.787   5.905   4.561
12520TIP3    H237497   6.882   5.970   4.462
12521TIP3   OH237498   6.669   7.253   4.056
12521TIP3    H137499   6.677   7.350   4.044
12521TIP3    H237500   6.762   7.224   4.045
12522TIP3   OH237501   6.217   7.441   5.587
12522TIP3    H137502   6.217   7.533   5.620
12522TIP3    H237503   6.144   7.401   5.640
12523TIP3   OH237504   5.979   7.573   4.539
12523TIP3    H137505   5.929   7.555   4.457
12523TIP3    H237506   5.946   7.661   4.566
12524TIP3   OH237507   5.416   7.421   4.922
12524TIP3    H137508   5.464   7.413   5.007
12524TIP3    H237509   5.354   7.346   4.930
12525TIP3   OH237510   6.178   7.473   4.180
12525TIP3    H137511   6.241   7.406   4.143
12525TIP3    H237512   6.213   7.483   4.271
12526TIP3   OH237513   6.229   7.520   4.448
12526TIP3    H137514   6.142   7.531   4.491
12526TIP3    H237515   6.281   7.481   4.520
12527TIP3   OH237516   7.018   6.792   5.717
12527TIP3    H137517   6.932   6.799   5.675
12527TIP3    H237518   7.034   6.696   5.713
12528TIP3   OH237519   5.995   6.019   5.540
12528TIP3    H137520   5.907   5.987   5.510
12528TIP3    H237521   5.967   6.100   5.587
12529TIP3   OH237522   6.530   6.165   5.752
12529TIP3    H137523   6.599   6.111   5.792
12529TIP3    H237524   6.450   6.110   5.763
12530TIP3   OH237525   6.769   6.565   5.652
12530TIP3    H137526   6.721   6.559   5.738
12530TIP3    H237527   6.746   6.654   5.620
12531TIP3   OH237528   6.430   6.699   4.208
12531TIP3    H137529   6.400   6.664   4.121
12531TIP3    H237530   6.513   6.743   4.182
12532TIP3   OH237531   6.148   6.065   4.510
12532TIP3    H137532   6.110   6.063   4.599
12532TIP3    H237533   6.104   5.986   4.472
12533TIP3   OH237534   5.929   6.535   5.556
12533TIP3    H137535   5.875   6.549   5.637
12533TIP3    H237536   5.908   6.616   5.505
12534TIP3   OH237537   5.808   6.421   5.065
12534TIP3    H137538   5.715   6.396   5.083
12534TIP3    H237539   5.820   6.382   4.975
12535TIP3   OH237540   6.306   6.512   4.803
12535TIP3    H137541   6.252   6.580   4.757
12535TIP3    H237542   6.359   6.476   4.728
12536TIP3   OH237543   6.478   6.787   5.885
12536TIP3    H137544   6.455   6.710   5.942
12536TIP3    H237545   6.573   6.794   5.902
12537TIP3   OH237546   6.456   6.542   5.055
12537TIP3    H137547   6.398   6.567   4.979
12537TIP3    H237548   6.493   6.460   5.015
12538TIP3   OH237549   5.752   6.544   5.767
12538TIP3    H137550   5.758   6.617   5.829
12538TIP3    H237551   5.747   6.466   5.825
12539TIP3   OH237552   5.793   6.040   4.475
12539TIP3    H137553   5.783   6.035   4.572
12539TIP3    H237554   5.724   6.105   4.453
12540TIP3   OH237555   5.336   6.095   5.355
12540TIP3    H137556   5.425   6.114   5.389
12540TIP3    H237557   5.353   6.057   5.266
12541TIP3   OH237558   5.333   6.074   4.876
12541TIP3    H137559   5.366   6.108   4.790
12541TIP3    H237560   5.258   6.135   4.889
12542TIP3   OH237561   6.139   6.265   5.136
12542TIP3    H137562   6.060   6.244   5.189
12542TIP3    H237563   6.211   6.230   5.192
12543TIP3   OH237564   5.571   6.299   5.153
12543TIP3    H137565   5.479   6.305   5.119
12543TIP3    H237566   5.599   6.210   5.124
12544TIP3   OH237567   5.845   6.306   4.814
12544TIP3    H137568   5.942   6.312   4.806
12544TIP3    H237569   5.815   6.363   4.741
12545TIP3   OH237570   6.612   6.340   5.325
12545TIP3    H137571   6.603   6.332   5.423
12545TIP3    H237572   6.597   6.248   5.300
12546TIP3   OH237573   5.775   7.122   5.976
12546TIP3    H137574   5.844   7.154   6.035
12546TIP3    H237575   5.697   7.122   6.034
12547TIP3   OH237576   5.750   6.059   5.107
12547TIP3    H137577   5.712   5.980   5.151
12547TIP3    H237578   5.790   6.021   5.028
12548TIP3   OH237579   6.204   6.483   5.508
12548TIP3    H137580   6.111   6.503   5.528
12548TIP3    H237581   6.252   6.532   5.577
12549TIP3   OH237582   5.938   6.856   4.619
12549TIP3    H137583   5.861   6.795   4.616
12549TIP3    H237584   5.922   6.893   4.709
12550TIP3   OH237585   6.840   7.094   5.242
12550TIP3    H137586   6.864   7.142   5.159
12550TIP3    H237587   6.754   7.053   5.219
12551TIP3   OH237588   6.395   6.173   4.471
12551TIP3    H137589   6.299   6.151   4.483
12551TIP3    H237590   6.401   6.266   4.500
12552TIP3   OH237591   6.331   7.174   5.608
12552TIP3    H137592   6.359   7.154   5.698
12552TIP3    H237593   6.297   7.265   5.615
12553TIP3   OH237594   6.464   6.417   4.583
12553TIP3    H137595   6.560   6.422   4.596
12553TIP3    H237596   6.445   6.497   4.530
12554TIP3   OH237597   5.616   6.871   5.287
12554TIP3    H137598   5.648   6.839   5.201
12554TIP3    H237599   5.675   6.823   5.348
12555TIP3   OH237600   6.073   7.003   4.425
12555TIP3    H137601   6.029   7.090   4.439
12555TIP3    H237602   6.024   6.947   4.489
12556TIP3   OH237603   5.463   6.793   5.919
12556TIP3    H137604   5.528   6.825   5.985
12556TIP3    H237605   5.453   6.702   5.948
12557TIP3   OH237606   6.235   6.914   5.922
12557TIP3    H137607   6.180   6.854   5.870
12557TIP3    H237608   6.325   6.881   5.898
12558TIP3   OH237609   6.489   7.423   5.499
12558TIP3    H137610   6.393   7.432   5.515
12558TIP3    H237611   6.523   7.473   5.577
12559TIP3   OH237612   6.907   6.507   4.415
12559TIP3    H137613   6.844   6.463   4.353
12559TIP3    H237614   6.904   6.597   4.374
12560TIP3   OH237615   7.107   7.328   5.493
12560TIP3    H137616   7.012   7.343   5.473
12560TIP3    H237617   7.139   7.306   5.403
12561TIP3   OH237618   6.608   7.327   4.323
12561TIP3    H137619   6.580   7.257   4.384
12561TIP3    H237620   6.617   7.279   4.238
12562TIP3   OH237621   6.605   6.942   5.180
12562TIP3    H137622   6.517   6.948   5.140
12562TIP3    H237623   6.641   6.863   5.134
12563TIP3   OH237624   5.730   7.186   4.917
12563TIP3    H137625   5.729   7.265   4.860
12563TIP3    H237626   5.636   7.165   4.919
12564TIP3   OH237627   5.286   6.482   4.611
12564TIP3    H137628   5.328   6.570   4.623
12564TIP3    H237629   5.214   6.488   4.678
12565TIP3   OH237630   5.886   6.959   4.871
12565TIP3    H137631   5.838   7.043   4.881
12565TIP3    H237632   5.834   6.900   4.929
12566TIP3   OH237633   5.997   7.527   5.383
12566TIP3    H137634   6.037   7.600   5.333
12566TIP3    H237635   6.074   7.495   5.434
12567TIP3   OH237636   5.650   7.423   4.767
12567TIP3    H137637   5.564   7.432   4.812
12567TIP3    H237638   5.682   7.516   4.769
12568TIP3   OH237639   6.391   7.145   5.343
12568TIP3    H137640   6.373   7.153   5.439
12568TIP3    H237641   6.487   7.133   5.343
12569TIP3   OH237642   6.361   7.057   4.223
12569TIP3    H137643   6.415   7.032   4.302
12569TIP3    H237644   6.274   7.027   4.252
12570TIP3   OH237645   6.620   7.703   5.399
12570TIP3    H137646   6.546   7.643   5.378
12570TIP3    H237647   6.616   7.765   5.323
12571TIP3   OH237648   6.701   7.529   4.045
12571TIP3    H137649   6.742   7.604   3.996
12571TIP3    H237650   6.621   7.574   4.077
12572TIP3   OH237651   5.724   6.304   5.915
12572TIP3    H137652   5.628   6.308   5.930
12572TIP3    H237653   5.753   6.242   5.984
12573TIP3   OH237654   6.521   6.989   4.441
12573TIP3    H137655   6.511   6.924   4.513
12573TIP3    H237656   6.619   6.987   4.429
12574TIP3   OH237657   5.437   7.375   5.533
12574TIP3    H137658   5.484   7.302   5.577
12574TIP3    H237659   5.459   7.450   5.592
12575TIP3   OH237660   5.727   7.034   4.223
12575TIP3    H137661   5.736   6.940   4.198
12575TIP3    H237662   5.705   7.025   4.318
12576TIP3   OH237663   5.671   7.043   4.489
12576TIP3    H137664   5.728   6.997   4.553
12576TIP3    H237665   5.683   7.138   4.511
12577TIP3   OH237666   5.371   6.733   4.672
12577TIP3    H137667   5.361   6.771   4.760
12577TIP3    H237668   5.470   6.729   4.664
12578TIP3   OH237669   6.552   6.383   5.589
12578TIP3    H137670   6.639   6.409   5.625
12578TIP3    H237671   6.534   6.303   5.645
12579TIP3   OH237672   6.441   6.122   4.756
12579TIP3    H137673   6.426   6.145   4.663
12579TIP3    H237674   6.476   6.206   4.793
12580TIP3   OH237675   5.940   7.240   4.440
12580TIP3    H137676   5.853   7.261   4.480
12580TIP3    H237677   5.956   7.323   4.392
12581TIP3   OH237678   6.125   6.304   4.861
12581TIP3    H137679   6.192   6.373   4.844
12581TIP3    H237680   6.132   6.294   4.959
12582TIP3   OH237681   6.401   6.625   5.647
12582TIP3    H137682   6.421   6.678   5.727
12582TIP3    H237683   6.454   6.545   5.662
12583TIP3   OH237684   6.272   6.028   4.960
12583TIP3    H137685   6.290   6.092   5.031
12583TIP3    H237686   6.332   6.061   4.890
12584TIP3   OH237687   5.687   7.316   4.514
12584TIP3    H137688   5.653   7.384   4.452
12584TIP3    H237689   5.668   7.358   4.601
12585TIP3   OH237690   5.784   6.030   4.754
12585TIP3    H137691   5.785   6.123   4.783
12585TIP3    H237692   5.880   6.010   4.760
12586TIP3   OH237693   7.036   6.520   5.637
12586TIP3    H137694   6.940   6.524   5.652
12586TIP3    H237695   7.037   6.458   5.561
12587TIP3   OH237696   6.684   6.715   5.044
12587TIP3    H137697   6.614   6.647   5.041
12587TIP3    H237698   6.761   6.666   5.082
12588TIP3   OH237699   5.395   6.974   4.477
12588TIP3    H137700   5.478   7.020   4.499
12588TIP3    H237701   5.433   6.892   4.442
12589TIP3   OH237702   5.339   6.213   4.644
12589TIP3    H137703   5.350   6.310   4.634
12589TIP3    H237704   5.263   6.196   4.588
12590TIP3   OH237705   6.658   7.666   4.984
12590TIP3    H137706   6.614   7.713   4.909
12590TIP3    H237707   6.752   7.686   4.963
12591TIP3   OH237708   5.726   5.942   5.514
12591TIP3    H137709   5.699   5.907   5.426
12591TIP3    H237710   5.720   5.861   5.570
12592TIP3   OH237711   5.273   7.164   4.903
12592TIP3    H137712   5.185   7.195   4.928
12592TIP3    H237713   5.273   7.192   4.810
12593TIP3   OH237714   5.429   7.697   5.962
12593TIP3    H137715   5.515   7.696   6.010
12593TIP3    H237716   5.406   7.602   5.962
12594TIP3   OH237717   5.920   7.657   6.012
12594TIP3    H137718   6.013   7.634   6.001
12594TIP3    H237719   5.880   7.607   5.938
12595TIP3   OH237720   5.896   7.226   4.133
12595TIP3    H137721   5.825   7.170   4.173
12595TIP3    H237722   5.973   7.175   4.162
12596TIP3   OH237723   6.543   7.543   5.737
12596TIP3    H137724   6.529   7.481   5.812
12596TIP3    H237725   6.618   7.596   5.768
12597TIP3   OH237726   6.335   7.290   4.051
12597TIP3    H137727   6.359   7.214   4.106
12597TIP3    H237728   6.394   7.281   3.974
12598TIP3   OH237729   5.562   7.105   6.164
12598TIP3    H137730   5.581   7.009   6.162
12598TIP3    H237731   5.475   7.109   6.119
12599TIP3   OH237732   5.534   6.751   4.362
12599TIP3    H137733   5.576   6.717   4.443
12599TIP3    H237734   5.611   6.755   4.302
12600TIP3   OH237735   6.168   7.189   5.935
12600TIP3    H137736   6.120   7.203   5.851
12600TIP3    H237737   6.197   7.095   5.929
12601TIP3   OH237738   6.033   6.960   4.142
12601TIP3    H137739   6.040   6.975   4.239
12601TIP3    H237740   6.040   6.862   4.144
12602TIP3   OH237741   6.645   7.191   5.531
12602TIP3    H137742   6.723   7.237   5.493
12602TIP3    H237743   6.580   7.264   5.529
12603TIP3   OH237744   5.679   6.834   6.143
12603TIP3    H137745   5.756   6.779   6.129
12603TIP3    H237746   5.698   6.871   6.232
12604TIP3   OH237747   6.013   6.721   5.814
12604TIP3    H137748   5.952   6.795   5.827
12604TIP3    H237749   6.063   6.752   5.734
12605TIP3   OH237750   5.873   6.386   4.406
12605TIP3    H137751   5.807   6.431   4.352
12605TIP3    H237752   5.945   6.450   4.411
12606TIP3   OH237753   6.531   7.125   5.944
12606TIP3    H137754   6.620   7.117   5.910
12606TIP3    H237755   6.528   7.056   6.012
12607TIP3   OH237756   6.664   6.786   4.082
12607TIP3    H137757   6.645   6.739   3.999
12607TIP3    H237758   6.631   6.876   4.058
12608TIP3   OH237759   6.135   6.509   5.936
12608TIP3    H137760   6.137   6.429   5.879
12608TIP3    H237761   6.089   6.574   5.878
12609TIP3   OH237762   6.136   6.304   5.739
12609TIP3    H137763   6.166   6.330   5.650
12609TIP3    H237764   6.043   6.278   5.722
12610TIP3   OH237765   6.158   6.837   5.624
12610TIP3    H137766   6.242   6.845   5.578
12610TIP3    H237767   6.101   6.902   5.577
12611TIP3   OH237768   6.751   6.797   6.002
12611TIP3    H137769   6.792   6.710   5.990
12611TIP3    H237770   6.825   6.856   5.981
12612TIP3   OH237771   6.781   7.036   5.706
12612TIP3    H137772   6.724   7.094   5.651
12612TIP3    H237773   6.870   7.059   5.671
12613TIP3   OH237774   6.013   6.625   6.163
12613TIP3    H137775   5.944   6.556   6.179
12613TIP3    H237776   6.049   6.596   6.077
12614TIP3   OH237777   6.266   6.067   5.819
12614TIP3    H137778   6.219   6.147   5.790
12614TIP3    H237779   6.204   5.996   5.795
12615TIP3   OH237780   6.393   6.570   6.025
12615TIP3    H137781   6.384   6.554   6.120
12615TIP3    H237782   6.304   6.541   5.995
12616TIP3   OH237783   6.639   6.526   5.884
12616TIP3    H137784   6.561   6.514   5.941
12616TIP3    H237785   6.711   6.489   5.941
12617TIP3   OH237786   6.855   6.460   6.043
12617TIP3    H137787   6.874   6.364   6.052
12617TIP3    H237788   6.862   6.491   6.135
12618TIP3   OH237789   5.853   6.405   6.218
12618TIP3    H137790   5.859   6.314   6.183
12618TIP3    H237791   5.889   6.392   6.308
12619TIP3   OH237792   6.364   6.069   6.074
12619TIP3    H137793   6.432   6.000   6.062
12619TIP3    H237794   6.326   6.071   5.983
12620TIP3   OH237795   6.432   6.287   6.226
12620TIP3    H137796   6.411   6.215   6.163
12620TIP3    H237797   6.353   6.345   6.217
12621TIP3   OH237798   5.651   7.518   4.326
12621TIP3    H137799   5.746   7.513   4.306
12621TIP3    H237800   5.620   7.566   4.247
12622TIP3   OH237801   5.132   6.899   4.540
12622TIP3    H137802   5.227   6.922   4.528
12622TIP3    H237803   5.132   6.807   4.505
12623TIP3   OH237804   5.043   7.514   4.947
12623TIP3    H137805   4.977   7.449   4.913
12623TIP3    H237806   5.091   7.460   5.012
12624TIP3   OH237807   5.185   7.376   5.133
12624TIP3    H137808   5.149   7.309   5.191
12624TIP3    H237809   5.235   7.433   5.194
12625TIP3   OH237810   6.910   7.757   4.936
12625TIP3    H137811   6.931   7.789   5.025
12625TIP3    H237812   6.964   7.815   4.880
12626TIP3   OH237813   6.945   7.772   5.213
12626TIP3    H137814   6.904   7.683   5.220
12626TIP3    H237815   6.974   7.789   5.303
12627TIP3   OH237816   6.801   6.971   4.417
12627TIP3    H137817   6.868   7.035   4.387
12627TIP3    H237818   6.845   6.933   4.496
12628TIP3   OH237819   6.927   6.839   4.621
12628TIP3    H137820   6.863   6.796   4.681
12628TIP3    H237821   6.994   6.875   4.683
12629TIP3   OH237822   6.971   7.225   5.041
12629TIP3    H137823   7.031   7.163   4.993
12629TIP3    H237824   6.976   7.305   4.985
12630TIP3   OH237825   6.812   7.536   5.249
12630TIP3    H137826   6.742   7.574   5.305
12630TIP3    H237827   6.762   7.491   5.178
12631TIP3   OH237828   6.866   6.746   4.267
12631TIP3    H137829   6.795   6.750   4.199
12631TIP3    H237830   6.839   6.822   4.322
12632TIP3   OH237831   6.738   6.419   4.221
12632TIP3    H137832   6.695   6.456   4.143
12632TIP3    H237833   6.714   6.324   4.213
12633TIP3   OH237834   6.741   6.694   4.770
12633TIP3    H137835   6.750   6.598   4.759
12633TIP3    H237836   6.732   6.704   4.867
12634TIP3   OH237837   7.020   7.098   5.605
12634TIP3    H137838   7.104   7.057   5.633
12634TIP3    H237839   7.052   7.181   5.565
12635TIP3   OH237840   7.240   6.938   5.659
12635TIP3    H137841   7.158   6.891   5.685
12635TIP3    H237842   7.300   6.860   5.658
12636TIP3   OH237843   6.682   6.153   4.206
12636TIP3    H137844   6.755   6.122   4.263
12636TIP3    H237845   6.607   6.096   4.231
12637TIP3   OH237846   6.740   6.412   4.663
12637TIP3    H137847   6.778   6.323   4.679
12637TIP3    H237848   6.799   6.442   4.590
12638TIP3   OH237849   6.900   6.590   5.155
12638TIP3    H137850   6.986   6.614   5.113
12638TIP3    H237851   6.919   6.621   5.246
12639TIP3   OH237852   6.970   6.729   5.386
12639TIP3    H137853   6.896   6.762   5.440
12639TIP3    H237854   7.004   6.811   5.345
12640TIP3   OH237855   5.586   6.451   6.181
12640TIP3    H137856   5.684   6.448   6.187
12640TIP3    H237857   5.563   6.368   6.227
12641TIP3   OH237858   7.436   6.311   5.941
12641TIP3    H137859   7.480   6.242   5.887
12641TIP3    H237860   7.395   6.367   5.871
12642TIP3   OH237861   6.845   6.161   4.698
12642TIP3    H137862   6.895   6.145   4.781
12642TIP3    H237863   6.785   6.084   4.698
12643TIP3   OH237864   5.546   6.151   5.548
12643TIP3    H137865   5.605   6.072   5.541
12643TIP3    H237866   5.608   6.221   5.520
12644TIP3   OH237867   7.294   6.451   5.756
12644TIP3    H137868   7.215   6.494   5.794
12644TIP3    H237869   7.253   6.386   5.696
12645TIP3   OH237870   6.929   6.097   4.332
12645TIP3    H137871   6.969   6.024   4.280
12645TIP3    H237872   6.997   6.167   4.326
12646TIP3   OH237873   5.326   5.954   5.118
12646TIP3    H137874   5.234   5.923   5.116
12646TIP3    H237875   5.336   5.991   5.028
12647TIP3   OH237876   6.491   7.627   4.597
12647TIP3    H137877   6.545   7.615   4.516
12647TIP3    H237878   6.542   7.694   4.646
12648TIP3   OH237879   5.553   6.013   5.912
12648TIP3    H137880   5.503   5.999   5.994
12648TIP3    H237881   5.482   6.032   5.849
12649TIP3   OH237882   5.593   7.433   5.982
12649TIP3    H137883   5.500   7.406   5.968
12649TIP3    H237884   5.607   7.408   6.074
12650TIP3   OH237885   5.768   7.461   5.535
12650TIP3    H137886   5.722   7.538   5.496
12650TIP3    H237887   5.854   7.472   5.490
12651TIP3   OH237888   6.221   7.706   5.669
12651TIP3    H137889   6.256   7.709   5.761
12651TIP3    H237890   6.290   7.757   5.622
12652TIP3   OH237891   6.415   7.854   5.540
12652TIP3    H137892   6.478   7.800   5.488
12652TIP3    H237893   6.458   7.941   5.540
12653TIP3   OH237894   7.194   6.223   5.627
12653TIP3    H137895   7.104   6.209   5.592
12653TIP3    H237896   7.229   6.131   5.617
12654TIP3   OH237897   5.448   7.716   5.557
12654TIP3    H137898   5.360   7.751   5.531
12654TIP3    H237899   5.459   7.762   5.642
12655TIP3   OH237900   5.683   7.697   5.412
12655TIP3    H137901   5.598   7.713   5.458
12655TIP3    H237902   5.665   7.735   5.324
12656TIP3   OH237903   6.111   7.729   5.209
12656TIP3    H137904   6.040   7.748   5.145
12656TIP3    H237905   6.122   7.816   5.252
12657TIP3   OH237906   6.378   7.663   5.259
12657TIP3    H137907   6.284   7.685   5.240
12657TIP3    H237908   6.424   7.738   5.217
12658TIP3   OH237909   6.580   7.854   5.176
12658TIP3    H137910   6.565   7.939   5.127
12658TIP3    H237911   6.611   7.796   5.103
12659TIP3   OH237912   5.358   7.511   5.299
12659TIP3    H137913   5.383   7.489   5.391
12659TIP3    H237914   5.435   7.473   5.251
12660TIP3   OH237915   5.554   7.388   5.155
12660TIP3    H137916   5.572   7.302   5.198
12660TIP3    H237917   5.644   7.426   5.149
12661TIP3   OH237918   5.818   7.481   5.159
12661TIP3    H137919   5.851   7.390   5.148
12661TIP3    H237920   5.861   7.504   5.243
12662TIP3   OH237921   6.378   6.134   5.227
12662TIP3    H137922   6.348   6.067   5.291
12662TIP3    H237923   6.463   6.095   5.197
12663TIP3   OH237924   6.931   6.008   5.147
12663TIP3    H137925   6.953   6.066   5.071
12663TIP3    H237926   6.842   6.037   5.172
12664TIP3   OH237927   7.014   6.124   4.911
12664TIP3    H137928   7.087   6.070   4.875
12664TIP3    H237929   7.049   6.214   4.896
12665TIP3   OH237930   5.643   5.848   5.267
12665TIP3    H137931   5.551   5.816   5.261
12665TIP3    H237932   5.692   5.763   5.259
12666TIP3   OH237933   5.463   5.712   4.923
12666TIP3    H137934   5.466   5.762   4.840
12666TIP3    H237935   5.391   5.755   4.970
12667TIP3   OH237936   6.088   5.880   5.146
12667TIP3    H137937   6.144   5.928   5.084
12667TIP3    H237938   6.124   5.909   5.232
12668TIP3   OH237939   6.621   6.027   5.125
12668TIP3    H137940   6.644   5.955   5.064
12668TIP3    H237941   6.646   5.989   5.212
12669TIP3   OH237942   6.664   5.946   4.689
12669TIP3    H137943   6.578   5.990   4.705
12669TIP3    H237944   6.651   5.863   4.739
12670TIP3   OH237945   5.145   7.289   4.697
12670TIP3    H137946   5.063   7.252   4.661
12670TIP3    H237947   5.132   7.383   4.675
12671TIP3   OH237948   5.546   5.878   4.672
12671TIP3    H137949   5.595   5.815   4.615
12671TIP3    H237950   5.618   5.930   4.712
12672TIP3   OH237951   6.062   6.052   4.774
12672TIP3    H137952   6.121   6.007   4.835
12672TIP3    H237953   6.082   6.145   4.798
12673TIP3   OH237954   5.919   7.472   4.272
12673TIP3    H137955   6.007   7.496   4.238
12673TIP3    H237956   5.897   7.399   4.210
12674TIP3   OH237957   6.639   7.594   4.366
12674TIP3    H137958   6.631   7.496   4.354
12674TIP3    H237959   6.593   7.626   4.285
12675TIP3   OH237960   5.852   6.130   6.155
12675TIP3    H137961   5.818   6.058   6.212
12675TIP3    H237962   5.947   6.129   6.181
12676TIP3   OH237963   6.102   6.125   6.273
12676TIP3    H137964   6.185   6.100   6.230
12676TIP3    H237965   6.091   6.053   6.339
12677TIP3   OH237966   5.225   7.317   4.330
12677TIP3    H137967   5.222   7.336   4.425
12677TIP3    H237968   5.311   7.270   4.321
12678TIP3   OH237969   6.925   6.190   6.060
12678TIP3    H137970   6.944   6.156   6.150
12678TIP3    H237971   7.013   6.184   6.018
12679TIP3   OH237972   8.124   7.104   4.330
12679TIP3    H137973   8.090   7.194   4.309
12679TIP3    H237974   8.052   7.052   4.290
12680TIP3   OH237975   8.091   7.113   4.714
12680TIP3    H137976   8.157   7.066   4.767
12680TIP3    H237977   8.073   7.049   4.644
12681TIP3   OH237978   7.425   6.981   5.045
12681TIP3    H137979   7.453   6.923   5.118
12681TIP3    H237980   7.497   7.046   5.047
12682TIP3   OH237981   7.400   7.416   4.787
12682TIP3    H137982   7.390   7.318   4.792
12682TIP3    H237983   7.496   7.424   4.788
12683TIP3   OH237984   7.108   6.619   4.576
12683TIP3    H137985   7.059   6.702   4.589
12683TIP3    H237986   7.038   6.563   4.539
12684TIP3   OH237987   7.166   6.905   4.748
12684TIP3    H137988   7.215   6.828   4.785
12684TIP3    H237989   7.225   6.934   4.678
12685TIP3   OH237990   7.915   7.322   4.732
12685TIP3    H137991   7.977   7.248   4.713
12685TIP3    H237992   7.974   7.389   4.769
12686TIP3   OH237993   8.352   6.827   4.758
12686TIP3    H137994   8.378   6.734   4.775
12686TIP3    H237995   8.307   6.817   4.672
12687TIP3   OH237996   7.679   6.497   4.748
12687TIP3    H137997   7.659   6.570   4.685
12687TIP3    H237998   7.631   6.424   4.703
12688TIP3   OH237999   8.374   6.589   4.372
12688TIP3    H138000   8.447   6.567   4.435
12688TIP3    H238001   8.426   6.624   4.297
12689TIP3   OH238002   7.312   6.698   4.853
12689TIP3    H138003   7.395   6.681   4.901
12689TIP3    H238004   7.327   6.642   4.774
12690TIP3   OH238005   7.755   6.895   4.641
12690TIP3    H138006   7.848   6.869   4.656
12690TIP3    H238007   7.716   6.811   4.611
12691TIP3   OH238008   7.676   6.480   5.182
12691TIP3    H138009   7.616   6.518   5.115
12691TIP3    H238010   7.624   6.499   5.264
12692TIP3   OH238011   7.992   7.310   4.201
12692TIP3    H138012   7.967   7.305   4.108
12692TIP3    H238013   7.974   7.404   4.220
12693TIP3   OH238014   7.778   7.241   4.957
12693TIP3    H138015   7.712   7.310   4.970
12693TIP3    H238016   7.833   7.278   4.885
12694TIP3   OH238017   8.587   6.571   4.547
12694TIP3    H138018   8.550   6.536   4.630
12694TIP3    H238019   8.643   6.643   4.577
12695TIP3   OH238020   7.546   6.595   4.966
12695TIP3    H138021   7.608   6.668   4.991
12695TIP3    H238022   7.595   6.555   4.891
12696TIP3   OH238023   7.005   7.139   4.311
12696TIP3    H138024   6.965   7.168   4.227
12696TIP3    H238025   7.036   7.225   4.348
12697TIP3   OH238026   8.029   6.200   4.893
12697TIP3    H138027   8.013   6.104   4.905
12697TIP3    H238028   7.951   6.237   4.939
12698TIP3   OH238029   8.228   7.470   4.152
12698TIP3    H138030   8.218   7.395   4.092
12698TIP3    H238031   8.313   7.449   4.194
12699TIP3   OH238032   7.961   6.961   4.151
12699TIP3    H138033   7.882   7.016   4.130
12699TIP3    H238034   8.007   6.957   4.065
12700TIP3   OH238035   7.920   6.744   3.866
12700TIP3    H138036   7.987   6.797   3.914
12700TIP3    H238037   7.980   6.682   3.819
12701TIP3   OH238038   8.300   7.028   4.134
12701TIP3    H138039   8.251   7.052   4.216
12701TIP3    H238040   8.388   7.004   4.171
12702TIP3   OH238041   7.541   7.042   4.541
12702TIP3    H138042   7.500   6.985   4.473
12702TIP3    H238043   7.619   6.989   4.568
12703TIP3   OH238044   7.676   7.454   4.688
12703TIP3    H138045   7.644   7.417   4.605
12703TIP3    H238046   7.762   7.406   4.699
12704TIP3   OH238047   7.680   6.998   4.887
12704TIP3    H138048   7.710   6.977   4.796
12704TIP3    H238049   7.724   7.085   4.904
12705TIP3   OH238050   8.144   6.901   3.947
12705TIP3    H138051   8.206   6.953   4.003
12705TIP3    H238052   8.175   6.925   3.857
12706TIP3   OH238053   7.517   7.141   5.265
12706TIP3    H138054   7.476   7.220   5.226
12706TIP3    H238055   7.444   7.103   5.318
12707TIP3   OH238056   7.896   7.587   4.221
12707TIP3    H138057   7.951   7.653   4.262
12707TIP3    H238058   7.828   7.639   4.177
12708TIP3   OH238059   8.658   6.144   3.991
12708TIP3    H138060   8.581   6.155   4.051
12708TIP3    H238061   8.681   6.235   3.970
12709TIP3   OH238062   7.408   6.885   4.345
12709TIP3    H138063   7.342   6.929   4.288
12709TIP3    H238064   7.368   6.798   4.357
12710TIP3   OH238065   7.170   7.246   5.246
12710TIP3    H138066   7.112   7.228   5.170
12710TIP3    H238067   7.205   7.158   5.269
12711TIP3   OH238068   7.042   7.457   4.892
12711TIP3    H138069   7.137   7.458   4.876
12711TIP3    H238070   7.027   7.545   4.931
12712TIP3   OH238071   7.726   7.852   4.034
12712TIP3    H138072   7.717   7.804   3.950
12712TIP3    H238073   7.806   7.906   4.022
12713TIP3   OH238074   7.210   7.678   4.409
12713TIP3    H138075   7.259   7.668   4.494
12713TIP3    H238076   7.152   7.600   4.415
12714TIP3   OH238077   7.386   7.405   5.198
12714TIP3    H138078   7.439   7.448   5.267
12714TIP3    H238079   7.314   7.361   5.245
12715TIP3   OH238080   7.794   6.274   5.026
12715TIP3    H138081   7.705   6.244   4.999
12715TIP3    H238082   7.770   6.358   5.070
12716TIP3   OH238083   8.316   6.389   5.204
12716TIP3    H138084   8.382   6.413   5.272
12716TIP3    H238085   8.235   6.377   5.256
12717TIP3   OH238086   8.227   6.956   3.696
12717TIP3    H138087   8.189   6.925   3.612
12717TIP3    H238088   8.306   7.003   3.665
12718TIP3   OH238089   7.936   6.326   3.994
12718TIP3    H138090   7.905   6.322   4.087
12718TIP3    H238091   7.900   6.241   3.961
12719TIP3   OH238092   7.728   6.787   5.046
12719TIP3    H138093   7.675   6.809   5.126
12719TIP3    H238094   7.707   6.865   4.988
12720TIP3   OH238095   7.609   6.676   4.557
12720TIP3    H138096   7.516   6.650   4.574
12720TIP3    H238097   7.622   6.636   4.468
12721TIP3   OH238098   8.098   6.762   4.280
12721TIP3    H138099   8.045   6.832   4.237
12721TIP3    H238100   8.154   6.732   4.205
12722TIP3   OH238101   8.240   6.789   4.515
12722TIP3    H138102   8.184   6.814   4.438
12722TIP3    H238103   8.285   6.712   4.473
12723TIP3   OH238104   7.541   6.813   5.249
12723TIP3    H138105   7.587   6.873   5.310
12723TIP3    H238106   7.530   6.734   5.304
12724TIP3   OH238107   7.592   6.296   3.961
12724TIP3    H138108   7.585   6.294   4.058
12724TIP3    H238109   7.515   6.351   3.938
12725TIP3   OH238110   7.139   6.347   4.828
12725TIP3    H138111   7.214   6.376   4.883
12725TIP3    H238112   7.180   6.310   4.749
12726TIP3   OH238113   7.111   6.323   4.351
12726TIP3    H138114   7.156   6.361   4.273
12726TIP3    H238115   7.049   6.396   4.372
12727TIP3   OH238116   7.934   6.496   4.617
12727TIP3    H138117   7.852   6.497   4.669
12727TIP3    H238118   8.002   6.502   4.686
12728TIP3   OH238119   7.370   6.555   4.626
12728TIP3    H138120   7.276   6.562   4.599
12728TIP3    H238121   7.393   6.463   4.603
12729TIP3   OH238122   7.640   6.550   4.314
12729TIP3    H138123   7.734   6.566   4.293
12729TIP3    H238124   7.594   6.574   4.230
12730TIP3   OH238125   8.396   6.561   4.801
12730TIP3    H138126   8.366   6.576   4.893
12730TIP3    H238127   8.328   6.498   4.769
12731TIP3   OH238128   7.481   6.585   4.093
12731TIP3    H138129   7.409   6.541   4.045
12731TIP3    H238130   7.533   6.621   4.019
12732TIP3   OH238131   8.014   6.814   4.709
12732TIP3    H138132   8.091   6.787   4.657
12732TIP3    H238133   8.032   6.777   4.797
12733TIP3   OH238134   7.543   6.315   4.594
12733TIP3    H138135   7.508   6.236   4.640
12733TIP3    H238136   7.593   6.276   4.521
12734TIP3   OH238137   7.992   6.714   5.006
12734TIP3    H138138   7.901   6.747   5.016
12734TIP3    H238139   8.043   6.767   5.068
12735TIP3   OH238140   7.733   7.116   4.097
12735TIP3    H138141   7.661   7.050   4.089
12735TIP3    H238142   7.717   7.150   4.188
12736TIP3   OH238143   8.191   6.425   3.965
12736TIP3    H138144   8.094   6.411   3.970
12736TIP3    H238145   8.202   6.520   3.985
12737TIP3   OH238146   8.259   6.674   4.066
12737TIP3    H138147   8.355   6.679   4.081
12737TIP3    H238148   8.243   6.750   4.007
12738TIP3   OH238149   7.427   7.138   4.777
12738TIP3    H138150   7.465   7.109   4.692
12738TIP3    H238151   7.459   7.069   4.837
12739TIP3   OH238152   7.878   7.263   3.914
12739TIP3    H138153   7.831   7.349   3.923
12739TIP3    H238154   7.827   7.207   3.977
12740TIP3   OH238155   7.290   7.039   5.399
12740TIP3    H138156   7.284   7.015   5.494
12740TIP3    H238157   7.220   6.983   5.362
12741TIP3   OH238158   7.527   7.442   4.406
12741TIP3    H138159   7.526   7.522   4.350
12741TIP3    H238160   7.433   7.423   4.411
12742TIP3   OH238161   7.089   6.745   4.104
12742TIP3    H138162   7.135   6.829   4.124
12742TIP3    H238163   7.012   6.750   4.165
12743TIP3   OH238164   7.660   7.205   4.342
12743TIP3    H138165   7.630   7.295   4.363
12743TIP3    H238166   7.628   7.155   4.420
12744TIP3   OH238167   7.446   7.676   4.252
12744TIP3    H138168   7.360   7.687   4.298
12744TIP3    H238169   7.479   7.768   4.253
12745TIP3   OH238170   8.080   7.303   3.700
12745TIP3    H138171   8.158   7.287   3.755
12745TIP3    H238172   8.009   7.276   3.760
12746TIP3   OH238173   7.516   6.561   5.398
12746TIP3    H138174   7.420   6.569   5.412
12746TIP3    H238175   7.540   6.498   5.468
12747TIP3   OH238176   8.324   7.222   3.945
12747TIP3    H138177   8.284   7.169   4.017
12747TIP3    H238178   8.409   7.176   3.940
12748TIP3   OH238179   7.246   7.646   5.030
12748TIP3    H138180   7.279   7.561   5.066
12748TIP3    H238181   7.253   7.705   5.106
12749TIP3   OH238182   7.517   7.293   3.711
12749TIP3    H138183   7.541   7.202   3.683
12749TIP3    H238184   7.501   7.279   3.807
12750TIP3   OH238185   7.469   7.296   3.984
12750TIP3    H138186   7.543   7.270   4.041
12750TIP3    H238187   7.472   7.394   3.991
12751TIP3   OH238188   7.204   6.990   4.186
12751TIP3    H138189   7.139   7.035   4.243
12751TIP3    H238190   7.220   7.059   4.119
12752TIP3   OH238191   8.340   6.627   5.058
12752TIP3    H138192   8.373   6.680   5.132
12752TIP3    H238193   8.317   6.544   5.104
12753TIP3   OH238194   8.232   6.379   4.244
12753TIP3    H138195   8.220   6.400   4.150
12753TIP3    H238196   8.272   6.461   4.279
12754TIP3   OH238197   7.734   7.491   3.939
12754TIP3    H138198   7.646   7.513   3.974
12754TIP3    H238199   7.747   7.566   3.879
12755TIP3   OH238200   7.922   6.558   4.345
12755TIP3    H138201   7.987   6.629   4.327
12755TIP3    H238202   7.928   6.551   4.443
12756TIP3   OH238203   8.067   6.284   4.448
12756TIP3    H138204   8.059   6.362   4.507
12756TIP3    H238205   8.128   6.321   4.379
12757TIP3   OH238206   7.476   7.568   3.999
12757TIP3    H138207   7.445   7.639   3.938
12757TIP3    H238208   7.464   7.613   4.086
12758TIP3   OH238209   7.579   6.283   4.238
12758TIP3    H138210   7.577   6.374   4.274
12758TIP3    H238211   7.675   6.265   4.246
12759TIP3   OH238212   8.507   6.935   4.516
12759TIP3    H138213   8.413   6.918   4.531
12759TIP3    H238214   8.538   6.953   4.606
12760TIP3   OH238215   7.195   7.200   3.992
12760TIP3    H138216   7.262   7.271   4.002
12760TIP3    H238217   7.242   7.145   3.925
12761TIP3   OH238218   7.141   6.475   4.125
12761TIP3    H138219   7.140   6.573   4.121
12761TIP3    H238220   7.057   6.453   4.084
12762TIP3   OH238221   7.530   6.197   4.998
12762TIP3    H138222   7.498   6.163   4.912
12762TIP3    H238223   7.520   6.119   5.056
12763TIP3   OH238224   7.067   7.411   4.380
12763TIP3    H138225   6.996   7.445   4.435
12763TIP3    H238226   7.044   7.452   4.294
12764TIP3   OH238227   7.685   7.492   3.624
12764TIP3    H138228   7.628   7.421   3.661
12764TIP3    H238229   7.759   7.438   3.589
12765TIP3   OH238230   7.331   7.013   3.845
12765TIP3    H138231   7.387   6.980   3.918
12765TIP3    H238232   7.398   7.018   3.773
12766TIP3   OH238233   7.809   7.200   3.651
12766TIP3    H138234   7.822   7.216   3.746
12766TIP3    H238235   7.829   7.104   3.646
12767TIP3   OH238236   7.539   6.916   4.067
12767TIP3    H138237   7.514   6.874   4.150
12767TIP3    H238238   7.576   6.841   4.016
12768TIP3   OH238239   7.795   6.974   5.291
12768TIP3    H138240   7.755   7.052   5.334
12768TIP3    H238241   7.829   7.013   5.210
12769TIP3   OH238242   7.641   6.709   3.908
12769TIP3    H138243   7.615   6.713   3.813
12769TIP3    H238244   7.738   6.713   3.901
12770TIP3   OH238245   7.897   6.758   5.446
12770TIP3    H138246   7.936   6.698   5.382
12770TIP3    H238247   7.870   6.834   5.390
12771TIP3   OH238248   7.941   6.533   5.220
12771TIP3    H138249   7.963   6.584   5.139
12771TIP3    H238250   7.844   6.524   5.211
12772TIP3   OH238251   8.065   6.307   5.308
12772TIP3    H138252   8.028   6.395   5.278
12772TIP3    H238253   7.988   6.252   5.283
12773TIP3   OH238254   7.639   6.658   5.708
12773TIP3    H138255   7.648   6.577   5.655
12773TIP3    H238256   7.698   6.638   5.782
12774TIP3   OH238257   8.184   6.294   5.560
12774TIP3    H138258   8.256   6.355   5.583
12774TIP3    H238259   8.128   6.348   5.503
12775TIP3   OH238260   7.439   7.775   3.817
12775TIP3    H138261   7.535   7.761   3.806
12775TIP3    H238262   7.419   7.821   3.733
12776TIP3   OH238263   6.928   7.154   4.028
12776TIP3    H138264   7.022   7.176   4.014
12776TIP3    H238265   6.923   7.065   3.987
12777TIP3   OH238266   6.842   7.767   4.440
12777TIP3    H138267   6.775   7.705   4.405
12777TIP3    H238268   6.887   7.710   4.506
12778TIP3   OH238269   6.978   7.618   4.626
12778TIP3    H138270   6.965   7.546   4.689
12778TIP3    H238271   7.028   7.681   4.682
12779TIP3   OH238272   8.500   6.689   3.720
12779TIP3    H138273   8.497   6.716   3.628
12779TIP3    H238274   8.490   6.592   3.712
12780TIP3   OH238275   8.534   6.944   4.245
12780TIP3    H138276   8.546   6.849   4.235
12780TIP3    H238277   8.536   6.954   4.342
12781TIP3   OH238278   7.162   7.027   4.998
12781TIP3    H138279   7.156   6.994   4.905
12781TIP3    H238280   7.259   7.021   5.011
12782TIP3   OH238281   8.472   6.415   3.714
12782TIP3    H138282   8.539   6.361   3.756
12782TIP3    H238283   8.396   6.355   3.706
12783TIP3   OH238284   8.531   6.667   4.154
12783TIP3    H138285   8.569   6.576   4.168
12783TIP3    H238286   8.585   6.696   4.079
12784TIP3   OH238287   7.372   6.702   5.668
12784TIP3    H138288   7.470   6.700   5.677
12784TIP3    H238289   7.349   6.620   5.716
12785TIP3   OH238290   8.627   6.417   4.198
12785TIP3    H138291   8.688   6.392   4.270
12785TIP3    H238292   8.571   6.336   4.193
12786TIP3   OH238293   7.344   6.404   5.005
12786TIP3    H138294   7.406   6.329   5.016
12786TIP3    H238295   7.406   6.479   4.999
12787TIP3   OH238296   7.145   6.680   5.075
12787TIP3    H138297   7.195   6.672   4.991
12787TIP3    H238298   7.185   6.759   5.113
12788TIP3   OH238299   7.130   6.181   4.581
12788TIP3    H138300   7.036   6.177   4.607
12788TIP3    H238301   7.127   6.239   4.502
12789TIP3   OH238302   7.352   6.258   5.391
12789TIP3    H138303   7.304   6.253   5.475
12789TIP3    H238304   7.283   6.298   5.333
12790TIP3   OH238305   7.157   7.768   4.787
12790TIP3    H138306   7.185   7.742   4.877
12790TIP3    H238307   7.228   7.725   4.733
12791TIP3   OH238308   7.342   7.638   4.641
12791TIP3    H138309   7.360   7.554   4.690
12791TIP3    H238310   7.434   7.673   4.630
12792TIP3   OH238311   7.601   7.719   4.639
12792TIP3    H138312   7.643   7.631   4.640
12792TIP3    H238313   7.639   7.762   4.715
12793TIP3   OH238314   8.188   6.385   4.731
12793TIP3    H138315   8.142   6.316   4.782
12793TIP3    H238316   8.259   6.335   4.686
12794TIP3   OH238317   8.723   6.273   4.638
12794TIP3    H138318   8.753   6.326   4.561
12794TIP3    H238319   8.627   6.293   4.640
12795TIP3   OH238320   8.823   6.371   4.395
12795TIP3    H138321   8.893   6.315   4.360
12795TIP3    H238322   8.862   6.459   4.389
12796TIP3   OH238323   7.440   6.103   4.750
12796TIP3    H138324   7.348   6.070   4.753
12796TIP3    H238325   7.489   6.018   4.747
12797TIP3   OH238326   7.225   5.972   4.397
12797TIP3    H138327   7.255   6.031   4.325
12797TIP3    H238328   7.197   6.037   4.465
12798TIP3   OH238329   7.884   6.134   4.630
12798TIP3    H138330   7.941   6.183   4.569
12798TIP3    H238331   7.903   6.177   4.715
12799TIP3   OH238332   8.432   6.279   4.613
12799TIP3    H138333   8.434   6.240   4.525
12799TIP3    H238334   8.420   6.199   4.670
12800TIP3   OH238335   8.457   6.202   4.177
12800TIP3    H138336   8.370   6.243   4.188
12800TIP3    H238337   8.443   6.116   4.223
12801TIP3   OH238338   6.945   7.542   4.179
12801TIP3    H138339   6.859   7.510   4.145
12801TIP3    H238340   6.933   7.637   4.164
12802TIP3   OH238341   7.344   6.132   4.161
12802TIP3    H138342   7.393   6.070   4.105
12802TIP3    H238343   7.417   6.187   4.198
12803TIP3   OH238344   7.857   6.307   4.261
12803TIP3    H138345   7.918   6.260   4.320
12803TIP3    H238346   7.878   6.399   4.286
12804TIP3   OH238347   7.709   7.719   3.780
12804TIP3    H138348   7.774   7.776   3.734
12804TIP3    H238349   7.696   7.649   3.712
12805TIP3   OH238350   7.644   6.379   5.635
12805TIP3    H138351   7.606   6.309   5.689
12805TIP3    H238352   7.737   6.378   5.668
12806TIP3   OH238353   7.889   6.360   5.750
12806TIP3    H138354   7.980   6.345   5.722
12806TIP3    H238355   7.879   6.290   5.816
12807TIP3   OH238356   7.019   7.568   3.817
12807TIP3    H138357   7.022   7.594   3.910
12807TIP3    H238358   7.108   7.527   3.805
12808TIP3   OH238359   1.384   7.431   6.418
12808TIP3    H138360   1.411   7.512   6.466
12808TIP3    H238361   1.421   7.448   6.330
12809TIP3   OH238362   0.823   7.343   6.052
12809TIP3    H138363   0.886   7.356   6.126
12809TIP3    H238364   0.864   7.399   5.984
12810TIP3   OH238365   1.453   7.629   6.591
12810TIP3    H138366   1.410   7.713   6.574
12810TIP3    H238367   1.456   7.628   6.689
12811TIP3   OH238368   1.025   7.390   6.236
12811TIP3    H138369   1.047   7.308   6.282
12811TIP3    H238370   1.098   7.450   6.257
12812TIP3   OH238371   1.188   7.349   6.597
12812TIP3    H138372   1.108   7.389   6.561
12812TIP3    H238373   1.254   7.367   6.526
12813TIP3   OH238374   1.122   6.930   5.684
12813TIP3    H138375   1.042   6.952   5.736
12813TIP3    H238376   1.135   7.015   5.635
12814TIP3   OH238377   1.158   7.551   5.587
12814TIP3    H138378   1.092   7.510   5.527
12814TIP3    H238379   1.154   7.643   5.551
12815TIP3   OH238380   1.261   7.540   6.804
12815TIP3    H138381   1.169   7.533   6.831
12815TIP3    H238382   1.263   7.481   6.727
12816TIP3   OH238383   0.922   7.746   6.218
12816TIP3    H138384   0.872   7.664   6.218
12816TIP3    H238385   1.008   7.716   6.256
12817TIP3   OH238386   0.927   7.826   5.250
12817TIP3    H138387   0.876   7.781   5.180
12817TIP3    H238388   0.914   7.919   5.228
12818TIP3   OH238389   1.053   8.008   5.589
12818TIP3    H138390   1.127   8.067   5.568
12818TIP3    H238391   1.086   7.967   5.672
12819TIP3   OH238392   1.175   7.882   5.793
12819TIP3    H138393   1.118   7.835   5.858
12819TIP3    H238394   1.249   7.915   5.849
12820TIP3   OH238395   1.117   7.786   5.442
12820TIP3    H138396   1.045   7.790   5.375
12820TIP3    H238397   1.090   7.862   5.499
12821TIP3   OH238398   0.983   7.466   5.397
12821TIP3    H138399   0.937   7.509   5.324
12821TIP3    H238400   0.964   7.371   5.379
12822TIP3   OH238401   1.014   7.733   5.952
12822TIP3    H138402   0.995   7.640   5.932
12822TIP3    H238403   0.980   7.743   6.043
12823TIP3   OH238404   0.943   7.197   5.379
12823TIP3    H138405   1.020   7.175   5.435
12823TIP3    H238406   0.874   7.138   5.415
12824TIP3   OH238407   0.993   7.460   5.857
12824TIP3    H138408   1.033   7.371   5.865
12824TIP3    H238409   1.032   7.491   5.774
12825TIP3   OH238410   1.150   7.643   6.334
12825TIP3    H138411   1.236   7.668   6.293
12825TIP3    H238412   1.166   7.667   6.426
12826TIP3   OH238413   1.719   7.380   7.111
12826TIP3    H138414   1.750   7.301   7.061
12826TIP3    H238415   1.683   7.432   7.038
12827TIP3   OH238416   1.104   7.202   5.871
12827TIP3    H138417   1.149   7.193   5.957
12827TIP3    H238418   1.040   7.129   5.875
12828TIP3   OH238419   1.611   7.451   6.870
12828TIP3    H138420   1.549   7.505   6.922
12828TIP3    H238421   1.550   7.384   6.833
12829TIP3   OH238422   1.181   7.142   5.508
12829TIP3    H138423   1.226   7.071   5.458
12829TIP3    H238424   1.248   7.213   5.507
12830TIP3   OH238425   1.436   7.257   6.780
12830TIP3    H138426   1.342   7.243   6.756
12830TIP3    H238427   1.469   7.164   6.775
12831TIP3   OH238428   1.183   7.055   6.327
12831TIP3    H138429   1.220   7.107   6.252
12831TIP3    H238430   1.088   7.078   6.321
12832TIP3   OH238431   1.263   7.163   6.093
12832TIP3    H138432   1.335   7.111   6.052
12832TIP3    H238433   1.298   7.254   6.077
12833TIP3   OH238434   0.922   7.099   6.296
12833TIP3    H138435   0.857   7.096   6.225
12833TIP3    H238436   0.903   7.017   6.347
12834TIP3   OH238437   0.922   6.985   5.866
12834TIP3    H138438   0.834   7.019   5.847
12834TIP3    H238439   0.900   6.902   5.914
12835TIP3   OH238440   2.382   8.140   5.505
12835TIP3    H138441   2.352   8.230   5.480
12835TIP3    H238442   2.306   8.089   5.471
12836TIP3   OH238443   2.379   8.151   5.876
12836TIP3    H138444   2.413   8.133   5.966
12836TIP3    H238445   2.337   8.067   5.853
12837TIP3   OH238446   1.692   8.056   6.242
12837TIP3    H138447   1.708   7.987   6.308
12837TIP3    H238448   1.781   8.074   6.207
12838TIP3   OH238449   2.601   8.459   5.569
12838TIP3    H138450   2.602   8.387   5.635
12838TIP3    H238451   2.646   8.530   5.618
12839TIP3   OH238452   1.732   8.376   6.062
12839TIP3    H138453   1.671   8.327   6.005
12839TIP3    H238454   1.802   8.403   5.998
12840TIP3   OH238455   1.359   7.657   5.752
12840TIP3    H138456   1.321   7.745   5.772
12840TIP3    H238457   1.281   7.612   5.717
12841TIP3   OH238458   1.417   7.942   5.905
12841TIP3    H138459   1.461   7.873   5.959
12841TIP3    H238460   1.491   8.001   5.883
12842TIP3   OH238461   2.195   8.372   5.916
12842TIP3    H138462   2.242   8.294   5.883
12842TIP3    H238463   2.272   8.424   5.947
12843TIP3   OH238464   3.191   7.701   5.924
12843TIP3    H138465   3.218   7.783   5.971
12843TIP3    H238466   3.209   7.726   5.832
12844TIP3   OH238467   2.590   7.881   5.958
12844TIP3    H138468   2.633   7.796   5.980
12844TIP3    H238469   2.560   7.864   5.867
12845TIP3   OH238470   1.927   7.541   5.923
12845TIP3    H138471   1.907   7.615   5.862
12845TIP3    H238472   1.878   7.469   5.879
12846TIP3   OH238473   2.622   7.631   5.546
12846TIP3    H138474   2.694   7.615   5.612
12846TIP3    H238475   2.675   7.668   5.473
12847TIP3   OH238476   1.559   7.742   6.034
12847TIP3    H138477   1.643   7.723   6.080
12847TIP3    H238478   1.573   7.690   5.952
12848TIP3   OH238479   2.001   7.941   5.825
12848TIP3    H138480   2.095   7.916   5.837
12848TIP3    H238481   1.962   7.857   5.793
12849TIP3   OH238482   3.260   7.906   6.097
12849TIP3    H138483   3.178   7.957   6.078
12849TIP3    H238484   3.284   7.942   6.184
12850TIP3   OH238485   1.925   7.523   6.357
12850TIP3    H138486   1.864   7.561   6.292
12850TIP3    H238487   1.875   7.539   6.440
12851TIP3   OH238488   2.275   8.344   5.357
12851TIP3    H138489   2.215   8.331   5.282
12851TIP3    H238490   2.267   8.439   5.374
12852TIP3   OH238491   2.031   8.306   6.160
12852TIP3    H138492   1.984   8.377   6.208
12852TIP3    H238493   2.071   8.359   6.088
12853TIP3   OH238494   2.833   7.634   5.719
12853TIP3    H138495   2.816   7.592   5.804
12853TIP3    H238496   2.885   7.712   5.745
12854TIP3   OH238497   1.795   7.639   6.143
12854TIP3    H138498   1.855   7.712   6.167
12854TIP3    H238499   1.844   7.599   6.068
12855TIP3   OH238500   1.266   8.155   5.501
12855TIP3    H138501   1.223   8.174   5.416
12855TIP3    H238502   1.278   8.246   5.532
12856TIP3   OH238503   2.984   7.595   6.087
12856TIP3    H138504   2.898   7.632   6.062
12856TIP3    H238505   3.043   7.632   6.018
12857TIP3   OH238506   2.281   7.245   6.071
12857TIP3    H138507   2.267   7.150   6.089
12857TIP3    H238508   2.204   7.283   6.119
12858TIP3   OH238509   2.621   8.451   5.293
12858TIP3    H138510   2.554   8.385   5.275
12858TIP3    H238511   2.634   8.443   5.390
12859TIP3   OH238512   2.920   8.611   6.076
12859TIP3    H138513   2.903   8.532   6.021
12859TIP3    H238514   2.909   8.684   6.013
12860TIP3   OH238515   2.212   8.002   5.330
12860TIP3    H138516   2.129   8.052   5.312
12860TIP3    H238517   2.256   8.003   5.244
12861TIP3   OH238518   2.170   7.791   5.044
12861TIP3    H138519   2.236   7.841   5.094
12861TIP3    H238520   2.228   7.728   4.997
12862TIP3   OH238521   3.114   8.244   5.911
12862TIP3    H138522   3.033   8.298   5.921
12862TIP3    H238523   3.145   8.274   5.823
12863TIP3   OH238524   2.559   8.084   5.305
12863TIP3    H138525   2.503   8.105   5.384
12863TIP3    H238526   2.643   8.059   5.349
12864TIP3   OH238527   2.791   8.127   6.210
12864TIP3    H138528   2.795   8.206   6.268
12864TIP3    H238529   2.705   8.141   6.167
12865TIP3   OH238530   1.800   8.090   5.704
12865TIP3    H138531   1.755   8.028   5.643
12865TIP3    H238532   1.873   8.035   5.740
12866TIP3   OH238533   1.934   8.466   5.907
12866TIP3    H138534   1.900   8.456   5.817
12866TIP3    H238535   2.030   8.450   5.898
12867TIP3   OH238536   1.922   8.064   6.073
12867TIP3    H138537   1.957   8.042   5.985
12867TIP3    H238538   1.966   8.151   6.092
12868TIP3   OH238539   2.398   7.946   5.127
12868TIP3    H138540   2.457   8.007   5.178
12868TIP3    H238541   2.427   7.964   5.035
12869TIP3   OH238542   2.914   7.188   5.174
12869TIP3    H138543   2.832   7.208   5.224
12869TIP3    H238544   2.928   7.272   5.125
12870TIP3   OH238545   1.660   7.927   5.517
12870TIP3    H138546   1.594   7.971   5.460
12870TIP3    H238547   1.612   7.847   5.542
12871TIP3   OH238548   3.050   8.087   6.391
12871TIP3    H138549   2.963   8.107   6.352
12871TIP3    H238550   3.057   7.991   6.379
12872TIP3   OH238551   2.042   7.319   6.200
12872TIP3    H138552   1.952   7.290   6.175
12872TIP3    H238553   2.019   7.402   6.246
12873TIP3   OH238554   2.575   7.432   6.394
12873TIP3    H138555   2.643   7.410   6.460
12873TIP3    H238556   2.491   7.416   6.442
12874TIP3   OH238557   2.816   7.867   6.311
12874TIP3    H138558   2.766   7.861   6.396
12874TIP3    H238559   2.792   7.956   6.279
12875TIP3   OH238560   2.475   7.976   4.870
12875TIP3    H138561   2.445   7.957   4.779
12875TIP3    H238562   2.529   8.056   4.856
12876TIP3   OH238563   2.187   7.369   5.172
12876TIP3    H138564   2.155   7.367   5.264
12876TIP3    H238565   2.149   7.286   5.139
12877TIP3   OH238566   1.972   7.838   6.217
12877TIP3    H138567   1.931   7.865   6.302
12877TIP3    H238568   1.957   7.918   6.163
12878TIP3   OH238569   1.858   7.721   5.733
12878TIP3    H138570   1.765   7.697   5.752
12878TIP3    H238571   1.869   7.679   5.645
12879TIP3   OH238572   2.349   7.804   5.460
12879TIP3    H138573   2.296   7.876   5.419
12879TIP3    H238574   2.404   7.775   5.385
12880TIP3   OH238575   2.521   8.079   6.524
12880TIP3    H138576   2.510   8.018   6.600
12880TIP3    H238577   2.600   8.130   6.551
12881TIP3   OH238578   2.505   7.835   5.701
12881TIP3    H138579   2.445   7.868   5.631
12881TIP3    H238580   2.537   7.753   5.657
12882TIP3   OH238581   1.791   7.863   6.433
12882TIP3    H138582   1.836   7.908   6.506
12882TIP3    H238583   1.773   7.776   6.473
12883TIP3   OH238584   1.840   7.340   5.137
12883TIP3    H138585   1.834   7.340   5.235
12883TIP3    H238586   1.764   7.397   5.114
12884TIP3   OH238587   1.388   7.382   6.011
12884TIP3    H138588   1.461   7.420   6.064
12884TIP3    H238589   1.431   7.362   5.927
12885TIP3   OH238590   1.359   7.367   5.526
12885TIP3    H138591   1.405   7.408   5.449
12885TIP3    H238592   1.299   7.440   5.550
12886TIP3   OH238593   2.509   8.082   6.119
12886TIP3    H138594   2.545   8.009   6.065
12886TIP3    H238595   2.485   8.032   6.200
12887TIP3   OH238596   2.183   7.541   5.794
12887TIP3    H138597   2.101   7.542   5.847
12887TIP3    H238598   2.251   7.545   5.862
12888TIP3   OH238599   1.619   7.601   5.803
12888TIP3    H138600   1.525   7.610   5.776
12888TIP3    H238601   1.640   7.509   5.778
12889TIP3   OH238602   1.889   7.593   5.491
12889TIP3    H138603   1.982   7.612   5.471
12889TIP3    H238604   1.842   7.617   5.408
12890TIP3   OH238605   2.677   7.617   5.991
12890TIP3    H138606   2.648   7.631   6.085
12890TIP3    H238607   2.606   7.558   5.959
12891TIP3   OH238608   1.731   7.626   5.270
12891TIP3    H138609   1.657   7.585   5.222
12891TIP3    H238610   1.782   7.664   5.196
12892TIP3   OH238611   2.267   7.870   5.890
12892TIP3    H138612   2.343   7.834   5.842
12892TIP3    H238613   2.278   7.832   5.979
12893TIP3   OH238614   1.790   7.360   5.769
12893TIP3    H138615   1.757   7.280   5.816
12893TIP3    H238616   1.844   7.322   5.699
12894TIP3   OH238617   2.244   7.766   6.184
12894TIP3    H138618   2.156   7.807   6.197
12894TIP3    H238619   2.304   7.827   6.232
12895TIP3   OH238620   1.982   8.146   5.284
12895TIP3    H138621   1.905   8.087   5.272
12895TIP3    H238622   1.960   8.190   5.369
12896TIP3   OH238623   2.884   8.392   5.910
12896TIP3    H138624   2.910   8.440   5.828
12896TIP3    H238625   2.797   8.354   5.885
12897TIP3   OH238626   2.439   7.473   5.135
12897TIP3    H138627   2.342   7.457   5.146
12897TIP3    H238628   2.450   7.566   5.162
12898TIP3   OH238629   2.399   8.454   6.267
12898TIP3    H138630   2.451   8.446   6.348
12898TIP3    H238631   2.329   8.517   6.298
12899TIP3   OH238632   2.509   7.718   5.241
12899TIP3    H138633   2.605   7.725   5.259
12899TIP3    H238634   2.491   7.799   5.190
12900TIP3   OH238635   1.642   8.122   5.933
12900TIP3    H138636   1.705   8.124   5.858
12900TIP3    H238637   1.700   8.100   6.008
12901TIP3   OH238638   2.092   8.327   5.115
12901TIP3    H138639   2.054   8.398   5.171
12901TIP3    H238640   2.055   8.249   5.162
12902TIP3   OH238641   2.264   8.186   6.577
12902TIP3    H138642   2.257   8.194   6.481
12902TIP3    H238643   2.360   8.186   6.588
12903TIP3   OH238644   2.952   7.809   5.078
12903TIP3    H138645   2.890   7.764   5.015
12903TIP3    H238646   2.947   7.899   5.039
12904TIP3   OH238647   3.171   8.658   6.166
12904TIP3    H138648   3.074   8.661   6.147
12904TIP3    H238649   3.202   8.643   6.074
12905TIP3   OH238650   2.647   8.264   5.810
12905TIP3    H138651   2.556   8.239   5.836
12905TIP3    H238652   2.680   8.180   5.775
12906TIP3   OH238653   1.339   7.788   5.280
12906TIP3    H138654   1.385   7.873   5.301
12906TIP3    H238655   1.262   7.794   5.341
12907TIP3   OH238656   1.915   8.264   5.522
12907TIP3    H138657   1.876   8.345   5.557
12907TIP3    H238658   1.886   8.201   5.591
12908TIP3   OH238659   2.437   8.461   5.998
12908TIP3    H138660   2.420   8.464   6.095
12908TIP3    H238661   2.527   8.427   5.997
12909TIP3   OH238662   2.434   8.286   4.852
12909TIP3    H138663   2.469   8.275   4.943
12909TIP3    H238664   2.355   8.341   4.869
12910TIP3   OH238665   1.772   7.602   6.578
12910TIP3    H138666   1.676   7.598   6.595
12910TIP3    H238667   1.805   7.544   6.649
12911TIP3   OH238668   2.562   8.252   5.090
12911TIP3    H138669   2.561   8.193   5.168
12911TIP3    H238670   2.657   8.274   5.086
12912TIP3   OH238671   1.756   8.290   4.933
12912TIP3    H138672   1.794   8.203   4.909
12912TIP3    H238673   1.786   8.300   5.023
12913TIP3   OH238674   1.461   8.030   5.358
12913TIP3    H138675   1.397   8.067   5.422
12913TIP3    H238676   1.466   8.105   5.294
12914TIP3   OH238677   2.608   7.666   6.250
12914TIP3    H138678   2.678   7.713   6.299
12914TIP3    H238679   2.591   7.589   6.307
12915TIP3   OH238680   2.485   7.422   5.419
12915TIP3    H138681   2.470   7.448   5.326
12915TIP3    H238682   2.523   7.504   5.457
12916TIP3   OH238683   2.171   7.602   5.522
12916TIP3    H138684   2.236   7.674   5.505
12916TIP3    H238685   2.176   7.594   5.620
12917TIP3   OH238686   2.436   7.915   6.326
12917TIP3    H138687   2.457   7.978   6.399
12917TIP3    H238688   2.496   7.842   6.346
12918TIP3   OH238689   2.316   7.329   5.624
12918TIP3    H138690   2.311   7.404   5.686
12918TIP3    H238691   2.377   7.366   5.556
12919TIP3   OH238692   1.828   7.327   5.414
12919TIP3    H138693   1.825   7.418   5.450
12919TIP3    H238694   1.924   7.310   5.423
12920TIP3   OH238695   3.081   7.816   6.314
12920TIP3    H138696   2.982   7.816   6.318
12920TIP3    H238697   3.094   7.790   6.222
12921TIP3   OH238698   2.733   8.015   5.699
12921TIP3    H138699   2.657   7.956   5.715
12921TIP3    H238700   2.805   7.969   5.748
12922TIP3   OH238701   1.449   8.246   5.176
12922TIP3    H138702   1.474   8.340   5.169
12922TIP3    H238703   1.504   8.205   5.106
12923TIP3   OH238704   1.390   7.519   5.298
12923TIP3    H138705   1.393   7.617   5.299
12923TIP3    H238706   1.300   7.503   5.270
12924TIP3   OH238707   1.777   7.241   6.176
12924TIP3    H138708   1.746   7.207   6.089
12924TIP3    H238709   1.766   7.163   6.234
12925TIP3   OH238710   1.576   8.051   5.023
12925TIP3    H138711   1.625   8.016   5.099
12925TIP3    H238712   1.648   8.054   4.956
12926TIP3   OH238713   2.035   8.230   4.840
12926TIP3    H138714   2.068   8.247   4.930
12926TIP3    H238715   2.062   8.138   4.825
12927TIP3   OH238716   2.698   8.489   6.204
12927TIP3    H138717   2.756   8.557   6.166
12927TIP3    H238718   2.623   8.542   6.234
12928TIP3   OH238719   1.782   7.959   5.242
12928TIP3    H138720   1.755   7.918   5.326
12928TIP3    H238721   1.820   7.882   5.194
12929TIP3   OH238722   2.047   8.019   6.461
12929TIP3    H138723   2.079   8.083   6.527
12929TIP3    H238724   2.103   8.047   6.385
12930TIP3   OH238725   1.889   7.752   5.086
12930TIP3    H138726   1.863   7.754   4.991
12930TIP3    H238727   1.987   7.759   5.078
12931TIP3   OH238728   2.570   8.382   6.558
12931TIP3    H138729   2.611   8.470   6.555
12931TIP3    H238730   2.571   8.362   6.653
12932TIP3   OH238731   2.717   8.094   4.739
12932TIP3    H138732   2.686   8.041   4.663
12932TIP3    H238733   2.690   8.183   4.709
12933TIP3   OH238734   2.185   7.811   6.585
12933TIP3    H138735   2.189   7.728   6.534
12933TIP3    H238736   2.142   7.872   6.521
12934TIP3   OH238737   2.184   7.596   6.403
12934TIP3    H138738   2.212   7.640   6.320
12934TIP3    H238739   2.090   7.575   6.385
12935TIP3   OH238740   2.211   8.136   6.283
12935TIP3    H138741   2.297   8.146   6.239
12935TIP3    H238742   2.157   8.206   6.239
12936TIP3   OH238743   2.805   8.096   6.643
12936TIP3    H138744   2.867   8.021   6.648
12936TIP3    H238745   2.866   8.170   6.626
12937TIP3   OH238746   2.840   8.341   6.380
12937TIP3    H138747   2.776   8.396   6.330
12937TIP3    H238748   2.925   8.375   6.343
12938TIP3   OH238749   2.045   7.917   6.800
12938TIP3    H138750   1.990   7.837   6.811
12938TIP3    H238751   2.092   7.897   6.716
12939TIP3   OH238752   2.315   7.362   6.472
12939TIP3    H138753   2.267   7.444   6.449
12939TIP3    H238754   2.244   7.295   6.462
12940TIP3   OH238755   2.451   7.863   6.679
12940TIP3    H138756   2.431   7.846   6.773
12940TIP3    H238757   2.362   7.848   6.641
12941TIP3   OH238758   2.679   7.800   6.533
12941TIP3    H138759   2.606   7.821   6.594
12941TIP3    H238760   2.753   7.781   6.595
12942TIP3   OH238761   2.909   7.752   6.692
12942TIP3    H138762   2.923   7.656   6.705
12942TIP3    H238763   2.905   7.786   6.784
12943TIP3   OH238764   1.897   7.703   6.878
12943TIP3    H138765   1.883   7.617   6.834
12943TIP3    H238766   1.943   7.673   6.959
12944TIP3   OH238767   2.412   7.368   6.729
12944TIP3    H138768   2.478   7.297   6.721
12944TIP3    H238769   2.370   7.365   6.641
12945TIP3   OH238770   2.480   7.582   6.888
12945TIP3    H138771   2.461   7.509   6.824
12945TIP3    H238772   2.401   7.639   6.876
12946TIP3   OH238773   1.180   8.161   5.195
12946TIP3    H138774   1.269   8.198   5.175
12946TIP3    H238775   1.178   8.080   5.142
12947TIP3   OH238776   2.843   8.268   5.084
12947TIP3    H138777   2.916   8.326   5.057
12947TIP3    H238778   2.882   8.227   5.165
12948TIP3   OH238779   2.971   8.136   5.284
12948TIP3    H138780   2.908   8.096   5.347
12948TIP3    H238781   3.040   8.174   5.343
12949TIP3   OH238782   3.007   8.523   5.707
12949TIP3    H138783   3.078   8.474   5.663
12949TIP3    H238784   3.015   8.612   5.670
12950TIP3   OH238785   2.910   8.047   4.929
12950TIP3    H138786   2.839   8.054   4.861
12950TIP3    H238787   2.883   8.122   4.986
12951TIP3   OH238788   2.786   7.719   4.883
12951TIP3    H138789   2.735   7.761   4.813
12951TIP3    H238790   2.759   7.625   4.871
12952TIP3   OH238791   2.787   7.995   5.432
12952TIP3    H138792   2.797   7.899   5.427
12952TIP3    H238793   2.774   8.010   5.528
12953TIP3   OH238794   1.416   8.045   6.177
12953TIP3    H138795   1.418   8.051   6.081
12953TIP3    H238796   1.507   8.069   6.201
12954TIP3   OH238797   3.081   8.423   6.291
12954TIP3    H138798   3.152   8.356   6.281
12954TIP3    H238799   3.106   8.490   6.224
12955TIP3   OH238800   3.263   8.225   6.301
12955TIP3    H138801   3.190   8.177   6.345
12955TIP3    H238802   3.336   8.162   6.317
12956TIP3   OH238803   2.727   7.452   4.868
12956TIP3    H138804   2.801   7.425   4.926
12956TIP3    H238805   2.653   7.395   4.896
12957TIP3   OH238806   2.783   7.711   5.325
12957TIP3    H138807   2.823   7.623   5.341
12957TIP3    H238808   2.842   7.745   5.256
12958TIP3   OH238809   2.945   7.885   5.820
12958TIP3    H138810   3.031   7.912   5.780
12958TIP3    H238811   2.956   7.924   5.909
12959TIP3   OH238812   3.011   8.029   6.052
12959TIP3    H138813   2.935   8.063   6.103
12959TIP3    H238814   3.044   8.110   6.008
12960TIP3   OH238815   3.469   7.621   6.609
12960TIP3    H138816   3.526   7.556   6.564
12960TIP3    H238817   3.436   7.676   6.534
12961TIP3   OH238818   2.893   7.462   5.362
12961TIP3    H138819   2.941   7.447   5.446
12961TIP3    H238820   2.832   7.385   5.362
12962TIP3   OH238821   1.590   7.448   6.188
12962TIP3    H138822   1.655   7.375   6.196
12962TIP3    H238823   1.651   7.524   6.178
12963TIP3   OH238824   1.394   7.740   6.259
12963TIP3    H138825   1.443   7.726   6.176
12963TIP3    H238826   1.407   7.835   6.270
12964TIP3   OH238827   3.337   7.760   6.418
12964TIP3    H138828   3.253   7.804   6.445
12964TIP3    H238829   3.302   7.693   6.357
12965TIP3   OH238830   2.973   7.398   4.995
12965TIP3    H138831   3.014   7.326   4.943
12965TIP3    H238832   3.041   7.468   4.991
12966TIP3   OH238833   1.378   7.219   5.752
12966TIP3    H138834   1.286   7.222   5.783
12966TIP3    H238835   1.375   7.283   5.677
12967TIP3   OH238836   1.600   7.302   6.556
12967TIP3    H138837   1.551   7.296   6.640
12967TIP3    H238838   1.532   7.342   6.498
12968TIP3   OH238839   3.236   7.525   6.291
12968TIP3    H138840   3.145   7.524   6.258
12968TIP3    H238841   3.263   7.431   6.278
12969TIP3   OH238842   2.439   7.438   5.907
12969TIP3    H138843   2.396   7.370   5.962
12969TIP3    H238844   2.515   7.390   5.868
12970TIP3   OH238845   2.964   7.313   5.813
12970TIP3    H138846   3.000   7.369   5.741
12970TIP3    H238847   2.870   7.338   5.812
12971TIP3   OH238848   3.059   7.419   5.579
12971TIP3    H138849   3.134   7.369   5.539
12971TIP3    H238850   3.091   7.511   5.565
12972TIP3   OH238851   1.690   7.147   5.926
12972TIP3    H138852   1.597   7.115   5.929
12972TIP3    H238853   1.739   7.062   5.923
12973TIP3   OH238854   1.473   7.016   5.573
12973TIP3    H138855   1.504   7.075   5.503
12973TIP3    H238856   1.444   7.081   5.642
12974TIP3   OH238857   2.132   7.179   5.809
12974TIP3    H138858   2.190   7.230   5.749
12974TIP3    H238859   2.153   7.218   5.894
12975TIP3   OH238860   2.679   7.326   5.792
12975TIP3    H138861   2.678   7.290   5.703
12975TIP3    H238862   2.666   7.245   5.847
12976TIP3   OH238863   2.709   7.249   5.353
12976TIP3    H138864   2.623   7.293   5.367
12976TIP3    H238865   2.694   7.164   5.401
12977TIP3   OH238866   1.592   7.176   5.339
12977TIP3    H138867   1.643   7.116   5.281
12977TIP3    H238868   1.664   7.232   5.375
12978TIP3   OH238869   2.106   7.351   5.437
12978TIP3    H138870   2.167   7.306   5.499
12978TIP3    H238871   2.125   7.444   5.462
12979TIP3   OH238872   1.908   7.432   6.798
12979TIP3    H138873   1.855   7.381   6.862
12979TIP3    H238874   1.998   7.424   6.837
12980TIP3   OH238875   2.151   7.416   6.931
12980TIP3    H138876   2.237   7.390   6.893
12980TIP3    H238877   2.138   7.346   6.998
12981TIP3   OH238878   2.971   7.484   6.725
12981TIP3    H138879   2.990   7.455   6.817
12981TIP3    H238880   3.061   7.480   6.684
12982TIP3   OH238881   4.178   8.398   4.993
12982TIP3    H138882   4.152   8.488   4.966
12982TIP3    H238883   4.104   8.347   4.955
12983TIP3   OH238884   4.172   8.408   5.365
12983TIP3    H138885   4.206   8.388   5.454
12983TIP3    H238886   4.132   8.324   5.339
12984TIP3   OH238887   3.477   8.309   5.726
12984TIP3    H138888   3.503   8.240   5.790
12984TIP3    H238889   3.546   8.375   5.742
12985TIP3   OH238890   4.398   8.712   5.056
12985TIP3    H138891   4.400   8.641   5.122
12985TIP3    H238892   4.443   8.783   5.104
12986TIP3   OH238893   3.476   8.660   5.502
12986TIP3    H138894   3.463   8.563   5.492
12986TIP3    H238895   3.571   8.670   5.483
12987TIP3   OH238896   3.155   7.918   5.238
12987TIP3    H138897   3.110   8.003   5.257
12987TIP3    H238898   3.081   7.867   5.202
12988TIP3   OH238899   3.207   8.202   5.407
12988TIP3    H138900   3.257   8.128   5.448
12988TIP3    H238901   3.278   8.250   5.362
12989TIP3   OH238902   3.990   8.633   5.388
12989TIP3    H138903   4.038   8.551   5.369
12989TIP3    H238904   4.066   8.686   5.423
12990TIP3   OH238905   4.988   7.952   5.409
12990TIP3    H138906   5.012   8.034   5.458
12990TIP3    H238907   5.018   7.973   5.319
12991TIP3   OH238908   4.387   8.139   5.445
12991TIP3    H138909   4.428   8.054   5.468
12991TIP3    H238910   4.356   8.121   5.354
12992TIP3   OH238911   3.725   7.798   5.409
12992TIP3    H138912   3.703   7.872   5.349
12992TIP3    H238913   3.674   7.726   5.366
12993TIP3   OH238914   4.419   7.887   5.032
12993TIP3    H138915   4.490   7.872   5.099
12993TIP3    H238916   4.472   7.924   4.960
12994TIP3   OH238917   3.357   8.001   5.517
12994TIP3    H138918   3.440   7.983   5.567
12994TIP3    H238919   3.372   7.945   5.439
12995TIP3   OH238920   3.802   8.200   5.298
12995TIP3    H138921   3.893   8.173   5.320
12995TIP3    H238922   3.760   8.114   5.275
12996TIP3   OH238923   5.049   8.151   5.590
12996TIP3    H138924   4.995   8.220   5.546
12996TIP3    H238925   5.081   8.201   5.667
12997TIP3   OH238926   3.720   7.780   5.845
12997TIP3    H138927   3.660   7.821   5.779
12997TIP3    H238928   3.669   7.799   5.927
12998TIP3   OH238929   4.078   8.602   4.844
12998TIP3    H138930   4.026   8.574   4.768
12998TIP3    H238931   4.034   8.686   4.866
12999TIP3   OH238932   3.815   8.557   5.643
12999TIP3    H138933   3.763   8.620   5.698
12999TIP3    H238934   3.861   8.618   5.584
13000TIP3   OH238935   4.629   7.891   5.206
13000TIP3    H138936   4.611   7.850   5.292
13000TIP3    H238937   4.686   7.966   5.230
13001TIP3   OH238938   3.590   7.897   5.629
13001TIP3    H138939   3.649   7.972   5.655
13001TIP3    H238940   3.643   7.858   5.556
13002TIP3   OH238941   3.655   8.766   5.735
13002TIP3    H138942   3.608   8.812   5.664
13002TIP3    H238943   3.584   8.757   5.802
13003TIP3   OH238944   3.059   8.411   4.988
13003TIP3    H138945   3.020   8.439   4.903
13003TIP3    H238946   3.076   8.498   5.027
13004TIP3   OH238947   4.779   7.849   5.572
13004TIP3    H138948   4.694   7.889   5.549
13004TIP3    H238949   4.840   7.889   5.506
13005TIP3   OH238950   4.077   7.501   5.559
13005TIP3    H138951   4.062   7.407   5.577
13005TIP3    H238952   4.000   7.541   5.606
13006TIP3   OH238953   4.414   8.708   4.778
13006TIP3    H138954   4.348   8.639   4.762
13006TIP3    H238955   4.429   8.700   4.874
13007TIP3   OH238956   4.712   8.872   5.561
13007TIP3    H138957   4.698   8.790   5.509
13007TIP3    H238958   4.716   8.939   5.490
13008TIP3   OH238959   4.010   8.262   4.817
13008TIP3    H138960   3.926   8.308   4.795
13008TIP3    H238961   4.055   8.257   4.731
13009TIP3   OH238962   3.966   8.047   4.531
13009TIP3    H138963   4.034   8.098   4.580
13009TIP3    H238964   4.023   7.983   4.484
13010TIP3   OH238965   4.354   8.341   4.792
13010TIP3    H138966   4.301   8.361   4.873
13010TIP3    H238967   4.439   8.315   4.834
13011TIP3   OH238968   4.588   8.385   5.699
13011TIP3    H138969   4.587   8.470   5.748
13011TIP3    H238970   4.501   8.390   5.655
13012TIP3   OH238971   3.598   8.345   5.189
13012TIP3    H138972   3.550   8.280   5.133
13012TIP3    H238973   3.669   8.290   5.228
13013TIP3   OH238974   3.718   8.719   5.385
13013TIP3    H138975   3.712   8.681   5.298
13013TIP3    H238976   3.814   8.732   5.395
13014TIP3   OH238977   3.722   8.315   5.548
13014TIP3    H138978   3.767   8.300   5.463
13014TIP3    H238979   3.762   8.399   5.580
13015TIP3   OH238980   4.193   8.204   4.615
13015TIP3    H138981   4.253   8.263   4.665
13015TIP3    H238982   4.222   8.222   4.522
13016TIP3   OH238983   3.609   8.425   5.977
13016TIP3    H138984   3.623   8.514   6.013
13016TIP3    H238985   3.515   8.410   6.000
13017TIP3   OH238986   4.710   7.445   4.660
13017TIP3    H138987   4.629   7.467   4.712
13017TIP3    H238988   4.725   7.529   4.612
13018TIP3   OH238989   3.453   8.186   5.006
13018TIP3    H138990   3.384   8.223   4.947
13018TIP3    H238991   3.414   8.101   5.031
13019TIP3   OH238992   3.252   8.572   5.919
13019TIP3    H138993   3.178   8.554   5.859
13019TIP3    H238994   3.281   8.483   5.947
13020TIP3   OH238995   4.847   8.346   5.872
13020TIP3    H138996   4.762   8.360   5.827
13020TIP3    H238997   4.857   8.249   5.867
13021TIP3   OH238998   3.442   8.770   5.910
13021TIP3    H138999   3.494   8.736   5.986
13021TIP3    H239000   3.368   8.706   5.907
13022TIP3   OH239001   3.839   7.577   5.687
13022TIP3    H139002   3.749   7.547   5.662
13022TIP3    H239003   3.815   7.659   5.734
13023TIP3   OH239004   4.371   7.688   5.882
13023TIP3    H139005   4.438   7.667   5.949
13023TIP3    H239006   4.287   7.672   5.929
13024TIP3   OH239007   4.611   8.122   5.799
13024TIP3    H139008   4.562   8.117   5.885
13024TIP3    H239009   4.587   8.211   5.766
13025TIP3   OH239010   4.272   8.234   4.358
13025TIP3    H139011   4.241   8.215   4.268
13025TIP3    H239012   4.331   8.309   4.342
13026TIP3   OH239013   3.984   7.626   4.659
13026TIP3    H139014   3.952   7.623   4.751
13026TIP3    H239015   3.943   7.544   4.625
13027TIP3   OH239016   3.766   8.092   5.701
13027TIP3    H139017   3.729   8.118   5.788
13027TIP3    H239018   3.752   8.175   5.650
13028TIP3   OH239019   3.652   7.979   5.219
13028TIP3    H139020   3.560   7.951   5.239
13028TIP3    H239021   3.664   7.936   5.132
13029TIP3   OH239022   4.145   8.061   4.947
13029TIP3    H139023   4.093   8.133   4.906
13029TIP3    H239024   4.200   8.031   4.872
13030TIP3   OH239025   4.336   8.341   6.024
13030TIP3    H139026   4.298   8.279   6.089
13030TIP3    H239027   4.427   8.350   6.058
13031TIP3   OH239028   4.302   8.091   5.188
13031TIP3    H139029   4.242   8.123   5.118
13031TIP3    H239030   4.334   8.010   5.144
13032TIP3   OH239031   3.580   8.120   5.913
13032TIP3    H139032   3.623   8.188   5.967
13032TIP3    H239033   3.578   8.043   5.972
13033TIP3   OH239034   3.640   7.599   4.625
13033TIP3    H139035   3.629   7.596   4.722
13033TIP3    H239036   3.561   7.650   4.599
13034TIP3   OH239037   3.182   7.643   5.493
13034TIP3    H139038   3.255   7.676   5.550
13034TIP3    H239039   3.227   7.611   5.414
13035TIP3   OH239040   3.155   7.625   5.014
13035TIP3    H139041   3.201   7.664   4.936
13035TIP3    H239042   3.094   7.698   5.036
13036TIP3   OH239043   4.310   8.340   5.607
13036TIP3    H139044   4.345   8.267   5.551
13036TIP3    H239045   4.282   8.289   5.686
13037TIP3   OH239046   3.979   7.798   5.280
13037TIP3    H139047   3.897   7.799   5.333
13037TIP3    H239048   4.047   7.802   5.350
13038TIP3   OH239049   3.416   7.857   5.288
13038TIP3    H139050   3.321   7.866   5.263
13038TIP3    H239051   3.436   7.764   5.267
13039TIP3   OH239052   3.685   7.850   4.978
13039TIP3    H139053   3.779   7.868   4.957
13039TIP3    H239054   3.638   7.874   4.895
13040TIP3   OH239055   4.472   7.874   5.476
13040TIP3    H139056   4.445   7.887   5.571
13040TIP3    H239057   4.401   7.815   5.446
13041TIP3   OH239058   3.526   7.888   4.758
13041TIP3    H139059   3.453   7.842   4.713
13041TIP3    H239060   3.577   7.921   4.681
13042TIP3   OH239061   3.592   8.674   6.120
13042TIP3    H139062   3.680   8.702   6.151
13042TIP3    H239063   3.542   8.672   6.203
13043TIP3   OH239064   4.062   8.128   5.377
13043TIP3    H139065   4.139   8.089   5.333
13043TIP3    H239066   4.069   8.092   5.467
13044TIP3   OH239067   3.586   7.616   5.257
13044TIP3    H139068   3.551   7.538   5.305
13044TIP3    H239069   3.638   7.575   5.187
13045TIP3   OH239070   4.040   8.028   5.670
13045TIP3    H139071   3.951   8.066   5.685
13045TIP3    H239072   4.098   8.089   5.720
13046TIP3   OH239073   3.777   8.402   4.768
13046TIP3    H139074   3.704   8.338   4.755
13046TIP3    H239075   3.751   8.446   4.851
13047TIP3   OH239076   4.669   8.658   5.403
13047TIP3    H139077   4.720   8.681   5.322
13047TIP3    H239078   4.595   8.606   5.368
13048TIP3   OH239079   4.236   7.729   4.622
13048TIP3    H139080   4.139   7.713   4.633
13048TIP3    H239081   4.246   7.823   4.649
13049TIP3   OH239082   4.184   8.752   5.762
13049TIP3    H139083   4.185   8.687   5.834
13049TIP3    H239084   4.109   8.804   5.797
13050TIP3   OH239085   4.306   7.974   4.727
13050TIP3    H139086   4.402   7.980   4.746
13050TIP3    H239087   4.289   8.056   4.676
13051TIP3   OH239088   3.456   8.386   5.434
13051TIP3    H139089   3.514   8.379   5.356
13051TIP3    H239090   3.511   8.346   5.504
13052TIP3   OH239091   3.888   8.582   4.599
13052TIP3    H139092   3.861   8.653   4.662
13052TIP3    H239093   3.850   8.505   4.645
13053TIP3   OH239094   3.348   8.354   6.057
13053TIP3    H139095   3.370   8.342   6.151
13053TIP3    H239096   3.280   8.286   6.044
13054TIP3   OH239097   4.069   8.423   6.094
13054TIP3    H139098   4.013   8.494   6.055
13054TIP3    H239099   4.151   8.433   6.044
13055TIP3   OH239100   4.745   8.065   4.566
13055TIP3    H139101   4.683   8.021   4.502
13055TIP3    H239102   4.742   8.154   4.526
13056TIP3   OH239103   4.967   8.915   5.647
13056TIP3    H139104   4.869   8.919   5.634
13056TIP3    H239105   4.994   8.893   5.555
13057TIP3   OH239106   4.440   8.519   5.294
13057TIP3    H139107   4.350   8.491   5.321
13057TIP3    H239108   4.477   8.435   5.262
13058TIP3   OH239109   3.135   8.045   4.769
13058TIP3    H139110   3.179   8.130   4.788
13058TIP3    H239111   3.056   8.051   4.828
13059TIP3   OH239112   3.703   8.522   5.007
13059TIP3    H139113   3.764   8.592   5.038
13059TIP3    H239114   3.696   8.464   5.085
13060TIP3   OH239115   4.229   8.718   5.490
13060TIP3    H139116   4.218   8.727   5.588
13060TIP3    H239117   4.315   8.676   5.483
13061TIP3   OH239118   4.230   8.548   4.339
13061TIP3    H139119   4.266   8.533   4.429
13061TIP3    H239120   4.149   8.599   4.358
13062TIP3   OH239121   3.564   7.860   6.062
13062TIP3    H139122   3.469   7.870   6.079
13062TIP3    H239123   3.591   7.804   6.137
13063TIP3   OH239124   4.358   8.507   4.576
13063TIP3    H139125   4.357   8.449   4.654
13063TIP3    H239126   4.453   8.529   4.572
13064TIP3   OH239127   3.555   8.549   4.415
13064TIP3    H139128   3.590   8.459   4.397
13064TIP3    H239129   3.577   8.562   4.508
13065TIP3   OH239130   3.258   8.292   4.845
13065TIP3    H139131   3.189   8.325   4.906
13065TIP3    H239132   3.258   8.364   4.779
13066TIP3   OH239133   4.406   7.920   5.735
13066TIP3    H139134   4.475   7.968   5.785
13066TIP3    H239135   4.387   7.844   5.793
13067TIP3   OH239136   4.282   7.678   4.905
13067TIP3    H139137   4.267   7.704   4.813
13067TIP3    H239138   4.320   7.760   4.944
13068TIP3   OH239139   3.968   7.858   5.009
13068TIP3    H139140   4.033   7.930   4.993
13068TIP3    H239141   3.972   7.850   5.107
13069TIP3   OH239142   4.239   8.178   5.816
13069TIP3    H139143   4.252   8.240   5.891
13069TIP3    H239144   4.294   8.103   5.842
13070TIP3   OH239145   4.113   7.585   5.112
13070TIP3    H139146   4.107   7.660   5.174
13070TIP3    H239147   4.173   7.623   5.044
13071TIP3   OH239148   3.625   7.584   4.901
13071TIP3    H139149   3.620   7.674   4.939
13071TIP3    H239150   3.721   7.568   4.910
13072TIP3   OH239151   4.877   8.071   5.807
13072TIP3    H139152   4.779   8.071   5.805
13072TIP3    H239153   4.898   8.061   5.713
13073TIP3   OH239154   4.529   8.271   5.187
13073TIP3    H139155   4.454   8.211   5.203
13073TIP3    H239156   4.602   8.228   5.236
13074TIP3   OH239157   3.256   8.512   4.669
13074TIP3    H139158   3.266   8.607   4.648
13074TIP3    H239159   3.302   8.469   4.595
13075TIP3   OH239160   3.187   7.776   4.786
13075TIP3    H139161   3.185   7.874   4.786
13075TIP3    H239162   3.100   7.754   4.752
13076TIP3   OH239163   3.575   7.496   5.662
13076TIP3    H139164   3.542   7.463   5.576
13076TIP3    H239165   3.563   7.418   5.720
13077TIP3   OH239166   3.398   8.653   6.319
13077TIP3    H139167   3.423   8.559   6.316
13077TIP3    H239168   3.314   8.652   6.268
13078TIP3   OH239169   3.372   8.311   4.511
13078TIP3    H139170   3.420   8.271   4.585
13078TIP3    H239171   3.443   8.310   4.443
13079TIP3   OH239172   3.835   8.489   4.323
13079TIP3    H139173   3.860   8.505   4.414
13079TIP3    H239174   3.861   8.396   4.310
13080TIP3   OH239175   4.500   8.743   5.694
13080TIP3    H139176   4.561   8.805   5.650
13080TIP3    H239177   4.418   8.794   5.698
13081TIP3   OH239178   3.518   8.396   6.294
13081TIP3    H139179   3.594   8.343   6.268
13081TIP3    H239180   3.547   8.427   6.383
13082TIP3   OH239181   3.581   8.214   4.732
13082TIP3    H139182   3.551   8.169   4.813
13082TIP3    H239183   3.617   8.140   4.679
13083TIP3   OH239184   3.839   8.261   5.940
13083TIP3    H139185   3.780   8.338   5.957
13083TIP3    H239186   3.907   8.304   5.884
13084TIP3   OH239187   3.685   8.012   4.572
13084TIP3    H139188   3.659   8.011   4.477
13084TIP3    H239189   3.783   8.016   4.564
13085TIP3   OH239190   4.382   8.677   6.099
13085TIP3    H139191   4.452   8.644   6.042
13085TIP3    H239192   4.375   8.607   6.167
13086TIP3   OH239193   4.509   8.353   4.227
13086TIP3    H139194   4.482   8.297   4.151
13086TIP3    H239195   4.483   8.441   4.193
13087TIP3   OH239196   3.977   8.072   6.084
13087TIP3    H139197   3.976   7.993   6.026
13087TIP3    H239198   3.935   8.140   6.027
13088TIP3   OH239199   3.980   7.852   5.888
13088TIP3    H139200   4.006   7.900   5.807
13088TIP3    H239201   3.885   7.834   5.872
13089TIP3   OH239202   4.004   8.381   5.756
13089TIP3    H139203   4.086   8.406   5.713
13089TIP3    H239204   3.948   8.460   5.740
13090TIP3   OH239205   4.592   8.358   6.147
13090TIP3    H139206   4.644   8.278   6.162
13090TIP3    H239207   4.658   8.421   6.116
13091TIP3   OH239208   4.634   8.609   5.884
13091TIP3    H139209   4.576   8.661   5.823
13091TIP3    H239210   4.722   8.630   5.844
13092TIP3   OH239211   3.856   8.181   6.318
13092TIP3    H139212   3.787   8.113   6.327
13092TIP3    H239213   3.890   8.163   6.228
13093TIP3   OH239214   4.111   7.618   5.958
13093TIP3    H139215   4.063   7.701   5.935
13093TIP3    H239216   4.040   7.551   5.948
13094TIP3   OH239217   4.241   8.127   6.171
13094TIP3    H139218   4.227   8.118   6.267
13094TIP3    H239219   4.149   8.110   6.140
13095TIP3   OH239220   4.474   8.063   6.025
13095TIP3    H139221   4.400   8.077   6.087
13095TIP3    H239222   4.547   8.038   6.085
13096TIP3   OH239223   4.708   8.011   6.178
13096TIP3    H139224   4.717   7.916   6.199
13096TIP3    H239225   4.701   8.052   6.267
13097TIP3   OH239226   3.692   7.961   6.367
13097TIP3    H139227   3.702   7.870   6.334
13097TIP3    H239228   3.727   7.952   6.458
13098TIP3   OH239229   4.206   7.628   6.216
13098TIP3    H139230   4.273   7.557   6.209
13098TIP3    H239231   4.166   7.624   6.127
13099TIP3   OH239232   4.271   7.844   6.377
13099TIP3    H139233   4.248   7.775   6.311
13099TIP3    H239234   4.194   7.905   6.370
13100TIP3   OH239235   2.979   8.415   4.694
13100TIP3    H139236   3.061   8.455   4.662
13100TIP3    H239237   2.968   8.337   4.635
13101TIP3   OH239238   4.850   9.051   5.940
13101TIP3    H139239   4.772   9.018   5.989
13101TIP3    H239240   4.901   9.091   6.014
13102TIP3   OH239241   4.637   8.526   4.569
13102TIP3    H139242   4.713   8.582   4.544
13102TIP3    H239243   4.674   8.484   4.650
13103TIP3   OH239244   4.760   8.393   4.766
13103TIP3    H139245   4.704   8.352   4.835
13103TIP3    H239246   4.836   8.428   4.818
13104TIP3   OH239247   4.818   8.774   5.198
13104TIP3    H139248   4.873   8.733   5.131
13104TIP3    H239249   4.807   8.864   5.166
13105TIP3   OH239250   4.706   8.304   4.415
13105TIP3    H139251   4.634   8.311   4.349
13105TIP3    H239252   4.680   8.377   4.475
13106TIP3   OH239253   4.580   7.976   4.368
13106TIP3    H139254   4.531   8.016   4.296
13106TIP3    H239255   4.555   7.882   4.359
13107TIP3   OH239256   4.581   8.251   4.920
13107TIP3    H139257   4.593   8.155   4.915
13107TIP3    H239258   4.569   8.266   5.016
13108TIP3   OH239259   3.212   8.331   5.663
13108TIP3    H139260   3.210   8.300   5.571
13108TIP3    H239261   3.309   8.331   5.680
13109TIP3   OH239262   4.878   8.675   5.778
13109TIP3    H139263   4.953   8.614   5.766
13109TIP3    H239264   4.897   8.741   5.709
13110TIP3   OH239265   5.073   8.487   5.822
13110TIP3    H139266   4.989   8.439   5.842
13110TIP3    H239267   5.134   8.410   5.817
13111TIP3   OH239268   4.523   7.710   4.355
13111TIP3    H139269   4.598   7.682   4.411
13111TIP3    H239270   4.450   7.652   4.384
13112TIP3   OH239271   4.578   7.967   4.811
13112TIP3    H139272   4.620   7.879   4.827
13112TIP3    H239273   4.638   8.001   4.742
13113TIP3   OH239274   4.753   8.153   5.300
13113TIP3    H139275   4.831   8.194   5.260
13113TIP3    H239276   4.763   8.188   5.392
13114TIP3   OH239277   4.801   8.293   5.532
13114TIP3    H139278   4.730   8.334   5.584
13114TIP3    H239279   4.847   8.370   5.491
13115TIP3   OH239280   3.425   8.008   6.329
13115TIP3    H139281   3.523   8.006   6.336
13115TIP3    H239282   3.402   7.927   6.379
13116TIP3   OH239283   5.263   7.874   6.092
13116TIP3    H139284   5.322   7.809   6.048
13116TIP3    H239285   5.232   7.928   6.016
13117TIP3   OH239286   4.689   7.718   4.849
13117TIP3    H139287   4.738   7.704   4.933
13117TIP3    H239288   4.629   7.642   4.850
13118TIP3   OH239289   3.389   7.703   5.664
13118TIP3    H139290   3.453   7.631   5.679
13118TIP3    H239291   3.449   7.780   5.662
13119TIP3   OH239292   3.191   7.977   5.742
13119TIP3    H139293   3.242   7.978   5.659
13119TIP3    H239294   3.216   8.061   5.782
13120TIP3   OH239295   5.132   8.016   5.905
13120TIP3    H139296   5.047   8.059   5.926
13120TIP3    H239297   5.100   7.949   5.842
13121TIP3   OH239298   4.769   7.654   4.481
13121TIP3    H139299   4.811   7.582   4.430
13121TIP3    H239300   4.836   7.725   4.478
13122TIP3   OH239301   3.175   7.478   5.240
13122TIP3    H139302   3.082   7.479   5.271
13122TIP3    H239303   3.172   7.540   5.164
13123TIP3   OH239304   3.394   7.557   6.055
13123TIP3    H139305   3.346   7.557   6.139
13123TIP3    H239306   3.328   7.600   5.997
13124TIP3   OH239307   5.033   7.782   5.779
13124TIP3    H139308   4.942   7.784   5.745
13124TIP3    H239309   5.058   7.688   5.764
13125TIP3   OH239310   4.235   7.694   5.394
13125TIP3    H139311   4.192   7.628   5.450
13125TIP3    H239312   4.311   7.645   5.357
13126TIP3   OH239313   4.760   7.568   5.301
13126TIP3    H139314   4.797   7.626   5.230
13126TIP3    H239315   4.666   7.594   5.300
13127TIP3   OH239316   4.854   7.674   5.067
13127TIP3    H139317   4.927   7.625   5.024
13127TIP3    H239318   4.886   7.766   5.054
13128TIP3   OH239319   3.486   7.404   5.412
13128TIP3    H139320   3.393   7.371   5.415
13128TIP3    H239321   3.534   7.319   5.410
13129TIP3   OH239322   3.272   7.274   5.061
13129TIP3    H139323   3.299   7.333   4.989
13129TIP3    H239324   3.242   7.338   5.129
13130TIP3   OH239325   3.930   7.434   5.294
13130TIP3    H139326   3.987   7.489   5.238
13130TIP3    H239327   3.944   7.474   5.381
13131TIP3   OH239328   4.476   7.583   5.279
13131TIP3    H139329   4.472   7.548   5.190
13131TIP3    H239330   4.462   7.501   5.333
13132TIP3   OH239331   4.504   7.505   4.840
13132TIP3    H139332   4.420   7.551   4.855
13132TIP3    H239333   4.489   7.421   4.888
13133TIP3   OH239334   3.388   7.434   4.824
13133TIP3    H139335   3.437   7.371   4.768
13133TIP3    H239336   3.461   7.488   4.862
13134TIP3   OH239337   3.904   7.607   4.924
13134TIP3    H139338   3.963   7.563   4.988
13134TIP3    H239339   3.922   7.701   4.949
13135TIP3   OH239340   3.694   7.682   6.301
13135TIP3    H139341   3.657   7.615   6.362
13135TIP3    H239342   3.787   7.684   6.331
13136TIP3   OH239343   3.941   7.681   6.424
13136TIP3    H139344   4.027   7.659   6.386
13136TIP3    H239345   3.929   7.610   6.490
13137TIP3   OH239346   4.766   7.740   6.211
13137TIP3    H139347   4.785   7.711   6.303
13137TIP3    H239348   4.855   7.738   6.171
13138TIP3   OH239349   5.974   8.655   4.479
13138TIP3    H139350   5.943   8.744   4.452
13138TIP3    H239351   5.900   8.602   4.446
13139TIP3   OH239352   5.963   8.664   4.852
13139TIP3    H139353   5.997   8.636   4.940
13139TIP3    H239354   5.923   8.581   4.821
13140TIP3   OH239355   6.191   8.971   4.547
13140TIP3    H139356   6.191   8.896   4.609
13140TIP3    H239357   6.240   9.037   4.598
13141TIP3   OH239358   5.287   8.925   5.001
13141TIP3    H139359   5.265   8.831   4.981
13141TIP3    H239360   5.375   8.932   4.958
13142TIP3   OH239361   4.955   8.169   4.720
13142TIP3    H139362   4.922   8.256   4.748
13142TIP3    H239363   4.873   8.127   4.687
13143TIP3   OH239364   4.996   8.459   4.877
13143TIP3    H139365   5.036   8.394   4.940
13143TIP3    H239366   5.075   8.509   4.854
13144TIP3   OH239367   5.779   8.885   4.879
13144TIP3    H139368   5.824   8.803   4.853
13144TIP3    H239369   5.858   8.937   4.904
13145TIP3   OH239370   6.779   8.211   4.903
13145TIP3    H139371   6.795   8.294   4.951
13145TIP3    H239372   6.806   8.235   4.813
13146TIP3   OH239373   6.186   8.397   4.929
13146TIP3    H139374   6.227   8.310   4.950
13146TIP3    H239375   6.153   8.379   4.839
13147TIP3   OH239376   5.522   8.055   4.895
13147TIP3    H139377   5.498   8.130   4.836
13147TIP3    H239378   5.470   7.983   4.852
13148TIP3   OH239379   6.215   8.144   4.520
13148TIP3    H139380   6.286   8.128   4.586
13148TIP3    H239381   6.268   8.181   4.447
13149TIP3   OH239382   5.156   8.273   4.989
13149TIP3    H139383   5.211   8.250   5.066
13149TIP3    H239384   5.183   8.205   4.924
13150TIP3   OH239385   5.599   8.456   4.787
13150TIP3    H139386   5.690   8.427   4.808
13150TIP3    H239387   5.556   8.371   4.763
13151TIP3   OH239388   5.518   8.036   5.334
13151TIP3    H139389   5.458   8.077   5.268
13151TIP3    H239390   5.466   8.055   5.416
13152TIP3   OH239391   5.868   8.859   4.332
13152TIP3    H139392   5.808   8.841   4.258
13152TIP3    H239393   5.857   8.954   4.346
13153TIP3   OH239394   5.618   8.809   5.127
13153TIP3    H139395   5.552   8.867   5.169
13153TIP3    H239396   5.652   8.866   5.056
13154TIP3   OH239397   6.425   8.147   4.691
13154TIP3    H139398   6.411   8.101   4.775
13154TIP3    H239399   6.477   8.225   4.719
13155TIP3   OH239400   5.386   8.149   5.119
13155TIP3    H139401   5.441   8.227   5.142
13155TIP3    H239402   5.437   8.113   5.043
13156TIP3   OH239403   5.449   9.020   5.225
13156TIP3    H139404   5.415   9.034   5.135
13156TIP3    H239405   5.365   9.009   5.274
13157TIP3   OH239406   4.854   8.666   4.473
13157TIP3    H139407   4.814   8.687   4.386
13157TIP3    H239408   4.869   8.756   4.505
13158TIP3   OH239409   6.559   8.101   5.055
13158TIP3    H139410   6.477   8.134   5.014
13158TIP3    H239411   6.629   8.139   4.998
13159TIP3   OH239412   5.875   7.758   5.047
13159TIP3    H139413   5.857   7.664   5.063
13159TIP3    H239414   5.797   7.798   5.093
13160TIP3   OH239415   6.212   8.967   4.267
13160TIP3    H139416   6.151   8.895   4.245
13160TIP3    H239417   6.225   8.954   4.363
13161TIP3   OH239418   5.805   8.517   4.304
13161TIP3    H139419   5.722   8.565   4.285
13161TIP3    H239420   5.849   8.515   4.217
13162TIP3   OH239421   5.762   8.305   4.017
13162TIP3    H139422   5.830   8.354   4.066
13162TIP3    H239423   5.819   8.240   3.970
13163TIP3   OH239424   6.151   8.598   4.279
13163TIP3    H139425   6.096   8.618   4.359
13163TIP3    H239426   6.235   8.572   4.321
13164TIP3   OH239427   5.391   8.599   4.678
13164TIP3    H139428   5.348   8.538   4.615
13164TIP3    H239429   5.466   8.546   4.711
13165TIP3   OH239430   5.518   8.974   4.879
13165TIP3    H139431   5.479   8.964   4.791
13165TIP3    H239432   5.612   8.951   4.864
13166TIP3   OH239433   5.513   8.567   5.037
13166TIP3    H139434   5.553   8.552   4.950
13166TIP3    H239435   5.551   8.652   5.066
13167TIP3   OH239436   5.561   9.055   5.485
13167TIP3    H139437   5.584   9.148   5.470
13167TIP3    H239438   5.519   9.033   5.399
13168TIP3   OH239439   5.990   8.460   4.101
13168TIP3    H139440   6.049   8.520   4.152
13168TIP3    H239441   6.019   8.479   4.008
13169TIP3   OH239442   5.408   8.664   5.464
13169TIP3    H139443   5.408   8.741   5.525
13169TIP3    H239444   5.313   8.661   5.444
13170TIP3   OH239445   6.506   7.702   4.147
13170TIP3    H139446   6.425   7.722   4.198
13170TIP3    H239447   6.519   7.786   4.099
13171TIP3   OH239448   5.254   8.440   4.488
13171TIP3    H139449   5.184   8.480   4.433
13171TIP3    H239450   5.210   8.360   4.521
13172TIP3   OH239451   5.041   8.827   5.395
13172TIP3    H139452   4.966   8.801   5.340
13172TIP3    H239453   5.065   8.743   5.440
13173TIP3   OH239454   5.239   9.016   5.404
13173TIP3    H139455   5.281   8.965   5.477
13173TIP3    H239456   5.159   8.959   5.391
13174TIP3   OH239457   5.636   7.834   5.175
13174TIP3    H139458   5.546   7.804   5.149
13174TIP3    H239459   5.611   7.917   5.221
13175TIP3   OH239460   6.164   7.947   5.372
13175TIP3    H139461   6.223   7.920   5.444
13175TIP3    H239462   6.075   7.931   5.410
13176TIP3   OH239463   6.068   8.492   3.845
13176TIP3    H139464   6.037   8.472   3.754
13176TIP3    H239465   6.131   8.564   3.827
13177TIP3   OH239466   5.781   7.882   4.146
13177TIP3    H139467   5.748   7.880   4.238
13177TIP3    H239468   5.741   7.800   4.112
13178TIP3   OH239469   5.571   8.346   5.188
13178TIP3    H139470   5.528   8.359   5.276
13178TIP3    H239471   5.543   8.428   5.141
13179TIP3   OH239472   5.449   8.236   4.705
13179TIP3    H139473   5.357   8.209   4.727
13179TIP3    H239474   5.460   8.193   4.618
13180TIP3   OH239475   5.942   8.319   4.434
13180TIP3    H139476   5.888   8.390   4.392
13180TIP3    H239477   5.996   8.288   4.359
13181TIP3   OH239478   6.098   8.348   4.673
13181TIP3    H139479   6.037   8.378   4.602
13181TIP3    H239480   6.131   8.267   4.630
13182TIP3   OH239481   5.418   8.362   5.409
13182TIP3    H139482   5.388   8.451   5.432
13182TIP3    H239483   5.342   8.308   5.434
13183TIP3   OH239484   5.435   7.855   4.111
13183TIP3    H139485   5.427   7.852   4.208
13183TIP3    H239486   5.356   7.907   4.088
13184TIP3   OH239487   4.978   7.897   4.982
13184TIP3    H139488   5.049   7.934   5.039
13184TIP3    H239489   5.024   7.872   4.901
13185TIP3   OH239490   4.950   7.881   4.499
13185TIP3    H139491   4.998   7.920   4.423
13185TIP3    H239492   4.892   7.956   4.524
13186TIP3   OH239493   6.079   8.586   5.091
13186TIP3    H139494   6.128   8.520   5.037
13186TIP3    H239495   6.055   8.531   5.168
13187TIP3   OH239496   5.776   8.055   4.767
13187TIP3    H139497   5.692   8.056   4.818
13187TIP3    H239498   5.842   8.058   4.839
13188TIP3   OH239499   5.215   8.110   4.770
13188TIP3    H139500   5.120   8.121   4.748
13188TIP3    H239501   5.232   8.017   4.747
13189TIP3   OH239502   5.481   8.106   4.464
13189TIP3    H139503   5.575   8.124   4.444
13189TIP3    H239504   5.433   8.130   4.382
13190TIP3   OH239505   6.267   8.131   4.962
13190TIP3    H139506   6.241   8.144   5.057
13190TIP3    H239507   6.197   8.072   4.932
13191TIP3   OH239508   5.322   8.142   4.244
13191TIP3    H139509   5.248   8.099   4.198
13191TIP3    H239510   5.373   8.177   4.168
13192TIP3   OH239511   5.376   8.899   5.606
13192TIP3    H139512   5.453   8.959   5.595
13192TIP3    H239513   5.341   8.917   5.695
13193TIP3   OH239514   5.860   8.386   4.867
13193TIP3    H139515   5.933   8.343   4.820
13193TIP3    H239516   5.864   8.345   4.955
13194TIP3   OH239517   5.384   7.871   4.743
13194TIP3    H139518   5.349   7.793   4.791
13194TIP3    H239519   5.436   7.830   4.673
13195TIP3   OH239520   5.834   8.278   5.146
13195TIP3    H139521   5.743   8.312   5.165
13195TIP3    H239522   5.890   8.335   5.204
13196TIP3   OH239523   5.574   8.661   4.258
13196TIP3    H139524   5.498   8.600   4.246
13196TIP3    H239525   5.550   8.705   4.343
13197TIP3   OH239526   6.031   7.987   4.107
13197TIP3    H139527   5.935   7.969   4.120
13197TIP3    H239528   6.041   8.080   4.136
13198TIP3   OH239529   6.102   8.231   4.215
13198TIP3    H139530   6.197   8.237   4.233
13198TIP3    H239531   6.084   8.312   4.164
13199TIP3   OH239532   5.253   8.666   4.914
13199TIP3    H139533   5.306   8.643   4.835
13199TIP3    H239534   5.290   8.606   4.981
13200TIP3   OH239535   5.684   8.840   4.087
13200TIP3    H139536   5.647   8.910   4.146
13200TIP3    H239537   5.649   8.761   4.134
13201TIP3   OH239538   5.129   8.631   5.563
13201TIP3    H139539   5.150   8.582   5.643
13201TIP3    H239540   5.104   8.557   5.502
13202TIP3   OH239541   6.543   8.322   4.051
13202TIP3    H139542   6.481   8.277   3.989
13202TIP3    H239543   6.537   8.412   4.012
13203TIP3   OH239544   6.210   8.779   4.776
13203TIP3    H139545   6.127   8.733   4.796
13203TIP3    H239546   6.269   8.704   4.758
13204TIP3   OH239547   4.929   8.301   4.254
13204TIP3    H139548   4.977   8.385   4.276
13204TIP3    H239549   4.852   8.307   4.315
13205TIP3   OH239550   5.505   8.782   4.499
13205TIP3    H139551   5.457   8.856   4.542
13205TIP3    H239552   5.482   8.712   4.563
13206TIP3   OH239553   6.025   8.967   4.963
13206TIP3    H139554   6.003   8.944   5.055
13206TIP3    H239555   6.097   8.907   4.942
13207TIP3   OH239556   6.026   8.806   3.827
13207TIP3    H139557   6.062   8.791   3.918
13207TIP3    H239558   5.944   8.855   3.847
13208TIP3   OH239559   5.355   8.090   5.551
13208TIP3    H139560   5.265   8.119   5.569
13208TIP3    H239561   5.380   8.045   5.633
13209TIP3   OH239562   6.153   8.768   4.066
13209TIP3    H139563   6.152   8.706   4.142
13209TIP3    H239564   6.249   8.785   4.058
13210TIP3   OH239565   5.354   8.807   3.907
13210TIP3    H139566   5.386   8.718   3.881
13210TIP3    H239567   5.372   8.808   4.001
13211TIP3   OH239568   5.052   8.543   4.332
13211TIP3    H139569   4.988   8.578   4.398
13211TIP3    H239570   5.057   8.618   4.270
13212TIP3   OH239571   6.208   8.178   5.224
13212TIP3    H139572   6.251   8.235   5.289
13212TIP3    H239573   6.180   8.101   5.277
13213TIP3   OH239574   6.077   7.936   4.393
13213TIP3    H139575   6.063   7.961   4.300
13213TIP3    H239576   6.115   8.017   4.431
13214TIP3   OH239577   5.765   8.115   4.496
13214TIP3    H139578   5.830   8.187   4.481
13214TIP3    H239579   5.768   8.107   4.594
13215TIP3   OH239580   6.009   8.426   5.302
13215TIP3    H139581   5.983   8.461   5.389
13215TIP3    H239582   6.092   8.382   5.325
13216TIP3   OH239583   5.909   7.843   4.599
13216TIP3    H139584   5.901   7.919   4.659
13216TIP3    H239585   5.969   7.879   4.531
13217TIP3   OH239586   5.421   7.840   4.387
13217TIP3    H139587   5.418   7.930   4.425
13217TIP3    H239588   5.517   7.822   4.396
13218TIP3   OH239589   6.325   8.528   4.671
13218TIP3    H139590   6.248   8.471   4.687
13218TIP3    H239591   6.396   8.483   4.722
13219TIP3   OH239592   5.039   8.759   4.149
13219TIP3    H139593   5.071   8.851   4.144
13219TIP3    H239594   5.095   8.713   4.083
13220TIP3   OH239595   4.984   8.033   4.272
13220TIP3    H139596   4.982   8.131   4.271
13220TIP3    H239597   4.895   8.011   4.242
13221TIP3   OH239598   5.372   7.752   5.148
13221TIP3    H139599   5.338   7.721   5.062
13221TIP3    H239600   5.358   7.675   5.206
13222TIP3   OH239601   5.189   8.892   5.810
13222TIP3    H139602   5.217   8.802   5.784
13222TIP3    H239603   5.104   8.901   5.761
13223TIP3   OH239604   5.171   8.569   4.000
13223TIP3    H139605   5.217   8.527   4.075
13223TIP3    H239606   5.242   8.566   3.932
13224TIP3   OH239607   5.627   8.746   3.809
13224TIP3    H139608   5.655   8.762   3.900
13224TIP3    H239609   5.655   8.653   3.795
13225TIP3   OH239610   5.329   8.657   5.799
13225TIP3    H139611   5.385   8.585   5.767
13225TIP3    H239612   5.299   8.623   5.884
13226TIP3   OH239613   5.374   8.472   4.216
13226TIP3    H139614   5.347   8.433   4.301
13226TIP3    H239615   5.412   8.395   4.169
13227TIP3   OH239616   5.661   8.540   5.453
13227TIP3    H139617   5.574   8.585   5.453
13227TIP3    H239618   5.710   8.588   5.383
13228TIP3   OH239619   5.482   8.267   4.058
13228TIP3    H139620   5.456   8.267   3.964
13228TIP3    H239621   5.579   8.272   4.051
13229TIP3   OH239622   6.303   8.609   3.715
13229TIP3    H139623   6.279   8.554   3.638
13229TIP3    H239624   6.281   8.698   3.679
13230TIP3   OH239625   5.761   8.321   5.574
13230TIP3    H139626   5.759   8.246   5.512
13230TIP3    H239627   5.719   8.392   5.520
13231TIP3   OH239628   5.776   8.109   5.375
13231TIP3    H139629   5.799   8.155   5.291
13231TIP3    H239630   5.680   8.091   5.362
13232TIP3   OH239631   5.812   8.665   5.252
13232TIP3    H139632   5.881   8.650   5.186
13232TIP3    H239633   5.745   8.716   5.202
13233TIP3   OH239634   5.645   8.438   5.799
13233TIP3    H139635   5.574   8.373   5.812
13233TIP3    H239636   5.674   8.414   5.708
13234TIP3   OH239637   5.906   7.875   5.441
13234TIP3    H139638   5.858   7.958   5.420
13234TIP3    H239639   5.836   7.808   5.431
13235TIP3   OH239640   6.032   8.372   5.606
13235TIP3    H139641   6.049   8.395   5.698
13235TIP3    H239642   5.936   8.353   5.607
13236TIP3   OH239643   5.490   8.213   5.843
13236TIP3    H139644   5.495   8.121   5.811
13236TIP3    H239645   5.514   8.202   5.937
13237TIP3   OH239646   6.001   7.879   5.699
13237TIP3    H139647   6.070   7.810   5.691
13237TIP3    H239648   5.962   7.877   5.609
13238TIP3   OH239649   6.033   8.081   5.881
13238TIP3    H139650   6.023   8.013   5.811
13238TIP3    H239651   5.969   8.149   5.854
13239TIP3   OH239652   4.774   8.684   4.171
13239TIP3    H139653   4.866   8.707   4.148
13239TIP3    H239654   4.762   8.600   4.121
13240TIP3   OH239655   6.430   8.780   4.057
13240TIP3    H139656   6.503   8.840   4.030
13240TIP3    H239657   6.472   8.740   4.137
13241TIP3   OH239658   6.561   8.650   4.256
13241TIP3    H139659   6.500   8.609   4.322
13241TIP3    H239660   6.633   8.686   4.312
13242TIP3   OH239661   6.499   8.560   3.903
13242TIP3    H139662   6.427   8.568   3.836
13242TIP3    H239663   6.476   8.635   3.961
13243TIP3   OH239664   6.378   8.233   3.855
13243TIP3    H139665   6.327   8.273   3.783
13243TIP3    H239666   6.352   8.139   3.847
13244TIP3   OH239667   6.378   8.507   4.405
13244TIP3    H139668   6.388   8.411   4.400
13244TIP3    H239669   6.365   8.522   4.501
13245TIP3   OH239670   6.319   7.967   3.843
13245TIP3    H139671   6.395   7.939   3.897
13245TIP3    H239672   6.247   7.909   3.871
13246TIP3   OH239673   6.375   8.225   4.299
13246TIP3    H139674   6.415   8.136   4.315
13246TIP3    H239675   6.435   8.257   4.230
13247TIP3   OH239676   6.538   8.401   4.792
13247TIP3    H139677   6.622   8.430   4.751
13247TIP3    H239678   6.552   8.439   4.881
13248TIP3   OH239679   5.221   8.261   5.812
13248TIP3    H139680   5.319   8.264   5.821
13248TIP3    H239681   5.201   8.179   5.861
13249TIP3   OH239682   6.485   7.975   4.336
13249TIP3    H139683   6.534   7.960   4.419
13249TIP3    H239684   6.424   7.898   4.336
13250TIP3   OH239685   5.182   7.961   5.158
13250TIP3    H139686   5.248   7.890   5.168
13250TIP3    H239687   5.240   8.039   5.153
13251TIP3   OH239688   6.565   7.912   3.967
13251TIP3    H139689   6.608   7.838   3.919
13251TIP3    H239690   6.634   7.981   3.964
13252TIP3   OH239691   4.971   7.733   4.724
13252TIP3    H139692   4.879   7.736   4.757
13252TIP3    H239693   4.968   7.796   4.649
13253TIP3   OH239694   5.188   7.807   5.541
13253TIP3    H139695   5.142   7.814   5.626
13253TIP3    H239696   5.126   7.856   5.483
13254TIP3   OH239697   6.819   8.021   5.240
13254TIP3    H139698   6.723   8.010   5.240
13254TIP3    H239699   6.850   7.929   5.237
13255TIP3   OH239700   6.034   7.952   4.884
13255TIP3    H139701   5.989   7.883   4.937
13255TIP3    H239702   6.106   7.902   4.842
13256TIP3   OH239703   6.557   7.825   4.787
13256TIP3    H139704   6.594   7.881   4.715
13256TIP3    H239705   6.463   7.850   4.785
13257TIP3   OH239706   6.651   7.933   4.553
13257TIP3    H139707   6.725   7.882   4.513
13257TIP3    H239708   6.685   8.025   4.539
13258TIP3   OH239709   5.281   7.661   4.900
13258TIP3    H139710   5.188   7.629   4.900
13258TIP3    H239711   5.329   7.575   4.896
13259TIP3   OH239712   5.066   7.530   4.550
13259TIP3    H139713   5.097   7.588   4.478
13259TIP3    H239714   5.038   7.595   4.617
13260TIP3   OH239715   5.726   7.691   4.781
13260TIP3    H139716   5.783   7.744   4.723
13260TIP3    H239717   5.740   7.733   4.867
13261TIP3   OH239718   6.272   7.840   4.765
13261TIP3    H139719   6.270   7.803   4.676
13261TIP3    H239720   6.258   7.759   4.820
13262TIP3   OH239721   6.301   7.762   4.327
13262TIP3    H139722   6.215   7.806   4.341
13262TIP3    H239723   6.287   7.677   4.374
13263TIP3   OH239724   5.184   7.691   4.310
13263TIP3    H139725   5.233   7.627   4.256
13263TIP3    H239726   5.257   7.745   4.348
13264TIP3   OH239727   5.699   7.865   4.410
13264TIP3    H139728   5.757   7.818   4.472
13264TIP3    H239729   5.719   7.958   4.436
13265TIP3   OH239730   5.488   7.935   5.792
13265TIP3    H139731   5.455   7.866   5.851
13265TIP3    H239732   5.582   7.939   5.819
13266TIP3   OH239733   5.736   7.944   5.917
13266TIP3    H139734   5.823   7.923   5.880
13266TIP3    H239735   5.724   7.871   5.982
13267TIP3   OH239736   6.742   8.430   4.212
13267TIP3    H139737   6.699   8.516   4.230
13267TIP3    H239738   6.667   8.381   4.173
13268TIP3   OH239739   6.801   8.710   4.369
13268TIP3    H139740   6.850   8.648   4.428
13268TIP3    H239741   6.873   8.751   4.320
13269TIP3   OH239742   7.295   8.311   4.398
13269TIP3    H139743   7.287   8.384   4.336
13269TIP3    H239744   7.255   8.239   4.348
13270TIP3   OH239745   6.955   8.514   4.497
13270TIP3    H139746   7.048   8.512   4.520
13270TIP3    H239747   6.955   8.453   4.420
13271TIP3   OH239748   6.647   8.924   3.973
13271TIP3    H139749   6.624   8.953   3.883
13271TIP3    H239750   6.686   9.006   4.006
13272TIP3   OH239751   7.015   8.679   3.922
13272TIP3    H139752   7.019   8.768   3.958
13272TIP3    H239753   6.992   8.627   3.999
13273TIP3   OH239754   7.229   8.472   4.180
13273TIP3    H139755   7.142   8.448   4.219
13273TIP3    H239756   7.203   8.506   4.094
13274TIP3   OH239757   7.213   8.079   3.595
13274TIP3    H139758   7.210   8.083   3.692
13274TIP3    H239759   7.138   8.136   3.571
13275TIP3   OH239760   6.776   8.157   4.468
13275TIP3    H139761   6.851   8.190   4.521
13275TIP3    H239762   6.819   8.123   4.388
13276TIP3   OH239763   6.747   8.137   3.986
13276TIP3    H139764   6.796   8.174   3.909
13276TIP3    H239765   6.689   8.212   4.007
13277TIP3   OH239766   6.998   8.364   4.270
13277TIP3    H139767   6.904   8.372   4.241
13277TIP3    H239768   7.022   8.273   4.247
13278TIP3   OH239769   7.074   8.380   3.758
13278TIP3    H139770   7.003   8.341   3.705
13278TIP3    H239771   7.078   8.470   3.726
13279TIP3   OH239772   7.177   8.128   4.224
13279TIP3    H139773   7.142   8.052   4.276
13279TIP3    H239774   7.242   8.085   4.167
13280TIP3   OH239775   6.720   8.553   3.742
13280TIP3    H139776   6.765   8.635   3.766
13280TIP3    H239777   6.641   8.558   3.801
13281TIP3   OH239778   7.191   8.092   3.870
13281TIP3    H139779   7.175   8.182   3.902
13281TIP3    H239780   7.284   8.078   3.898
13282TIP3   OH239781   6.772   8.285   3.750
13282TIP3    H139782   6.769   8.383   3.756
13282TIP3    H239783   6.680   8.264   3.730
13283TIP3   OH239784   7.144   8.012   4.643
13283TIP3    H139785   7.138   7.976   4.552
13283TIP3    H239786   7.156   7.932   4.697
13284TIP3   OH239787   6.550   8.933   3.648
13284TIP3    H139788   6.638   8.968   3.633
13284TIP3    H239789   6.551   8.850   3.596
13285TIP3   OH239790   6.980   8.226   4.641
13285TIP3    H139791   7.035   8.145   4.646
13285TIP3    H239792   7.046   8.293   4.658
13286TIP3   OH239793   6.787   8.503   4.722
13286TIP3    H139794   6.835   8.478   4.641
13286TIP3    H239795   6.819   8.593   4.733
13287TIP3   OH239796   6.766   7.994   4.215
13287TIP3    H139797   6.674   7.993   4.243
13287TIP3    H239798   6.764   8.054   4.137
13288TIP3   OH239799   6.993   8.069   5.040
13288TIP3    H139800   6.932   8.070   5.117
13288TIP3    H239801   6.935   8.110   4.973
13289TIP3   OH239802   7.080   7.919   4.382
13289TIP3    H139803   6.988   7.886   4.388
13289TIP3    H239804   7.128   7.833   4.381
13290TIP3   OH239805   6.859   7.787   4.034
13290TIP3    H139806   6.892   7.844   3.962
13290TIP3    H239807   6.835   7.852   4.103
13291TIP3   OH239808   7.511   7.944   4.287
13291TIP3    H139809   7.589   7.993   4.258
13291TIP3    H239810   7.492   7.983   4.373
13292TIP3   OH239811   6.972   7.941   3.795
13292TIP3    H139812   7.023   7.879   3.739
13292TIP3    H239813   7.044   7.997   3.831
13293TIP3   OH239814   7.457   8.108   3.932
13293TIP3    H139815   7.507   8.038   3.887
13293TIP3    H239816   7.495   8.186   3.889
13294TIP3   OH239817   4.610   1.745   7.959
13294TIP3    H139818   4.621   1.839   7.932
13294TIP3    H239819   4.700   1.710   7.938
13295TIP3   OH239820   4.165   1.982   8.037
13295TIP3    H139821   4.209   1.898   8.013
13295TIP3    H239822   4.129   1.962   8.126
13296TIP3   OH239823   4.367   1.236   8.088
13296TIP3    H139824   4.332   1.194   8.007
13296TIP3    H239825   4.462   1.242   8.065
13297TIP3   OH239826   4.532   1.810   8.213
13297TIP3    H139827   4.522   1.720   8.249
13297TIP3    H239828   4.567   1.792   8.124
13298TIP3   OH239829   4.642   2.017   7.935
13298TIP3    H139830   4.684   2.087   7.882
13298TIP3    H239831   4.560   2.066   7.961
13299TIP3   OH239832   3.808   1.719   8.002
13299TIP3    H139833   3.818   1.637   8.055
13299TIP3    H239834   3.892   1.716   7.953
13300TIP3   OH239835   4.277   1.751   7.931
13300TIP3    H139836   4.355   1.725   7.981
13300TIP3    H239837   4.314   1.759   7.841
13301TIP3   OH239838   4.605   1.280   7.962
13301TIP3    H139839   4.590   1.215   7.891
13301TIP3    H239840   4.578   1.362   7.917
13302TIP3   OH239841   4.820   1.319   8.137
13302TIP3    H139842   4.742   1.283   8.091
13302TIP3    H239843   4.815   1.278   8.225
13303TIP3   OH239844   4.568   2.088   8.253
13303TIP3    H139845   4.568   1.991   8.240
13303TIP3    H239846   4.533   2.119   8.166
13304TIP3   OH239847   6.054   1.611   8.226
13304TIP3    H139848   6.030   1.699   8.190
13304TIP3    H239849   5.992   1.555   8.175
13305TIP3   OH239850   6.273   1.876   8.267
13305TIP3    H139851   6.213   1.831   8.328
13305TIP3    H239852   6.293   1.960   8.315
13306TIP3   OH239853   5.951   2.355   8.272
13306TIP3    H139854   6.011   2.285   8.238
13306TIP3    H239855   5.956   2.342   8.368
13307TIP3   OH239856   5.966   1.823   8.079
13307TIP3    H139857   5.920   1.797   7.998
13307TIP3    H239858   5.920   1.908   8.100
13308TIP3   OH239859   4.944   1.636   8.185
13308TIP3    H139860   4.892   1.626   8.104
13308TIP3    H239861   4.961   1.733   8.188
13309TIP3   OH239862   6.353   2.108   8.386
13309TIP3    H139863   6.273   2.122   8.441
13309TIP3    H239864   6.373   2.200   8.362
13310TIP3   OH239865   6.100   2.186   8.124
13310TIP3    H139866   6.145   2.105   8.092
13310TIP3    H239867   6.155   2.254   8.079
13311TIP3   OH239868   6.228   1.973   8.013
13311TIP3    H139869   6.189   1.901   7.961
13311TIP3    H239870   6.242   1.929   8.099
13312TIP3   OH239871   5.906   1.481   8.031
13312TIP3    H139872   5.817   1.518   8.012
13312TIP3    H239873   5.939   1.463   7.942
13313TIP3   OH239874   5.860   1.234   7.764
13313TIP3    H139875   5.935   1.283   7.803
13313TIP3    H239876   5.908   1.168   7.711
13314TIP3   OH239877   6.237   1.553   8.018
13314TIP3    H139878   6.172   1.585   8.084
13314TIP3    H239879   6.292   1.501   8.080
13315TIP3   OH239880   6.134   2.138   8.546
13315TIP3    H139881   6.193   2.195   8.599
13315TIP3    H239882   6.116   2.062   8.605
13316TIP3   OH239883   6.090   1.399   7.835
13316TIP3    H139884   6.146   1.462   7.885
13316TIP3    H239885   6.115   1.420   7.742
13317TIP3   OH239886   5.835   2.070   8.113
13317TIP3    H139887   5.907   2.127   8.144
13317TIP3    H239888   5.773   2.132   8.073
13318TIP3   OH239889   5.365   1.355   8.193
13318TIP3    H139890   5.287   1.401   8.157
13318TIP3    H239891   5.328   1.296   8.260
13319TIP3   OH239892   6.405   1.997   7.442
13319TIP3    H139893   6.412   2.093   7.422
13319TIP3    H239894   6.498   1.969   7.428
13320TIP3   OH239895   5.713   2.315   7.919
13320TIP3    H139896   5.669   2.297   7.834
13320TIP3    H239897   5.682   2.405   7.941
13321TIP3   OH239898   5.142   2.156   8.279
13321TIP3    H139899   5.160   2.092   8.350
13321TIP3    H239900   5.058   2.120   8.246
13322TIP3   OH239901   5.916   2.219   7.560
13322TIP3    H139902   5.974   2.148   7.523
13322TIP3    H239903   5.951   2.227   7.651
13323TIP3   OH239904   5.965   2.266   7.830
13323TIP3    H139905   5.877   2.275   7.872
13323TIP3    H239906   6.015   2.222   7.901
13324TIP3   OH239907   6.166   1.446   7.582
13324TIP3    H139908   6.131   1.411   7.498
13324TIP3    H239909   6.251   1.485   7.552
13325TIP3   OH239910   6.009   1.262   8.154
13325TIP3    H139911   5.969   1.342   8.114
13325TIP3    H239912   6.074   1.235   8.086
13326TIP3   OH239913   5.560   1.055   8.207
13326TIP3    H139914   5.649   1.036   8.173
13326TIP3    H239915   5.506   1.054   8.126
13327TIP3   OH239916   5.403   1.052   7.976
13327TIP3    H139917   5.340   1.027   7.906
13327TIP3    H239918   5.469   1.098   7.919
13328TIP3   OH239919   5.664   1.604   7.978
13328TIP3    H139920   5.596   1.534   7.965
13328TIP3    H239921   5.637   1.638   8.067
13329TIP3   OH239922   6.112   0.964   7.792
13329TIP3    H139923   6.046   0.903   7.831
13329TIP3    H239924   6.116   1.033   7.861
13330TIP3   OH239925   6.169   1.169   7.954
13330TIP3    H139926   6.264   1.150   7.946
13330TIP3    H239927   6.159   1.250   7.901
13331TIP3   OH239928   5.821   1.754   7.814
13331TIP3    H139929   5.772   1.840   7.820
13331TIP3    H239930   5.763   1.697   7.869
13332TIP3   OH239931   6.350   2.068   7.705
13332TIP3    H139932   6.312   1.996   7.757
13332TIP3    H239933   6.359   2.030   7.616
13333TIP3   OH239934   5.453   1.941   8.269
13333TIP3    H139935   5.489   2.021   8.228
13333TIP3    H239936   5.359   1.956   8.254
13334TIP3   OH239937   5.033   1.240   7.988
13334TIP3    H139938   5.090   1.315   8.013
13334TIP3    H239939   4.954   1.261   8.043
13335TIP3   OH239940   5.592   1.709   8.215
13335TIP3    H139941   5.556   1.796   8.241
13335TIP3    H239942   5.638   1.682   8.298
13336TIP3   OH239943   5.384   2.182   8.135
13336TIP3    H139944   5.295   2.189   8.174
13336TIP3    H239945   5.415   2.275   8.142
13337TIP3   OH239946   6.093   1.801   7.601
13337TIP3    H139947   6.146   1.776   7.680
13337TIP3    H239948   6.006   1.771   7.629
13338TIP3   OH239949   6.437   2.269   7.429
13338TIP3    H139950   6.479   2.328   7.364
13338TIP3    H239951   6.361   2.325   7.455
13339TIP3   OH239952   6.248   1.744   7.820
13339TIP3    H139953   6.240   1.676   7.890
13339TIP3    H239954   6.344   1.739   7.802
13340TIP3   OH239955   5.463   1.779   7.604
13340TIP3    H139956   5.479   1.687   7.576
13340TIP3    H239957   5.444   1.766   7.699
13341TIP3   OH239958   5.407   1.785   7.878
13341TIP3    H139959   5.477   1.752   7.935
13341TIP3    H239960   5.417   1.882   7.887
13342TIP3   OH239961   5.148   1.483   8.082
13342TIP3    H139962   5.074   1.522   8.133
13342TIP3    H239963   5.162   1.552   8.015
13343TIP3   OH239964   5.676   1.982   7.825
13343TIP3    H139965   5.589   2.009   7.860
13343TIP3    H239966   5.691   2.052   7.760
13344TIP3   OH239967   5.837   1.026   8.172
13344TIP3    H139968   5.900   1.099   8.156
13344TIP3    H239969   5.839   1.023   8.268
13345TIP3   OH239970   5.421   2.059   7.891
13345TIP3    H139971   5.390   2.127   7.827
13345TIP3    H239972   5.406   2.106   7.976
13346TIP3   OH239973   5.135   1.690   7.881
13346TIP3    H139974   5.206   1.755   7.892
13346TIP3    H239975   5.179   1.630   7.817
13347TIP3   OH239976   5.069   0.953   7.951
13347TIP3    H139977   5.070   1.045   7.983
13347TIP3    H239978   5.018   0.910   8.020
13348TIP3   OH239979   6.416   2.389   8.336
13348TIP3    H139980   6.354   2.441   8.280
13348TIP3    H239981   6.491   2.450   8.338
13349TIP3   OH239982   5.008   1.893   8.249
13349TIP3    H139983   4.966   1.934   8.327
13349TIP3    H239984   4.968   1.943   8.175
13350TIP3   OH239985   5.628   1.983   7.518
13350TIP3    H139986   5.571   1.912   7.555
13350TIP3    H239987   5.703   1.931   7.487
13351TIP3   OH239988   6.062   2.027   7.431
13351TIP3    H139989   6.109   1.961   7.486
13351TIP3    H239990   6.115   2.026   7.348
13352TIP3   OH239991   5.273   1.503   7.739
13352TIP3    H139992   5.326   1.463   7.811
13352TIP3    H239993   5.341   1.506   7.668
13353TIP3   OH239994   5.780   1.701   7.544
13353TIP3    H139995   5.783   1.713   7.642
13353TIP3    H239996   5.784   1.603   7.538
13354TIP3   OH239997   5.478   1.408   7.951
13354TIP3    H139998   5.451   1.378   8.040
13354TIP3    H239999   5.513   1.325   7.912
13355TIP3   OH240000   5.577   1.195   7.807
13355TIP3    H140001   5.550   1.192   7.714
13355TIP3    H240002   5.675   1.197   7.799
13356TIP3   OH240003   6.398   1.526   7.456
13356TIP3    H140004   6.375   1.481   7.373
13356TIP3    H240005   6.366   1.617   7.435
13357TIP3   OH240006   5.389   2.262   7.705
13357TIP3    H140007   5.484   2.256   7.686
13357TIP3    H240008   5.358   2.310   7.626
13358TIP3   OH240009   4.863   1.643   7.911
13358TIP3    H140010   4.958   1.664   7.901
13358TIP3    H240011   4.860   1.551   7.874
13359TIP3   OH240012   4.790   2.243   8.325
13359TIP3    H140013   4.711   2.198   8.288
13359TIP3    H240014   4.822   2.175   8.386
13360TIP3   OH240015   6.638   2.555   8.310
13360TIP3    H140016   6.650   2.631   8.373
13360TIP3    H240017   6.645   2.602   8.226
13361TIP3   OH240018   6.517   1.723   7.789
13361TIP3    H140019   6.581   1.785   7.747
13361TIP3    H240020   6.575   1.651   7.818
13362TIP3   OH240021   6.592   1.511   7.638
13362TIP3    H140022   6.528   1.482   7.569
13362TIP3    H240023   6.545   1.590   7.667
13363TIP3   OH240024   6.412   1.163   7.603
13363TIP3    H140025   6.446   1.223   7.536
13363TIP3    H240026   6.434   1.077   7.566
13364TIP3   OH240027   6.231   2.373   7.979
13364TIP3    H140028   6.278   2.357   7.894
13364TIP3    H240029   6.286   2.441   8.020
13365TIP3   OH240030   5.883   2.500   8.520
13365TIP3    H140031   5.797   2.476   8.483
13365TIP3    H240032   5.872   2.486   8.615
13366TIP3   OH240033   6.112   2.444   8.655
13366TIP3    H140034   6.058   2.463   8.576
13366TIP3    H240035   6.194   2.490   8.626
13367TIP3   OH240036   6.267   2.615   8.513
13367TIP3    H140037   6.292   2.708   8.499
13367TIP3    H240038   6.346   2.568   8.484
13368TIP3   OH240039   4.885   2.045   8.071
13368TIP3    H140040   4.803   2.006   8.034
13368TIP3    H240041   4.871   2.138   8.042
13369TIP3   OH240042   5.656   2.221   7.652
13369TIP3    H140043   5.745   2.242   7.617
13369TIP3    H240044   5.634   2.146   7.593
13370TIP3   OH240045   6.371   2.337   7.746
13370TIP3    H140046   6.367   2.239   7.733
13370TIP3    H240047   6.332   2.368   7.662
13371TIP3   OH240048   4.962   2.058   7.710
13371TIP3    H140049   4.964   2.084   7.803
13371TIP3    H240050   5.049   2.015   7.698
13372TIP3   OH240051   6.724   1.881   7.711
13372TIP3    H140052   6.698   1.900   7.618
13372TIP3    H240053   6.744   1.972   7.743
13373TIP3   OH240054   7.489   2.594   7.399
13373TIP3    H140055   7.453   2.549   7.320
13373TIP3    H240056   7.445   2.679   7.397
13374TIP3   OH240057   6.919   2.445   7.753
13374TIP3    H140058   6.977   2.390   7.810
13374TIP3    H240059   6.846   2.384   7.737
13375TIP3   OH240060   7.689   2.466   7.021
13375TIP3    H140061   7.729   2.386   6.980
13375TIP3    H240062   7.757   2.483   7.091
13376TIP3   OH240063   6.808   1.493   7.476
13376TIP3    H140064   6.845   1.583   7.491
13376TIP3    H240065   6.735   1.495   7.543
13377TIP3   OH240066   7.186   2.438   7.611
13377TIP3    H140067   7.108   2.415   7.664
13377TIP3    H240068   7.187   2.536   7.619
13378TIP3   OH240069   7.290   2.022   7.070
13378TIP3    H140070   7.278   1.928   7.046
13378TIP3    H240071   7.257   2.022   7.163
13379TIP3   OH240072   7.208   2.051   7.326
13379TIP3    H140073   7.221   2.015   7.416
13379TIP3    H240074   7.211   2.147   7.345
13380TIP3   OH240075   6.908   1.743   7.546
13380TIP3    H140076   6.860   1.792   7.615
13380TIP3    H240077   6.928   1.815   7.483
13381TIP3   OH240078   7.477   2.247   7.304
13381TIP3    H140079   7.392   2.272   7.345
13381TIP3    H240080   7.482   2.313   7.233
13382TIP3   OH240081   7.217   2.317   7.370
13382TIP3    H140082   7.180   2.389   7.313
13382TIP3    H240083   7.204   2.357   7.459
13383TIP3   OH240084   6.931   1.958   7.368
13383TIP3    H140085   6.982   2.041   7.372
13383TIP3    H240086   6.981   1.910   7.300
13384TIP3   OH240087   6.878   1.225   7.444
13384TIP3    H140088   6.856   1.314   7.478
13384TIP3    H240089   6.855   1.167   7.518
13385TIP3   OH240090   6.777   2.136   7.780
13385TIP3    H140091   6.703   2.195   7.759
13385TIP3    H240092   6.841   2.166   7.714
13386TIP3   OH240093   7.417   2.252   7.003
13386TIP3    H140094   7.367   2.173   7.034
13386TIP3    H240095   7.490   2.209   6.954
13387TIP3   OH240096   7.827   2.270   6.883
13387TIP3    H140097   7.896   2.233   6.941
13387TIP3    H240098   7.875   2.268   6.798
13388TIP3   OH240099   7.071   1.764   7.216
13388TIP3    H140100   7.107   1.724   7.297
13388TIP3    H240101   7.151   1.765   7.160
13389TIP3   OH240102   7.599   1.945   7.032
13389TIP3    H140103   7.555   1.987   7.107
13389TIP3    H240104   7.556   1.858   7.033
13390TIP3   OH240105   7.177   2.533   7.201
13390TIP3    H140106   7.270   2.526   7.175
13390TIP3    H240107   7.138   2.563   7.118
13391TIP3   OH240108   6.667   1.891   7.434
13391TIP3    H140109   6.750   1.928   7.397
13391TIP3    H240110   6.658   1.811   7.377
13392TIP3   OH240111   6.569   2.516   7.819
13392TIP3    H140112   6.507   2.451   7.778
13392TIP3    H240113   6.611   2.459   7.887
13393TIP3   OH240114   6.696   2.367   8.005
13393TIP3    H140115   6.746   2.294   8.043
13393TIP3    H240116   6.758   2.442   8.015
13394TIP3   OH240117   6.673   2.299   7.580
13394TIP3    H140118   6.596   2.257   7.538
13394TIP3    H240119   6.669   2.384   7.534
13395TIP3   OH240120   7.439   2.486   7.137
13395TIP3    H140121   7.528   2.503   7.099
13395TIP3    H240122   7.413   2.411   7.079
13396TIP3   OH240123   2.454   3.287   8.008
13396TIP3    H140124   2.434   3.372   8.050
13396TIP3    H240125   2.548   3.271   8.033
13397TIP3   OH240126   2.495   3.598   8.074
13397TIP3    H140127   2.530   3.683   8.038
13397TIP3    H240128   2.400   3.613   8.066
13398TIP3   OH240129   3.921   3.160   8.371
13398TIP3    H140130   3.890   3.251   8.351
13398TIP3    H240131   3.855   3.111   8.317
13399TIP3   OH240132   4.129   3.492   8.391
13399TIP3    H140133   4.139   3.405   8.434
13399TIP3    H240134   4.153   3.553   8.463
13400TIP3   OH240135   3.799   3.929   8.448
13400TIP3    H140136   3.827   3.866   8.378
13400TIP3    H240137   3.791   3.869   8.523
13401TIP3   OH240138   3.800   3.376   8.239
13401TIP3    H140139   3.768   3.358   8.150
13401TIP3    H240140   3.771   3.468   8.252
13402TIP3   OH240141   3.946   3.762   8.285
13402TIP3    H140142   3.983   3.680   8.247
13402TIP3    H240143   3.971   3.824   8.213
13403TIP3   OH240144   4.063   3.543   8.139
13403TIP3    H140145   4.028   3.458   8.110
13403TIP3    H240146   4.093   3.522   8.229
13404TIP3   OH240147   3.753   3.024   8.201
13404TIP3    H140148   3.668   3.062   8.174
13404TIP3    H240149   3.794   3.004   8.114
13405TIP3   OH240150   3.705   2.792   7.909
13405TIP3    H140151   3.774   2.844   7.954
13405TIP3    H240152   3.761   2.728   7.861
13406TIP3   OH240153   4.080   3.101   8.152
13406TIP3    H140154   4.032   3.106   8.237
13406TIP3    H240155   4.165   3.060   8.179
13407TIP3   OH240156   3.926   2.947   7.988
13407TIP3    H140157   3.983   3.008   8.040
13407TIP3    H240158   3.955   2.970   7.896
13408TIP3   OH240159   3.696   3.648   8.277
13408TIP3    H140160   3.768   3.708   8.249
13408TIP3    H240161   3.625   3.687   8.224
13409TIP3   OH240162   4.449   2.189   8.027
13409TIP3    H140163   4.361   2.202   8.068
13409TIP3    H240164   4.461   2.274   7.979
13410TIP3   OH240165   4.246   3.555   7.589
13410TIP3    H140166   4.255   3.651   7.574
13410TIP3    H240167   4.338   3.524   7.575
13411TIP3   OH240168   3.755   3.775   7.714
13411TIP3    H140169   3.816   3.705   7.682
13411TIP3    H240170   3.779   3.783   7.808
13412TIP3   OH240171   4.008   2.998   7.736
13412TIP3    H140172   3.974   2.970   7.649
13412TIP3    H240173   4.091   3.043   7.710
13413TIP3   OH240174   3.726   2.373   8.037
13413TIP3    H140175   3.680   2.387   8.120
13413TIP3    H240176   3.680   2.292   8.004
13414TIP3   OH240177   3.957   2.847   8.301
13414TIP3    H140178   3.866   2.871   8.279
13414TIP3    H240179   3.974   2.779   8.232
13415TIP3   OH240180   3.407   2.389   8.009
13415TIP3    H140181   3.395   2.326   8.080
13415TIP3    H240182   3.319   2.391   7.970
13416TIP3   OH240183   3.235   2.621   8.111
13416TIP3    H140184   3.187   2.615   8.026
13416TIP3    H240185   3.323   2.648   8.076
13417TIP3   OH240186   3.513   3.162   8.139
13417TIP3    H140187   3.443   3.102   8.105
13417TIP3    H240188   3.481   3.185   8.227
13418TIP3   OH240189   3.974   2.470   7.992
13418TIP3    H140190   3.877   2.455   8.006
13418TIP3    H240191   3.987   2.564   8.018
13419TIP3   OH240192   4.054   2.712   8.084
13419TIP3    H140193   4.150   2.715   8.103
13419TIP3    H240194   4.037   2.797   8.039
13420TIP3   OH240195   3.662   3.313   7.961
13420TIP3    H140196   3.614   3.399   7.967
13420TIP3    H240197   3.608   3.258   8.022
13421TIP3   OH240198   4.480   2.802   7.943
13421TIP3    H140199   4.418   2.765   7.877
13421TIP3    H240200   4.485   2.894   7.909
13422TIP3   OH240201   4.197   3.629   7.858
13422TIP3    H140202   4.153   3.569   7.920
13422TIP3    H240203   4.197   3.579   7.774
13423TIP3   OH240204   3.199   3.741   8.246
13423TIP3    H140205   3.165   3.731   8.337
13423TIP3    H240206   3.256   3.819   8.255
13424TIP3   OH240207   3.937   3.360   7.751
13424TIP3    H140208   3.992   3.335   7.829
13424TIP3    H240209   3.850   3.331   7.783
13425TIP3   OH240210   4.279   3.831   7.576
13425TIP3    H140211   4.309   3.894   7.509
13425TIP3    H240212   4.198   3.876   7.608
13426TIP3   OH240213   4.098   3.298   7.964
13426TIP3    H140214   4.085   3.229   8.033
13426TIP3    H240215   4.196   3.292   7.953
13427TIP3   OH240216   3.299   3.338   7.756
13427TIP3    H140217   3.317   3.247   7.724
13427TIP3    H240218   3.285   3.321   7.851
13428TIP3   OH240219   3.248   3.339   8.027
13428TIP3    H140220   3.309   3.317   8.099
13428TIP3    H240221   3.252   3.437   8.028
13429TIP3   OH240222   4.060   2.446   8.258
13429TIP3    H140223   4.022   2.448   8.169
13429TIP3    H240224   3.998   2.503   8.306
13430TIP3   OH240225   3.519   3.545   7.978
13430TIP3    H140226   3.427   3.565   8.001
13430TIP3    H240227   3.544   3.627   7.933
13431TIP3   OH240228   3.249   3.608   8.019
13431TIP3    H140229   3.237   3.685   7.961
13431TIP3    H240230   3.230   3.648   8.108
13432TIP3   OH240231   2.977   3.265   8.032
13432TIP3    H140232   3.058   3.316   8.048
13432TIP3    H240233   3.016   3.193   7.979
13433TIP3   OH240234   4.245   4.014   8.539
13433TIP3    H140235   4.193   4.040   8.460
13433TIP3    H240236   4.333   4.007   8.500
13434TIP3   OH240237   3.470   3.534   7.661
13434TIP3    H140238   3.414   3.465   7.704
13434TIP3    H240239   3.546   3.480   7.632
13435TIP3   OH240240   3.907   3.584   7.580
13435TIP3    H140241   3.945   3.514   7.636
13435TIP3    H240242   3.960   3.578   7.499
13436TIP3   OH240243   3.116   3.063   7.889
13436TIP3    H140244   3.177   3.030   7.958
13436TIP3    H240245   3.179   3.067   7.814
13437TIP3   OH240246   3.620   3.257   7.694
13437TIP3    H140247   3.626   3.269   7.791
13437TIP3    H240248   3.622   3.159   7.688
13438TIP3   OH240249   3.326   2.976   8.048
13438TIP3    H140250   3.298   2.953   8.139
13438TIP3    H240251   3.362   2.891   8.015
13439TIP3   OH240252   3.430   2.740   7.945
13439TIP3    H140253   3.405   2.745   7.851
13439TIP3    H240254   3.528   2.744   7.939
13440TIP3   OH240255   4.244   3.087   7.613
13440TIP3    H140256   4.224   3.040   7.530
13440TIP3    H240257   4.210   3.177   7.589
13441TIP3   OH240258   3.206   3.812   7.838
13441TIP3    H140259   3.305   3.803   7.841
13441TIP3    H240260   3.204   3.874   7.762
13442TIP3   OH240261   2.711   3.206   8.055
13442TIP3    H140262   2.808   3.221   8.050
13442TIP3    H240263   2.705   3.111   8.032
13443TIP3   OH240264   4.505   4.068   8.462
13443TIP3    H140265   4.507   4.109   8.550
13443TIP3    H240266   4.550   4.136   8.410
13444TIP3   OH240267   4.375   3.278   7.944
13444TIP3    H140268   4.446   3.336   7.911
13444TIP3    H240269   4.420   3.239   8.023
13445TIP3   OH240270   4.511   3.155   8.141
13445TIP3    H140271   4.445   3.099   8.188
13445TIP3    H240272   4.577   3.176   8.211
13446TIP3   OH240273   4.590   3.563   8.578
13446TIP3    H140274   4.648   3.484   8.559
13446TIP3    H240275   4.510   3.542   8.528
13447TIP3   OH240276   4.445   3.051   7.796
13447TIP3    H140277   4.373   3.051   7.729
13447TIP3    H240278   4.415   3.125   7.852
13448TIP3   OH240279   4.313   2.723   7.748
13448TIP3    H140280   4.271   2.758   7.668
13448TIP3    H240281   4.289   2.628   7.741
13449TIP3   OH240282   4.313   2.982   8.227
13449TIP3    H140283   4.315   2.886   8.207
13449TIP3    H240284   4.330   2.982   8.324
13450TIP3   OH240285   4.257   2.457   7.736
13450TIP3    H140286   4.333   2.425   7.789
13450TIP3    H240287   4.185   2.397   7.759
13451TIP3   OH240288   4.324   2.714   8.162
13451TIP3    H140289   4.357   2.630   8.201
13451TIP3    H240290   4.393   2.731   8.094
13452TIP3   OH240291   4.426   2.450   8.221
13452TIP3    H140292   4.453   2.397   8.297
13452TIP3    H240293   4.351   2.397   8.189
13453TIP3   OH240294   4.505   2.400   7.859
13453TIP3    H140295   4.547   2.329   7.807
13453TIP3    H240296   4.573   2.470   7.856
13454TIP3   OH240297   4.081   3.930   8.124
13454TIP3    H140298   4.128   3.918   8.039
13454TIP3    H240299   4.127   4.003   8.165
13455TIP3   OH240300   4.234   2.245   8.191
13455TIP3    H140301   4.155   2.302   8.201
13455TIP3    H240302   4.199   2.160   8.221
13456TIP3   OH240303   2.767   3.625   8.205
13456TIP3    H140304   2.685   3.598   8.161
13456TIP3    H240305   2.733   3.698   8.260
13457TIP3   OH240306   3.475   3.776   7.793
13457TIP3    H140307   3.565   3.812   7.785
13457TIP3    H240308   3.480   3.699   7.732
13458TIP3   OH240309   4.228   3.897   7.892
13458TIP3    H140310   4.219   3.798   7.886
13458TIP3    H240311   4.172   3.924   7.817
13459TIP3   OH240312   5.710   3.414   7.850
13459TIP3    H140313   5.679   3.504   7.828
13459TIP3    H240314   5.635   3.362   7.818
13460TIP3   OH240315   5.703   3.414   8.234
13460TIP3    H140316   5.738   3.382   8.319
13460TIP3    H240317   5.666   3.332   8.196
13461TIP3   OH240318   5.023   3.359   8.586
13461TIP3    H140319   5.031   3.284   8.648
13461TIP3    H240320   5.106   3.351   8.535
13462TIP3   OH240321   5.951   3.715   7.912
13462TIP3    H140322   5.937   3.642   7.974
13462TIP3    H240323   5.982   3.786   7.971
13463TIP3   OH240324   4.966   3.714   8.308
13463TIP3    H140325   4.964   3.615   8.309
13463TIP3    H240326   5.061   3.726   8.329
13464TIP3   OH240327   4.695   2.942   8.090
13464TIP3    H140328   4.631   3.014   8.098
13464TIP3    H240329   4.642   2.864   8.112
13465TIP3   OH240330   4.748   3.206   8.273
13465TIP3    H140331   4.792   3.130   8.318
13465TIP3    H240332   4.802   3.214   8.194
13466TIP3   OH240333   5.602   4.177   7.931
13466TIP3    H140334   5.645   4.107   7.877
13466TIP3    H240335   5.596   4.133   8.016
13467TIP3   OH240336   5.506   3.639   8.282
13467TIP3    H140337   5.540   3.559   8.238
13467TIP3    H240338   5.592   3.681   8.303
13468TIP3   OH240339   6.509   2.980   8.265
13468TIP3    H140340   6.540   3.062   8.308
13468TIP3    H240341   6.512   3.005   8.171
13469TIP3   OH240342   5.921   3.141   8.311
13469TIP3    H140343   5.963   3.055   8.329
13469TIP3    H240344   5.889   3.127   8.220
13470TIP3   OH240345   5.261   2.792   8.278
13470TIP3    H140346   5.237   2.871   8.227
13470TIP3    H240347   5.211   2.724   8.227
13471TIP3   OH240348   5.951   2.890   7.898
13471TIP3    H140349   6.023   2.872   7.964
13471TIP3    H240350   6.004   2.925   7.825
13472TIP3   OH240351   4.895   3.011   8.381
13472TIP3    H140352   4.949   2.969   8.450
13472TIP3    H240353   4.909   2.947   8.308
13473TIP3   OH240354   5.327   3.203   8.183
13473TIP3    H140355   5.422   3.179   8.190
13473TIP3    H240356   5.288   3.118   8.154
13474TIP3   OH240357   6.585   3.178   8.442
13474TIP3    H140358   6.500   3.224   8.428
13474TIP3    H240359   6.573   3.146   8.533
13475TIP3   OH240360   5.599   3.634   7.721
13475TIP3    H140361   5.559   3.612   7.636
13475TIP3    H240362   5.553   3.717   7.744
13476TIP3   OH240363   5.368   3.573   8.510
13476TIP3    H140364   5.298   3.636   8.537
13476TIP3    H240365   5.409   3.617   8.433
13477TIP3   OH240366   6.163   2.891   8.069
13477TIP3    H140367   6.143   2.845   8.152
13477TIP3    H240368   6.213   2.968   8.100
13478TIP3   OH240369   5.114   2.891   8.502
13478TIP3    H140370   5.182   2.961   8.497
13478TIP3    H240371   5.146   2.833   8.431
13479TIP3   OH240372   5.174   3.747   8.603
13479TIP3    H140373   5.146   3.837   8.573
13479TIP3    H240374   5.115   3.734   8.680
13480TIP3   OH240375   4.581   3.437   7.835
13480TIP3    H140376   4.539   3.458   7.749
13480TIP3    H240377   4.605   3.524   7.871
13481TIP3   OH240378   6.022   3.959   8.083
13481TIP3    H140379   5.932   3.949   8.120
13481TIP3    H240380   6.014   4.043   8.034
13482TIP3   OH240381   6.315   2.888   8.446
13482TIP3    H140382   6.223   2.892   8.416
13482TIP3    H240383   6.365   2.911   8.365
13483TIP3   OH240384   5.613   2.496   8.404
13483TIP3    H140385   5.620   2.403   8.432
13483TIP3    H240386   5.571   2.535   8.483
13484TIP3   OH240387   5.721   4.005   7.754
13484TIP3    H140388   5.771   3.921   7.735
13484TIP3    H240389   5.784   4.069   7.713
13485TIP3   OH240390   5.864   3.791   7.662
13485TIP3    H140391   5.834   3.710   7.617
13485TIP3    H240392   5.900   3.754   7.745
13486TIP3   OH240393   6.241   3.872   8.422
13486TIP3    H140394   6.236   3.792   8.366
13486TIP3    H240395   6.230   3.944   8.356
13487TIP3   OH240396   5.541   3.267   7.681
13487TIP3    H140397   5.460   3.316   7.657
13487TIP3    H240398   5.586   3.260   7.595
13488TIP3   OH240399   5.499   3.048   7.398
13488TIP3    H140400   5.567   3.099   7.445
13488TIP3    H240401   5.555   2.984   7.350
13489TIP3   OH240402   6.448   3.514   8.269
13489TIP3    H140403   6.362   3.562   8.277
13489TIP3    H240404   6.471   3.534   8.176
13490TIP3   OH240405   5.888   3.348   7.652
13490TIP3    H140406   5.833   3.371   7.731
13490TIP3    H240407   5.971   3.320   7.696
13491TIP3   OH240408   6.122   3.381   8.566
13491TIP3    H140409   6.122   3.462   8.622
13491TIP3    H240410   6.035   3.388   8.523
13492TIP3   OH240411   5.123   3.347   8.065
13492TIP3    H140412   5.078   3.287   8.002
13492TIP3    H240413   5.196   3.290   8.099
13493TIP3   OH240414   5.246   3.760   8.218
13493TIP3    H140415   5.223   3.712   8.137
13493TIP3    H240416   5.335   3.724   8.237
13494TIP3   OH240417   5.245   3.341   8.421
13494TIP3    H140418   5.277   3.306   8.335
13494TIP3    H240419   5.300   3.421   8.433
13495TIP3   OH240420   5.778   3.956   8.201
13495TIP3    H140421   5.766   4.032   8.261
13495TIP3    H240422   5.767   3.879   8.259
13496TIP3   OH240423   5.389   3.906   8.695
13496TIP3    H140424   5.351   3.942   8.776
13496TIP3    H240425   5.325   3.836   8.673
13497TIP3   OH240426   5.727   3.206   7.479
13497TIP3    H140427   5.787   3.264   7.530
13497TIP3    H240428   5.754   3.229   7.386
13498TIP3   OH240429   5.467   3.888   7.761
13498TIP3    H140430   5.550   3.938   7.770
13498TIP3    H240431   5.411   3.949   7.710
13499TIP3   OH240432   6.244   2.449   7.527
13499TIP3    H140433   6.162   2.468   7.577
13499TIP3    H240434   6.256   2.531   7.476
13500TIP3   OH240435   4.985   3.189   7.878
13500TIP3    H140436   4.917   3.227   7.818
13500TIP3    H240437   4.950   3.101   7.894
13501TIP3   OH240438   6.042   3.813   7.076
13501TIP3    H140439   6.051   3.910   7.060
13501TIP3    H240440   6.135   3.783   7.063
13502TIP3   OH240441   4.640   3.777   8.434
13502TIP3    H140442   4.637   3.698   8.494
13502TIP3    H240443   4.590   3.839   8.489
13503TIP3   OH240444   6.489   4.217   8.469
13503TIP3    H140445   6.490   4.120   8.481
13503TIP3    H240446   6.402   4.238   8.510
13504TIP3   OH240447   5.611   4.007   8.594
13504TIP3    H140448   5.606   4.098   8.630
13504TIP3    H240449   5.527   3.968   8.628
13505TIP3   OH240450   5.350   4.129   7.558
13505TIP3    H140451   5.308   4.109   7.472
13505TIP3    H240452   5.320   4.219   7.576
13506TIP3   OH240453   4.790   3.988   7.937
13506TIP3    H140454   4.849   3.973   8.014
13506TIP3    H240455   4.741   3.904   7.933
13507TIP3   OH240456   5.554   4.032   7.197
13507TIP3    H140457   5.612   3.962   7.160
13507TIP3    H240458   5.588   4.040   7.288
13508TIP3   OH240459   5.603   4.081   7.468
13508TIP3    H140460   5.514   4.088   7.510
13508TIP3    H240461   5.654   4.037   7.538
13509TIP3   OH240462   6.385   3.353   8.718
13509TIP3    H140463   6.293   3.367   8.693
13509TIP3    H240464   6.392   3.256   8.718
13510TIP3   OH240465   6.149   3.130   8.692
13510TIP3    H140466   6.113   3.150   8.780
13510TIP3    H240467   6.121   3.206   8.639
13511TIP3   OH240468   5.805   3.255   7.224
13511TIP3    H140469   5.770   3.227   7.137
13511TIP3    H240470   5.887   3.300   7.197
13512TIP3   OH240471   5.516   2.628   7.525
13512TIP3    H140472   5.483   2.624   7.617
13512TIP3    H240473   5.479   2.544   7.491
13513TIP3   OH240474   5.295   3.088   8.502
13513TIP3    H140475   5.330   3.080   8.593
13513TIP3    H240476   5.282   3.183   8.489
13514TIP3   OH240477   5.188   2.981   8.090
13514TIP3    H140478   5.096   2.951   8.110
13514TIP3    H240479   5.201   2.938   8.002
13515TIP3   OH240480   5.679   3.066   7.815
13515TIP3    H140481   5.625   3.137   7.772
13515TIP3    H240482   5.732   3.034   7.740
13516TIP3   OH240483   5.841   3.096   8.051
13516TIP3    H140484   5.774   3.122   7.984
13516TIP3    H240485   5.872   3.013   8.009
13517TIP3   OH240486   5.172   2.600   7.491
13517TIP3    H140487   5.163   2.597   7.588
13517TIP3    H240488   5.093   2.652   7.467
13518TIP3   OH240489   4.679   2.696   8.248
13518TIP3    H140490   4.725   2.707   8.334
13518TIP3    H240491   4.723   2.616   8.214
13519TIP3   OH240492   4.691   2.627   7.882
13519TIP3    H140493   4.735   2.667   7.804
13519TIP3    H240494   4.631   2.700   7.907
13520TIP3   OH240495   5.848   3.343   8.473
13520TIP3    H140496   5.879   3.268   8.417
13520TIP3    H240497   5.822   3.294   8.555
13521TIP3   OH240498   5.514   2.804   8.146
13521TIP3    H140499   5.430   2.799   8.195
13521TIP3    H240500   5.579   2.803   8.218
13522TIP3   OH240501   4.951   2.858   8.155
13522TIP3    H140502   4.858   2.867   8.126
13522TIP3    H240503   4.971   2.765   8.135
13523TIP3   OH240504   5.218   2.855   7.845
13523TIP3    H140505   5.312   2.869   7.822
13523TIP3    H240506   5.171   2.876   7.761
13524TIP3   OH240507   6.011   2.878   8.336
13524TIP3    H140508   5.990   2.885   8.432
13524TIP3    H240509   5.944   2.814   8.308
13525TIP3   OH240510   5.058   2.890   7.624
13525TIP3    H140511   4.986   2.843   7.578
13525TIP3    H240512   5.109   2.924   7.547
13526TIP3   OH240513   6.184   4.560   8.556
13526TIP3    H140514   6.184   4.581   8.461
13526TIP3    H240515   6.228   4.637   8.594
13527TIP3   OH240516   5.594   3.142   8.232
13527TIP3    H140517   5.667   3.087   8.202
13527TIP3    H240518   5.591   3.121   8.328
13528TIP3   OH240519   5.123   2.621   8.116
13528TIP3    H140520   5.082   2.544   8.161
13528TIP3    H240521   5.171   2.577   8.045
13529TIP3   OH240522   5.584   3.078   8.497
13529TIP3    H140523   5.497   3.041   8.516
13529TIP3    H240524   5.640   3.026   8.557
13530TIP3   OH240525   5.307   3.420   7.629
13530TIP3    H140526   5.238   3.351   7.619
13530TIP3    H240527   5.290   3.452   7.721
13531TIP3   OH240528   6.210   3.653   8.260
13531TIP3    H140529   6.234   3.702   8.178
13531TIP3    H240530   6.126   3.609   8.234
13532TIP3   OH240531   5.768   2.730   7.492
13532TIP3    H140532   5.672   2.712   7.501
13532TIP3    H240533   5.777   2.824   7.517
13533TIP3   OH240534   5.725   3.744   8.621
13533TIP3    H140535   5.710   3.686   8.697
13533TIP3    H240536   5.669   3.821   8.638
13534TIP3   OH240537   5.838   2.977   7.597
13534TIP3    H140538   5.934   2.982   7.612
13534TIP3    H240539   5.821   3.057   7.542
13535TIP3   OH240540   4.997   3.451   8.289
13535TIP3    H140541   5.042   3.411   8.212
13535TIP3    H240542   5.020   3.390   8.361
13536TIP3   OH240543   5.456   3.567   7.452
13536TIP3    H140544   5.408   3.653   7.459
13536TIP3    H240545   5.401   3.511   7.512
13537TIP3   OH240546   5.875   4.005   8.518
13537TIP3    H140547   5.780   3.983   8.529
13537TIP3    H240548   5.887   4.066   8.592
13538TIP3   OH240549   6.282   3.067   7.432
13538TIP3    H140550   6.219   3.022   7.370
13538TIP3    H240551   6.278   3.156   7.391
13539TIP3   OH240552   6.489   3.937   8.507
13539TIP3    H140553   6.394   3.918   8.493
13539TIP3    H240554   6.526   3.898   8.425
13540TIP3   OH240555   5.981   3.885   7.341
13540TIP3    H140556   5.955   3.813   7.400
13540TIP3    H240557   5.993   3.840   7.255
13541TIP3   OH240558   5.975   3.516   8.178
13541TIP3    H140559   5.883   3.487   8.192
13541TIP3    H240560   6.011   3.436   8.135
13542TIP3   OH240561   5.098   3.748   7.943
13542TIP3    H140562   5.108   3.825   7.883
13542TIP3    H240563   5.013   3.712   7.915
13543TIP3   OH240564   4.667   3.047   7.635
13543TIP3    H140565   4.713   3.130   7.657
13543TIP3    H240566   4.590   3.051   7.696
13544TIP3   OH240567   5.241   3.512   7.875
13544TIP3    H140568   5.210   3.600   7.902
13544TIP3    H240569   5.208   3.456   7.947
13545TIP3   OH240570   5.370   4.091   8.395
13545TIP3    H140571   5.414   4.163   8.344
13545TIP3    H240572   5.446   4.050   8.439
13546TIP3   OH240573   5.025   3.985   7.782
13546TIP3    H140574   4.937   3.997   7.824
13546TIP3    H240575   5.059   4.077   7.784
13547TIP3   OH240576   5.765   3.723   8.354
13547TIP3    H140577   5.759   3.721   8.452
13547TIP3    H240578   5.837   3.660   8.338
13548TIP3   OH240579   5.736   3.615   7.241
13548TIP3    H140580   5.788   3.589   7.320
13548TIP3    H240581   5.648   3.585   7.268
13549TIP3   OH240582   6.002   4.259   8.413
13549TIP3    H140583   5.926   4.199   8.393
13549TIP3    H240584   5.996   4.322   8.338
13550TIP3   OH240585   6.075   4.088   7.061
13550TIP3    H140586   6.112   4.160   7.007
13550TIP3    H240587   5.995   4.134   7.094
13551TIP3   OH240588   5.895   3.551   7.461
13551TIP3    H140589   5.885   3.483   7.530
13551TIP3    H240590   5.992   3.546   7.446
13552TIP3   OH240591   4.839   3.964   8.542
13552TIP3    H140592   4.850   3.872   8.570
13552TIP3    H240593   4.809   4.004   8.624
13553TIP3   OH240594   5.101   3.595   7.243
13553TIP3    H140595   5.114   3.505   7.209
13553TIP3    H240596   5.080   3.578   7.336
13554TIP3   OH240597   5.045   3.599   7.518
13554TIP3    H140598   5.123   3.569   7.566
13554TIP3    H240599   5.054   3.697   7.522
13555TIP3   OH240600   4.785   3.292   7.714
13555TIP3    H140601   4.717   3.334   7.771
13555TIP3    H240602   4.798   3.361   7.647
13556TIP3   OH240603   5.959   2.918   8.596
13556TIP3    H140604   6.019   2.959   8.661
13556TIP3    H240605   5.876   2.902   8.646
13557TIP3   OH240606   5.809   2.681   7.774
13557TIP3    H140607   5.798   2.703   7.679
13557TIP3    H240608   5.849   2.763   7.810
13558TIP3   OH240609   5.314   3.797   7.466
13558TIP3    H140610   5.226   3.826   7.498
13558TIP3    H240611   5.328   3.859   7.393
13559TIP3   OH240612   5.502   2.861   7.875
13559TIP3    H140613   5.567   2.932   7.859
13559TIP3    H240614   5.505   2.853   7.973
13560TIP3   OH240615   5.793   3.207   8.702
13560TIP3    H140616   5.808   3.249   8.789
13560TIP3    H240617   5.815   3.115   8.717
13561TIP3   OH240618   5.643   2.587   7.978
13561TIP3    H140619   5.636   2.665   8.037
13561TIP3    H240620   5.705   2.623   7.910
13562TIP3   OH240621   5.057   3.873   7.529
13562TIP3    H140622   5.027   3.941   7.464
13562TIP3    H240623   5.042   3.918   7.614
13563TIP3   OH240624   5.157   2.585   7.767
13563TIP3    H140625   5.154   2.675   7.806
13563TIP3    H240626   5.253   2.567   7.775
13564TIP3   OH240627   6.410   3.068   8.644
13564TIP3    H140628   6.315   3.083   8.666
13564TIP3    H240629   6.398   3.004   8.572
13565TIP3   OH240630   6.062   3.276   8.053
13565TIP3    H140631   5.986   3.215   8.062
13565TIP3    H240632   6.133   3.226   8.100
13566TIP3   OH240633   4.775   3.504   7.521
13566TIP3    H140634   4.848   3.569   7.528
13566TIP3    H240635   4.816   3.444   7.455
13567TIP3   OH240636   4.720   2.777   7.654
13567TIP3    H140637   4.718   2.875   7.652
13567TIP3    H240638   4.636   2.754   7.614
13568TIP3   OH240639   6.029   4.231   8.003
13568TIP3    H140640   5.987   4.278   7.928
13568TIP3    H240641   6.123   4.248   7.982
13569TIP3   OH240642   4.658   3.740   7.926
13569TIP3    H140643   4.567   3.750   7.957
13569TIP3    H240644   4.643   3.758   7.831
13570TIP3   OH240645   5.267   3.798   7.158
13570TIP3    H140646   5.210   3.725   7.192
13570TIP3    H240647   5.341   3.747   7.120
13571TIP3   OH240648   5.934   4.117   8.775
13571TIP3    H140649   5.971   4.027   8.769
13571TIP3    H240650   6.011   4.173   8.760
13572TIP3   OH240651   5.702   3.840   7.066
13572TIP3    H140652   5.745   3.775   7.123
13572TIP3    H240653   5.757   3.838   6.985
13573TIP3   OH240654   4.909   3.318   7.376
13573TIP3    H140655   4.963   3.279   7.446
13573TIP3    H240656   4.974   3.321   7.303
13574TIP3   OH240657   5.420   3.514   7.182
13574TIP3    H140658   5.422   3.525   7.279
13574TIP3    H240659   5.420   3.416   7.176
13575TIP3   OH240660   6.036   3.762   8.573
13575TIP3    H140661   6.109   3.800   8.520
13575TIP3    H240662   5.961   3.817   8.543
13576TIP3   OH240663   5.121   3.218   7.599
13576TIP3    H140664   5.092   3.174   7.680
13576TIP3    H240665   5.155   3.142   7.547
13577TIP3   OH240666   5.218   3.014   7.437
13577TIP3    H140667   5.192   3.015   7.342
13577TIP3    H240668   5.315   3.016   7.429
13578TIP3   OH240669   6.041   3.344   7.100
13578TIP3    H140670   6.019   3.297   7.017
13578TIP3    H240671   6.007   3.434   7.076
13579TIP3   OH240672   5.540   3.414   8.659
13579TIP3    H140673   5.612   3.370   8.612
13579TIP3    H240674   5.500   3.471   8.590
13580TIP3   OH240675   6.166   3.595   8.745
13580TIP3    H140676   6.107   3.656   8.695
13580TIP3    H240677   6.253   3.627   8.712
13581TIP3   OH240678   5.026   4.078   7.345
13581TIP3    H140679   5.121   4.072   7.324
13581TIP3    H240680   4.995   4.123   7.263
13582TIP3   OH240681   4.507   3.455   7.562
13582TIP3    H140682   4.601   3.476   7.543
13582TIP3    H240683   4.498   3.367   7.519
13583TIP3   OH240684   4.423   4.071   7.970
13583TIP3    H140685   4.354   4.012   7.931
13583TIP3    H240686   4.470   4.007   8.027
13584TIP3   OH240687   4.557   3.914   8.175
13584TIP3    H140688   4.484   3.865   8.216
13584TIP3    H240689   4.568   3.988   8.237
13585TIP3   OH240690   6.282   4.322   7.957
13585TIP3    H140691   6.310   4.355   8.044
13585TIP3    H240692   6.345   4.364   7.897
13586TIP3   OH240693   6.310   4.342   8.239
13586TIP3    H140694   6.269   4.253   8.235
13586TIP3    H240695   6.388   4.322   8.293
13587TIP3   OH240696   6.174   3.531   7.434
13587TIP3    H140697   6.243   3.593   7.404
13587TIP3    H240698   6.217   3.491   7.513
13588TIP3   OH240699   6.301   3.399   7.638
13588TIP3    H140700   6.236   3.355   7.696
13588TIP3    H240701   6.366   3.435   7.702
13589TIP3   OH240702   6.358   3.791   8.070
13589TIP3    H140703   6.409   3.724   8.021
13589TIP3    H240704   6.352   3.863   8.005
13590TIP3   OH240705   6.189   4.093   8.261
13590TIP3    H140706   6.116   4.127   8.315
13590TIP3    H240707   6.141   4.043   8.191
13591TIP3   OH240708   6.241   3.306   7.284
13591TIP3    H140709   6.169   3.307   7.216
13591TIP3    H240710   6.212   3.382   7.339
13592TIP3   OH240711   6.111   2.981   7.238
13592TIP3    H140712   6.068   3.013   7.159
13592TIP3    H240713   6.088   2.885   7.233
13593TIP3   OH240714   6.117   3.253   7.783
13593TIP3    H140715   6.124   3.157   7.776
13593TIP3    H240716   6.103   3.266   7.880
13594TIP3   OH240717   4.752   3.369   8.496
13594TIP3    H140718   4.749   3.310   8.417
13594TIP3    H240719   4.842   3.354   8.530
13595TIP3   OH240720   6.402   3.688   8.639
13595TIP3    H140721   6.472   3.621   8.630
13595TIP3    H240722   6.445   3.766   8.601
13596TIP3   OH240723   6.601   3.494   8.639
13596TIP3    H140724   6.523   3.439   8.666
13596TIP3    H240725   6.654   3.488   8.720
13597TIP3   OH240726   6.054   2.716   7.227
13597TIP3    H140727   6.131   2.682   7.276
13597TIP3    H240728   5.984   2.652   7.249
13598TIP3   OH240729   6.113   2.971   7.678
13598TIP3    H140730   6.152   2.882   7.696
13598TIP3    H240731   6.173   3.001   7.607
13599TIP3   OH240732   6.273   3.145   8.171
13599TIP3    H140733   6.359   3.174   8.132
13599TIP3    H240734   6.285   3.181   8.262
13600TIP3   OH240735   6.337   3.291   8.400
13600TIP3    H140736   6.262   3.324   8.454
13600TIP3    H240737   6.372   3.374   8.362
13601TIP3   OH240738   6.219   2.721   7.717
13601TIP3    H140739   6.269   2.705   7.800
13601TIP3    H240740   6.160   2.643   7.716
13602TIP3   OH240741   6.303   2.653   7.343
13602TIP3    H140742   6.343   2.578   7.296
13602TIP3    H240743   6.373   2.720   7.339
13603TIP3   OH240744   4.698   2.464   8.095
13603TIP3    H140745   4.604   2.474   8.117
13603TIP3    H240746   4.709   2.529   8.021
13604TIP3   OH240747   5.867   4.188   7.616
13604TIP3    H140748   5.916   4.171   7.533
13604TIP3    H240749   5.925   4.253   7.659
13605TIP3   OH240750   5.146   4.014   8.543
13605TIP3    H140751   5.096   4.090   8.508
13605TIP3    H240752   5.233   4.033   8.503
13606TIP3   OH240753   5.610   4.261   8.693
13606TIP3    H140754   5.665   4.272   8.771
13606TIP3    H240755   5.661   4.316   8.629
13607TIP3   OH240756   5.781   4.416   8.547
13607TIP3    H140757   5.838   4.360   8.492
13607TIP3    H240758   5.843   4.483   8.577
13608TIP3   OH240759   4.823   4.294   8.564
13608TIP3    H140760   4.736   4.332   8.539
13608TIP3    H240761   4.816   4.293   8.660
13609TIP3   OH240762   5.059   4.258   8.428
13609TIP3    H140763   4.973   4.273   8.474
13609TIP3    H240764   5.041   4.295   8.340
13610TIP3   OH240765   5.484   4.288   8.228
13610TIP3    H140766   5.418   4.307   8.159
13610TIP3    H240767   5.497   4.376   8.269
13611TIP3   OH240768   5.753   4.232   8.286
13611TIP3    H140769   5.660   4.245   8.259
13611TIP3    H240770   5.798   4.299   8.233
13612TIP3   OH240771   5.959   4.418   8.195
13612TIP3    H140772   5.945   4.502   8.146
13612TIP3    H240773   5.988   4.358   8.122
13613TIP3   OH240774   4.757   4.083   8.312
13613TIP3    H140775   4.773   4.054   8.406
13613TIP3    H240776   4.846   4.068   8.277
13614TIP3   OH240777   4.948   3.943   8.156
13614TIP3    H140778   4.995   3.862   8.184
13614TIP3    H240779   5.026   4.002   8.148
13615TIP3   OH240780   5.201   4.048   8.175
13615TIP3    H140781   5.234   3.957   8.160
13615TIP3    H240782   5.244   4.066   8.261
13616TIP3   OH240783   5.772   2.696   8.261
13616TIP3    H140784   5.727   2.622   8.306
13616TIP3    H240785   5.848   2.652   8.219
13617TIP3   OH240786   6.296   2.578   8.171
13617TIP3    H140787   6.327   2.631   8.094
13617TIP3    H240788   6.200   2.595   8.169
13618TIP3   OH240789   6.387   2.681   7.935
13618TIP3    H140790   6.457   2.627   7.892
13618TIP3    H240791   6.422   2.771   7.918
13619TIP3   OH240792   5.017   2.405   8.236
13619TIP3    H140793   4.927   2.382   8.265
13619TIP3    H240794   5.064   2.323   8.256
13620TIP3   OH240795   4.804   2.270   7.926
13620TIP3    H140796   4.835   2.330   7.855
13620TIP3    H240797   4.772   2.333   7.993
13621TIP3   OH240798   5.464   2.443   8.165
13621TIP3    H140799   5.518   2.488   8.098
13621TIP3    H240800   5.506   2.474   8.247
13622TIP3   OH240801   6.010   2.584   8.143
13622TIP3    H140802   6.009   2.546   8.054
13622TIP3    H240803   5.993   2.503   8.197
13623TIP3   OH240804   6.038   2.507   7.708
13623TIP3    H140805   5.950   2.547   7.718
13623TIP3    H240806   6.024   2.421   7.754
13624TIP3   OH240807   4.522   3.844   7.713
13624TIP3    H140808   4.438   3.807   7.681
13624TIP3    H240809   4.512   3.935   7.680
13625TIP3   OH240810   4.921   2.434   7.691
13625TIP3    H140811   4.970   2.371   7.635
13625TIP3    H240812   4.994   2.488   7.728
13626TIP3   OH240813   5.435   2.610   7.789
13626TIP3    H140814   5.494   2.562   7.849
13626TIP3    H240815   5.456   2.702   7.816
13627TIP3   OH240816   5.293   4.037   7.290
13627TIP3    H140817   5.382   4.058   7.254
13627TIP3    H240818   5.271   3.961   7.231
13628TIP3   OH240819   6.012   4.152   7.384
13628TIP3    H140820   6.004   4.054   7.371
13628TIP3    H240821   5.967   4.184   7.302
13629TIP3   OH240822   4.603   3.877   7.349
13629TIP3    H140823   4.607   3.890   7.444
13629TIP3    H240824   4.688   3.829   7.331
13630TIP3   OH240825   6.239   4.289   8.562
13630TIP3    H140826   6.158   4.268   8.511
13630TIP3    H240827   6.226   4.385   8.576
13631TIP3   OH240828   7.502   3.664   7.341
13631TIP3    H140829   7.480   3.758   7.323
13631TIP3    H240830   7.426   3.621   7.300
13632TIP3   OH240831   7.486   3.664   7.723
13632TIP3    H140832   7.565   3.618   7.754
13632TIP3    H240833   7.454   3.606   7.653
13633TIP3   OH240834   6.802   3.571   8.079
13633TIP3    H140835   6.834   3.500   8.138
13633TIP3    H240836   6.885   3.618   8.062
13634TIP3   OH240837   7.744   3.967   7.397
13634TIP3    H140838   7.741   3.894   7.462
13634TIP3    H240839   7.779   4.039   7.451
13635TIP3   OH240840   6.777   3.975   7.810
13635TIP3    H140841   6.768   3.877   7.812
13635TIP3    H240842   6.873   3.983   7.800
13636TIP3   OH240843   6.482   3.181   7.594
13636TIP3    H140844   6.430   3.262   7.606
13636TIP3    H240845   6.415   3.121   7.558
13637TIP3   OH240846   6.541   3.467   7.765
13637TIP3    H140847   6.588   3.388   7.801
13637TIP3    H240848   6.597   3.489   7.689
13638TIP3   OH240849   7.395   4.431   7.415
13638TIP3    H140850   7.442   4.361   7.366
13638TIP3    H240851   7.396   4.396   7.505
13639TIP3   OH240852   7.302   3.898   7.765
13639TIP3    H140853   7.341   3.814   7.734
13639TIP3    H240854   7.386   3.947   7.780
13640TIP3   OH240855   7.059   3.061   7.754
13640TIP3    H140856   7.031   3.133   7.690
13640TIP3    H240857   7.007   2.989   7.719
13641TIP3   OH240858   7.718   3.184   7.360
13641TIP3    H140859   7.780   3.121   7.402
13641TIP3    H240860   7.771   3.217   7.286
13642TIP3   OH240861   6.685   3.259   7.869
13642TIP3    H140862   6.768   3.235   7.916
13642TIP3    H240863   6.695   3.203   7.790
13643TIP3   OH240864   7.127   3.455   7.665
13643TIP3    H140865   7.219   3.424   7.676
13643TIP3    H240866   7.083   3.373   7.631
13644TIP3   OH240867   7.015   3.010   8.184
13644TIP3    H140868   6.976   3.077   8.125
13644TIP3    H240869   7.053   3.060   8.257
13645TIP3   OH240870   7.399   3.889   7.205
13645TIP3    H140871   7.353   3.870   7.123
13645TIP3    H240872   7.356   3.973   7.232
13646TIP3   OH240873   7.143   3.822   7.982
13646TIP3    H140874   7.086   3.891   8.021
13646TIP3    H240875   7.194   3.873   7.915
13647TIP3   OH240876   6.922   3.158   7.974
13647TIP3    H140877   6.988   3.229   7.991
13647TIP3    H240878   6.968   3.108   7.903
13648TIP3   OH240879   6.983   4.015   8.097
13648TIP3    H140880   6.958   4.100   8.057
13648TIP3    H240881   6.902   3.997   8.151
13649TIP3   OH240882   6.379   3.698   7.327
13649TIP3    H140883   6.337   3.724   7.243
13649TIP3    H240884   6.409   3.783   7.363
13650TIP3   OH240885   7.818   4.215   7.560
13650TIP3    H140886   7.731   4.200   7.603
13650TIP3    H240887   7.801   4.304   7.523
13651TIP3   OH240888   7.519   4.260   7.240
13651TIP3    H140889   7.570   4.178   7.221
13651TIP3    H240890   7.581   4.326   7.199
13652TIP3   OH240891   7.665   4.045   7.148
13652TIP3    H140892   7.621   3.967   7.112
13652TIP3    H240893   7.698   4.011   7.234
13653TIP3   OH240894   7.335   3.527   7.162
13653TIP3    H140895   7.253   3.578   7.143
13653TIP3    H240896   7.378   3.525   7.075
13654TIP3   OH240897   7.295   3.306   6.882
13654TIP3    H140898   7.361   3.356   6.932
13654TIP3    H240899   7.352   3.241   6.837
13655TIP3   OH240900   7.681   3.604   7.141
13655TIP3    H140901   7.626   3.628   7.219
13655TIP3    H240902   7.766   3.581   7.184
13656TIP3   OH240903   6.915   3.602   7.556
13656TIP3    H140904   6.873   3.544   7.489
13656TIP3    H240905   6.991   3.548   7.585
13657TIP3   OH240906   7.045   4.011   7.706
13657TIP3    H140907   7.024   3.971   7.621
13657TIP3    H240908   7.135   3.978   7.722
13658TIP3   OH240909   7.051   3.572   7.912
13658TIP3    H140910   7.081   3.547   7.822
13658TIP3    H240911   7.086   3.662   7.923
13659TIP3   OH240912   7.575   4.219   7.679
13659TIP3    H140913   7.568   4.297   7.737
13659TIP3    H240914   7.564   4.143   7.739
13660TIP3   OH240915   7.189   4.145   8.237
13660TIP3    H140916   7.119   4.200   8.277
13660TIP3    H240917   7.134   4.081   8.187
13661TIP3   OH240918   7.525   3.461   6.964
13661TIP3    H140919   7.582   3.522   7.016
13661TIP3    H240920   7.551   3.485   6.871
13662TIP3   OH240921   6.929   3.696   8.335
13662TIP3    H140922   6.924   3.782   8.380
13662TIP3    H240923   6.836   3.667   8.341
13663TIP3   OH240924   7.266   4.141   7.242
13663TIP3    H140925   7.346   4.194   7.258
13663TIP3    H240926   7.206   4.205   7.202
13664TIP3   OH240927   6.980   4.296   8.323
13664TIP3    H140928   6.945   4.301   8.232
13664TIP3    H240929   6.900   4.278   8.376
13665TIP3   OH240930   7.971   2.704   6.962
13665TIP3    H140931   7.916   2.717   7.043
13665TIP3    H240932   7.987   2.796   6.935
13666TIP3   OH240933   6.782   3.445   7.362
13666TIP3    H140934   6.714   3.488   7.304
13666TIP3    H240935   6.744   3.358   7.374
13667TIP3   OH240936   7.839   4.069   6.562
13667TIP3    H140937   7.847   4.166   6.547
13667TIP3    H240938   7.932   4.040   6.550
13668TIP3   OH240939   6.563   3.828   8.268
13668TIP3    H140940   6.496   3.806   8.200
13668TIP3    H240941   6.599   3.739   8.291
13669TIP3   OH240942   6.416   4.021   7.901
13669TIP3    H140943   6.512   4.013   7.890
13669TIP3    H240944   6.410   4.101   7.955
13670TIP3   OH240945   7.371   4.272   8.085
13670TIP3    H140946   7.400   4.339   8.148
13670TIP3    H240947   7.305   4.222   8.139
13671TIP3   OH240948   7.148   4.387   7.043
13671TIP3    H140949   7.103   4.368   6.959
13671TIP3    H240950   7.116   4.476   7.066
13672TIP3   OH240951   6.585   4.237   7.427
13672TIP3    H140952   6.633   4.227   7.513
13672TIP3    H240953   6.531   4.156   7.428
13673TIP3   OH240954   7.350   4.288   6.683
13673TIP3    H140955   7.408   4.219   6.647
13673TIP3    H240956   7.384   4.297   6.775
13674TIP3   OH240957   7.400   4.336   6.954
13674TIP3    H140958   7.311   4.345   6.996
13674TIP3    H240959   7.450   4.297   7.027
13675TIP3   OH240960   6.763   4.013   8.261
13675TIP3    H140961   6.807   3.992   8.346
13675TIP3    H240962   6.689   3.948   8.262
13676TIP3   OH240963   0.708   6.242   1.464
13676TIP3    H140964   0.757   6.185   1.527
13676TIP3    H240965   0.634   6.274   1.518
13677TIP3   OH240966   7.598   3.506   6.707
13677TIP3    H140967   7.568   3.481   6.618
13677TIP3    H240968   7.679   3.557   6.685
13678TIP3   OH240969   7.315   2.883   7.009
13678TIP3    H140970   7.278   2.880   7.100
13678TIP3    H240971   7.275   2.801   6.974
13679TIP3   OH240972   7.099   3.346   8.062
13679TIP3    H140973   7.041   3.371   8.136
13679TIP3    H240974   7.093   3.426   8.006
13680TIP3   OH240975   6.978   3.243   7.567
13680TIP3    H140976   6.887   3.212   7.589
13680TIP3    H240977   6.990   3.200   7.480
13681TIP3   OH240978   7.459   3.327   7.298
13681TIP3    H140979   7.410   3.398   7.250
13681TIP3    H240980   7.523   3.297   7.231
13682TIP3   OH240981   7.606   3.369   7.538
13682TIP3    H140982   7.548   3.400   7.467
13682TIP3    H240983   7.643   3.290   7.493
13683TIP3   OH240984   6.909   3.391   8.259
13683TIP3    H140985   6.937   3.453   8.328
13683TIP3    H240986   6.868   3.320   8.311
13684TIP3   OH240987   6.970   2.858   6.978
13684TIP3    H140988   6.960   2.851   7.075
13684TIP3    H240989   6.887   2.905   6.955
13685TIP3   OH240990   6.515   2.903   7.851
13685TIP3    H140991   6.593   2.931   7.903
13685TIP3    H240992   6.553   2.865   7.770
13686TIP3   OH240993   6.486   2.882   7.368
13686TIP3    H140994   6.532   2.919   7.290
13686TIP3    H240995   6.424   2.955   7.387
13687TIP3   OH240996   7.309   3.053   7.639
13687TIP3    H140997   7.217   3.046   7.675
13687TIP3    H240998   7.354   3.080   7.719
13688TIP3   OH240999   6.746   3.114   7.642
13688TIP3    H141000   6.650   3.119   7.616
13688TIP3    H241001   6.769   3.022   7.625
13689TIP3   OH241002   7.015   3.114   7.329
13689TIP3    H141003   7.107   3.126   7.300
13689TIP3    H241004   6.964   3.132   7.246
13690TIP3   OH241005   6.855   3.146   7.112
13690TIP3    H141006   6.781   3.100   7.069
13690TIP3    H241007   6.904   3.177   7.034
13691TIP3   OH241008   6.906   3.925   8.490
13691TIP3    H141009   6.983   3.970   8.526
13691TIP3    H241010   6.861   3.894   8.571
13692TIP3   OH241011   7.393   3.368   7.717
13692TIP3    H141012   7.472   3.360   7.660
13692TIP3    H241013   7.430   3.359   7.806
13693TIP3   OH241014   6.918   2.881   7.608
13693TIP3    H141015   6.873   2.809   7.659
13693TIP3    H241016   6.959   2.829   7.537
13694TIP3   OH241017   7.105   3.675   7.116
13694TIP3    H141018   7.033   3.608   7.106
13694TIP3    H241019   7.087   3.708   7.208
13695TIP3   OH241020   7.564   2.987   6.977
13695TIP3    H141021   7.468   2.967   6.987
13695TIP3    H241022   7.571   3.081   7.003
13696TIP3   OH241023   7.452   3.990   8.071
13696TIP3    H141024   7.464   3.943   8.155
13696TIP3    H241025   7.443   4.082   8.098
13697TIP3   OH241026   7.636   3.236   7.074
13697TIP3    H141027   7.732   3.247   7.078
13697TIP3    H241028   7.607   3.316   7.025
13698TIP3   OH241029   6.801   3.699   7.792
13698TIP3    H141030   6.836   3.670   7.705
13698TIP3    H241031   6.837   3.631   7.851
13699TIP3   OH241032   7.251   3.822   6.937
13699TIP3    H141033   7.204   3.909   6.942
13699TIP3    H241034   7.196   3.769   6.998
13700TIP3   OH241035   6.674   3.608   8.400
13700TIP3    H141036   6.663   3.580   8.494
13700TIP3    H241037   6.604   3.553   8.359
13701TIP3   OH241038   7.649   4.282   8.017
13701TIP3    H141039   7.555   4.274   7.997
13701TIP3    H241040   7.649   4.344   8.091
13702TIP3   OH241041   8.076   3.325   6.923
13702TIP3    H141042   8.018   3.280   6.858
13702TIP3    H241043   8.075   3.414   6.881
13703TIP3   OH241044   7.777   4.142   6.827
13703TIP3    H141045   7.751   4.072   6.887
13703TIP3    H241046   7.790   4.095   6.742
13704TIP3   OH241047   7.760   3.772   7.593
13704TIP3    H141048   7.673   3.760   7.636
13704TIP3    H241049   7.796   3.683   7.593
13705TIP3   OH241050   6.900   4.000   7.419
13705TIP3    H141051   6.900   4.081   7.364
13705TIP3    H241052   6.806   3.982   7.425
13706TIP3   OH241053   6.462   3.305   7.120
13706TIP3    H141054   6.508   3.388   7.142
13706TIP3    H241055   6.385   3.309   7.182
13707TIP3   OH241056   7.039   3.765   7.362
13707TIP3    H141057   7.004   3.855   7.381
13707TIP3    H241058   7.002   3.714   7.436
13708TIP3   OH241059   7.168   4.344   7.886
13708TIP3    H141060   7.210   4.412   7.829
13708TIP3    H241061   7.246   4.306   7.930
13709TIP3   OH241062   6.819   4.239   7.270
13709TIP3    H141063   6.733   4.248   7.316
13709TIP3    H241064   6.851   4.332   7.272
13710TIP3   OH241065   7.560   3.987   7.827
13710TIP3    H141066   7.525   3.985   7.919
13710TIP3    H241067   7.643   3.937   7.839
13711TIP3   OH241068   7.531   3.868   6.728
13711TIP3    H141069   7.584   3.844   6.807
13711TIP3    H241070   7.442   3.844   6.758
13712TIP3   OH241071   7.872   4.344   6.548
13712TIP3    H141072   7.910   4.415   6.494
13712TIP3    H241073   7.792   4.391   6.581
13713TIP3   OH241074   7.690   3.802   6.943
13713TIP3    H141075   7.681   3.738   7.017
13713TIP3    H241076   7.787   3.802   6.931
13714TIP3   OH241077   6.605   4.207   8.046
13714TIP3    H141078   6.659   4.132   8.076
13714TIP3    H241079   6.636   4.277   8.104
13715TIP3   OH241080   6.898   3.851   6.727
13715TIP3    H141081   6.912   3.758   6.699
13715TIP3    H241082   6.879   3.839   6.823
13716TIP3   OH241083   6.844   3.856   7.000
13716TIP3    H141084   6.915   3.828   7.059
13716TIP3    H241085   6.848   3.954   7.007
13717TIP3   OH241086   6.579   3.550   7.203
13717TIP3    H141087   6.513   3.593   7.260
13717TIP3    H241088   6.592   3.620   7.136
13718TIP3   OH241089   7.604   2.948   7.256
13718TIP3    H141090   7.592   2.953   7.159
13718TIP3    H241091   7.628   3.039   7.279
13719TIP3   OH241092   7.109   4.053   6.948
13719TIP3    H141093   7.023   4.080   6.985
13719TIP3    H241094   7.125   4.125   6.887
13720TIP3   OH241095   7.302   3.115   7.366
13720TIP3    H141096   7.359   3.192   7.343
13720TIP3    H241097   7.297   3.123   7.463
13721TIP3   OH241098   7.438   2.868   7.463
13721TIP3    H141099   7.404   2.953   7.496
13721TIP3    H241100   7.500   2.898   7.392
13722TIP3   OH241101   6.853   4.128   7.016
13722TIP3    H141102   6.823   4.198   6.953
13722TIP3    H241103   6.837   4.172   7.102
13723TIP3   OH241104   6.951   2.842   7.254
13723TIP3    H141105   6.950   2.931   7.293
13723TIP3    H241106   7.047   2.822   7.261
13724TIP3   OH241107   7.868   3.489   7.533
13724TIP3    H141108   7.778   3.460   7.560
13724TIP3    H241109   7.906   3.514   7.619
13725TIP3   OH241110   6.570   3.759   7.009
13725TIP3    H141111   6.636   3.830   7.017
13725TIP3    H241112   6.616   3.704   6.942
13726TIP3   OH241113   6.517   3.036   7.142
13726TIP3    H141114   6.511   3.133   7.137
13726TIP3    H241115   6.435   3.007   7.101
13727TIP3   OH241116   7.815   4.490   7.492
13727TIP3    H141117   7.782   4.540   7.413
13727TIP3    H241118   7.910   4.487   7.474
13728TIP3   OH241119   6.854   2.583   8.023
13728TIP3    H141120   6.868   2.647   7.954
13728TIP3    H241121   6.927   2.604   8.087
13729TIP3   OH241122   6.444   3.976   7.397
13729TIP3    H141123   6.369   4.004   7.452
13729TIP3    H241124   6.418   4.014   7.310
13730TIP3   OH241125   6.601   4.502   8.444
13730TIP3    H141126   6.665   4.495   8.515
13730TIP3    H241127   6.560   4.414   8.446
13731TIP3   OH241128   7.061   4.055   6.640
13731TIP3    H141129   7.005   3.984   6.679
13731TIP3    H241130   7.137   4.003   6.608
13732TIP3   OH241131   7.497   4.096   6.551
13732TIP3    H141132   7.544   4.034   6.610
13732TIP3    H241133   7.553   4.096   6.471
13733TIP3   OH241134   6.705   3.574   6.861
13733TIP3    H141135   6.759   3.538   6.934
13733TIP3    H241136   6.773   3.577   6.790
13734TIP3   OH241137   7.216   3.770   6.668
13734TIP3    H141138   7.217   3.783   6.765
13734TIP3    H241139   7.213   3.672   6.663
13735TIP3   OH241140   6.916   3.474   7.085
13735TIP3    H141141   6.886   3.433   7.168
13735TIP3    H241142   6.950   3.398   7.035
13736TIP3   OH241143   7.162   3.559   8.324
13736TIP3    H141144   7.078   3.609   8.321
13736TIP3    H241145   7.206   3.590   8.242
13737TIP3   OH241146   7.014   3.269   6.924
13737TIP3    H141147   6.987   3.272   6.830
13737TIP3    H241148   7.111   3.274   6.915
13738TIP3   OH241149   7.836   3.599   6.588
13738TIP3    H141150   7.816   3.555   6.503
13738TIP3    H241151   7.805   3.690   6.565
13739TIP3   OH241152   7.300   3.641   8.107
13739TIP3    H141153   7.381   3.642   8.053
13739TIP3    H241154   7.244   3.708   8.061
13740TIP3   OH241155   6.821   4.331   6.829
13740TIP3    H141156   6.917   4.327   6.810
13740TIP3    H241157   6.791   4.380   6.750
13741TIP3   OH241158   6.301   3.713   7.046
13741TIP3    H141159   6.396   3.734   7.031
13741TIP3    H241160   6.295   3.624   7.004
13742TIP3   OH241161   6.214   4.326   7.458
13742TIP3    H141162   6.148   4.263   7.422
13742TIP3    H241163   6.260   4.269   7.524
13743TIP3   OH241164   6.351   4.179   7.646
13743TIP3    H141165   6.341   4.103   7.706
13743TIP3    H241166   6.403   4.239   7.702
13744TIP3   OH241167   7.968   3.788   6.919
13744TIP3    H141168   8.033   3.855   6.888
13744TIP3    H241169   8.016   3.750   6.995
13745TIP3   OH241170   8.098   3.659   7.127
13745TIP3    H141171   8.026   3.608   7.171
13745TIP3    H241172   8.125   3.719   7.197
13746TIP3   OH241173   8.081   4.006   7.487
13746TIP3    H141174   8.173   4.006   7.512
13746TIP3    H241175   8.060   4.100   7.480
13747TIP3   OH241176   7.997   4.381   7.708
13747TIP3    H141177   7.958   4.383   7.796
13747TIP3    H241178   7.945   4.309   7.667
13748TIP3   OH241179   8.033   3.560   6.775
13748TIP3    H141180   7.966   3.562   6.704
13748TIP3    H241181   8.007   3.640   6.825
13749TIP3   OH241182   7.908   3.233   6.731
13749TIP3    H141183   7.869   3.277   6.654
13749TIP3    H241184   7.883   3.140   6.715
13750TIP3   OH241185   7.914   3.510   7.263
13750TIP3    H141186   7.917   3.414   7.244
13750TIP3    H241187   7.899   3.511   7.361
13751TIP3   OH241188   6.538   3.584   8.017
13751TIP3    H141189   6.537   3.552   7.924
13751TIP3    H241190   6.635   3.588   8.033
13752TIP3   OH241191   7.852   2.967   6.707
13752TIP3    H141192   7.928   2.939   6.762
13752TIP3    H241193   7.779   2.910   6.736
13753TIP3   OH241194   7.913   3.239   7.153
13753TIP3    H141195   7.938   3.147   7.166
13753TIP3    H241196   7.974   3.266   7.081
13754TIP3   OH241197   6.703   2.985   8.041
13754TIP3    H141198   6.721   2.972   8.135
13754TIP3    H241199   6.787   3.021   8.009
13755TIP3   OH241200   6.521   3.237   8.097
13755TIP3    H141201   6.570   3.224   8.013
13755TIP3    H241202   6.551   3.325   8.122
13756TIP3   OH241203   8.104   2.916   6.830
13756TIP3    H141204   8.146   2.850   6.772
13756TIP3    H241205   8.172   2.986   6.835
13757TIP3   OH241206   6.501   2.750   7.603
13757TIP3    H141207   6.406   2.739   7.622
13757TIP3    H241208   6.500   2.803   7.521
13758TIP3   OH241209   7.663   4.444   7.102
13758TIP3    H141210   7.714   4.430   7.019
13758TIP3    H241211   7.715   4.513   7.146
13759TIP3   OH241212   6.651   2.802   8.411
13759TIP3    H141213   6.626   2.813   8.503
13759TIP3    H241214   6.592   2.865   8.364
13760TIP3   OH241215   6.767   4.244   8.499
13760TIP3    H141216   6.680   4.221   8.462
13760TIP3    H241217   6.757   4.217   8.590
13761TIP3   OH241218   6.942   4.285   8.038
13761TIP3    H141219   6.894   4.359   7.996
13761TIP3    H241220   7.028   4.297   7.992
13762TIP3   OH241221   6.619   4.536   8.061
13762TIP3    H141222   6.529   4.569   8.037
13762TIP3    H241223   6.631   4.579   8.146
13763TIP3   OH241224   6.856   4.517   7.918
13763TIP3    H141225   6.769   4.529   7.962
13763TIP3    H241226   6.837   4.549   7.828
13764TIP3   OH241227   7.269   4.534   7.708
13764TIP3    H141228   7.205   4.562   7.641
13764TIP3    H241229   7.291   4.620   7.751
13765TIP3   OH241230   7.535   4.481   7.770
13765TIP3    H141231   7.445   4.501   7.739
13765TIP3    H241232   7.585   4.558   7.737
13766TIP3   OH241233   7.684   4.690   7.651
13766TIP3    H141234   7.764   4.742   7.669
13766TIP3    H241235   7.722   4.613   7.604
13767TIP3   OH241236   6.530   4.331   7.804
13767TIP3    H141237   6.556   4.305   7.895
13767TIP3    H241238   6.601   4.287   7.753
13768TIP3   OH241239   6.723   4.202   7.661
13768TIP3    H141240   6.740   4.118   7.710
13768TIP3    H241241   6.814   4.238   7.655
13769TIP3   OH241242   6.988   4.297   7.663
13769TIP3    H141243   7.022   4.207   7.648
13769TIP3    H241244   7.034   4.319   7.747
13770TIP3   OH241245   6.787   2.683   7.737
13770TIP3    H141246   6.697   2.647   7.750
13770TIP3    H241247   6.839   2.600   7.741
13771TIP3   OH241248   6.595   2.532   7.424
13771TIP3    H141249   6.630   2.583   7.349
13771TIP3    H241250   6.574   2.601   7.489
13772TIP3   OH241251   7.233   2.712   7.645
13772TIP3    H141252   7.280   2.777   7.591
13772TIP3    H241253   7.264   2.734   7.734
13773TIP3   OH241254   7.830   2.774   7.187
13773TIP3    H141255   7.751   2.818   7.223
13773TIP3    H241256   7.832   2.692   7.240
13774TIP3   OH241257   6.318   4.102   7.195
13774TIP3    H141258   6.233   4.069   7.161
13774TIP3    H241259   6.307   4.197   7.175
13775TIP3   OH241260   6.718   2.696   7.172
13775TIP3    H141261   6.763   2.624   7.124
13775TIP3    H241262   6.794   2.743   7.212
13776TIP3   OH241263   7.227   2.871   7.270
13776TIP3    H141264   7.278   2.816   7.331
13776TIP3    H241265   7.253   2.960   7.301
13777TIP3   OH241266   7.090   4.291   6.777
13777TIP3    H141267   7.178   4.314   6.741
13777TIP3    H241268   7.067   4.217   6.717
13778TIP3   OH241269   7.808   4.409   6.869
13778TIP3    H141270   7.799   4.311   6.857
13778TIP3    H241271   7.763   4.441   6.789
13779TIP3   OH241272   6.394   4.129   6.833
13779TIP3    H141273   6.395   4.154   6.927
13779TIP3    H241274   6.483   4.087   6.822
13780TIP3   OH241275   8.261   3.427   7.126
13780TIP3    H141276   8.219   3.514   7.114
13780TIP3    H241277   8.219   3.378   7.054
13781TIP3   OH241278   8.161   3.965   6.820
13781TIP3    H141279   8.126   3.990   6.733
13781TIP3    H241280   8.198   4.050   6.852
13782TIP3   OH241281   8.533   3.646   6.764
13782TIP3    H141282   8.463   3.712   6.753
13782TIP3    H241283   8.551   3.641   6.858
13783TIP3   OH241284   8.187   4.297   7.397
13783TIP3    H141285   8.280   4.282   7.373
13783TIP3    H241286   8.191   4.289   7.494
13784TIP3   OH241287   8.893   4.619   6.538
13784TIP3    H141288   8.889   4.615   6.441
13784TIP3    H241289   8.891   4.714   6.557
13785TIP3   OH241290   8.381   4.496   6.918
13785TIP3    H141291   8.423   4.476   7.003
13785TIP3    H241292   8.320   4.422   6.909
13786TIP3   OH241293   8.716   3.199   6.481
13786TIP3    H141294   8.743   3.107   6.495
13786TIP3    H241295   8.656   3.193   6.406
13787TIP3   OH241296   8.282   3.136   6.865
13787TIP3    H141297   8.326   3.172   6.784
13787TIP3    H241298   8.219   3.208   6.882
13788TIP3   OH241299   8.614   3.430   6.592
13788TIP3    H141300   8.572   3.354   6.552
13788TIP3    H241301   8.692   3.440   6.536
13789TIP3   OH241302   8.874   3.946   6.607
13789TIP3    H141303   8.817   3.867   6.587
13789TIP3    H241304   8.853   3.961   6.701
13790TIP3   OH241305   9.007   4.076   6.397
13790TIP3    H141306   8.984   4.166   6.428
13790TIP3    H241307   8.986   4.023   6.476
13791TIP3   OH241308   8.700   4.265   6.865
13791TIP3    H141309   8.685   4.349   6.817
13791TIP3    H241310   8.621   4.259   6.921
13792TIP3   OH241311   8.251   3.561   6.599
13792TIP3    H141312   8.309   3.636   6.622
13792TIP3    H241313   8.182   3.567   6.669
13793TIP3   OH241314   8.815   4.024   6.885
13793TIP3    H141315   8.783   4.114   6.859
13793TIP3    H241316   8.762   4.011   6.964
13794TIP3   OH241317   8.609   4.503   6.753
13794TIP3    H141318   8.524   4.517   6.798
13794TIP3    H241319   8.658   4.583   6.775
13795TIP3   OH241320   8.692   4.106   6.215
13795TIP3    H141321   8.702   4.013   6.189
13795TIP3    H241322   8.674   4.097   6.311
13796TIP3   OH241323   8.641   4.112   6.486
13796TIP3    H141324   8.721   4.083   6.532
13796TIP3    H241325   8.644   4.209   6.497
13797TIP3   OH241326   8.348   3.822   6.679
13797TIP3    H141327   8.286   3.868   6.738
13797TIP3    H241328   8.368   3.891   6.613
13798TIP3   OH241329   8.905   4.321   6.451
13798TIP3    H141330   8.815   4.350   6.476
13798TIP3    H241331   8.929   4.394   6.391
13799TIP3   OH241332   8.640   4.383   6.503
13799TIP3    H141333   8.613   4.452   6.437
13799TIP3    H241334   8.631   4.434   6.587
13800TIP3   OH241335   8.366   4.025   6.487
13800TIP3    H141336   8.435   4.092   6.499
13800TIP3    H241337   8.412   3.968   6.422
13801TIP3   OH241338   8.305   3.286   6.636
13801TIP3    H141339   8.330   3.380   6.626
13801TIP3    H241340   8.225   3.283   6.583
13802TIP3   OH241341   8.239   4.229   6.885
13802TIP3    H141342   8.166   4.265   6.936
13802TIP3    H241343   8.219   4.267   6.797
13803TIP3   OH241344   8.853   4.308   6.130
13803TIP3    H141345   8.791   4.239   6.165
13803TIP3    H241346   8.937   4.263   6.142
13804TIP3   OH241347   8.504   3.830   6.345
13804TIP3    H141348   8.551   3.791   6.421
13804TIP3    H241349   8.576   3.834   6.280
13805TIP3   OH241350   8.996   4.007   6.141
13805TIP3    H141351   9.013   4.045   6.231
13805TIP3    H241352   8.933   3.939   6.166
13806TIP3   OH241353   8.715   3.726   6.573
13806TIP3    H141354   8.657   3.686   6.642
13806TIP3    H241355   8.746   3.646   6.528
13807TIP3   OH241356   8.819   3.520   6.415
13807TIP3    H141357   8.780   3.521   6.326
13807TIP3    H241358   8.913   3.509   6.392
13808TIP3   OH241359   8.606   4.578   6.317
13808TIP3    H141360   8.703   4.586   6.308
13808TIP3    H241361   8.580   4.631   6.238
13809TIP3   OH241362   8.099   3.969   6.537
13809TIP3    H141363   8.192   3.995   6.517
13809TIP3    H241364   8.095   3.881   6.495
13810TIP3   OH241365   8.009   4.582   6.943
13810TIP3    H141366   7.943   4.520   6.905
13810TIP3    H241367   8.057   4.522   7.004
13811TIP3   OH241368   8.151   4.425   7.117
13811TIP3    H141369   8.128   4.355   7.180
13811TIP3    H241370   8.194   4.489   7.177
13812TIP3   OH241371   8.113   4.361   6.687
13812TIP3    H141372   8.029   4.326   6.651
13812TIP3    H241373   8.103   4.454   6.662
13813TIP3   OH241374   8.494   2.977   6.642
13813TIP3    H141375   8.573   2.921   6.637
13813TIP3    H241376   8.515   3.032   6.721
13814TIP3   OH241377   8.875   4.548   6.268
13814TIP3    H141378   8.964   4.562   6.228
13814TIP3    H241379   8.845   4.474   6.211
13815TIP3   OH241380   8.188   4.380   6.321
13815TIP3    H141381   8.194   4.416   6.410
13815TIP3    H241382   8.277   4.341   6.307
13816TIP3   OH241383   1.874   5.074   8.292
13816TIP3    H141384   1.901   5.027   8.211
13816TIP3    H241385   1.954   5.125   8.317
13817TIP3   OH241386   1.566   4.347   8.070
13817TIP3    H141387   1.640   4.407   8.095
13817TIP3    H241388   1.615   4.283   8.015
13818TIP3   OH241389   1.782   4.503   8.131
13818TIP3    H141390   1.793   4.594   8.160
13818TIP3    H241391   1.803   4.514   8.035
13819TIP3   OH241392   2.087   5.117   7.739
13819TIP3    H141393   2.096   5.213   7.721
13819TIP3    H241394   2.180   5.087   7.727
13820TIP3   OH241395   1.391   5.429   8.210
13820TIP3    H141396   1.353   5.425   8.121
13820TIP3    H241397   1.370   5.522   8.237
13821TIP3   OH241398   1.602   5.334   7.859
13821TIP3    H141399   1.660   5.263   7.823
13821TIP3    H241400   1.636   5.343   7.950
13822TIP3   OH241401   1.653   5.386   8.130
13822TIP3    H141402   1.564   5.386   8.172
13822TIP3    H241403   1.709   5.355   8.203
13823TIP3   OH241404   1.849   4.558   7.880
13823TIP3    H141405   1.813   4.529   7.794
13823TIP3    H241406   1.931   4.602   7.851
13824TIP3   OH241407   1.512   4.864   8.068
13824TIP3    H141408   1.477   4.955   8.085
13824TIP3    H241409   1.484   4.821   8.150
13825TIP3   OH241410   2.336   4.363   8.076
13825TIP3    H141411   2.262   4.321   8.025
13825TIP3    H241412   2.332   4.452   8.038
13826TIP3   OH241413   2.027   5.180   8.000
13826TIP3    H141414   2.001   5.097   8.040
13826TIP3    H241415   2.044   5.153   7.908
13827TIP3   OH241416   1.774   4.912   7.906
13827TIP3    H141417   1.826   4.893   7.987
13827TIP3    H241418   1.684   4.890   7.937
13828TIP3   OH241419   2.119   5.391   7.725
13828TIP3    H141420   2.162   5.465   7.678
13828TIP3    H241421   2.038   5.438   7.756
13829TIP3   OH241422   1.948   4.868   8.118
13829TIP3    H141423   1.933   4.809   8.193
13829TIP3    H241424   2.045   4.858   8.103
13830TIP3   OH241425   1.147   4.894   7.907
13830TIP3    H141426   1.175   4.807   7.876
13830TIP3    H241427   1.106   4.874   7.993
13831TIP3   OH241428   1.399   5.107   8.109
13831TIP3    H141429   1.346   5.125   8.189
13831TIP3    H241430   1.378   5.184   8.053
13832TIP3   OH241431   0.994   5.185   8.149
13832TIP3    H141432   1.004   5.255   8.080
13832TIP3    H241433   0.998   5.240   8.228
13833TIP3   OH241434   1.307   5.099   7.810
13833TIP3    H141435   1.253   5.031   7.856
13833TIP3    H241436   1.383   5.046   7.781
13834TIP3   OH241437   1.747   5.140   7.727
13834TIP3    H141438   1.798   5.081   7.785
13834TIP3    H241439   1.800   5.142   7.645
13835TIP3   OH241440   0.928   4.640   7.977
13835TIP3    H141441   0.961   4.704   8.044
13835TIP3    H241442   1.011   4.626   7.927
13836TIP3   OH241443   1.448   4.805   7.815
13836TIP3    H141444   1.463   4.827   7.910
13836TIP3    H241445   1.457   4.707   7.821
13837TIP3   OH241446   1.216   4.362   8.080
13837TIP3    H141447   1.216   4.350   7.983
13837TIP3    H241448   1.310   4.371   8.100
13838TIP3   OH241449   2.087   4.644   7.764
13838TIP3    H141450   2.067   4.598   7.680
13838TIP3    H241451   2.054   4.734   7.741
13839TIP3   OH241452   1.074   5.387   7.988
13839TIP3    H141453   1.171   5.381   7.979
13839TIP3    H241454   1.054   5.448   7.915
13840TIP3   OH241455   2.216   4.852   8.091
13840TIP3    H141456   2.285   4.912   8.052
13840TIP3    H241457   2.253   4.839   8.180
13841TIP3   OH241458   2.345   4.656   8.255
13841TIP3    H141459   2.278   4.691   8.316
13841TIP3    H241460   2.292   4.616   8.184
13842TIP3   OH241461   2.280   4.616   7.955
13842TIP3    H141462   2.212   4.608   7.884
13842TIP3    H241463   2.257   4.705   7.989
13843TIP3   OH241464   2.148   4.280   7.898
13843TIP3    H141465   2.109   4.313   7.817
13843TIP3    H241466   2.128   4.184   7.890
13844TIP3   OH241467   2.098   4.012   7.886
13844TIP3    H141468   2.175   3.985   7.942
13844TIP3    H241469   2.024   3.963   7.926
13845TIP3   OH241470   2.345   3.968   8.008
13845TIP3    H141471   2.385   3.891   7.964
13845TIP3    H241472   2.419   4.031   8.009
13846TIP3   OH241473   1.937   5.437   8.294
13846TIP3    H141474   1.967   5.452   8.202
13846TIP3    H241475   1.964   5.521   8.337
13847TIP3   OH241476   1.341   5.338   7.942
13847TIP3    H141477   1.432   5.357   7.908
13847TIP3    H241478   1.317   5.265   7.882
13848TIP3   OH241479   2.051   5.450   8.044
13848TIP3    H141480   2.044   5.353   8.026
13848TIP3    H241481   2.011   5.488   7.963
13849TIP3   OH241482   3.552   4.970   7.999
13849TIP3    H141483   3.522   5.061   7.978
13849TIP3    H241484   3.477   4.918   7.967
13850TIP3   OH241485   3.516   4.977   8.371
13850TIP3    H141486   3.575   4.962   8.448
13850TIP3    H241487   3.491   4.885   8.350
13851TIP3   OH241488   3.791   5.270   8.065
13851TIP3    H141489   3.781   5.201   8.132
13851TIP3    H241490   3.822   5.345   8.118
13852TIP3   OH241491   2.830   5.284   8.464
13852TIP3    H141492   2.816   5.188   8.447
13852TIP3    H241493   2.886   5.277   8.543
13853TIP3   OH241494   2.562   4.498   8.204
13853TIP3    H141495   2.504   4.574   8.226
13853TIP3    H241496   2.497   4.428   8.218
13854TIP3   OH241497   2.729   4.746   8.381
13854TIP3    H141498   2.664   4.743   8.453
13854TIP3    H241499   2.673   4.767   8.307
13855TIP3   OH241500   3.438   5.734   8.078
13855TIP3    H141501   3.482   5.660   8.031
13855TIP3    H241502   3.445   5.708   8.170
13856TIP3   OH241503   3.357   5.202   8.368
13856TIP3    H141504   3.400   5.114   8.366
13856TIP3    H241505   3.416   5.246   8.432
13857TIP3   OH241506   4.362   4.529   8.411
13857TIP3    H141507   4.382   4.608   8.464
13857TIP3    H241508   4.383   4.559   8.321
13858TIP3   OH241509   3.761   4.684   8.461
13858TIP3    H141510   3.801   4.597   8.481
13858TIP3    H241511   3.729   4.669   8.370
13859TIP3   OH241512   3.134   4.341   8.380
13859TIP3    H141513   3.094   4.425   8.349
13859TIP3    H241514   3.057   4.283   8.373
13860TIP3   OH241515   3.787   4.449   8.055
13860TIP3    H141516   3.859   4.427   8.119
13860TIP3    H241517   3.841   4.480   7.979
13861TIP3   OH241518   3.173   4.760   8.328
13861TIP3    H141519   3.266   4.732   8.337
13861TIP3    H241520   3.130   4.678   8.295
13862TIP3   OH241521   4.429   4.724   8.598
13862TIP3    H141522   4.344   4.768   8.575
13862TIP3    H241523   4.423   4.727   8.694
13863TIP3   OH241524   3.429   5.187   7.875
13863TIP3    H141525   3.404   5.172   7.783
13863TIP3    H241526   3.398   5.278   7.890
13864TIP3   OH241527   4.007   4.453   8.217
13864TIP3    H141528   3.995   4.392   8.291
13864TIP3    H241529   4.054   4.527   8.258
13865TIP3   OH241530   2.421   4.998   7.985
13865TIP3    H141531   2.385   5.030   7.900
13865TIP3    H241532   2.448   5.084   8.027
13866TIP3   OH241533   3.863   5.515   8.229
13866TIP3    H141534   3.773   5.505   8.266
13866TIP3    H241535   3.855   5.602   8.185
13867TIP3   OH241536   4.138   4.456   8.574
13867TIP3    H141537   4.049   4.476   8.540
13867TIP3    H241538   4.197   4.484   8.503
13868TIP3   OH241539   3.557   5.557   7.901
13868TIP3    H141540   3.610   5.477   7.880
13868TIP3    H241541   3.619   5.625   7.864
13869TIP3   OH241542   3.703   5.344   7.814
13869TIP3    H141543   3.682   5.263   7.765
13869TIP3    H241544   3.742   5.309   7.896
13870TIP3   OH241545   4.091   5.430   8.573
13870TIP3    H141546   4.079   5.350   8.517
13870TIP3    H241547   4.071   5.502   8.509
13871TIP3   OH241548   3.381   4.825   7.829
13871TIP3    H141549   3.300   4.871   7.800
13871TIP3    H241550   3.429   4.816   7.745
13872TIP3   OH241551   3.339   4.605   7.550
13872TIP3    H141552   3.408   4.657   7.595
13872TIP3    H241553   3.395   4.542   7.500
13873TIP3   OH241554   4.284   5.060   8.415
13873TIP3    H141555   4.202   5.114   8.426
13873TIP3    H241556   4.313   5.091   8.327
13874TIP3   OH241557   3.731   4.904   7.804
13874TIP3    H141558   3.674   4.928   7.881
13874TIP3    H241559   3.813   4.879   7.849
13875TIP3   OH241560   3.959   4.967   8.688
13875TIP3    H141561   3.951   5.062   8.709
13875TIP3    H241562   3.876   4.954   8.640
13876TIP3   OH241563   2.974   4.911   8.200
13876TIP3    H141564   2.919   4.846   8.151
13876TIP3    H241565   3.035   4.853   8.249
13877TIP3   OH241566   3.096   4.894   8.558
13877TIP3    H141567   3.117   4.837   8.480
13877TIP3    H241568   3.182   4.899   8.601
13878TIP3   OH241569   3.619   5.506   8.345
13878TIP3    H141570   3.605   5.591   8.390
13878TIP3    H241571   3.604   5.439   8.415
13879TIP3   OH241572   3.568   4.765   7.629
13879TIP3    H141573   3.629   4.825   7.679
13879TIP3    H241574   3.594   4.786   7.536
13880TIP3   OH241575   3.303   5.448   7.936
13880TIP3    H141576   3.385   5.500   7.929
13880TIP3    H241577   3.243   5.499   7.880
13881TIP3   OH241578   4.079   4.008   7.679
13881TIP3    H141579   3.999   4.003   7.736
13881TIP3    H241580   4.075   4.101   7.656
13882TIP3   OH241581   2.827   4.745   8.017
13882TIP3    H141582   2.756   4.786   7.963
13882TIP3    H241583   2.785   4.664   8.048
13883TIP3   OH241584   3.882   5.371   7.227
13883TIP3    H141585   3.890   5.468   7.210
13883TIP3    H241586   3.975   5.342   7.213
13884TIP3   OH241587   4.328   5.774   8.621
13884TIP3    H141588   4.328   5.676   8.633
13884TIP3    H241589   4.241   5.795   8.662
13885TIP3   OH241590   3.199   5.688   7.707
13885TIP3    H141591   3.149   5.670   7.626
13885TIP3    H241592   3.163   5.774   7.736
13886TIP3   OH241593   2.641   5.524   8.077
13886TIP3    H141594   2.676   5.513   8.168
13886TIP3    H241595   2.545   5.525   8.093
13887TIP3   OH241596   3.396   5.591   7.345
13887TIP3    H141597   3.454   5.521   7.309
13887TIP3    H241598   3.430   5.599   7.437
13888TIP3   OH241599   3.448   5.637   7.615
13888TIP3    H141600   3.358   5.650   7.653
13888TIP3    H241601   3.496   5.602   7.692
13889TIP3   OH241602   3.648   4.809   7.375
13889TIP3    H141603   3.610   4.783   7.289
13889TIP3    H241604   3.727   4.859   7.346
13890TIP3   OH241605   3.356   4.187   7.675
13890TIP3    H141606   3.329   4.183   7.769
13890TIP3    H241607   3.323   4.100   7.645
13891TIP3   OH241608   3.027   4.551   8.233
13891TIP3    H141609   2.935   4.527   8.257
13891TIP3    H241610   3.035   4.505   8.146
13892TIP3   OH241611   3.521   4.628   7.964
13892TIP3    H141612   3.466   4.697   7.921
13892TIP3    H241613   3.571   4.592   7.888
13893TIP3   OH241614   3.678   4.655   8.199
13893TIP3    H141615   3.614   4.680   8.129
13893TIP3    H241616   3.709   4.570   8.159
13894TIP3   OH241617   3.000   4.147   7.638
13894TIP3    H141618   3.005   4.160   7.735
13894TIP3    H241619   2.932   4.214   7.614
13895TIP3   OH241620   2.543   4.189   8.029
13895TIP3    H141621   2.578   4.233   7.949
13895TIP3    H241622   2.474   4.255   8.053
13896TIP3   OH241623   3.697   4.924   8.570
13896TIP3    H141624   3.720   4.831   8.546
13896TIP3    H241625   3.668   4.916   8.664
13897TIP3   OH241626   3.381   4.403   8.285
13897TIP3    H141627   3.289   4.383   8.315
13897TIP3    H241628   3.431   4.365   8.359
13898TIP3   OH241629   2.799   4.400   8.286
13898TIP3    H141630   2.714   4.442   8.260
13898TIP3    H241631   2.812   4.336   8.215
13899TIP3   OH241632   3.057   4.415   7.997
13899TIP3    H141633   3.152   4.424   7.976
13899TIP3    H241634   3.013   4.432   7.911
13900TIP3   OH241635   3.847   4.427   8.510
13900TIP3    H141636   3.820   4.426   8.604
13900TIP3    H241637   3.779   4.368   8.471
13901TIP3   OH241638   2.900   4.443   7.772
13901TIP3    H141639   2.828   4.402   7.722
13901TIP3    H241640   2.952   4.483   7.698
13902TIP3   OH241641   4.041   6.114   8.702
13902TIP3    H141642   4.027   6.141   8.610
13902TIP3    H241643   4.065   6.197   8.744
13903TIP3   OH241644   3.443   4.698   8.385
13903TIP3    H141645   3.496   4.640   8.328
13903TIP3    H241646   3.459   4.659   8.472
13904TIP3   OH241647   2.970   4.165   8.207
13904TIP3    H141648   2.946   4.110   8.282
13904TIP3    H241649   3.060   4.136   8.185
13905TIP3   OH241650   3.146   4.981   7.784
13905TIP3    H141651   3.079   4.910   7.768
13905TIP3    H241652   3.139   4.995   7.879
13906TIP3   OH241653   4.055   5.211   8.409
13906TIP3    H141654   4.077   5.261   8.329
13906TIP3    H241655   3.968   5.172   8.387
13907TIP3   OH241656   3.605   4.290   7.634
13907TIP3    H141657   3.511   4.268   7.650
13907TIP3    H241658   3.612   4.383   7.664
13908TIP3   OH241659   3.671   4.535   7.745
13908TIP3    H141660   3.766   4.542   7.768
13908TIP3    H241661   3.655   4.616   7.693
13909TIP3   OH241662   2.848   5.014   8.444
13909TIP3    H141663   2.875   4.980   8.357
13909TIP3    H241664   2.862   4.933   8.497
13910TIP3   OH241665   3.299   5.127   7.606
13910TIP3    H141666   3.251   5.213   7.607
13910TIP3    H241667   3.240   5.073   7.662
13911TIP3   OH241668   3.716   5.535   8.701
13911TIP3    H141669   3.630   5.573   8.680
13911TIP3    H241670   3.752   5.597   8.767
13912TIP3   OH241671   4.334   5.496   8.662
13912TIP3    H141672   4.238   5.479   8.647
13912TIP3    H241673   4.370   5.455   8.581
13913TIP3   OH241674   3.830   5.442   7.493
13913TIP3    H141675   3.794   5.373   7.549
13913TIP3    H241676   3.836   5.400   7.405
13914TIP3   OH241677   3.819   5.080   8.317
13914TIP3    H141678   3.733   5.049   8.349
13914TIP3    H241679   3.854   4.997   8.279
13915TIP3   OH241680   2.507   4.603   7.788
13915TIP3    H141681   2.554   4.688   7.805
13915TIP3    H241682   2.430   4.613   7.849
13916TIP3   OH241683   3.089   5.125   8.079
13916TIP3    H141684   3.014   5.142   8.020
13916TIP3    H241685   3.058   5.043   8.125
13917TIP3   OH241686   3.211   5.638   8.539
13917TIP3    H141687   3.250   5.715   8.493
13917TIP3    H241688   3.282   5.610   8.598
13918TIP3   OH241689   2.874   5.537   7.927
13918TIP3    H141690   2.789   5.536   7.977
13918TIP3    H241691   2.903   5.629   7.942
13919TIP3   OH241692   3.604   5.280   8.512
13919TIP3    H141693   3.625   5.277   8.607
13919TIP3    H241694   3.683   5.236   8.477
13920TIP3   OH241695   3.577   5.171   7.391
13920TIP3    H141696   3.627   5.145   7.472
13920TIP3    H241697   3.487   5.144   7.416
13921TIP3   OH241698   3.847   5.808   8.555
13921TIP3    H141699   3.762   5.764   8.537
13921TIP3    H241700   3.842   5.881   8.489
13922TIP3   OH241701   3.915   5.646   7.211
13922TIP3    H141702   3.945   5.712   7.147
13922TIP3    H241703   3.837   5.693   7.246
13923TIP3   OH241704   3.736   5.109   7.614
13923TIP3    H141705   3.727   5.039   7.681
13923TIP3    H241706   3.832   5.105   7.597
13924TIP3   OH241707   2.947   5.150   7.390
13924TIP3    H141708   2.956   5.058   7.361
13924TIP3    H241709   2.922   5.140   7.483
13925TIP3   OH241710   2.889   5.156   7.660
13925TIP3    H141711   2.966   5.133   7.713
13925TIP3    H241712   2.888   5.255   7.667
13926TIP3   OH241713   2.621   4.852   7.866
13926TIP3    H141714   2.555   4.897   7.923
13926TIP3    H241715   2.633   4.920   7.797
13927TIP3   OH241716   3.649   4.245   7.919
13927TIP3    H141717   3.639   4.270   7.826
13927TIP3    H241718   3.685   4.325   7.962
13928TIP3   OH241719   3.157   5.357   7.619
13928TIP3    H141720   3.068   5.383   7.650
13928TIP3    H241721   3.170   5.425   7.550
13929TIP3   OH241722   3.338   4.424   8.015
13929TIP3    H141723   3.405   4.492   7.995
13929TIP3    H241724   3.349   4.418   8.112
13930TIP3   OH241725   3.477   4.165   8.136
13930TIP3    H141726   3.490   4.252   8.175
13930TIP3    H241727   3.552   4.159   8.074
13931TIP3   OH241728   2.899   5.427   7.679
13931TIP3    H141729   2.867   5.497   7.618
13931TIP3    H241730   2.883   5.470   7.767
13932TIP3   OH241731   3.003   4.146   7.910
13932TIP3    H141732   2.994   4.226   7.965
13932TIP3    H241733   3.100   4.130   7.921
13933TIP3   OH241734   3.903   4.832   8.203
13933TIP3    H141735   3.825   4.774   8.214
13933TIP3    H241736   3.972   4.783   8.252
13934TIP3   OH241737   2.612   5.058   7.674
13934TIP3    H141738   2.669   5.137   7.680
13934TIP3    H241739   2.662   5.008   7.605
13935TIP3   OH241740   2.561   4.333   7.799
13935TIP3    H141741   2.561   4.431   7.802
13935TIP3    H241742   2.473   4.315   7.763
13936TIP3   OH241743   3.879   5.786   8.151
13936TIP3    H141744   3.833   5.834   8.078
13936TIP3    H241745   3.972   5.801   8.125
13937TIP3   OH241746   2.475   5.246   8.067
13937TIP3    H141747   2.414   5.304   8.115
13937TIP3    H241748   2.491   5.301   7.988
13938TIP3   OH241749   3.108   5.356   7.305
13938TIP3    H141750   3.051   5.283   7.341
13938TIP3    H241751   3.181   5.304   7.267
13939TIP3   OH241752   3.543   5.397   7.215
13939TIP3    H141753   3.589   5.332   7.271
13939TIP3    H241754   3.595   5.397   7.133
13940TIP3   OH241755   2.750   4.874   7.523
13940TIP3    H141756   2.805   4.840   7.595
13940TIP3    H241757   2.817   4.878   7.451
13941TIP3   OH241758   3.265   5.072   7.333
13941TIP3    H141759   3.262   5.084   7.430
13941TIP3    H241760   3.263   4.974   7.327
13942TIP3   OH241761   3.864   5.293   8.672
13942TIP3    H141762   3.954   5.328   8.662
13942TIP3    H241763   3.816   5.374   8.697
13943TIP3   OH241764   2.968   4.776   7.754
13943TIP3    H141765   2.930   4.734   7.833
13943TIP3    H241766   2.996   4.699   7.701
13944TIP3   OH241767   3.058   4.570   7.587
13944TIP3    H141768   3.032   4.574   7.493
13944TIP3    H241769   3.155   4.574   7.580
13945TIP3   OH241770   3.880   4.900   7.249
13945TIP3    H141771   3.859   4.855   7.165
13945TIP3    H241772   3.848   4.991   7.226
13946TIP3   OH241773   2.866   5.626   7.489
13946TIP3    H141774   2.961   5.628   7.470
13946TIP3    H241775   2.833   5.680   7.415
13947TIP3   OH241776   2.345   5.011   7.710
13947TIP3    H141777   2.440   5.034   7.696
13947TIP3    H241778   2.340   4.923   7.667
13948TIP3   OH241779   2.246   5.621   8.131
13948TIP3    H141780   2.184   5.557   8.092
13948TIP3    H241781   2.303   5.565   8.186
13949TIP3   OH241782   2.406   5.477   8.298
13949TIP3    H141783   2.378   5.414   8.364
13949TIP3    H241784   2.441   5.550   8.353
13950TIP3   OH241785   4.138   5.882   8.101
13950TIP3    H141786   4.156   5.893   8.196
13950TIP3    H241787   4.136   5.975   8.073
13951TIP3   OH241788   4.151   5.894   8.379
13951TIP3    H141789   4.110   5.805   8.386
13951TIP3    H241790   4.224   5.883   8.441
13952TIP3   OH241791   4.013   5.087   7.586
13952TIP3    H141792   4.081   5.150   7.554
13952TIP3    H241793   4.059   5.048   7.663
13953TIP3   OH241794   4.143   4.955   7.788
13953TIP3    H141795   4.078   4.914   7.849
13953TIP3    H241796   4.210   4.993   7.849
13954TIP3   OH241797   4.198   5.350   8.218
13954TIP3    H141798   4.252   5.284   8.169
13954TIP3    H241799   4.184   5.420   8.152
13955TIP3   OH241800   4.029   5.648   8.412
13955TIP3    H141801   3.959   5.689   8.466
13955TIP3    H241802   3.978   5.600   8.344
13956TIP3   OH241803   4.084   4.870   7.424
13956TIP3    H141804   4.011   4.874   7.359
13956TIP3    H241805   4.054   4.940   7.486
13957TIP3   OH241806   3.979   4.527   7.402
13957TIP3    H141807   3.937   4.588   7.340
13957TIP3    H241808   3.930   4.443   7.384
13958TIP3   OH241809   3.962   4.806   7.938
13958TIP3    H141810   3.951   4.709   7.941
13958TIP3    H241811   3.946   4.829   8.032
13959TIP3   OH241812   4.222   5.227   8.767
13959TIP3    H141813   4.306   5.179   8.777
13959TIP3    H241814   4.251   5.317   8.746
13960TIP3   OH241815   4.419   5.044   8.800
13960TIP3    H141816   4.351   4.999   8.853
13960TIP3    H241817   4.493   4.983   8.807
13961TIP3   OH241818   3.889   4.271   7.394
13961TIP3    H141819   3.949   4.205   7.431
13961TIP3    H241820   3.804   4.221   7.391
13962TIP3   OH241821   3.941   4.526   7.842
13962TIP3    H141822   3.979   4.435   7.853
13962TIP3    H241823   4.005   4.565   7.781
13963TIP3   OH241824   4.115   4.702   8.327
13963TIP3    H141825   4.201   4.729   8.289
13963TIP3    H241826   4.125   4.740   8.417
13964TIP3   OH241827   4.184   4.847   8.562
13964TIP3    H141828   4.108   4.880   8.614
13964TIP3    H241829   4.213   4.928   8.516
13965TIP3   OH241830   4.050   4.278   7.866
13965TIP3    H141831   4.103   4.262   7.946
13965TIP3    H241832   3.989   4.201   7.869
13966TIP3   OH241833   4.198   4.249   7.465
13966TIP3    H141834   4.187   4.152   7.470
13966TIP3    H241835   4.234   4.253   7.376
13967TIP3   OH241836   2.556   4.032   8.247
13967TIP3    H141837   2.476   4.061   8.292
13967TIP3    H241838   2.564   4.099   8.176
13968TIP3   OH241839   3.712   5.737   7.770
13968TIP3    H141840   3.758   5.730   7.684
13968TIP3    H241841   3.754   5.815   7.809
13969TIP3   OH241842   2.984   5.595   8.692
13969TIP3    H141843   2.956   5.675   8.642
13969TIP3    H241844   3.072   5.582   8.652
13970TIP3   OH241845   3.602   5.968   8.665
13970TIP3    H141846   3.693   5.939   8.654
13970TIP3    H241847   3.608   6.015   8.752
13971TIP3   OH241848   2.886   5.822   8.575
13971TIP3    H141849   2.799   5.850   8.609
13971TIP3    H241850   2.880   5.855   8.483
13972TIP3   OH241851   3.333   5.851   8.377
13972TIP3    H141852   3.259   5.869   8.316
13972TIP3    H241853   3.341   5.939   8.420
13973TIP3   OH241854   3.595   5.774   8.422
13973TIP3    H141855   3.501   5.799   8.408
13973TIP3    H241856   3.639   5.857   8.396
13974TIP3   OH241857   3.802   5.975   8.346
13974TIP3    H141858   3.785   6.060   8.300
13974TIP3    H241859   3.827   5.917   8.271
13975TIP3   OH241860   2.583   5.643   8.447
13975TIP3    H141861   2.611   5.613   8.535
13975TIP3    H241862   2.647   5.594   8.391
13976TIP3   OH241863   2.773   5.503   8.318
13976TIP3    H141864   2.786   5.412   8.355
13976TIP3    H241865   2.858   5.543   8.337
13977TIP3   OH241866   3.635   4.269   8.413
13977TIP3    H141867   3.562   4.216   8.450
13977TIP3    H241868   3.684   4.203   8.361
13978TIP3   OH241869   4.135   4.138   8.319
13978TIP3    H141870   4.164   4.192   8.242
13978TIP3    H241871   4.037   4.139   8.307
13979TIP3   OH241872   4.230   4.240   8.080
13979TIP3    H141873   4.303   4.188   8.042
13979TIP3    H241874   4.261   4.332   8.062
13980TIP3   OH241875   2.617   3.847   8.055
13980TIP3    H141876   2.668   3.902   7.993
13980TIP3    H241877   2.608   3.907   8.133
13981TIP3   OH241878   3.303   4.023   8.294
13981TIP3    H141879   3.364   4.051   8.222
13981TIP3    H241880   3.335   4.083   8.364
13982TIP3   OH241881   3.859   4.128   8.274
13982TIP3    H141882   3.833   4.076   8.195
13982TIP3    H241883   3.839   4.061   8.344
13983TIP3   OH241884   3.878   4.067   7.860
13983TIP3    H141885   3.789   4.105   7.864
13983TIP3    H241886   3.861   3.998   7.929
13984TIP3   OH241887   2.363   5.405   7.862
13984TIP3    H141888   2.277   5.379   7.826
13984TIP3    H241889   2.357   5.502   7.850
13985TIP3   OH241890   2.782   3.982   7.850
13985TIP3    H141891   2.832   3.999   7.769
13985TIP3    H241892   2.821   4.050   7.908
13986TIP3   OH241893   3.277   4.164   7.940
13986TIP3    H141894   3.343   4.116   7.992
13986TIP3    H241895   3.300   4.255   7.967
13987TIP3   OH241896   3.137   5.592   7.442
13987TIP3    H141897   3.223   5.617   7.403
13987TIP3    H241898   3.113   5.518   7.381
13988TIP3   OH241899   3.851   5.710   7.532
13988TIP3    H141900   3.844   5.613   7.520
13988TIP3    H241901   3.804   5.742   7.452
13989TIP3   OH241902   2.436   5.426   7.497
13989TIP3    H141903   2.435   5.462   7.587
13989TIP3    H241904   2.527   5.389   7.490
13990TIP3   OH241905   4.078   5.843   8.711
13990TIP3    H141906   3.998   5.826   8.659
13990TIP3    H241907   4.068   5.940   8.727
13991TIP3   OH241908   5.346   5.226   7.488
13991TIP3    H141909   5.317   5.317   7.468
13991TIP3    H241910   5.270   5.176   7.452
13992TIP3   OH241911   5.345   5.228   7.867
13992TIP3    H141912   5.376   5.199   7.955
13992TIP3    H241913   5.305   5.147   7.832
13993TIP3   OH241914   4.645   5.122   8.230
13993TIP3    H141915   4.674   5.055   8.295
13993TIP3    H241916   4.721   5.181   8.230
13994TIP3   OH241917   5.590   5.527   7.550
13994TIP3    H141918   5.574   5.459   7.616
13994TIP3    H241919   5.616   5.603   7.604
13995TIP3   OH241920   4.602   5.539   7.956
13995TIP3    H141921   4.598   5.441   7.961
13995TIP3    H241922   4.698   5.549   7.948
13996TIP3   OH241923   4.311   4.723   7.736
13996TIP3    H141924   4.285   4.816   7.726
13996TIP3    H241925   4.252   4.696   7.807
13997TIP3   OH241926   4.384   5.020   7.910
13997TIP3    H141927   4.436   4.946   7.950
13997TIP3    H241928   4.449   5.060   7.850
13998TIP3   OH241929   5.235   5.990   7.565
13998TIP3    H141930   5.283   5.919   7.516
13998TIP3    H241931   5.230   5.952   7.653
13999TIP3   OH241932   5.144   5.453   7.918
13999TIP3    H141933   5.183   5.377   7.871
13999TIP3    H241934   5.228   5.498   7.942
14000TIP3   OH241935   6.155   4.772   7.915
14000TIP3    H141936   6.184   4.855   7.958
14000TIP3    H241937   6.179   4.789   7.822
14001TIP3   OH241938   5.554   4.954   7.950
14001TIP3    H141939   5.599   4.869   7.969
14001TIP3    H241940   5.525   4.939   7.858
14002TIP3   OH241941   4.892   4.612   7.916
14002TIP3    H141942   4.876   4.686   7.853
14002TIP3    H241943   4.845   4.540   7.869
14003TIP3   OH241944   5.588   4.707   7.537
14003TIP3    H141945   5.660   4.690   7.601
14003TIP3    H241946   5.640   4.740   7.461
14004TIP3   OH241947   4.528   4.816   8.020
14004TIP3    H141948   4.611   4.800   8.071
14004TIP3    H241949   4.546   4.760   7.942
14005TIP3   OH241950   4.970   5.014   7.813
14005TIP3    H141951   5.064   4.989   7.826
14005TIP3    H241952   4.932   4.929   7.781
14006TIP3   OH241953   6.226   4.978   8.087
14006TIP3    H141954   6.143   5.027   8.070
14006TIP3    H241955   6.250   5.012   8.175
14007TIP3   OH241956   4.890   4.600   8.344
14007TIP3    H141957   4.834   4.633   8.271
14007TIP3    H241958   4.838   4.630   8.420
14008TIP3   OH241959   5.236   5.447   7.358
14008TIP3    H141960   5.198   5.430   7.271
14008TIP3    H241961   5.193   5.532   7.382
14009TIP3   OH241962   4.997   5.372   8.144
14009TIP3    H141963   4.935   5.439   8.181
14009TIP3    H241964   5.039   5.423   8.071
14010TIP3   OH241965   5.798   4.707   7.708
14010TIP3    H141966   5.794   4.656   7.790
14010TIP3    H241967   5.853   4.783   7.734
14011TIP3   OH241968   4.760   4.713   8.132
14011TIP3    H141969   4.822   4.787   8.156
14011TIP3    H241970   4.810   4.673   8.057
14012TIP3   OH241971   4.823   5.566   8.241
14012TIP3    H141972   4.800   5.653   8.203
14012TIP3    H241973   4.744   5.551   8.297
14013TIP3   OH241974   4.217   5.250   7.474
14013TIP3    H141975   4.177   5.272   7.387
14013TIP3    H241976   4.243   5.337   7.508
14014TIP3   OH241977   5.662   5.773   7.721
14014TIP3    H141978   5.572   5.763   7.759
14014TIP3    H241979   5.651   5.858   7.672
14015TIP3   OH241980   5.949   4.671   8.080
14015TIP3    H141981   5.862   4.700   8.047
14015TIP3    H241982   6.010   4.704   8.011
14016TIP3   OH241983   5.247   4.316   8.059
14016TIP3    H141984   5.237   4.221   8.080
14016TIP3    H241985   5.170   4.353   8.108
14017TIP3   OH241986   5.361   5.817   7.393
14017TIP3    H141987   5.411   5.734   7.370
14017TIP3    H241988   5.422   5.882   7.351
14018TIP3   OH241989   5.503   5.602   7.298
14018TIP3    H141990   5.472   5.523   7.253
14018TIP3    H241991   5.539   5.566   7.382
14019TIP3   OH241992   5.875   5.687   8.055
14019TIP3    H141993   5.863   5.608   7.998
14019TIP3    H241994   5.856   5.760   7.992
14020TIP3   OH241995   5.177   5.079   7.318
14020TIP3    H141996   5.098   5.132   7.295
14020TIP3    H241997   5.223   5.075   7.232
14021TIP3   OH241998   5.136   4.861   7.038
14021TIP3    H141999   5.204   4.914   7.082
14021TIP3    H242000   5.193   4.798   6.988
14022TIP3   OH242001   6.086   5.330   7.908
14022TIP3    H142002   6.000   5.377   7.916
14022TIP3    H242003   6.107   5.348   7.814
14023TIP3   OH242004   5.524   5.161   7.290
14023TIP3    H142005   5.470   5.185   7.369
14023TIP3    H242006   5.608   5.136   7.334
14024TIP3   OH242007   5.757   5.192   8.198
14024TIP3    H142008   5.764   5.271   8.256
14024TIP3    H242009   5.671   5.210   8.155
14025TIP3   OH242010   4.756   5.159   7.708
14025TIP3    H142011   4.715   5.101   7.640
14025TIP3    H242012   4.834   5.106   7.736
14026TIP3   OH242013   4.881   5.568   7.859
14026TIP3    H142014   4.863   5.530   7.771
14026TIP3    H242015   4.972   5.537   7.876
14027TIP3   OH242016   4.894   5.131   8.059
14027TIP3    H142017   4.928   5.110   7.970
14027TIP3    H242018   4.938   5.216   8.080
14028TIP3   OH242019   5.419   5.769   7.839
14028TIP3    H142020   5.405   5.847   7.895
14028TIP3    H242021   5.404   5.695   7.901
14029TIP3   OH242022   5.030   5.686   8.384
14029TIP3    H142023   4.968   5.749   8.428
14029TIP3    H242024   4.966   5.633   8.333
14030TIP3   OH242025   5.364   5.020   7.116
14030TIP3    H142026   5.424   5.079   7.166
14030TIP3    H242027   5.390   5.042   7.023
14031TIP3   OH242028   4.785   5.243   8.478
14031TIP3    H142029   4.784   5.328   8.525
14031TIP3    H242030   4.691   5.218   8.488
14032TIP3   OH242031   5.106   5.701   7.394
14032TIP3    H142032   5.187   5.753   7.409
14032TIP3    H242033   5.048   5.765   7.350
14033TIP3   OH242034   4.822   5.840   8.468
14033TIP3    H142035   4.785   5.852   8.379
14033TIP3    H242036   4.742   5.834   8.524
14034TIP3   OH242037   5.882   4.261   7.165
14034TIP3    H142038   5.799   4.281   7.214
14034TIP3    H242039   5.895   4.343   7.114
14035TIP3   OH242040   4.621   5.001   7.516
14035TIP3    H142041   4.559   5.049   7.456
14035TIP3    H242042   4.580   4.914   7.518
14036TIP3   OH242043   5.679   5.628   6.713
14036TIP3    H142044   5.688   5.724   6.697
14036TIP3    H242045   5.772   5.598   6.700
14037TIP3   OH242046   4.404   5.388   8.419
14037TIP3    H142047   4.334   5.365   8.354
14037TIP3    H242048   4.441   5.300   8.443
14038TIP3   OH242049   4.275   5.586   8.044
14038TIP3    H142050   4.365   5.568   8.076
14038TIP3    H242051   4.250   5.661   8.100
14039TIP3   OH242052   5.226   5.813   8.240
14039TIP3    H142053   5.225   5.905   8.273
14039TIP3    H242054   5.155   5.772   8.295
14040TIP3   OH242055   4.986   5.942   7.196
14040TIP3    H142056   4.945   5.927   7.108
14040TIP3    H242057   4.958   6.034   7.216
14041TIP3   OH242058   5.191   5.846   6.833
14041TIP3    H142059   5.249   5.776   6.797
14041TIP3    H242060   5.225   5.855   6.925
14042TIP3   OH242061   5.239   5.895   7.104
14042TIP3    H142062   5.151   5.902   7.147
14042TIP3    H242063   5.292   5.857   7.176
14043TIP3   OH242064   6.035   5.167   8.353
14043TIP3    H142065   5.942   5.192   8.340
14043TIP3    H242066   6.032   5.070   8.349
14044TIP3   OH242067   4.605   5.571   8.406
14044TIP3    H142068   4.652   5.551   8.489
14044TIP3    H242069   4.530   5.506   8.412
14045TIP3   OH242070   5.008   4.390   8.191
14045TIP3    H142071   4.918   4.365   8.163
14045TIP3    H242072   4.987   4.475   8.235
14046TIP3   OH242073   5.541   4.509   8.386
14046TIP3    H142074   5.605   4.479   8.454
14046TIP3    H242075   5.455   4.490   8.429
14047TIP3   OH242076   5.778   4.935   8.304
14047TIP3    H142077   5.727   4.938   8.388
14047TIP3    H242078   5.760   5.023   8.265
14048TIP3   OH242079   5.442   5.068   6.861
14048TIP3    H142080   5.407   5.041   6.774
14048TIP3    H242081   5.523   5.114   6.835
14049TIP3   OH242082   5.152   4.441   7.163
14049TIP3    H142083   5.118   4.437   7.254
14049TIP3    H242084   5.115   4.358   7.127
14050TIP3   OH242085   4.938   4.908   8.208
14050TIP3    H142086   4.890   4.931   8.290
14050TIP3    H242087   4.924   4.989   8.154
14051TIP3   OH242088   4.826   4.793   7.724
14051TIP3    H142089   4.732   4.771   7.739
14051TIP3    H242090   4.840   4.754   7.635
14052TIP3   OH242091   5.314   4.879   7.451
14052TIP3    H142092   5.262   4.950   7.408
14052TIP3    H242093   5.370   4.848   7.376
14053TIP3   OH242094   5.476   5.158   8.533
14053TIP3    H142095   5.466   5.088   8.600
14053TIP3    H242096   5.563   5.194   8.552
14054TIP3   OH242097   5.470   4.909   7.691
14054TIP3    H142098   5.411   4.939   7.618
14054TIP3    H242099   5.505   4.827   7.648
14055TIP3   OH242100   4.759   4.941   8.417
14055TIP3    H142101   4.788   5.006   8.483
14055TIP3    H242102   4.747   4.860   8.471
14056TIP3   OH242103   4.810   4.415   7.128
14056TIP3    H142104   4.800   4.412   7.225
14056TIP3    H242105   4.730   4.465   7.102
14057TIP3   OH242106   4.364   4.462   7.985
14057TIP3    H142107   4.418   4.500   8.057
14057TIP3    H242108   4.432   4.425   7.928
14058TIP3   OH242109   5.475   5.154   8.111
14058TIP3    H142110   5.512   5.083   8.055
14058TIP3    H242111   5.449   5.101   8.190
14059TIP3   OH242112   5.151   4.617   7.786
14059TIP3    H142113   5.070   4.614   7.841
14059TIP3    H242114   5.221   4.616   7.853
14060TIP3   OH242115   4.583   4.673   7.791
14060TIP3    H142116   4.491   4.673   7.758
14060TIP3    H242117   4.615   4.584   7.768
14061TIP3   OH242118   4.854   4.668   7.481
14061TIP3    H142119   4.949   4.682   7.462
14061TIP3    H242120   4.810   4.692   7.396
14062TIP3   OH242121   5.644   4.692   7.989
14062TIP3    H142122   5.606   4.704   8.078
14062TIP3    H242123   5.580   4.631   7.949
14063TIP3   OH242124   4.694   4.700   7.257
14063TIP3    H142125   4.631   4.654   7.198
14063TIP3    H242126   4.752   4.742   7.189
14064TIP3   OH242127   4.752   5.486   8.631
14064TIP3    H142128   4.837   5.518   8.664
14064TIP3    H242129   4.707   5.458   8.712
14065TIP3   OH242130   5.234   4.943   7.880
14065TIP3    H142131   5.308   4.907   7.828
14065TIP3    H242132   5.248   4.901   7.967
14066TIP3   OH242133   4.753   4.435   7.757
14066TIP3    H142134   4.728   4.352   7.800
14066TIP3    H242135   4.809   4.404   7.684
14067TIP3   OH242136   5.210   4.837   8.179
14067TIP3    H142137   5.122   4.878   8.187
14067TIP3    H242138   5.269   4.901   8.223
14068TIP3   OH242139   4.946   5.233   7.266
14068TIP3    H142140   4.874   5.167   7.256
14068TIP3    H242141   4.929   5.265   7.358
14069TIP3   OH242142   5.847   5.464   7.897
14069TIP3    H142143   5.871   5.514   7.816
14069TIP3    H242144   5.762   5.422   7.871
14070TIP3   OH242145   5.406   4.542   7.134
14070TIP3    H142146   5.309   4.526   7.138
14070TIP3    H242147   5.415   4.637   7.152
14071TIP3   OH242148   5.347   5.553   8.265
14071TIP3    H142149   5.346   5.525   8.358
14071TIP3    H242150   5.303   5.640   8.270
14072TIP3   OH242151   5.475   4.792   7.234
14072TIP3    H142152   5.572   4.798   7.247
14072TIP3    H242153   5.457   4.871   7.179
14073TIP3   OH242154   4.636   5.251   7.944
14073TIP3    H142155   4.678   5.225   7.859
14073TIP3    H242156   4.682   5.193   8.007
14074TIP3   OH242157   5.094   5.381   7.090
14074TIP3    H142158   5.046   5.467   7.094
14074TIP3    H242159   5.039   5.326   7.149
14075TIP3   OH242160   4.522   5.174   8.544
14075TIP3    H142161   4.552   5.170   8.637
14075TIP3    H242162   4.445   5.114   8.545
14076TIP3   OH242163   5.233   5.287   8.564
14076TIP3    H142164   5.182   5.221   8.516
14076TIP3    H242165   5.324   5.253   8.555
14077TIP3   OH242166   5.504   5.811   8.148
14077TIP3    H142167   5.409   5.803   8.163
14077TIP3    H242168   5.533   5.850   8.234
14078TIP3   OH242169   5.918   4.882   7.069
14078TIP3    H142170   5.856   4.837   7.007
14078TIP3    H242171   5.915   4.971   7.028
14079TIP3   OH242172   6.133   5.704   8.135
14079TIP3    H142173   6.037   5.711   8.112
14079TIP3    H242174   6.171   5.691   8.045
14080TIP3   OH242175   5.619   5.700   6.978
14080TIP3    H142176   5.591   5.628   7.036
14080TIP3    H242177   5.631   5.656   6.892
14081TIP3   OH242178   5.613   5.330   7.816
14081TIP3    H142179   5.520   5.305   7.829
14081TIP3    H242180   5.647   5.250   7.771
14082TIP3   OH242181   4.742   5.556   7.573
14082TIP3    H142182   4.747   5.638   7.520
14082TIP3    H242183   4.650   5.531   7.561
14083TIP3   OH242184   4.313   4.856   7.276
14083TIP3    H142185   4.353   4.944   7.290
14083TIP3    H242186   4.230   4.864   7.329
14084TIP3   OH242187   4.879   5.321   7.513
14084TIP3    H142188   4.849   5.412   7.532
14084TIP3    H242189   4.843   5.272   7.589
14085TIP3   OH242190   5.009   5.902   8.038
14085TIP3    H142191   5.049   5.973   7.984
14085TIP3    H242192   5.087   5.866   8.083
14086TIP3   OH242193   4.666   5.796   7.425
14086TIP3    H142194   4.575   5.822   7.438
14086TIP3    H242195   4.710   5.884   7.432
14087TIP3   OH242196   5.399   5.535   7.997
14087TIP3    H142197   5.390   5.533   8.095
14087TIP3    H242198   5.478   5.482   7.983
14088TIP3   OH242199   5.373   5.428   6.879
14088TIP3    H142200   5.425   5.402   6.958
14088TIP3    H242201   5.284   5.401   6.906
14089TIP3   OH242202   5.636   6.078   8.055
14089TIP3    H142203   5.563   6.016   8.037
14089TIP3    H242204   5.630   6.139   7.979
14090TIP3   OH242205   5.713   5.903   6.699
14090TIP3    H142206   5.750   5.974   6.644
14090TIP3    H242207   5.633   5.949   6.732
14091TIP3   OH242208   4.722   4.688   8.548
14091TIP3    H142209   4.625   4.693   8.557
14091TIP3    H242210   4.740   4.601   8.586
14092TIP3   OH242211   5.532   5.365   7.098
14092TIP3    H142212   5.523   5.296   7.167
14092TIP3    H242213   5.629   5.360   7.083
14093TIP3   OH242214   4.460   5.746   8.189
14093TIP3    H142215   4.512   5.688   8.248
14093TIP3    H242216   4.464   5.830   8.235
14094TIP3   OH242217   4.739   5.409   6.879
14094TIP3    H142218   4.753   5.319   6.847
14094TIP3    H242219   4.718   5.394   6.973
14095TIP3   OH242220   4.684   5.413   7.154
14095TIP3    H142221   4.762   5.388   7.205
14095TIP3    H242222   4.688   5.511   7.157
14096TIP3   OH242223   4.422   5.107   7.352
14096TIP3    H142224   4.354   5.150   7.407
14096TIP3    H242225   4.436   5.176   7.284
14097TIP3   OH242226   5.565   4.747   8.247
14097TIP3    H142227   5.649   4.783   8.279
14097TIP3    H242228   5.555   4.665   8.300
14098TIP3   OH242229   5.445   4.496   7.412
14098TIP3    H142230   5.433   4.517   7.317
14098TIP3    H242231   5.486   4.579   7.445
14099TIP3   OH242232   4.950   5.610   7.100
14099TIP3    H142233   4.863   5.639   7.133
14099TIP3    H242234   4.968   5.678   7.034
14100TIP3   OH242235   5.136   4.676   7.513
14100TIP3    H142236   5.202   4.746   7.493
14100TIP3    H242237   5.144   4.668   7.611
14101TIP3   OH242238   5.404   4.992   8.318
14101TIP3    H142239   5.425   5.048   8.396
14101TIP3    H242240   5.463   4.915   8.330
14102TIP3   OH242241   5.281   4.401   7.615
14102TIP3    H142242   5.277   4.478   7.674
14102TIP3    H242243   5.342   4.437   7.545
14103TIP3   OH242244   4.693   5.686   7.165
14103TIP3    H142245   4.664   5.753   7.099
14103TIP3    H242246   4.684   5.735   7.249
14104TIP3   OH242247   4.791   4.400   7.407
14104TIP3    H142248   4.795   4.493   7.439
14104TIP3    H242249   4.886   4.378   7.412
14105TIP3   OH242250   6.045   4.889   8.306
14105TIP3    H142251   5.947   4.889   8.304
14105TIP3    H242252   6.064   4.852   8.218
14106TIP3   OH242253   5.699   5.088   7.690
14106TIP3    H142254   5.623   5.028   7.701
14106TIP3    H242255   5.770   5.040   7.737
14107TIP3   OH242256   4.411   5.316   7.160
14107TIP3    H142257   4.479   5.386   7.166
14107TIP3    H242258   4.455   5.260   7.091
14108TIP3   OH242259   4.306   4.577   7.323
14108TIP3    H142260   4.337   4.670   7.319
14108TIP3    H242261   4.286   4.560   7.229
14109TIP3   OH242262   5.662   6.038   7.637
14109TIP3    H142263   5.618   6.085   7.562
14109TIP3    H242264   5.755   6.058   7.615
14110TIP3   OH242265   4.740   4.318   8.162
14110TIP3    H142266   4.710   4.283   8.076
14110TIP3    H242267   4.734   4.239   8.220
14111TIP3   OH242268   4.299   5.569   7.567
14111TIP3    H142269   4.209   5.572   7.602
14111TIP3    H242270   4.282   5.601   7.477
14112TIP3   OH242271   4.443   6.060   8.596
14112TIP3    H142272   4.521   6.036   8.648
14112TIP3    H242273   4.394   5.976   8.598
14113TIP3   OH242274   4.904   5.613   6.792
14113TIP3    H142275   4.848   5.540   6.829
14113TIP3    H242276   4.978   5.562   6.755
14114TIP3   OH242277   5.552   5.910   8.401
14114TIP3    H142278   5.546   5.855   8.479
14114TIP3    H242279   5.617   5.977   8.426
14115TIP3   OH242280   5.339   5.654   6.702
14115TIP3    H142281   5.385   5.590   6.759
14115TIP3    H242282   5.393   5.653   6.621
14116TIP3   OH242283   4.545   5.130   7.013
14116TIP3    H142284   4.603   5.097   7.084
14116TIP3    H242285   4.610   5.135   6.939
14117TIP3   OH242286   5.213   5.561   8.570
14117TIP3    H142287   5.140   5.583   8.510
14117TIP3    H242288   5.211   5.464   8.576
14118TIP3   OH242289   5.056   5.328   6.820
14118TIP3    H142290   5.059   5.340   6.917
14118TIP3    H242291   5.057   5.230   6.814
14119TIP3   OH242292   5.666   5.572   8.200
14119TIP3    H142293   5.740   5.616   8.155
14119TIP3    H242294   5.594   5.635   8.182
14120TIP3   OH242295   4.701   5.184   8.770
14120TIP3    H142296   4.793   5.154   8.762
14120TIP3    H242297   4.684   5.172   8.865
14121TIP3   OH242298   4.756   5.032   7.234
14121TIP3    H142299   4.730   4.987   7.316
14121TIP3    H242300   4.793   4.959   7.181
14122TIP3   OH242301   5.023   5.093   8.458
14122TIP3    H142302   4.948   5.155   8.460
14122TIP3    H242303   5.074   5.126   8.381
14123TIP3   OH242304   4.855   4.826   7.076
14123TIP3    H142305   4.829   4.830   6.982
14123TIP3    H242306   4.953   4.830   7.068
14124TIP3   OH242307   5.678   5.157   6.738
14124TIP3    H142308   5.657   5.111   6.654
14124TIP3    H242309   5.645   5.247   6.714
14125TIP3   OH242310   5.150   4.886   8.590
14125TIP3    H142311   5.151   4.806   8.534
14125TIP3    H242312   5.105   4.951   8.532
14126TIP3   OH242313   5.148   4.671   8.397
14126TIP3    H142314   5.178   4.715   8.315
14126TIP3    H242315   5.055   4.649   8.375
14127TIP3   OH242316   5.175   5.203   8.265
14127TIP3    H142317   5.260   5.215   8.221
14127TIP3    H242318   5.119   5.272   8.223
14128TIP3   OH242319   5.795   5.398   8.367
14128TIP3    H142320   5.738   5.465   8.322
14128TIP3    H242321   5.884   5.434   8.344
14129TIP3   OH242322   4.978   5.007   8.794
14129TIP3    H142323   4.933   4.921   8.790
14129TIP3    H242324   5.050   4.994   8.730
14130TIP3   OH242325   5.284   4.436   8.461
14130TIP3    H142326   5.232   4.517   8.441
14130TIP3    H242327   5.215   4.367   8.451
14131TIP3   OH242328   5.410   4.937   8.681
14131TIP3    H142329   5.396   4.929   8.776
14131TIP3    H242330   5.320   4.912   8.648
14132TIP3   OH242331   5.642   4.890   8.537
14132TIP3    H142332   5.556   4.895   8.585
14132TIP3    H242333   5.699   4.853   8.605
14133TIP3   OH242334   4.864   4.751   8.847
14133TIP3    H142335   4.937   4.703   8.807
14133TIP3    H242336   4.893   4.753   8.940
14134TIP3   OH242337   5.392   4.436   8.715
14134TIP3    H142338   5.455   4.364   8.703
14134TIP3    H242339   5.343   4.438   8.631
14135TIP3   OH242340   4.662   5.887   6.980
14135TIP3    H142341   4.758   5.885   6.960
14135TIP3    H242342   4.631   5.937   6.903
14136TIP3   OH242343   4.144   5.268   7.201
14136TIP3    H142344   4.237   5.291   7.182
14136TIP3    H242345   4.136   5.181   7.156
14137TIP3   OH242346   4.057   5.869   7.614
14137TIP3    H142347   3.987   5.823   7.562
14137TIP3    H242348   4.065   5.808   7.688
14138TIP3   OH242349   5.914   6.122   7.591
14138TIP3    H142350   5.947   6.156   7.676
14138TIP3    H242351   5.968   6.171   7.527
14139TIP3   OH242352   5.986   6.132   7.866
14139TIP3    H142353   5.927   6.053   7.868
14139TIP3    H242354   5.965   6.174   7.951
14140TIP3   OH242355   5.811   5.345   7.071
14140TIP3    H142356   5.878   5.408   7.040
14140TIP3    H242357   5.856   5.306   7.149
14141TIP3   OH242358   5.940   5.213   7.275
14141TIP3    H142359   5.873   5.169   7.332
14141TIP3    H242360   6.001   5.252   7.341
14142TIP3   OH242361   5.993   5.602   7.709
14142TIP3    H142362   6.043   5.537   7.656
14142TIP3    H242363   5.993   5.680   7.650
14143TIP3   OH242364   5.822   5.914   7.901
14143TIP3    H142365   5.751   5.948   7.958
14143TIP3    H242366   5.773   5.866   7.831
14144TIP3   OH242367   5.878   5.120   6.921
14144TIP3    H142368   5.807   5.121   6.853
14144TIP3    H242369   5.849   5.196   6.975
14145TIP3   OH242370   5.748   4.794   6.877
14145TIP3    H142371   5.708   4.831   6.798
14145TIP3    H242372   5.724   4.699   6.867
14146TIP3   OH242373   5.755   5.069   7.420
14146TIP3    H142374   5.762   4.972   7.413
14146TIP3    H242375   5.740   5.081   7.517
14147TIP3   OH242376   4.380   5.142   8.165
14147TIP3    H142377   4.380   5.112   8.072
14147TIP3    H242378   4.477   5.143   8.184
14148TIP3   OH242379   6.034   5.480   8.265
14148TIP3    H142380   6.116   5.436   8.292
14148TIP3    H242381   6.068   5.556   8.214
14149TIP3   OH242382   6.255   5.315   8.320
14149TIP3    H142383   6.169   5.268   8.338
14149TIP3    H242384   6.312   5.235   8.318
14150TIP3   OH242385   5.691   4.528   6.864
14150TIP3    H142386   5.766   4.495   6.917
14150TIP3    H242387   5.619   4.467   6.884
14151TIP3   OH242388   5.751   4.785   7.316
14151TIP3    H142389   5.791   4.696   7.332
14151TIP3    H242390   5.809   4.817   7.245
14152TIP3   OH242391   5.912   4.959   7.810
14152TIP3    H142392   5.998   4.984   7.770
14152TIP3    H242393   5.925   4.996   7.899
14153TIP3   OH242394   5.980   5.104   8.041
14153TIP3    H142395   5.903   5.135   8.093
14153TIP3    H242396   6.011   5.187   8.000
14154TIP3   OH242397   5.858   4.535   7.354
14154TIP3    H142398   5.907   4.518   7.437
14154TIP3    H242399   5.798   4.457   7.352
14155TIP3   OH242400   4.555   4.524   8.168
14155TIP3    H142401   4.617   4.450   8.180
14155TIP3    H242402   4.618   4.599   8.164
14156TIP3   OH242403   4.365   4.791   8.247
14156TIP3    H142404   4.415   4.795   8.163
14156TIP3    H242405   4.382   4.878   8.285
14157TIP3   OH242406   6.293   4.839   8.413
14157TIP3    H142407   6.199   4.861   8.400
14157TIP3    H242408   6.299   4.755   8.365
14158TIP3   OH242409   5.941   4.468   6.987
14158TIP3    H142410   5.979   4.397   6.932
14158TIP3    H242411   6.008   4.539   6.978
14159TIP3   OH242412   5.504   5.998   7.252
14159TIP3    H142413   5.556   5.988   7.170
14159TIP3    H242414   5.552   6.069   7.298
14160TIP3   OH242415   4.576   4.404   8.529
14160TIP3    H142416   4.531   4.354   8.599
14160TIP3    H242417   4.500   4.442   8.480
14161TIP3   OH242418   4.604   5.810   8.646
14161TIP3    H142419   4.515   5.784   8.614
14161TIP3    H242420   4.606   5.767   8.732
14162TIP3   OH242421   4.781   5.836   8.182
14162TIP3    H142422   4.736   5.915   8.146
14162TIP3    H242423   4.869   5.850   8.140
14163TIP3   OH242424   5.238   6.080   8.329
14163TIP3    H142425   5.287   6.071   8.411
14163TIP3    H242426   5.303   6.131   8.275
14164TIP3   OH242427   5.433   6.229   8.201
14164TIP3    H142428   5.484   6.173   8.139
14164TIP3    H242429   5.469   6.317   8.181
14165TIP3   OH242430   6.202   4.595   8.278
14165TIP3    H142431   6.112   4.590   8.242
14165TIP3    H242432   6.233   4.502   8.266
14166TIP3   OH242433   4.457   6.092   8.209
14166TIP3    H142434   4.367   6.127   8.189
14166TIP3    H242435   4.474   6.135   8.294
14167TIP3   OH242436   4.693   6.068   8.066
14167TIP3    H142437   4.607   6.086   8.111
14167TIP3    H242438   4.680   6.112   7.980
14168TIP3   OH242439   5.121   6.102   7.865
14168TIP3    H142440   5.054   6.121   7.796
14168TIP3    H242441   5.133   6.191   7.904
14169TIP3   OH242442   5.389   6.045   7.922
14169TIP3    H142443   5.296   6.061   7.896
14169TIP3    H242444   5.435   6.113   7.871
14170TIP3   OH242445   5.594   6.225   7.830
14170TIP3    H142446   5.579   6.311   7.785
14170TIP3    H242447   5.618   6.168   7.754
14171TIP3   OH242448   4.820   5.861   7.812
14171TIP3    H142449   4.847   5.769   7.796
14171TIP3    H242450   4.866   5.880   7.895
14172TIP3   OH242451   5.407   4.511   7.900
14172TIP3    H142452   5.364   4.440   7.951
14172TIP3    H242453   5.480   4.465   7.856
14173TIP3   OH242454   5.930   4.394   7.809
14173TIP3    H142455   5.967   4.443   7.733
14173TIP3    H242456   5.834   4.409   7.799
14174TIP3   OH242457   6.025   4.491   7.572
14174TIP3    H142458   6.097   4.440   7.531
14174TIP3    H242459   6.058   4.583   7.556
14175TIP3   OH242460   4.649   4.221   7.918
14175TIP3    H142461   4.561   4.178   7.926
14175TIP3    H242462   4.705   4.140   7.912
14176TIP3   OH242463   4.457   4.083   7.567
14176TIP3    H142464   4.490   4.132   7.489
14176TIP3    H242465   4.392   4.144   7.603
14177TIP3   OH242466   5.096   4.255   7.802
14177TIP3    H142467   5.152   4.299   7.736
14177TIP3    H242468   5.131   4.292   7.884
14178TIP3   OH242469   5.644   4.399   7.782
14178TIP3    H142470   5.646   4.361   7.693
14178TIP3    H242471   5.632   4.318   7.837
14179TIP3   OH242472   5.676   4.321   7.345
14179TIP3    H142473   5.588   4.361   7.352
14179TIP3    H242474   5.661   4.236   7.391
14180TIP3   OH242475   4.159   5.663   7.349
14180TIP3    H142476   4.077   5.623   7.315
14180TIP3    H242477   4.144   5.754   7.318
14181TIP3   OH242478   4.556   4.246   7.336
14181TIP3    H142479   4.601   4.182   7.277
14181TIP3    H242480   4.632   4.300   7.367
14182TIP3   OH242481   5.069   4.424   7.429
14182TIP3    H142482   5.132   4.376   7.485
14182TIP3    H242483   5.093   4.516   7.453
14183TIP3   OH242484   4.931   5.850   6.928
14183TIP3    H142485   5.019   5.873   6.891
14183TIP3    H242486   4.909   5.775   6.868
14184TIP3   OH242487   5.650   5.967   7.020
14184TIP3    H142488   5.641   5.870   7.008
14184TIP3    H242489   5.604   6.000   6.939
14185TIP3   OH242490   4.235   5.683   6.982
14185TIP3    H142491   4.237   5.716   7.073
14185TIP3    H242492   4.324   5.642   6.971
14186TIP3   OH242493   7.132   5.480   6.980
14186TIP3    H142494   7.106   5.571   6.955
14186TIP3    H242495   7.062   5.430   6.934
14187TIP3   OH242496   7.105   5.490   7.381
14187TIP3    H142497   7.171   5.433   7.424
14187TIP3    H242498   7.094   5.443   7.297
14188TIP3   OH242499   6.443   5.364   7.706
14188TIP3    H142500   6.469   5.301   7.776
14188TIP3    H242501   6.530   5.400   7.682
14189TIP3   OH242502   6.423   5.791   7.454
14189TIP3    H142503   6.407   5.694   7.456
14189TIP3    H242504   6.514   5.791   7.421
14190TIP3   OH242505   6.118   4.994   7.232
14190TIP3    H142506   6.067   5.075   7.244
14190TIP3    H242507   6.051   4.936   7.192
14191TIP3   OH242508   6.182   5.281   7.402
14191TIP3    H142509   6.229   5.202   7.437
14191TIP3    H242510   6.230   5.297   7.320
14192TIP3   OH242511   6.917   5.697   7.366
14192TIP3    H142512   6.948   5.607   7.344
14192TIP3    H242513   7.001   5.744   7.358
14193TIP3   OH242514   7.327   5.197   7.425
14193TIP3    H142515   7.369   5.108   7.429
14193TIP3    H242516   7.300   5.197   7.331
14194TIP3   OH242517   6.689   4.871   7.401
14194TIP3    H142518   6.670   4.943   7.338
14194TIP3    H242519   6.643   4.797   7.356
14195TIP3   OH242520   7.385   4.962   7.023
14195TIP3    H142521   7.456   4.941   7.088
14195TIP3    H242522   7.438   4.999   6.950
14196TIP3   OH242523   6.324   5.072   7.507
14196TIP3    H142524   6.406   5.051   7.555
14196TIP3    H242525   6.335   5.016   7.428
14197TIP3   OH242526   6.762   5.270   7.310
14197TIP3    H142527   6.856   5.244   7.319
14197TIP3    H242528   6.723   5.187   7.273
14198TIP3   OH242529   6.684   4.852   7.834
14198TIP3    H142530   6.623   4.888   7.767
14198TIP3    H242531   6.634   4.871   7.916
14199TIP3   OH242532   7.023   5.700   6.852
14199TIP3    H142533   7.001   5.682   6.760
14199TIP3    H242534   6.982   5.788   6.864
14200TIP3   OH242535   6.783   5.647   7.652
14200TIP3    H142536   6.693   5.680   7.637
14200TIP3    H242537   6.835   5.694   7.585
14201TIP3   OH242538   7.594   4.948   7.197
14201TIP3    H142539   7.561   4.910   7.280
14201TIP3    H242540   7.648   5.021   7.229
14202TIP3   OH242541   6.555   4.968   7.618
14202TIP3    H142542   6.620   5.038   7.642
14202TIP3    H242543   6.604   4.926   7.543
14203TIP3   OH242544   6.015   5.512   6.964
14203TIP3    H142545   5.975   5.537   6.878
14203TIP3    H242546   6.044   5.599   6.998
14204TIP3   OH242547   7.038   4.573   7.543
14204TIP3    H142548   7.029   4.478   7.563
14204TIP3    H242549   6.961   4.610   7.593
14205TIP3   OH242550   7.278   5.876   6.776
14205TIP3    H142551   7.268   5.795   6.724
14205TIP3    H242552   7.348   5.853   6.838
14206TIP3   OH242553   6.973   5.338   6.803
14206TIP3    H142554   6.893   5.389   6.780
14206TIP3    H242555   7.020   5.333   6.717
14207TIP3   OH242556   6.933   5.118   6.523
14207TIP3    H142557   7.000   5.171   6.569
14207TIP3    H242558   6.990   5.055   6.475
14208TIP3   OH242559   7.318   5.416   6.782
14208TIP3    H142560   7.266   5.440   6.861
14208TIP3    H242561   7.404   5.392   6.823
14209TIP3   OH242562   6.551   5.417   7.195
14209TIP3    H142563   6.508   5.359   7.128
14209TIP3    H242564   6.627   5.361   7.222
14210TIP3   OH242565   6.675   5.819   7.336
14210TIP3    H142566   6.643   5.797   7.246
14210TIP3    H242567   6.758   5.766   7.341
14211TIP3   OH242568   6.698   5.390   7.555
14211TIP3    H142569   6.721   5.359   7.465
14211TIP3    H242570   6.755   5.468   7.565
14212TIP3   OH242571   7.160   5.276   6.603
14212TIP3    H142572   7.219   5.335   6.654
14212TIP3    H242573   7.187   5.298   6.510
14213TIP3   OH242574   6.517   5.537   7.932
14213TIP3    H142575   6.452   5.568   7.869
14213TIP3    H242576   6.464   5.471   7.982
14214TIP3   OH242577   6.896   5.955   6.876
14214TIP3    H142578   6.964   6.009   6.922
14214TIP3    H242579   6.844   6.021   6.828
14215TIP3   OH242580   7.677   4.517   6.651
14215TIP3    H142581   7.596   4.538   6.700
14215TIP3    H242582   7.691   4.599   6.599
14216TIP3   OH242583   6.415   5.261   7.005
14216TIP3    H142584   6.352   5.305   6.944
14216TIP3    H242585   6.380   5.171   7.008
14217TIP3   OH242586   7.477   5.887   6.199
14217TIP3    H142587   7.487   5.985   6.194
14217TIP3    H242588   7.568   5.859   6.176
14218TIP3   OH242589   6.215   5.630   7.885
14218TIP3    H142590   6.142   5.617   7.821
14218TIP3    H242591   6.229   5.540   7.919
14219TIP3   OH242592   6.058   5.833   7.560
14219TIP3    H142593   6.143   5.845   7.516
14219TIP3    H242594   6.025   5.924   7.571
14220TIP3   OH242595   6.775   6.198   6.686
14220TIP3    H142596   6.736   6.181   6.598
14220TIP3    H242597   6.751   6.291   6.703
14221TIP3   OH242598   6.219   6.051   7.059
14221TIP3    H142599   6.263   6.039   7.145
14221TIP3    H242600   6.159   5.974   7.060
14222TIP3   OH242601   6.983   6.094   6.313
14222TIP3    H142602   7.043   6.026   6.274
14222TIP3    H242603   7.018   6.101   6.404
14223TIP3   OH242604   7.017   6.133   6.584
14223TIP3    H142605   6.934   6.153   6.632
14223TIP3    H242606   7.059   6.070   6.644
14224TIP3   OH242607   6.804   4.648   7.678
14224TIP3    H142608   6.715   4.618   7.651
14224TIP3    H242609   6.779   4.730   7.725
14225TIP3   OH242610   7.332   4.750   7.856
14225TIP3    H142611   7.394   4.774   7.925
14225TIP3    H242612   7.246   4.747   7.902
14226TIP3   OH242613   7.237   5.320   6.348
14226TIP3    H142614   7.204   5.297   6.259
14226TIP3    H242615   7.316   5.372   6.323
14227TIP3   OH242616   6.950   4.698   6.649
14227TIP3    H142617   6.916   4.694   6.741
14227TIP3    H242618   6.911   4.615   6.614
14228TIP3   OH242619   6.735   5.159   7.692
14228TIP3    H142620   6.694   5.182   7.778
14228TIP3    H242621   6.722   5.242   7.641
14229TIP3   OH242622   6.619   5.052   7.211
14229TIP3    H142623   6.527   5.024   7.227
14229TIP3    H242624   6.634   5.012   7.122
14230TIP3   OH242625   7.109   5.136   6.933
14230TIP3    H142626   7.057   5.208   6.891
14230TIP3    H242627   7.165   5.105   6.859
14231TIP3   OH242628   7.258   5.164   7.166
14231TIP3    H142629   7.199   5.190   7.092
14231TIP3    H242630   7.295   5.082   7.126
14232TIP3   OH242631   6.565   5.191   7.907
14232TIP3    H142632   6.617   5.237   7.976
14232TIP3    H242633   6.542   5.108   7.953
14233TIP3   OH242634   6.605   4.671   6.615
14233TIP3    H142635   6.595   4.668   6.712
14233TIP3    H242636   6.527   4.723   6.590
14234TIP3   OH242637   6.147   4.716   7.487
14234TIP3    H142638   6.225   4.746   7.538
14234TIP3    H242639   6.185   4.682   7.404
14235TIP3   OH242640   6.122   4.697   7.007
14235TIP3    H142641   6.166   4.735   6.927
14235TIP3    H242642   6.060   4.770   7.026
14236TIP3   OH242643   6.945   4.873   7.271
14236TIP3    H142644   6.864   4.871   7.324
14236TIP3    H242645   7.014   4.872   7.339
14237TIP3   OH242646   6.381   4.928   7.281
14237TIP3    H142647   6.287   4.935   7.253
14237TIP3    H242648   6.405   4.837   7.257
14238TIP3   OH242649   6.651   4.927   6.969
14238TIP3    H142650   6.745   4.940   6.946
14238TIP3    H242651   6.605   4.948   6.884
14239TIP3   OH242652   7.402   4.936   7.432
14239TIP3    H142653   7.402   4.926   7.528
14239TIP3    H242654   7.334   4.871   7.405
14240TIP3   OH242655   6.492   4.960   6.748
14240TIP3    H142656   6.422   4.913   6.700
14240TIP3    H242657   6.544   4.995   6.673
14241TIP3   OH242658   7.021   5.190   7.364
14241TIP3    H142659   7.099   5.163   7.313
14241TIP3    H242660   7.041   5.155   7.453
14242TIP3   OH242661   6.554   4.689   7.247
14242TIP3    H142662   6.520   4.609   7.293
14242TIP3    H242663   6.604   4.650   7.174
14243TIP3   OH242664   7.009   5.095   7.658
14243TIP3    H142665   6.916   5.125   7.671
14243TIP3    H242666   7.055   5.130   7.735
14244TIP3   OH242667   6.742   5.490   6.755
14244TIP3    H142668   6.671   5.423   6.745
14244TIP3    H242669   6.725   5.523   6.847
14245TIP3   OH242670   7.203   4.799   6.618
14245TIP3    H142671   7.106   4.783   6.624
14245TIP3    H242672   7.212   4.895   6.639
14246TIP3   OH242673   7.272   5.049   6.720
14246TIP3    H142674   7.368   5.055   6.734
14246TIP3    H242675   7.253   5.128   6.665
14247TIP3   OH242676   6.444   5.518   7.431
14247TIP3    H142677   6.476   5.486   7.344
14247TIP3    H242678   6.460   5.441   7.487
14248TIP3   OH242679   6.890   5.638   6.577
14248TIP3    H142680   6.843   5.724   6.581
14248TIP3    H242681   6.835   5.583   6.637
14249TIP3   OH242682   6.304   5.403   8.059
14249TIP3    H142683   6.284   5.380   8.152
14249TIP3    H242684   6.231   5.358   8.013
14250TIP3   OH242685   7.713   5.138   6.554
14250TIP3    H142686   7.651   5.092   6.493
14250TIP3    H242687   7.707   5.227   6.512
14251TIP3   OH242688   7.359   5.942   6.450
14251TIP3    H142689   7.392   5.884   6.519
14251TIP3    H242690   7.412   5.914   6.373
14252TIP3   OH242691   6.538   5.821   7.070
14252TIP3    H142692   6.539   5.896   7.007
14252TIP3    H242693   6.446   5.792   7.061
14253TIP3   OH242694   6.101   5.118   6.759
14253TIP3    H142695   6.146   5.203   6.778
14253TIP3    H242696   6.024   5.124   6.819
14254TIP3   OH242697   6.675   5.581   7.003
14254TIP3    H142698   6.643   5.671   7.021
14254TIP3    H242699   6.636   5.530   7.075
14255TIP3   OH242700   6.460   6.049   6.912
14255TIP3    H142701   6.371   6.061   6.952
14255TIP3    H242702   6.492   6.142   6.912
14256TIP3   OH242703   7.168   5.674   6.366
14256TIP3    H142704   7.220   5.661   6.448
14256TIP3    H242705   7.079   5.655   6.398
14257TIP3   OH242706   7.501   6.160   6.189
14257TIP3    H142707   7.536   6.208   6.113
14257TIP3    H242708   7.418   6.212   6.204
14258TIP3   OH242709   6.527   4.937   8.051
14258TIP3    H142710   6.431   4.938   8.067
14258TIP3    H242711   6.558   4.875   8.120
14259TIP3   OH242712   7.321   5.627   6.596
14259TIP3    H142713   7.314   5.553   6.660
14259TIP3    H242714   7.416   5.620   6.573
14260TIP3   OH242715   6.262   6.032   7.686
14260TIP3    H142716   6.247   5.939   7.709
14260TIP3    H242717   6.224   6.079   7.761
14261TIP3   OH242718   6.534   5.666   6.366
14261TIP3    H142719   6.550   5.575   6.334
14261TIP3    H242720   6.514   5.651   6.460
14262TIP3   OH242721   6.480   5.670   6.640
14262TIP3    H142722   6.559   5.645   6.691
14262TIP3    H242723   6.484   5.768   6.644
14263TIP3   OH242724   6.217   5.365   6.840
14263TIP3    H142725   6.150   5.409   6.896
14263TIP3    H242726   6.231   5.433   6.771
14264TIP3   OH242727   7.244   4.752   6.898
14264TIP3    H142728   7.231   4.774   6.803
14264TIP3    H242729   7.284   4.835   6.933
14265TIP3   OH242730   6.747   5.867   6.588
14265TIP3    H142731   6.659   5.897   6.620
14265TIP3    H242732   6.763   5.931   6.518
14266TIP3   OH242733   6.934   4.931   6.999
14266TIP3    H142734   6.999   5.003   6.981
14266TIP3    H242735   6.940   4.924   7.097
14267TIP3   OH242736   7.078   4.658   7.101
14267TIP3    H142737   7.073   4.734   7.162
14267TIP3    H242738   7.139   4.694   7.032
14268TIP3   OH242739   6.489   5.943   6.653
14268TIP3    H142740   6.460   6.012   6.588
14268TIP3    H242741   6.474   5.988   6.738
14269TIP3   OH242742   6.590   4.657   6.892
14269TIP3    H142743   6.588   4.747   6.928
14269TIP3    H242744   6.686   4.638   6.899
14270TIP3   OH242745   7.529   5.275   7.179
14270TIP3    H142746   7.437   5.242   7.183
14270TIP3    H242747   7.565   5.241   7.263
14271TIP3   OH242748   6.207   5.573   6.646
14271TIP3    H142749   6.273   5.644   6.653
14271TIP3    H242750   6.252   5.518   6.579
14272TIP3   OH242751   6.151   4.848   6.781
14272TIP3    H142752   6.150   4.946   6.776
14272TIP3    H242753   6.072   4.825   6.732
14273TIP3   OH242754   6.539   4.570   7.653
14273TIP3    H142755   6.509   4.535   7.566
14273TIP3    H242756   6.529   4.491   7.711
14274TIP3   OH242757   6.079   5.786   7.035
14274TIP3    H142758   6.006   5.819   7.089
14274TIP3    H242759   6.056   5.825   6.948
14275TIP3   OH242760   6.700   5.870   6.281
14275TIP3    H142761   6.645   5.796   6.315
14275TIP3    H242762   6.775   5.821   6.242
14276TIP3   OH242763   7.136   5.907   6.186
14276TIP3    H142764   7.192   5.862   6.252
14276TIP3    H242765   7.194   5.908   6.108
14277TIP3   OH242766   6.341   5.387   6.499
14277TIP3    H142767   6.398   5.353   6.570
14277TIP3    H242768   6.407   5.392   6.425
14278TIP3   OH242769   6.849   5.583   6.307
14278TIP3    H142770   6.855   5.596   6.404
14278TIP3    H242771   6.851   5.485   6.301
14279TIP3   OH242772   6.554   5.288   6.723
14279TIP3    H142773   6.525   5.241   6.803
14279TIP3    H242774   6.590   5.215   6.668
14280TIP3   OH242775   6.831   5.337   7.919
14280TIP3    H142776   6.774   5.383   7.982
14280TIP3    H242777   6.844   5.401   7.848
14281TIP3   OH242778   6.651   5.083   6.562
14281TIP3    H142779   6.625   5.087   6.467
14281TIP3    H242780   6.749   5.087   6.554
14282TIP3   OH242781   7.473   5.414   6.225
14282TIP3    H142782   7.452   5.369   6.140
14282TIP3    H242783   7.442   5.505   6.202
14283TIP3   OH242784   2.006   0.226   3.190
14283TIP3    H142785   2.042   0.158   3.131
14283TIP3    H242786   1.985   0.296   3.126
14284TIP3   OH242787   6.945   4.916   7.877
14284TIP3    H142788   6.973   4.957   7.793
14284TIP3    H242789   6.849   4.901   7.862
14285TIP3   OH242790   7.080   4.697   7.968
14285TIP3    H142791   7.030   4.777   7.936
14285TIP3    H242792   7.015   4.626   7.947
14286TIP3   OH242793   6.651   5.034   8.363
14286TIP3    H142794   6.663   4.955   8.307
14286TIP3    H242795   6.702   5.008   8.441
14287TIP3   OH242796   7.177   4.695   8.226
14287TIP3    H142797   7.248   4.640   8.192
14287TIP3    H242798   7.124   4.706   8.143
14288TIP3   OH242799   6.459   6.145   6.466
14288TIP3    H142800   6.554   6.142   6.446
14288TIP3    H242801   6.428   6.193   6.387
14289TIP3   OH242802   5.939   5.525   6.686
14289TIP3    H142803   6.033   5.548   6.669
14289TIP3    H242804   5.932   5.437   6.642
14290TIP3   OH242805   5.853   6.142   7.091
14290TIP3    H142806   5.784   6.081   7.055
14290TIP3    H242807   5.896   6.082   7.155
14291TIP3   OH242808   5.983   5.983   7.271
14291TIP3    H142809   5.962   5.912   7.333
14291TIP3    H242810   6.033   6.045   7.328
14292TIP3   OH242811   7.587   5.592   6.562
14292TIP3    H142812   7.649   5.649   6.511
14292TIP3    H242813   7.643   5.567   6.639
14293TIP3   OH242814   7.730   5.481   6.768
14293TIP3    H142815   7.663   5.424   6.813
14293TIP3    H242816   7.807   5.469   6.825
14294TIP3   OH242817   7.667   5.373   6.414
14294TIP3    H142818   7.600   5.378   6.342
14294TIP3    H242819   7.639   5.451   6.466
14295TIP3   OH242820   7.543   5.049   6.365
14295TIP3    H142821   7.505   5.090   6.287
14295TIP3    H242822   7.518   4.955   6.352
14296TIP3   OH242823   7.554   5.315   6.904
14296TIP3    H142824   7.556   5.221   6.881
14296TIP3    H242825   7.551   5.311   7.002
14297TIP3   OH242826   6.174   5.397   7.652
14297TIP3    H142827   6.169   5.365   7.559
14297TIP3    H242828   6.271   5.394   7.665
14298TIP3   OH242829   7.489   4.783   6.348
14298TIP3    H142830   7.564   4.752   6.402
14298TIP3    H242831   7.417   4.723   6.373
14299TIP3   OH242832   7.549   5.044   6.801
14299TIP3    H142833   7.586   4.954   6.818
14299TIP3    H242834   7.606   5.071   6.727
14300TIP3   OH242835   6.385   5.079   8.317
14300TIP3    H142836   6.482   5.071   8.328
14300TIP3    H242837   6.357   4.999   8.368
14301TIP3   OH242838   7.651   4.792   6.840
14301TIP3    H142839   7.702   4.775   6.923
14301TIP3    H242840   7.592   4.715   6.839
14302TIP3   OH242841   6.354   4.778   7.662
14302TIP3    H142842   6.416   4.702   7.671
14302TIP3    H242843   6.418   4.851   7.653
14303TIP3   OH242844   6.157   5.053   7.732
14303TIP3    H142845   6.205   5.041   7.648
14303TIP3    H242846   6.192   5.138   7.761
14304TIP3   OH242847   7.738   4.725   6.475
14304TIP3    H142848   7.778   4.655   6.420
14304TIP3    H242849   7.803   4.798   6.468
14305TIP3   OH242850   6.141   4.560   7.238
14305TIP3    H142851   6.046   4.552   7.259
14305TIP3    H242852   6.140   4.615   7.157
14306TIP3   OH242853   6.362   4.634   8.047
14306TIP3    H142854   6.312   4.631   8.130
14306TIP3    H242855   6.294   4.671   7.987
14307TIP3   OH242856   6.148   6.125   7.439
14307TIP3    H142857   6.194   6.125   7.525
14307TIP3    H242858   6.223   6.094   7.383
14308TIP3   OH242859   6.342   6.005   7.295
14308TIP3    H142860   6.368   5.926   7.346
14308TIP3    H242861   6.429   6.047   7.279
14309TIP3   OH242862   6.590   6.107   7.277
14309TIP3    H142863   6.643   6.042   7.230
14309TIP3    H242864   6.655   6.173   7.307
14310TIP3   OH242865   7.195   4.755   7.381
14310TIP3    H142866   7.150   4.687   7.436
14310TIP3    H242867   7.267   4.703   7.339
14311TIP3   OH242868   7.729   4.646   7.289
14311TIP3    H142869   7.763   4.703   7.216
14311TIP3    H242870   7.635   4.670   7.291
14312TIP3   OH242871   7.823   4.751   7.053
14312TIP3    H142872   7.893   4.694   7.013
14312TIP3    H242873   7.867   4.838   7.049
14313TIP3   OH242874   6.451   4.477   7.405
14313TIP3    H142875   6.359   4.444   7.406
14313TIP3    H242876   6.500   4.392   7.401
14314TIP3   OH242877   6.240   4.346   7.053
14314TIP3    H142878   6.269   4.402   6.979
14314TIP3    H242879   6.211   4.411   7.118
14315TIP3   OH242880   6.894   4.509   7.285
14315TIP3    H142881   6.952   4.558   7.224
14315TIP3    H242882   6.920   4.546   7.371
14316TIP3   OH242883   7.440   4.652   7.267
14316TIP3    H142884   7.444   4.613   7.179
14316TIP3    H242885   7.430   4.572   7.324
14317TIP3   OH242886   7.471   4.577   6.831
14317TIP3    H142887   7.384   4.619   6.842
14317TIP3    H242888   7.457   4.492   6.878
14318TIP3   OH242889   5.955   5.917   6.835
14318TIP3    H142890   5.871   5.884   6.800
14318TIP3    H242891   5.945   6.011   6.814
14319TIP3   OH242892   6.355   4.504   6.817
14319TIP3    H142893   6.402   4.442   6.759
14319TIP3    H242894   6.428   4.558   6.852
14320TIP3   OH242895   6.867   4.681   6.915
14320TIP3    H142896   6.927   4.633   6.974
14320TIP3    H242897   6.890   4.773   6.940
14321TIP3   OH242898   6.727   6.107   6.416
14321TIP3    H142899   6.816   6.128   6.378
14321TIP3    H242900   6.704   6.033   6.356
14322TIP3   OH242901   7.439   6.202   6.492
14322TIP3    H142902   7.410   6.108   6.486
14322TIP3    H242903   7.460   6.218   6.399
14323TIP3   OH242904   6.651   4.753   8.283
14323TIP3    H142905   6.615   4.685   8.342
14323TIP3    H242906   6.745   4.752   8.311
14324TIP3   OH242907   6.900   4.740   8.389
14324TIP3    H142908   6.990   4.733   8.353
14324TIP3    H242909   6.906   4.695   8.474
14325TIP3   OH242910   6.031   5.942   6.470
14325TIP3    H142911   6.033   5.969   6.562
14325TIP3    H242912   6.120   5.900   6.458
14326TIP3   OH242913   7.893   5.252   6.729
14326TIP3    H142914   7.852   5.335   6.698
14326TIP3    H242915   7.841   5.188   6.677
14327TIP3   OH242916   7.754   5.735   6.407
14327TIP3    H142917   7.736   5.765   6.316
14327TIP3    H242918   7.736   5.818   6.457
14328TIP3   OH242919   8.736   4.953   6.078
14328TIP3    H142920   8.765   5.001   6.157
14328TIP3    H242921   8.708   4.866   6.112
14329TIP3   OH242922   8.391   4.921   6.101
14329TIP3    H142923   8.388   4.923   6.198
14329TIP3    H242924   8.326   4.990   6.079
14330TIP3   OH242925   7.973   4.966   6.982
14330TIP3    H142926   8.022   5.041   6.939
14330TIP3    H242927   7.964   4.912   6.901
14331TIP3   OH242928   7.916   4.948   6.494
14331TIP3    H142929   7.964   4.982   6.415
14331TIP3    H242930   7.858   5.024   6.511
14332TIP3   OH242931   8.121   5.111   6.824
14332TIP3    H142932   8.077   5.169   6.761
14332TIP3    H242933   8.198   5.080   6.773
14333TIP3   OH242934   8.483   5.143   6.434
14333TIP3    H142935   8.542   5.221   6.425
14333TIP3    H242936   8.415   5.173   6.369
14334TIP3   OH242937   8.289   5.198   6.241
14334TIP3    H142938   8.216   5.170   6.184
14334TIP3    H242939   8.347   5.240   6.175
14335TIP3   OH242940   8.347   4.954   6.727
14335TIP3    H142941   8.313   4.868   6.757
14335TIP3    H242942   8.398   4.931   6.648
14336TIP3   OH242943   7.881   5.354   6.239
14336TIP3    H142944   7.924   5.442   6.243
14336TIP3    H242945   7.811   5.366   6.307
14337TIP3   OH242946   8.340   5.876   5.824
14337TIP3    H142947   8.312   5.796   5.774
14337TIP3    H242948   8.409   5.835   5.877
14338TIP3   OH242949   7.958   5.610   6.264
14338TIP3    H142950   7.897   5.641   6.334
14338TIP3    H242951   8.038   5.660   6.288
14339TIP3   OH242952   8.371   4.898   6.380
14339TIP3    H142953   8.384   4.992   6.403
14339TIP3    H242954   8.463   4.867   6.391
14340TIP3   OH242955   8.007   5.872   6.093
14340TIP3    H142956   8.025   5.852   6.188
14340TIP3    H242957   8.053   5.799   6.048
14341TIP3   OH242958   7.947   5.092   6.266
14341TIP3    H142959   7.956   5.189   6.264
14341TIP3    H242960   7.862   5.080   6.222
14342TIP3   OH242961   8.156   5.658   5.993
14342TIP3    H142962   8.200   5.600   6.060
14342TIP3    H242963   8.215   5.642   5.916
14343TIP3   OH242964   8.325   5.515   6.168
14343TIP3    H142965   8.397   5.491   6.230
14343TIP3    H242966   8.349   5.450   6.099
14344TIP3   OH242967   8.431   5.307   6.031
14344TIP3    H142968   8.425   5.320   5.934
14344TIP3    H242969   8.522   5.332   6.051
14345TIP3   OH242970   7.732   5.790   6.133
14345TIP3    H142971   7.827   5.812   6.127
14345TIP3    H242972   7.731   5.697   6.102
14346TIP3   OH242973   7.929   4.823   6.735
14346TIP3    H142974   7.833   4.808   6.739
14346TIP3    H242975   7.938   4.874   6.652
14347TIP3   OH242976   8.252   4.742   6.899
14347TIP3    H142977   8.158   4.716   6.899
14347TIP3    H242978   8.295   4.655   6.901
14348TIP3   OH242979   8.037   4.602   6.539
14348TIP3    H142980   8.067   4.657   6.464
14348TIP3    H242981   8.008   4.669   6.603
14349TIP3   OH242982   8.145   4.756   6.305
14349TIP3    H142983   8.197   4.699   6.245
14349TIP3    H242984   8.216   4.815   6.339
14350TIP3   OH242985   8.640   4.899   6.443
14350TIP3    H142986   8.706   4.866   6.506
14350TIP3    H242987   8.615   4.985   6.480
14351TIP3   OH242988   7.789   6.155   5.949
14351TIP3    H142989   7.808   6.221   6.019
14351TIP3    H242990   7.879   6.121   5.931
14352TIP3   OH242991   2.133   6.109   8.504
14352TIP3    H142992   2.159   6.149   8.589
14352TIP3    H242993   2.215   6.115   8.452
14353TIP3   OH242994   1.639   5.989   8.194
14353TIP3    H142995   1.700   5.997   8.270
14353TIP3    H242996   1.685   6.043   8.128
14354TIP3   OH242997   1.838   6.025   8.388
14354TIP3    H142998   1.845   5.942   8.438
14354TIP3    H242999   1.928   6.058   8.395
14355TIP3   OH243000   1.195   6.288   7.922
14355TIP3    H143001   1.111   6.338   7.913
14355TIP3    H243002   1.252   6.327   7.852
14356TIP3   OH243003   1.186   6.150   7.673
14356TIP3    H143004   1.240   6.184   7.746
14356TIP3    H243005   1.252   6.097   7.625
14357TIP3   OH243006   1.574   6.391   7.982
14357TIP3    H143007   1.565   6.476   8.030
14357TIP3    H243008   1.671   6.383   7.981
14358TIP3   OH243009   1.413   6.314   7.771
14358TIP3    H143010   1.479   6.373   7.815
14358TIP3    H243011   1.433   6.338   7.677
14359TIP3   OH243012   1.923   5.561   7.825
14359TIP3    H143013   1.843   5.584   7.877
14359TIP3    H243014   1.940   5.646   7.779
14360TIP3   OH243015   1.478   6.348   7.513
14360TIP3    H143016   1.463   6.341   7.417
14360TIP3    H243017   1.530   6.430   7.520
14361TIP3   OH243018   1.188   5.752   7.808
14361TIP3    H143019   1.173   5.746   7.906
14361TIP3    H243020   1.161   5.661   7.783
14362TIP3   OH243021   1.347   6.174   8.109
14362TIP3    H143022   1.294   6.211   8.035
14362TIP3    H243023   1.428   6.149   8.062
14363TIP3   OH243024   1.447   5.848   7.786
14363TIP3    H143025   1.350   5.835   7.796
14363TIP3    H243026   1.461   5.941   7.815
14364TIP3   OH243027   1.523   6.089   7.893
14364TIP3    H143028   1.618   6.102   7.910
14364TIP3    H243029   1.500   6.172   7.846
14365TIP3   OH243030   1.963   6.184   7.736
14365TIP3    H143031   1.903   6.139   7.672
14365TIP3    H243032   1.958   6.274   7.696
14366TIP3   OH243033   1.830   7.267   7.329
14366TIP3    H143034   1.790   7.308   7.249
14366TIP3    H243035   1.755   7.215   7.363
14367TIP3   OH243036   1.534   6.572   7.719
14367TIP3    H143037   1.581   6.626   7.783
14367TIP3    H243038   1.536   6.634   7.642
14368TIP3   OH243039   1.502   5.790   8.065
14368TIP3    H143040   1.483   5.821   7.974
14368TIP3    H243041   1.544   5.869   8.106
14369TIP3   OH243042   1.194   5.964   8.191
14369TIP3    H143043   1.254   6.031   8.152
14369TIP3    H243044   1.187   5.994   8.282
14370TIP3   OH243045   1.346   5.692   8.271
14370TIP3    H143046   1.337   5.759   8.340
14370TIP3    H243047   1.393   5.740   8.200
14371TIP3   OH243048   1.104   6.631   7.481
14371TIP3    H143049   1.144   6.641   7.570
14371TIP3    H243050   1.099   6.534   7.476
14372TIP3   OH243051   0.938   6.154   7.792
14372TIP3    H143052   0.905   6.142   7.700
14372TIP3    H243053   1.033   6.144   7.773
14373TIP3   OH243054   1.732   6.475   7.395
14373TIP3    H143055   1.692   6.440   7.313
14373TIP3    H243056   1.700   6.567   7.397
14374TIP3   OH243057   1.872   6.641   7.731
14374TIP3    H143058   1.938   6.704   7.694
14374TIP3    H243059   1.922   6.600   7.805
14375TIP3   OH243060   1.982   6.508   7.935
14375TIP3    H143061   1.929   6.464   8.004
14375TIP3    H243062   2.057   6.546   7.986
14376TIP3   OH243063   1.920   6.416   7.583
14376TIP3    H143064   1.851   6.423   7.513
14376TIP3    H243065   1.894   6.494   7.637
14377TIP3   OH243066   1.798   6.092   7.540
14377TIP3    H143067   1.748   6.139   7.472
14377TIP3    H243068   1.770   5.999   7.524
14378TIP3   OH243069   1.824   6.349   8.107
14378TIP3    H143070   1.820   6.257   8.076
14378TIP3    H243071   1.757   6.351   8.177
14379TIP3   OH243072   1.738   5.825   7.519
14379TIP3    H143073   1.816   5.801   7.574
14379TIP3    H243074   1.668   5.768   7.553
14380TIP3   OH243075   1.797   6.099   7.978
14380TIP3    H143076   1.828   6.006   7.992
14380TIP3    H243077   1.857   6.124   7.905
14381TIP3   OH243078   1.888   5.844   8.007
14381TIP3    H143079   1.951   5.829   8.081
14381TIP3    H243080   1.833   5.763   8.011
14382TIP3   OH243081   1.981   5.772   7.646
14382TIP3    H143082   2.032   5.702   7.602
14382TIP3    H243083   2.048   5.844   7.652
14383TIP3   OH243084   1.999   5.686   8.421
14383TIP3    H143085   2.037   5.738   8.346
14383TIP3    H243086   1.903   5.690   8.402
14384TIP3   OH243087   2.074   5.817   8.201
14384TIP3    H143088   2.144   5.756   8.167
14384TIP3    H243089   2.119   5.903   8.184
14385TIP3   OH243090   1.734   5.675   8.398
14385TIP3    H143091   1.671   5.677   8.325
14385TIP3    H243092   1.707   5.596   8.447
14386TIP3   OH243093   1.720   5.622   8.007
14386TIP3    H143094   1.634   5.668   8.020
14386TIP3    H243095   1.701   5.536   8.050
14387TIP3   OH243096   1.152   5.723   8.075
14387TIP3    H143097   1.199   5.684   8.150
14387TIP3    H243098   1.145   5.815   8.107
14388TIP3   OH243099   3.187   6.785   7.637
14388TIP3    H143100   3.159   6.877   7.618
14388TIP3    H243101   3.109   6.737   7.606
14389TIP3   OH243102   3.201   6.767   8.003
14389TIP3    H143103   3.216   6.752   8.098
14389TIP3    H243104   3.147   6.691   7.979
14390TIP3   OH243105   3.434   7.080   7.697
14390TIP3    H143106   3.410   7.018   7.767
14390TIP3    H243107   3.459   7.159   7.748
14391TIP3   OH243108   2.167   6.298   7.913
14391TIP3    H143109   2.117   6.381   7.911
14391TIP3    H243110   2.106   6.239   7.865
14392TIP3   OH243111   2.217   6.579   8.042
14392TIP3    H143112   2.276   6.520   8.092
14392TIP3    H243113   2.279   6.640   8.001
14393TIP3   OH243114   3.083   7.529   7.721
14393TIP3    H143115   3.132   7.470   7.658
14393TIP3    H243116   3.110   7.490   7.805
14394TIP3   OH243117   3.014   6.973   8.041
14394TIP3    H143118   3.062   6.904   7.991
14394TIP3    H243119   3.091   7.021   8.078
14395TIP3   OH243120   3.999   6.328   8.064
14395TIP3    H143121   4.023   6.409   8.115
14395TIP3    H243122   4.009   6.359   7.973
14396TIP3   OH243123   3.396   6.515   8.103
14396TIP3    H143124   3.438   6.429   8.120
14396TIP3    H243125   3.365   6.503   8.012
14397TIP3   OH243126   2.758   6.177   8.066
14397TIP3    H143127   2.727   6.247   8.004
14397TIP3    H243128   2.690   6.108   8.043
14398TIP3   OH243129   3.431   6.263   7.689
14398TIP3    H143130   3.505   6.247   7.752
14398TIP3    H243131   3.480   6.299   7.613
14399TIP3   OH243132   2.375   6.382   8.158
14399TIP3    H143133   2.456   6.337   8.187
14399TIP3    H243134   2.343   6.323   8.087
14400TIP3   OH243135   2.806   6.562   7.967
14400TIP3    H143136   2.901   6.537   7.976
14400TIP3    H243137   2.766   6.479   7.934
14401TIP3   OH243138   4.057   6.528   8.245
14401TIP3    H143139   3.980   6.585   8.225
14401TIP3    H243140   4.102   6.578   8.315
14402TIP3   OH243141   2.741   6.148   8.492
14402TIP3    H143142   2.676   6.186   8.429
14402TIP3    H243143   2.694   6.154   8.576
14403TIP3   OH243144   3.084   7.008   7.504
14403TIP3    H143145   3.035   6.985   7.425
14403TIP3    H243146   3.040   7.092   7.529
14404TIP3   OH243147   3.644   6.261   7.860
14404TIP3    H143148   3.624   6.221   7.945
14404TIP3    H243149   3.691   6.342   7.887
14405TIP3   OH243150   2.605   6.263   8.279
14405TIP3    H143151   2.667   6.337   8.297
14405TIP3    H243152   2.652   6.220   8.203
14406TIP3   OH243153   2.061   6.806   7.626
14406TIP3    H143154   2.025   6.824   7.536
14406TIP3    H243155   2.093   6.892   7.655
14407TIP3   OH243156   3.521   7.318   7.852
14407TIP3    H143157   3.435   7.302   7.896
14407TIP3    H243158   3.504   7.407   7.813
14408TIP3   OH243159   3.789   6.224   8.227
14408TIP3    H143160   3.703   6.258   8.198
14408TIP3    H243161   3.850   6.261   8.159
14409TIP3   OH243162   3.105   5.894   8.224
14409TIP3    H143163   3.081   5.806   8.193
14409TIP3    H243164   3.019   5.924   8.261
14410TIP3   OH243165   3.214   7.373   7.542
14410TIP3    H143166   3.260   7.290   7.517
14410TIP3    H243167   3.275   7.438   7.499
14411TIP3   OH243168   3.351   7.155   7.445
14411TIP3    H143169   3.301   7.080   7.411
14411TIP3    H243170   3.385   7.120   7.529
14412TIP3   OH243171   3.727   7.244   8.179
14412TIP3    H143172   3.715   7.152   8.146
14412TIP3    H243173   3.723   7.295   8.096
14413TIP3   OH243174   3.018   6.635   7.468
14413TIP3    H143175   2.937   6.687   7.450
14413TIP3    H243176   3.061   6.636   7.382
14414TIP3   OH243177   2.977   6.421   7.183
14414TIP3    H143178   3.043   6.473   7.233
14414TIP3    H243179   3.036   6.358   7.137
14415TIP3   OH243180   3.928   6.879   8.062
14415TIP3    H143181   3.844   6.931   8.070
14415TIP3    H243182   3.942   6.884   7.966
14416TIP3   OH243183   3.365   6.718   7.441
14416TIP3    H143184   3.309   6.744   7.518
14416TIP3    H243185   3.449   6.695   7.486
14417TIP3   OH243186   3.594   6.734   8.336
14417TIP3    H143187   3.607   6.813   8.393
14417TIP3    H243188   3.514   6.761   8.287
14418TIP3   OH243189   2.599   6.712   7.854
14418TIP3    H143190   2.554   6.658   7.785
14418TIP3    H243191   2.673   6.655   7.881
14419TIP3   OH243192   2.773   7.090   8.041
14419TIP3    H143193   2.719   7.039   7.980
14419TIP3    H243194   2.862   7.050   8.027
14420TIP3   OH243195   2.754   6.682   8.208
14420TIP3    H143196   2.769   6.654   8.116
14420TIP3    H243197   2.824   6.749   8.220
14421TIP3   OH243198   3.281   7.287   7.964
14421TIP3    H143199   3.269   7.355   8.033
14421TIP3    H243200   3.254   7.205   8.010
14422TIP3   OH243201   3.208   6.574   7.266
14422TIP3    H143202   3.265   6.636   7.317
14422TIP3    H243203   3.234   6.599   7.173
14423TIP3   OH243204   2.953   7.252   7.534
14423TIP3    H143205   3.021   7.311   7.568
14423TIP3    H243206   2.883   7.312   7.508
14424TIP3   OH243207   3.722   5.818   7.315
14424TIP3    H143208   3.639   5.840   7.363
14424TIP3    H243209   3.736   5.901   7.265
14425TIP3   OH243210   2.467   6.559   7.658
14425TIP3    H143211   2.399   6.606   7.605
14425TIP3    H243212   2.423   6.475   7.675
14426TIP3   OH243213   3.519   7.185   6.861
14426TIP3    H143214   3.527   7.282   6.848
14426TIP3    H243215   3.613   7.157   6.850
14427TIP3   OH243216   2.839   7.509   7.331
14427TIP3    H143217   2.792   7.476   7.252
14427TIP3    H243218   2.794   7.592   7.350
14428TIP3   OH243219   3.030   7.402   6.984
14428TIP3    H143220   3.089   7.333   6.948
14428TIP3    H243221   3.066   7.413   7.075
14429TIP3   OH243222   3.088   7.444   7.253
14429TIP3    H143223   2.999   7.461   7.293
14429TIP3    H243224   3.134   7.404   7.329
14430TIP3   OH243225   3.871   6.716   8.521
14430TIP3    H143226   3.785   6.748   8.492
14430TIP3    H243227   3.866   6.620   8.506
14431TIP3   OH243228   2.851   5.943   8.332
14431TIP3    H143229   2.759   5.919   8.305
14431TIP3    H243230   2.832   6.030   8.373
14432TIP3   OH243231   3.385   6.073   8.533
14432TIP3    H143232   3.457   6.031   8.586
14432TIP3    H243233   3.303   6.043   8.577
14433TIP3   OH243234   3.617   6.488   8.458
14433TIP3    H143235   3.576   6.505   8.545
14433TIP3    H243236   3.602   6.573   8.411
14434TIP3   OH243237   3.282   6.621   7.009
14434TIP3    H143238   3.249   6.598   6.921
14434TIP3    H243239   3.360   6.675   6.987
14435TIP3   OH243240   2.997   5.997   7.311
14435TIP3    H143241   2.963   5.995   7.403
14435TIP3    H243242   2.954   5.916   7.277
14436TIP3   OH243243   2.781   6.459   8.355
14436TIP3    H143244   2.758   6.492   8.443
14436TIP3    H243245   2.772   6.541   8.300
14437TIP3   OH243246   2.658   6.343   7.877
14437TIP3    H143247   2.571   6.300   7.883
14437TIP3    H243248   2.682   6.314   7.785
14438TIP3   OH243249   3.157   6.439   7.603
14438TIP3    H143250   3.103   6.510   7.561
14438TIP3    H243251   3.209   6.408   7.526
14439TIP3   OH243252   3.312   6.467   7.843
14439TIP3    H143253   3.254   6.500   7.772
14439TIP3    H243254   3.344   6.385   7.799
14440TIP3   OH243255   2.651   5.973   7.276
14440TIP3    H143256   2.643   5.971   7.374
14440TIP3    H243257   2.573   6.027   7.253
14441TIP3   OH243258   2.215   6.034   8.136
14441TIP3    H143259   2.290   6.057   8.194
14441TIP3    H243260   2.264   6.017   8.054
14442TIP3   OH243261   2.160   5.993   7.662
14442TIP3    H143262   2.216   6.033   7.592
14442TIP3    H243263   2.107   6.071   7.688
14443TIP3   OH243264   3.308   6.713   8.266
14443TIP3    H143265   3.348   6.647   8.205
14443TIP3    H243266   3.285   6.654   8.341
14444TIP3   OH243267   2.997   6.167   7.934
14444TIP3    H143268   2.909   6.168   7.978
14444TIP3    H243269   3.056   6.181   8.009
14445TIP3   OH243270   2.705   6.247   7.629
14445TIP3    H143271   2.795   6.247   7.593
14445TIP3    H243272   2.648   6.249   7.549
14446TIP3   OH243273   3.481   6.248   8.138
14446TIP3    H143274   3.444   6.263   8.228
14446TIP3    H243275   3.414   6.187   8.102
14447TIP3   OH243276   2.538   6.258   7.413
14447TIP3    H143277   2.463   6.216   7.369
14447TIP3    H243278   2.587   6.293   7.336
14448TIP3   OH243279   3.076   6.498   8.031
14448TIP3    H143280   3.150   6.462   7.980
14448TIP3    H243281   3.088   6.456   8.118
14449TIP3   OH243282   3.055   6.394   8.320
14449TIP3    H143283   2.966   6.432   8.328
14449TIP3    H243284   3.110   6.456   8.372
14450TIP3   OH243285   2.792   6.786   7.417
14450TIP3    H143286   2.717   6.723   7.406
14450TIP3    H243287   2.779   6.815   7.511
14451TIP3   OH243288   3.692   7.013   8.043
14451TIP3    H143289   3.712   7.066   7.964
14451TIP3    H243290   3.602   6.978   8.023
14452TIP3   OH243291   3.247   6.101   7.280
14452TIP3    H143292   3.150   6.084   7.287
14452TIP3    H243293   3.255   6.196   7.303
14453TIP3   OH243294   3.316   6.348   7.383
14453TIP3    H143295   3.413   6.357   7.398
14453TIP3    H243296   3.295   6.429   7.332
14454TIP3   OH243297   2.489   6.774   8.098
14454TIP3    H143298   2.512   6.778   8.003
14454TIP3    H243299   2.517   6.686   8.122
14455TIP3   OH243300   2.933   6.938   7.238
14455TIP3    H143301   2.886   7.025   7.244
14455TIP3    H243302   2.878   6.884   7.299
14456TIP3   OH243303   3.760   6.440   7.219
14456TIP3    H143304   3.698   6.395   7.157
14456TIP3    H243305   3.755   6.529   7.178
14457TIP3   OH243306   3.992   7.246   8.237
14457TIP3    H143307   3.895   7.241   8.217
14457TIP3    H243308   4.017   7.324   8.186
14458TIP3   OH243309   3.462   7.257   7.128
14458TIP3    H143310   3.431   7.189   7.189
14458TIP3    H243311   3.471   7.210   7.043
14459TIP3   OH243312   3.454   6.886   7.968
14459TIP3    H143313   3.360   6.860   7.977
14459TIP3    H243314   3.489   6.809   7.920
14460TIP3   OH243315   2.572   7.061   7.667
14460TIP3    H143316   2.610   7.142   7.707
14460TIP3    H243317   2.483   7.061   7.706
14461TIP3   OH243318   2.142   6.421   7.420
14461TIP3    H143319   2.189   6.504   7.441
14461TIP3    H243320   2.066   6.426   7.481
14462TIP3   OH243321   2.746   6.858   7.671
14462TIP3    H143322   2.692   6.941   7.664
14462TIP3    H243323   2.699   6.814   7.744
14463TIP3   OH243324   3.257   7.071   8.130
14463TIP3    H143325   3.262   7.130   8.208
14463TIP3    H243326   3.343   7.028   8.132
14464TIP3   OH243327   3.213   6.983   7.028
14464TIP3    H143328   3.265   6.958   7.107
14464TIP3    H243329   3.124   6.961   7.058
14465TIP3   OH243330   3.555   7.459   6.847
14465TIP3    H143331   3.590   7.531   6.793
14465TIP3    H243332   3.475   7.505   6.882
14466TIP3   OH243333   3.373   6.916   7.242
14466TIP3    H143334   3.364   6.853   7.317
14466TIP3    H243335   3.471   6.917   7.232
14467TIP3   OH243336   2.579   6.966   7.027
14467TIP3    H143337   2.593   6.874   7.001
14467TIP3    H243338   2.564   6.957   7.123
14468TIP3   OH243339   2.529   6.974   7.299
14468TIP3    H143340   2.587   6.946   7.371
14468TIP3    H243341   2.530   7.072   7.309
14469TIP3   OH243342   2.263   6.664   7.502
14469TIP3    H143343   2.196   6.706   7.560
14469TIP3    H243344   2.276   6.736   7.437
14470TIP3   OH243345   3.407   6.312   8.399
14470TIP3    H143346   3.495   6.343   8.426
14470TIP3    H243347   3.397   6.228   8.449
14471TIP3   OH243348   3.296   6.050   7.559
14471TIP3    H143349   3.275   6.074   7.467
14471TIP3    H243350   3.329   6.135   7.595
14472TIP3   OH243351   2.791   7.168   7.248
14472TIP3    H143352   2.705   7.194   7.286
14472TIP3    H243353   2.806   7.241   7.186
14473TIP3   OH243354   2.992   6.226   7.661
14473TIP3    H143355   3.049   6.304   7.645
14473TIP3    H243356   2.986   6.225   7.759
14474TIP3   OH243357   3.234   6.550   8.474
14474TIP3    H143358   3.264   6.619   8.537
14474TIP3    H243359   3.303   6.481   8.479
14475TIP3   OH243360   3.127   5.962   7.770
14475TIP3    H143361   3.104   6.043   7.819
14475TIP3    H243362   3.185   5.998   7.699
14476TIP3   OH243363   2.533   7.248   7.317
14476TIP3    H143364   2.504   7.313   7.249
14476TIP3    H243365   2.526   7.301   7.397
14477TIP3   OH243366   2.632   5.953   7.550
14477TIP3    H143367   2.612   6.021   7.617
14477TIP3    H243368   2.728   5.942   7.566
14478TIP3   OH243369   3.886   6.442   8.463
14478TIP3    H143370   3.788   6.437   8.455
14478TIP3    H243371   3.915   6.432   8.371
14479TIP3   OH243372   3.540   6.645   7.839
14479TIP3    H143373   3.462   6.588   7.852
14479TIP3    H243374   3.609   6.597   7.890
14480TIP3   OH243375   2.260   6.877   7.308
14480TIP3    H143376   2.327   6.947   7.317
14480TIP3    H243377   2.305   6.823   7.239
14481TIP3   OH243378   2.202   6.152   7.435
14481TIP3    H143379   2.198   6.250   7.434
14481TIP3    H243380   2.110   6.129   7.416
14482TIP3   OH243381   3.514   7.579   7.778
14482TIP3    H143382   3.459   7.638   7.723
14482TIP3    H243383   3.602   7.620   7.761
14483TIP3   OH243384   2.582   5.881   8.307
14483TIP3    H143385   2.552   5.859   8.216
14483TIP3    H243386   2.564   5.798   8.357
14484TIP3   OH243387   2.743   7.170   6.940
14484TIP3    H143388   2.686   7.099   6.979
14484TIP3    H243389   2.819   7.118   6.909
14485TIP3   OH243390   3.179   7.211   6.851
14485TIP3    H143391   3.226   7.149   6.910
14485TIP3    H243392   3.235   7.212   6.772
14486TIP3   OH243393   2.389   6.688   7.160
14486TIP3    H143394   2.441   6.655   7.235
14486TIP3    H243395   2.458   6.692   7.090
14487TIP3   OH243396   2.898   6.886   6.969
14487TIP3    H143397   2.899   6.899   7.066
14487TIP3    H243398   2.895   6.788   6.964
14488TIP3   OH243399   3.510   7.095   8.302
14488TIP3    H143400   3.586   7.153   8.284
14488TIP3    H243401   3.445   7.157   8.337
14489TIP3   OH243402   2.597   6.590   7.386
14489TIP3    H143403   2.567   6.551   7.470
14489TIP3    H243404   2.631   6.512   7.338
14490TIP3   OH243405   2.696   6.382   7.224
14490TIP3    H143406   2.669   6.388   7.130
14490TIP3    H243407   2.793   6.389   7.216
14491TIP3   OH243408   3.521   6.715   6.887
14491TIP3    H143409   3.497   6.670   6.803
14491TIP3    H243410   3.488   6.806   6.865
14492TIP3   OH243411   2.937   6.434   8.697
14492TIP3    H143412   2.968   6.344   8.680
14492TIP3    H243413   2.999   6.486   8.646
14493TIP3   OH243414   3.003   6.213   8.531
14493TIP3    H143415   3.029   6.260   8.449
14493TIP3    H243416   2.908   6.197   8.516
14494TIP3   OH243417   3.004   6.768   8.372
14494TIP3    H143418   3.098   6.755   8.355
14494TIP3    H243419   2.997   6.863   8.379
14495TIP3   OH243420   3.644   6.937   8.499
14495TIP3    H143421   3.597   7.013   8.460
14495TIP3    H243422   3.736   6.971   8.492
14496TIP3   OH243423   3.137   5.984   8.607
14496TIP3    H143424   3.091   6.069   8.591
14496TIP3    H243425   3.062   5.923   8.609
14497TIP3   OH243426   3.497   6.454   8.712
14497TIP3    H143427   3.410   6.429   8.748
14497TIP3    H243428   3.550   6.378   8.741
14498TIP3   OH243429   2.507   7.455   7.136
14498TIP3    H143430   2.601   7.444   7.111
14498TIP3    H243431   2.473   7.497   7.054
14499TIP3   OH243432   2.001   6.817   7.361
14499TIP3    H143433   2.092   6.840   7.332
14499TIP3    H243434   1.983   6.736   7.310
14500TIP3   OH243435   3.748   7.710   7.748
14500TIP3    H143436   3.807   7.751   7.815
14500TIP3    H243437   3.798   7.729   7.667
14501TIP3   OH243438   3.653   6.901   7.221
14501TIP3    H143439   3.719   6.967   7.191
14501TIP3    H243440   3.698   6.864   7.300
14502TIP3   OH243441   3.783   6.771   7.426
14502TIP3    H143442   3.715   6.728   7.482
14502TIP3    H243443   3.846   6.805   7.492
14503TIP3   OH243444   3.841   7.155   7.855
14503TIP3    H143445   3.869   7.102   7.780
14503TIP3    H243446   3.829   7.242   7.812
14504TIP3   OH243447   3.725   7.449   7.985
14504TIP3    H143448   3.704   7.543   7.975
14504TIP3    H243449   3.661   7.408   7.924
14505TIP3   OH243450   3.719   6.676   7.072
14505TIP3    H143451   3.648   6.680   7.003
14505TIP3    H243452   3.691   6.753   7.126
14506TIP3   OH243453   3.592   6.349   7.025
14506TIP3    H143454   3.547   6.392   6.952
14506TIP3    H243455   3.565   6.256   7.012
14507TIP3   OH243456   3.596   6.627   7.571
14507TIP3    H143457   3.602   6.530   7.565
14507TIP3    H243458   3.581   6.641   7.667
14508TIP3   OH243459   3.884   7.016   8.379
14508TIP3    H143460   3.959   6.974   8.424
14508TIP3    H243461   3.922   7.100   8.349
14509TIP3   OH243462   4.093   6.865   8.477
14509TIP3    H143463   4.010   6.819   8.508
14509TIP3    H243464   4.150   6.787   8.466
14510TIP3   OH243465   3.534   6.082   7.010
14510TIP3    H143466   3.605   6.052   7.070
14510TIP3    H243467   3.458   6.026   7.034
14511TIP3   OH243468   3.592   6.343   7.467
14511TIP3    H143469   3.633   6.254   7.481
14511TIP3    H243470   3.649   6.377   7.396
14512TIP3   OH243471   3.746   6.510   7.965
14512TIP3    H143472   3.825   6.544   7.917
14512TIP3    H243473   3.762   6.551   8.051
14513TIP3   OH243474   3.821   6.659   8.191
14513TIP3    H143475   3.741   6.690   8.238
14513TIP3    H243476   3.854   6.743   8.153
14514TIP3   OH243477   3.702   6.092   7.503
14514TIP3    H143478   3.746   6.076   7.589
14514TIP3    H243479   3.639   6.017   7.501
14515TIP3   OH243480   2.398   6.091   8.349
14515TIP3    H143481   2.448   6.008   8.338
14515TIP3    H243482   2.465   6.155   8.317
14516TIP3   OH243483   2.220   6.373   8.392
14516TIP3    H143484   2.212   6.295   8.336
14516TIP3    H243485   2.283   6.424   8.339
14517TIP3   OH243486   4.131   6.394   8.573
14517TIP3    H143487   4.039   6.420   8.554
14517TIP3    H243488   4.138   6.314   8.519
14518TIP3   OH243489   3.783   6.025   7.140
14518TIP3    H143490   3.821   5.957   7.080
14518TIP3    H243491   3.846   6.099   7.130
14519TIP3   OH243492   2.169   5.834   7.883
14519TIP3    H143493   2.080   5.860   7.912
14519TIP3    H243494   2.193   5.908   7.824
14520TIP3   OH243495   3.359   7.554   7.405
14520TIP3    H143496   3.397   7.540   7.316
14520TIP3    H243497   3.403   7.634   7.432
14521TIP3   OH243498   4.046   6.154   8.424
14521TIP3    H143499   3.954   6.158   8.392
14521TIP3    H243500   4.068   6.060   8.411
14522TIP3   OH243501   3.260   6.077   8.062
14522TIP3    H143502   3.207   6.012   8.113
14522TIP3    H243503   3.311   6.020   8.003
14523TIP3   OH243504   3.776   5.946   7.957
14523TIP3    H143505   3.808   6.001   7.883
14523TIP3    H243506   3.680   5.962   7.954
14524TIP3   OH243507   3.867   6.045   7.720
14524TIP3    H143508   3.940   5.999   7.675
14524TIP3    H243509   3.898   6.139   7.709
14525TIP3   OH243510   2.276   5.645   7.711
14525TIP3    H143511   2.310   5.708   7.646
14525TIP3    H243512   2.249   5.706   7.783
14526TIP3   OH243513   2.963   5.802   7.962
14526TIP3    H143514   3.007   5.856   7.894
14526TIP3    H243515   2.912   5.868   8.010
14527TIP3   OH243516   3.499   5.952   7.930
14527TIP3    H143517   3.474   5.924   7.841
14527TIP3    H243518   3.474   5.874   7.984
14528TIP3   OH243519   3.517   5.880   7.495
14528TIP3    H143520   3.432   5.926   7.507
14528TIP3    H243521   3.498   5.795   7.539
14529TIP3   OH243522   2.397   5.808   7.476
14529TIP3    H143523   2.450   5.748   7.421
14529TIP3    H243524   2.467   5.863   7.516
14530TIP3   OH243525   2.915   5.980   7.576
14530TIP3    H143526   2.968   5.932   7.641
14530TIP3    H243527   2.937   6.072   7.601
14531TIP3   OH243528   2.771   7.406   7.077
14531TIP3    H143529   2.859   7.429   7.041
14531TIP3    H243530   2.749   7.331   7.016
14532TIP3   OH243531   3.491   7.525   7.167
14532TIP3    H143532   3.482   7.427   7.155
14532TIP3    H243533   3.445   7.558   7.088
14533TIP3   OH243534   2.080   7.243   7.127
14533TIP3    H143535   2.063   7.257   7.221
14533TIP3    H243536   2.170   7.203   7.126
14534TIP3   OH243537   4.982   7.039   7.124
14534TIP3    H143538   4.956   7.132   7.106
14534TIP3    H243539   4.903   6.993   7.092
14535TIP3   OH243540   4.964   7.035   7.508
14535TIP3    H143541   5.003   7.007   7.594
14535TIP3    H243542   4.926   6.952   7.476
14536TIP3   OH243543   5.229   7.332   7.191
14536TIP3    H143544   5.218   7.257   7.252
14536TIP3    H243545   5.229   7.405   7.254
14537TIP3   OH243546   4.246   7.338   7.604
14537TIP3    H143547   4.240   7.240   7.597
14537TIP3    H243548   4.342   7.349   7.608
14538TIP3   OH243549   3.955   6.544   7.390
14538TIP3    H143550   3.911   6.630   7.400
14538TIP3    H243551   3.887   6.496   7.340
14539TIP3   OH243552   4.025   6.831   7.558
14539TIP3    H143553   4.082   6.758   7.590
14539TIP3    H243554   4.078   6.867   7.486
14540TIP3   OH243555   4.847   7.789   7.197
14540TIP3    H143556   4.900   7.725   7.146
14540TIP3    H243557   4.897   7.788   7.281
14541TIP3   OH243558   4.775   7.268   7.547
14541TIP3    H143559   4.808   7.186   7.507
14541TIP3    H243560   4.859   7.315   7.562
14542TIP3   OH243561   5.730   6.564   7.500
14542TIP3    H143562   5.802   6.594   7.560
14542TIP3    H243563   5.771   6.580   7.414
14543TIP3   OH243564   5.192   6.768   7.585
14543TIP3    H143565   5.239   6.684   7.604
14543TIP3    H243566   5.163   6.752   7.494
14544TIP3   OH243567   4.546   6.417   7.547
14544TIP3    H143568   4.508   6.505   7.530
14544TIP3    H243569   4.478   6.360   7.506
14545TIP3   OH243570   5.226   6.518   7.175
14545TIP3    H143571   5.298   6.504   7.241
14545TIP3    H243572   5.278   6.555   7.102
14546TIP3   OH243573   4.610   6.831   7.447
14546TIP3    H143574   4.702   6.799   7.460
14546TIP3    H243575   4.565   6.748   7.417
14547TIP3   OH243576   4.511   6.427   7.962
14547TIP3    H143577   4.463   6.500   7.918
14547TIP3    H243578   4.470   6.432   8.052
14548TIP3   OH243579   4.877   7.266   6.994
14548TIP3    H143580   4.832   7.244   6.911
14548TIP3    H243581   4.834   7.351   7.016
14549TIP3   OH243582   4.638   7.190   7.790
14549TIP3    H143583   4.563   7.241   7.824
14549TIP3    H243584   4.669   7.244   7.715
14550TIP3   OH243585   5.438   6.519   7.347
14550TIP3    H143586   5.426   6.476   7.432
14550TIP3    H243587   5.498   6.592   7.370
14551TIP3   OH243588   4.406   7.356   7.888
14551TIP3    H143589   4.411   7.450   7.862
14551TIP3    H243590   4.444   7.358   7.976
14552TIP3   OH243591   3.857   7.071   7.115
14552TIP3    H143592   3.815   7.097   7.031
14552TIP3    H243593   3.886   7.157   7.151
14553TIP3   OH243594   5.565   6.465   7.701
14553TIP3    H143595   5.478   6.500   7.676
14553TIP3    H243596   5.622   6.502   7.630
14554TIP3   OH243597   4.887   6.130   7.699
14554TIP3    H143598   4.868   6.036   7.716
14554TIP3    H243599   4.811   6.172   7.746
14555TIP3   OH243600   5.003   7.631   7.040
14555TIP3    H143601   5.052   7.551   7.013
14555TIP3    H243602   5.054   7.697   6.989
14556TIP3   OH243603   5.145   7.417   6.940
14556TIP3    H143604   5.098   7.343   6.898
14556TIP3    H243605   5.177   7.376   7.023
14557TIP3   OH243606   4.812   6.891   6.954
14557TIP3    H143607   4.732   6.944   6.934
14557TIP3    H243608   4.859   6.892   6.868
14558TIP3   OH243609   4.773   6.677   6.671
14558TIP3    H143610   4.838   6.728   6.721
14558TIP3    H243611   4.832   6.615   6.624
14559TIP3   OH243612   5.161   6.975   6.927
14559TIP3    H143613   5.106   6.999   7.006
14559TIP3    H243614   5.246   6.951   6.971
14560TIP3   OH243615   4.392   6.977   7.343
14560TIP3    H143616   4.354   6.916   7.276
14560TIP3    H243617   4.468   6.925   7.377
14561TIP3   OH243618   4.524   7.390   7.498
14561TIP3    H143619   4.497   7.352   7.413
14561TIP3    H243620   4.612   7.349   7.511
14562TIP3   OH243621   4.509   6.970   7.675
14562TIP3    H143622   4.562   6.923   7.607
14562TIP3    H243623   4.573   7.028   7.719
14563TIP3   OH243624   5.004   6.833   6.753
14563TIP3    H143625   5.062   6.893   6.805
14563TIP3    H243626   5.029   6.857   6.661
14564TIP3   OH243627   4.391   7.091   8.087
14564TIP3    H143628   4.404   7.161   8.154
14564TIP3    H243629   4.331   7.030   8.135
14565TIP3   OH243630   4.742   7.512   7.026
14565TIP3    H143631   4.811   7.571   7.061
14565TIP3    H243632   4.680   7.575   6.986
14566TIP3   OH243633   5.518   6.075   6.801
14566TIP3    H143634   5.436   6.096   6.851
14566TIP3    H243635   5.532   6.158   6.752
14567TIP3   OH243636   4.263   6.816   7.144
14567TIP3    H143637   4.193   6.859   7.090
14567TIP3    H243638   4.222   6.732   7.166
14568TIP3   OH243639   5.315   7.441   6.348
14568TIP3    H143640   5.322   7.538   6.336
14568TIP3    H243641   5.408   7.413   6.337
14569TIP3   OH243642   3.906   7.386   7.701
14569TIP3    H143643   3.991   7.406   7.661
14569TIP3    H243644   3.885   7.465   7.752
14570TIP3   OH243645   4.623   7.757   6.832
14570TIP3    H143646   4.579   7.744   6.746
14570TIP3    H243647   4.597   7.848   6.855
14571TIP3   OH243648   4.063   7.607   7.213
14571TIP3    H143649   4.111   7.599   7.298
14571TIP3    H243650   4.003   7.532   7.218
14572TIP3   OH243651   4.827   7.661   6.468
14572TIP3    H143652   4.887   7.591   6.434
14572TIP3    H243653   4.858   7.670   6.561
14573TIP3   OH243654   4.875   7.708   6.736
14573TIP3    H143655   4.788   7.718   6.781
14573TIP3    H243656   4.930   7.675   6.808
14574TIP3   OH243657   4.650   6.207   7.833
14574TIP3    H143658   4.566   6.168   7.806
14574TIP3    H243659   4.622   6.297   7.857
14575TIP3   OH243660   5.175   6.321   8.027
14575TIP3    H143661   5.233   6.292   8.099
14575TIP3    H243662   5.086   6.306   8.065
14576TIP3   OH243663   5.077   6.878   6.495
14576TIP3    H143664   5.046   6.854   6.406
14576TIP3    H243665   5.156   6.930   6.473
14577TIP3   OH243666   4.791   6.255   6.800
14577TIP3    H143667   4.757   6.253   6.891
14577TIP3    H243668   4.751   6.172   6.766
14578TIP3   OH243669   4.465   6.615   7.358
14578TIP3    H143670   4.374   6.585   7.383
14578TIP3    H243671   4.475   6.567   7.274
14579TIP3   OH243672   4.951   6.693   7.087
14579TIP3    H143673   4.898   6.765   7.046
14579TIP3    H243674   5.005   6.664   7.011
14580TIP3   OH243675   5.102   6.719   7.330
14580TIP3    H143676   5.047   6.754   7.257
14580TIP3    H243677   5.138   6.640   7.286
14581TIP3   OH243678   4.446   6.228   6.766
14581TIP3    H143679   4.436   6.227   6.863
14581TIP3    H243680   4.369   6.283   6.740
14582TIP3   OH243681   3.995   6.269   7.643
14582TIP3    H143682   4.073   6.308   7.688
14582TIP3    H243683   4.025   6.258   7.552
14583TIP3   OH243684   3.963   6.254   7.157
14583TIP3    H143685   4.008   6.293   7.079
14583TIP3    H243686   3.902   6.327   7.178
14584TIP3   OH243687   5.090   6.963   7.746
14584TIP3    H143688   5.141   6.898   7.691
14584TIP3    H243689   5.068   6.906   7.823
14585TIP3   OH243690   4.790   6.421   7.418
14585TIP3    H143691   4.703   6.424   7.464
14585TIP3    H243692   4.850   6.438   7.492
14586TIP3   OH243693   4.228   6.493   7.407
14586TIP3    H143694   4.130   6.503   7.409
14586TIP3    H243695   4.241   6.397   7.402
14587TIP3   OH243696   4.493   6.474   7.118
14587TIP3    H143697   4.585   6.499   7.098
14587TIP3    H243698   4.444   6.503   7.038
14588TIP3   OH243699   5.278   6.503   7.620
14588TIP3    H143700   5.244   6.518   7.711
14588TIP3    H243701   5.208   6.445   7.585
14589TIP3   OH243702   4.334   6.513   6.898
14589TIP3    H143703   4.261   6.471   6.849
14589TIP3    H243704   4.386   6.551   6.823
14590TIP3   OH243705   4.392   7.308   8.264
14590TIP3    H143706   4.477   7.331   8.304
14590TIP3    H243707   4.343   7.271   8.339
14591TIP3   OH243708   4.874   6.755   7.516
14591TIP3    H143709   4.949   6.721   7.465
14591TIP3    H243710   4.888   6.714   7.603
14592TIP3   OH243711   4.390   6.250   7.392
14592TIP3    H143712   4.375   6.158   7.419
14592TIP3    H243713   4.445   6.242   7.314
14593TIP3   OH243714   4.838   6.653   7.822
14593TIP3    H143715   4.768   6.719   7.821
14593TIP3    H243716   4.912   6.704   7.863
14594TIP3   OH243717   4.586   7.046   6.904
14594TIP3    H143718   4.512   6.981   6.893
14594TIP3    H243719   4.566   7.081   6.995
14595TIP3   OH243720   5.043   6.358   6.765
14595TIP3    H143721   4.946   6.342   6.774
14595TIP3    H243722   5.053   6.452   6.790
14596TIP3   OH243723   5.113   6.604   6.868
14596TIP3    H143724   5.209   6.612   6.886
14596TIP3    H243725   5.094   6.686   6.817
14597TIP3   OH243726   4.275   7.059   7.587
14597TIP3    H143727   4.303   7.038   7.496
14597TIP3    H243728   4.352   7.020   7.635
14598TIP3   OH243729   4.729   7.195   6.724
14598TIP3    H143730   4.682   7.281   6.729
14598TIP3    H243731   4.675   7.141   6.785
14599TIP3   OH243732   4.160   6.985   8.174
14599TIP3    H143733   4.165   6.987   8.271
14599TIP3    H243734   4.078   6.934   8.160
14600TIP3   OH243735   5.557   6.696   6.705
14600TIP3    H143736   5.494   6.651   6.644
14600TIP3    H243737   5.552   6.786   6.665
14601TIP3   OH243738   5.256   7.522   6.613
14601TIP3    H143739   5.230   7.454   6.677
14601TIP3    H243740   5.267   7.471   6.530
14602TIP3   OH243741   5.197   7.169   7.421
14602TIP3    H143742   5.123   7.107   7.429
14602TIP3    H243743   5.274   7.110   7.421
14603TIP3   OH243744   4.377   7.373   7.210
14603TIP3    H143745   4.381   7.454   7.155
14603TIP3    H243746   4.282   7.355   7.208
14604TIP3   OH243747   3.942   6.675   6.909
14604TIP3    H143748   3.987   6.760   6.928
14604TIP3    H243749   3.864   6.681   6.969
14605TIP3   OH243750   4.516   7.139   7.148
14605TIP3    H143751   4.481   7.228   7.168
14605TIP3    H243752   4.481   7.087   7.223
14606TIP3   OH243753   4.299   7.609   7.058
14606TIP3    H143754   4.212   7.621   7.102
14606TIP3    H243755   4.332   7.702   7.060
14607TIP3   OH243756   5.042   7.336   7.633
14607TIP3    H143757   5.035   7.277   7.709
14607TIP3    H243758   5.098   7.284   7.571
14608TIP3   OH243759   5.010   7.240   6.515
14608TIP3    H143760   5.062   7.215   6.595
14608TIP3    H243761   4.920   7.217   6.546
14609TIP3   OH243762   5.344   7.716   6.333
14609TIP3    H143763   5.381   7.789   6.279
14609TIP3    H243764   5.263   7.761   6.365
14610TIP3   OH243765   4.387   6.457   8.207
14610TIP3    H143766   4.307   6.510   8.218
14610TIP3    H243767   4.396   6.412   8.293
14611TIP3   OH243768   5.169   7.174   6.731
14611TIP3    H143769   5.160   7.110   6.804
14611TIP3    H243770   5.267   7.173   6.720
14612TIP3   OH243771   4.113   7.598   7.850
14612TIP3    H143772   4.156   7.517   7.818
14612TIP3    H243773   4.184   7.636   7.904
14613TIP3   OH243774   4.377   7.222   6.514
14613TIP3    H143775   4.390   7.130   6.487
14613TIP3    H243776   4.358   7.212   6.610
14614TIP3   OH243777   4.323   7.228   6.786
14614TIP3    H143778   4.394   7.203   6.847
14614TIP3    H243779   4.325   7.326   6.793
14615TIP3   OH243780   4.056   6.921   6.990
14615TIP3    H143781   3.990   6.966   7.047
14615TIP3    H243782   4.070   6.991   6.923
14616TIP3   OH243783   5.213   6.554   7.879
14616TIP3    H143784   5.292   6.587   7.925
14616TIP3    H243785   5.190   6.476   7.932
14617TIP3   OH243786   5.088   6.308   7.047
14617TIP3    H143787   5.073   6.333   6.954
14617TIP3    H243788   5.126   6.391   7.084
14618TIP3   OH243789   4.586   7.425   6.735
14618TIP3    H143790   4.500   7.451   6.771
14618TIP3    H243791   4.605   7.502   6.679
14619TIP3   OH243792   4.776   6.488   7.149
14619TIP3    H143793   4.840   6.561   7.132
14619TIP3    H243794   4.780   6.481   7.247
14620TIP3   OH243795   5.028   6.798   7.954
14620TIP3    H143796   5.004   6.833   8.041
14620TIP3    H243797   5.108   6.748   7.976
14621TIP3   OH243798   4.919   6.214   7.252
14621TIP3    H143799   4.904   6.291   7.310
14621TIP3    H243800   4.980   6.253   7.185
14622TIP3   OH243801   4.330   7.499   6.804
14622TIP3    H143802   4.301   7.569   6.740
14622TIP3    H243803   4.315   7.545   6.890
14623TIP3   OH243804   4.432   6.213   7.044
14623TIP3    H143805   4.429   6.306   7.075
14623TIP3    H243806   4.528   6.197   7.050
14624TIP3   OH243807   5.330   6.901   7.313
14624TIP3    H143808   5.256   6.844   7.339
14624TIP3    H243809   5.404   6.865   7.368
14625TIP3   OH243810   4.048   7.131   6.797
14625TIP3    H143811   4.110   7.205   6.805
14625TIP3    H243812   4.095   7.078   6.729
14626TIP3   OH243813   3.992   6.405   6.930
14626TIP3    H143814   3.994   6.503   6.927
14626TIP3    H243815   3.907   6.386   6.887
14627TIP3   OH243816   4.394   6.052   7.826
14627TIP3    H143817   4.361   6.065   7.735
14627TIP3    H243818   4.328   6.102   7.877
14628TIP3   OH243819   3.918   7.343   7.186
14628TIP3    H143820   3.842   7.376   7.236
14628TIP3    H243821   3.899   7.383   7.098
14629TIP3   OH243822   4.538   7.427   6.426
14629TIP3    H143823   4.482   7.357   6.466
14629TIP3    H243824   4.614   7.374   6.397
14630TIP3   OH243825   4.976   7.467   6.339
14630TIP3    H143826   5.022   7.405   6.398
14630TIP3    H243827   5.033   7.467   6.260
14631TIP3   OH243828   4.184   6.945   6.649
14631TIP3    H143829   4.239   6.913   6.722
14631TIP3    H243830   4.251   6.949   6.577
14632TIP3   OH243831   4.694   7.142   6.455
14632TIP3    H143832   4.695   7.156   6.552
14632TIP3    H243833   4.691   7.044   6.450
14633TIP3   OH243834   4.361   7.042   8.437
14633TIP3    H143835   4.409   6.963   8.410
14633TIP3    H243836   4.326   7.016   8.523
14634TIP3   OH243837   4.393   6.848   6.871
14634TIP3    H143838   4.364   6.809   6.956
14634TIP3    H243839   4.427   6.770   6.823
14635TIP3   OH243840   4.659   6.900   8.093
14635TIP3    H143841   4.579   6.954   8.088
14635TIP3    H243842   4.716   6.943   8.027
14636TIP3   OH243843   4.492   6.639   6.712
14636TIP3    H143844   4.465   6.645   6.618
14636TIP3    H243845   4.590   6.646   6.704
14637TIP3   OH243846   5.315   6.971   6.374
14637TIP3    H143847   5.294   6.925   6.290
14637TIP3    H243848   5.281   7.061   6.351
14638TIP3   OH243849   4.773   6.696   8.231
14638TIP3    H143850   4.772   6.619   8.171
14638TIP3    H243851   4.729   6.765   8.175
14639TIP3   OH243852   4.779   6.475   8.030
14639TIP3    H143853   4.808   6.528   7.952
14639TIP3    H243854   4.684   6.462   8.008
14640TIP3   OH243855   4.814   7.010   7.893
14640TIP3    H143856   4.895   7.025   7.842
14640TIP3    H243857   4.756   7.084   7.863
14641TIP3   OH243858   4.645   6.825   8.445
14641TIP3    H143859   4.586   6.749   8.465
14641TIP3    H243860   4.693   6.790   8.368
14642TIP3   OH243861   4.921   6.254   8.111
14642TIP3    H143862   4.870   6.333   8.083
14642TIP3    H243863   4.856   6.183   8.094
14643TIP3   OH243864   5.047   6.746   8.252
14643TIP3    H143865   5.066   6.767   8.344
14643TIP3    H243866   4.951   6.727   8.255
14644TIP3   OH243867   4.498   6.596   8.503
14644TIP3    H143868   4.508   6.513   8.453
14644TIP3    H243869   4.536   6.571   8.588
14645TIP3   OH243870   5.008   6.249   8.381
14645TIP3    H143871   5.078   6.184   8.362
14645TIP3    H243872   4.971   6.262   8.291
14646TIP3   OH243873   4.299   7.699   6.614
14646TIP3    H143874   4.395   7.699   6.597
14646TIP3    H243875   4.268   7.752   6.538
14647TIP3   OH243876   3.780   7.084   6.835
14647TIP3    H143877   3.874   7.106   6.820
14647TIP3    H243878   3.774   6.996   6.792
14648TIP3   OH243879   3.692   7.699   7.243
14648TIP3    H143880   3.624   7.638   7.206
14648TIP3    H243881   3.736   7.641   7.308
14649TIP3   OH243882   3.829   7.549   7.428
14649TIP3    H143883   3.811   7.475   7.487
14649TIP3    H243884   3.885   7.606   7.484
14650TIP3   OH243885   5.449   7.159   6.708
14650TIP3    H143886   5.516   7.224   6.678
14650TIP3    H243887   5.494   7.121   6.787
14651TIP3   OH243888   5.578   7.029   6.912
14651TIP3    H143889   5.510   6.984   6.968
14651TIP3    H243890   5.637   7.069   6.978
14652TIP3   OH243891   5.515   6.934   6.558
14652TIP3    H143892   5.443   6.937   6.490
14652TIP3    H243893   5.488   7.010   6.612
14653TIP3   OH243894   5.388   6.606   6.513
14653TIP3    H143895   5.346   6.648   6.438
14653TIP3    H243896   5.361   6.512   6.501
14654TIP3   OH243897   5.394   6.882   7.051
14654TIP3    H143898   5.399   6.785   7.049
14654TIP3    H243899   5.376   6.899   7.147
14655TIP3   OH243900   4.074   6.952   7.803
14655TIP3    H143901   4.038   6.942   7.712
14655TIP3    H243902   4.141   6.882   7.797
14656TIP3   OH243903   5.330   6.339   6.495
14656TIP3    H143904   5.404   6.311   6.553
14656TIP3    H243905   5.256   6.283   6.523
14657TIP3   OH243906   5.386   6.598   6.953
14657TIP3    H143907   5.427   6.510   6.968
14657TIP3    H243908   5.445   6.632   6.884
14658TIP3   OH243909   5.542   6.794   7.445
14658TIP3    H143910   5.632   6.807   7.408
14658TIP3    H243911   5.560   6.826   7.536
14659TIP3   OH243912   4.227   6.627   8.457
14659TIP3    H143913   4.324   6.631   8.472
14659TIP3    H243914   4.202   6.552   8.517
14660TIP3   OH243915   5.497   6.348   6.989
14660TIP3    H143916   5.544   6.334   7.074
14660TIP3    H243917   5.436   6.272   6.989
14661TIP3   OH243918   4.215   6.344   7.801
14661TIP3    H143919   4.301   6.325   7.837
14661TIP3    H243920   4.224   6.442   7.793
14662TIP3   OH243921   3.977   6.612   7.877
14662TIP3    H143922   4.042   6.588   7.809
14662TIP3    H243923   4.035   6.670   7.929
14663TIP3   OH243924   5.578   6.284   6.623
14663TIP3    H143925   5.617   6.212   6.570
14663TIP3    H243926   5.645   6.354   6.617
14664TIP3   OH243927   3.982   6.107   7.384
14664TIP3    H143928   3.888   6.109   7.410
14664TIP3    H243929   3.982   6.169   7.307
14665TIP3   OH243930   5.146   7.786   6.872
14665TIP3    H143931   5.192   7.796   6.785
14665TIP3    H243932   5.090   7.866   6.878
14666TIP3   OH243933   4.194   6.173   8.183
14666TIP3    H143934   4.155   6.181   8.272
14666TIP3    H243935   4.133   6.231   8.133
14667TIP3   OH243936   4.409   7.624   7.815
14667TIP3    H143937   4.362   7.707   7.793
14667TIP3    H243938   4.465   7.617   7.737
14668TIP3   OH243939   5.847   6.383   7.910
14668TIP3    H143940   5.764   6.421   7.881
14668TIP3    H243941   5.851   6.301   7.861
14669TIP3   OH243942   4.335   7.835   7.659
14669TIP3    H143943   4.296   7.882   7.736
14669TIP3    H243944   4.322   7.904   7.590
14670TIP3   OH243945   4.002   7.692   7.594
14670TIP3    H143946   4.038   7.689   7.685
14670TIP3    H243947   4.079   7.659   7.543
14671TIP3   OH243948   4.198   7.573   7.449
14671TIP3    H143949   4.222   7.487   7.489
14671TIP3    H243950   4.287   7.612   7.430
14672TIP3   OH243951   4.458   7.667   7.431
14672TIP3    H143952   4.504   7.582   7.440
14672TIP3    H243953   4.465   7.707   7.519
14673TIP3   OH243954   5.052   6.327   7.544
14673TIP3    H143955   5.002   6.257   7.589
14673TIP3    H243956   5.120   6.278   7.495
14674TIP3   OH243957   5.568   6.198   7.441
14674TIP3    H143958   5.605   6.256   7.371
14674TIP3    H243959   5.474   6.225   7.440
14675TIP3   OH243960   5.662   6.305   7.208
14675TIP3    H143961   5.736   6.256   7.165
14675TIP3    H243962   5.693   6.398   7.193
14676TIP3   OH243963   4.296   6.011   7.563
14676TIP3    H143964   4.201   5.991   7.574
14676TIP3    H243965   4.318   5.950   7.492
14677TIP3   OH243966   4.094   5.904   7.210
14677TIP3    H143967   4.115   5.958   7.131
14677TIP3    H243968   4.051   5.970   7.268
14678TIP3   OH243969   4.735   6.061   7.441
14678TIP3    H143970   4.785   6.111   7.374
14678TIP3    H243971   4.759   6.109   7.522
14679TIP3   OH243972   5.284   6.212   7.420
14679TIP3    H143973   5.281   6.179   7.329
14679TIP3    H243974   5.269   6.131   7.473
14680TIP3   OH243975   5.313   6.136   6.981
14680TIP3    H143976   5.227   6.181   6.993
14680TIP3    H243977   5.296   6.051   7.027
14681TIP3   OH243978   3.796   7.475   6.985
14681TIP3    H143979   3.711   7.443   6.950
14681TIP3    H243980   3.786   7.570   6.964
14682TIP3   OH243981   4.196   6.058   6.970
14682TIP3    H143982   4.244   6.000   6.909
14682TIP3    H243983   4.268   6.116   7.004
14683TIP3   OH243984   4.710   6.237   7.066
14683TIP3    H143985   4.775   6.195   7.125
14683TIP3    H243986   4.726   6.331   7.089
14684TIP3   OH243987   4.569   7.663   6.566
14684TIP3    H143988   4.656   7.687   6.528
14684TIP3    H243989   4.546   7.589   6.505
14685TIP3   OH243990   5.296   7.793   6.645
14685TIP3    H143991   5.293   7.695   6.637
14685TIP3    H243992   5.252   7.819   6.561
14686TIP3   OH243993   4.490   6.311   8.443
14686TIP3    H143994   4.455   6.241   8.501
14686TIP3    H243995   4.585   6.308   8.468
14687TIP3   OH243996   4.746   6.293   8.542
14687TIP3    H143997   4.829   6.299   8.492
14687TIP3    H243998   4.776   6.250   8.623
14688TIP3   OH243999   3.870   7.497   6.620
14688TIP3    H144000   3.870   7.532   6.711
14688TIP3    H244001   3.960   7.459   6.612
14689TIP3   OH244002   5.751   6.809   6.870
14689TIP3    H144003   5.700   6.891   6.883
14689TIP3    H244004   5.683   6.753   6.829
14690TIP3   OH244005   5.814   7.099   7.040
14690TIP3    H144006   5.866   7.036   7.094
14690TIP3    H244007   5.861   7.098   6.956
14691TIP3   OH244008   6.294   6.705   7.060
14691TIP3    H144009   6.295   6.768   6.986
14691TIP3    H244010   6.264   6.625   7.013
14692TIP3   OH244011   5.972   6.889   7.145
14692TIP3    H144012   6.065   6.863   7.152
14692TIP3    H244013   5.946   6.833   7.069
14693TIP3   OH244014   5.652   7.321   6.599
14693TIP3    H144015   5.608   7.349   6.517
14693TIP3    H244016   5.682   7.408   6.634
14694TIP3   OH244017   6.578   6.938   6.166
14694TIP3    H144018   6.656   6.983   6.202
14694TIP3    H244019   6.622   6.868   6.114
14695TIP3   OH244020   7.290   6.321   6.247
14695TIP3    H144021   7.215   6.322   6.310
14695TIP3    H244022   7.289   6.415   6.219
14696TIP3   OH244023   6.054   7.069   6.623
14696TIP3    H144024   5.984   7.117   6.573
14696TIP3    H244025   6.012   6.985   6.642
14697TIP3   OH244026   6.866   7.151   5.935
14697TIP3    H144027   6.827   7.108   5.857
14697TIP3    H244028   6.961   7.136   5.919
14698TIP3   OH244029   6.586   6.515   6.282
14698TIP3    H144030   6.556   6.509   6.375
14698TIP3    H244031   6.551   6.431   6.248
14699TIP3   OH244032   6.240   6.861   6.837
14699TIP3    H144033   6.151   6.831   6.865
14699TIP3    H244034   6.247   6.817   6.749
14700TIP3   OH244035   6.242   6.486   6.252
14700TIP3    H144036   6.234   6.482   6.349
14700TIP3    H244037   6.162   6.538   6.229
14701TIP3   OH244038   5.781   6.530   7.117
14701TIP3    H144039   5.856   6.565   7.168
14701TIP3    H244040   5.822   6.495   7.037
14702TIP3   OH244041   5.759   6.511   6.642
14702TIP3    H144042   5.804   6.550   6.564
14702TIP3    H244043   5.697   6.584   6.663
14703TIP3   OH244044   6.010   6.737   6.916
14703TIP3    H144045   5.915   6.740   6.888
14703TIP3    H244046   6.036   6.645   6.897
14704TIP3   OH244047   6.285   6.733   6.600
14704TIP3    H144048   6.379   6.749   6.577
14704TIP3    H244049   6.237   6.758   6.518
14705TIP3   OH244050   6.128   6.775   6.384
14705TIP3    H144051   6.055   6.729   6.339
14705TIP3    H244052   6.180   6.807   6.307
14706TIP3   OH244053   6.193   6.506   6.885
14706TIP3    H144054   6.158   6.427   6.931
14706TIP3    H244055   6.238   6.467   6.809
14707TIP3   OH244056   6.352   7.320   6.396
14707TIP3    H144057   6.293   7.242   6.386
14707TIP3    H244058   6.334   7.347   6.487
14708TIP3   OH244059   6.836   6.630   6.265
14708TIP3    H144060   6.741   6.605   6.261
14708TIP3    H244061   6.839   6.720   6.231
14709TIP3   OH244062   5.737   6.932   6.394
14709TIP3    H144063   5.780   7.018   6.412
14709TIP3    H244064   5.659   6.937   6.454
14710TIP3   OH244065   6.168   7.473   5.988
14710TIP3    H144066   6.186   7.385   5.951
14710TIP3    H244067   6.144   7.448   6.079
14711TIP3   OH244068   6.151   7.471   6.264
14711TIP3    H144069   6.232   7.423   6.293
14711TIP3    H244070   6.185   7.559   6.243
14712TIP3   OH244071   5.850   7.179   6.475
14712TIP3    H144072   5.785   7.223   6.534
14712TIP3    H244073   5.860   7.250   6.408
14713TIP3   OH244074   6.870   6.573   6.532
14713TIP3    H144075   6.863   6.600   6.437
14713TIP3    H244076   6.952   6.617   6.559
14714TIP3   OH244077   6.568   6.744   6.631
14714TIP3    H144078   6.643   6.805   6.618
14714TIP3    H244079   6.546   6.765   6.723
14715TIP3   OH244080   6.720   6.479   6.741
14715TIP3    H144081   6.752   6.543   6.805
14715TIP3    H244082   6.770   6.511   6.661
14716TIP3   OH244083   6.226   6.469   6.529
14716TIP3    H144084   6.226   6.560   6.565
14716TIP3    H244085   6.322   6.450   6.535
14717TIP3   OH244086   5.840   7.387   6.286
14717TIP3    H144087   5.889   7.469   6.299
14717TIP3    H244088   5.896   7.341   6.220
14718TIP3   OH244089   5.790   6.664   6.416
14718TIP3    H144090   5.789   6.761   6.413
14718TIP3    H244091   5.706   6.642   6.375
14719TIP3   OH244092   6.140   6.378   7.300
14719TIP3    H144093   6.139   6.352   7.206
14719TIP3    H244094   6.162   6.294   7.345
14720TIP3   OH244095   5.703   7.580   6.653
14720TIP3    H144096   5.642   7.628   6.711
14720TIP3    H244097   5.704   7.638   6.574
14721TIP3   OH244098   6.332   7.681   5.918
14721TIP3    H144099   6.275   7.606   5.945
14721TIP3    H244100   6.413   7.634   5.893
14722TIP3   OH244101   5.986   7.211   6.138
14722TIP3    H144102   6.036   7.166   6.207
14722TIP3    H244103   6.050   7.207   6.063
14723TIP3   OH244104   6.475   7.392   5.951
14723TIP3    H144105   6.483   7.401   6.046
14723TIP3    H244106   6.484   7.295   5.941
14724TIP3   OH244107   6.200   7.097   6.371
14724TIP3    H144108   6.153   7.057   6.446
14724TIP3    H244109   6.226   7.019   6.317
14725TIP3   OH244110   6.289   6.897   6.198
14725TIP3    H144111   6.262   6.900   6.104
14725TIP3    H244112   6.386   6.901   6.190
14726TIP3   OH244113   5.572   7.340   6.318
14726TIP3    H144114   5.667   7.362   6.307
14726TIP3    H244115   5.569   7.251   6.276
14727TIP3   OH244116   7.110   6.857   6.039
14727TIP3    H144117   7.134   6.913   5.964
14727TIP3    H244118   7.135   6.768   6.007
14728TIP3   OH244119   7.134   6.584   5.971
14728TIP3    H144120   7.211   6.574   6.031
14728TIP3    H244121   7.062   6.543   6.020
14729TIP3   OH244122   5.984   6.598   7.283
14729TIP3    H144123   6.040   6.518   7.290
14729TIP3    H244124   6.037   6.665   7.326
14730TIP3   OH244125   5.798   6.884   7.380
14730TIP3    H144126   5.856   6.874   7.302
14730TIP3    H244127   5.781   6.981   7.379
14731TIP3   OH244128   7.405   6.562   6.056
14731TIP3    H144129   7.437   6.472   6.033
14731TIP3    H244130   7.483   6.607   6.088
14732TIP3   OH244131   5.778   6.370   6.871
14732TIP3    H144132   5.685   6.366   6.897
14732TIP3    H244133   5.775   6.428   6.792
14733TIP3   OH244134   6.091   6.293   7.037
14733TIP3    H144135   5.998   6.261   7.039
14733TIP3    H244136   6.138   6.207   7.032
14734TIP3   OH244137   5.877   6.160   6.690
14734TIP3    H144138   5.905   6.217   6.617
14734TIP3    H244139   5.847   6.226   6.757
14735TIP3   OH244140   6.536   6.315   6.925
14735TIP3    H144141   6.591   6.370   6.867
14735TIP3    H244142   6.522   6.372   7.001
14736TIP3   OH244143   7.080   6.364   6.447
14736TIP3    H144144   7.007   6.426   6.462
14736TIP3    H244145   7.051   6.285   6.496
14737TIP3   OH244146   5.605   7.733   6.437
14737TIP3    H144147   5.516   7.699   6.418
14737TIP3    H244148   5.584   7.826   6.453
14738TIP3   OH244149   5.992   6.319   6.453
14738TIP3    H144150   6.040   6.256   6.395
14738TIP3    H244151   6.065   6.373   6.489
14739TIP3   OH244152   6.505   6.490   6.550
14739TIP3    H144153   6.565   6.443   6.609
14739TIP3    H244154   6.528   6.583   6.574
14740TIP3   OH244155   5.671   7.757   6.110
14740TIP3    H144156   5.654   7.765   6.205
14740TIP3    H244157   5.759   7.715   6.107
14741TIP3   OH244158   2.634   8.236   6.799
14741TIP3    H144159   2.689   8.308   6.835
14741TIP3    H244160   2.698   8.188   6.742
14742TIP3   OH244161   3.363   7.629   6.945
14742TIP3    H144162   3.284   7.647   7.001
14742TIP3    H244163   3.375   7.715   6.901
14743TIP3   OH244164   2.926   8.394   6.642
14743TIP3    H144165   2.883   8.387   6.555
14743TIP3    H244166   2.970   8.479   6.636
14744TIP3   OH244167   2.612   7.825   6.940
14744TIP3    H144168   2.610   7.811   7.035
14744TIP3    H244169   2.580   7.738   6.908
14745TIP3   OH244170   2.288   7.777   6.892
14745TIP3    H144171   2.275   7.795   6.988
14745TIP3    H244172   2.211   7.822   6.854
14746TIP3   OH244173   2.881   7.897   6.919
14746TIP3    H144174   2.784   7.899   6.912
14746TIP3    H244175   2.908   7.988   6.893
14747TIP3   OH244176   2.991   8.142   6.874
14747TIP3    H144177   3.026   8.150   6.964
14747TIP3    H244178   2.956   8.232   6.860
14748TIP3   OH244179   3.393   8.243   6.836
14748TIP3    H144180   3.331   8.196   6.774
14748TIP3    H244181   3.390   8.331   6.793
14749TIP3   OH244182   2.988   7.872   7.170
14749TIP3    H144183   2.949   7.877   7.080
14749TIP3    H244184   2.967   7.961   7.203
14750TIP3   OH244185   3.162   8.545   6.520
14750TIP3    H144186   3.130   8.488   6.446
14750TIP3    H244187   3.153   8.632   6.479
14751TIP3   OH244188   3.357   8.498   6.702
14751TIP3    H144189   3.283   8.487   6.637
14751TIP3    H244190   3.359   8.595   6.705
14752TIP3   OH244191   3.232   8.162   6.635
14752TIP3    H144192   3.160   8.203   6.585
14752TIP3    H244193   3.202   8.068   6.635
14753TIP3   OH244194   3.173   7.892   6.644
14753TIP3    H144195   3.246   7.870   6.705
14753TIP3    H244196   3.099   7.839   6.676
14754TIP3   OH244197   3.266   8.160   7.078
14754TIP3    H144198   3.306   8.075   7.107
14754TIP3    H244199   3.311   8.176   6.994
14755TIP3   OH244200   3.353   7.900   7.131
14755TIP3    H144201   3.386   7.893   7.223
14755TIP3    H244202   3.284   7.831   7.130
14756TIP3   OH244203   3.419   7.843   6.774
14756TIP3    H144204   3.460   7.772   6.720
14756TIP3    H244205   3.486   7.915   6.768
14757TIP3   OH244206   3.424   7.781   7.601
14757TIP3    H144207   3.459   7.816   7.516
14757TIP3    H244208   3.328   7.772   7.580
14758TIP3   OH244209   3.507   7.869   7.361
14758TIP3    H144210   3.577   7.821   7.312
14758TIP3    H244211   3.534   7.962   7.342
14759TIP3   OH244212   3.159   7.751   7.573
14759TIP3    H144213   3.102   7.759   7.495
14759TIP3    H244214   3.117   7.676   7.621
14760TIP3   OH244215   3.172   7.681   7.129
14760TIP3    H144216   3.098   7.743   7.146
14760TIP3    H244217   3.141   7.601   7.177
14761TIP3   OH244218   2.037   7.610   7.093
14761TIP3    H144219   2.075   7.538   7.039
14761TIP3    H244220   2.111   7.626   7.155
14762TIP3   OH244221   3.583   8.329   7.024
14762TIP3    H144222   3.569   8.420   6.991
14762TIP3    H244223   3.509   8.283   6.981
14763TIP3   OH244224   4.172   8.241   7.181
14763TIP3    H144225   4.145   8.315   7.122
14763TIP3    H244226   4.123   8.167   7.137
14764TIP3   OH244227   4.871   8.295   6.799
14764TIP3    H144228   4.921   8.313   6.880
14764TIP3    H244229   4.869   8.383   6.759
14765TIP3   OH244230   4.253   8.627   7.101
14765TIP3    H144231   4.341   8.593   7.083
14765TIP3    H244232   4.195   8.556   7.067
14766TIP3   OH244233   4.036   8.345   7.394
14766TIP3    H144234   4.098   8.417   7.409
14766TIP3    H244235   4.084   8.296   7.324
14767TIP3   OH244236   4.505   7.940   7.322
14767TIP3    H144237   4.506   7.847   7.348
14767TIP3    H244238   4.437   7.978   7.382
14768TIP3   OH244239   4.448   8.693   6.583
14768TIP3    H144240   4.371   8.752   6.571
14768TIP3    H244241   4.496   8.705   6.499
14769TIP3   OH244242   4.409   8.488   6.309
14769TIP3    H144243   4.470   8.537   6.366
14769TIP3    H244244   4.471   8.427   6.262
14770TIP3   OH244245   4.057   8.775   6.930
14770TIP3    H144246   4.041   8.686   6.895
14770TIP3    H244247   4.123   8.760   7.000
14771TIP3   OH244248   4.647   8.661   6.389
14771TIP3    H144249   4.711   8.724   6.424
14771TIP3    H244250   4.665   8.668   6.292
14772TIP3   OH244251   5.150   7.890   6.433
14772TIP3    H144252   5.069   7.909   6.485
14772TIP3    H244253   5.162   7.973   6.384
14773TIP3   OH244254   3.917   8.594   6.763
14773TIP3    H144255   3.858   8.671   6.754
14773TIP3    H244256   3.855   8.523   6.784
14774TIP3   OH244257   4.287   8.031   7.469
14774TIP3    H144258   4.195   8.006   7.447
14774TIP3    H244259   4.275   8.122   7.501
14775TIP3   OH244260   4.722   8.673   6.134
14775TIP3    H144261   4.686   8.651   6.046
14775TIP3    H244262   4.764   8.758   6.116
14776TIP3   OH244263   4.430   8.067   6.437
14776TIP3    H144264   4.395   8.066   6.528
14776TIP3    H244265   4.387   7.986   6.403
14777TIP3   OH244266   4.102   8.426   6.991
14777TIP3    H144267   4.010   8.391   7.003
14777TIP3    H244268   4.120   8.387   6.902
14778TIP3   OH244269   4.585   8.504   6.720
14778TIP3    H144270   4.532   8.578   6.683
14778TIP3    H244271   4.628   8.470   6.639
14779TIP3   OH244272   4.083   8.042   6.403
14779TIP3    H144273   4.072   8.042   6.500
14779TIP3    H244274   4.007   8.097   6.376
14780TIP3   OH244275   3.633   8.092   7.270
14780TIP3    H144276   3.713   8.119   7.319
14780TIP3    H244277   3.667   8.058   7.186
14781TIP3   OH244278   3.603   8.064   6.792
14781TIP3    H144279   3.649   8.103   6.715
14781TIP3    H244280   3.539   8.136   6.810
14782TIP3   OH244281   4.419   8.262   7.057
14782TIP3    H144282   4.336   8.250   7.107
14782TIP3    H244283   4.485   8.223   7.119
14783TIP3   OH244284   3.868   8.304   7.034
14783TIP3    H144285   3.772   8.309   7.051
14783TIP3    H244286   3.884   8.208   7.033
14784TIP3   OH244287   4.133   8.294   6.753
14784TIP3    H144288   4.224   8.314   6.726
14784TIP3    H244289   4.080   8.319   6.674
14785TIP3   OH244290   3.971   8.323   6.536
14785TIP3    H144291   3.900   8.282   6.484
14785TIP3    H244292   4.024   8.365   6.465
14786TIP3   OH244293   4.038   8.055   7.035
14786TIP3    H144294   4.003   7.975   7.079
14786TIP3    H244295   4.077   8.019   6.954
14787TIP3   OH244296   4.221   8.844   6.548
14787TIP3    H144297   4.147   8.782   6.530
14787TIP3    H244298   4.196   8.879   6.635
14788TIP3   OH244299   4.678   8.169   6.396
14788TIP3    H144300   4.582   8.148   6.408
14788TIP3    H244301   4.682   8.264   6.421
14789TIP3   OH244302   4.717   8.417   6.495
14789TIP3    H144303   4.814   8.415   6.512
14789TIP3    H244304   4.708   8.501   6.446
14790TIP3   OH244305   4.334   9.014   6.365
14790TIP3    H144306   4.299   9.088   6.418
14790TIP3    H244307   4.302   8.940   6.421
14791TIP3   OH244308   5.205   8.461   6.299
14791TIP3    H144309   5.119   8.434   6.258
14791TIP3    H244310   5.210   8.551   6.259
14792TIP3   OH244311   3.584   8.485   6.541
14792TIP3    H144312   3.627   8.571   6.560
14792TIP3    H244313   3.506   8.490   6.600
14793TIP3   OH244314   4.695   8.977   6.154
14793TIP3    H144315   4.738   9.051   6.199
14793TIP3    H244316   4.604   9.013   6.143
14794TIP3   OH244317   4.011   9.009   6.199
14794TIP3    H144318   4.001   8.921   6.159
14794TIP3    H244319   4.015   8.990   6.293
14795TIP3   OH244320   3.681   8.731   6.623
14795TIP3    H144321   3.705   8.780   6.703
14795TIP3    H244322   3.701   8.797   6.553
14796TIP3   OH244323   4.718   8.108   6.675
14796TIP3    H144324   4.702   8.142   6.584
14796TIP3    H244325   4.767   8.182   6.716
14797TIP3   OH244326   4.416   8.300   6.786
14797TIP3    H144327   4.479   8.373   6.767
14797TIP3    H244328   4.416   8.300   6.884
14798TIP3   OH244329   4.556   8.031   6.887
14798TIP3    H144330   4.545   8.113   6.939
14798TIP3    H244331   4.616   8.062   6.815
14799TIP3   OH244332   4.068   8.028   6.681
14799TIP3    H144333   4.064   8.121   6.713
14799TIP3    H244334   4.164   8.013   6.688
14800TIP3   OH244335   3.701   8.952   6.444
14800TIP3    H144336   3.728   9.045   6.429
14800TIP3    H244337   3.747   8.907   6.370
14801TIP3   OH244338   3.629   8.216   6.567
14801TIP3    H144339   3.636   8.313   6.559
14801TIP3    H244340   3.542   8.199   6.528
14802TIP3   OH244341   4.029   7.933   7.439
14802TIP3    H144342   3.995   7.903   7.352
14802TIP3    H244343   4.010   7.857   7.496
14803TIP3   OH244344   3.827   8.763   6.268
14803TIP3    H144345   3.884   8.715   6.330
14803TIP3    H244346   3.869   8.739   6.181
14804TIP3   OH244347   4.286   8.933   6.096
14804TIP3    H144348   4.286   8.940   6.193
14804TIP3    H244349   4.307   8.838   6.084
14805TIP3   OH244350   4.025   8.659   6.510
14805TIP3    H144351   3.993   8.618   6.593
14805TIP3    H244352   4.062   8.581   6.462
14806TIP3   OH244353   4.131   8.452   6.358
14806TIP3    H144354   4.101   8.438   6.265
14806TIP3    H244355   4.227   8.461   6.344
14807TIP3   OH244356   4.960   8.797   6.011
14807TIP3    H144357   4.931   8.744   5.934
14807TIP3    H244358   4.939   8.887   5.977
14808TIP3   OH244359   3.432   8.879   6.490
14808TIP3    H144360   3.519   8.912   6.462
14808TIP3    H244361   3.420   8.801   6.432
14809TIP3   OH244362   5.173   8.689   6.161
14809TIP3    H144363   5.093   8.704   6.106
14809TIP3    H244364   5.221   8.773   6.143
14810TIP3   OH244365   4.993   8.418   6.137
14810TIP3    H144366   4.957   8.454   6.056
14810TIP3    H244367   4.971   8.323   6.128
14811TIP3   OH244368   4.957   8.151   6.123
14811TIP3    H144369   5.033   8.123   6.178
14811TIP3    H244370   4.884   8.093   6.153
14812TIP3   OH244371   4.980   8.403   6.560
14812TIP3    H144372   5.010   8.326   6.612
14812TIP3    H244373   5.041   8.473   6.586
14813TIP3   OH244374   5.118   8.168   6.648
14813TIP3    H144375   5.128   8.161   6.744
14813TIP3    H244376   5.054   8.096   6.632
14814TIP3   OH244377   3.852   8.143   7.434
14814TIP3    H144378   3.922   8.075   7.439
14814TIP3    H244379   3.906   8.223   7.410
14815TIP3   OH244380   5.198   8.092   6.243
14815TIP3    H144381   5.237   8.017   6.194
14815TIP3    H244382   5.267   8.160   6.236
14816TIP3   OH244383   3.621   7.925   7.023
14816TIP3    H144384   3.527   7.919   7.048
14816TIP3    H244385   3.618   7.984   6.945
14817TIP3   OH244386   4.627   8.126   7.168
14817TIP3    H144387   4.595   8.046   7.215
14817TIP3    H244388   4.703   8.094   7.118
14818TIP3   OH244389   3.929   7.847   7.195
14818TIP3    H144390   3.836   7.817   7.193
14818TIP3    H244391   3.976   7.761   7.187
14819TIP3   OH244392   3.720   7.718   6.840
14819TIP3    H144393   3.746   7.776   6.767
14819TIP3    H244394   3.687   7.783   6.906
14820TIP3   OH244395   4.372   7.877   7.073
14820TIP3    H144396   4.430   7.927   7.013
14820TIP3    H244397   4.396   7.914   7.159
14821TIP3   OH244398   4.961   7.949   6.998
14821TIP3    H144399   4.947   8.042   7.026
14821TIP3    H244400   4.920   7.901   7.073
14822TIP3   OH244401   4.947   7.950   6.620
14822TIP3    H144402   4.860   7.993   6.631
14822TIP3    H244403   4.928   7.864   6.663
14823TIP3   OH244404   3.832   7.876   6.605
14823TIP3    H144405   3.883   7.817   6.546
14823TIP3    H244406   3.904   7.932   6.641
14824TIP3   OH244407   4.346   8.051   6.701
14824TIP3    H144408   4.407   8.006   6.762
14824TIP3    H244409   4.365   8.144   6.726
14825TIP3   OH244410   5.871   8.314   5.901
14825TIP3    H144411   5.837   8.286   5.986
14825TIP3    H244412   5.790   8.351   5.859
14826TIP3   OH244413   5.404   8.284   6.266
14826TIP3    H144414   5.450   8.320   6.188
14826TIP3    H244415   5.341   8.359   6.282
14827TIP3   OH244416   5.388   8.433   6.026
14827TIP3    H144417   5.430   8.520   6.043
14827TIP3    H244418   5.294   8.452   6.036
14828TIP3   OH244419   5.359   8.127   6.478
14828TIP3    H144420   5.277   8.159   6.519
14828TIP3    H244421   5.374   8.196   6.410
14829TIP3   OH244422   5.495   7.969   6.295
14829TIP3    H144423   5.514   8.036   6.227
14829TIP3    H244424   5.444   8.020   6.361
14830TIP3   OH244425   5.620   8.134   6.087
14830TIP3    H144426   5.667   8.067   6.032
14830TIP3    H244427   5.690   8.172   6.140
   8.50000   8.01388   6.94022   0.00000   0.00000  -2.83333   0.00000  -2.83333  -4.00694
