Title
51181
    1GLY      N    1   6.715   4.672   3.745 -0.0068  0.1891 -0.5910
    1GLY    HT1    2   6.750   4.584   3.701 -0.1669 -0.4699  0.5773
    1GLY    HT2    3   6.798   4.734   3.756  1.3652 -1.8851  1.1719
    1GLY    HT3    4   6.651   4.725   3.683 -0.0410  0.8631  0.0004
    1GLY     CA    5   6.662   4.643   3.882 -0.1668 -0.3805 -0.1623
    1GLY    HA1    6   6.653   4.739   3.930  0.4727 -0.1302 -0.5343
    1GLY    HA2    7   6.723   4.569   3.933 -1.6610 -0.8576  0.9581
    1GLY      C    8   6.529   4.587   3.881  0.6334 -0.3306  1.1042
    1GLY      O    9   6.463   4.578   3.769 -0.2401 -0.5512 -0.1193
    2PRO      N   10   6.475   4.549   3.995 -0.6514 -0.2662  0.6077
    2PRO     CD   11   6.528   4.573   4.128  0.1702  0.1572 -0.1718
    2PRO    HD1   12   6.537   4.683   4.136  2.4878 -0.0323  0.1455
    2PRO    HD2   13   6.628   4.524   4.129 -0.2240 -0.6501 -0.1585
    2PRO     CA   14   6.338   4.484   3.997 -0.2469 -0.5537  0.1569
    2PRO     HA   15   6.325   4.412   3.918 -1.6464  1.3504 -1.3941
    2PRO     CB   16   6.335   4.418   4.134 -0.2758  0.2291 -0.1614
    2PRO    HB1   17   6.383   4.318   4.125 -3.0375 -1.1767  0.3592
    2PRO    HB2   18   6.233   4.404   4.174  0.2185  1.8085  1.7190
    2PRO     CG   19   6.418   4.518   4.228  0.1154  0.0241 -0.1555
    2PRO    HG1   20   6.363   4.608   4.261  0.6398 -0.1820  1.3106
    2PRO    HG2   21   6.475   4.462   4.305 -1.2430  0.2143  1.0073
    2PRO      C   22   6.224   4.588   3.986 -0.4122 -0.3345 -0.3886
    2PRO      O   23   6.235   4.698   4.041  0.5562  0.9060  0.7236
    3GLY      N   24   6.121   4.553   3.912 -0.3427 -0.7967 -0.0365
    3GLY     HN   25   6.115   4.462   3.870  0.2122 -0.4027 -0.9715
    3GLY     CA   26   6.011   4.643   3.877 -0.0550  0.5251  0.1205
    3GLY    HA1   27   5.953   4.592   3.802  0.0158  1.7172 -0.7463
    3GLY    HA2   28   6.064   4.729   3.840  1.9887 -1.9247 -2.8975
    3GLY      C   29   5.908   4.679   3.985  0.3349  0.5356 -0.4944
    3GLY      O   30   5.922   4.664   4.108  0.4136  0.7348  0.1354
    4ASP      N   31   5.792   4.741   3.934 -0.0944 -0.3228  0.0420
    4ASP     HN   32   5.775   4.759   3.837 -1.5027 -0.1950  0.2967
    4ASP     CA   33   5.698   4.799   4.026  0.6914 -0.3940 -0.2699
    4ASP     HA   34   5.744   4.859   4.103  0.6846  1.4146 -1.6567
    4ASP     CB   35   5.601   4.900   3.954  0.6664 -0.5991 -0.0381
    4ASP    HB1   36   5.539   4.941   4.037  0.5885 -0.2574 -0.2622
    4ASP    HB2   37   5.543   4.839   3.882 -1.5595 -0.4649  1.5810
    4ASP     CG   38   5.673   5.024   3.897 -0.4587  0.1411  0.3588
    4ASP    OD1   39   5.790   5.066   3.931  0.1584 -0.2080 -0.0808
    4ASP    OD2   40   5.610   5.092   3.819  0.1424 -0.2178 -0.0343
    4ASP      C   41   5.608   4.678   4.082 -0.1951  0.5196  0.1429
    4ASP      O   42   5.551   4.604   4.003 -0.5787 -0.2183  0.3730
    5PRO      N   43   5.580   4.673   4.215  0.8879 -0.4411 -0.2024
    5PRO     CD   44   5.646   4.733   4.328  0.0535  0.0348  0.3328
    5PRO    HD1   45   5.596   4.832   4.335 -2.6615 -1.0862 -2.2969
    5PRO    HD2   46   5.757   4.726   4.316 -0.0069  3.7508 -3.8460
    5PRO     CA   47   5.471   4.590   4.260 -0.0837 -0.4942 -0.7327
    5PRO     HA   48   5.503   4.488   4.247  3.1212  0.0110  2.4200
    5PRO     CB   49   5.455   4.617   4.411 -0.2329  0.5506 -0.5204
    5PRO    HB1   50   5.432   4.518   4.456 -0.8182 -0.6860 -3.4113
    5PRO    HB2   51   5.384   4.698   4.435  0.3025  0.3545  1.8792
    5PRO     CG   52   5.598   4.648   4.447  0.0684  0.9587 -1.0032
    5PRO    HG1   53   5.610   4.705   4.542 -0.6927 -0.7146  0.1128
    5PRO    HG2   54   5.657   4.554   4.450 -0.1565  0.8587  1.2019
    5PRO      C   55   5.339   4.610   4.181  0.4961  0.2122  0.2310
    5PRO      O   56   5.302   4.720   4.154  0.8418  0.0457  0.0837
    6GLY      N   57   5.269   4.505   4.145 -0.0110  0.3675  0.1001
    6GLY     HN   58   5.288   4.409   4.167  1.6524  0.6524 -0.0426
    6GLY     CA   59   5.142   4.515   4.081  0.3867  0.2027  0.3964
    6GLY    HA1   60   5.095   4.417   4.085  1.3950 -0.2482  1.7191
    6GLY    HA2   61   5.159   4.553   3.982  2.7991 -0.2411  0.5929
    6GLY      C   62   5.036   4.598   4.160 -0.5586 -0.8210 -0.0580
    6GLY      O   63   5.042   4.621   4.282 -0.4257 -0.0234 -0.3978
    7SER      N   64   4.927   4.635   4.089 -0.6805  0.0391  0.4790
    7SER     HN   65   4.918   4.608   3.994 -0.7612 -0.8360  0.7295
    7SER     CA   66   4.817   4.714   4.152  0.0920  0.2019 -0.0381
    7SER     HA   67   4.868   4.793   4.206 -0.2301 -0.4104  1.1821
    7SER     CB   68   4.719   4.778   4.045 -0.3632  0.3915 -0.4712
    7SER    HB1   69   4.657   4.863   4.081 -0.4477  1.0281 -2.0520
    7SER    HB2   70   4.648   4.696   4.020  1.7661 -1.1785 -1.5339
    7SER     OG   71   4.780   4.833   3.925 -0.0693 -0.0721 -0.0271
    7SER    HG1   72   4.839   4.901   3.957 -0.4725  0.5657 -0.6289
    7SER      C   73   4.747   4.629   4.256  0.5217 -0.6880 -0.1712
    7SER      O   74   4.741   4.507   4.242  0.3799 -0.5001  0.4594
    8ASP      N   75   4.698   4.697   4.365 -0.2630 -0.4017  0.0663
    8ASP     HN   76   4.713   4.795   4.371  0.5564 -0.6547  2.7206
    8ASP     CA   77   4.618   4.654   4.471 -0.3512 -0.3937 -0.2668
    8ASP     HA   78   4.679   4.578   4.519 -0.9745 -1.4407 -1.1040
    8ASP     CB   79   4.561   4.777   4.555  0.0060  0.2461 -0.2048
    8ASP    HB1   80   4.506   4.733   4.641 -1.9856  1.7417 -0.6805
    8ASP    HB2   81   4.487   4.833   4.495 -0.0848 -0.8840 -1.1682
    8ASP     CG   82   4.668   4.874   4.603  0.6796 -0.2574 -0.3093
    8ASP    OD1   83   4.781   4.830   4.600 -0.1098 -0.5923  0.1031
    8ASP    OD2   84   4.638   4.987   4.650  0.4055 -0.4677 -0.2692
    8ASP      C   85   4.494   4.573   4.420 -0.2482 -0.0642 -0.4581
    8ASP      O   86   4.439   4.596   4.314 -0.5214 -0.0154  0.3586
    9GLY      N   87   4.460   4.466   4.493  0.1008 -0.2569 -0.4738
    9GLY     HN   88   4.509   4.457   4.580 -0.6620  0.1166  0.0022
    9GLY     CA   89   4.348   4.380   4.454  0.1442  0.0381  0.0383
    9GLY    HA1   90   4.335   4.315   4.539 -1.2980  0.4969  0.1805
    9GLY    HA2   91   4.377   4.349   4.355  0.3104  2.0055 -0.5582
    9GLY      C   92   4.210   4.447   4.443 -0.3244 -0.2873 -0.1243
    9GLY      O   93   4.183   4.563   4.492 -0.4690  0.3077  0.4113
   10PRO      N   94   4.105   4.393   4.380  0.8760 -0.5114  0.4948
   10PRO     CD   95   4.113   4.258   4.321 -0.8818 -0.4088 -0.2911
   10PRO    HD1   96   4.177   4.196   4.388 -0.4816 -0.4308 -0.6952
   10PRO    HD2   97   4.159   4.266   4.220 -0.4655 -0.1083 -0.0803
   10PRO     CA   98   3.975   4.446   4.380  0.1552  0.0289  0.1733
   10PRO     HA   99   3.979   4.547   4.343  2.1985  0.0698  0.4490
   10PRO     CB  100   3.899   4.355   4.290 -0.1102 -0.4528 -0.2455
   10PRO    HB1  101   3.924   4.393   4.188 -0.0686  0.5007  0.1164
   10PRO    HB2  102   3.789   4.354   4.303 -0.1352 -0.0082 -0.4308
   10PRO     CG  103   3.974   4.219   4.307 -0.7786 -0.4174 -0.4328
   10PRO    HG1  104   3.945   4.185   4.408 -0.3824  0.9876  0.1684
   10PRO    HG2  105   3.952   4.144   4.228 -0.1128 -0.7072 -0.3454
   10PRO      C  106   3.920   4.441   4.526  0.2053  1.0288 -0.3847
   10PRO      O  107   3.956   4.354   4.604  0.4596 -0.1287 -0.3581
   11GLY      N  108   3.832   4.534   4.566 -0.6471  0.5859  0.1140
   11GLY     HN  109   3.804   4.607   4.504  0.1476  1.1731  0.4322
   11GLY     CA  110   3.756   4.513   4.691 -0.0182 -0.0976 -0.7946
   11GLY    HA1  111   3.702   4.602   4.718  0.9750 -0.1178  1.3279
   11GLY    HA2  112   3.827   4.499   4.771 -0.5390  2.9022  0.2412
   11GLY      C  113   3.659   4.402   4.694  0.0302  0.6808  0.0524
   11GLY      O  114   3.629   4.341   4.592  0.3519  0.8667  0.1102
   12ASP      N  115   3.608   4.362   4.814  0.1130  0.2854  0.3799
   12ASP     HN  116   3.622   4.414   4.898 -0.5605  0.4901  0.3691
   12ASP     CA  117   3.524   4.251   4.836 -0.1953  0.1686 -0.3088
   12ASP     HA  118   3.577   4.170   4.787  1.1992  1.4579 -0.9690
   12ASP     CB  119   3.516   4.215   4.987 -0.3675 -0.2011  0.0288
   12ASP    HB1  120   3.439   4.135   4.994 -1.0564  0.3079 -1.4756
   12ASP    HB2  121   3.486   4.306   5.042 -0.3457 -0.0270 -0.2466
   12ASP     CG  122   3.656   4.164   5.030  0.4932 -0.0958 -0.0873
   12ASP    OD1  123   3.716   4.066   4.976 -0.4298  0.0731 -0.8676
   12ASP    OD2  124   3.707   4.230   5.127 -0.2237 -0.0826  0.1654
   12ASP      C  125   3.391   4.246   4.760  0.1484  0.1942 -0.4755
   12ASP      O  126   3.346   4.355   4.721 -0.6284 -0.3922  0.3174
   13PRO      N  127   3.316   4.145   4.734  0.3679  0.1878 -0.1334
   13PRO     CD  128   3.371   4.010   4.738  0.4331 -0.5773  0.1877
   13PRO    HD1  129   3.406   3.972   4.836 -0.4651  0.7318  1.0329
   13PRO    HD2  130   3.459   4.004   4.672 -0.9077 -2.6549 -1.4746
   13PRO     CA  131   3.173   4.151   4.702 -0.0025 -0.0150 -0.0151
   13PRO     HA  132   3.165   4.184   4.599  0.3652 -0.9261 -0.3406
   13PRO     CB  133   3.132   4.000   4.725  0.7395  0.1892 -0.2245
   13PRO    HB1  134   3.042   3.968   4.669 -0.5524  1.1035  1.2850
   13PRO    HB2  135   3.124   3.970   4.832 -1.7800 -0.4916 -0.5791
   13PRO     CG  136   3.251   3.918   4.689 -0.1735 -0.5660 -0.0605
   13PRO    HG1  137   3.236   3.817   4.733 -2.3710 -0.6891 -1.0564
   13PRO    HG2  138   3.255   3.908   4.579  2.1910 -1.8144  0.0942
   13PRO      C  139   3.095   4.244   4.791  0.9632 -0.3084 -0.3569
   13PRO      O  140   3.113   4.247   4.914 -0.2688 -0.2864  0.0576
   14GLY      N  141   3.003   4.327   4.735  0.2410 -0.1097  0.0233
   14GLY     HN  142   2.990   4.327   4.636 -0.0155  1.7598  0.0483
   14GLY     CA  143   2.902   4.403   4.806 -0.7806  0.7328  0.7548
   14GLY    HA1  144   2.843   4.447   4.727  1.0552 -2.8109 -2.7851
   14GLY    HA2  145   2.967   4.453   4.875 -0.3132  0.0212  0.8339
   14GLY      C  146   2.812   4.321   4.887  0.0390  0.5000 -0.5733
   14GLY      O  147   2.782   4.205   4.859 -0.1226  0.0775 -0.0991
   15SER      N  148   2.763   4.384   4.993  0.5115  0.5432  0.0659
   15SER     HN  149   2.778   4.482   5.007 -2.1225  1.1401 -0.9246
   15SER     CA  150   2.665   4.328   5.084 -0.1831  0.1555  0.2321
   15SER     HA  151   2.717   4.247   5.132 -0.8410  0.3205  1.2532
   15SER     CB  152   2.614   4.431   5.188 -0.1185  0.1453 -0.2508
   15SER    HB1  153   2.547   4.381   5.262 -1.2650 -0.2694 -1.5559
   15SER    HB2  154   2.558   4.518   5.148 -1.6676  0.2752  2.0866
   15SER     OG  155   2.720   4.498   5.259 -0.4139 -0.1143 -0.1210
   15SER    HG1  156   2.761   4.428   5.312 -1.8761  0.2309  1.5198
   15SER      C  157   2.540   4.278   5.017  0.2531  0.0791  0.8128
   15SER      O  158   2.486   4.323   4.917 -0.2928 -0.6693 -0.2357
   16ASP      N  159   2.493   4.163   5.067  0.3273 -0.0300  0.1839
   16ASP     HN  160   2.555   4.110   5.124 -0.2354  0.3354  1.1512
   16ASP     CA  161   2.375   4.095   5.018 -0.3103  0.3303  0.7897
   16ASP     HA  162   2.385   4.108   4.912  2.1868  0.7499  1.0492
   16ASP     CB  163   2.376   3.949   5.048  0.1156 -0.2056  0.3985
   16ASP    HB1  164   2.278   3.913   5.012  0.0800 -0.1911  0.4791
   16ASP    HB2  165   2.386   3.938   5.158 -0.3005  0.2191  0.4773
   16ASP     CG  166   2.496   3.874   4.980  0.3454  0.2298  0.2799
   16ASP    OD1  167   2.515   3.874   4.852  0.1499 -0.0763  0.1127
   16ASP    OD2  168   2.586   3.834   5.056 -0.6776 -0.1527 -0.2507
   16ASP      C  169   2.247   4.165   5.071  0.4964  0.7507 -0.1171
   16ASP    OT1  170   2.209   4.158   5.189 -0.2935  0.6657 -0.6403
   16ASP    OT2  171   2.184   4.235   4.986  0.3353  0.2449  0.3306
   17LIT    LIT  172   1.008   4.229   2.389  0.2041  0.6104 -0.7871
   18LIT    LIT  173   0.620   5.726   6.227 -0.1689  0.9761  0.9480
   19LIT    LIT  174   2.689   3.786   4.894  0.6085 -0.4265  0.0262
   20LIT    LIT  175   0.389   1.988   2.697  0.3246 -0.3738 -0.0312
   21LIT    LIT  176   8.117   5.651   3.648  0.0245 -0.2629 -0.8281
   22LIT    LIT  177   8.213   3.301   0.144  1.1305  0.7369  0.1335
   23LIT    LIT  178   1.837   3.665   0.792 -0.5422  0.0691 -0.9036
   24LIT    LIT  179   0.789   3.227   0.179  0.2427  0.0607  0.4317
   25LIT    LIT  180   4.438   5.490   4.682  0.8197 -0.9222 -0.2281
   26LIT    LIT  181   5.249   6.453   6.966  0.1047  0.8801  0.1032
   27LIT    LIT  182   1.583   1.085   3.040  1.7197  0.2780  0.7283
   28LIT    LIT  183   5.694   6.475   5.053 -0.8036  0.7001 -0.1794
   29LIT    LIT  184   6.336   3.886   3.341 -0.5113 -0.4633 -0.1260
   30LIT    LIT  185   8.825   1.946   2.249  0.2707  0.4471 -0.0105
   31LIT    LIT  186   5.513   5.139   0.077  0.4877 -0.3500  0.2174
   32LIT    LIT  187   4.838   3.019   5.767 -0.0457 -0.4363 -0.1950
   33LIT    LIT  188   1.438   8.040   1.632 -0.6463  0.5059  0.5701
   34LIT    LIT  189   0.367   5.164   4.122 -0.0625 -0.2155  0.1099
   35LIT    LIT  190   7.853   7.742   0.978  0.0848 -0.0114 -1.1590
   36LIT    LIT  191   0.330   6.759   3.024 -0.5528  1.1918  0.3776
   37LIT    LIT  192   8.707   2.508   3.212 -0.1146  0.0393 -0.5001
   38LIT    LIT  193   4.861   3.170   3.967  0.1592 -0.4815 -0.1488
   39LIT    LIT  194   1.072   3.474   1.885  0.4724  0.5723 -0.1033
   40LIT    LIT  195   7.985   7.783   4.022  0.9166 -0.5423  0.2955
   41LIT    LIT  196   0.049   1.491   5.565  0.5266  0.0758  0.3255
   42LIT    LIT  197   3.475   2.025   4.396  0.8264  0.4505  1.0120
   43LIT    LIT  198   3.331   2.666   0.165  0.5853 -0.7000  0.0562
   44LIT    LIT  199   1.986   7.645   4.464 -0.4583  1.1701 -0.4128
   45LIT    LIT  200   6.417   7.062   3.138  0.3212 -0.4243 -0.0558
   46LIT    LIT  201   7.508   2.197   1.669 -0.0059  0.3254 -1.1474
   47LIT    LIT  202   4.703   6.324   1.387 -0.7633 -0.8136 -0.9485
   48LIT    LIT  203   4.721   1.294   6.930  0.0095  0.3117  0.3033
   49LIT    LIT  204   7.143   5.132   4.902 -0.5542 -0.0636  0.5589
   50LIT    LIT  205   8.767   5.110   7.162  0.0071 -0.0477 -0.2461
   51LIT    LIT  206   7.254   2.176   5.132  0.6338  0.4469 -0.4210
   52LIT    LIT  207   5.257   1.731   0.205 -0.9856  0.4050 -0.3083
   53LIT    LIT  208   1.521   0.785   1.138  0.6814  0.0865 -0.2817
   54LIT    LIT  209   8.029   5.163   1.840 -0.4712 -0.4638 -0.2530
   55LIT    LIT  210   7.132   0.161   1.219  0.1352 -1.0281 -1.0102
   56LIT    LIT  211   2.309   2.085   5.635 -0.0044  0.3145 -0.5228
   57LIT    LIT  212   5.017   1.763   4.817  0.7526  0.0463 -0.5649
   58LIT    LIT  213   8.157   3.331   6.758  1.0492 -0.3114 -0.7248
   59LIT    LIT  214   8.258   0.567   5.745  0.9466 -1.1256 -0.0530
   60LIT    LIT  215   6.504   0.532   0.637  0.5476  0.5215  0.6433
   61LIT    LIT  216   2.321   6.550   6.909  0.5430  0.3006 -0.2524
   62LIT    LIT  217   3.595   0.916   2.401 -0.6605  0.9727 -1.1573
   63LIT    LIT  218   2.237   5.527   0.040 -1.1845 -1.1700 -0.1441
   64LIT    LIT  219   3.023   1.332   1.387  0.6446 -0.6101 -0.6166
   65LIT    LIT  220   4.748   7.700   4.454  0.5617 -0.7692  0.4515
   66LIT    LIT  221   5.730   5.242   3.849  0.0986 -0.2427 -0.1338
   67LIT    LIT  222   6.803   3.278   6.061  0.7173 -1.0344 -1.2205
   68LIT    LIT  223   3.969   2.107   3.271 -0.4299  0.7396 -0.3144
   69CLA    CLA  224   6.814   1.243   7.154 -0.0425 -0.0885 -0.0090
   70CLA    CLA  225   6.925   5.656   7.050 -0.0721  0.5937 -0.4957
   71CLA    CLA  226   7.669   0.364   3.446 -0.0312  0.1624 -0.4319
   72CLA    CLA  227   5.449   1.613   0.167  0.4110 -0.0879 -0.4173
   73CLA    CLA  228   8.711   8.388   2.882  0.3859  0.3586  0.5018
   74CLA    CLA  229   8.769   0.679   5.475  0.2095  0.3595 -0.0377
   75CLA    CLA  230   8.415   2.657   5.114 -0.1162 -0.0961 -0.1853
   76CLA    CLA  231   6.124   7.177   6.129  0.0309  0.2048 -0.0266
   77CLA    CLA  232   0.109   5.184   6.807  0.0663  0.0182  0.1169
   78CLA    CLA  233   7.020   2.505   6.330 -0.0889  0.4424 -0.0169
   79CLA    CLA  234   4.444   0.254   0.154  0.1883 -0.0408 -0.4080
   80CLA    CLA  235   3.489   2.808   4.195 -0.5396  0.1053  0.0832
   81CLA    CLA  236   7.572   0.239   1.969 -0.5939 -0.4270  0.0797
   82CLA    CLA  237   3.997   2.741   3.163 -0.2158 -0.0723  0.1696
   83CLA    CLA  238   6.014   8.361   2.489  0.0736  0.8149  0.2346
   84CLA    CLA  239   2.235   7.308   6.721 -0.1150 -0.0272  0.3928
   85CLA    CLA  240   6.588   3.360   6.015 -0.8259  0.2197  0.4562
   86CLA    CLA  241   3.621   6.192   6.820  0.6581  0.2137  0.2197
   87CLA    CLA  242   1.433   2.551   7.246 -0.1326  0.3143  0.3934
   88CLA    CLA  243   4.979   1.669   1.347 -0.0269  0.1864 -0.3515
   89CLA    CLA  244   1.838   1.259   0.373  0.0637 -0.2281 -0.0942
   90CLA    CLA  245   1.564   6.425   3.265 -0.2807 -0.4580  0.5780
   91CLA    CLA  246   1.379   2.455   3.521 -0.0967  0.1394  0.0847
   92CLA    CLA  247   0.105   2.330   0.301 -0.0708 -0.1244 -0.1213
   93CLA    CLA  248   2.718   3.668   2.295  0.0161 -0.1056 -0.1530
   94CLA    CLA  249   5.109   1.092   0.325  0.4492  0.0458 -0.6430
   95CLA    CLA  250   5.683   4.110   5.398 -0.2032  0.0493  0.1004
   96CLA    CLA  251   2.743   3.261   6.134 -0.1318 -0.0785 -0.0844
   97CLA    CLA  252   8.442   5.821   6.153 -0.2334  0.4092  0.0436
   98CLA    CLA  253   1.047   0.645   3.618 -0.0200 -0.1760 -0.2717
   99CLA    CLA  254   1.953   7.855   5.863  0.3679  0.1508  0.2529
  100CLA    CLA  255   6.111   2.247   3.848  0.0075 -0.0470  0.0733
  101CLA    CLA  256   8.569   5.061   4.773 -0.3690 -0.4534  0.0312
  102CLA    CLA  257   3.300   6.773   1.530  0.0262  0.2923 -0.2511
  103CLA    CLA  258   1.077   6.256   0.190  0.0251 -0.0101 -0.2023
  104CLA    CLA  259   1.972   4.840   4.676  0.2683  0.2218  0.1093
  105CLA    CLA  260   8.172   0.771   5.759  0.2255  0.1885 -0.1657
  106CLA    CLA  261   2.195   6.445   6.517  0.1095  0.2041  0.0426
  107CLA    CLA  262   5.808   1.631   6.932 -0.2941  0.0853  0.1718
  108CLA    CLA  263   1.806   0.544   1.416  0.0101  0.0523  0.0425
  109CLA    CLA  264   0.904   5.065   2.892  0.0102 -0.1996 -0.5879
  110CLA    CLA  265   5.976   6.707   4.211  0.2459  0.1192  0.0184
  111CLA    CLA  266   4.700   3.497   3.116  0.1391  0.5121  0.3118
  112CLA    CLA  267   7.708   2.291   1.616 -0.0155  0.0245  0.4094
  113CLA    CLA  268   2.837   3.904   5.782 -0.0316  0.3882 -0.5458
  114CLA    CLA  269   4.930   4.192   6.645 -0.3630  0.1766  0.1943
  115CLA    CLA  270   7.721   3.864   4.201  0.4275  0.2383  0.1574
  116CLA    CLA  271   3.677   6.595   0.839 -0.2944 -0.3644 -0.0141
  117TIP3   OH2  272   7.620   8.275   3.895  0.1510 -0.3141  0.6933
  117TIP3    H1  273   7.645   8.329   3.970 -0.7375 -0.9305  1.4451
  117TIP3    H2  274   7.626   8.185   3.927 -1.0343 -0.5480  0.2872
  118TIP3   OH2  275   2.475   1.422   2.825 -0.2833  0.4407 -0.5800
  118TIP3    H1  276   2.415   1.450   2.756 -1.4862  0.2254  0.3611
  118TIP3    H2  277   2.435   1.343   2.861 -0.1782  1.1283  1.0485
  119TIP3   OH2  278   2.587   0.601   1.079 -0.1388  0.3676 -0.0260
  119TIP3    H1  279   2.646   0.526   1.090  0.1207  0.3018 -1.8305
  119TIP3    H2  280   2.587   0.618   0.985 -0.8600  2.1124  0.2849
  120TIP3   OH2  281   2.853   0.458   2.068  0.1111 -0.7972 -0.2384
  120TIP3    H1  282   2.937   0.500   2.088  1.6231 -2.2245 -3.1457
  120TIP3    H2  283   2.798   0.529   2.036  0.0177  0.2364  2.1349
  121TIP3   OH2  284   7.797   4.179   6.097 -0.4278 -0.1794 -0.2107
  121TIP3    H1  285   7.737   4.196   6.024 -0.7307 -1.6824 -0.3436
  121TIP3    H2  286   7.755   4.108   6.146 -1.7548  2.8427  3.2468
  122TIP3   OH2  287   5.298   1.942   1.719  0.4115  0.0459  0.7057
  122TIP3    H1  288   5.240   1.922   1.793  0.8492 -1.6362  0.6229
  122TIP3    H2  289   5.254   1.903   1.643  0.2476  1.2621  0.1633
  123TIP3   OH2  290   4.125   1.713   2.827  0.1478  0.6584  0.1995
  123TIP3    H1  291   4.182   1.739   2.755 -0.1054 -0.6281 -0.4886
  123TIP3    H2  292   4.064   1.651   2.787 -0.1615  0.1389  1.4699
  124TIP3   OH2  293   6.196   5.316   6.962  0.1977 -0.3033  0.4233
  124TIP3    H1  294   6.231   5.347   7.046 -1.3414 -0.6661  1.2159
  124TIP3    H2  295   6.239   5.231   6.948  0.5326 -0.1960  0.7957
  125TIP3   OH2  296   5.895   2.019   2.231  0.1255  0.0568  0.2328
  125TIP3    H1  297   5.987   2.044   2.221  0.3279 -0.3437  1.0963
  125TIP3    H2  298   5.847   2.100   2.213  0.6170  0.1748 -0.6295
  126TIP3   OH2  299   4.681   1.557   2.476  0.6336  0.5270 -0.3036
  126TIP3    H1  300   4.676   1.565   2.571 -2.4018  2.8950 -0.5668
  126TIP3    H2  301   4.721   1.640   2.447  1.5339 -0.1716 -1.0921
  127TIP3   OH2  302   0.424   8.076   0.842 -0.1001  0.1013  0.4757
  127TIP3    H1  303   0.422   8.172   0.841  0.5508  0.1223  0.4700
  127TIP3    H2  304   0.491   8.054   0.907  1.2127 -0.3045 -0.9719
  128TIP3   OH2  305   7.336   4.540   6.178  0.6086 -0.5040 -0.2120
  128TIP3    H1  306   7.417   4.492   6.165  0.2668 -0.8459 -1.1529
  128TIP3    H2  307   7.330   4.597   6.101  1.2201  1.3596  1.0918
  129TIP3   OH2  308   0.673   8.173   2.013  0.5289  0.0954 -0.0320
  129TIP3    H1  309   0.725   8.107   1.967  0.8773  0.3922 -0.0658
  129TIP3    H2  310   0.736   8.241   2.038  0.1323  0.5484 -0.2362
  130TIP3   OH2  311   7.465   5.217   6.874 -0.0094 -0.0894 -0.7028
  130TIP3    H1  312   7.457   5.195   6.966  0.6823 -1.5613 -0.9798
  130TIP3    H2  313   7.458   5.312   6.871  2.5470  0.2257  1.1616
  131TIP3   OH2  314   4.391   2.476   0.539 -0.0669 -0.1600  0.1280
  131TIP3    H1  315   4.436   2.411   0.593 -1.2405 -0.9737  0.1397
  131TIP3    H2  316   4.438   2.475   0.455  1.7234  1.0590  1.0809
  132TIP3   OH2  317   7.247   1.294   7.202  1.0535 -0.0325 -0.4861
  132TIP3    H1  318   7.178   1.308   7.267  0.6995 -1.0790 -0.6254
  132TIP3    H2  319   7.204   1.247   7.131  1.5606  0.6483 -1.2562
  133TIP3   OH2  320   7.773   3.854   6.602  0.4690 -0.4368  0.2671
  133TIP3    H1  321   7.689   3.811   6.589  2.3741 -4.0203 -0.7467
  133TIP3    H2  322   7.802   3.825   6.688  1.7564 -1.2009 -0.4098
  134TIP3   OH2  323   4.911   0.266   2.940  0.3766  0.1578 -0.2612
  134TIP3    H1  324   4.908   0.336   2.875 -1.0294  0.5131  0.1815
  134TIP3    H2  325   4.821   0.256   2.970  0.4464 -2.2629 -0.7458
  135TIP3   OH2  326   3.459   0.754   1.278  0.5484  0.0954  0.0720
  135TIP3    H1  327   3.450   0.676   1.224 -1.7055  1.1466 -1.1449
  135TIP3    H2  328   3.502   0.723   1.358 -0.1915 -2.3624 -0.4385
  136TIP3   OH2  329   2.297   6.185   3.253 -0.6840  0.2043 -0.2434
  136TIP3    H1  330   2.214   6.169   3.299  1.1734 -2.1777  2.4450
  136TIP3    H2  331   2.330   6.265   3.292 -0.3263 -0.4540  0.8450
  137TIP3   OH2  332   0.676   7.360   0.797  0.1729 -0.1083 -0.3308
  137TIP3    H1  333   0.762   7.402   0.787 -0.9820  2.2485 -0.8649
  137TIP3    H2  334   0.636   7.369   0.710 -0.9308 -0.4577  0.1416
  138TIP3   OH2  335   3.487   2.130   2.259 -0.3351 -0.5462 -0.0844
  138TIP3    H1  336   3.398   2.096   2.257 -0.1686 -1.1126  1.7428
  138TIP3    H2  337   3.543   2.053   2.264  0.2769 -0.1992 -1.3266
  139TIP3   OH2  338   0.171   7.894   0.787 -0.2259 -0.6635  0.1891
  139TIP3    H1  339   0.116   7.830   0.832  0.3756 -1.3536 -0.0624
  139TIP3    H2  340   0.197   7.955   0.856  0.3293 -1.4719  0.7062
  140TIP3   OH2  341   3.182   0.747   2.224 -0.0024 -0.0558  0.2127
  140TIP3    H1  342   3.256   0.783   2.175 -0.5662  0.2241 -0.4427
  140TIP3    H2  343   3.130   0.823   2.248  0.1127 -0.2223  0.9954
  141TIP3   OH2  344   1.447   7.179   1.756  0.1654 -0.4290  0.0098
  141TIP3    H1  345   1.538   7.195   1.729  0.0159  0.7094  0.1745
  141TIP3    H2  346   1.414   7.265   1.781 -0.0584 -1.2834  2.8115
  142TIP3   OH2  347   2.650   0.222   1.673 -0.0965  0.7319  0.6194
  142TIP3    H1  348   2.697   0.284   1.729  1.6811  1.8744 -2.0394
  142TIP3    H2  349   2.601   0.277   1.613 -0.9613 -0.4690  0.2130
  143TIP3   OH2  350   4.354   1.378   2.106  0.2572 -0.0116 -0.1481
  143TIP3    H1  351   4.346   1.359   2.199 -0.9494 -0.4836 -0.3412
  143TIP3    H2  352   4.449   1.385   2.091  0.5593 -2.0002  0.6940
  144TIP3   OH2  353   7.371   2.622   5.593 -1.0202  0.9723 -0.2079
  144TIP3    H1  354   7.461   2.635   5.563 -0.7634  1.4773  0.7536
  144TIP3    H2  355   7.380   2.563   5.668 -1.2729  2.7256  1.2220
  145TIP3   OH2  356   4.278   0.224   2.168  0.7307 -0.2297 -0.2796
  145TIP3    H1  357   4.299   0.169   2.244 -0.8854  1.8609  1.7345
  145TIP3    H2  358   4.267   0.312   2.204  3.0338  1.4446 -3.3996
  146TIP3   OH2  359   3.701   0.445   1.849  0.6167 -0.0587  0.2222
  146TIP3    H1  360   3.625   0.456   1.906  0.0461 -0.7859 -0.3873
  146TIP3    H2  361   3.764   0.396   1.902  0.2157 -0.4488  0.3391
  147TIP3   OH2  362   5.184   2.450   1.080 -0.1152 -0.1726 -0.2781
  147TIP3    H1  363   5.190   2.462   0.985  0.0755  3.1310  0.0707
  147TIP3    H2  364   5.248   2.382   1.100 -0.7025 -1.4450 -2.5839
  148TIP3   OH2  365   3.825   2.110   2.503  0.3322 -0.3711 -0.3787
  148TIP3    H1  366   3.823   2.149   2.415  0.1709  1.7520  0.5260
  148TIP3    H2  367   3.917   2.089   2.518  0.1166 -2.3998 -1.7258
  149TIP3   OH2  368   7.819   7.595   0.854  0.6310 -0.0001 -0.0466
  149TIP3    H1  369   7.737   7.556   0.825  0.7390 -0.9102  0.8419
  149TIP3    H2  370   7.885   7.557   0.797  0.4138  0.9512 -0.9522
  150TIP3   OH2  371   3.176   7.259   1.097 -0.5578 -0.5010 -0.2629
  150TIP3    H1  372   3.264   7.223   1.109 -0.6485 -0.6352 -0.0037
  150TIP3    H2  373   3.140   7.265   1.186 -0.6708 -0.0947 -0.3327
  151TIP3   OH2  374   4.149   0.458   1.074 -0.1997  0.1876  0.1409
  151TIP3    H1  375   4.168   0.460   1.168 -3.8361  0.5197  0.9345
  151TIP3    H2  376   4.089   0.385   1.063 -0.5219  0.7227 -1.7794
  152TIP3   OH2  377   3.546   0.488   1.333 -0.6846 -0.3475  0.1302
  152TIP3    H1  378   3.519   0.400   1.307 -2.1451  0.2091 -0.2841
  152TIP3    H2  379   3.555   0.483   1.428  1.0338 -1.4130 -0.0746
  153TIP3   OH2  380   2.856   7.204   1.879  0.9254  0.0934 -0.6026
  153TIP3    H1  381   2.873   7.120   1.922  1.2005  0.1478 -0.6028
  153TIP3    H2  382   2.763   7.219   1.892  0.8203 -0.3353 -0.8170
  154TIP3   OH2  383   8.139   6.701   3.967 -0.2617  0.1506  0.2030
  154TIP3    H1  384   8.078   6.655   4.025  0.4773 -0.3760  0.5591
  154TIP3    H2  385   8.090   6.714   3.885 -1.6684  1.7983  1.2711
  155TIP3   OH2  386   1.899   7.157   0.677 -0.1550  0.0979 -0.0728
  155TIP3    H1  387   1.954   7.224   0.637  0.4957  0.2196  0.9997
  155TIP3    H2  388   1.812   7.172   0.641 -0.0247  1.5377  0.1816
  156TIP3   OH2  389   4.853   0.516   1.810 -0.7364 -0.2283  0.3769
  156TIP3    H1  390   4.930   0.567   1.835  0.1429 -0.6865 -1.3597
  156TIP3    H2  391   4.799   0.577   1.760 -0.9467 -0.2332  0.5992
  157TIP3   OH2  392   2.351   0.574   3.293  0.6080  0.3733 -0.3166
  157TIP3    H1  393   2.429   0.525   3.320  1.1682  0.2616 -2.0647
  157TIP3    H2  394   2.301   0.513   3.239  0.2909  1.0619 -0.8187
  158TIP3   OH2  395   7.180   5.160   6.301  0.0765 -0.1070  0.2814
  158TIP3    H1  396   7.108   5.182   6.361  0.4809 -3.1600  2.0223
  158TIP3    H2  397   7.259   5.174   6.354  0.5242 -1.1143 -0.1172
  159TIP3   OH2  398   6.071   1.048   1.020 -0.2287  0.3117  0.2051
  159TIP3    H1  399   5.984   1.029   1.055  0.3159 -2.3348  0.2485
  159TIP3    H2  400   6.080   0.988   0.945  0.0703  3.2607 -2.2136
  160TIP3   OH2  401   8.189   7.624   0.763  0.3796 -0.2108  0.2709
  160TIP3    H1  402   8.210   7.648   0.673 -1.2899  1.1834  0.2238
  160TIP3    H2  403   8.136   7.544   0.755 -0.2221  0.2126 -0.0280
  161TIP3   OH2  404   1.643   0.284   2.471 -0.5744  0.7622 -0.5745
  161TIP3    H1  405   1.658   0.225   2.545  1.8156  0.7336 -1.0221
  161TIP3    H2  406   1.563   0.251   2.429 -0.3134 -1.0146  0.2777
  162TIP3   OH2  407   2.169   8.018   0.608  0.1175 -0.7310  0.4084
  162TIP3    H1  408   2.232   8.076   0.566  1.0831 -1.2822  1.0823
  162TIP3    H2  409   2.222   7.946   0.644 -0.6885 -0.3017  2.5373
  163TIP3   OH2  410   3.898   6.476   3.214 -0.8698 -0.3888  0.2987
  163TIP3    H1  411   3.888   6.526   3.295  0.9872  1.7589 -0.7222
  163TIP3    H2  412   3.836   6.517   3.153 -1.9838 -1.7461  0.5060
  164TIP3   OH2  413   1.825   7.817   2.141 -0.3423  0.0511  0.0794
  164TIP3    H1  414   1.855   7.808   2.232  1.2658  0.5104 -0.3828
  164TIP3    H2  415   1.906   7.820   2.090 -1.0354  4.2793 -0.9413
  165TIP3   OH2  416   0.367   8.163   0.315  0.7443  0.2386 -0.2184
  165TIP3    H1  417   0.296   8.113   0.356 -1.3590  2.5097 -0.9841
  165TIP3    H2  418   0.428   8.097   0.283 -1.1369 -1.7737  0.2687
  166TIP3   OH2  419   0.716   7.695   0.499  0.3685  0.4140 -0.7945
  166TIP3    H1  420   0.761   7.715   0.417  0.2836 -2.2528 -1.5258
  166TIP3    H2  421   0.633   7.742   0.492  0.0588 -0.3478 -2.5620
  167TIP3   OH2  422   4.515   1.234   1.254 -0.1018 -0.1702  0.5429
  167TIP3    H1  423   4.507   1.227   1.349  0.8427  1.4711  0.7675
  167TIP3    H2  424   4.546   1.324   1.239  0.0725 -0.5138 -1.2865
  168TIP3   OH2  425   3.652   0.619   0.217 -0.2798 -0.0441 -0.1166
  168TIP3    H1  426   3.644   0.677   0.142 -0.7436  1.7817  1.3046
  168TIP3    H2  427   3.741   0.635   0.250 -0.1856 -0.6121 -0.0899
  169TIP3   OH2  428   4.303   7.390   2.115  0.2170 -0.1005  0.0468
  169TIP3    H1  429   4.262   7.351   2.192 -0.4542 -0.4282 -0.4757
  169TIP3    H2  430   4.394   7.360   2.119  0.2642  0.1289  0.8728
  170TIP3   OH2  431   3.066   0.488   0.318 -0.0178  0.2439 -0.0100
  170TIP3    H1  432   3.128   0.422   0.348  0.5269 -0.0583 -1.6978
  170TIP3    H2  433   3.014   0.510   0.395  3.1890  1.6355  1.8506
  171TIP3   OH2  434   1.142   7.339   1.064  0.5192  0.1365 -0.1493
  171TIP3    H1  435   1.090   7.282   1.007  3.1136 -1.0770 -1.4122
  171TIP3    H2  436   1.150   7.421   1.015 -0.2226  0.3412  0.0671
  172TIP3   OH2  437   5.846   1.942   2.947 -0.0655 -0.1434 -0.2126
  172TIP3    H1  438   5.859   1.852   2.978  0.5563  0.2571  0.6850
  172TIP3    H2  439   5.932   1.969   2.915 -0.1879  0.2286 -0.2261
  173TIP3   OH2  440   8.653   1.429   0.545  0.3020  0.5162 -0.6449
  173TIP3    H1  441   8.618   1.360   0.601  0.1220 -0.5934 -2.1004
  173TIP3    H2  442   8.738   1.396   0.516  1.3902  2.0354  0.6996
  174TIP3   OH2  443   1.416   3.964   6.651 -0.0205  0.0671 -0.5928
  174TIP3    H1  444   1.477   3.964   6.576  1.2778 -0.1340  0.4406
  174TIP3    H2  445   1.362   4.041   6.638 -0.3726 -0.4263 -2.1934
  175TIP3   OH2  446   1.858   0.077   1.055 -0.3040  0.1578 -0.3065
  175TIP3    H1  447   1.771   0.051   1.084  0.7077 -2.8011  0.1848
  175TIP3    H2  448   1.884   0.146   1.116 -0.7048 -1.7174  2.0517
  176TIP3   OH2  449   2.704   0.281   2.746  0.2134  0.1576  0.4323
  176TIP3    H1  450   2.793   0.253   2.724  0.4000  1.3567 -0.4018
  176TIP3    H2  451   2.675   0.220   2.814  0.9815 -1.3780 -0.6130
  177TIP3   OH2  452   7.107   5.420   7.180  0.3729  0.4213 -0.4156
  177TIP3    H1  453   7.071   5.503   7.150  0.9545  0.0726 -2.1481
  177TIP3    H2  454   7.059   5.354   7.129  1.4035 -0.1796 -0.6297
  178TIP3   OH2  455   4.437   5.627   2.069  0.0043  0.1190  0.2689
  178TIP3    H1  456   4.480   5.549   2.105  2.0721  1.1252  0.0556
  178TIP3    H2  457   4.379   5.657   2.139  0.2607 -0.8081  0.8872
  179TIP3   OH2  458   2.718   7.613   1.447 -0.2499 -0.1403  0.0037
  179TIP3    H1  459   2.784   7.613   1.517 -1.9942 -1.2159  1.7121
  179TIP3    H2  460   2.665   7.690   1.465  0.5389  0.7436 -1.3907
  180TIP3   OH2  461   3.593   0.757   2.539  0.0662 -0.2111  1.0954
  180TIP3    H1  462   3.500   0.737   2.552  0.2787 -3.0021 -1.1719
  180TIP3    H2  463   3.638   0.704   2.605  0.1348  0.4890  1.6257
  181TIP3   OH2  464   3.338   1.770   0.692  0.3441 -0.2929  0.1815
  181TIP3    H1  465   3.434   1.771   0.698  0.4301 -1.8072 -0.6899
  181TIP3    H2  466   3.309   1.762   0.783  1.0090  1.1787  0.5433
  182TIP3   OH2  467   1.546   7.165   0.994  0.0339 -0.6825  0.3331
  182TIP3    H1  468   1.483   7.105   0.955 -1.1919  1.5878 -1.2918
  182TIP3    H2  469   1.631   7.137   0.959 -0.6369 -0.8991 -1.1690
  183TIP3   OH2  470   7.387   4.762   6.682  0.8643  0.1243  0.0132
  183TIP3    H1  471   7.397   4.744   6.775 -3.0067  0.9837  0.6717
  183TIP3    H2  472   7.358   4.679   6.644 -0.5464  0.5422  0.1415
  184TIP3   OH2  473   3.973   1.975   1.317 -0.6644  0.0051  0.2390
  184TIP3    H1  474   3.925   1.895   1.336  0.9580 -1.8830 -3.1246
  184TIP3    H2  475   4.042   1.978   1.383 -0.9754 -1.1708  0.6214
  185TIP3   OH2  476   6.713   2.365   0.785  0.3097 -0.2783  0.3040
  185TIP3    H1  477   6.690   2.277   0.753 -0.3576 -0.1356  0.3865
  185TIP3    H2  478   6.686   2.424   0.714  0.1816 -0.0867  0.5134
  186TIP3   OH2  479   3.888   7.977   3.375 -0.2146  0.2045  0.1204
  186TIP3    H1  480   3.951   8.004   3.441  0.7398 -0.5671 -0.4661
  186TIP3    H2  481   3.808   8.025   3.397  0.3713  0.6638  1.2683
  187TIP3   OH2  482   6.803   0.574   2.716  0.1071 -0.4138 -0.0131
  187TIP3    H1  483   6.719   0.561   2.760  0.0007 -0.5899 -0.2658
  187TIP3    H2  484   6.792   0.532   2.631  1.4581 -3.1922  1.0960
  188TIP3   OH2  485   5.172   0.921   1.484  0.5510 -0.6165  0.1802
  188TIP3    H1  486   5.164   0.945   1.392  0.7071 -0.3813  0.2290
  188TIP3    H2  487   5.246   0.861   1.487  1.2027  0.1886  0.3105
  189TIP3   OH2  488   2.139   7.223   0.173  0.4122  0.4800 -0.4788
  189TIP3    H1  489   2.112   7.195   0.086  0.7821  1.7985 -1.0237
  189TIP3    H2  490   2.111   7.151   0.231 -1.0378  0.2006 -1.4950
  190TIP3   OH2  491   3.194   8.128   3.311  0.2331 -0.1684 -0.2712
  190TIP3    H1  492   3.209   8.210   3.359  0.6359 -0.1049 -0.5039
  190TIP3    H2  493   3.151   8.156   3.230 -0.5972 -0.2898  0.1180
  191TIP3   OH2  494   8.380   5.527   6.065  0.4954 -0.5366  0.3970
  191TIP3    H1  495   8.459   5.473   6.059  0.5209 -0.3509 -1.1441
  191TIP3    H2  496   8.413   5.614   6.089  1.1510  0.3231 -3.2252
  192TIP3   OH2  497   2.234   8.292   1.147 -0.1206 -0.7569  0.4908
  192TIP3    H1  498   2.187   8.369   1.180 -1.7871 -0.9414 -1.3367
  192TIP3    H2  499   2.276   8.322   1.066 -1.9066 -2.0802 -0.9622
  193TIP3   OH2  500   3.633   1.799   1.994 -0.2197 -0.4044  0.5070
  193TIP3    H1  501   3.552   1.776   1.947 -0.2169  0.5257  0.0347
  193TIP3    H2  502   3.689   1.839   1.928 -0.1936  0.8682  1.2886
  194TIP3   OH2  503   1.635   7.822   2.339 -0.3680  0.1652  0.0115
  194TIP3    H1  504   1.678   7.756   2.395 -2.0151 -0.6615  0.3277
  194TIP3    H2  505   1.656   7.795   2.250  1.2991  0.8179  0.1947
  195TIP3   OH2  506   7.725   2.869   6.240 -0.1476  0.4136 -0.2142
  195TIP3    H1  507   7.814   2.906   6.240 -0.4020  1.0962 -1.5290
  195TIP3    H2  508   7.675   2.927   6.298 -0.0375  0.8492 -0.5475
  196TIP3   OH2  509   5.804   0.929   2.711  0.0629  0.1496 -0.6977
  196TIP3    H1  510   5.793   0.889   2.625  0.6011  0.0372 -0.7146
  196TIP3    H2  511   5.830   1.019   2.693  3.0391 -0.6354 -0.6817
  197TIP3   OH2  512   1.294   8.257   0.518  0.1726  0.0881 -0.2307
  197TIP3    H1  513   1.383   8.276   0.548 -0.2463  3.3235 -0.8954
  197TIP3    H2  514   1.303   8.241   0.424  0.1800 -0.5724 -0.1194
  198TIP3   OH2  515   5.475   2.389   2.912  0.6021 -0.3282 -0.3773
  198TIP3    H1  516   5.470   2.332   2.988  1.0515 -1.0582 -0.8934
  198TIP3    H2  517   5.534   2.460   2.940 -0.0415 -0.0564  0.2942
  199TIP3   OH2  518   7.792   0.799   3.800  0.3627  1.0679 -0.0808
  199TIP3    H1  519   7.764   0.723   3.748  1.9011 -0.5052  1.3218
  199TIP3    H2  520   7.882   0.816   3.770  1.3559 -0.0121  2.1625
  200TIP3   OH2  521   3.998   0.188   0.828  0.4593  0.5648  0.1880
  200TIP3    H1  522   4.045   0.172   0.910  1.7159  2.3820 -0.1551
  200TIP3    H2  523   4.046   0.139   0.762  0.9593  1.1482  0.1128
  201TIP3   OH2  524   4.692   0.316   1.658 -0.3472  0.0844 -0.6127
  201TIP3    H1  525   4.622   0.371   1.624  0.4794  1.1572 -0.5968
  201TIP3    H2  526   4.754   0.377   1.697 -0.7499 -1.0434  1.8692
  202TIP3   OH2  527   5.174   0.766   0.957  0.2704  0.2298  0.0079
  202TIP3    H1  528   5.248   0.706   0.971 -0.1591 -0.6295 -1.2111
  202TIP3    H2  529   5.166   0.771   0.861 -1.1047  0.4770  0.1223
  203TIP3   OH2  530   5.294   5.427   6.946 -0.2321  0.0143  0.2348
  203TIP3    H1  531   5.285   5.333   6.929 -0.3850  0.3086 -1.3992
  203TIP3    H2  532   5.205   5.461   6.938 -0.2804  0.1836  1.5293
  204TIP3   OH2  533   6.910   4.400   6.778  0.3537 -0.2628  0.1700
  204TIP3    H1  534   6.883   4.359   6.860  1.2276  0.1802  0.6866
  204TIP3    H2  535   6.951   4.330   6.728 -1.4255 -0.8681 -0.4896
  205TIP3   OH2  536   4.237   0.401   0.323  0.2324 -0.1252 -0.4135
  205TIP3    H1  537   4.223   0.351   0.404 -0.7565  0.5615 -0.1564
  205TIP3    H2  538   4.300   0.348   0.273 -0.2731 -1.2790  0.1520
  206TIP3   OH2  539   5.592   0.529   1.385 -0.7631  0.6571 -0.2970
  206TIP3    H1  540   5.634   0.470   1.322  0.3743  0.3156  0.7596
  206TIP3    H2  541   5.574   0.608   1.335 -0.0496  0.3137 -1.1165
  207TIP3   OH2  542   3.977   1.243   1.068 -0.0751 -0.3052  0.0116
  207TIP3    H1  543   3.913   1.176   1.091  1.5911 -1.4835  1.4155
  207TIP3    H2  544   3.943   1.324   1.108  0.1762 -1.2770  2.2810
  208TIP3   OH2  545   7.115   2.699   0.396 -0.3390  0.4123 -1.3681
  208TIP3    H1  546   7.102   2.726   0.487 -2.1714 -0.7288 -1.2778
  208TIP3    H2  547   7.139   2.779   0.351  1.8492  0.7775  0.3462
  209TIP3   OH2  548   5.839   1.139   1.173 -0.3313  0.0959  0.1154
  209TIP3    H1  549   5.745   1.154   1.177 -0.1393  1.7878 -1.0649
  209TIP3    H2  550   5.864   1.115   1.262 -1.6279  1.1899  0.7845
  210TIP3   OH2  551   1.070   4.851   7.168  0.4942 -0.4070  0.0088
  210TIP3    H1  552   1.164   4.867   7.159  0.2731  0.7548 -0.2744
  210TIP3    H2  553   1.038   4.849   7.078 -0.2702  2.4383  0.1581
  211TIP3   OH2  554   6.212   1.647   0.978 -0.0893  0.3589 -0.6129
  211TIP3    H1  555   6.138   1.654   0.918  1.0649  0.9939 -1.9975
  211TIP3    H2  556   6.183   1.585   1.045 -1.5824  0.0005 -1.5652
  212TIP3   OH2  557   6.629   1.508   1.101  0.1447  0.1781 -0.4606
  212TIP3    H1  558   6.580   1.495   1.182  0.2541  0.6256 -0.3229
  212TIP3    H2  559   6.707   1.453   1.111  0.9784  1.4882  0.4361
  213TIP3   OH2  560   8.097   0.322   0.976 -0.2100 -0.3262  0.3639
  213TIP3    H1  561   8.028   0.258   0.961 -2.3168  1.8550  0.4023
  213TIP3    H2  562   8.102   0.330   1.072  0.7803 -1.1971  0.3858
  214TIP3   OH2  563   2.383   0.921   0.979  0.2269 -0.5069 -0.2111
  214TIP3    H1  564   2.349   0.979   0.911  0.6651  1.6669  1.3680
  214TIP3    H2  565   2.426   0.850   0.931 -0.1871  0.5305 -2.1775
  215TIP3   OH2  566   4.753   1.835   2.416 -0.1718 -0.4966 -0.0734
  215TIP3    H1  567   4.760   1.826   2.511  0.5730  3.0704  0.2917
  215TIP3    H2  568   4.844   1.832   2.385 -0.4013 -1.4676 -0.6965
  216TIP3   OH2  569   3.361   2.288   1.069 -0.1395 -0.2522 -0.3200
  216TIP3    H1  570   3.437   2.321   1.020 -1.6385  1.3168 -1.6476
  216TIP3    H2  571   3.331   2.363   1.120  0.3070 -1.3846  1.6560
  217TIP3   OH2  572   2.094   1.165   1.094 -0.2698  0.0844  0.2628
  217TIP3    H1  573   2.064   1.105   1.163 -2.3578  0.3414 -0.3896
  217TIP3    H2  574   2.092   1.113   1.014 -1.0458  0.7155 -0.1321
  218TIP3   OH2  575   2.208   2.024   2.735 -0.1995 -0.1123  0.4617
  218TIP3    H1  576   2.277   2.070   2.783  0.0111 -0.2974  0.3442
  218TIP3    H2  577   2.148   2.093   2.706  0.0061  0.0669  0.4583
  219TIP3   OH2  578   0.605   2.893   1.447 -0.0407 -0.1683  0.0127
  219TIP3    H1  579   0.662   2.954   1.401  0.2619 -0.7009 -0.3294
  219TIP3    H2  580   0.554   2.948   1.506 -0.1807  0.4831 -0.6990
  220TIP3   OH2  581   1.816   0.783   3.710 -0.2224 -0.2700 -0.1700
  220TIP3    H1  582   1.812   0.750   3.800 -0.6966 -0.0546 -0.1143
  220TIP3    H2  583   1.908   0.807   3.698 -0.5194  1.4691  0.8938
  221TIP3   OH2  584   1.364   2.753   3.818  0.4485 -0.2579  0.2745
  221TIP3    H1  585   1.289   2.734   3.876 -0.9575  1.8553 -0.8025
  221TIP3    H2  586   1.415   2.818   3.866  0.6838 -0.4239  0.2513
  222TIP3   OH2  587   3.235   2.359   1.822  0.2189 -0.3104  0.0130
  222TIP3    H1  588   3.305   2.407   1.867 -0.1409  0.1552  0.0888
  222TIP3    H2  589   3.232   2.274   1.865  1.4597 -0.7236 -0.7156
  223TIP3   OH2  590   0.537   0.967   1.260  0.0348 -0.2853  0.1859
  223TIP3    H1  591   0.592   1.045   1.258  1.2276 -0.8714  4.7771
  223TIP3    H2  592   0.449   0.999   1.238  1.2262  1.5402 -2.1284
  224TIP3   OH2  593   5.720   8.282   4.167  0.3881  0.0002  0.2809
  224TIP3    H1  594   5.704   8.193   4.197 -2.3088 -0.3957 -2.1261
  224TIP3    H2  595   5.801   8.276   4.117  0.5978 -0.9626  0.7287
  225TIP3   OH2  596   2.657   2.280   3.270 -0.0329 -0.4501  0.1944
  225TIP3    H1  597   2.641   2.372   3.247 -0.9797 -0.8757 -0.8915
  225TIP3    H2  598   2.590   2.232   3.221 -0.1745 -1.6350  1.5541
  226TIP3   OH2  599   0.846   0.293   1.033 -0.0940  0.0463 -0.3637
  226TIP3    H1  600   0.901   0.369   1.015 -0.2202 -0.1015 -1.4622
  226TIP3    H2  601   0.756   0.326   1.028 -0.1883 -0.4240 -2.1992
  227TIP3   OH2  602   2.637   2.837   3.637 -0.5217 -0.0183 -0.2167
  227TIP3    H1  603   2.646   2.786   3.717 -1.5501 -1.5498 -1.0581
  227TIP3    H2  604   2.559   2.801   3.594 -0.9052  1.8380 -1.1372
  228TIP3   OH2  605   1.101   2.181   1.454  1.2101  0.4008  0.0857
  228TIP3    H1  606   1.111   2.124   1.378 -3.8013  0.4333 -0.7873
  228TIP3    H2  607   1.142   2.132   1.526 -0.7667 -3.2543 -1.1360
  229TIP3   OH2  608   2.388   0.309   1.928 -0.0457  0.0480  0.3621
  229TIP3    H1  609   2.387   0.285   1.835  0.5642  0.5756  0.2101
  229TIP3    H2  610   2.435   0.238   1.971 -0.7661 -0.4477  0.3475
  230TIP3   OH2  611   2.290   2.026   2.006 -0.1019 -0.4414 -0.1127
  230TIP3    H1  612   2.384   2.033   2.025 -0.0917  0.0574 -0.3369
  230TIP3    H2  613   2.256   2.114   2.023 -0.6098 -0.7324  0.3858
  231TIP3   OH2  614   2.841   2.167   1.440 -0.4046  0.2530  0.1109
  231TIP3    H1  615   2.754   2.172   1.399 -0.3357  0.2332 -0.0370
  231TIP3    H2  616   2.845   2.245   1.497 -0.1280  0.7922 -0.6427
  232TIP3   OH2  617   0.965   1.754   1.724  0.4786 -0.5103  0.2189
  232TIP3    H1  618   1.054   1.784   1.741 -0.1280  0.5090  1.7596
  232TIP3    H2  619   0.967   1.661   1.743  1.0734 -0.3666  0.8971
  233TIP3   OH2  620   2.230   2.113   1.670  0.0413 -0.0034 -0.0089
  233TIP3    H1  621   2.325   2.097   1.670 -0.0247 -0.3989  0.1360
  233TIP3    H2  622   2.193   2.037   1.713 -0.3311  0.2501  0.1208
  234TIP3   OH2  623   3.573   2.952   2.230  0.2647 -0.3005  0.1991
  234TIP3    H1  624   3.504   3.006   2.267  1.0278  0.9720 -0.2003
  234TIP3    H2  625   3.528   2.894   2.169 -0.5753 -0.1797  0.7039
  235TIP3   OH2  626   1.804   1.490   1.159 -0.1262 -0.0930  0.1628
  235TIP3    H1  627   1.773   1.443   1.082  0.9214  0.3004 -0.5206
  235TIP3    H2  628   1.819   1.422   1.225  1.6475 -0.7846 -0.9047
  236TIP3   OH2  629   2.824   0.109   1.463 -0.1736  0.3428  0.0529
  236TIP3    H1  630   2.795   0.129   1.552 -0.7861 -0.8944  0.1411
  236TIP3    H2  631   2.918   0.099   1.470 -0.3240 -0.5656  0.7177
  237TIP3   OH2  632   0.166   0.556   2.774  0.8927  0.3337 -0.3185
  237TIP3    H1  633   0.230   0.591   2.836  0.6083  1.0211 -0.4125
  237TIP3    H2  634   0.195   0.589   2.689  0.8059  0.0702 -0.4506
  238TIP3   OH2  635   4.298   3.245   2.056 -0.5124 -0.5378 -0.6918
  238TIP3    H1  636   4.252   3.259   2.139 -1.8621 -1.9912 -1.1631
  238TIP3    H2  637   4.372   3.306   2.059 -0.4136 -0.7112  1.6692
  239TIP3   OH2  638   0.361   1.816   2.765  0.0183 -0.4429  0.2730
  239TIP3    H1  639   0.295   1.753   2.736  0.8046 -1.2842  0.2945
  239TIP3    H2  640   0.410   1.769   2.833 -0.0029  0.5263  0.9619
  240TIP3   OH2  641   0.469   1.227   3.035  0.1823 -0.6326  0.6856
  240TIP3    H1  642   0.541   1.243   3.096  0.9108  0.0432 -0.3334
  240TIP3    H2  643   0.411   1.302   3.046  0.0222 -0.7930  0.9478
  241TIP3   OH2  644   2.139   1.021   0.422  0.0633 -0.1909  0.6988
  241TIP3    H1  645   2.212   1.015   0.484  0.3010  1.7245  0.6494
  241TIP3    H2  646   2.062   1.030   0.478  0.0230 -0.7869  0.7388
  242TIP3   OH2  647   1.654   1.997   2.162  0.0684  0.2752  0.4383
  242TIP3    H1  648   1.592   2.052   2.115 -0.6510  0.3364  1.4512
  242TIP3    H2  649   1.733   2.050   2.169 -0.3789  0.9017  0.7603
  243TIP3   OH2  650   1.835   1.038   3.381  0.1789  0.5153  0.1636
  243TIP3    H1  651   1.766   1.101   3.401  0.2257  0.8304 -0.6535
  243TIP3    H2  652   1.806   0.957   3.423 -0.3062  0.8550  0.4858
  244TIP3   OH2  653   2.848   2.295   1.864  0.1457  0.6411  0.2960
  244TIP3    H1  654   2.865   2.207   1.896  2.1269 -0.1560 -2.7426
  244TIP3    H2  655   2.895   2.352   1.926  2.4770 -0.7354 -0.1255
  245TIP3   OH2  656   1.079   7.798   2.398  0.0978 -0.1924  0.4567
  245TIP3    H1  657   1.173   7.815   2.402 -0.2947  2.1704  0.2670
  245TIP3    H2  658   1.064   7.773   2.306  0.4392  0.0937  0.3205
  246TIP3   OH2  659   1.572   0.800   2.544  0.5435 -0.1291  0.1903
  246TIP3    H1  660   1.593   0.752   2.623  1.7319  1.4705  0.8784
  246TIP3    H2  661   1.640   0.775   2.481  0.6786  0.0068  0.2814
  247TIP3   OH2  662   3.728   2.653   1.778 -0.6947  0.0891  0.3018
  247TIP3    H1  663   3.789   2.706   1.829  0.8329  0.7018 -2.1049
  247TIP3    H2  664   3.773   2.570   1.765 -0.6815  0.2666 -0.8284
  248TIP3   OH2  665   0.309   4.555   2.945 -0.7219 -0.0419 -0.2012
  248TIP3    H1  666   0.305   4.460   2.939  1.5483 -0.2663  1.1897
  248TIP3    H2  667   0.276   4.575   3.032 -1.6655  0.4884 -0.6783
  249TIP3   OH2  668   4.376   2.041   3.121 -0.0027 -0.2041  0.1134
  249TIP3    H1  669   4.450   2.013   3.175  1.0584 -0.6519 -1.5228
  249TIP3    H2  670   4.412   2.108   3.064 -0.9859 -0.0836 -0.3815
  250TIP3   OH2  671   4.490   3.068   1.541  0.0966  0.0803 -0.1635
  250TIP3    H1  672   4.497   2.973   1.535 -1.2338  0.0176 -0.9697
  250TIP3    H2  673   4.493   3.087   1.635 -1.3032 -0.9029  0.0911
  251TIP3   OH2  674   3.793   2.976   3.814  0.0817  0.2208 -0.3355
  251TIP3    H1  675   3.753   2.930   3.740 -1.8365  2.4679 -0.7285
  251TIP3    H2  676   3.768   2.925   3.891  0.7451 -1.2203 -1.0492
  252TIP3   OH2  677   2.646   1.628   2.913  0.1951 -0.0837  0.3408
  252TIP3    H1  678   2.612   1.625   3.003 -0.9962  0.5497 -0.0885
  252TIP3    H2  679   2.581   1.582   2.861  0.7992 -0.2910 -0.2335
  253TIP3   OH2  680   3.466   3.887   2.619  0.1845  0.0983  0.4559
  253TIP3    H1  681   3.502   3.800   2.600  1.3405  0.2017  2.0576
  253TIP3    H2  682   3.416   3.910   2.541  1.6119 -1.1068 -0.8508
  254TIP3   OH2  683   7.485   6.824   1.348 -0.2856 -0.4025  0.2544
  254TIP3    H1  684   7.517   6.860   1.431  1.1395 -0.0118 -0.4517
  254TIP3    H2  685   7.539   6.747   1.333 -2.8160 -2.4610  1.3691
  255TIP3   OH2  686   3.563   0.808   3.102 -0.4596 -0.3074  0.0983
  255TIP3    H1  687   3.543   0.894   3.138 -0.8706 -0.0131 -0.8292
  255TIP3    H2  688   3.534   0.812   3.011  2.4792 -0.3265 -0.9047
  256TIP3   OH2  689   6.014   4.322   6.653  0.5402  0.4875 -0.5508
  256TIP3    H1  690   5.997   4.375   6.731  1.4955  1.0245 -0.6939
  256TIP3    H2  691   6.109   4.307   6.655  0.5165  0.2005 -1.4070
  257TIP3   OH2  692   1.900   1.061   0.598 -0.3186  0.2204 -0.1834
  257TIP3    H1  693   1.886   0.973   0.562 -3.0445  0.5298  0.0312
  257TIP3    H2  694   1.864   1.120   0.533  0.6634  1.1489  0.1077
  258TIP3   OH2  695   0.850   1.572   2.613  0.6983 -0.4993  0.0401
  258TIP3    H1  696   0.902   1.517   2.670  2.1160  0.0224 -0.7290
  258TIP3    H2  697   0.760   1.558   2.641  1.2792 -1.1910  1.5655
  259TIP3   OH2  698   8.782   4.990   2.841 -0.3076  0.1851 -0.5095
  259TIP3    H1  699   8.843   4.956   2.775  1.1078 -0.9431  1.3212
  259TIP3    H2  700   8.705   4.933   2.834  0.2103 -0.5132 -0.5518
  260TIP3   OH2  701   0.432   7.808   1.888 -0.7298  0.4520  0.0009
  260TIP3    H1  702   0.526   7.808   1.905 -0.7202  1.3494 -0.0381
  260TIP3    H2  703   0.391   7.810   1.974 -0.7217 -0.3001  0.0274
  261TIP3   OH2  704   5.443   7.710   6.677  0.2651  0.1845 -0.3076
  261TIP3    H1  705   5.533   7.691   6.650  0.4972  0.4751  0.2386
  261TIP3    H2  706   5.410   7.770   6.611  0.4088 -0.0758 -0.6159
  262TIP3   OH2  707   3.025   2.483   3.546 -0.4086 -0.5060 -0.1046
  262TIP3    H1  708   2.942   2.438   3.532 -0.0449 -0.9110 -0.9830
  262TIP3    H2  709   3.092   2.418   3.524  0.1216  0.6962 -2.1794
  263TIP3   OH2  710   5.292   5.993   6.644  0.1106  0.3769 -0.3978
  263TIP3    H1  711   5.231   5.923   6.667 -1.4020  1.5772 -0.6757
  263TIP3    H2  712   5.308   5.981   6.551 -0.3042  0.5113 -0.4887
  264TIP3   OH2  713   2.745   0.772   3.133  0.0048  0.2519 -0.4229
  264TIP3    H1  714   2.724   0.682   3.159 -0.8384  0.1294 -1.4555
  264TIP3    H2  715   2.840   0.775   3.131  0.0491 -0.4113  0.3106
  265TIP3   OH2  716   3.163   4.173   1.414 -0.3916 -0.2914  0.2587
  265TIP3    H1  717   3.126   4.245   1.466 -0.1423 -1.1428  1.6288
  265TIP3    H2  718   3.147   4.095   1.466  0.7509 -1.0362 -0.4901
  266TIP3   OH2  719   6.259   5.513   6.773  0.0116 -0.1268  0.0050
  266TIP3    H1  720   6.278   5.456   6.699  1.3833  1.8289 -1.1950
  266TIP3    H2  721   6.242   5.453   6.846 -0.3909 -2.0581 -1.6437
  267TIP3   OH2  722   5.285   7.295   7.140  0.2698 -0.0205 -0.3857
  267TIP3    H1  723   5.365   7.345   7.124 -0.4016  0.9424 -0.7880
  267TIP3    H2  724   5.238   7.297   7.056 -1.1988  1.2965  0.4296
  268TIP3   OH2  725   4.414   3.004   2.054 -0.3793 -0.4305  0.2789
  268TIP3    H1  726   4.477   2.987   2.124 -1.4307 -1.0312  1.1015
  268TIP3    H2  727   4.367   3.082   2.083 -1.0917 -0.9148  0.4526
  269TIP3   OH2  728   2.888   0.126   0.929  0.1838  0.1571  0.1428
  269TIP3    H1  729   2.968   0.166   0.963  0.0004  0.3186  0.3822
  269TIP3    H2  730   2.919   0.062   0.865  0.4931  0.4410  0.0060
  270TIP3   OH2  731   2.830   4.085   3.190  0.6565 -0.7761 -0.3015
  270TIP3    H1  732   2.757   4.034   3.224 -0.7194  0.3573 -1.5103
  270TIP3    H2  733   2.903   4.023   3.187 -0.7759 -2.4759 -1.0056
  271TIP3   OH2  734   3.171   5.564   0.236 -0.3670 -0.2389  0.4348
  271TIP3    H1  735   3.110   5.576   0.308  0.9228 -1.2509  1.7041
  271TIP3    H2  736   3.201   5.474   0.244  1.6622  0.3824  0.1259
  272TIP3   OH2  737   4.243   2.381   2.292 -0.2211 -0.8754  0.0663
  272TIP3    H1  738   4.268   2.462   2.335  3.0822 -2.2411  0.8953
  272TIP3    H2  739   4.197   2.331   2.360 -1.4730 -0.0928 -0.1880
  273TIP3   OH2  740   2.446   0.434   2.283  0.6089 -0.3955 -0.0839
  273TIP3    H1  741   2.498   0.478   2.350 -1.0066 -1.0781  1.6639
  273TIP3    H2  742   2.356   0.442   2.314 -0.0727 -1.5848 -1.6946
  274TIP3   OH2  743   7.698   6.215   6.437 -0.4717  0.8321  0.3441
  274TIP3    H1  744   7.726   6.197   6.527  1.8746  1.9845 -0.1101
  274TIP3    H2  745   7.633   6.284   6.445 -2.6849 -1.2840  1.3660
  275TIP3   OH2  746   7.282   6.934   6.937 -0.2338  0.1882  0.6212
  275TIP3    H1  747   7.222   6.935   6.863 -1.8855  0.3034  1.9337
  275TIP3    H2  748   7.292   7.026   6.961 -0.2397  0.1041  0.9513
  276TIP3   OH2  749   4.724   6.557   7.149  0.1437  0.0237 -0.3473
  276TIP3    H1  750   4.793   6.521   7.204  0.3240  0.3165 -0.3815
  276TIP3    H2  751   4.769   6.619   7.091 -0.2905  0.9341  0.2858
  277TIP3   OH2  752   7.004   5.669   5.800 -0.1420  0.6204 -0.3899
  277TIP3    H1  753   6.937   5.707   5.743  0.4851  1.3412 -0.6596
  277TIP3    H2  754   7.046   5.601   5.747 -0.7212  0.1007 -0.1868
  278TIP3   OH2  755   4.037   1.202   2.132 -0.6124  0.2032 -0.3073
  278TIP3    H1  756   4.016   1.228   2.221  1.0114  0.0102  0.1550
  278TIP3    H2  757   4.015   1.278   2.078  0.2911  1.0598  0.5185
  279TIP3   OH2  758   5.543   1.190   0.904 -1.1602  0.2588 -0.4219
  279TIP3    H1  759   5.570   1.275   0.938 -0.4661 -0.1730  0.1375
  279TIP3    H2  760   5.552   1.197   0.809 -4.3552  1.9127 -0.6860
  280TIP3   OH2  761   3.222   1.489   0.088 -0.2039 -0.0777 -0.1549
  280TIP3    H1  762   3.170   1.498   0.007 -0.0989 -0.5011 -0.2666
  280TIP3    H2  763   3.266   1.574   0.096 -1.6819  0.6514  0.4739
  281TIP3   OH2  764   3.677   1.695   1.407 -0.1256  0.0271  0.0538
  281TIP3    H1  765   3.736   1.669   1.336  2.2894 -0.5291  2.1985
  281TIP3    H2  766   3.681   1.791   1.409  0.0219  0.0280 -0.3726
  282TIP3   OH2  767   2.986   2.330   1.629 -0.1268  0.1326 -0.1824
  282TIP3    H1  768   3.073   2.321   1.666 -0.3471 -1.3789 -0.0202
  282TIP3    H2  769   2.926   2.304   1.699 -0.6868  0.5288 -0.5048
  283TIP3   OH2  770   2.221   2.150   0.386 -0.3947 -0.6472  0.0091
  283TIP3    H1  771   2.261   2.132   0.470  1.7437 -1.1995 -1.0958
  283TIP3    H2  772   2.174   2.232   0.399 -0.1713 -0.7776  1.7494
  284TIP3   OH2  773   3.216   2.516   1.154  0.1833  0.0046  0.0986
  284TIP3    H1  774   3.139   2.495   1.207  0.1694 -1.8286 -0.6458
  284TIP3    H2  775   3.181   2.554   1.074  0.2450  4.7589  2.1391
  285TIP3   OH2  776   4.656   0.812   1.927  0.6473  0.2257  0.2027
  285TIP3    H1  777   4.608   0.760   1.862 -3.2757  4.1110 -0.2046
  285TIP3    H2  778   4.705   0.875   1.874  2.1944 -0.4246  0.8430
  286TIP3   OH2  779   2.264   0.286   0.711  0.2201  0.0206  0.0470
  286TIP3    H1  780   2.190   0.232   0.681  0.8721 -0.6780 -0.3272
  286TIP3    H2  781   2.232   0.329   0.790 -0.2966 -0.9618  0.3817
  287TIP3   OH2  782   0.082   6.057   5.462 -0.2216  0.0100 -0.2107
  287TIP3    H1  783   0.156   6.002   5.487  0.6083  0.6240 -1.2421
  287TIP3    H2  784   0.046   6.014   5.384  1.2169  1.5633 -1.7902
  288TIP3   OH2  785   4.562   2.255   1.022  0.0810 -0.1180 -0.2441
  288TIP3    H1  786   4.650   2.219   1.009  0.6545  1.2483 -0.1795
  288TIP3    H2  787   4.570   2.348   1.001 -1.0831  0.2612  0.9191
  289TIP3   OH2  788   4.007   1.654   1.821  0.0088  0.8541 -0.3845
  289TIP3    H1  789   4.025   1.584   1.885 -1.7539 -1.9504 -2.8570
  289TIP3    H2  790   4.093   1.676   1.786  0.5562 -0.3767  0.1333
  290TIP3   OH2  791   4.696   7.132   6.225 -0.4293  0.4713 -0.4888
  290TIP3    H1  792   4.667   7.108   6.137  0.9968 -1.4472 -0.4682
  290TIP3    H2  793   4.638   7.083   6.284 -0.7392  0.9710 -0.3795
  291TIP3   OH2  794   4.049   2.038   1.668 -0.0083  0.5909  0.1066
  291TIP3    H1  795   4.062   2.084   1.585 -0.8898 -0.1573 -0.4627
  291TIP3    H2  796   4.117   2.072   1.726 -0.5768  2.5277 -0.3317
  292TIP3   OH2  797   4.881   6.011   6.290  0.0720 -0.1107 -0.5601
  292TIP3    H1  798   4.806   5.972   6.244 -0.6883  3.1471 -2.2493
  292TIP3    H2  799   4.900   5.949   6.361 -1.8889 -2.8213 -2.2584
  293TIP3   OH2  800   5.480   1.010   0.685  0.3385  0.2655  0.1925
  293TIP3    H1  801   5.566   1.006   0.643 -0.2709 -0.9698 -0.9799
  293TIP3    H2  802   5.444   1.094   0.659  0.5301  0.0859 -0.6594
  294TIP3   OH2  803   5.070   1.423   1.159 -0.2891 -0.6483  0.0419
  294TIP3    H1  804   5.057   1.468   1.075  1.5076  0.5922  0.4174
  294TIP3    H2  805   5.046   1.488   1.225  0.8871 -0.7279  0.5526
  295TIP3   OH2  806   5.527   2.139   1.706  0.1085  0.1235 -0.2276
  295TIP3    H1  807   5.465   2.068   1.724 -1.3679  1.1052 -1.4047
  295TIP3    H2  808   5.522   2.195   1.783  0.1729 -0.2416  0.0469
  296TIP3   OH2  809   3.210   3.785   2.984  0.3529 -0.0508 -0.9523
  296TIP3    H1  810   3.305   3.793   2.980  0.4052  0.2028  0.7423
  296TIP3    H2  811   3.182   3.787   2.892  1.9741 -0.1194 -1.4549
  297TIP3   OH2  812   4.686   0.679   1.655 -0.1241  0.1091  0.3790
  297TIP3    H1  813   4.704   0.758   1.604 -0.7824 -0.2315 -0.3745
  297TIP3    H2  814   4.606   0.643   1.617 -0.8718  0.0859  1.9132
  298TIP3   OH2  815   2.745   3.105   4.433 -0.3753 -0.4363 -0.0172
  298TIP3    H1  816   2.763   3.088   4.340 -2.2598  0.5287 -0.5799
  298TIP3    H2  817   2.754   3.200   4.442  2.6063 -0.8029  1.4471
  299TIP3   OH2  818   3.905   2.402   1.733  0.2683  0.0128 -0.6197
  299TIP3    H1  819   4.001   2.407   1.732  0.4528 -2.8575 -0.2647
  299TIP3    H2  820   3.884   2.350   1.655 -0.9770  0.3279 -0.4895
  300TIP3   OH2  821   6.842   7.436   6.524  0.0878 -0.3217  0.1010
  300TIP3    H1  822   6.899   7.445   6.601 -0.3542 -0.0388  0.4000
  300TIP3    H2  823   6.758   7.473   6.552  0.1632  0.5534 -0.7838
  301TIP3   OH2  824   2.622   3.607   2.765  0.1510 -0.1507 -0.0848
  301TIP3    H1  825   2.688   3.669   2.735 -0.0033 -0.4404 -1.0331
  301TIP3    H2  826   2.621   3.539   2.698 -1.3200  0.0174 -0.2554
  302TIP3   OH2  827   6.586   5.624   6.336  0.4821  0.2322  0.1955
  302TIP3    H1  828   6.665   5.608   6.388 -0.7426 -0.9756  1.7344
  302TIP3    H2  829   6.551   5.707   6.370  0.7223  0.4298 -0.0364
  303TIP3   OH2  830   3.700   2.961   2.622 -0.0855 -0.6105 -0.0191
  303TIP3    H1  831   3.637   3.029   2.598  1.4010  1.0395  0.6676
  303TIP3    H2  832   3.695   2.956   2.717  0.6831 -0.6081  0.0233
  304TIP3   OH2  833   0.755   1.845   2.527 -0.0681 -0.0896  0.1938
  304TIP3    H1  834   0.735   1.889   2.445 -1.3785 -1.4103 -0.2177
  304TIP3    H2  835   0.737   1.753   2.510  2.0318 -0.7252  1.2265
  305TIP3   OH2  836   4.918   5.101   1.482  0.1153 -0.4048  0.3883
  305TIP3    H1  837   4.833   5.088   1.440  0.3300  0.3970 -0.3005
  305TIP3    H2  838   4.981   5.060   1.422  0.3936  0.5290  0.0204
  306TIP3   OH2  839   3.322   1.968   3.026 -0.1317 -0.0688 -0.6848
  306TIP3    H1  840   3.376   1.889   3.026 -1.6990 -1.1688 -1.1517
  306TIP3    H2  841   3.240   1.940   3.067 -1.2606  0.9220 -2.2469
  307TIP3   OH2  842   3.213   4.569   0.912 -0.2720  0.5926  0.3730
  307TIP3    H1  843   3.304   4.547   0.891  0.3868  3.6969 -0.1518
  307TIP3    H2  844   3.168   4.566   0.828 -0.6313 -0.7076  0.5996
  308TIP3   OH2  845   5.886   4.565   6.336 -0.2566  0.1747 -0.4878
  308TIP3    H1  846   5.891   4.471   6.351 -1.1768  0.0987 -0.5906
  308TIP3    H2  847   5.868   4.574   6.243  0.6748  0.4839 -0.6395
  309TIP3   OH2  848   2.113   2.974   1.215 -0.1405 -0.0980 -0.3318
  309TIP3    H1  849   2.038   2.933   1.259 -0.0574 -1.8243 -1.7572
  309TIP3    H2  850   2.110   3.065   1.244 -1.3258 -0.7179  1.5775
  310TIP3   OH2  851   1.273   1.441   1.410 -0.0231 -0.3001 -0.6579
  310TIP3    H1  852   1.217   1.498   1.357 -1.1231  0.0418  0.8163
  310TIP3    H2  853   1.361   1.477   1.401 -0.4209  0.5429 -1.1847
  311TIP3   OH2  854   0.206   7.935   1.664 -0.1782 -0.5227 -0.0933
  311TIP3    H1  855   0.163   7.926   1.579 -0.7296 -1.8883  0.3139
  311TIP3    H2  856   0.178   8.020   1.697  0.7105  0.3996 -1.6402
  312TIP3   OH2  857   4.557   2.112   4.083 -0.0020 -0.0700 -0.4180
  312TIP3    H1  858   4.610   2.192   4.075 -0.9582  0.6552  0.4437
  312TIP3    H2  859   4.596   2.066   4.157 -0.4654  0.3786  0.1057
  313TIP3   OH2  860   2.948   0.927   1.328  0.2618  0.3876 -0.3079
  313TIP3    H1  861   2.995   0.845   1.315  1.2612  0.6907  1.2992
  313TIP3    H2  862   2.900   0.915   1.410  0.3648  1.3836 -0.0916
  314TIP3   OH2  863   0.268   7.605   1.169 -0.5202  0.2659 -0.4232
  314TIP3    H1  864   0.179   7.616   1.203 -0.8375 -0.7877 -0.8954
  314TIP3    H2  865   0.258   7.544   1.095  0.7686 -0.8845  0.3284
  315TIP3   OH2  866   4.466   1.530   3.173 -0.2661 -0.2870 -0.3241
  315TIP3    H1  867   4.480   1.619   3.206 -1.2821  0.4088 -1.6814
  315TIP3    H2  868   4.381   1.535   3.129 -0.2612 -1.9037 -0.5285
  316TIP3   OH2  869   7.796   8.191   2.041  0.0675  0.0145  0.1949
  316TIP3    H1  870   7.778   8.102   2.010  1.5213  0.4523 -1.9520
  316TIP3    H2  871   7.727   8.244   2.002  0.2743  0.1334 -0.0059
  317TIP3   OH2  872   2.252   7.981   1.558 -0.0200 -0.3212 -0.3588
  317TIP3    H1  873   2.210   8.067   1.557  0.7421  0.1257  1.9716
  317TIP3    H2  874   2.290   7.972   1.471 -1.9470  0.7554 -1.3433
  318TIP3   OH2  875   4.316   2.164   0.680 -0.2662  0.1390 -0.5027
  318TIP3    H1  876   4.355   2.077   0.673 -1.2495 -0.2436 -1.2860
  318TIP3    H2  877   4.390   2.224   0.669  0.2318 -0.5968 -1.2308
  319TIP3   OH2  878   2.768   4.056   1.480  0.0952 -0.1845 -0.4848
  319TIP3    H1  879   2.836   3.989   1.488 -0.1816 -0.3276  0.8845
  319TIP3    H2  880   2.698   4.014   1.432 -0.2988 -1.0754  0.8336
  320TIP3   OH2  881   4.594   3.420   3.747 -0.3690 -0.0987 -0.6579
  320TIP3    H1  882   4.552   3.334   3.739  0.9513 -0.8465  0.2643
  320TIP3    H2  883   4.678   3.409   3.703 -0.3754  0.8696 -0.9197
  321TIP3   OH2  884   4.151   3.219   2.373  0.4054  0.1152  0.3429
  321TIP3    H1  885   4.117   3.292   2.322 -1.0397 -0.3159  0.6675
  321TIP3    H2  886   4.136   3.245   2.464  1.3123  0.0881  0.5038
  322TIP3   OH2  887   5.929   5.202   6.967  0.0807  0.2807 -0.7216
  322TIP3    H1  888   5.867   5.274   6.960 -0.5113  0.0927  2.0563
  322TIP3    H2  889   6.015   5.245   6.962 -0.2531  0.9096 -1.2552
  323TIP3   OH2  890   3.826   2.851   1.345 -0.0546  0.0876  0.3119
  323TIP3    H1  891   3.771   2.841   1.423 -0.3858  0.1616  0.0912
  323TIP3    H2  892   3.773   2.904   1.285  1.3514  2.4584  1.1373
  324TIP3   OH2  893   4.109   1.162   3.096  0.3602  0.6612  0.2970
  324TIP3    H1  894   4.095   1.125   3.183 -0.9826 -0.9999 -0.5771
  324TIP3    H2  895   4.060   1.104   3.037  0.2835  2.4026 -1.4363
  325TIP3   OH2  896   3.147   1.733   0.281 -0.9592  0.0897 -0.5467
  325TIP3    H1  897   3.191   1.770   0.205  0.1649 -0.0455  0.0354
  325TIP3    H2  898   3.097   1.659   0.246 -0.5577  0.1137 -1.1716
  326TIP3   OH2  899   5.343   1.423   1.552  0.0880 -0.0624  0.5879
  326TIP3    H1  900   5.353   1.391   1.462  0.9288  0.0643  0.6347
  326TIP3    H2  901   5.412   1.489   1.562 -2.0180  2.2943  0.2610
  327TIP3   OH2  902   6.832   6.194   6.399 -0.2788 -0.2770  0.1212
  327TIP3    H1  903   6.835   6.166   6.491 -1.7449 -1.5055 -0.1631
  327TIP3    H2  904   6.803   6.285   6.403 -0.4828 -0.3664  0.8722
  328TIP3   OH2  905   4.567   1.789   2.217  0.1857  0.8233  0.1975
  328TIP3    H1  906   4.487   1.841   2.212  0.4019  1.0632 -1.1198
  328TIP3    H2  907   4.616   1.826   2.290 -1.4392 -0.1156  1.8026
  329TIP3   OH2  908   8.759   7.991   1.298  0.4044 -0.2997  0.1478
  329TIP3    H1  909   8.673   7.952   1.279  0.8228 -0.5952 -1.2053
  329TIP3    H2  910   8.751   8.082   1.271  0.5817 -0.3801 -0.1802
  330TIP3   OH2  911   3.698   1.638   0.190 -0.4331 -0.0049 -0.0880
  330TIP3    H1  912   3.776   1.593   0.221  0.3212 -0.6177 -2.7180
  330TIP3    H2  913   3.628   1.572   0.193 -0.0490 -0.4586 -0.9694
  331TIP3   OH2  914   5.891   6.428   6.865  0.2338 -0.1287  0.4864
  331TIP3    H1  915   5.868   6.498   6.803  0.5524  0.5726  1.1497
  331TIP3    H2  916   5.915   6.474   6.945 -0.3897 -1.0460  1.2073
  332TIP3   OH2  917   6.996   4.974   5.399  0.8756  0.0566 -0.1440
  332TIP3    H1  918   7.064   4.945   5.460  0.3540  0.4637  0.6387
  332TIP3    H2  919   7.042   4.984   5.316  1.5466 -0.7357  0.1205
  333TIP3   OH2  920   4.774   3.776   2.690  0.6006 -0.2440  0.7072
  333TIP3    H1  921   4.773   3.794   2.784 -0.2599 -2.2802  1.1154
  333TIP3    H2  922   4.818   3.691   2.682  2.0047  0.5822 -0.8836
  334TIP3   OH2  923   3.029   1.110   2.077  0.4097  0.0745 -0.0878
  334TIP3    H1  924   3.000   1.193   2.037 -1.6243  0.1543  1.5018
  334TIP3    H2  925   2.990   1.042   2.022 -0.4268  0.1841  0.3620
  335TIP3   OH2  926   3.069   1.738   1.494 -0.2554  0.0739  0.2622
  335TIP3    H1  927   3.142   1.758   1.553 -1.1011  1.2004  0.9421
  335TIP3    H2  928   3.015   1.817   1.495 -1.7631 -0.9455  0.1593
  336TIP3   OH2  929   4.140   2.000   0.806 -0.2553  0.0868 -0.4385
  336TIP3    H1  930   4.206   2.040   0.750 -0.3054 -1.7358 -1.8352
  336TIP3    H2  931   4.181   1.995   0.893 -0.0122  2.5037 -0.3818
  337TIP3   OH2  932   6.006   0.815   0.858  0.6461  0.5482  0.5835
  337TIP3    H1  933   5.928   0.832   0.911  1.5597  0.1639  2.0511
  337TIP3    H2  934   5.972   0.809   0.768 -1.0799 -0.0541  1.2481
  338TIP3   OH2  935   0.399   5.801   5.890 -0.4626 -0.0077 -0.0707
  338TIP3    H1  936   0.326   5.739   5.893  0.2751 -0.8504  0.8433
  338TIP3    H2  937   0.361   5.883   5.920 -0.5899 -0.9292  2.4730
  339TIP3   OH2  938   5.744   2.042   0.371  0.2649  1.2010 -0.0337
  339TIP3    H1  939   5.836   2.048   0.346  0.2128  1.3258 -0.1992
  339TIP3    H2  940   5.743   2.054   0.466  0.6618 -1.2825  0.2893
  340TIP3   OH2  941   3.853   1.585   0.778 -0.2717  0.2695  0.2509
  340TIP3    H1  942   3.863   1.490   0.781 -0.0573  0.2064 -1.7778
  340TIP3    H2  943   3.911   1.618   0.847 -1.8609 -1.1497  2.3102
  341TIP3   OH2  944   0.859   1.758   0.926 -0.4778  0.3211  0.1871
  341TIP3    H1  945   0.818   1.793   1.005  2.3192 -1.3500  2.4703
  341TIP3    H2  946   0.868   1.664   0.942  1.7989  0.2370 -1.3247
  342TIP3   OH2  947   3.709   3.061   1.201 -0.4283 -0.0995 -0.0623
  342TIP3    H1  948   3.763   3.130   1.240  0.9381 -0.7045 -0.8157
  342TIP3    H2  949   3.620   3.097   1.201  0.1263  1.3263  0.3123
  343TIP3   OH2  950   2.866   1.828   1.260 -0.0047 -0.8428  0.3400
  343TIP3    H1  951   2.790   1.884   1.275  0.5301 -0.6167  2.3571
  343TIP3    H2  952   2.935   1.889   1.232 -0.3420 -0.9515 -0.7540
  344TIP3   OH2  953   7.444   6.385   6.742 -0.4372  0.3653 -0.6410
  344TIP3    H1  954   7.372   6.448   6.731  1.0275  2.3664  0.9276
  344TIP3    H2  955   7.480   6.374   6.654 -0.7216  1.7447 -0.9528
  345TIP3   OH2  956   6.138   4.533   5.981  0.2297 -0.2955  0.0566
  345TIP3    H1  957   6.052   4.539   6.023 -0.1063  0.2912 -0.6903
  345TIP3    H2  958   6.159   4.440   5.982  0.6070 -0.1976  2.2540
  346TIP3   OH2  959   3.917   1.887   2.171  0.2581  0.7424  0.1165
  346TIP3    H1  960   3.910   1.917   2.080 -0.4982  1.0874  0.2859
  346TIP3    H2  961   3.966   1.805   2.165 -0.3446  0.4322 -0.6703
  347TIP3   OH2  962   4.712   3.470   1.437 -0.3747  0.2576  0.0712
  347TIP3    H1  963   4.670   3.408   1.377  0.7741 -0.5302  0.0586
  347TIP3    H2  964   4.680   3.443   1.523 -1.8236  1.2282 -0.1461
  348TIP3   OH2  965   6.886   7.448   2.424 -0.5836  0.5615 -0.1232
  348TIP3    H1  966   6.962   7.497   2.392  0.8765 -1.4853  0.1096
  348TIP3    H2  967   6.845   7.414   2.344  1.6572 -2.5013 -0.0477
  349TIP3   OH2  968   5.380   6.040   6.972  0.2836 -0.5259  0.4530
  349TIP3    H1  969   5.468   6.020   7.004 -0.1958 -2.1245  0.8445
  349TIP3    H2  970   5.345   5.955   6.946 -0.3829  0.3663 -1.6892
  350TIP3   OH2  971   2.502   0.806   0.239 -0.1192  0.4581 -0.2799
  350TIP3    H1  972   2.472   0.720   0.267 -1.5397  0.9445 -0.2987
  350TIP3    H2  973   2.425   0.848   0.203  0.4460  1.9381  0.1972
  351TIP3   OH2  974   3.211   3.099   1.508  0.4050 -0.2070  0.4104
  351TIP3    H1  975   3.172   3.143   1.432  1.1151 -2.2471 -1.1727
  351TIP3    H2  976   3.296   3.141   1.519  1.6411 -1.9949 -1.9208
  352TIP3   OH2  977   5.503   3.061   1.068 -0.1880 -0.0981  0.0829
  352TIP3    H1  978   5.446   3.030   1.139 -0.6540  2.0829  0.7118
  352TIP3    H2  979   5.476   3.009   0.992 -1.4667 -0.6905  0.9094
  353TIP3   OH2  980   3.353   1.653   0.935  0.1953  0.0991  0.1653
  353TIP3    H1  981   3.358   1.580   0.874  0.9187  0.3590 -0.0925
  353TIP3    H2  982   3.442   1.687   0.939  0.1306  0.1790  1.2506
  354TIP3   OH2  983   7.449   8.225   0.827 -0.3934  0.6980  0.4159
  354TIP3    H1  984   7.530   8.276   0.835 -0.2152  0.3989  0.5527
  354TIP3    H2  985   7.393   8.277   0.770 -0.3985  1.2712  0.9446
  355TIP3   OH2  986   3.217   2.766   0.553 -0.1811  0.5618 -0.0010
  355TIP3    H1  987   3.154   2.694   0.560  0.2363  0.2814  0.9015
  355TIP3    H2  988   3.223   2.802   0.642  0.6871  0.8017 -0.1542
  356TIP3   OH2  989   6.030   5.304   6.549  0.1642 -0.4995 -0.3521
  356TIP3    H1  990   5.979   5.377   6.585  0.8752  0.5714 -1.4793
  356TIP3    H2  991   5.992   5.226   6.589  1.0310  0.6461  2.8104
  357TIP3   OH2  992   2.068   1.767   1.535 -0.1798 -0.3540 -0.7500
  357TIP3    H1  993   2.069   1.755   1.440  2.2154 -1.4519 -0.6320
  357TIP3    H2  994   1.977   1.750   1.560 -0.8277 -0.1571 -2.8204
  358TIP3   OH2  995   3.139   4.193   2.235  0.1099 -0.2987 -0.6251
  358TIP3    H1  996   3.227   4.226   2.216  0.1004  0.2874  0.2865
  358TIP3    H2  997   3.080   4.258   2.196  0.0753 -0.5229 -0.9529
  359TIP3   OH2  998   3.955   2.908   0.780 -0.1042 -0.3047  0.2195
  359TIP3    H1  999   4.045   2.915   0.750 -0.2969  0.3302 -0.2100
  359TIP3    H2 1000   3.907   2.874   0.704 -0.4251  0.4088  0.1026
  360TIP3   OH2 1001   4.921   3.320   4.761 -0.4538 -0.3670 -0.4875
  360TIP3    H1 1002   4.833   3.297   4.791 -1.2310  2.2174 -0.6980
  360TIP3    H2 1003   4.937   3.260   4.687 -1.6574 -1.4544  0.0957
  361TIP3   OH2 1004   5.598   6.319   6.140  0.0529  0.0469  0.0540
  361TIP3    H1 1005   5.692   6.302   6.133 -0.1652 -0.7432 -1.3271
  361TIP3    H2 1006   5.574   6.290   6.228  0.7915 -1.3903 -0.2051
  362TIP3   OH2 1007   3.368   4.273   2.033  0.0014 -0.1095 -0.5145
  362TIP3    H1 1008   3.308   4.337   1.995 -0.5316 -1.3967 -1.8830
  362TIP3    H2 1009   3.449   4.284   1.983 -0.6198 -1.6306 -1.8959
  363TIP3   OH2 1010   4.541   3.815   4.723  0.0746 -0.3307  0.5267
  363TIP3    H1 1011   4.518   3.727   4.693  1.3167 -0.6654  0.5173
  363TIP3    H2 1012   4.637   3.816   4.722  0.0603  1.4090 -0.5828
  364TIP3   OH2 1013   4.103   1.192   1.474  0.5916 -0.2991 -0.1139
  364TIP3    H1 1014   4.162   1.131   1.431 -0.3692 -0.4255 -1.2701
  364TIP3    H2 1015   4.141   1.278   1.458  0.5202 -0.3871 -0.7623
  365TIP3   OH2 1016   1.015   1.215   1.181 -0.0420  0.1669 -0.0211
  365TIP3    H1 1017   1.106   1.192   1.164  0.1919  1.0623  0.0086
  365TIP3    H2 1018   0.966   1.135   1.160  0.9028 -0.8435  1.5126
  366TIP3   OH2 1019   2.714   3.049   4.166 -0.3175  0.0595  0.4556
  366TIP3    H1 1020   2.723   3.094   4.082 -0.5800  1.6535  1.2552
  366TIP3    H2 1021   2.741   2.959   4.149 -0.7295  0.2728 -1.4229
  367TIP3   OH2 1022   4.757   3.824   2.976 -0.0964  0.2232  0.6540
  367TIP3    H1 1023   4.822   3.768   3.019 -0.5797  0.0200  1.1226
  367TIP3    H2 1024   4.676   3.774   2.980  0.0995 -0.3672 -1.6420
  368TIP3   OH2 1025   7.799   2.015   6.950  0.2710  0.5607 -0.1537
  368TIP3    H1 1026   7.797   2.058   6.864  0.1868 -2.0707 -1.5209
  368TIP3    H2 1027   7.711   1.981   6.961  0.8478 -0.8990  0.0227
  369TIP3   OH2 1028   2.648   3.046   2.870  0.0181  0.0236 -0.3839
  369TIP3    H1 1029   2.559   3.049   2.835 -0.0504  0.3306 -0.1922
  369TIP3    H2 1030   2.637   3.014   2.960 -0.1554  2.1929  0.4043
  370TIP3   OH2 1031   3.257   1.016   1.346  0.2391 -0.0345 -0.1021
  370TIP3    H1 1032   3.277   0.941   1.402  1.0574  0.2637 -0.0019
  370TIP3    H2 1033   3.242   0.977   1.260  1.3585 -0.2388 -0.2041
  371TIP3   OH2 1034   3.033   0.457   2.460  0.0397 -0.3945 -0.3108
  371TIP3    H1 1035   2.978   0.481   2.385  0.5734 -0.3625 -0.6964
  371TIP3    H2 1036   3.119   0.438   2.421  0.5550  0.4628  0.3837
  372TIP3   OH2 1037   5.899   0.505   3.013 -0.2349  0.4933  0.9430
  372TIP3    H1 1038   5.878   0.455   2.934 -0.6736  0.7747  0.8791
  372TIP3    H2 1039   5.965   0.453   3.058 -1.7808 -0.9040  1.6557
  373TIP3   OH2 1040   5.107   2.656   2.409 -0.3564 -0.4060  0.2597
  373TIP3    H1 1041   5.153   2.577   2.380 -0.8626 -0.3053 -0.8779
  373TIP3    H2 1042   5.090   2.642   2.502  0.7357 -1.0486  0.3742
  374TIP3   OH2 1043   4.453   1.431   3.429  0.1798  0.2246 -0.5021
  374TIP3    H1 1044   4.419   1.445   3.340  0.8587  0.7805 -0.6760
  374TIP3    H2 1045   4.524   1.368   3.418  1.0481  1.2088 -0.5109
  375TIP3   OH2 1046   1.279   6.544   4.943  0.1331 -0.6859  0.6920
  375TIP3    H1 1047   1.252   6.480   5.010  1.2320 -1.2458  0.6113
  375TIP3    H2 1048   1.277   6.494   4.861 -0.7111 -0.1373  0.3758
  376TIP3   OH2 1049   1.702   0.223   0.692 -0.5185  0.6963  0.3040
  376TIP3    H1 1050   1.730   0.289   0.755 -0.5763  1.0861 -0.0732
  376TIP3    H2 1051   1.769   0.226   0.623 -0.5087  0.3418  0.2941
  377TIP3   OH2 1052   3.675   2.634   2.235  0.3041  0.4174  0.2793
  377TIP3    H1 1053   3.710   2.700   2.295  0.4348  0.7677 -0.1719
  377TIP3    H2 1054   3.617   2.683   2.177 -0.1593  0.0071  0.4000
  378TIP3   OH2 1055   8.139   4.742   6.981 -0.0347  0.0953  0.0398
  378TIP3    H1 1056   8.085   4.761   6.904 -0.6762 -0.0259  0.4477
  378TIP3    H2 1057   8.079   4.697   7.041  0.0218  1.5708  1.2447
  379TIP3   OH2 1058   6.247   4.355   6.875  0.2468  0.2455  0.4466
  379TIP3    H1 1059   6.278   4.335   6.787 -2.9277 -0.3354 -0.6210
  379TIP3    H2 1060   6.240   4.270   6.918 -2.1939  0.1056 -0.1791
  380TIP3   OH2 1061   0.076   7.838   0.056 -0.1700  0.0380 -0.3261
  380TIP3    H1 1062   0.166   7.848   0.026  0.0407  0.0036  0.2910
  380TIP3    H2 1063   0.065   7.744   0.068 -0.1850  0.0731 -0.0753
  381TIP3   OH2 1064   6.943   2.340   0.590  0.3548  0.7443  0.5129
  381TIP3    H1 1065   6.860   2.381   0.564  0.2492  0.9203  1.1300
  381TIP3    H2 1066   7.003   2.362   0.519 -0.1421  0.5718  0.0396
  382TIP3   OH2 1067   3.658   3.461   1.058  0.7633 -0.3824  0.6961
  382TIP3    H1 1068   3.607   3.481   0.980  0.7994  1.0698  1.0382
  382TIP3    H2 1069   3.600   3.480   1.131  0.9302 -1.1738  1.0448
  383TIP3   OH2 1070   6.160   6.882   6.944  0.1822  0.3083 -0.1568
  383TIP3    H1 1071   6.077   6.876   6.897  0.8114  0.2586 -1.2895
  383TIP3    H2 1072   6.226   6.895   6.875  1.2004 -0.4240  0.6573
  384TIP3   OH2 1073   0.711   1.415   0.766 -0.2518 -0.2846 -0.1487
  384TIP3    H1 1074   0.649   1.430   0.838 -1.8207  1.9491 -1.9080
  384TIP3    H2 1075   0.781   1.363   0.806 -2.3356 -1.3068  2.3458
  385TIP3   OH2 1076   4.627   2.085   0.482 -0.1481 -0.1191 -0.3811
  385TIP3    H1 1077   4.579   2.154   0.436 -1.6179  0.0730  1.3654
  385TIP3    H2 1078   4.560   2.036   0.529  1.2541 -0.5302  1.2544
  386TIP3   OH2 1079   4.084   2.547   1.181 -0.1999 -0.2455 -0.3884
  386TIP3    H1 1080   4.023   2.547   1.255 -0.5117  0.7758 -0.6349
  386TIP3    H2 1081   4.111   2.456   1.172  0.7136 -0.1966  1.6903
  387TIP3   OH2 1082   5.933   2.125   1.691  0.0263  0.1308 -0.1713
  387TIP3    H1 1083   5.888   2.090   1.768  0.2767  0.7944  0.2731
  387TIP3    H2 1084   5.916   2.060   1.623 -0.0016 -0.5725  0.4991
  388TIP3   OH2 1085   7.408   6.018   6.218 -0.1016 -0.4527 -0.0909
  388TIP3    H1 1086   7.406   6.068   6.300 -1.7169  1.4048 -1.2143
  388TIP3    H2 1087   7.322   5.975   6.214 -0.2184 -0.1350 -1.0439
  389TIP3   OH2 1088   7.373   4.964   5.988  0.3509  0.6831  0.1879
  389TIP3    H1 1089   7.412   4.986   6.072 -1.5624  0.6417  1.1056
  389TIP3    H2 1090   7.295   5.020   5.982 -0.8935 -1.0878 -0.4330
  390TIP3   OH2 1091   7.627   5.047   7.229  0.5227  0.0610  0.0873
  390TIP3    H1 1092   7.583   5.091   7.302  0.0329  0.7118 -0.5907
  390TIP3    H2 1093   7.556   5.026   7.168  0.6973 -1.9213  0.5135
  391TIP3   OH2 1094   3.767   0.821   1.740  0.2803 -0.8233 -0.0105
  391TIP3    H1 1095   3.700   0.791   1.802  0.4265 -0.4308  0.3334
  391TIP3    H2 1096   3.720   0.830   1.657  0.3140 -2.3994 -0.2133
  392TIP3   OH2 1097   6.522   6.120   6.862 -0.4846  0.2258  0.4332
  392TIP3    H1 1098   6.589   6.117   6.930  0.2357  2.6019 -0.1321
  392TIP3    H2 1099   6.488   6.210   6.864 -2.1856 -0.3497 -0.6885
  393TIP3   OH2 1100   5.696   6.664   5.350 -0.1162  0.1300  0.3867
  393TIP3    H1 1101   5.771   6.688   5.404 -0.1840  0.1589  0.4677
  393TIP3    H2 1102   5.712   6.709   5.266 -1.7580  3.0357  1.5460
  394TIP3   OH2 1103   4.602   1.934   1.144 -0.1943 -0.3744  0.1365
  394TIP3    H1 1104   4.562   1.861   1.096  0.4883 -1.0444  0.5824
  394TIP3    H2 1105   4.678   1.959   1.090  1.1120 -1.7283  1.3023
  395TIP3   OH2 1106   6.601   2.084   0.679 -0.3788  0.0619 -0.2254
  395TIP3    H1 1107   6.626   1.992   0.690  0.4132  0.4827  1.7460
  395TIP3    H2 1108   6.610   2.101   0.585  0.2927 -1.6426 -0.4800
  396TIP3   OH2 1109   6.484   2.394   4.511  0.4728  0.3452  0.0278
  396TIP3    H1 1110   6.468   2.395   4.417  4.3390 -2.1062 -0.7651
  396TIP3    H2 1111   6.444   2.312   4.541 -0.5006  0.9826  0.5018
  397TIP3   OH2 1112   6.827   6.152   6.678 -0.0183 -0.1428 -0.4002
  397TIP3    H1 1113   6.877   6.186   6.752  0.9074 -1.3194 -0.4831
  397TIP3    H2 1114   6.804   6.063   6.703  0.3381 -0.5690 -1.5427
  398TIP3   OH2 1115   6.615   2.029   0.379 -0.3030  0.3798  0.2865
  398TIP3    H1 1116   6.555   2.000   0.310  0.6874 -0.2063 -0.3410
  398TIP3    H2 1117   6.687   1.966   0.377 -0.3396  0.2565  1.9819
  399TIP3   OH2 1118   5.784   1.316   1.712  0.1893 -0.6517  0.3034
  399TIP3    H1 1119   5.757   1.240   1.661 -0.0190 -0.9122  0.7906
  399TIP3    H2 1120   5.849   1.360   1.658 -1.4339  0.1577 -1.0085
  400TIP3   OH2 1121   3.139   2.903   1.243 -0.1078 -0.3167  0.0192
  400TIP3    H1 1122   3.161   2.995   1.255 -1.8870  0.3503 -1.5006
  400TIP3    H2 1123   3.186   2.877   1.164 -1.7122  0.0595 -1.0807
  401TIP3   OH2 1124   3.473   1.631   2.339  0.2120  0.2752 -0.0814
  401TIP3    H1 1125   3.510   1.719   2.337 -0.3665  0.5154 -0.2931
  401TIP3    H2 1126   3.397   1.635   2.281 -2.7125  0.9458  3.6159
  402TIP3   OH2 1127   1.095   8.168   0.815 -0.3078  0.3794  0.0865
  402TIP3    H1 1128   1.133   8.102   0.758  1.3177  0.1407  1.3973
  402TIP3    H2 1129   1.156   8.242   0.811  0.2843  0.0438  2.1027
  403TIP3   OH2 1130   5.272   5.742   7.012  0.1728  0.4741 -0.0488
  403TIP3    H1 1131   5.321   5.659   7.011 -0.3648  0.1683 -1.6812
  403TIP3    H2 1132   5.282   5.773   7.102  1.0758 -0.9504  0.3764
  404TIP3   OH2 1133   6.610   1.318   2.584  0.0601  0.0941 -0.0634
  404TIP3    H1 1134   6.679   1.382   2.598 -0.7960  1.2778 -1.2295
  404TIP3    H2 1135   6.632   1.276   2.501 -0.5497  0.3983 -0.3835
  405TIP3   OH2 1136   3.741   1.043   0.109  0.4222 -0.5862  0.1307
  405TIP3    H1 1137   3.777   1.029   0.197 -1.5793  1.7677  1.3687
  405TIP3    H2 1138   3.775   1.128   0.082 -1.3276  0.0528 -0.1265
  406TIP3   OH2 1139   1.493   8.022   0.085  0.1129 -0.6179 -0.3689
  406TIP3    H1 1140   1.551   7.953   0.054 -0.1813 -0.4681 -1.2693
  406TIP3    H2 1141   1.481   8.079   0.009 -0.4942 -0.1599  0.0622
  407TIP3   OH2 1142   2.200   3.295   3.587 -0.1126  0.0882 -0.1615
  407TIP3    H1 1143   2.250   3.375   3.568  0.4954  0.0471  1.1973
  407TIP3    H2 1144   2.239   3.261   3.667 -0.6231 -1.3765 -0.5255
  408TIP3   OH2 1145   5.095   2.871   1.609  0.3450 -0.4562  0.1633
  408TIP3    H1 1146   5.041   2.838   1.681  2.2398 -1.1056  1.3145
  408TIP3    H2 1147   5.053   2.953   1.584 -1.6809 -1.3680  0.4245
  409TIP3   OH2 1148   5.568   2.554   2.142  0.1230 -0.2511  0.6250
  409TIP3    H1 1149   5.500   2.599   2.093  0.9655  1.6033  1.0834
  409TIP3    H2 1150   5.522   2.514   2.216 -0.6673 -0.1904  0.1683
  410TIP3   OH2 1151   3.668   1.832   2.274  0.1162  0.1126  0.8213
  410TIP3    H1 1152   3.629   1.818   2.188 -0.6654  1.1294  0.9889
  410TIP3    H2 1153   3.760   1.850   2.257 -0.4137  2.1846  0.0276
  411TIP3   OH2 1154   2.520   8.035   1.744 -0.6966 -0.5748  0.2639
  411TIP3    H1 1155   2.591   8.005   1.801  1.2429 -0.5588 -2.0786
  411TIP3    H2 1156   2.527   8.130   1.744 -0.4137 -0.5912 -0.3190
  412TIP3   OH2 1157   2.471   3.064   1.372  0.1789  0.6332  0.0349
  412TIP3    H1 1158   2.398   3.084   1.431 -1.1758  1.2138 -1.8105
  412TIP3    H2 1159   2.430   3.031   1.293  1.9362  0.8241 -0.9784
  413TIP3   OH2 1160   5.192   5.129   7.005  0.3183  0.4443 -0.1403
  413TIP3    H1 1161   5.116   5.179   7.033  0.5286  0.4441  0.4352
  413TIP3    H2 1162   5.254   5.136   7.077  0.8254  0.3616 -0.5613
  414TIP3   OH2 1163   3.628   4.313   0.093 -0.9763 -0.1613 -0.0072
  414TIP3    H1 1164   3.643   4.405   0.118 -0.8688 -0.3247  0.5236
  414TIP3    H2 1165   3.669   4.306   0.006 -0.5370  0.1638  0.1673
  415TIP3   OH2 1166   3.129   2.553   0.887 -0.0418  0.0745  0.0946
  415TIP3    H1 1167   3.225   2.548   0.886 -0.1886 -3.0610 -0.5959
  415TIP3    H2 1168   3.103   2.548   0.796 -0.9746 -1.4708  0.4412
  416TIP3   OH2 1169   4.090   2.164   0.238  0.3235  0.0184  0.1700
  416TIP3    H1 1170   4.080   2.085   0.185 -0.6536 -0.6950  1.3809
  416TIP3    H2 1171   4.029   2.151   0.311 -1.4308  2.8233 -0.7324
  417TIP3   OH2 1172   1.856   3.724   2.117  0.0636  0.6518  0.2006
  417TIP3    H1 1173   1.923   3.711   2.183  0.0736 -0.1774  0.0250
  417TIP3    H2 1174   1.852   3.819   2.106 -0.5049  0.8586  1.9671
  418TIP3   OH2 1175   7.601   6.054   7.271 -0.0106  0.5188 -0.3215
  418TIP3    H1 1176   7.648   5.972   7.280 -0.8066  0.0708 -0.1965
  418TIP3    H2 1177   7.619   6.082   7.181  0.7459  0.5116 -0.1725
  419TIP3   OH2 1178   5.975   7.912   7.173 -0.4699  0.4201 -0.1979
  419TIP3    H1 1179   6.061   7.905   7.132 -1.4429 -0.7121 -2.1641
  419TIP3    H2 1180   5.916   7.933   7.100 -1.7842  1.7931  1.2086
  420TIP3   OH2 1181   3.277   0.598   0.625  0.2329 -0.8487  0.0112
  420TIP3    H1 1182   3.347   0.661   0.643  0.3058 -1.0292  0.3678
  420TIP3    H2 1183   3.197   0.643   0.650  0.4018 -1.3979  1.6119
  421TIP3   OH2 1184   7.279   7.167   7.061 -0.1191  0.2115 -0.3593
  421TIP3    H1 1185   7.282   7.254   7.100 -0.1237 -0.7822  1.8970
  421TIP3    H2 1186   7.333   7.113   7.119 -1.6433 -1.6951 -0.7007
  422TIP3   OH2 1187   4.546   0.096   1.078  0.1962  1.1197  0.5367
  422TIP3    H1 1188   4.586   0.154   1.142 -1.5877  1.2579  1.5649
  422TIP3    H2 1189   4.476   0.052   1.126  0.8298 -1.0959 -0.5043
  423TIP3   OH2 1190   7.742   4.368   6.418 -0.2486 -0.1111 -0.9795
  423TIP3    H1 1191   7.748   4.293   6.477  2.0761  0.1106 -0.8988
  423TIP3    H2 1192   7.655   4.359   6.378 -0.6666 -1.9193  0.2233
  424TIP3   OH2 1193   5.427   6.485   7.027 -0.0954 -0.5520 -0.1928
  424TIP3    H1 1194   5.511   6.448   7.001  0.6618  0.6139  0.5557
  424TIP3    H2 1195   5.439   6.510   7.119 -1.4098 -0.8100  0.0650
  425TIP3   OH2 1196   4.407   3.001   0.875  0.1834  0.1839  0.0076
  425TIP3    H1 1197   4.334   3.021   0.934  0.9360  0.7619  0.7467
  425TIP3    H2 1198   4.472   3.069   0.892 -0.1227  1.1313 -2.4282
  426TIP3   OH2 1199   8.873   8.385   2.086  0.0999 -0.2389  0.5418
  426TIP3    H1 1200   8.808   8.315   2.083  0.8990 -1.0292  1.3213
  426TIP3    H2 1201   8.829   8.460   2.046 -0.6435 -1.2742 -0.6269
  427TIP3   OH2 1202   5.081   2.578   3.116  0.2084 -0.1931  0.3136
  427TIP3    H1 1203   5.083   2.525   3.196 -3.0452  0.1696  0.6876
  427TIP3    H2 1204   5.126   2.659   3.140 -1.7402  0.3746  2.1467
  428TIP3   OH2 1205   4.302   0.857   2.915 -0.0315 -0.6185  0.1919
  428TIP3    H1 1206   4.336   0.888   2.999 -0.1926 -1.4006  0.5499
  428TIP3    H2 1207   4.242   0.786   2.938 -1.5551  0.4326 -0.4699
  429TIP3   OH2 1208   6.336   3.261   3.856 -0.0608  0.0728 -0.5210
  429TIP3    H1 1209   6.255   3.221   3.889 -0.2058  1.0042  0.2832
  429TIP3    H2 1210   6.404   3.198   3.880 -0.4984 -0.5413 -0.8672
  430TIP3   OH2 1211   7.799   6.213   6.081  0.2620 -0.3981 -0.6744
  430TIP3    H1 1212   7.862   6.196   6.151  0.0415  0.4888 -0.2495
  430TIP3    H2 1213   7.716   6.225   6.127 -0.1999 -1.4626 -1.2201
  431TIP3   OH2 1214   7.587   1.508   0.111 -0.6144 -0.1896 -0.0447
  431TIP3    H1 1215   7.545   1.593   0.122 -0.4231  0.0499 -1.1009
  431TIP3    H2 1216   7.600   1.476   0.200 -0.8264  0.8210  0.3583
  432TIP3   OH2 1217   4.914   3.753   1.127 -0.2801 -0.2099 -0.5134
  432TIP3    H1 1218   4.821   3.732   1.123 -0.6862  1.2635  0.8154
  432TIP3    H2 1219   4.953   3.682   1.179 -0.7013 -0.6381 -0.7770
  433TIP3   OH2 1220   5.863   4.006   1.753 -1.0613 -0.1012  0.2154
  433TIP3    H1 1221   5.829   4.059   1.826  0.0415  0.2885  0.4512
  433TIP3    H2 1222   5.955   3.992   1.774 -0.0863  2.1113 -2.3323
  434TIP3   OH2 1223   6.699   2.719   1.398 -0.5146  0.4471 -0.1492
  434TIP3    H1 1224   6.639   2.708   1.324  0.8252 -1.9312 -0.9640
  434TIP3    H2 1225   6.784   2.693   1.363 -0.1020 -2.1484  2.5591
  435TIP3   OH2 1226   4.411   1.559   2.360 -0.2971 -0.4284  0.1366
  435TIP3    H1 1227   4.423   1.615   2.284  0.2598  0.3707  0.8019
  435TIP3    H2 1228   4.500   1.531   2.383 -0.5096 -1.0505  0.2027
  436TIP3   OH2 1229   7.632   5.195   0.984 -0.5488  0.1547 -0.1380
  436TIP3    H1 1230   7.637   5.129   0.914  3.6706  0.7985 -0.5964
  436TIP3    H2 1231   7.681   5.270   0.951 -2.4642  2.3094  1.7002
  437TIP3   OH2 1232   6.225   2.954   2.116 -0.9321 -0.5308  0.0015
  437TIP3    H1 1233   6.239   2.976   2.024  0.3646  2.0675  0.7776
  437TIP3    H2 1234   6.311   2.926   2.147 -0.9122  0.5250  0.9129
  438TIP3   OH2 1235   3.364   7.739   2.891 -0.8896  0.1886 -0.7903
  438TIP3    H1 1236   3.379   7.764   2.800  1.9806  0.3909 -0.2798
  438TIP3    H2 1237   3.410   7.656   2.902 -2.0405 -0.3325  0.2309
  439TIP3   OH2 1238   7.664   6.351   6.887 -0.1794  0.3605 -0.4084
  439TIP3    H1 1239   7.590   6.375   6.832 -0.0356  1.1376 -0.2792
  439TIP3    H2 1240   7.667   6.419   6.954 -1.0632 -1.2260  1.2605
  440TIP3   OH2 1241   4.467   1.587   1.515  0.3226  0.2005  0.5045
  440TIP3    H1 1242   4.501   1.574   1.603  2.6801 -0.3574 -0.4585
  440TIP3    H2 1243   4.514   1.664   1.482 -1.0839  0.8586 -0.0011
  441TIP3   OH2 1244   8.558   4.965   6.931  0.5441 -0.4284  0.0831
  441TIP3    H1 1245   8.618   5.031   6.896  0.3151 -0.3001 -0.0624
  441TIP3    H2 1246   8.516   4.928   6.854  0.2066 -0.3063  0.2097
  442TIP3   OH2 1247   5.338   2.521   1.440 -0.5698  0.3984 -0.2288
  442TIP3    H1 1248   5.325   2.435   1.480  2.3582 -0.3490 -0.7953
  442TIP3    H2 1249   5.295   2.515   1.355  0.4194 -0.8373 -0.6536
  443TIP3   OH2 1250   7.954   3.333   6.115 -0.7249 -0.0307 -0.1969
  443TIP3    H1 1251   8.005   3.413   6.107  0.0003 -0.4718  0.0179
  443TIP3    H2 1252   7.960   3.292   6.028  0.5230 -0.8210  0.2482
  444TIP3   OH2 1253   5.918   4.648   5.771 -0.3728 -0.3206 -0.0421
  444TIP3    H1 1254   5.955   4.587   5.835  0.7805 -0.5265 -0.8779
  444TIP3    H2 1255   5.931   4.734   5.810 -2.2180 -0.5980  1.2458
  445TIP3   OH2 1256   7.452   5.038   6.262 -0.1279 -0.0138  0.0605
  445TIP3    H1 1257   7.466   4.958   6.312  4.9804  0.1479 -0.8187
  445TIP3    H2 1258   7.428   5.104   6.327  2.8220 -0.6385  1.8555
  446TIP3   OH2 1259   8.317   4.008   6.839  0.1635 -0.0908  0.3887
  446TIP3    H1 1260   8.267   3.928   6.820  0.5681 -0.3383  0.3592
  446TIP3    H2 1261   8.253   4.078   6.831  0.0636 -0.2958 -0.7958
  447TIP3   OH2 1262   6.929   0.111   1.883 -0.1597 -0.2176  0.2342
  447TIP3    H1 1263   6.901   0.066   1.963  0.1619 -0.8703 -0.0224
  447TIP3    H2 1264   6.983   0.048   1.837  0.7900  0.6374  0.1610
  448TIP3   OH2 1265   5.875   4.264   3.151 -0.2578  1.0145  0.1076
  448TIP3    H1 1266   5.818   4.191   3.178  0.5485 -0.6115 -2.4306
  448TIP3    H2 1267   5.820   4.342   3.163 -2.8588 -0.4483 -1.6649
  449TIP3   OH2 1268   4.493   2.758   0.572 -0.3798  0.5377  0.0917
  449TIP3    H1 1269   4.504   2.776   0.666  1.4036  1.6079 -0.2941
  449TIP3    H2 1270   4.478   2.664   0.567 -0.3319  0.4480  1.4414
  450TIP3   OH2 1271   7.392   0.744   2.047 -0.4825  0.1528  0.0731
  450TIP3    H1 1272   7.412   0.836   2.029  2.5649 -0.5527 -0.4880
  450TIP3    H2 1273   7.296   0.741   2.053 -0.6172  3.4363  0.6604
  451TIP3   OH2 1274   5.162   0.341   1.189 -0.7231 -0.1123 -0.3139
  451TIP3    H1 1275   5.202   0.407   1.245 -3.5713 -0.1872  1.8923
  451TIP3    H2 1276   5.129   0.390   1.114 -2.1727  0.8938  0.9571
  452TIP3   OH2 1277   3.702   0.756   0.901 -0.1258  0.7171  0.5497
  452TIP3    H1 1278   3.628   0.815   0.889 -1.2191 -1.2381 -3.5753
  452TIP3    H2 1279   3.673   0.693   0.967 -1.4124  1.1041  0.3560
  453TIP3   OH2 1280   5.732   0.986   0.585 -0.1436 -0.4977 -0.1945
  453TIP3    H1 1281   5.738   0.923   0.513  0.8039  0.3871 -0.9052
  453TIP3    H2 1282   5.806   1.046   0.571 -0.7429  0.4856  0.7423
  454TIP3   OH2 1283   0.736   5.911   7.084  0.0938  0.5780 -0.2994
  454TIP3    H1 1284   0.745   5.979   7.018 -1.3060  0.4769 -0.6237
  454TIP3    H2 1285   0.765   5.831   7.042 -0.3271  0.6037 -0.6427
  455TIP3   OH2 1286   6.326   2.163   0.132  0.1542  0.5224 -0.1665
  455TIP3    H1 1287   6.260   2.165   0.063 -0.3239 -2.2767  0.1533
  455TIP3    H2 1288   6.392   2.101   0.101  0.9701  0.7700  1.0134
  456TIP3   OH2 1289   5.107   3.406   1.245  0.8248  0.2612 -0.5264
  456TIP3    H1 1290   5.164   3.329   1.252 -1.9191 -1.8945 -1.1934
  456TIP3    H2 1291   5.104   3.425   1.152  0.5471  0.4287 -0.4837
  457TIP3   OH2 1292   6.151   3.420   3.009  0.4233  0.0650  0.1686
  457TIP3    H1 1293   6.121   3.346   3.062  1.0320 -0.0657  0.3405
  457TIP3    H2 1294   6.105   3.411   2.926  0.2307 -0.3103  0.3169
  458TIP3   OH2 1295   5.504   1.286   0.627 -0.3393 -0.1019  0.0533
  458TIP3    H1 1296   5.556   1.357   0.666 -0.2523 -0.3948  0.4770
  458TIP3    H2 1297   5.480   1.318   0.540  0.1567  0.2266  0.0382
  459TIP3   OH2 1298   6.297   1.430   1.157 -0.4424 -0.1396  0.6120
  459TIP3    H1 1299   6.378   1.445   1.207  0.2018 -1.0782 -0.1134
  459TIP3    H2 1300   6.311   1.344   1.116 -1.5772 -0.0457  0.0292
  460TIP3   OH2 1301   6.748   6.450   6.418  0.4049  0.2570  0.3686
  460TIP3    H1 1302   6.707   6.477   6.336  0.7795 -0.0667  0.0708
  460TIP3    H2 1303   6.780   6.531   6.457  1.3759  0.2855 -0.4396
  461TIP3   OH2 1304   5.573   2.762   1.350 -0.0535  0.0168 -0.5785
  461TIP3    H1 1305   5.486   2.726   1.367 -0.0993  0.6992  0.6770
  461TIP3    H2 1306   5.573   2.848   1.392  1.2870 -0.0529 -0.3981
  462TIP3   OH2 1307   8.580   0.605   2.508 -0.1730  0.1538 -0.3192
  462TIP3    H1 1308   8.501   0.645   2.472  1.2399  1.1349 -2.4219
  462TIP3    H2 1309   8.563   0.510   2.502 -1.4907  0.3542  0.0006
  463TIP3   OH2 1310   2.996   8.181   1.027 -0.6901 -0.7297  0.0417
  463TIP3    H1 1311   2.911   8.217   1.001 -1.4075 -1.6212  1.1049
  463TIP3    H2 1312   3.000   8.196   1.121  0.2895 -0.7796  0.0048
  464TIP3   OH2 1313   5.652   0.540   2.063 -0.3915  0.1513 -0.8922
  464TIP3    H1 1314   5.692   0.461   2.100 -1.6852  0.8231  2.1290
  464TIP3    H2 1315   5.704   0.558   1.985  3.3138 -0.7504  1.2004
  465TIP3   OH2 1316   1.502   6.718   5.714 -0.3351  0.2619  0.0363
  465TIP3    H1 1317   1.465   6.750   5.796  0.0062  1.5268 -0.2870
  465TIP3    H2 1318   1.463   6.774   5.646  0.5801  0.2640 -0.5018
  466TIP3   OH2 1319   4.443   2.334   1.902 -0.0533  0.0837 -0.5667
  466TIP3    H1 1320   4.442   2.285   1.820  0.8915 -0.7218 -0.1117
  466TIP3    H2 1321   4.507   2.288   1.957  1.4061  2.2114 -0.3904
  467TIP3   OH2 1322   0.871   5.737   6.913  0.0748 -0.1608 -0.1725
  467TIP3    H1 1323   0.924   5.680   6.857  1.0035  0.5912 -0.0774
  467TIP3    H2 1324   0.880   5.824   6.873  0.0372  0.2168  0.6353
  468TIP3   OH2 1325   7.450   3.841   1.683  0.1415  0.7093  0.7003
  468TIP3    H1 1326   7.406   3.757   1.672 -0.9650  1.3662 -0.0470
  468TIP3    H2 1327   7.543   3.821   1.672 -0.0302 -0.5742  1.5323
  469TIP3   OH2 1328   6.931   3.752   2.065  0.2979  0.2584  0.3568
  469TIP3    H1 1329   6.946   3.718   2.154 -1.3207  1.3935  1.0827
  469TIP3    H2 1330   6.972   3.687   2.008  0.7006 -0.8808  1.8986
  470TIP3   OH2 1331   5.773   4.367   1.675 -0.5642 -0.1735 -0.7185
  470TIP3    H1 1332   5.802   4.437   1.733 -0.2553 -0.3461 -0.6639
  470TIP3    H2 1333   5.698   4.328   1.720  0.1728 -0.8325 -0.0531
  471TIP3   OH2 1334   4.097   2.889   0.357 -0.2807 -0.3809 -0.1302
  471TIP3    H1 1335   4.143   2.939   0.424 -1.7701 -0.0260  0.6485
  471TIP3    H2 1336   4.159   2.821   0.330  0.8252  0.3269  0.6230
  472TIP3   OH2 1337   6.471   6.667   6.734 -0.7070 -0.4523  0.0026
  472TIP3    H1 1338   6.507   6.586   6.696  2.5343  2.0892 -2.6885
  472TIP3    H2 1339   6.410   6.699   6.667  0.2409  0.8190 -0.2584
  473TIP3   OH2 1340   4.060   1.558   6.678 -0.0828 -0.7659  0.4597
  473TIP3    H1 1341   4.007   1.582   6.754 -0.5646  0.1382 -0.1477
  473TIP3    H2 1342   4.142   1.606   6.690 -1.8443  3.0352 -1.8317
  474TIP3   OH2 1343   5.503   2.678   0.891 -0.3483 -0.2279  0.3640
  474TIP3    H1 1344   5.451   2.599   0.905 -0.6611  0.1925  1.6536
  474TIP3    H2 1345   5.477   2.737   0.962  0.4942  0.7165 -0.0925
  475TIP3   OH2 1346   6.458   0.829   0.192 -0.6101  0.3181  0.9852
  475TIP3    H1 1347   6.532   0.889   0.196 -1.6436  1.6000  1.2550
  475TIP3    H2 1348   6.455   0.799   0.101  0.9137 -0.6368  1.2297
  476TIP3   OH2 1349   6.849   1.352   1.127  0.0674 -0.1004  0.2684
  476TIP3    H1 1350   6.860   1.345   1.221  2.8005  0.1034 -0.0046
  476TIP3    H2 1351   6.908   1.285   1.091 -1.1106 -0.3309 -1.2914
  477TIP3   OH2 1352   8.788   5.538   6.683 -0.1182  0.4647 -0.5637
  477TIP3    H1 1353   8.797   5.537   6.778 -1.3688 -2.3660 -0.4250
  477TIP3    H2 1354   8.704   5.496   6.666  0.2642  0.5772 -2.9633
  478TIP3   OH2 1355   8.788   5.869   5.647 -0.0712 -0.0516 -0.5033
  478TIP3    H1 1356   8.873   5.874   5.604  0.0299 -1.0730 -0.4536
  478TIP3    H2 1357   8.782   5.778   5.677 -0.2925  0.5273  1.2990
  479TIP3   OH2 1358   6.679   2.058   1.687 -0.1551  0.6604  0.1217
  479TIP3    H1 1359   6.719   2.145   1.691 -0.0062  0.5027  3.4879
  479TIP3    H2 1360   6.751   1.997   1.700 -0.6532  0.1496  0.5485
  480TIP3   OH2 1361   6.569   2.960   1.879 -0.0165  0.3337  0.6968
  480TIP3    H1 1362   6.586   2.929   1.968 -0.3950  4.2913  2.2400
  480TIP3    H2 1363   6.647   3.011   1.856 -1.4722  2.4387  0.2622
  481TIP3   OH2 1364   4.394   1.033   0.557 -0.0761  0.0780 -0.1146
  481TIP3    H1 1365   4.384   0.982   0.638 -1.7228 -0.9732 -0.9495
  481TIP3    H2 1366   4.309   1.027   0.514 -0.0542  2.8957 -0.6381
  482TIP3   OH2 1367   5.398   0.569   2.804  0.0037  0.0090 -0.2520
  482TIP3    H1 1368   5.397   0.523   2.888 -1.6292  0.3708 -0.0694
  482TIP3    H2 1369   5.381   0.660   2.826 -0.2038  0.1407 -0.9604
  483TIP3   OH2 1370   6.940   1.656   0.579 -0.1552 -0.0916  0.2942
  483TIP3    H1 1371   6.865   1.716   0.586  0.7214  1.0396  0.0798
  483TIP3    H2 1372   6.903   1.578   0.538 -1.1202  0.6649 -0.3145
  484TIP3   OH2 1373   3.295   2.962   0.745  0.4488  0.0998  0.1276
  484TIP3    H1 1374   3.305   3.030   0.679 -0.9356 -0.0107 -0.1893
  484TIP3    H2 1375   3.204   2.969   0.775  0.9826  0.0213  1.8753
  485TIP3   OH2 1376   3.871   0.988   0.870 -0.8508 -0.5125 -0.8981
  485TIP3    H1 1377   3.887   0.898   0.900 -3.6675 -1.3891 -1.8661
  485TIP3    H2 1378   3.847   1.035   0.950  0.1696 -0.7270 -0.4548
  486TIP3   OH2 1379   8.165   4.135   6.541 -0.8494  0.2363 -0.4900
  486TIP3    H1 1380   8.124   4.151   6.626 -2.1208  1.0640 -1.2411
  486TIP3    H2 1381   8.137   4.209   6.487  0.3501 -0.0275 -1.4851
  487TIP3   OH2 1382   1.012   4.805   6.911  0.3184 -0.1826  0.4941
  487TIP3    H1 1383   1.033   4.727   6.859 -0.1220  0.9910 -1.4830
  487TIP3    H2 1384   1.067   4.874   6.874 -1.4611  1.1379  0.2185
  488TIP3   OH2 1385   2.822   8.183   0.343  0.7391 -0.5349  0.4100
  488TIP3    H1 1386   2.901   8.129   0.342  0.4857 -0.9202 -1.1929
  488TIP3    H2 1387   2.854   8.273   0.340  1.1368 -0.6778  0.3922
  489TIP3   OH2 1388   5.230   0.786   0.350 -0.0813 -0.1732 -0.3601
  489TIP3    H1 1389   5.214   0.771   0.256  0.1423  0.4616 -0.5022
  489TIP3    H2 1390   5.216   0.880   0.362 -1.0749 -0.4160  0.4407
  490TIP3   OH2 1391   6.238   3.193   2.241 -0.3036  0.1740  0.2676
  490TIP3    H1 1392   6.331   3.195   2.266 -0.3854  1.5711  0.5166
  490TIP3    H2 1393   6.225   3.105   2.206  0.5278 -0.8483  2.4544
  491TIP3   OH2 1394   0.070   2.362   1.250 -0.4958 -0.3747 -0.3049
  491TIP3    H1 1395   0.041   2.453   1.250 -0.5513 -0.3808 -1.8232
  491TIP3    H2 1396  -0.010   2.312   1.266 -0.1060 -0.0933  2.9337
  492TIP3   OH2 1397   3.945   1.139   0.336  0.0087 -0.4989 -0.1796
  492TIP3    H1 1398   3.905   1.056   0.360 -0.9294 -0.0196 -0.0557
  492TIP3    H2 1399   3.942   1.191   0.417  0.7334 -0.4028 -0.2133
  493TIP3   OH2 1400   4.045   8.090   2.744  0.2004  0.1044  0.3941
  493TIP3    H1 1401   3.995   8.156   2.697  0.9971 -0.7336 -1.6822
  493TIP3    H2 1402   4.137   8.116   2.730  0.4775 -0.7747  0.5647
  494TIP3   OH2 1403   2.476   2.766   2.799 -0.7186  0.3525 -0.0023
  494TIP3    H1 1404   2.473   2.847   2.851 -1.0993  1.0037 -1.0301
  494TIP3    H2 1405   2.568   2.740   2.802 -0.6922  0.5101  0.8069
  495TIP3   OH2 1406   0.014   0.181   7.230  0.0635  0.2716  0.0572
  495TIP3    H1 1407  -0.011   0.143   7.146  2.2305  1.5596 -1.2219
  495TIP3    H2 1408   0.032   0.106   7.286 -1.7369 -0.6036 -0.4915
  496TIP3   OH2 1409   6.086   2.310   1.229 -0.3080 -0.2259 -0.1048
  496TIP3    H1 1410   6.142   2.293   1.154 -2.6294  1.9519 -2.4337
  496TIP3    H2 1411   6.122   2.389   1.269 -0.4935  0.0124 -0.4029
  497TIP3   OH2 1412   5.841   2.525   2.234 -0.5084  0.2015 -0.0972
  497TIP3    H1 1413   5.906   2.592   2.210 -1.5061  0.8029 -1.1577
  497TIP3    H2 1414   5.758   2.559   2.201 -1.3360 -0.6847  1.0273
  498TIP3   OH2 1415   2.703   1.279   1.132 -0.3645  0.1369 -0.0701
  498TIP3    H1 1416   2.640   1.347   1.157  0.6546  1.3793 -0.8007
  498TIP3    H2 1417   2.685   1.263   1.039 -1.1312 -1.1833  0.3007
  499TIP3   OH2 1418   6.451   4.327   5.843 -0.0156 -0.0158  0.0290
  499TIP3    H1 1419   6.375   4.269   5.839  0.3852 -0.7505  2.2357
  499TIP3    H2 1420   6.440   4.387   5.769 -1.2323 -1.9356 -1.3729
  500TIP3   OH2 1421   3.580   2.289   2.041  0.3857  0.1782  0.0505
  500TIP3    H1 1422   3.551   2.239   1.964  1.7320 -2.3054  1.0724
  500TIP3    H2 1423   3.535   2.247   2.114  1.7129  0.3288  0.9634
  501TIP3   OH2 1424   5.040   2.409   2.070 -0.1166  0.2868  0.7712
  501TIP3    H1 1425   4.994   2.401   2.153 -0.8992  0.6015  0.3754
  501TIP3    H2 1426   5.038   2.503   2.051  0.5526  0.2808  0.6774
  502TIP3   OH2 1427   4.699   3.625   1.849  1.0011 -0.6177 -0.0713
  502TIP3    H1 1428   4.715   3.685   1.776 -2.6804  0.5588 -0.0084
  502TIP3    H2 1429   4.659   3.548   1.808  2.7453 -1.7602  0.2695
  503TIP3   OH2 1430   7.362   2.314   1.621  0.2962 -0.2200  0.1581
  503TIP3    H1 1431   7.290   2.344   1.676  0.6034 -0.0892  0.4922
  503TIP3    H2 1432   7.325   2.311   1.533 -0.9991 -3.0193  0.7216
  504TIP3   OH2 1433   6.163   2.550   2.042 -0.0154 -0.1913 -0.0576
  504TIP3    H1 1434   6.243   2.579   1.999 -1.1521  0.6422 -1.6843
  504TIP3    H2 1435   6.111   2.629   2.052 -0.5089 -0.6759  1.2702
  505TIP3   OH2 1436   2.101   4.829   6.724 -0.1510  0.2375  0.3638
  505TIP3    H1 1437   2.061   4.771   6.659  0.4435 -0.0822  0.2793
  505TIP3    H2 1438   2.033   4.894   6.743 -0.8288 -0.4925  0.4719
  506TIP3   OH2 1439   3.592   3.629   1.385 -0.2995  0.2024  0.3118
  506TIP3    H1 1440   3.560   3.543   1.356 -0.1186 -0.6487  2.5905
  506TIP3    H2 1441   3.683   3.632   1.355 -0.3617 -0.3141  0.0672
  507TIP3   OH2 1442   6.693   4.965   5.890 -0.0677 -0.1609 -0.3787
  507TIP3    H1 1443   6.772   5.020   5.897 -0.0613 -0.5805  4.0644
  507TIP3    H2 1444   6.722   4.879   5.919 -1.9746 -0.5291  0.4630
  508TIP3   OH2 1445   3.916   2.727   0.207 -0.6407 -0.2232  0.1501
  508TIP3    H1 1446   3.926   2.655   0.269 -0.9309 -0.8238 -0.4903
  508TIP3    H2 1447   3.951   2.803   0.252  2.2390 -1.2976 -0.1760
  509TIP3   OH2 1448   4.960   3.833   1.488 -0.4828 -0.5892  0.1768
  509TIP3    H1 1449   4.905   3.808   1.562 -0.3889 -1.7155 -0.1266
  509TIP3    H2 1450   4.950   3.761   1.425  0.9428 -0.5669 -0.0918
  510TIP3   OH2 1451   6.239   2.900   1.546 -0.6342  0.0739 -0.1745
  510TIP3    H1 1452   6.145   2.899   1.566 -0.5824 -0.6403  0.0782
  510TIP3    H2 1453   6.280   2.857   1.621 -0.2364 -0.7884 -0.8722
  511TIP3   OH2 1454   4.856   3.255   1.728 -0.1811 -0.5636 -0.0840
  511TIP3    H1 1455   4.936   3.226   1.684 -0.8840  0.4176 -2.0629
  511TIP3    H2 1456   4.885   3.327   1.785  0.1138  1.0099 -2.1387
  512TIP3   OH2 1457   1.891   8.009   0.680 -0.0220  0.0542 -0.3682
  512TIP3    H1 1458   1.964   7.992   0.620  0.5607  2.2623 -0.3458
  512TIP3    H2 1459   1.824   8.050   0.626 -0.6961 -0.6767 -0.0981
  513TIP3   OH2 1460   5.430   4.516   1.171 -0.3451 -0.8127 -0.3762
  513TIP3    H1 1461   5.470   4.456   1.233 -0.1896 -0.1927  0.1157
  513TIP3    H2 1462   5.497   4.530   1.104  0.7771  1.3070  1.1541
  514TIP3   OH2 1463   7.448   4.803   6.408  0.0210 -0.8171 -0.7747
  514TIP3    H1 1464   7.366   4.775   6.450  1.1326 -0.3345  1.7922
  514TIP3    H2 1465   7.517   4.760   6.459  1.5518  2.5467  0.0952
  515TIP3   OH2 1466   4.802   2.895   2.153 -0.0250  0.0310  0.2782
  515TIP3    H1 1467   4.891   2.930   2.153 -0.4608  1.1523  1.0399
  515TIP3    H2 1468   4.747   2.970   2.133 -0.8193 -0.6095  0.0740
  516TIP3   OH2 1469   6.415   7.116   7.065 -0.6295  0.2926  0.3737
  516TIP3    H1 1470   6.371   7.042   7.107  0.2080  0.1508  1.0336
  516TIP3    H2 1471   6.501   7.081   7.040 -0.8267  0.6032 -0.7681
  517TIP3   OH2 1472   5.531   2.304   0.542  0.3303  0.3823 -0.0187
  517TIP3    H1 1473   5.533   2.398   0.525  0.3999 -0.0100 -2.3788
  517TIP3    H2 1474   5.619   2.283   0.572  0.6600  0.8849 -0.6117
  518TIP3   OH2 1475   6.863   6.692   6.556  0.5948  0.7147 -0.0158
  518TIP3    H1 1476   6.783   6.742   6.541 -0.4918 -1.3757 -1.4500
  518TIP3    H2 1477   6.918   6.750   6.608 -2.1248  1.9351  1.5989
  519TIP3   OH2 1478   6.864   6.162   7.076 -0.3407  0.4477  0.5851
  519TIP3    H1 1479   6.828   6.079   7.108 -2.6945  1.5991  1.0661
  519TIP3    H2 1480   6.847   6.224   7.147  1.2056  1.4104  0.1364
  520TIP3   OH2 1481   6.169   8.156   7.078 -0.1688  0.4015  0.5563
  520TIP3    H1 1482   6.181   8.154   6.983  1.5194  0.5331  0.7456
  520TIP3    H2 1483   6.240   8.212   7.110 -1.1330  0.9215  1.8443
  521TIP3   OH2 1484   0.645   4.965   5.673 -0.2736 -0.0544 -0.0522
  521TIP3    H1 1485   0.676   4.877   5.653  0.1621 -0.2295  1.3223
  521TIP3    H2 1486   0.574   4.981   5.611 -0.8313 -1.6553  0.1562
  522TIP3   OH2 1487   0.044   1.858   1.199 -0.0228  0.3779 -0.0538
  522TIP3    H1 1488   0.119   1.801   1.215  0.6480  1.1263 -0.5052
  522TIP3    H2 1489   0.082   1.937   1.160 -0.8544  1.4204  1.1989
  523TIP3   OH2 1490   7.564   3.727   6.479  0.4115 -0.0706 -0.3385
  523TIP3    H1 1491   7.514   3.743   6.399  1.3089  0.5179 -0.8008
  523TIP3    H2 1492   7.520   3.780   6.546 -2.6854 -3.5382  0.5194
  524TIP3   OH2 1493   1.023   5.956   7.134 -0.6418  0.1631  0.1048
  524TIP3    H1 1494   1.000   5.867   7.161  0.3269  0.5724  2.4499
  524TIP3    H2 1495   1.111   5.949   7.097 -0.7931  0.0577 -0.2355
  525TIP3   OH2 1496   7.325   0.654   1.595 -0.0189 -0.2582  0.2704
  525TIP3    H1 1497   7.348   0.745   1.612 -1.2848  0.1509 -0.1308
  525TIP3    H2 1498   7.348   0.608   1.676 -0.9868  0.7325  1.1390
  526TIP3   OH2 1499   6.182   2.548   1.299 -0.1171  0.1155  0.4620
  526TIP3    H1 1500   6.260   2.603   1.307 -0.5699  0.7347  0.6142
  526TIP3    H2 1501   6.109   2.609   1.292 -0.5751 -0.4614  0.1060
  527TIP3   OH2 1502   5.529   2.290   1.332  0.4130  0.0581 -0.1327
  527TIP3    H1 1503   5.581   2.212   1.313 -0.5481 -0.6285  0.0324
  527TIP3    H2 1504   5.496   2.276   1.421 -0.6799  0.1414 -0.5238
  528TIP3   OH2 1505   8.035   2.327   1.816  0.3058 -0.1511 -0.0147
  528TIP3    H1 1506   8.011   2.234   1.815  0.1570 -0.1075 -0.9062
  528TIP3    H2 1507   8.130   2.328   1.831  0.5332 -0.4973 -1.3883
  529TIP3   OH2 1508   7.652   3.801   1.956  0.4463 -0.7109  0.2682
  529TIP3    H1 1509   7.564   3.780   1.988 -0.4448  0.3881 -1.4534
  529TIP3    H2 1510   7.665   3.893   1.978  0.7187 -0.5559 -0.5503
  530TIP3   OH2 1511   6.487   1.566   2.188  0.6272  0.2235  0.2883
  530TIP3    H1 1512   6.441   1.644   2.156  2.0379  1.6124  1.5411
  530TIP3    H2 1513   6.470   1.565   2.282  1.1852 -0.5884  0.3873
  531TIP3   OH2 1514   4.238   1.513   0.353  0.0469 -0.3017  0.2105
  531TIP3    H1 1515   4.161   1.532   0.406 -0.1545 -0.9582  0.1477
  531TIP3    H2 1516   4.207   1.454   0.285  0.2029  0.8983 -0.9257
  532TIP3   OH2 1517   8.430   6.006   7.206 -0.0758 -0.3363  0.4883
  532TIP3    H1 1518   8.424   5.929   7.262  0.6300 -0.8262 -0.0942
  532TIP3    H2 1519   8.488   6.066   7.253  0.1329 -0.5553  0.5172
  533TIP3   OH2 1520   5.875   2.364   3.313  0.4204  0.5214  0.0337
  533TIP3    H1 1521   5.860   2.443   3.261  0.6948  0.1971 -0.5495
  533TIP3    H2 1522   5.889   2.295   3.247  2.0965  0.3521  0.5538
  534TIP3   OH2 1523   7.044   0.470   0.114 -0.4193  0.0081 -0.0670
  534TIP3    H1 1524   7.018   0.492   0.025  1.3972  0.9672 -0.3804
  534TIP3    H2 1525   7.022   0.549   0.165 -2.2957 -0.8634  0.5433
  535TIP3   OH2 1526   5.246   0.397   1.922  0.1868  0.0615 -0.0956
  535TIP3    H1 1527   5.166   0.434   1.961  0.3542  0.1200  0.1980
  535TIP3    H2 1528   5.264   0.452   1.846  0.1007  0.2162 -0.0035
  536TIP3   OH2 1529   7.880   7.295   4.808 -0.0128  0.8227 -0.3186
  536TIP3    H1 1530   7.862   7.388   4.793 -0.2677  0.9416  0.6977
  536TIP3    H2 1531   7.970   7.283   4.780  0.0520  1.3923 -0.3640
  537TIP3   OH2 1532   4.677   1.579   0.945  0.0247 -0.5329 -0.0401
  537TIP3    H1 1533   4.771   1.562   0.938 -0.0293 -0.5311 -0.8591
  537TIP3    H2 1534   4.636   1.502   0.906 -0.2729  0.2694 -1.3539
  538TIP3   OH2 1535   6.397   0.939   2.815  0.2299 -0.2104 -0.2812
  538TIP3    H1 1536   6.375   0.903   2.901  1.1695  0.5609  0.2858
  538TIP3    H2 1537   6.313   0.972   2.781 -0.2274 -0.9445  0.1330
  539TIP3   OH2 1538   5.002   1.689   1.017 -0.5480 -0.2811  0.2272
  539TIP3    H1 1539   5.084   1.724   1.053  0.2807 -1.0004 -0.9474
  539TIP3    H2 1540   4.939   1.698   1.089  1.0778 -1.7016  1.8789
  540TIP3   OH2 1541   1.673   8.088   3.595 -0.4492  0.5723 -0.5881
  540TIP3    H1 1542   1.758   8.044   3.591 -1.5075 -1.4623 -0.8640
  540TIP3    H2 1543   1.683   8.151   3.666  1.1567  0.0781 -0.3416
  541TIP3   OH2 1544   6.060   2.120   0.863 -0.0171  0.1103  0.4078
  541TIP3    H1 1545   6.108   2.176   0.803  0.3644  0.8000  1.3423
  541TIP3    H2 1546   5.996   2.178   0.905 -1.3093 -0.6829 -0.4303
  542TIP3   OH2 1547   7.425   0.593   1.049  0.9264  0.1846 -0.0015
  542TIP3    H1 1548   7.430   0.663   0.985 -0.0752 -1.0537 -1.4689
  542TIP3    H2 1549   7.331   0.573   1.056  1.0521  0.0553  1.5774
  543TIP3   OH2 1550   6.003   1.633   0.803  0.1115 -0.2175  0.6891
  543TIP3    H1 1551   5.949   1.667   0.874 -1.2221 -1.0193  0.0923
  543TIP3    H2 1552   5.943   1.577   0.753  0.7974  0.9920 -1.5408
  544TIP3   OH2 1553   6.574   1.905   3.676  0.0787  0.3240 -0.1934
  544TIP3    H1 1554   6.653   1.873   3.632  0.7822  0.7260  0.7618
  544TIP3    H2 1555   6.579   2.000   3.666  0.3386  0.4297  0.9014
  545TIP3   OH2 1556   0.802   7.998   0.365 -0.7611 -0.2126  0.6181
  545TIP3    H1 1557   0.880   7.981   0.418 -1.1758  0.2931  1.3964
  545TIP3    H2 1558   0.802   7.929   0.299  0.9356  0.4079 -0.0501
  546TIP3   OH2 1559   4.227   3.451   3.546  0.1441  0.5365  0.3445
  546TIP3    H1 1560   4.150   3.446   3.603 -0.9709  1.8706 -0.9859
  546TIP3    H2 1561   4.277   3.526   3.580 -0.0959  0.8169  0.0821
  547TIP3   OH2 1562   7.364   0.548   0.694  0.4331  0.2465  0.1956
  547TIP3    H1 1563   7.447   0.515   0.659  0.5353  0.5662  0.1348
  547TIP3    H2 1564   7.302   0.541   0.621  0.4409  0.1324  0.2005
  548TIP3   OH2 1565   7.540   4.388   6.646 -0.4066 -0.1233  0.2598
  548TIP3    H1 1566   7.454   4.427   6.630 -0.6499 -1.3254 -1.5113
  548TIP3    H2 1567   7.541   4.309   6.591  1.6509 -0.3724  0.6192
  549TIP3   OH2 1568   3.702   0.989   0.647  0.0929 -0.7124 -0.0077
  549TIP3    H1 1569   3.764   1.009   0.717 -1.5501  0.4366  1.1793
  549TIP3    H2 1570   3.630   0.943   0.691  0.3972 -2.6279 -1.4660
  550TIP3   OH2 1571   3.993   0.358   1.824 -0.0636  0.7941  0.2604
  550TIP3    H1 1572   4.009   0.338   1.916  2.0064  1.3907  0.0509
  550TIP3    H2 1573   3.990   0.454   1.821 -0.2304  0.7738 -0.2832
  551TIP3   OH2 1574   4.766   1.563   3.172  0.1454  0.1199  0.0833
  551TIP3    H1 1575   4.756   1.520   3.087  0.0766 -0.9988  0.6533
  551TIP3    H2 1576   4.678   1.593   3.194  0.5638  2.5473 -1.3382
  552TIP3   OH2 1577   4.365   2.188   0.381  0.2162  0.5340 -0.4306
  552TIP3    H1 1578   4.384   2.095   0.369  0.0025  0.5671 -1.0622
  552TIP3    H2 1579   4.282   2.190   0.429  0.2629  0.3971 -0.3437
  553TIP3   OH2 1580   6.496   0.710   2.677  0.1618 -0.0165  0.0616
  553TIP3    H1 1581   6.461   0.783   2.728 -1.5046  0.0252 -1.1036
  553TIP3    H2 1582   6.495   0.635   2.736 -0.1975  0.4079  0.5945
  554TIP3   OH2 1583   7.465   4.216   6.416 -0.3447 -0.2443 -0.1031
  554TIP3    H1 1584   7.396   4.165   6.458 -0.8179 -0.0783 -0.6634
  554TIP3    H2 1585   7.423   4.254   6.338  0.4660 -0.4227 -0.6381
  555TIP3   OH2 1586   3.635   3.026   2.891  0.2033  0.4887  0.3107
  555TIP3    H1 1587   3.600   2.946   2.929  0.4012  0.0198 -0.4709
  555TIP3    H2 1588   3.557   3.078   2.868  0.0873  0.8323  1.4520
  556TIP3   OH2 1589   7.055   3.041   0.807 -0.1271  0.5963 -0.2753
  556TIP3    H1 1590   7.070   2.952   0.840 -0.4000  1.0063  0.9464
  556TIP3    H2 1591   6.960   3.052   0.811  0.0885  1.8005  1.7870
  557TIP3   OH2 1592   7.432   2.042   1.527 -0.1088 -0.8845 -0.9981
  557TIP3    H1 1593   7.346   2.000   1.537  0.1046 -1.6658 -2.3797
  557TIP3    H2 1594   7.445   2.048   1.433  0.5117  1.0108 -0.8115
  558TIP3   OH2 1595   2.336   5.295   6.738 -0.0296 -0.1485 -0.0253
  558TIP3    H1 1596   2.368   5.233   6.674 -0.9597  0.1757 -0.8175
  558TIP3    H2 1597   2.276   5.244   6.793  2.5584 -1.0250  2.1343
  559TIP3   OH2 1598   8.513   1.632   0.930  0.4656  0.1702 -0.2752
  559TIP3    H1 1599   8.584   1.680   0.888  2.1364 -0.8002  1.3529
  559TIP3    H2 1600   8.491   1.563   0.868 -1.7030  2.7321 -2.4729
  560TIP3   OH2 1601   8.475   0.849   1.878  0.3996  0.1293 -0.5715
  560TIP3    H1 1602   8.425   0.911   1.826 -0.3256 -0.0466 -0.0959
  560TIP3    H2 1603   8.514   0.789   1.814  1.3844  1.2695 -1.0500
  561TIP3   OH2 1604   7.987   5.757   6.657 -0.6979 -0.0536  0.2729
  561TIP3    H1 1605   8.076   5.791   6.670 -0.6302  0.0015 -0.3038
  561TIP3    H2 1606   8.000   5.665   6.635 -0.7838 -0.0505  0.2110
  562TIP3   OH2 1607   7.762   4.204   0.472  0.1874  0.2121 -0.3760
  562TIP3    H1 1608   7.721   4.158   0.545  1.8036 -0.8627 -0.1162
  562TIP3    H2 1609   7.722   4.165   0.394 -0.6663  0.5273 -0.1079
  563TIP3   OH2 1610   1.595   5.753   7.052 -0.4785  0.7619  0.0698
  563TIP3    H1 1611   1.515   5.720   7.092 -0.1236 -0.1487  0.0487
  563TIP3    H2 1612   1.665   5.706   7.097  0.0953  2.2472  0.7449
  564TIP3   OH2 1613   8.026   2.030   1.286  0.4259 -0.6273  0.0360
  564TIP3    H1 1614   7.934   2.002   1.292  0.4350 -0.5824  0.3644
  564TIP3    H2 1615   8.043   2.074   1.369  0.3792  0.4576 -0.5180
  565TIP3   OH2 1616   7.148   0.560   1.046 -0.2879 -0.1138  0.2854
  565TIP3    H1 1617   7.136   0.605   0.962 -0.6298 -0.8255 -0.0551
  565TIP3    H2 1618   7.088   0.606   1.106  1.6405  1.9034  0.7489
  566TIP3   OH2 1619   5.552   2.256   1.973  0.5543 -0.0080  0.1320
  566TIP3    H1 1620   5.488   2.303   2.026  0.8844  0.0647  0.4697
  566TIP3    H2 1621   5.579   2.183   2.029  1.2695  0.3498  0.2514
  567TIP3   OH2 1622   7.529   5.511   5.422  0.5924 -0.0276 -0.0482
  567TIP3    H1 1623   7.589   5.478   5.356  0.9234  0.2572  0.1106
  567TIP3    H2 1624   7.568   5.485   5.506  0.7696  0.6216  0.0725
  568TIP3   OH2 1625   4.879   1.134   1.535 -0.3475  0.1421 -0.2909
  568TIP3    H1 1626   4.899   1.225   1.513 -1.1019  0.4176  0.1559
  568TIP3    H2 1627   4.961   1.099   1.571 -0.4071  0.9984  0.6805
  569TIP3   OH2 1628   2.526   8.366   1.259 -0.0727  0.2598 -0.4288
  569TIP3    H1 1629   2.541   8.423   1.184 -1.0943  1.7108  0.4445
  569TIP3    H2 1630   2.433   8.374   1.277 -0.0961 -1.1432  0.1657
  570TIP3   OH2 1631   6.372   2.486   1.026  0.2207  0.2491  0.6697
  570TIP3    H1 1632   6.323   2.559   0.988  2.8401  2.0842  0.6794
  570TIP3    H2 1633   6.378   2.506   1.120  0.0304 -0.5454  0.8624
  571TIP3   OH2 1634   4.737   1.817   1.702  0.6191  0.5733  0.0278
  571TIP3    H1 1635   4.766   1.781   1.786 -0.7451 -1.4236 -0.3262
  571TIP3    H2 1636   4.732   1.742   1.644 -2.7491  1.1885 -0.6060
  572TIP3   OH2 1637   8.120   1.616   1.083  0.1773  0.1975 -0.0683
  572TIP3    H1 1638   8.192   1.555   1.102  0.6676  0.7272 -0.2126
  572TIP3    H2 1639   8.162   1.688   1.036 -0.1870  1.2368  1.1824
  573TIP3   OH2 1640   5.289   1.099   3.053 -0.4676  0.0955  0.1646
  573TIP3    H1 1641   5.209   1.121   3.005  0.4524  1.4452 -0.7703
  573TIP3    H2 1642   5.259   1.039   3.122 -2.2235  0.3034 -0.3775
  574TIP3   OH2 1643   4.301   4.128   0.955  0.3207  0.0591 -0.7787
  574TIP3    H1 1644   4.217   4.141   0.999 -0.6937  1.0839 -2.9127
  574TIP3    H2 1645   4.305   4.199   0.891  2.7814 -0.0560 -0.7896
  575TIP3   OH2 1646   4.957   2.259   1.033 -0.5820  0.0897  0.1180
  575TIP3    H1 1647   5.030   2.317   1.052  0.0865 -0.8827  0.5618
  575TIP3    H2 1648   4.918   2.240   1.119 -1.7693  1.1241 -0.1743
  576TIP3   OH2 1649   6.861   2.825   1.917  0.1614  0.0646  0.0935
  576TIP3    H1 1650   6.790   2.839   1.980  1.6606  0.2411  1.7802
  576TIP3    H2 1651   6.851   2.896   1.854  0.2986  1.5234  1.6841
  577TIP3   OH2 1652   6.293   3.654   2.982 -0.7513  0.3820  0.2727
  577TIP3    H1 1653   6.245   3.573   3.001  0.2406 -0.2342  0.2297
  577TIP3    H2 1654   6.291   3.662   2.887  2.2378 -1.5915 -0.0527
  578TIP3   OH2 1655   8.613   1.262   0.780 -0.6889 -0.5752 -0.0522
  578TIP3    H1 1656   8.561   1.194   0.822 -1.6578  0.2295  0.0672
  578TIP3    H2 1657   8.701   1.251   0.816 -1.2142 -0.7117  1.2109
  579TIP3   OH2 1658   5.423   2.173   2.425  0.2404 -0.5596  0.6491
  579TIP3    H1 1659   5.488   2.242   2.441 -0.7297  0.2430  1.1124
  579TIP3    H2 1660   5.476   2.093   2.420  1.2934  0.0989  0.8830
  580TIP3   OH2 1661   3.993   0.967   1.612  0.0198 -0.2716 -0.2071
  580TIP3    H1 1662   3.979   1.061   1.604 -0.0491 -0.3368 -0.8212
  580TIP3    H2 1663   3.960   0.946   1.700 -0.9589  0.0955 -0.4832
  581TIP3   OH2 1664   1.818   7.984   1.034 -0.1073 -0.1004 -0.3896
  581TIP3    H1 1665   1.907   7.994   1.003  0.0088  0.7144  0.1822
  581TIP3    H2 1666   1.768   8.052   0.989 -0.2636  0.0235 -0.0310
  582TIP3   OH2 1667   5.066   1.989   1.050 -0.1439 -0.2186  0.7538
  582TIP3    H1 1668   4.998   1.998   1.116 -1.8450 -0.9588 -0.8687
  582TIP3    H2 1669   5.101   2.078   1.040 -2.1790  0.5458  0.2380
  583TIP3   OH2 1670   1.780   0.717   6.243 -0.0285  0.7205  0.3417
  583TIP3    H1 1671   1.864   0.702   6.198 -0.5275  2.5056 -1.2850
  583TIP3    H2 1672   1.743   0.630   6.253  1.5756 -0.0121  0.1859
  584TIP3   OH2 1673   3.838   2.150   2.238 -0.4837  0.3125 -0.3067
  584TIP3    H1 1674   3.836   2.173   2.145 -0.5381  0.7967 -0.1878
  584TIP3    H2 1675   3.863   2.058   2.240 -1.4646  0.0297 -0.8507
  585TIP3   OH2 1676   7.267   6.044   7.195 -0.5523 -0.2893 -0.2444
  585TIP3    H1 1677   7.323   6.004   7.128  0.4172  0.5923  0.0278
  585TIP3    H2 1678   7.250   6.132   7.162 -0.6594 -0.0955  0.3256
  586TIP3   OH2 1679   7.084   5.579   6.496 -0.3038  0.3707 -0.2880
  586TIP3    H1 1680   7.155   5.566   6.559 -0.0088 -2.4099 -1.1368
  586TIP3    H2 1681   7.129   5.604   6.414 -0.6965  4.1899  0.5485
  587TIP3   OH2 1682   7.008   3.789   5.275  0.3133  0.6237 -0.3114
  587TIP3    H1 1683   7.067   3.749   5.340  0.8570  0.1839 -1.0702
  587TIP3    H2 1684   6.969   3.715   5.230 -0.1551  0.9304 -0.4059
  588TIP3   OH2 1685   6.100   7.088   7.086  0.0223  0.5331 -0.1009
  588TIP3    H1 1686   6.071   7.173   7.054  2.0044  0.9294 -0.8727
  588TIP3    H2 1687   6.119   7.038   7.007 -1.6692 -0.8561  0.3285
  589TIP3   OH2 1688   6.774   2.401   1.312  0.2783 -0.3010  0.5883
  589TIP3    H1 1689   6.804   2.357   1.233 -1.6334  2.7598 -1.9971
  589TIP3    H2 1690   6.757   2.330   1.374  0.7909 -2.8892 -2.0917
  590TIP3   OH2 1691   8.552   5.387   6.606  0.4565 -0.0365  0.2271
  590TIP3    H1 1692   8.547   5.306   6.554  1.3183 -0.5546  0.9250
  590TIP3    H2 1693   8.461   5.408   6.627  0.2526 -1.0713  0.4094
  591TIP3   OH2 1694   7.241   1.257   1.215  0.0020  0.0129  0.1212
  591TIP3    H1 1695   7.224   1.165   1.191 -1.8793 -0.1083  1.7864
  591TIP3    H2 1696   7.296   1.252   1.293  0.1610  0.3246  0.0306
  592TIP3   OH2 1697   6.035   1.504   1.225 -0.1248 -0.1430  0.4681
  592TIP3    H1 1698   6.127   1.484   1.212 -0.2192 -0.2652 -0.0233
  592TIP3    H2 1699   6.035   1.574   1.291  0.4166  1.1125 -0.8397
  593TIP3   OH2 1700   6.780   7.290   5.310  0.3847  0.1215 -0.3147
  593TIP3    H1 1701   6.751   7.293   5.219 -0.6390 -0.8620 -0.0199
  593TIP3    H2 1702   6.852   7.353   5.313  1.0181 -0.4669 -2.0102
  594TIP3   OH2 1703   3.233   8.188   1.316  0.0916 -0.1709 -0.2184
  594TIP3    H1 1704   3.276   8.254   1.371  0.7024 -0.8638  0.1377
  594TIP3    H2 1705   3.280   8.107   1.335 -1.9302 -1.1165  0.8246
  595TIP3   OH2 1706   8.097   1.348   0.739 -0.2510 -0.4287 -0.0383
  595TIP3    H1 1707   8.104   1.443   0.731 -0.1665 -0.5040 -0.9038
  595TIP3    H2 1708   8.143   1.314   0.662 -1.0045 -1.1482 -0.1799
  596TIP3   OH2 1709   8.166   2.728   0.285  0.1040  0.3986 -0.0973
  596TIP3    H1 1710   8.115   2.683   0.353 -1.4916  0.7484 -1.0276
  596TIP3    H2 1711   8.138   2.819   0.292  2.7518  1.1642  1.2644
  597TIP3   OH2 1712   7.113   1.727   0.329  0.4430  0.0678 -0.3137
  597TIP3    H1 1713   7.068   1.679   0.398 -0.5510  0.4223 -0.7022
  597TIP3    H2 1714   7.096   1.819   0.349 -2.0159  0.1319 -2.4245
  598TIP3   OH2 1715   1.146   6.800   6.688 -0.6667  0.3543 -0.1583
  598TIP3    H1 1716   1.220   6.800   6.749 -0.1797  1.3428 -0.7277
  598TIP3    H2 1717   1.166   6.732   6.624  0.7460  1.9657 -1.4682
  599TIP3   OH2 1718   5.038   2.713   0.774  0.3556 -0.4851 -0.2738
  599TIP3    H1 1719   5.031   2.662   0.854 -0.8226 -1.6455 -1.0869
  599TIP3    H2 1720   5.113   2.676   0.728  0.7444 -0.1301  0.0702
  600TIP3   OH2 1721   8.630   2.983   1.283 -0.8322  0.8246  0.5286
  600TIP3    H1 1722   8.671   2.964   1.199  0.4887  0.4501  1.2536
  600TIP3    H2 1723   8.562   2.916   1.292  1.1754 -1.1556  1.2432
  601TIP3   OH2 1724   7.596   3.376   0.392 -0.2265  0.1814 -0.4016
  601TIP3    H1 1725   7.539   3.307   0.426 -0.7047  0.8740  0.1984
  601TIP3    H2 1726   7.679   3.363   0.437 -0.6250  0.6234  0.4668
  602TIP3   OH2 1727   1.492   7.323   5.596  0.3738  0.6417 -0.6174
  602TIP3    H1 1728   1.501   7.297   5.505  1.5349  0.5783 -0.4835
  602TIP3    H2 1729   1.419   7.386   5.596 -0.1539  0.0340 -1.4526
  603TIP3   OH2 1730   6.023   2.062   1.298 -0.0822  0.1476  0.6052
  603TIP3    H1 1731   6.033   2.022   1.212 -1.3391 -2.1338  1.4742
  603TIP3    H2 1732   6.028   2.156   1.282  0.0788 -0.2636 -1.8950
  604TIP3   OH2 1733   7.542   2.549   0.936  0.4307 -0.4487  0.0856
  604TIP3    H1 1734   7.539   2.621   0.873 -0.5680 -0.2256  0.3763
  604TIP3    H2 1735   7.621   2.564   0.987  0.3899  0.2724 -0.0659
  605TIP3   OH2 1736   8.368   1.598   1.427  0.5675 -0.0228  0.8293
  605TIP3    H1 1737   8.321   1.667   1.381  1.2636  0.2924  0.5957
  605TIP3    H2 1738   8.410   1.547   1.358  0.0323 -0.6961  0.9969
  606TIP3   OH2 1739   7.586   2.013   0.752 -0.4935  0.2112 -0.1696
  606TIP3    H1 1740   7.603   1.921   0.734 -0.2553  0.4695 -1.3162
  606TIP3    H2 1741   7.672   2.054   0.755 -0.6712  0.6982 -1.3916
  607TIP3   OH2 1742   4.624   5.026   0.869  0.4112  0.0195  0.4696
  607TIP3    H1 1743   4.563   5.100   0.865 -0.1917 -0.4854  0.1210
  607TIP3    H2 1744   4.680   5.044   0.944 -1.0599 -0.1880  1.6417
  608TIP3   OH2 1745   7.495   2.160   1.862 -0.4574 -0.1012  0.4099
  608TIP3    H1 1746   7.494   2.236   1.920 -0.6242  0.0626  0.1960
  608TIP3    H2 1747   7.434   2.098   1.902 -3.5761  1.5255 -1.5762
  609TIP3   OH2 1748   1.005   7.847   6.001 -0.2432  0.2773 -0.3507
  609TIP3    H1 1749   1.028   7.792   6.077 -0.9376 -0.2222 -0.4955
  609TIP3    H2 1750   0.910   7.850   6.003 -0.1593  3.5642  1.1141
  610TIP3   OH2 1751   3.440   7.452   1.875 -0.1586  0.3254  0.3573
  610TIP3    H1 1752   3.346   7.458   1.890 -0.0612  0.5492  0.9233
  610TIP3    H2 1753   3.478   7.453   1.963  0.3013 -0.9952  0.1844
  611TIP3   OH2 1754   0.374   2.655   2.169 -0.0070  0.3599 -0.0771
  611TIP3    H1 1755   0.423   2.573   2.171 -1.5507 -0.5453  2.1568
  611TIP3    H2 1756   0.428   2.717   2.218  0.4636  0.2792 -0.4937
  612TIP3   OH2 1757   0.927   7.178   6.772 -0.1566  0.0569  0.1422
  612TIP3    H1 1758   0.926   7.253   6.831 -0.4095  0.5607 -0.4990
  612TIP3    H2 1759   0.868   7.114   6.812 -0.4501  0.4611  0.3462
  613TIP3   OH2 1760   8.195   2.056   0.298  0.0748 -0.0093  0.2319
  613TIP3    H1 1761   8.268   2.013   0.254  1.2842  1.1734  1.0267
  613TIP3    H2 1762   8.226   2.146   0.312 -0.7610 -0.0228  2.3592
  614TIP3   OH2 1763   6.101   1.254   0.227  0.1137 -0.1788 -0.1489
  614TIP3    H1 1764   6.058   1.224   0.147 -1.0238 -0.8678  0.6904
  614TIP3    H2 1765   6.184   1.207   0.229 -0.1920 -0.7426 -0.5416
  615TIP3   OH2 1766   0.868   6.203   7.200 -0.1630 -0.1423 -0.1315
  615TIP3    H1 1767   0.848   6.160   7.283 -0.7399  1.0090  0.3367
  615TIP3    H2 1768   0.914   6.136   7.149  1.2972 -0.4738  1.5718
  616TIP3   OH2 1769   0.747   3.382   0.793 -1.1560  0.0121  0.1648
  616TIP3    H1 1770   0.763   3.459   0.739  2.1773  0.8840  2.2843
  616TIP3    H2 1771   0.707   3.319   0.734 -1.8525  2.5516 -2.1572
  617TIP3   OH2 1772   0.231   1.763   1.556  0.1102 -0.3837  0.4728
  617TIP3    H1 1773   0.261   1.806   1.476 -0.7543 -0.0341  0.3348
  617TIP3    H2 1774   0.258   1.672   1.545 -0.3188 -0.4137 -0.3721
  618TIP3   OH2 1775   1.115   5.598   1.236 -0.1456 -0.0236  0.5205
  618TIP3    H1 1776   1.092   5.605   1.144  0.2315  0.4071  0.4613
  618TIP3    H2 1777   1.032   5.578   1.280 -0.4543  0.5252  0.1833
  619TIP3   OH2 1778   6.972   0.257   4.971 -0.0145  0.0942 -0.2845
  619TIP3    H1 1779   7.039   0.325   4.975 -1.0169  1.3062 -3.1677
  619TIP3    H2 1780   7.020   0.177   4.947  0.5857  0.6461 -0.9285
  620TIP3   OH2 1781   6.275   3.440   1.451 -0.0195  0.3418  0.2582
  620TIP3    H1 1782   6.192   3.412   1.412 -0.9215  0.4194  2.0730
  620TIP3    H2 1783   6.249   3.489   1.529  1.7921 -1.3796  1.9820
  621TIP3   OH2 1784   5.821   3.502   1.540 -0.3837 -0.7009  0.2209
  621TIP3    H1 1785   5.855   3.572   1.596  0.9199 -1.2490  0.1439
  621TIP3    H2 1786   5.828   3.423   1.594  1.4244 -1.3315 -0.8833
  622TIP3   OH2 1787   2.136   6.297   7.211  0.0671 -0.0764  0.2538
  622TIP3    H1 1788   2.062   6.245   7.243  0.7851 -0.6172  1.0255
  622TIP3    H2 1789   2.118   6.386   7.243 -0.8667  0.0558 -0.5937
  623TIP3   OH2 1790   6.316   3.481   2.711 -0.0541  0.3765 -0.0078
  623TIP3    H1 1791   6.225   3.475   2.741 -0.2053 -0.7396 -0.6890
  623TIP3    H2 1792   6.309   3.481   2.616  0.5714  1.7730 -0.0684
  624TIP3   OH2 1793   6.587   0.284   2.277  0.1586  0.0395  0.0321
  624TIP3    H1 1794   6.530   0.358   2.293  1.0595  1.1282 -1.6383
  624TIP3    H2 1795   6.535   0.207   2.301 -0.7975  1.1798  1.7085
  625TIP3   OH2 1796   7.668   1.120   1.179  0.0454  0.1861 -0.2950
  625TIP3    H1 1797   7.629   1.207   1.190  0.7903  0.3899  0.8139
  625TIP3    H2 1798   7.672   1.108   1.084  1.2658  1.9683 -0.5032
  626TIP3   OH2 1799   8.135   2.903   1.983 -0.4683 -0.1169  0.1366
  626TIP3    H1 1800   8.095   2.817   1.995 -1.5310  0.2343 -0.7853
  626TIP3    H2 1801   8.094   2.937   1.903  0.6513  0.8402 -0.0364
  627TIP3   OH2 1802   7.154   2.455   3.215  0.6594 -0.2465  0.1267
  627TIP3    H1 1803   7.085   2.520   3.229  1.4231  0.3085  1.4308
  627TIP3    H2 1804   7.208   2.461   3.294  0.9349 -2.2270  0.1044
  628TIP3   OH2 1805   4.005   8.155   0.422 -0.0705 -0.1002  0.7227
  628TIP3    H1 1806   4.034   8.185   0.336 -0.4537 -2.2051 -0.1714
  628TIP3    H2 1807   4.043   8.068   0.431 -1.3767 -0.5580  1.9747
  629TIP3   OH2 1808   7.406   0.600   0.006  0.6257 -0.3727 -0.7574
  629TIP3    H1 1809   7.345   0.530   0.030  0.8634 -0.1305  0.5729
  629TIP3    H2 1810   7.490   0.572   0.041  0.7800  0.4478 -0.4659
  630TIP3   OH2 1811   7.139   1.432   3.564 -0.1308  0.0337 -0.2711
  630TIP3    H1 1812   7.190   1.419   3.644 -1.4623  0.8965  0.7435
  630TIP3    H2 1813   7.068   1.368   3.571  0.3814 -0.6753 -1.3339
  631TIP3   OH2 1814   7.372   3.127   1.000 -0.0628  0.3765  0.1517
  631TIP3    H1 1815   7.383   3.034   1.017 -1.0132  0.5826  2.0495
  631TIP3    H2 1816   7.429   3.171   1.064 -0.6772  1.1137  0.2079
  632TIP3   OH2 1817   1.333   5.025   6.247 -0.0711 -0.3029 -0.3920
  632TIP3    H1 1818   1.285   5.083   6.188  0.5979  0.0697 -0.5759
  632TIP3    H2 1819   1.341   4.943   6.199 -0.3732 -0.3112 -0.4299
  633TIP3   OH2 1820   6.306   2.825   1.280  0.5109  0.1850  0.1422
  633TIP3    H1 1821   6.298   2.850   1.372  0.2082 -3.7929  1.2639
  633TIP3    H2 1822   6.401   2.821   1.265  0.5603  0.8775  0.2512
  634TIP3   OH2 1823   3.593   7.860   1.042 -0.2174 -0.2939  0.0502
  634TIP3    H1 1824   3.514   7.913   1.052 -0.5500 -0.7994  0.1070
  634TIP3    H2 1825   3.563   7.778   1.003  0.5710  0.2878 -1.8456
  635TIP3   OH2 1826   8.354   1.400   1.152  0.0783 -0.2110 -0.0771
  635TIP3    H1 1827   8.364   1.385   1.246  0.8495  0.1454 -0.0998
  635TIP3    H2 1828   8.296   1.329   1.122 -0.0301 -0.4229  0.6287
  636TIP3   OH2 1829   7.267   0.226   0.794  0.2415  0.3002  0.2243
  636TIP3    H1 1830   7.273   0.279   0.715 -1.6546 -0.0529 -0.1772
  636TIP3    H2 1831   7.179   0.188   0.792 -0.0617  0.7297  2.7572
  637TIP3   OH2 1832   4.004   0.946   6.229  0.7479 -0.3789  0.6201
  637TIP3    H1 1833   3.911   0.932   6.214  0.6373  0.2330  0.7257
  637TIP3    H2 1834   4.028   0.882   6.295  0.0699  0.4597  1.6894
  638TIP3   OH2 1835   8.115   3.512   0.571 -0.1826 -0.0774 -0.0157
  638TIP3    H1 1836   8.115   3.600   0.534 -0.8015 -0.3791 -0.7330
  638TIP3    H2 1837   8.024   3.497   0.599  0.4391  0.4944  2.4718
  639TIP3   OH2 1838   7.682   3.534   1.769  0.3155 -0.5697 -0.0857
  639TIP3    H1 1839   7.755   3.563   1.716 -0.6400 -0.6121 -1.4445
  639TIP3    H2 1840   7.663   3.607   1.827  0.9587 -0.2874 -0.2323
  640TIP3   OH2 1841   6.760   1.428   0.592 -0.2856 -0.0667  0.1245
  640TIP3    H1 1842   6.675   1.388   0.577 -0.7377  0.6796  0.6438
  640TIP3    H2 1843   6.761   1.448   0.685 -0.0446  1.0491 -0.1109
  641TIP3   OH2 1844   5.298   4.871   1.670  0.1879 -0.0023  0.1046
  641TIP3    H1 1845   5.230   4.932   1.641 -0.7687 -0.3877  1.4934
  641TIP3    H2 1846   5.275   4.788   1.628  1.4557  0.5408 -1.7375
  642TIP3   OH2 1847   1.611   2.003   1.615  0.5955  0.1004  0.7691
  642TIP3    H1 1848   1.588   1.910   1.606  0.7273  0.0850  0.5691
  642TIP3    H2 1849   1.527   2.047   1.628  0.2466  0.2440 -1.6632
  643TIP3   OH2 1850   7.913   1.477   3.265 -0.0066  0.0414 -0.7795
  643TIP3    H1 1851   7.968   1.412   3.222  0.5460  0.9113 -1.4193
  643TIP3    H2 1852   7.968   1.513   3.334  0.7227  1.8054 -2.2196
  644TIP3   OH2 1853   8.297   3.467   0.110  0.1608 -0.3571 -0.1282
  644TIP3    H1 1854   8.299   3.518   0.191  1.7481 -0.6856  0.0582
  644TIP3    H2 1855   8.334   3.525   0.043  0.9945 -0.8647 -0.1266
  645TIP3   OH2 1856   1.814   5.387   6.359 -0.6160  0.8529  0.3812
  645TIP3    H1 1857   1.906   5.397   6.334 -0.4546 -0.9152  0.2390
  645TIP3    H2 1858   1.765   5.410   6.280 -0.2585  0.5862  0.0809
  646TIP3   OH2 1859   8.064   4.596   0.008  0.4063  1.0167 -0.8484
  646TIP3    H1 1860   7.986   4.647  -0.015  0.0049  0.9773  0.3905
  646TIP3    H2 1861   8.033   4.505   0.010  0.0518  1.1686  1.3959
  647TIP3   OH2 1862   2.330   5.931   6.836  0.4961  0.6415 -0.3306
  647TIP3    H1 1863   2.296   5.844   6.815 -0.8552  0.9248  0.6313
  647TIP3    H2 1864   2.374   5.960   6.755 -0.6701 -0.1621 -1.2642
  648TIP3   OH2 1865   2.140   2.939   2.722 -0.1888  0.2942 -0.0347
  648TIP3    H1 1866   2.060   2.933   2.670 -0.6597 -0.5268  0.7661
  648TIP3    H2 1867   2.208   2.899   2.667 -0.9585 -1.8423  0.5010
  649TIP3   OH2 1868   0.140   3.659   1.806  0.8027 -0.2472 -0.1207
  649TIP3    H1 1869   0.058   3.667   1.756  0.6204 -3.1070 -0.3295
  649TIP3    H2 1870   0.132   3.726   1.875 -0.9946  0.5735 -1.0887
  650TIP3   OH2 1871   0.151   1.609   4.052  0.1721  0.2174 -0.0372
  650TIP3    H1 1872   0.149   1.533   4.110 -2.0529  0.0130 -0.3529
  650TIP3    H2 1873   0.230   1.656   4.078  0.1582 -0.7919  1.9529
  651TIP3   OH2 1874   2.350   2.656   3.263 -0.5695  0.2553  0.0422
  651TIP3    H1 1875   2.376   2.747   3.249  0.3820 -0.3276 -2.1260
  651TIP3    H2 1876   2.258   2.652   3.234 -0.6392  0.5435  0.2267
  652TIP3   OH2 1877   8.006   2.902   3.165  0.1671 -0.1084 -0.7160
  652TIP3    H1 1878   7.976   2.812   3.162  0.1952 -0.1196 -0.6561
  652TIP3    H2 1879   8.031   2.916   3.256 -0.9585  0.3230 -0.4620
  653TIP3   OH2 1880   1.986   3.578   2.472 -0.0339 -0.6264 -0.0585
  653TIP3    H1 1881   1.921   3.603   2.537 -0.3173 -1.4289 -0.0174
  653TIP3    H2 1882   2.057   3.539   2.522  0.8723  1.0110 -0.0331
  654TIP3   OH2 1883   7.894   2.622   0.884 -0.6664  0.2672  0.5632
  654TIP3    H1 1884   7.924   2.532   0.868  0.4475  0.3645  1.9930
  654TIP3    H2 1885   7.850   2.618   0.969  0.3433  1.2774  1.1519
  655TIP3   OH2 1886   1.565   3.165   2.848  0.3615  0.0500  0.3707
  655TIP3    H1 1887   1.596   3.218   2.922  0.9772 -1.2770  1.0849
  655TIP3    H2 1888   1.642   3.152   2.793  0.1888  0.0093  0.1400
  656TIP3   OH2 1889   0.508   2.868   3.619 -0.1095  0.3855  0.1816
  656TIP3    H1 1890   0.592   2.906   3.592  0.0980 -0.3996 -0.2744
  656TIP3    H2 1891   0.444   2.937   3.601  0.6096  1.5316  1.8670
  657TIP3   OH2 1892   2.814   2.211   2.169 -0.7488 -0.5168 -0.2231
  657TIP3    H1 1893   2.908   2.191   2.166 -1.1037 -2.1670 -0.5753
  657TIP3    H2 1894   2.810   2.305   2.151  0.8322 -0.4382 -0.2779
  658TIP3   OH2 1895   7.276   3.342   2.019  0.7200 -0.0013 -0.8858
  658TIP3    H1 1896   7.307   3.254   2.039  1.2395  0.0085 -1.6286
  658TIP3    H2 1897   7.330   3.370   1.945 -0.2325  0.4940 -1.3982
  659TIP3   OH2 1898   0.792   2.891   3.613 -0.4255  0.1477  0.3861
  659TIP3    H1 1899   0.861   2.892   3.679 -0.3826 -0.8776  0.3729
  659TIP3    H2 1900   0.838   2.884   3.530 -0.4552  2.0475  0.1881
  660TIP3   OH2 1901   2.402   2.662   3.549  0.1384 -0.2289 -0.3142
  660TIP3    H1 1902   2.323   2.697   3.590  0.9717  0.5030  0.7074
  660TIP3    H2 1903   2.387   2.672   3.455 -0.5646  0.8532 -0.0936
  661TIP3   OH2 1904   7.572   1.559   4.036 -0.3003  0.4762 -0.1366
  661TIP3    H1 1905   7.614   1.562   4.123 -0.7991 -0.4042  0.1305
  661TIP3    H2 1906   7.487   1.600   4.049 -1.0396 -1.1230  0.1634
  662TIP3   OH2 1907   0.482   3.469   2.507 -0.2691 -0.2032  0.5289
  662TIP3    H1 1908   0.503   3.451   2.599  0.2162  0.4057  0.5432
  662TIP3    H2 1909   0.565   3.499   2.469 -0.0041 -2.2068 -0.5676
  663TIP3   OH2 1910   0.981   2.829   1.575  0.1705 -0.1559 -0.4047
  663TIP3    H1 1911   1.015   2.750   1.618 -1.7266 -1.3345 -1.0266
  663TIP3    H2 1912   0.889   2.809   1.557  0.0677  1.6058 -1.9747
  664TIP3   OH2 1913   2.515   2.674   5.183 -0.5866  0.7431  0.3844
  664TIP3    H1 1914   2.488   2.606   5.245  1.1284  0.8972  1.3470
  664TIP3    H2 1915   2.563   2.626   5.115  2.3638  1.1229  2.0849
  665TIP3   OH2 1916   0.827   2.280   1.136  0.6882 -0.4702  0.8498
  665TIP3    H1 1917   0.845   2.260   1.228 -0.8568 -0.2580  1.2202
  665TIP3    H2 1918   0.739   2.246   1.122  1.0979 -0.9020 -0.6838
  666TIP3   OH2 1919   8.286   5.520   4.432  0.3942  0.0023  0.4170
  666TIP3    H1 1920   8.244   5.449   4.384  1.6691  0.1883 -0.9924
  666TIP3    H2 1921   8.377   5.493   4.441  0.4391  0.5254  1.6847
  667TIP3   OH2 1922   4.216   1.732   2.490 -0.2861  0.2517 -0.5290
  667TIP3    H1 1923   4.241   1.644   2.518  0.4084  0.4337 -0.5541
  667TIP3    H2 1924   4.282   1.755   2.424  0.1265  1.1803  0.2033
  668TIP3   OH2 1925   0.739   1.570   3.039 -0.1439 -0.3601 -0.2280
  668TIP3    H1 1926   0.789   1.630   3.093 -0.8691 -1.8314  2.1469
  668TIP3    H2 1927   0.795   1.493   3.029 -0.1325 -0.2206 -1.3410
  669TIP3   OH2 1928   8.161   2.475   1.587  0.4821 -0.2605 -0.0289
  669TIP3    H1 1929   8.099   2.404   1.601 -0.0826  0.1760 -0.2902
  669TIP3    H2 1930   8.107   2.554   1.590  1.1142  0.1619  0.3535
  670TIP3   OH2 1931   6.884   5.003   3.284  0.2959  0.1900 -0.4730
  670TIP3    H1 1932   6.951   4.935   3.271 -0.3178 -0.4070 -0.5131
  670TIP3    H2 1933   6.853   4.988   3.374 -0.4787 -0.1569 -0.7938
  671TIP3   OH2 1934   7.712   1.724   2.428  0.3266 -0.5898 -0.0722
  671TIP3    H1 1935   7.677   1.716   2.517 -2.3964 -1.2438 -1.1701
  671TIP3    H2 1936   7.663   1.797   2.390  0.1606 -1.5157 -1.6461
  672TIP3   OH2 1937   1.075   1.468   1.609 -0.3319  0.5052  0.1196
  672TIP3    H1 1938   1.015   1.442   1.539  0.7926  0.8398 -0.9815
  672TIP3    H2 1939   1.162   1.445   1.576  0.3585  2.2374  0.6857
  673TIP3   OH2 1940   4.007   3.753   1.981  0.0396 -0.4361 -0.2634
  673TIP3    H1 1941   3.934   3.777   1.924 -0.3551 -0.2448  0.3228
  673TIP3    H2 1942   4.045   3.675   1.940  0.8084  0.6653 -1.7141
  674TIP3   OH2 1943   2.035   2.588   2.590  0.2045  0.1407  0.3914
  674TIP3    H1 1944   1.959   2.581   2.649 -0.5202 -0.7760 -0.6134
  674TIP3    H2 1945   2.111   2.578   2.648 -0.4771 -0.2986  1.2343
  675TIP3   OH2 1946   2.936   3.469   0.957 -0.1119  0.3111  0.2453
  675TIP3    H1 1947   2.891   3.384   0.957 -1.0443  0.8020 -1.0413
  675TIP3    H2 1948   2.941   3.493   1.050 -1.6298 -0.2061  0.4687
  676TIP3   OH2 1949   0.938   4.905   1.890  0.2264  0.9817 -0.0145
  676TIP3    H1 1950   0.990   4.833   1.855  0.8117  1.5723 -0.3905
  676TIP3    H2 1951   0.911   4.955   1.813 -0.7920  0.7467  0.1950
  677TIP3   OH2 1952   6.322   7.996   6.220 -0.2776  0.5272 -0.0684
  677TIP3    H1 1953   6.361   7.928   6.165 -0.3221  0.1045  0.4251
  677TIP3    H2 1954   6.385   8.068   6.217  0.2971  0.0373  0.3244
  678TIP3   OH2 1955   2.216   3.689   1.736  0.0785 -0.5672  0.1444
  678TIP3    H1 1956   2.181   3.758   1.791  0.1882 -0.4646  0.0864
  678TIP3    H2 1957   2.241   3.619   1.797  1.1391 -0.0491  0.3160
  679TIP3   OH2 1958   3.894   4.276   0.215  0.1944  0.0064  0.4775
  679TIP3    H1 1959   3.959   4.322   0.162 -1.1114 -1.0422 -2.0969
  679TIP3    H2 1960   3.812   4.322   0.197 -0.7830 -2.1257 -0.7048
  680TIP3   OH2 1961   2.214   2.617   1.442 -0.0153 -0.0019 -0.1621
  680TIP3    H1 1962   2.202   2.531   1.480 -1.7572  0.0623 -0.5474
  680TIP3    H2 1963   2.179   2.610   1.353  0.5035  0.8930 -0.4514
  681TIP3   OH2 1964   8.487   0.366   6.854  0.1034 -0.6821 -0.6557
  681TIP3    H1 1965   8.465   0.456   6.830 -0.7732 -0.7043  0.0414
  681TIP3    H2 1966   8.523   0.373   6.943  0.7414 -0.9385 -0.8863
  682TIP3   OH2 1967   1.060   1.749   2.311  0.0477  0.2637  0.2189
  682TIP3    H1 1968   1.071   1.724   2.219 -2.1575  0.3767 -0.0997
  682TIP3    H2 1969   0.989   1.693   2.342 -2.0867  3.0875  0.6794
  683TIP3   OH2 1970   0.302   4.344   1.623 -0.1935  0.1712  0.2127
  683TIP3    H1 1971   0.380   4.400   1.627  0.5397 -0.8441  0.5443
  683TIP3    H2 1972   0.336   4.258   1.599 -1.1421 -0.4376  1.0178
  684TIP3   OH2 1973   1.042   2.874   1.295 -0.3578  0.2739  0.0806
  684TIP3    H1 1974   1.040   2.969   1.299  2.0007  0.3169  1.2584
  684TIP3    H2 1975   1.019   2.846   1.383  2.5414 -0.1010  0.7888
  685TIP3   OH2 1976   2.971   2.107   1.161  0.0389  0.9270 -0.0333
  685TIP3    H1 1977   2.926   2.114   1.245 -0.2387 -1.2369  0.0162
  685TIP3    H2 1978   3.064   2.107   1.184 -0.0085 -3.6606  0.7331
  686TIP3   OH2 1979   1.118   2.013   2.002  0.0079  0.0256 -0.9347
  686TIP3    H1 1980   1.047   2.004   2.065  1.5913  0.2573  0.9161
  686TIP3    H2 1981   1.142   1.923   1.980 -0.1618 -0.0596 -0.7735
  687TIP3   OH2 1982   1.693   0.848   0.993  0.6057  0.6661 -0.7517
  687TIP3    H1 1983   1.708   0.823   0.902  1.1385 -1.6256 -0.0789
  687TIP3    H2 1984   1.736   0.933   1.003  0.0914  1.1758 -2.7622
  688TIP3   OH2 1985   1.210   5.856   1.527  0.0390 -0.2718  0.0947
  688TIP3    H1 1986   1.127   5.838   1.483  1.2854 -0.4207 -2.3327
  688TIP3    H2 1987   1.270   5.789   1.493  2.0441  1.9838 -1.0408
  689TIP3   OH2 1988   2.635   4.060   3.707 -0.4022 -0.6408 -0.5167
  689TIP3    H1 1989   2.597   4.147   3.714 -1.1201 -1.0903  1.6848
  689TIP3    H2 1990   2.659   4.051   3.615 -0.5833  1.7549 -0.8180
  690TIP3   OH2 1991   8.002   4.364   0.931 -0.4042 -0.6947 -0.4742
  690TIP3    H1 1992   8.076   4.376   0.872  0.5390  1.2131  1.0572
  690TIP3    H2 1993   8.028   4.292   0.988  0.4733  0.2532  0.3382
  691TIP3   OH2 1994   0.489   3.016   2.033  0.0605  0.0117  0.1193
  691TIP3    H1 1995   0.529   3.048   2.114 -1.2174 -0.4931  0.9586
  691TIP3    H2 1996   0.436   3.089   2.002  0.2113  0.0558 -0.0338
  692TIP3   OH2 1997   1.283   3.976   2.219  0.0707  0.3381  0.2151
  692TIP3    H1 1998   1.240   3.951   2.301  0.5900  0.3675  0.4968
  692TIP3    H2 1999   1.337   3.901   2.197  0.6615  0.7124  0.3951
  693TIP3   OH2 2000   6.353   6.315   6.957  0.5594 -0.9317  0.1756
  693TIP3    H1 2001   6.398   6.382   7.009  0.2036 -0.1199 -0.5652
  693TIP3    H2 2002   6.300   6.267   7.020 -0.0139  0.1719  0.5346
  694TIP3   OH2 2003   1.947   4.053   2.343 -0.1208 -0.2323 -0.1872
  694TIP3    H1 2004   2.034   4.015   2.346  0.2191  0.5176 -0.4065
  694TIP3    H2 2005   1.918   4.041   2.252  0.6218  1.4305 -0.6477
  695TIP3   OH2 2006   3.097   1.854   0.510  0.0678  0.0875 -0.1836
  695TIP3    H1 2007   3.066   1.939   0.477  0.0830  0.9055  1.8166
  695TIP3    H2 2008   3.125   1.807   0.432 -2.0496  1.0472 -1.5802
  696TIP3   OH2 2009   0.893   3.748   1.589  0.4842  0.2480  0.0778
  696TIP3    H1 2010   0.855   3.660   1.590  2.3064 -0.5739  2.0287
  696TIP3    H2 2011   0.827   3.803   1.633 -1.1844  0.1487 -2.1950
  697TIP3   OH2 2012   0.819   2.064   0.907 -0.0578 -0.3954  0.1798
  697TIP3    H1 2013   0.849   1.979   0.941  0.9648  1.0159  2.8888
  697TIP3    H2 2014   0.802   2.117   0.984 -2.3506  1.3609 -1.4609
  698TIP3   OH2 2015   0.997   4.668   2.565  0.5921 -0.0597  0.0022
  698TIP3    H1 2016   0.975   4.643   2.655 -0.3469 -0.8150 -0.4336
  698TIP3    H2 2017   0.948   4.749   2.551 -0.6927 -0.8856 -0.4176
  699TIP3   OH2 2018   0.268   4.290   2.974  0.0128 -0.1813 -0.2280
  699TIP3    H1 2019   0.342   4.232   2.954 -0.6084 -0.9602 -0.3031
  699TIP3    H2 2020   0.262   4.288   3.070 -0.9203 -1.4044 -0.3050
  700TIP3   OH2 2021   1.731   3.330   3.035 -0.3181 -0.1100 -0.2927
  700TIP3    H1 2022   1.709   3.340   3.127  0.0888  0.2624 -0.2296
  700TIP3    H2 2023   1.769   3.415   3.010 -1.7846  0.2951 -1.1900
  701TIP3   OH2 2024   8.695   2.977   3.038  0.2329  0.1786  0.0371
  701TIP3    H1 2025   8.687   2.984   3.134  1.1899  2.1549 -0.0069
  701TIP3    H2 2026   8.608   2.998   3.005 -0.5906 -2.2896  0.5219
  702TIP3   OH2 2027   1.649   6.025   0.338 -0.7021 -0.4277 -0.1667
  702TIP3    H1 2028   1.671   5.969   0.263  0.9187 -0.3604  0.2486
  702TIP3    H2 2029   1.630   6.110   0.299 -1.0626 -0.7098 -0.6139
  703TIP3   OH2 2030   8.041   0.999   2.492 -0.0976 -0.4436  0.6108
  703TIP3    H1 2031   7.963   0.945   2.508 -1.6782  0.5643 -3.1137
  703TIP3    H2 2032   8.005   1.086   2.474  1.9753  0.2594 -0.1760
  704TIP3   OH2 2033   8.238   4.053   0.233  0.0872 -0.5127  0.0210
  704TIP3    H1 2034   8.178   4.089   0.298 -0.1222 -2.0151  0.6861
  704TIP3    H2 2035   8.181   4.024   0.162  0.1431 -0.7084  0.0571
  705TIP3   OH2 2036   0.879   4.177   1.585 -0.4478 -0.4227  0.5378
  705TIP3    H1 2037   0.910   4.110   1.524  0.9303 -0.4515  1.2330
  705TIP3    H2 2038   0.896   4.260   1.541 -0.4964 -0.4820  0.4096
  706TIP3   OH2 2039   2.542   2.968   1.706  0.1971 -0.3677 -0.5898
  706TIP3    H1 2040   2.613   2.971   1.642 -0.7645 -0.0646 -1.6448
  706TIP3    H2 2041   2.485   2.897   1.677  0.0696 -0.6148  0.2571
  707TIP3   OH2 2042   1.924   4.911   0.636 -0.0595 -0.6306  0.4603
  707TIP3    H1 2043   1.922   4.855   0.558 -0.1588 -0.3164  0.2388
  707TIP3    H2 2044   1.854   4.975   0.622  0.1955 -0.3165  0.6133
  708TIP3   OH2 2045   4.262   2.324   1.004  0.6100  0.8178  0.1861
  708TIP3    H1 2046   4.314   2.400   1.029 -0.1863  2.2938 -2.5067
  708TIP3    H2 2047   4.320   2.273   0.947  0.0799  1.0052 -0.5212
  709TIP3   OH2 2048   8.665   3.161   0.104  0.2721  0.4160  0.5348
  709TIP3    H1 2049   8.680   3.255   0.104  0.0533  0.4616  1.7813
  709TIP3    H2 2050   8.634   3.141   0.016  2.8035  1.0975 -0.5643
  710TIP3   OH2 2051   3.470   3.413   2.058 -0.0662 -0.4448  0.5399
  710TIP3    H1 2052   3.480   3.501   2.094  0.8733 -1.0548  1.8062
  710TIP3    H2 2053   3.443   3.359   2.132 -3.0008 -0.8032 -0.7193
  711TIP3   OH2 2054   0.169   2.277   2.560 -0.3001  0.0028  0.3744
  711TIP3    H1 2055   0.088   2.229   2.580  0.0318 -0.0547  1.6696
  711TIP3    H2 2056   0.158   2.360   2.606 -0.4325  0.7535 -1.0135
  712TIP3   OH2 2057   3.487   3.831   2.912  0.1510  0.0879  0.5543
  712TIP3    H1 2058   3.440   3.848   2.831 -0.6734 -1.0271  0.7781
  712TIP3    H2 2059   3.561   3.777   2.886 -1.0034 -1.6173  0.7397
  713TIP3   OH2 2060   2.392   3.135   2.541  0.2186  0.2919  0.5309
  713TIP3    H1 2061   2.459   3.146   2.474 -1.5430  1.1243 -1.1601
  713TIP3    H2 2062   2.387   3.040   2.554 -0.0195  0.0511 -1.1678
  714TIP3   OH2 2063   0.648   3.097   2.283  0.3096 -0.4945  0.4140
  714TIP3    H1 2064   0.621   3.186   2.260 -0.1118 -0.4763  0.9636
  714TIP3    H2 2065   0.668   3.102   2.377  3.0786 -0.3027 -0.1313
  715TIP3   OH2 2066   3.443   3.693   2.090  0.5734 -0.3503  0.3303
  715TIP3    H1 2067   3.461   3.719   1.999  1.0866  1.6092  0.9625
  715TIP3    H2 2068   3.350   3.712   2.101  0.3420 -1.2891 -0.0118
  716TIP3   OH2 2069   2.390   3.025   0.128  0.2283 -0.3596 -0.4140
  716TIP3    H1 2070   2.405   3.108   0.173 -1.1915  0.1594 -0.8779
  716TIP3    H2 2071   2.418   3.041   0.038 -1.3540  0.0559 -0.8427
  717TIP3   OH2 2072   7.725   0.728   1.422 -0.0946 -0.5319 -0.1893
  717TIP3    H1 2073   7.707   0.672   1.346 -2.0027  0.0157 -0.1644
  717TIP3    H2 2074   7.779   0.800   1.387 -0.7252 -0.4358 -0.9583
  718TIP3   OH2 2075   2.092   5.217   2.508 -0.3584  0.2408  0.1612
  718TIP3    H1 2076   2.101   5.147   2.572 -2.3133 -1.2055 -1.0819
  718TIP3    H2 2077   2.003   5.250   2.520 -1.0852 -0.6760 -2.3520
  719TIP3   OH2 2078   1.712   3.348   2.579  0.1789 -0.2266  0.1987
  719TIP3    H1 2079   1.677   3.385   2.660 -0.1305 -1.2598  0.5437
  719TIP3    H2 2080   1.758   3.420   2.537  0.1941  0.3557  1.2179
  720TIP3   OH2 2081   1.124   7.390   2.234  0.3338 -0.8454 -0.0468
  720TIP3    H1 2082   1.110   7.303   2.197  1.6255 -1.2691  0.4316
  720TIP3    H2 2083   1.215   7.390   2.262 -0.1941 -0.0226  1.7552
  721TIP3   OH2 2084   0.603   2.523   3.245 -0.5439  0.1721 -0.2186
  721TIP3    H1 2085   0.540   2.565   3.305 -2.2587  0.3544 -2.1021
  721TIP3    H2 2086   0.670   2.487   3.303 -3.3947 -1.7848  2.0224
  722TIP3   OH2 2087   0.800   2.721   2.645 -0.0383  0.2260 -0.2058
  722TIP3    H1 2088   0.817   2.741   2.737 -0.3403 -0.8573  0.0916
  722TIP3    H2 2089   0.791   2.807   2.604 -0.4168  0.7194  0.8712
  723TIP3   OH2 2090   1.467   3.297   1.002  0.3081  0.0910 -0.0388
  723TIP3    H1 2091   1.424   3.369   1.048 -0.3649 -0.2555 -0.1139
  723TIP3    H2 2092   1.430   3.218   1.042  0.5885 -0.2110 -0.3725
  724TIP3   OH2 2093   2.586   5.186   2.459 -0.1092  0.0467 -0.7757
  724TIP3    H1 2094   2.501   5.146   2.478 -0.3436  1.0053  0.2252
  724TIP3    H2 2095   2.573   5.279   2.478  0.5776  0.5321 -2.5719
  725TIP3   OH2 2096   1.535   2.423   2.745  0.3340 -0.4077 -0.0235
  725TIP3    H1 2097   1.520   2.355   2.811  0.1468  0.2211  0.5865
  725TIP3    H2 2098   1.459   2.480   2.751  1.2059  0.7167  0.5173
  726TIP3   OH2 2099   1.126   1.240   4.134  0.0040 -0.2103  0.1270
  726TIP3    H1 2100   1.067   1.230   4.209 -1.6403  0.0837 -1.0966
  726TIP3    H2 2101   1.103   1.167   4.076 -0.2132  0.7547 -1.0369
  727TIP3   OH2 2102   0.269   4.111   1.348 -0.1037  0.0452 -0.0160
  727TIP3    H1 2103   0.321   4.117   1.429  0.2606  1.6821 -0.3384
  727TIP3    H2 2104   0.298   4.030   1.307  0.9745  0.0697  0.6598
  728TIP3   OH2 2105   1.205   2.780   3.538 -0.2300  0.5572 -0.8093
  728TIP3    H1 2106   1.165   2.756   3.622  1.0126  2.8500  0.4888
  728TIP3    H2 2107   1.274   2.715   3.524 -1.2264 -0.5514 -0.6847
  729TIP3   OH2 2108   3.071   4.689   1.648  0.1655 -0.2014  0.0494
  729TIP3    H1 2109   3.042   4.771   1.608  0.1427 -1.4006 -2.5220
  729TIP3    H2 2110   3.123   4.647   1.579 -0.8582 -2.8980  0.8894
  730TIP3   OH2 2111   3.661   3.690   3.126 -0.3926 -0.1202 -0.0294
  730TIP3    H1 2112   3.650   3.760   3.062 -1.1003  0.0199  0.2422
  730TIP3    H2 2113   3.734   3.719   3.181  1.0831 -0.8317 -1.5451
  731TIP3   OH2 2114   8.654   6.731   3.387  0.1202  0.7052  0.2088
  731TIP3    H1 2115   8.744   6.759   3.370  0.1510  0.0620 -0.7141
  731TIP3    H2 2116   8.608   6.812   3.411  1.2766  0.7924  2.1603
  732TIP3   OH2 2117   4.298   3.067   2.736 -0.5191  0.8368 -0.2069
  732TIP3    H1 2118   4.304   3.065   2.832 -0.0047  0.4470 -0.2443
  732TIP3    H2 2119   4.271   2.979   2.711  3.3099 -0.2923 -0.6537
  733TIP3   OH2 2120   0.775   5.160   0.925  0.0027 -0.0322 -0.0121
  733TIP3    H1 2121   0.714   5.177   0.853  3.1838  0.9786 -2.6071
  733TIP3    H2 2122   0.804   5.070   0.912  1.0936  0.3711 -0.4392
  734TIP3   OH2 2123   0.261   2.345   6.918  0.3473  0.0676  0.1877
  734TIP3    H1 2124   0.255   2.440   6.909 -0.2734  0.0362  0.2206
  734TIP3    H2 2125   0.219   2.327   7.002  2.6123 -0.0076  1.3364
  735TIP3   OH2 2126   2.146   2.046   3.754 -0.2299 -0.4293 -0.0480
  735TIP3    H1 2127   2.163   2.140   3.756 -1.0782 -0.2870  0.7036
  735TIP3    H2 2128   2.222   2.007   3.798  0.1446 -0.1001 -0.4013
  736TIP3   OH2 2129   5.389   7.105   6.707 -0.0515  0.1530  0.2777
  736TIP3    H1 2130   5.412   7.197   6.691  0.9810 -0.1118  0.2166
  736TIP3    H2 2131   5.400   7.094   6.802 -1.9946  0.5739  0.5878
  737TIP3   OH2 2132   1.029   1.693   2.037  0.0740 -0.4060 -0.0151
  737TIP3    H1 2133   0.933   1.684   2.034  0.1846 -1.3625 -0.7038
  737TIP3    H2 2134   1.062   1.620   1.985  1.1333  0.9656 -1.3313
  738TIP3   OH2 2135   3.690   2.842   1.567 -0.2090  0.4028  0.8536
  738TIP3    H1 2136   3.732   2.769   1.612 -0.3345 -0.6034 -0.6130
  738TIP3    H2 2137   3.597   2.836   1.591 -0.0265  0.8216  1.6928
  739TIP3   OH2 2138   8.011   8.303   1.159 -0.1092  0.0726  0.2401
  739TIP3    H1 2139   7.991   8.335   1.247  0.1729 -1.4562  0.8887
  739TIP3    H2 2140   7.951   8.350   1.101 -1.4113 -0.0903  1.4400
  740TIP3   OH2 2141   2.779   1.643   1.452  0.3851  0.5942  0.3164
  740TIP3    H1 2142   2.824   1.701   1.391  0.8787 -0.2022 -0.0848
  740TIP3    H2 2143   2.740   1.702   1.517 -3.0678  1.7127 -2.6189
  741TIP3   OH2 2144   0.402   4.812   3.088  0.2423  0.1052  0.0773
  741TIP3    H1 2145   0.311   4.834   3.074 -0.2479 -1.2937  0.9302
  741TIP3    H2 2146   0.450   4.858   3.019 -1.2370 -0.2489 -1.2046
  742TIP3   OH2 2147   1.491   2.475   2.183  0.2610 -0.2231  0.1450
  742TIP3    H1 2148   1.523   2.386   2.168 -1.3649 -0.6215 -1.1589
  742TIP3    H2 2149   1.468   2.477   2.276 -1.5361 -1.8350 -0.2068
  743TIP3   OH2 2150   0.909   3.998   3.064 -0.2946 -0.2126  0.0160
  743TIP3    H1 2151   0.990   4.036   3.098 -0.1922 -0.1738 -0.2643
  743TIP3    H2 2152   0.844   4.067   3.075 -0.3588 -0.3563  0.5276
  744TIP3   OH2 2153   1.121   1.017   2.338 -0.3931  0.3090  0.1411
  744TIP3    H1 2154   1.176   0.968   2.276  0.6745  0.0481  1.2801
  744TIP3    H2 2155   1.181   1.046   2.406 -1.3733  1.5348  0.5053
  745TIP3   OH2 2156   8.025   1.134   2.754 -0.3445 -0.2502  0.0053
  745TIP3    H1 2157   8.076   1.095   2.825  0.8387  0.9015 -0.1850
  745TIP3    H2 2158   8.031   1.070   2.682  1.5718  0.2477 -0.3070
  746TIP3   OH2 2159   8.284   0.765   3.027  0.0056  0.1879 -0.4603
  746TIP3    H1 2160   8.201   0.759   2.979 -0.1065 -0.2596 -0.2186
  746TIP3    H2 2161   8.321   0.850   3.002 -0.4773  0.3459 -0.6502
  747TIP3   OH2 2162   2.010   1.972   1.976 -0.4631  0.0249  0.3104
  747TIP3    H1 2163   2.002   1.897   1.918 -0.5498  2.4477 -2.9094
  747TIP3    H2 2164   2.104   1.989   1.981 -0.6621  1.9559 -1.9995
  748TIP3   OH2 2165   0.720   1.782   2.168  0.3364  0.1440  0.0786
  748TIP3    H1 2166   0.770   1.727   2.228 -1.4822 -3.5917 -1.6254
  748TIP3    H2 2167   0.634   1.791   2.210 -0.1586 -0.4624 -0.7706
  749TIP3   OH2 2168   1.567   3.851   3.676 -0.4205  0.8056 -0.5309
  749TIP3    H1 2169   1.581   3.837   3.582 -0.1032 -0.0779 -0.3563
  749TIP3    H2 2170   1.650   3.824   3.716  0.3447  3.5490 -0.1954
  750TIP3   OH2 2171   1.783   3.514   1.535  0.2613 -0.0978 -0.2192
  750TIP3    H1 2172   1.826   3.599   1.529 -2.2090  1.1877 -0.1658
  750TIP3    H2 2173   1.733   3.518   1.617 -0.5216 -1.2964 -0.6223
  751TIP3   OH2 2174   0.894   1.348   3.033  0.6970  0.2047  0.4247
  751TIP3    H1 2175   0.950   1.270   3.025 -0.4154 -0.5112 -0.6084
  751TIP3    H2 2176   0.819   1.318   3.085  0.3962  0.6548  0.2482
  752TIP3   OH2 2177   1.516   4.219   2.265  0.2666  0.0442  0.4712
  752TIP3    H1 2178   1.506   4.158   2.337 -1.2623  0.6550  0.7926
  752TIP3    H2 2179   1.542   4.165   2.191  1.0861 -0.6855  1.2811
  753TIP3   OH2 2180   3.326   4.903   4.246  0.4230 -0.4748  0.3814
  753TIP3    H1 2181   3.260   4.850   4.201 -0.7686  0.9044  0.4945
  753TIP3    H2 2182   3.383   4.838   4.288 -1.0395 -1.6862  0.5539
  754TIP3   OH2 2183   1.425   3.397   3.942  0.5261  0.4913 -0.1770
  754TIP3    H1 2184   1.374   3.388   4.022 -0.2844  0.8223 -0.6507
  754TIP3    H2 2185   1.448   3.308   3.917 -1.1640  0.2166 -0.8133
  755TIP3   OH2 2186   1.976   3.101   2.397  0.3700  0.4148  0.1924
  755TIP3    H1 2187   2.025   3.102   2.315 -0.4271  0.4532 -0.2895
  755TIP3    H2 2188   2.007   3.178   2.445  2.4404 -0.8029  0.8964
  756TIP3   OH2 2189   2.567   2.299   1.862 -0.0576  0.4550  0.1365
  756TIP3    H1 2190   2.525   2.383   1.846  1.2485  0.7556 -1.8868
  756TIP3    H2 2191   2.660   2.320   1.873 -0.0418 -0.4716  1.9473
  757TIP3   OH2 2192   1.537   5.764   4.176 -0.1679  0.1417  0.0305
  757TIP3    H1 2193   1.571   5.675   4.166 -0.5692  0.1553 -1.6128
  757TIP3    H2 2194   1.445   5.752   4.199  0.0555  0.1382  0.9619
  758TIP3   OH2 2195   3.859   2.539   2.530  0.0307  0.5552 -0.1604
  758TIP3    H1 2196   3.812   2.466   2.490  0.4905  0.1574  0.0136
  758TIP3    H2 2197   3.868   2.603   2.459 -0.4191  0.4674 -0.2986
  759TIP3   OH2 2198   1.570   4.086   2.964 -0.3489  0.8282 -0.1528
  759TIP3    H1 2199   1.616   4.125   2.890  2.1334  1.8367  1.8319
  759TIP3    H2 2200   1.640   4.055   3.022 -2.2394 -0.6527  1.4093
  760TIP3   OH2 2201   0.938   1.488   1.003 -0.6737  0.3140 -0.4431
  760TIP3    H1 2202   1.002   1.539   0.954 -1.6728 -0.7440 -2.9738
  760TIP3    H2 2203   0.956   1.397   0.977 -1.4790 -0.2309  0.8911
  761TIP3   OH2 2204   0.748   4.791   0.309 -0.5053 -0.5852 -0.8089
  761TIP3    H1 2205   0.687   4.718   0.308 -2.0242  0.5672  2.0040
  761TIP3    H2 2206   0.710   4.854   0.370  2.8258  0.7869 -0.0020
  762TIP3   OH2 2207   0.197   5.009   2.561 -0.0892  0.5056 -0.0435
  762TIP3    H1 2208   0.171   4.942   2.624  0.1216 -0.3330 -0.8368
  762TIP3    H2 2209   0.292   4.996   2.550  0.3404  2.2797  1.3619
  763TIP3   OH2 2210   1.177   3.383   1.249  0.1057 -0.3944 -0.2986
  763TIP3    H1 2211   1.208   3.441   1.179  0.9787  1.7436  1.7736
  763TIP3    H2 2212   1.104   3.431   1.288  0.7382 -0.7529  1.3445
  764TIP3   OH2 2213   1.635   4.652   3.609 -0.0375 -0.3421  0.0383
  764TIP3    H1 2214   1.548   4.651   3.650 -0.9175 -0.6064 -1.7575
  764TIP3    H2 2215   1.658   4.560   3.599 -0.1437 -0.2996 -0.6556
  765TIP3   OH2 2216   2.094   2.663   3.164 -0.5428  0.1647 -0.1090
  765TIP3    H1 2217   2.101   2.708   3.079  0.5724 -0.5144 -0.3894
  765TIP3    H2 2218   2.021   2.602   3.152  0.7037 -1.1814 -1.2012
  766TIP3   OH2 2219   7.548   0.455   7.145  0.5375 -0.7017 -0.0604
  766TIP3    H1 2220   7.462   0.497   7.145  0.9397  0.1316  1.0326
  766TIP3    H2 2221   7.582   0.470   7.057 -1.3311 -2.9186 -1.2261
  767TIP3   OH2 2222   3.645   4.836   2.376  0.4870 -0.7154  0.4145
  767TIP3    H1 2223   3.725   4.888   2.380  0.8446 -1.2726  0.4076
  767TIP3    H2 2224   3.649   4.791   2.291 -0.3514  0.0936 -0.0703
  768TIP3   OH2 2225   2.602   4.314   1.284  0.1192 -0.3759  0.1378
  768TIP3    H1 2226   2.510   4.332   1.267  0.1400 -0.4276 -0.0260
  768TIP3    H2 2227   2.620   4.233   1.236 -0.1179 -1.1388  1.2962
  769TIP3   OH2 2228   2.013   2.247   0.043  0.3389 -0.0312 -0.3054
  769TIP3    H1 2229   2.024   2.152   0.036 -1.7180 -0.1881 -1.7495
  769TIP3    H2 2230   1.999   2.263   0.136  0.6619 -1.1431 -0.0596
  770TIP3   OH2 2231   1.039   4.661   1.168 -0.1985 -0.3641 -0.2493
  770TIP3    H1 2232   1.133   4.658   1.189 -0.4818  1.6722  1.5420
  770TIP3    H2 2233   1.034   4.635   1.076  2.0265 -1.4143 -0.1055
  771TIP3   OH2 2234   2.086   2.898   1.569  0.0435 -0.5192 -0.0230
  771TIP3    H1 2235   2.005   2.882   1.520  0.0435 -0.7414  0.0476
  771TIP3    H2 2236   2.117   2.810   1.593 -0.0116 -0.4101  0.4592
  772TIP3   OH2 2237   2.182   5.097   1.894 -0.5729 -0.2264 -0.6543
  772TIP3    H1 2238   2.099   5.099   1.846 -1.1260  2.3874  0.2943
  772TIP3    H2 2239   2.179   5.176   1.948  2.5815 -0.0646 -0.6667
  773TIP3   OH2 2240   2.038   2.121   1.469 -0.2421 -0.0387 -0.3753
  773TIP3    H1 2241   2.096   2.067   1.415 -2.1363 -0.6125 -1.8735
  773TIP3    H2 2242   2.070   2.107   1.559  3.6399  1.7643 -1.3543
  774TIP3   OH2 2243   2.208   3.771   3.772  0.8030 -0.4581 -0.6245
  774TIP3    H1 2244   2.295   3.793   3.741  1.0606  0.1684  0.5209
  774TIP3    H2 2245   2.222   3.719   3.851  0.1496 -1.8509 -1.4057
  775TIP3   OH2 2246   3.372   3.495   2.827 -0.2336  0.1618 -0.5504
  775TIP3    H1 2247   3.414   3.537   2.752 -0.9752  3.7391  0.9318
  775TIP3    H2 2248   3.278   3.501   2.810 -0.3531 -2.5759 -1.1227
  776TIP3   OH2 2249   2.009   5.940   0.449 -0.2057 -0.4430  0.2178
  776TIP3    H1 2250   2.077   5.902   0.393 -0.9608 -1.2382 -0.1750
  776TIP3    H2 2251   2.053   6.012   0.495  0.4419  0.1580 -1.3165
  777TIP3   OH2 2252   2.597   2.596   2.023 -0.2406  0.0123  0.2040
  777TIP3    H1 2253   2.518   2.617   1.973 -0.3973 -0.6233  0.1902
  777TIP3    H2 2254   2.618   2.678   2.068 -2.1679 -0.4096  1.9476
  778TIP3   OH2 2255   0.333   5.982   2.345 -1.1898  0.3361 -0.0936
  778TIP3    H1 2256   0.393   5.908   2.337 -2.8733 -1.1942  0.9739
  778TIP3    H2 2257   0.368   6.032   2.419 -1.0081 -0.3347  0.2844
  779TIP3   OH2 2258   1.021   3.385   2.286  0.8086  0.6805  0.6463
  779TIP3    H1 2259   0.982   3.298   2.282  1.1188  0.5656  0.0766
  779TIP3    H2 2260   1.114   3.370   2.304  0.7803  0.9150  1.0107
  780TIP3   OH2 2261   0.790   3.328   0.489  0.3644  0.2859  0.6587
  780TIP3    H1 2262   0.832   3.414   0.487  0.5022  0.2277  0.9508
  780TIP3    H2 2263   0.857   3.270   0.526 -0.2177  0.3274  1.7887
  781TIP3   OH2 2264   3.520   1.921   1.744  0.3876  0.0135  0.4653
  781TIP3    H1 2265   3.542   2.012   1.723  0.8883  0.3010  2.1375
  781TIP3    H2 2266   3.595   1.871   1.711  0.3923  0.2697  0.0804
  782TIP3   OH2 2267   0.541   3.763   4.883 -0.4793  0.4873 -0.3653
  782TIP3    H1 2268   0.625   3.787   4.922  0.3648 -2.3299 -0.3327
  782TIP3    H2 2269   0.477   3.778   4.952  0.2250  1.0183  0.1785
  783TIP3   OH2 2270   1.692   2.712   2.360  0.2694  0.3253 -0.1851
  783TIP3    H1 2271   1.694   2.649   2.432 -0.7117 -1.8540 -1.9840
  783TIP3    H2 2272   1.602   2.707   2.326  0.7196  1.2624 -1.5713
  784TIP3   OH2 2273   0.268   3.697   1.553 -0.3392 -0.1366 -0.2203
  784TIP3    H1 2274   0.219   3.659   1.626 -0.2670  1.9517  0.9586
  784TIP3    H2 2275   0.357   3.707   1.586 -0.1308  0.1511 -0.8501
  785TIP3   OH2 2276   2.911   4.516   3.408  0.5836  0.2114 -0.1565
  785TIP3    H1 2277   2.985   4.471   3.368  0.6041  0.1070 -0.0015
  785TIP3    H2 2278   2.883   4.457   3.479  2.0010  1.4520  1.4778
  786TIP3   OH2 2279   1.608   4.826   2.418 -0.3901 -0.2297 -0.3006
  786TIP3    H1 2280   1.539   4.762   2.402 -0.7047 -0.0414  0.2805
  786TIP3    H2 2281   1.562   4.910   2.423 -0.1308 -0.1108  0.1403
  787TIP3   OH2 2282   8.006   0.267   6.234 -0.4160 -0.0769  0.0424
  787TIP3    H1 2283   8.091   0.250   6.192 -0.8578  1.3872 -1.5351
  787TIP3    H2 2284   7.961   0.325   6.172 -2.1916 -0.0772  1.3140
  788TIP3   OH2 2285   8.059   3.409   2.701  0.0586 -0.1949  0.3268
  788TIP3    H1 2286   8.025   3.456   2.625  0.5256 -0.8502 -0.2917
  788TIP3    H2 2287   8.008   3.328   2.703  0.1071 -0.2168  0.6577
  789TIP3   OH2 2288   8.337   3.312   1.580  0.3877 -0.5550 -0.1929
  789TIP3    H1 2289   8.381   3.384   1.534  0.3124 -1.1225 -1.1844
  789TIP3    H2 2290   8.402   3.280   1.642  1.4408 -1.4675 -1.7292
  790TIP3   OH2 2291   3.362   2.982   2.025  0.5323 -0.1035 -0.2989
  790TIP3    H1 2292   3.281   2.949   1.988  0.1210  1.6644 -1.0117
  790TIP3    H2 2293   3.334   3.034   2.100  0.9779  0.8337 -0.7807
  791TIP3   OH2 2294   2.523   2.074   0.675  0.2609  0.6551 -0.3042
  791TIP3    H1 2295   2.556   2.108   0.758  0.4337  1.2935 -0.6267
  791TIP3    H2 2296   2.582   2.111   0.609  0.1462  0.1271 -0.7053
  792TIP3   OH2 2297   0.527   4.336   2.280  0.2648  0.2813 -0.5135
  792TIP3    H1 2298   0.577   4.264   2.241 -1.1105 -0.4626 -0.9492
  792TIP3    H2 2299   0.436   4.315   2.260 -0.4999 -0.0747  2.9883
  793TIP3   OH2 2300   1.782   0.509   1.813 -0.3961 -0.4574  0.7396
  793TIP3    H1 2301   1.845   0.441   1.788  0.0291  1.2664 -3.2744
  793TIP3    H2 2302   1.700   0.480   1.774 -0.2979  1.0930 -0.6542
  794TIP3   OH2 2303   1.856   3.682   0.990 -0.0097 -0.1313  0.0738
  794TIP3    H1 2304   1.824   3.631   1.065 -1.7424 -0.3731 -0.8256
  794TIP3    H2 2305   1.889   3.763   1.030 -0.7335 -0.3368  1.1220
  795TIP3   OH2 2306   1.702   2.652   3.333 -0.5941 -0.4064  0.0271
  795TIP3    H1 2307   1.679   2.738   3.299  0.5963 -0.0899  0.0117
  795TIP3    H2 2308   1.630   2.630   3.393 -2.2061 -0.5272 -1.8738
  796TIP3   OH2 2309   0.619   4.382   3.274 -0.1105 -0.2022  0.3846
  796TIP3    H1 2310   0.680   4.343   3.336 -0.2433 -0.6742  0.2243
  796TIP3    H2 2311   0.606   4.472   3.304 -0.3956 -0.5141  1.1991
  797TIP3   OH2 2312   3.974   6.020   0.405 -0.4660  0.1250 -0.3106
  797TIP3    H1 2313   3.907   6.063   0.458  0.4202  0.5677  0.4754
  797TIP3    H2 2314   4.019   6.092   0.360  1.5583  0.1444  1.6382
  798TIP3   OH2 2315   4.542   5.139   2.795  0.4582  0.0071  0.0184
  798TIP3    H1 2316   4.577   5.051   2.787 -0.3854 -0.4483  1.3528
  798TIP3    H2 2317   4.575   5.171   2.879 -0.9568  0.1941  0.5053
  799TIP3   OH2 2318   6.420   4.685   1.045  0.1004  0.3253  0.0645
  799TIP3    H1 2319   6.492   4.728   1.000 -0.2683 -0.0265 -0.8832
  799TIP3    H2 2320   6.365   4.649   0.975 -0.2882 -0.5542  0.7936
  800TIP3   OH2 2321   4.444   2.946   0.333 -0.3813  0.0177  0.0848
  800TIP3    H1 2322   4.407   2.876   0.280  1.2175  0.0268 -1.0903
  800TIP3    H2 2323   4.476   2.901   0.412 -1.0765 -0.2874  0.1945
  801TIP3   OH2 2324   3.016   4.133   1.192  0.5724  0.1937  0.0009
  801TIP3    H1 2325   3.065   4.170   1.118 -0.2829  1.0085 -0.1606
  801TIP3    H2 2326   3.056   4.172   1.270  0.1290  0.9185 -0.1331
  802TIP3   OH2 2327   2.305   3.648   0.690 -0.0674 -0.1850  0.6410
  802TIP3    H1 2328   2.380   3.674   0.743  0.1474 -2.5731  1.5451
  802TIP3    H2 2329   2.321   3.689   0.605  1.5220  0.4989  1.2376
  803TIP3   OH2 2330   2.198   3.404   1.251 -0.0196  0.3640 -0.0449
  803TIP3    H1 2331   2.151   3.342   1.306  0.4343  1.3161  1.4575
  803TIP3    H2 2332   2.157   3.489   1.270  1.7677  1.0874  0.6933
  804TIP3   OH2 2333   3.867   3.304   1.953 -0.0507  0.3270  0.0784
  804TIP3    H1 2334   3.784   3.296   1.906  0.5254 -0.2280 -0.8418
  804TIP3    H2 2335   3.859   3.240   2.024 -0.3427  0.1631 -0.0986
  805TIP3   OH2 2336   1.338   3.575   1.069 -0.2303  0.1487 -0.3419
  805TIP3    H1 2337   1.404   3.580   1.139  0.0106 -2.0400 -0.3510
  805TIP3    H2 2338   1.303   3.663   1.062  2.7214  1.3728 -0.3393
  806TIP3   OH2 2339   7.636   4.074   1.157 -0.4543  0.0540  0.7088
  806TIP3    H1 2340   7.626   4.116   1.243  0.7653  2.6475 -0.3678
  806TIP3    H2 2341   7.594   4.134   1.096  1.9429  0.0991 -0.9737
  807TIP3   OH2 2342   2.671   2.060   6.846 -0.9865  0.6623  0.2048
  807TIP3    H1 2343   2.722   2.001   6.902 -0.3893  0.6441 -0.3608
  807TIP3    H2 2344   2.643   2.006   6.773 -0.8497  0.9589 -0.0677
  808TIP3   OH2 2345   2.928   2.736   1.011 -0.8323  0.0681 -0.2429
  808TIP3    H1 2346   3.018   2.750   0.984 -0.1956 -1.5186  0.9766
  808TIP3    H2 2347   2.895   2.668   0.951 -1.0772  0.3086 -0.3849
  809TIP3   OH2 2348   2.087   3.928   1.294  0.2680  0.0687 -0.0744
  809TIP3    H1 2349   2.092   4.009   1.243 -1.6102  0.2821  0.0623
  809TIP3    H2 2350   2.145   3.943   1.369  0.6564  0.9193 -0.5359
  810TIP3   OH2 2351   4.442   5.685   7.058 -0.7342 -0.2591 -0.0363
  810TIP3    H1 2352   4.461   5.705   6.966  0.1299  1.4693  0.4827
  810TIP3    H2 2353   4.512   5.730   7.106  0.3433 -3.2928  1.3443
  811TIP3   OH2 2354   0.896   0.762   6.980 -0.1419 -0.0399 -0.5184
  811TIP3    H1 2355   0.963   0.730   6.919  0.7176 -2.2963  1.5236
  811TIP3    H2 2356   0.945   0.813   7.045 -0.6685  0.0353 -0.1732
  812TIP3   OH2 2357   3.393   2.437   0.633  0.2063  0.9195 -0.0486
  812TIP3    H1 2358   3.452   2.366   0.606 -0.7840  0.1954 -0.3307
  812TIP3    H2 2359   3.428   2.466   0.717  0.5814  0.0480  0.1051
  813TIP3   OH2 2360   1.743   3.487   0.774 -0.3402  0.2463  0.7155
  813TIP3    H1 2361   1.749   3.394   0.750 -1.9289 -0.1134  1.6480
  813TIP3    H2 2362   1.650   3.503   0.785 -0.2053  2.4146 -1.0983
  814TIP3   OH2 2363   2.280   5.741   0.676  0.1459  0.6183  0.1056
  814TIP3    H1 2364   2.247   5.817   0.724  0.8389  0.7362  0.4140
  814TIP3    H2 2365   2.340   5.699   0.738 -1.0205 -0.7698  0.3043
  815TIP3   OH2 2366   3.662   3.593   1.659  0.6870 -0.3222 -0.2548
  815TIP3    H1 2367   3.629   3.506   1.683 -1.9930  1.1464  1.4856
  815TIP3    H2 2368   3.666   3.591   1.563 -2.9507 -1.1108 -0.4483
  816TIP3   OH2 2369   3.651   2.766   0.411 -0.2157  0.0431 -0.0661
  816TIP3    H1 2370   3.651   2.826   0.336 -0.4592  1.6411  1.1822
  816TIP3    H2 2371   3.736   2.779   0.453 -0.7647  0.4452  0.9332
  817TIP3   OH2 2372   0.820   3.553   1.006  0.4822 -0.5127  0.1498
  817TIP3    H1 2373   0.914   3.552   0.993  0.2922 -0.0740 -1.3538
  817TIP3    H2 2374   0.788   3.473   0.963 -0.0896  0.6452 -1.6337
  818TIP3   OH2 2375   3.590   6.358   0.381 -0.3353  0.0735 -0.0095
  818TIP3    H1 2376   3.675   6.387   0.414  0.2467 -0.9242 -0.5784
  818TIP3    H2 2377   3.541   6.331   0.458  0.7154 -1.4923  0.1337
  819TIP3   OH2 2378   2.100   6.211   4.607  0.6360 -0.1501  0.2499
  819TIP3    H1 2379   2.103   6.167   4.522 -0.5755 -1.1418  0.7096
  819TIP3    H2 2380   2.046   6.154   4.662 -0.6684  1.7397  0.9722
  820TIP3   OH2 2381   2.220   4.005   1.523  0.0987 -0.4893 -0.0444
  820TIP3    H1 2382   2.262   4.044   1.600 -1.4863 -0.0282  0.6119
  820TIP3    H2 2383   2.143   4.060   1.507 -0.3471 -1.4000 -1.1347
  821TIP3   OH2 2384   2.730   2.142   0.510  0.2302  0.5557  0.3648
  821TIP3    H1 2385   2.786   2.100   0.445  0.7513  1.8435 -0.0375
  821TIP3    H2 2386   2.790   2.169   0.580 -0.5270 -2.2308  2.1651
  822TIP3   OH2 2387   3.787   4.459   2.825 -0.3275  0.6186 -0.6858
  822TIP3    H1 2388   3.843   4.479   2.899  1.3968  1.7249 -2.2527
  822TIP3    H2 2389   3.750   4.543   2.798 -0.1400  0.3829 -1.7125
  823TIP3   OH2 2390   4.733   4.741   1.939  0.3088 -0.1272  0.3803
  823TIP3    H1 2391   4.721   4.817   1.997 -0.0367  0.5855 -0.6139
  823TIP3    H2 2392   4.759   4.670   1.998  0.6916  0.7783  1.3188
  824TIP3   OH2 2393   4.798   1.392   1.747 -0.1790 -0.1030 -0.3455
  824TIP3    H1 2394   4.864   1.406   1.815 -0.8172  0.0658  0.2516
  824TIP3    H2 2395   4.845   1.403   1.665  0.6025 -0.2900  0.0686
  825TIP3   OH2 2396   4.932   3.575   1.360 -0.0597  0.2677 -0.4982
  825TIP3    H1 2397   4.849   3.537   1.388 -0.2591  0.8150 -0.3336
  825TIP3    H2 2398   4.987   3.500   1.337 -0.3282 -0.1319  0.1527
  826TIP3   OH2 2399   2.768   4.579   0.421 -0.4152 -0.1346 -0.1890
  826TIP3    H1 2400   2.726   4.626   0.349  0.8201 -0.5222 -1.1753
  826TIP3    H2 2401   2.858   4.563   0.391 -1.0068 -3.8304 -0.2047
  827TIP3   OH2 2402   0.303   0.306   6.070 -0.2780  0.3036  0.2636
  827TIP3    H1 2403   0.297   0.398   6.094  0.6864  1.3557 -3.2105
  827TIP3    H2 2404   0.394   0.282   6.086 -0.5402 -0.0691  1.2131
  828TIP3   OH2 2405   5.825   4.164   2.011 -0.5880  0.4360  0.0763
  828TIP3    H1 2406   5.904   4.190   2.058  0.0182 -2.3071  0.6510
  828TIP3    H2 2407   5.754   4.211   2.055  0.4097  0.8165  1.2987
  829TIP3   OH2 2408   4.880   2.649   1.532  0.4258  0.0405  0.1340
  829TIP3    H1 2409   4.943   2.720   1.524  1.1305 -0.4164  1.4184
  829TIP3    H2 2410   4.923   2.585   1.589  0.9844 -2.6958 -3.1104
  830TIP3   OH2 2411   5.927   2.959   1.094 -0.4916 -0.2419 -0.0474
  830TIP3    H1 2412   5.878   2.937   1.015 -0.6692 -2.7813  0.7316
  830TIP3    H2 2413   5.874   3.026   1.137 -2.1055 -1.3163 -0.3519
  831TIP3   OH2 2414   2.614   4.708   1.413 -0.2153 -0.4899  0.6500
  831TIP3    H1 2415   2.543   4.760   1.452 -1.2819  0.6235 -2.6068
  831TIP3    H2 2416   2.691   4.729   1.465 -1.6249  0.7925  2.2653
  832TIP3   OH2 2417   3.122   5.780   1.249 -0.2745  0.5124 -0.3756
  832TIP3    H1 2418   3.211   5.762   1.280 -0.5008 -0.3837 -0.2371
  832TIP3    H2 2419   3.114   5.730   1.168 -0.8969 -0.0067 -0.0040
  833TIP3   OH2 2420   3.938   3.412   0.459 -0.3083  0.7443  0.7288
  833TIP3    H1 2421   3.849   3.430   0.429  0.5204  2.9857 -0.5306
  833TIP3    H2 2422   3.972   3.347   0.397 -1.2934 -0.7013  1.6720
  834TIP3   OH2 2423   7.288   0.197   5.862 -0.5571 -0.0327  0.2992
  834TIP3    H1 2424   7.195   0.207   5.886 -0.6093 -0.4976  0.2967
  834TIP3    H2 2425   7.303   0.267   5.798 -0.6531  0.6542  1.0175
  835TIP3   OH2 2426   3.217   4.928   2.016  0.5629 -0.5046  0.2854
  835TIP3    H1 2427   3.221   5.013   1.971 -2.4084 -0.6255 -0.3351
  835TIP3    H2 2428   3.165   4.945   2.095 -2.2538 -2.1858 -1.1072
  836TIP3   OH2 2429   5.159   3.189   1.764  0.2726  0.0444  0.3690
  836TIP3    H1 2430   5.245   3.231   1.774  0.2454  0.7749 -2.1827
  836TIP3    H2 2431   5.151   3.132   1.840  1.9475  1.8455  1.9542
  837TIP3   OH2 2432   0.637   3.889   1.472  0.4551 -0.0956  0.1932
  837TIP3    H1 2433   0.637   3.916   1.380  0.8441 -1.9539 -0.3696
  837TIP3    H2 2434   0.712   3.935   1.511  0.2168  0.7904 -0.3747
  838TIP3   OH2 2435   0.044   0.846   5.289  0.6838  0.6221  0.5289
  838TIP3    H1 2436   0.074   0.775   5.232 -0.4206  0.5258  0.0453
  838TIP3    H2 2437   0.020   0.804   5.371 -0.2252  0.3802  0.1508
  839TIP3   OH2 2438   2.086   4.176   1.167  0.2337 -0.1824  0.3758
  839TIP3    H1 2439   2.015   4.233   1.197  0.2307  1.0372 -1.8004
  839TIP3    H2 2440   2.082   4.183   1.071  1.6528 -2.1289  0.1503
  840TIP3   OH2 2441   5.401   2.885   1.649  0.3129  0.2145 -0.6139
  840TIP3    H1 2442   5.305   2.887   1.651  0.3163  1.5271 -1.0722
  840TIP3    H2 2443   5.425   2.820   1.715 -0.8700  0.6007  0.2155
  841TIP3   OH2 2444   6.540   5.306   5.097 -0.5744  0.2473  0.1089
  841TIP3    H1 2445   6.617   5.288   5.043 -0.9207  2.8823 -1.3530
  841TIP3    H2 2446   6.574   5.305   5.187  0.4181 -2.1524 -0.2467
  842TIP3   OH2 2447   2.490   3.901   0.079  0.3917  0.0224  0.5343
  842TIP3    H1 2448   2.542   3.842   0.135  1.5790  2.2904  1.9114
  842TIP3    H2 2449   2.551   3.930   0.012  0.0608  0.3399  0.3719
  843TIP3   OH2 2450   1.249   4.447   1.675  0.5793  0.1393  0.4614
  843TIP3    H1 2451   1.168   4.403   1.697  1.3497 -1.9621 -0.7511
  843TIP3    H2 2452   1.308   4.428   1.748  0.3960  0.5418  0.7133
  844TIP3   OH2 2453   0.210   4.224   2.467 -0.0831  0.1634  0.2165
  844TIP3    H1 2454   0.134   4.282   2.468 -0.2280 -0.0313  0.5416
  844TIP3    H2 2455   0.228   4.208   2.375  1.0402  2.1654  0.0418
  845TIP3   OH2 2456   4.508   2.466   0.285  0.5128 -0.3373 -0.1356
  845TIP3    H1 2457   4.516   2.537   0.222  0.9737  0.3728  0.7143
  845TIP3    H2 2458   4.597   2.434   0.299  0.3180 -1.0513 -0.4682
  846TIP3   OH2 2459   3.093   2.121   2.155  0.4707 -0.3230 -0.0793
  846TIP3    H1 2460   3.116   2.209   2.185 -1.8668 -0.0589  1.0171
  846TIP3    H2 2461   3.127   2.063   2.223  2.4760 -0.3475 -1.0574
  847TIP3   OH2 2462   8.153   0.395   6.911 -0.4572  0.1179 -0.3828
  847TIP3    H1 2463   8.230   0.350   6.875 -0.8357 -1.0464  0.2461
  847TIP3    H2 2464   8.183   0.430   6.994 -0.5982 -0.3468 -0.1319
  848TIP3   OH2 2465   3.198   5.122   1.788 -0.5527 -0.0390  0.3767
  848TIP3    H1 2466   3.138   5.197   1.792  2.5732  2.5913  0.2274
  848TIP3    H2 2467   3.198   5.096   1.696  0.1725  1.3567 -0.0252
  849TIP3   OH2 2468   4.184   3.376   0.860  0.0312 -0.1649  0.1714
  849TIP3    H1 2469   4.131   3.298   0.845  0.6516 -0.6729  0.5821
  849TIP3    H2 2470   4.181   3.424   0.778  0.4221 -1.0980 -0.3933
  850TIP3   OH2 2471   2.053   4.558   1.302  0.0027 -0.1809  0.5984
  850TIP3    H1 2472   2.113   4.592   1.237 -0.4040 -0.6582 -0.0315
  850TIP3    H2 2473   1.994   4.501   1.253 -1.1606  0.5250  1.1550
  851TIP3   OH2 2474   7.393   2.854   0.555 -0.2206 -0.0762 -0.5604
  851TIP3    H1 2475   7.331   2.863   0.483  0.6164 -1.0641 -1.4113
  851TIP3    H2 2476   7.462   2.917   0.537 -1.0932  1.2180  0.5316
  852TIP3   OH2 2477   1.536   5.231   1.970 -0.0633  0.2770 -0.2667
  852TIP3    H1 2478   1.553   5.140   1.946  0.6078  0.3776 -0.1926
  852TIP3    H2 2479   1.623   5.268   1.986 -0.3053  1.0178 -0.6139
  853TIP3   OH2 2480   8.043   8.258   1.648 -0.1020  0.0657 -0.3623
  853TIP3    H1 2481   8.009   8.288   1.564  1.1414 -0.8944 -1.2362
  853TIP3    H2 2482   7.987   8.184   1.672 -0.4759  0.3595 -0.3358
  854TIP3   OH2 2483   3.183   3.712   1.272 -0.5166  0.2474  0.5105
  854TIP3    H1 2484   3.109   3.766   1.241 -0.4799 -0.3354 -0.5994
  854TIP3    H2 2485   3.218   3.672   1.193  0.3902 -0.2488  1.1625
  855TIP3   OH2 2486   6.726   1.805   0.082 -0.1124 -0.7795 -0.1452
  855TIP3    H1 2487   6.768   1.742   0.140 -1.2336 -0.5556  0.9338
  855TIP3    H2 2488   6.711   1.757   0.001 -0.6721 -1.8133  0.5609
  856TIP3   OH2 2489   2.397   4.937   1.129  0.5446 -0.4974  0.5324
  856TIP3    H1 2490   2.338   5.011   1.138 -0.8904 -1.3454 -1.4415
  856TIP3    H2 2491   2.446   4.935   1.211  0.5729  2.5633  0.6580
  857TIP3   OH2 2492   5.157   4.494   1.208 -0.0590 -0.0300  0.2458
  857TIP3    H1 2493   5.186   4.410   1.244  1.1502 -0.5135 -1.7527
  857TIP3    H2 2494   5.232   4.525   1.157 -1.8097  0.4065 -2.1642
  858TIP3   OH2 2495   1.327   3.578   2.452  0.4363 -0.0450 -0.1157
  858TIP3    H1 2496   1.299   3.596   2.542 -1.6168  0.3815 -0.8258
  858TIP3    H2 2497   1.421   3.596   2.453 -0.1129  3.1491  1.1517
  859TIP3   OH2 2498   5.314   5.991   6.372  0.1246  0.0093 -0.0090
  859TIP3    H1 2499   5.234   6.022   6.330 -0.7599 -0.3616  1.3757
  859TIP3    H2 2500   5.376   6.063   6.361 -0.6772  0.6631 -0.2925
  860TIP3   OH2 2501   2.407   3.569   0.995 -0.1064  0.2861  0.1720
  860TIP3    H1 2502   2.426   3.663   0.997  0.7410  0.2026 -1.9555
  860TIP3    H2 2503   2.409   3.541   1.086 -1.4143  2.5324  0.9195
  861TIP3   OH2 2504   5.498   3.033   2.734 -0.0064  0.1518 -0.6008
  861TIP3    H1 2505   5.459   2.961   2.685 -0.3181  1.7363 -2.7325
  861TIP3    H2 2506   5.449   3.036   2.816 -0.0456 -1.9780 -0.5165
  862TIP3   OH2 2507   1.699   4.319   1.784 -0.0998 -0.4817 -0.0647
  862TIP3    H1 2508   1.786   4.291   1.812  0.3014  1.7385  1.0139
  862TIP3    H2 2509   1.713   4.357   1.697  0.3941  1.6897  0.9262
  863TIP3   OH2 2510   5.254   7.905   6.439  0.0034 -0.0878  0.2093
  863TIP3    H1 2511   5.348   7.916   6.451 -0.0682 -0.3099  1.0256
  863TIP3    H2 2512   5.246   7.842   6.368  0.4539  1.2160 -1.0235
  864TIP3   OH2 2513   1.854   4.637   1.676  0.3991  0.1562  0.1072
  864TIP3    H1 2514   1.822   4.557   1.634  0.6103 -0.0653  0.3685
  864TIP3    H2 2515   1.902   4.682   1.606 -0.8635  0.7131 -0.4186
  865TIP3   OH2 2516   3.280   3.310   1.072  0.1382 -0.2048 -0.1736
  865TIP3    H1 2517   3.286   3.372   1.000  0.3386  0.5344  0.4760
  865TIP3    H2 2518   3.339   3.344   1.139  0.2474 -1.0878  0.1921
  866TIP3   OH2 2519   5.569   3.026   1.455 -0.0729 -0.4541  0.0351
  866TIP3    H1 2520   5.630   3.061   1.520 -1.0394  3.5945 -1.1001
  866TIP3    H2 2521   5.482   3.055   1.485 -0.7453 -0.4303 -1.8714
  867TIP3   OH2 2522   5.222   6.264   6.943 -0.1626  0.2682 -0.4729
  867TIP3    H1 2523   5.286   6.192   6.947 -0.3406  0.1772  1.3809
  867TIP3    H2 2524   5.139   6.222   6.963  0.2158  1.5006  4.3650
  868TIP3   OH2 2525   3.220   4.359   1.744  0.0593  0.4331 -0.1066
  868TIP3    H1 2526   3.157   4.348   1.672  1.5058  1.0619 -1.4906
  868TIP3    H2 2527   3.304   4.334   1.706  0.5992 -0.8522  1.8665
  869TIP3   OH2 2528   2.647   1.391   0.541  0.1270 -0.0152 -0.2014
  869TIP3    H1 2529   2.652   1.319   0.478 -0.3668  0.7643 -1.1381
  869TIP3    H2 2530   2.573   1.444   0.512  1.2541  1.5665 -0.2511
  870TIP3   OH2 2531   8.895   0.170   5.170  0.1599 -0.0281  0.6147
  870TIP3    H1 2532   8.847   0.253   5.168  0.6818  0.2795  0.6976
  870TIP3    H2 2533   8.940   0.170   5.254  0.7294 -0.0702  0.3095
  871TIP3   OH2 2534   2.810   3.187   3.023 -0.1865 -0.0735 -1.1624
  871TIP3    H1 2535   2.905   3.173   3.018 -0.1073  0.8684 -2.6549
  871TIP3    H2 2536   2.775   3.135   2.951 -1.0328 -2.0193  0.5871
  872TIP3   OH2 2537   7.064   0.372   6.891  0.0119  0.2460  0.1055
  872TIP3    H1 2538   6.991   0.432   6.908  0.8128  0.9717  1.0008
  872TIP3    H2 2539   7.072   0.371   6.796 -1.7518 -0.5502 -0.0643
  873TIP3   OH2 2540   4.466   3.790   3.022 -0.2885  0.4334 -0.5204
  873TIP3    H1 2541   4.403   3.721   3.003  1.7128 -0.8255 -2.9645
  873TIP3    H2 2542   4.427   3.869   2.985 -0.9937 -0.0739 -0.8652
  874TIP3   OH2 2543   5.647   7.318   5.998  0.2836  0.3617  0.2638
  874TIP3    H1 2544   5.622   7.271   5.918  0.9352  0.3228  0.0802
  874TIP3    H2 2545   5.590   7.394   6.000 -1.0997 -0.6621  0.7970
  875TIP3   OH2 2546   4.495   3.261   2.680 -0.2330 -0.1526  0.2859
  875TIP3    H1 2547   4.478   3.341   2.729 -0.6360 -0.3627  0.4980
  875TIP3    H2 2548   4.441   3.195   2.723 -1.8386  0.0061 -1.4330
  876TIP3   OH2 2549   4.621   7.343   6.522  0.2219  0.4761  0.3896
  876TIP3    H1 2550   4.575   7.330   6.440 -1.4751  2.0261  1.0690
  876TIP3    H2 2551   4.565   7.301   6.588 -0.2685  2.3876  1.2218
  877TIP3   OH2 2552   3.752   2.896   0.954 -0.0888  0.2121 -0.5856
  877TIP3    H1 2553   3.827   2.919   0.899  0.5894 -0.0940  0.2017
  877TIP3    H2 2554   3.768   2.942   1.037  0.7455 -2.1726  0.6324
  878TIP3   OH2 2555   8.499   6.120   6.217  0.0591  0.0456  0.4262
  878TIP3    H1 2556   8.534   6.175   6.146 -0.8343  1.0626  0.7529
  878TIP3    H2 2557   8.496   6.032   6.180 -1.3204  0.7238 -1.1586
  879TIP3   OH2 2558   1.599   4.181   2.691 -0.3820 -0.0486 -0.3286
  879TIP3    H1 2559   1.680   4.173   2.639  0.0395  1.1367  0.1305
  879TIP3    H2 2560   1.584   4.275   2.698 -1.5302 -0.2526  0.0281
  880TIP3   OH2 2561   0.669   0.921   7.123 -0.0671 -0.2200  0.4281
  880TIP3    H1 2562   0.751   0.920   7.074 -0.3369  1.5524 -0.1190
  880TIP3    H2 2563   0.686   0.982   7.195 -0.9832  0.3550  0.1634
  881TIP3   OH2 2564   2.160   1.610   0.952 -0.3105 -0.4736 -0.1107
  881TIP3    H1 2565   2.180   1.563   1.033 -1.0014 -1.1137 -0.3036
  881TIP3    H2 2566   2.115   1.689   0.981 -0.6452 -0.7504  0.1355
  882TIP3   OH2 2567   4.583   2.635   0.102  0.3684 -0.0503  0.1750
  882TIP3    H1 2568   4.654   2.580   0.069  0.9523 -0.0915  1.4672
  882TIP3    H2 2569   4.599   2.721   0.063  0.2214 -0.4357 -0.7700
  883TIP3   OH2 2570   4.042   2.677   2.333 -0.4090  0.2103 -0.5593
  883TIP3    H1 2571   4.058   2.769   2.313 -0.1399  0.0123 -1.2747
  883TIP3    H2 2572   4.111   2.654   2.396  0.5568  0.0602 -1.6471
  884TIP3   OH2 2573   4.284   1.988   1.036 -0.3208  0.1820 -0.3227
  884TIP3    H1 2574   4.334   1.910   1.010  0.6015  1.1071 -1.3659
  884TIP3    H2 2575   4.349   2.048   1.071 -0.5237  1.8549 -2.7551
  885TIP3   OH2 2576   4.215   2.422   1.703 -0.1366  0.6522  0.5812
  885TIP3    H1 2577   4.187   2.456   1.788  1.6806  0.9909  1.0626
  885TIP3    H2 2578   4.288   2.478   1.677  0.5780 -0.6525 -0.2913
  886TIP3   OH2 2579   2.427   3.234   0.298  0.6347 -0.3488  0.1360
  886TIP3    H1 2580   2.479   3.310   0.273 -0.9427  0.7879  0.2078
  886TIP3    H2 2581   2.458   3.211   0.385  0.3802  0.8922  0.5650
  887TIP3   OH2 2582   6.619   3.713   1.669  0.0894 -0.6364 -0.0192
  887TIP3    H1 2583   6.655   3.672   1.591 -0.3682 -0.7729 -0.1577
  887TIP3    H2 2584   6.542   3.760   1.639  0.5419  0.2216  0.1644
  888TIP3   OH2 2585   6.411   5.940   0.196 -0.0395  0.3591 -0.3354
  888TIP3    H1 2586   6.454   5.911   0.116  2.1709  1.2309  0.4874
  888TIP3    H2 2587   6.481   5.980   0.248 -1.7394  1.2595  1.3394
  889TIP3   OH2 2588   3.026   4.050   0.676  0.5221  0.3536 -0.1210
  889TIP3    H1 2589   3.066   3.998   0.606 -0.3886  2.1589 -2.0327
  889TIP3    H2 2590   2.939   4.072   0.643 -0.5291 -0.0618  2.2567
  890TIP3   OH2 2591   6.526   8.225   7.113 -0.3547 -0.5681 -0.6674
  890TIP3    H1 2592   6.612   8.207   7.149 -0.2444  0.6536 -0.2958
  890TIP3    H2 2593   6.542   8.246   7.021 -0.4407 -1.9317 -0.9999
  891TIP3   OH2 2594   5.096   8.242   6.641 -0.3015 -0.6546  0.3778
  891TIP3    H1 2595   5.024   8.304   6.651  2.1222  2.2947  0.2023
  891TIP3    H2 2596   5.089   8.213   6.550 -1.1231 -0.2136  0.2881
  892TIP3   OH2 2597   4.218   2.650   0.716  0.6916 -0.0595 -0.0110
  892TIP3    H1 2598   4.247   2.689   0.798  1.1073 -1.5404  0.5687
  892TIP3    H2 2599   4.293   2.598   0.687  0.0012 -0.7822 -0.5220
  893TIP3   OH2 2600   3.055   4.399   1.526 -0.6733 -0.3975 -0.8474
  893TIP3    H1 2601   3.050   4.476   1.469 -0.1797  0.5124  0.3116
  893TIP3    H2 2602   2.963   4.377   1.543 -0.8206 -0.1682 -1.3245
  894TIP3   OH2 2603   2.241   4.633   1.740  0.3553 -0.4130 -0.2194
  894TIP3    H1 2604   2.161   4.630   1.688 -0.5714 -1.6008  1.2193
  894TIP3    H2 2605   2.249   4.725   1.767 -0.9697 -0.4337  0.2842
  895TIP3   OH2 2606   2.219   2.801   0.862 -0.4942 -0.1295  0.7155
  895TIP3    H1 2607   2.185   2.749   0.790  3.1593  1.4625 -2.2990
  895TIP3    H2 2608   2.149   2.863   0.882 -1.5705 -0.6042 -1.4598
  896TIP3   OH2 2609   4.220   2.927   0.614 -0.0036 -0.2333 -0.5271
  896TIP3    H1 2610   4.225   2.833   0.632  1.4402  0.0694  0.8133
  896TIP3    H2 2611   4.295   2.964   0.661  0.2696  1.4073 -2.2108
  897TIP3   OH2 2612   3.118   2.509   0.603 -0.4321 -0.2904 -0.0232
  897TIP3    H1 2613   3.212   2.514   0.618 -0.4104 -0.4914 -0.0880
  897TIP3    H2 2614   3.109   2.492   0.509 -0.5497  0.3756 -0.1317
  898TIP3   OH2 2615   0.543   1.814   6.454 -0.5664  0.4493 -0.6412
  898TIP3    H1 2616   0.459   1.833   6.413 -0.4164 -1.3738 -1.8626
  898TIP3    H2 2617   0.522   1.793   6.545 -1.5194 -0.5061 -1.0638
  899TIP3   OH2 2618   2.478   3.596   2.087 -0.4407 -0.1294  0.1077
  899TIP3    H1 2619   2.434   3.651   2.151  0.4724  4.8582 -3.2824
  899TIP3    H2 2620   2.564   3.578   2.125 -0.4314  1.5484  0.9109
  900TIP3   OH2 2621   3.014   3.419   1.406  0.4775  0.5317 -0.4649
  900TIP3    H1 2622   3.091   3.446   1.457  0.3317  0.8405 -0.4095
  900TIP3    H2 2623   3.045   3.345   1.353  0.7894  0.5989 -0.3761
  901TIP3   OH2 2624   1.362   3.426   1.467 -0.0784  0.1240  0.3781
  901TIP3    H1 2625   1.285   3.416   1.523 -0.3795  1.8278  0.3048
  901TIP3    H2 2626   1.335   3.391   1.382 -0.2286 -0.7832  0.7974
  902TIP3   OH2 2627   4.319   3.697   1.031  0.1532 -0.7984 -0.1553
  902TIP3    H1 2628   4.334   3.678   1.123  0.6536  0.5350  0.0572
  902TIP3    H2 2629   4.229   3.667   1.014  1.0774 -3.8056 -0.0261
  903TIP3   OH2 2630   3.448   3.558   0.176 -0.2119 -0.6736 -0.2464
  903TIP3    H1 2631   3.452   3.628   0.111 -0.7094  0.5843  1.0620
  903TIP3    H2 2632   3.427   3.480   0.125 -0.0642  0.1901 -1.6708
  904TIP3   OH2 2633   2.815   2.529   0.850 -0.5531 -0.2078 -0.0540
  904TIP3    H1 2634   2.857   2.457   0.898  0.8766  0.3261 -0.4538
  904TIP3    H2 2635   2.860   2.530   0.765 -2.7374 -0.8586 -1.2602
  905TIP3   OH2 2636   1.962   2.516   0.756  0.2764  0.3083 -0.6729
  905TIP3    H1 2637   2.009   2.436   0.781  1.7855  1.2130 -0.5593
  905TIP3    H2 2638   1.983   2.529   0.664 -0.8364 -0.0031 -0.9788
  906TIP3   OH2 2639   0.941   0.191   6.523  0.5006 -0.2311 -0.0445
  906TIP3    H1 2640   0.876   0.152   6.464  1.1102 -1.6081  0.1791
  906TIP3    H2 2641   1.023   0.148   6.499  0.7619 -0.7913  1.7858
  907TIP3   OH2 2642   8.379   0.610   6.823  0.6596  0.0329  0.4593
  907TIP3    H1 2643   8.287   0.582   6.821  0.7467 -0.4605  2.2686
  907TIP3    H2 2644   8.398   0.636   6.733 -1.4134  0.6797  0.1763
  908TIP3   OH2 2645   4.697   2.724   1.102  0.2286 -0.7701  0.3438
  908TIP3    H1 2646   4.630   2.656   1.096 -0.5070 -0.0507  0.3775
  908TIP3    H2 2647   4.758   2.703   1.031 -0.1425 -1.3051  0.1776
  909TIP3   OH2 2648   4.103   3.504   1.955 -0.2003 -0.3047  0.4125
  909TIP3    H1 2649   4.050   3.424   1.953 -1.7170  0.6700  1.1158
  909TIP3    H2 2650   4.158   3.495   2.033 -1.7534  0.2057  1.5801
  910TIP3   OH2 2651   5.718   5.819   5.832  1.0779  0.1914  0.5580
  910TIP3    H1 2652   5.712   5.895   5.889 -1.8830  0.1178  0.3943
  910TIP3    H2 2653   5.716   5.744   5.892  0.6955  0.1756  0.5271
  911TIP3   OH2 2654   2.487   4.116   0.545  0.4161  0.5650  0.5621
  911TIP3    H1 2655   2.438   4.038   0.522 -1.3400  1.1264  2.2298
  911TIP3    H2 2656   2.565   4.083   0.589  2.0896 -0.3741 -3.0078
  912TIP3   OH2 2657   4.557   0.955   0.214 -0.2281 -0.0288  0.1376
  912TIP3    H1 2658   4.649   0.969   0.233 -0.3753  2.0981 -0.5860
  912TIP3    H2 2659   4.518   1.042   0.216 -2.2345 -0.8872  0.4196
  913TIP3   OH2 2660   5.306   4.446   2.578  0.2126 -0.3348  0.0562
  913TIP3    H1 2661   5.258   4.373   2.617 -0.6995 -0.0868 -0.5875
  913TIP3    H2 2662   5.329   4.502   2.651 -3.0994  1.0992  0.0776
  914TIP3   OH2 2663   0.526   1.214   7.033  0.1575 -0.2371  0.3177
  914TIP3    H1 2664   0.461   1.197   7.102  0.2922  2.1749  1.1176
  914TIP3    H2 2665   0.494   1.294   6.990  1.5972 -0.1001 -0.5290
  915TIP3   OH2 2666   7.469   7.383   4.338 -0.0953  0.4167  0.1373
  915TIP3    H1 2667   7.460   7.471   4.301  0.6688  0.4063 -0.0904
  915TIP3    H2 2668   7.548   7.347   4.296  0.5500  0.2489  1.4550
  916TIP3   OH2 2669   8.819   1.538   7.046  0.3830  0.5750 -0.6155
  916TIP3    H1 2670   8.788   1.486   6.972 -1.4400  2.1378 -0.9661
  916TIP3    H2 2671   8.740   1.565   7.092  1.3551  2.1501  0.1709
  917TIP3   OH2 2672   2.582   2.236   0.301  0.3001  0.0971  0.0495
  917TIP3    H1 2673   2.511   2.293   0.330 -0.0326 -0.4359  0.2904
  917TIP3    H2 2674   2.605   2.185   0.379  1.3477  0.6850  0.1274
  918TIP3   OH2 2675   3.719   6.371   7.213  0.3608  0.7126 -0.0787
  918TIP3    H1 2676   3.748   6.349   7.302 -0.4060  1.0993  0.2732
  918TIP3    H2 2677   3.634   6.413   7.226 -1.1331 -1.8452 -1.1690
  919TIP3   OH2 2678   4.464   6.625   7.265  0.5344  0.3832 -0.2982
  919TIP3    H1 2679   4.388   6.649   7.211 -0.0048 -0.9743 -0.1850
  919TIP3    H2 2680   4.532   6.603   7.202  0.0503 -0.7463 -0.4568
  920TIP3   OH2 2681   3.578   2.790   1.154  0.5741 -0.2692  0.1863
  920TIP3    H1 2682   3.636   2.807   1.079  0.8908 -0.5571  0.3611
  920TIP3    H2 2683   3.638   2.775   1.227  0.2512  1.0065  0.7169
  921TIP3   OH2 2684   1.953   1.377   7.194  0.4756  0.3252 -0.4478
  921TIP3    H1 2685   1.905   1.333   7.124  3.6540 -1.2938 -1.7061
  921TIP3    H2 2686   1.976   1.463   7.157  0.7402  0.1067 -0.7916
  922TIP3   OH2 2687   3.998   3.346   1.697  0.3340 -0.6943 -0.0825
  922TIP3    H1 2688   4.053   3.276   1.731 -0.5995 -0.7730  1.3281
  922TIP3    H2 2689   3.937   3.365   1.768  1.3411  2.3888  0.0390
  923TIP3   OH2 2690   6.416   7.827   3.837 -0.1666 -0.3476 -0.9025
  923TIP3    H1 2691   6.410   7.921   3.854 -1.7030 -0.6548  0.4010
  923TIP3    H2 2692   6.491   7.798   3.890 -1.3172 -0.2890  0.8004
  924TIP3   OH2 2693   2.809   3.489   1.208  0.0772  0.0823  0.3233
  924TIP3    H1 2694   2.756   3.410   1.224 -0.2558  0.0828 -0.7948
  924TIP3    H2 2695   2.870   3.490   1.282 -0.5866 -0.6592  0.9068
  925TIP3   OH2 2696   4.656   8.348   5.134 -0.6631 -0.2369  0.1708
  925TIP3    H1 2697   4.685   8.330   5.223  0.1823 -1.5737 -0.3726
  925TIP3    H2 2698   4.587   8.414   5.144 -0.0337  0.1822  1.7441
  926TIP3   OH2 2699   1.946   4.281   1.931 -0.1746 -0.5163  0.6220
  926TIP3    H1 2700   2.036   4.277   1.897  0.2213 -1.5095  1.7538
  926TIP3    H2 2701   1.951   4.339   2.006 -0.7762  0.5626 -0.1561
  927TIP3   OH2 2702   5.130   6.834   7.043  0.5067 -0.8351  0.1069
  927TIP3    H1 2703   5.101   6.909   6.991 -1.8092 -2.6139 -1.2365
  927TIP3    H2 2704   5.107   6.857   7.133 -1.9556 -0.6921 -0.5269
  928TIP3   OH2 2705   2.297   4.441   0.301 -0.4977  0.2447  0.5132
  928TIP3    H1 2706   2.361   4.481   0.242 -0.6107  0.8263  0.7799
  928TIP3    H2 2707   2.342   4.436   0.386  0.3440 -2.3335 -0.0418
  929TIP3   OH2 2708   1.681   3.873   2.369  0.0491  0.0028 -0.2575
  929TIP3    H1 2709   1.755   3.930   2.388 -0.3171 -0.0322  1.3718
  929TIP3    H2 2710   1.604   3.921   2.400 -0.3293 -1.0576  0.4907
  930TIP3   OH2 2711   0.873   1.492   6.995  0.1461  0.0299 -0.1213
  930TIP3    H1 2712   0.849   1.430   7.063  1.7680 -0.6600 -0.1596
  930TIP3    H2 2713   0.896   1.572   7.043  1.0785 -0.3868  0.1248
  931TIP3   OH2 2714   2.488   3.965   1.379  0.1425  0.5381 -0.3114
  931TIP3    H1 2715   2.497   3.885   1.430  1.1407  0.9132  0.1173
  931TIP3    H2 2716   2.398   3.995   1.397  0.1236  0.0902  0.3663
  932TIP3   OH2 2717   6.926   7.866   6.412  0.1719 -0.2452  0.1910
  932TIP3    H1 2718   7.016   7.840   6.396  0.3173  0.2892  0.1203
  932TIP3    H2 2719   6.919   7.872   6.507  0.0438 -0.8701  0.2201
  933TIP3   OH2 2720   5.736   3.200   2.767  0.0627 -0.3363 -1.0942
  933TIP3    H1 2721   5.658   3.145   2.764  0.9727 -1.7880  0.7344
  933TIP3    H2 2722   5.798   3.152   2.823  1.5833  1.6422 -0.9964
  934TIP3   OH2 2723   6.652   5.154   6.446 -0.2124 -0.1534  0.0600
  934TIP3    H1 2724   6.575   5.104   6.475 -0.4752  0.0675 -0.2532
  934TIP3    H2 2725   6.702   5.169   6.526 -0.7581  0.1497  0.3463
  935TIP3   OH2 2726   1.876   4.506   2.837  0.2618  0.0747 -0.0825
  935TIP3    H1 2727   1.806   4.541   2.782 -1.1402 -0.2952  1.4027
  935TIP3    H2 2728   1.855   4.538   2.925  1.6462 -0.5177  0.4713
  936TIP3   OH2 2729   2.485   3.461   0.555 -0.0671  0.3891 -0.0320
  936TIP3    H1 2730   2.435   3.497   0.628 -0.7981 -1.6142  0.4884
  936TIP3    H2 2731   2.499   3.370   0.579  3.3969  0.7659 -0.4287
  937TIP3   OH2 2732   3.146   3.328   0.226 -0.3217 -0.3138 -0.2120
  937TIP3    H1 2733   3.208   3.356   0.293 -0.6432  0.6071 -0.2912
  937TIP3    H2 2734   3.061   3.357   0.259 -0.3431  1.2221 -1.5761
  938TIP3   OH2 2735   4.386   3.288   1.187  0.0924 -0.2642 -0.1080
  938TIP3    H1 2736   4.457   3.249   1.238  4.2986  3.7607 -2.4756
  938TIP3    H2 2737   4.393   3.247   1.101  0.0460  0.6177 -0.5436
  939TIP3   OH2 2738   5.009   1.700   2.357  0.0915 -0.3150 -0.0987
  939TIP3    H1 2739   5.090   1.693   2.408 -0.5289 -0.1310  0.9226
  939TIP3    H2 2740   5.019   1.636   2.287  1.7529  0.7316 -0.8552
  940TIP3   OH2 2741   1.781   5.231   1.613  0.2391 -0.2087  0.4003
  940TIP3    H1 2742   1.715   5.259   1.550  0.2702 -1.5545 -0.2557
  940TIP3    H2 2743   1.852   5.295   1.604 -0.4679  0.5525  0.2584
  941TIP3   OH2 2744   3.416   1.293   1.602  0.2279 -0.3996  0.1919
  941TIP3    H1 2745   3.350   1.231   1.569  0.3116  0.1757 -1.0830
  941TIP3    H2 2746   3.400   1.373   1.552  2.6521 -0.6178 -0.9675
  942TIP3   OH2 2747   2.336   3.802   0.465 -0.1401 -0.0268  0.2495
  942TIP3    H1 2748   2.428   3.817   0.445 -0.0265  0.7794  1.3985
  942TIP3    H2 2749   2.292   3.883   0.440 -0.6573 -0.6777 -1.0028
  943TIP3   OH2 2750   2.296   3.858   2.905  0.6938 -0.0202  0.2050
  943TIP3    H1 2751   2.364   3.917   2.937  0.7513  0.2482 -0.4207
  943TIP3    H2 2752   2.271   3.807   2.982  0.7498  0.7112  0.7065
  944TIP3   OH2 2753   3.990   1.893   1.055  0.3928  0.5148  0.5041
  944TIP3    H1 2754   3.956   1.973   1.015 -0.9933 -0.2677  0.0754
  944TIP3    H2 2755   3.990   1.911   1.149  2.7007  1.9957  0.2478
  945TIP3   OH2 2756   3.324   1.537   1.225  0.1415  0.2150  0.2733
  945TIP3    H1 2757   3.326   1.605   1.157 -0.7517  1.1664  1.1922
  945TIP3    H2 2758   3.388   1.472   1.195  1.8746  2.0155 -0.0288
  946TIP3   OH2 2759   2.394   2.757   1.623 -0.5211 -0.1161 -0.5136
  946TIP3    H1 2760   2.470   2.711   1.587 -0.7191 -1.0651  0.2585
  946TIP3    H2 2761   2.320   2.725   1.572 -0.4914  0.3471 -0.8541
  947TIP3   OH2 2762   2.400   4.391   1.756 -0.1178  0.4684 -0.3866
  947TIP3    H1 2763   2.481   4.403   1.707 -0.0742  0.0784 -0.4113
  947TIP3    H2 2764   2.367   4.480   1.770  0.0958  0.6041 -0.7395
  948TIP3   OH2 2765   2.412   0.845   5.708 -0.3777 -0.5441 -0.5848
  948TIP3    H1 2766   2.406   0.889   5.623 -0.5518 -0.3851 -0.4898
  948TIP3    H2 2767   2.395   0.914   5.772 -0.8354 -0.7829 -0.4418
  949TIP3   OH2 2768   5.860   7.410   6.453  0.0866  0.0711 -1.0777
  949TIP3    H1 2769   5.877   7.409   6.359  1.2575 -0.3083 -0.8755
  949TIP3    H2 2770   5.940   7.446   6.491 -0.1867 -0.2447 -0.1931
  950TIP3   OH2 2771   1.901   2.124   0.737  0.0052  0.1856 -0.4289
  950TIP3    H1 2772   1.981   2.102   0.785  0.0789 -0.3443 -0.7878
  950TIP3    H2 2773   1.855   2.185   0.794  0.6285  0.4333 -0.1829
  951TIP3   OH2 2774   2.369   2.989   1.142 -0.1852  0.5198 -0.2796
  951TIP3    H1 2775   2.381   2.896   1.127  2.8700  0.6938  0.8276
  951TIP3    H2 2776   2.276   2.999   1.161 -0.2512 -2.5371  1.1947
  952TIP3   OH2 2777   4.874   5.695   1.021  0.0939  0.3589 -0.2622
  952TIP3    H1 2778   4.827   5.763   0.972 -0.4335  0.8230  0.8667
  952TIP3    H2 2779   4.816   5.673   1.093 -0.2959 -2.2257 -1.3172
  953TIP3   OH2 2780   3.897   2.561   1.392 -0.0403 -0.3991  0.4950
  953TIP3    H1 2781   3.892   2.656   1.387  0.3095 -0.3645  0.7729
  953TIP3    H2 2782   3.953   2.544   1.468 -2.5071 -0.8780  2.2529
  954TIP3   OH2 2783   2.851   4.308   2.461  0.4807 -0.4840 -0.2775
  954TIP3    H1 2784   2.809   4.224   2.444  0.1951 -0.1296 -1.3972
  954TIP3    H2 2785   2.844   4.356   2.378  1.4380  0.2969  0.0720
  955TIP3   OH2 2786   4.973   2.156   1.939 -0.2324 -0.0084 -0.2454
  955TIP3    H1 2787   5.023   2.224   1.985 -0.6669  2.2887 -3.0330
  955TIP3    H2 2788   4.881   2.177   1.956 -0.4013  0.9545 -2.2417
  956TIP3   OH2 2789   2.311   4.304   1.240  0.1851  0.4330  0.1720
  956TIP3    H1 2790   2.297   4.351   1.159 -0.8264 -1.5156 -0.8328
  956TIP3    H2 2791   2.252   4.228   1.234 -1.3338  1.2410  3.5300
  957TIP3   OH2 2792   3.357   1.553   7.181  0.1647 -0.3305 -0.5681
  957TIP3    H1 2793   3.265   1.578   7.189  0.0840 -1.0637  0.9721
  957TIP3    H2 2794   3.396   1.621   7.126 -0.8634  1.0391  0.3804
  958TIP3   OH2 2795   2.698   4.544   2.537  0.4030  0.4855 -0.4741
  958TIP3    H1 2796   2.627   4.540   2.473  0.5999  0.2614 -0.6782
  958TIP3    H2 2797   2.741   4.459   2.531  0.7856  0.6759 -0.4624
  959TIP3   OH2 2798   7.465   3.539   1.105 -0.1945 -0.0104  0.1904
  959TIP3    H1 2799   7.381   3.525   1.062 -0.0913 -1.1708  0.3550
  959TIP3    H2 2800   7.449   3.609   1.168 -1.2266 -0.7566  0.7670
  960TIP3   OH2 2801   3.770   3.107   0.048 -0.0559  0.0791  0.4657
  960TIP3    H1 2802   3.809   3.184   0.007  1.4242  0.4432  2.5051
  960TIP3    H2 2803   3.818   3.033   0.009  0.2636  0.3305  0.3765
  961TIP3   OH2 2804   4.534   2.653   2.386 -0.2324  0.3629 -0.2112
  961TIP3    H1 2805   4.578   2.702   2.316  1.3182  1.3982  1.4424
  961TIP3    H2 2806   4.605   2.631   2.447 -1.4969 -0.8901  0.8168
  962TIP3   OH2 2807   5.645   7.368   6.868  0.2158 -0.1518 -0.1824
  962TIP3    H1 2808   5.592   7.395   6.943  0.0759  1.3453 -0.7968
  962TIP3    H2 2809   5.588   7.379   6.792  0.8170 -0.2545 -0.6554
  963TIP3   OH2 2810   7.011   4.082   1.229 -0.0231 -0.5367 -0.1034
  963TIP3    H1 2811   7.080   4.124   1.282  0.2434 -2.2138  0.8993
  963TIP3    H2 2812   6.929   4.108   1.272  0.1927 -1.9474  1.2166
  964TIP3   OH2 2813   1.740   3.881   0.367  0.5313 -0.9368  0.4400
  964TIP3    H1 2814   1.782   3.962   0.339 -1.0194 -0.7363 -1.3687
  964TIP3    H2 2815   1.771   3.815   0.304  0.8745 -1.5137  1.2040
  965TIP3   OH2 2816   4.914   5.941   5.177 -0.2901 -0.0959 -0.0725
  965TIP3    H1 2817   4.970   5.955   5.253 -0.7956 -0.9279  0.4587
  965TIP3    H2 2818   4.944   5.858   5.140 -1.9523 -1.1739  0.9238
  966TIP3   OH2 2819   5.660   2.483   1.814 -0.4336 -0.1562  0.1325
  966TIP3    H1 2820   5.656   2.567   1.859  0.0962  0.5294 -1.0727
  966TIP3    H2 2821   5.635   2.418   1.880 -0.8269  0.9462  1.0676
  967TIP3   OH2 2822   6.002   8.044   6.772 -0.0357  0.0364  0.0852
  967TIP3    H1 2823   6.088   8.085   6.768 -0.0358  0.1760  1.2122
  967TIP3    H2 2824   5.982   8.040   6.866 -0.5511 -1.4459 -0.0766
  968TIP3   OH2 2825   4.789   3.647   3.523  0.0410 -0.1857 -0.1381
  968TIP3    H1 2826   4.742   3.564   3.514  3.0433 -1.8747 -0.7840
  968TIP3    H2 2827   4.838   3.638   3.605  1.1355  0.5673 -0.7009
  969TIP3   OH2 2828   4.448   4.081   3.723 -0.1032 -0.5017  0.5123
  969TIP3    H1 2829   4.421   3.997   3.760 -0.8384  0.3306  1.9416
  969TIP3    H2 2830   4.419   4.146   3.788  2.9541  0.6633  0.8171
  970TIP3   OH2 2831   4.111   2.478   3.258  0.3744 -0.5853  0.1926
  970TIP3    H1 2832   4.204   2.465   3.236  0.1320 -1.7742 -0.1974
  970TIP3    H2 2833   4.093   2.569   3.235  1.3794 -0.4159  0.0316
  971TIP3   OH2 2834   4.257   4.507   0.581  0.1226  0.1686  0.6263
  971TIP3    H1 2835   4.249   4.422   0.625  0.3305  0.0944  0.5219
  971TIP3    H2 2836   4.167   4.530   0.557  0.1289 -0.3064  0.1237
  972TIP3   OH2 2837   1.849   1.746   3.507  0.2506 -0.2957 -0.0449
  972TIP3    H1 2838   1.893   1.680   3.453  0.7444 -0.9474  1.1307
  972TIP3    H2 2839   1.778   1.699   3.550 -1.9157  0.8383 -2.2264
  973TIP3   OH2 2840   5.084   1.781   1.632 -0.5867  0.3018 -0.0792
  973TIP3    H1 2841   5.046   1.779   1.544 -0.9590  0.6979  0.0712
  973TIP3    H2 2842   5.099   1.689   1.654 -0.6364  0.1932 -0.4963
  974TIP3   OH2 2843   5.524   2.801   2.458  0.0199 -0.7823 -0.1843
  974TIP3    H1 2844   5.533   2.716   2.414  0.3204 -0.7316 -0.2218
  974TIP3    H2 2845   5.433   2.802   2.490 -0.8212 -0.0395 -2.4760
  975TIP3   OH2 2846   3.167   4.923   3.027 -0.3135  0.3892  0.3112
  975TIP3    H1 2847   3.199   4.907   2.939  0.0900  0.8573  0.3670
  975TIP3    H2 2848   3.247   4.935   3.079 -0.5783  3.0447  0.1819
  976TIP3   OH2 2849   3.768   3.534   2.215  0.0404 -0.1854  0.7216
  976TIP3    H1 2850   3.816   3.605   2.173  1.3614 -0.8693  1.0455
  976TIP3    H2 2851   3.688   3.525   2.163  0.3022  0.9044  0.1187
  977TIP3   OH2 2852   1.292   5.583   0.892 -0.0507 -0.0896 -0.6216
  977TIP3    H1 2853   1.223   5.629   0.844  0.5514 -1.1314 -2.5105
  977TIP3    H2 2854   1.244   5.527   0.953 -0.8667 -0.2783 -1.4204
  978TIP3   OH2 2855   4.044   3.816   2.724 -0.7798  0.6569  0.4813
  978TIP3    H1 2856   3.985   3.804   2.799  0.0378 -2.2384  0.7281
  978TIP3    H2 2857   4.019   3.747   2.663 -1.0677  2.6464 -1.7133
  979TIP3   OH2 2858   0.997   4.911   0.853 -0.0388  0.1434 -0.0024
  979TIP3    H1 2859   1.001   4.891   0.760 -1.2776 -0.4801  0.0596
  979TIP3    H2 2860   1.086   4.936   0.877  0.5649 -0.9482 -1.0708
  980TIP3   OH2 2861   3.448   5.095   0.719 -0.0479  0.1664  0.1351
  980TIP3    H1 2862   3.424   5.046   0.641  0.7593 -1.4013  0.8454
  980TIP3    H2 2863   3.448   5.186   0.692 -1.9853 -0.1895 -1.1065
  981TIP3   OH2 2864   4.359   1.927   1.798 -0.1652 -0.0058 -0.1727
  981TIP3    H1 2865   4.445   1.941   1.838  0.1082 -0.4991 -0.5671
  981TIP3    H2 2866   4.315   2.012   1.803  0.9271  0.6473 -1.3073
  982TIP3   OH2 2867   4.219   3.049   3.605 -0.2292  0.6289  0.1937
  982TIP3    H1 2868   4.138   3.092   3.633 -0.4904 -0.5348  1.2745
  982TIP3    H2 2869   4.208   3.037   3.511 -0.7706  1.6015  0.1151
  983TIP3   OH2 2870   1.419   4.358   3.512 -0.1114 -0.1356 -0.7579
  983TIP3    H1 2871   1.379   4.435   3.473  0.1969 -0.2110 -1.2388
  983TIP3    H2 2872   1.496   4.341   3.457  0.8422  0.2840  0.4301
  984TIP3   OH2 2873   4.042   4.253   0.947  0.3484 -0.2731  0.1003
  984TIP3    H1 2874   4.076   4.341   0.965  0.3461 -0.1579 -0.4604
  984TIP3    H2 2875   4.061   4.238   0.855 -0.8327 -0.3369 -0.1401
  985TIP3   OH2 2876   4.650   4.905   2.624 -0.6130 -0.5047 -0.5613
  985TIP3    H1 2877   4.703   4.945   2.693 -1.5992 -1.0244  0.4992
  985TIP3    H2 2878   4.583   4.970   2.605 -1.6738 -1.2680  0.5307
  986TIP3   OH2 2879   3.430   5.355   2.641 -0.5410 -0.0846 -0.6816
  986TIP3    H1 2880   3.460   5.429   2.693  0.0861 -0.6033 -0.2984
  986TIP3    H2 2881   3.341   5.378   2.615 -0.9827  0.0148  0.9189
  987TIP3   OH2 2882   1.049   5.305   0.431 -0.1896  0.0430  0.0513
  987TIP3    H1 2883   1.123   5.274   0.483  1.2299  2.0814 -0.6902
  987TIP3    H2 2884   1.030   5.391   0.467 -1.4609  0.0111 -0.5446
  988TIP3   OH2 2885   2.261   5.103   1.518 -0.2049 -0.1013  0.6977
  988TIP3    H1 2886   2.262   5.011   1.544 -0.8906 -0.8440 -1.7622
  988TIP3    H2 2887   2.295   5.103   1.428  1.9730  2.3345  1.4616
  989TIP3   OH2 2888   3.051   3.952   2.270  0.4951  0.1915  0.2673
  989TIP3    H1 2889   3.083   4.040   2.251  0.1586 -0.0808 -1.6767
  989TIP3    H2 2890   2.957   3.956   2.251  0.2742 -0.3081  1.2118
  990TIP3   OH2 2891   2.823   2.592   0.568 -0.4214 -0.5902  0.0731
  990TIP3    H1 2892   2.851   2.522   0.510 -0.0319 -0.9252  0.6653
  990TIP3    H2 2893   2.786   2.659   0.509 -1.5000 -1.6112 -0.4251
  991TIP3   OH2 2894   4.211   1.786   1.266 -0.1474 -0.0597  0.1920
  991TIP3    H1 2895   4.232   1.835   1.186  0.2352  0.6609  0.7267
  991TIP3    H2 2896   4.241   1.843   1.337 -0.2531 -0.8138  0.8412
  992TIP3   OH2 2897   5.828   0.493   0.419 -0.2321  0.1994 -0.3353
  992TIP3    H1 2898   5.765   0.540   0.364  1.3069  1.9688 -0.6381
  992TIP3    H2 2899   5.910   0.494   0.368 -0.0171 -2.3970 -0.1182
  993TIP3   OH2 2900   1.860   0.625   0.187 -0.6611  0.3863  0.3942
  993TIP3    H1 2901   1.850   0.530   0.194 -0.8112  0.2385 -1.5982
  993TIP3    H2 2902   1.776   0.660   0.218 -0.4138 -0.0892  1.6390
  994TIP3   OH2 2903   6.152   5.809   6.537  0.4864 -0.8320 -0.1644
  994TIP3    H1 2904   6.247   5.822   6.534  0.5919 -1.2669  0.8378
  994TIP3    H2 2905   6.120   5.843   6.454  1.2032  1.9090  0.6544
  995TIP3   OH2 2906   2.883   3.673   0.390 -0.2537 -0.1460  0.2545
  995TIP3    H1 2907   2.882   3.738   0.321  0.3242 -1.9997 -1.5410
  995TIP3    H2 2908   2.823   3.604   0.360  0.5422 -1.3097  1.2568
  996TIP3   OH2 2909   4.414   0.674   0.138 -0.4256 -0.2232  0.1128
  996TIP3    H1 2910   4.450   0.739   0.200 -0.2627 -1.4465  1.3238
  996TIP3    H2 2911   4.384   0.726   0.064  0.2460  1.1957  0.8123
  997TIP3   OH2 2912   3.207   3.345   2.166 -0.0258 -0.4919  0.2311
  997TIP3    H1 2913   3.152   3.372   2.093 -1.5966 -1.7437  0.9252
  997TIP3    H2 2914   3.155   3.364   2.244  0.3156 -2.1453  0.8774
  998TIP3   OH2 2915   2.356   1.152   0.817 -0.1954 -1.0587  0.5644
  998TIP3    H1 2916   2.270   1.193   0.824 -0.2860 -1.1123 -0.2164
  998TIP3    H2 2917   2.418   1.226   0.821 -0.2675 -1.0486  1.4192
  999TIP3   OH2 2918   1.869   4.396   0.998  0.0635 -0.4373 -0.5318
  999TIP3    H1 2919   1.928   4.464   0.967  2.2083 -1.6798  0.7085
  999TIP3    H2 2920   1.864   4.333   0.926 -0.9679  0.4092 -1.2147
 1000TIP3   OH2 2921   3.891   3.936   1.509  0.0486  0.1675 -0.1902
 1000TIP3    H1 2922   3.922   4.026   1.521  0.9049 -0.2472  0.8642
 1000TIP3    H2 2923   3.803   3.935   1.546  0.7123  0.1541  1.4071
 1001TIP3   OH2 2924   3.113   2.858   1.570 -0.1369  0.2180  0.0074
 1001TIP3    H1 2925   3.136   2.786   1.511 -2.7080  1.2659 -2.3924
 1001TIP3    H2 2926   3.143   2.937   1.525  0.9783  0.8200  1.7482
 1002TIP3   OH2 2927   2.345   2.649   1.883 -0.4153  0.1080  0.0037
 1002TIP3    H1 2928   2.313   2.584   1.946  1.1855 -0.4848  0.2386
 1002TIP3    H2 2929   2.308   2.622   1.799  1.6573 -2.1862 -0.2282
 1003TIP3   OH2 2930   5.740   8.096   6.975  0.7512 -0.1473 -0.9738
 1003TIP3    H1 2931   5.652   8.107   7.011  0.9392 -1.1755 -0.1949
 1003TIP3    H2 2932   5.796   8.147   7.034  0.5873  1.2378 -1.9702
 1004TIP3   OH2 2933   3.806   2.709   2.905 -0.1508 -0.5251  0.8110
 1004TIP3    H1 2934   3.856   2.747   2.832 -1.2700 -0.0362  0.2899
 1004TIP3    H2 2935   3.851   2.740   2.983 -0.2870  0.8373  0.3658
 1005TIP3   OH2 2936   4.160   4.863   2.429  0.2283  0.0112  0.6334
 1005TIP3    H1 2937   4.173   4.859   2.524  1.3346  0.7347  0.5188
 1005TIP3    H2 2938   4.092   4.798   2.412 -0.5344  0.4161  2.0235
 1006TIP3   OH2 2939   7.098   3.792   1.302  0.4244 -0.1889  0.2223
 1006TIP3    H1 2940   7.069   3.883   1.294  1.6687  0.1379 -0.7423
 1006TIP3    H2 2941   7.050   3.746   1.234  0.4195 -0.1006  0.1651
 1007TIP3   OH2 2942   5.943   5.131   0.426 -0.2024  0.2017 -0.7317
 1007TIP3    H1 2943   5.934   5.136   0.521 -2.8674  0.2389 -0.9401
 1007TIP3    H2 2944   6.031   5.164   0.408  0.7027 -0.7636  1.7847
 1008TIP3   OH2 2945   3.808   1.277   0.012 -0.4912 -0.2142 -0.2654
 1008TIP3    H1 2946   3.846   1.328  -0.060  0.0832 -0.6509 -0.2779
 1008TIP3    H2 2947   3.820   1.333   0.089  0.2448 -0.3717 -0.2603
 1009TIP3   OH2 2948   2.787   1.090   5.825 -0.4504 -0.7605 -0.2482
 1009TIP3    H1 2949   2.706   1.130   5.793 -0.5357  0.9565  2.0468
 1009TIP3    H2 2950   2.853   1.114   5.759 -1.2174  0.2017 -0.6765
 1010TIP3   OH2 2951   6.427   7.886   7.153  0.0670  0.7994 -0.2113
 1010TIP3    H1 2952   6.444   7.954   7.088  1.2210 -0.1530 -0.9038
 1010TIP3    H2 2953   6.341   7.851   7.128  1.2900 -0.8013 -2.3380
 1011TIP3   OH2 2954   3.607   5.306   0.046 -0.1571  0.3658 -0.3355
 1011TIP3    H1 2955   3.522   5.347   0.029 -0.3339 -0.1722 -0.7594
 1011TIP3    H2 2956   3.671   5.376   0.033 -0.5620  0.8639  0.3353
 1012TIP3   OH2 2957   4.067   2.311   0.628  0.2973  0.1316  0.0427
 1012TIP3    H1 2958   4.033   2.234   0.582  3.4785 -1.0884 -0.3867
 1012TIP3    H2 2959   4.158   2.289   0.648  1.1350  3.5906  0.3923
 1013TIP3   OH2 2960   3.511   4.875   1.343  0.0639  0.0698  0.2215
 1013TIP3    H1 2961   3.524   4.801   1.402 -0.1118  0.9535  1.3983
 1013TIP3    H2 2962   3.436   4.850   1.289  0.4217 -0.8810  0.1618
 1014TIP3   OH2 2963   3.571   1.111   6.315 -0.4109 -0.5482  0.0463
 1014TIP3    H1 2964   3.616   1.195   6.319 -0.8523 -0.1817 -2.1469
 1014TIP3    H2 2965   3.594   1.067   6.397  3.2430 -0.0373 -0.6413
 1015TIP3   OH2 2966   8.339   2.919   0.043 -0.0510  0.2884 -0.0858
 1015TIP3    H1 2967   8.245   2.910   0.027  0.2278  0.4824 -1.9617
 1015TIP3    H2 2968   8.380   2.906  -0.043  1.5657  1.2241  0.5090
 1016TIP3   OH2 2969   7.125   2.425   0.312 -0.1634 -0.1393  0.0354
 1016TIP3    H1 2970   7.132   2.517   0.336 -0.0356  0.1465 -1.0711
 1016TIP3    H2 2971   7.031   2.409   0.303 -0.1504  0.0989 -0.5624
 1017TIP3   OH2 2972   3.816   3.754   1.159  0.0964  0.5963  0.1257
 1017TIP3    H1 2973   3.794   3.810   1.234 -1.0351  0.0965  0.1852
 1017TIP3    H2 2974   3.731   3.730   1.122  0.6727  1.8450 -2.0720
 1018TIP3   OH2 2975   5.445   3.045   2.378 -0.0969 -0.8586  0.0971
 1018TIP3    H1 2976   5.420   2.978   2.441 -1.1996 -1.3813 -0.8738
 1018TIP3    H2 2977   5.540   3.048   2.383 -0.1379 -1.3472  1.3239
 1019TIP3   OH2 2978   6.039   2.756   2.162  0.4167 -0.4358  0.0150
 1019TIP3    H1 2979   5.991   2.806   2.227  1.5219 -0.0895  0.5833
 1019TIP3    H2 2980   6.108   2.815   2.131 -1.0621 -0.0436 -2.6488
 1020TIP3   OH2 2981   3.196   2.943   0.320  0.5378 -0.3426 -0.1269
 1020TIP3    H1 2982   3.239   3.013   0.369 -0.4104 -0.3189  0.7016
 1020TIP3    H2 2983   3.169   2.880   0.387 -1.7787  0.2347 -0.4800
 1021TIP3   OH2 2984   8.018   5.677   0.648  0.1486 -0.1808  0.3062
 1021TIP3    H1 2985   8.086   5.745   0.646 -0.2651  0.2160 -0.6847
 1021TIP3    H2 2986   8.064   5.596   0.625  0.3606  0.0184  0.0238
 1022TIP3   OH2 2987   4.668   3.671   1.070 -0.3977 -0.1559 -0.3196
 1022TIP3    H1 2988   4.605   3.742   1.076  0.3573  0.3611  2.1021
 1022TIP3    H2 2989   4.621   3.601   1.025 -1.4830  1.4840 -1.7868
 1023TIP3   OH2 2990   5.859   2.417   1.151 -0.1045 -0.4951  0.2423
 1023TIP3    H1 2991   5.937   2.395   1.201 -1.0700 -0.1586  1.9263
 1023TIP3    H2 2992   5.880   2.501   1.110  0.2366 -0.1659  1.0888
 1024TIP3   OH2 2993   4.186   1.905   0.455  0.1511  0.0809  0.5003
 1024TIP3    H1 2994   4.159   1.827   0.504 -0.1828  0.3639  0.7698
 1024TIP3    H2 2995   4.199   1.874   0.366 -1.3798 -0.0031  0.2950
 1025TIP3   OH2 2996   2.808   5.140   0.839  0.3347  0.4643  0.8651
 1025TIP3    H1 2997   2.871   5.071   0.817  1.0976  0.7684  2.0331
 1025TIP3    H2 2998   2.744   5.097   0.896  0.5816  0.6156  1.2608
 1026TIP3   OH2 2999   3.969   5.897   1.623  0.1947  0.5303 -0.0757
 1026TIP3    H1 3000   4.008   5.856   1.546 -0.1135 -1.5118  0.8230
 1026TIP3    H2 3001   4.034   5.886   1.692 -0.5929  0.0556  0.5986
 1027TIP3   OH2 3002   3.741   4.000   0.562 -0.7004  0.1074  0.3226
 1027TIP3    H1 3003   3.822   3.955   0.537 -0.1009  0.7059  1.1648
 1027TIP3    H2 3004   3.719   3.964   0.649 -1.1970  0.1468  0.2188
 1028TIP3   OH2 3005   5.213   2.769   1.388 -0.1413 -0.2273  0.4101
 1028TIP3    H1 3006   5.241   2.686   1.427 -0.3607 -0.5659 -0.1344
 1028TIP3    H2 3007   5.190   2.825   1.462  0.6590 -0.4189  0.8059
 1029TIP3   OH2 3008   4.986   4.831   2.023  0.2637  0.0526 -0.1735
 1029TIP3    H1 3009   4.924   4.784   1.968 -0.8484  0.7489  0.4588
 1029TIP3    H2 3010   5.042   4.763   2.060  0.2516 -0.5280 -1.2008
 1030TIP3   OH2 3011   6.390   5.509   7.166 -0.1716 -0.0222 -0.2702
 1030TIP3    H1 3012   6.429   5.428   7.199 -0.2369  0.4225  0.9261
 1030TIP3    H2 3013   6.463   5.554   7.123 -0.3804 -1.1913 -1.8764
 1031TIP3   OH2 3014   4.645   5.067   1.399  0.0777  0.3383 -0.2845
 1031TIP3    H1 3015   4.620   5.017   1.477  0.4699 -0.5135 -0.6897
 1031TIP3    H2 3016   4.642   5.003   1.328 -2.9260  1.7088 -1.4570
 1032TIP3   OH2 3017   6.428   3.110   0.994 -0.0419 -0.1173 -0.4806
 1032TIP3    H1 3018   6.425   3.188   1.050 -0.3150  0.7569 -1.6833
 1032TIP3    H2 3019   6.342   3.071   1.003 -0.2023  0.2148 -0.5510
 1033TIP3   OH2 3020   7.437   2.863   1.020  0.8335 -0.2590 -0.0649
 1033TIP3    H1 3021   7.364   2.828   1.070  0.5294  0.0833 -0.2638
 1033TIP3    H2 3022   7.470   2.789   0.969  2.1216 -0.9908  1.7843
 1034TIP3   OH2 3023   5.253   2.533   0.689 -0.0470  0.0681 -0.4504
 1034TIP3    H1 3024   5.296   2.488   0.762 -2.0543 -1.2252 -0.0419
 1034TIP3    H2 3025   5.305   2.508   0.612  2.8090  2.3820  0.5941
 1035TIP3   OH2 3026   4.340   4.299   1.203  0.2575  0.5249  0.1959
 1035TIP3    H1 3027   4.284   4.337   1.135  0.0314  2.3932  1.4130
 1035TIP3    H2 3028   4.429   4.320   1.175  0.3693 -1.8392 -1.3726
 1036TIP3   OH2 3029   3.525   5.539   0.434  0.2516 -0.1163 -0.2738
 1036TIP3    H1 3030   3.476   5.606   0.482  1.9813  0.0894  1.2337
 1036TIP3    H2 3031   3.579   5.588   0.372  0.2964 -0.2312 -0.3267
 1037TIP3   OH2 3032   4.705   5.617   1.248  1.0396 -0.0096  0.3062
 1037TIP3    H1 3033   4.740   5.646   1.332  2.2222 -0.8267  0.1055
 1037TIP3    H2 3034   4.706   5.521   1.253  0.7130 -0.0608 -0.4687
 1038TIP3   OH2 3035   4.845   5.739   2.143 -0.2396  0.2618 -0.0440
 1038TIP3    H1 3036   4.837   5.769   2.234 -0.0175 -1.2059  0.4658
 1038TIP3    H2 3037   4.819   5.647   2.146  3.0146 -0.7524 -0.8381
 1039TIP3   OH2 3038   4.028   3.325   1.407 -1.0419 -0.6031 -0.8305
 1039TIP3    H1 3039   4.025   3.321   1.503 -1.1410 -0.4199 -0.8283
 1039TIP3    H2 3040   4.106   3.273   1.384 -0.9384 -0.5320 -0.6435
 1040TIP3   OH2 3041   3.664   4.072   1.626  0.0865  0.3068 -0.3737
 1040TIP3    H1 3042   3.653   4.118   1.543  1.3224  0.4486 -0.4759
 1040TIP3    H2 3043   3.580   4.029   1.642  0.0311 -0.2161 -1.9990
 1041TIP3   OH2 3044   0.705   0.364   6.924  0.1282 -0.3073  0.0087
 1041TIP3    H1 3045   0.781   0.319   6.886  0.7630 -0.7441  1.7441
 1041TIP3    H2 3046   0.743   0.422   6.990 -0.7793  1.8955 -1.3474
 1042TIP3   OH2 3047   4.006   3.668   1.005 -0.1210  0.3543  0.1682
 1042TIP3    H1 3048   4.030   3.578   1.028  1.0253  0.9239  1.2591
 1042TIP3    H2 3049   3.930   3.688   1.059  1.6547  1.1701  2.4419
 1043TIP3   OH2 3050   3.548   3.793   0.985  0.0844 -0.1447  0.1392
 1043TIP3    H1 3051   3.484   3.860   1.009 -1.1869 -1.0657 -0.6385
 1043TIP3    H2 3052   3.495   3.719   0.954  1.5115 -1.0320 -0.2118
 1044TIP3   OH2 3053   7.581   3.462   1.523 -0.0195 -0.0894 -0.3544
 1044TIP3    H1 3054   7.598   3.520   1.449  0.3370  0.5652  0.2341
 1044TIP3    H2 3055   7.637   3.495   1.593 -1.2501  0.0404  0.5826
 1045TIP3   OH2 3056   6.458   2.673   2.719 -0.1258 -0.3202  0.1785
 1045TIP3    H1 3057   6.439   2.667   2.625 -0.7967 -1.1181  0.3518
 1045TIP3    H2 3058   6.414   2.753   2.747 -0.5771 -0.4821 -0.0516
 1046TIP3   OH2 3059   5.671   7.272   0.966  0.2197  0.4272 -0.2403
 1046TIP3    H1 3060   5.634   7.228   0.890 -0.3803 -0.3659  0.5006
 1046TIP3    H2 3061   5.596   7.292   1.021  0.8496 -1.1445  1.2569
 1047TIP3   OH2 3062   6.307   3.728   1.895 -0.9390 -0.3180  0.2833
 1047TIP3    H1 3063   6.317   3.669   1.969  0.5220 -0.6540 -0.1624
 1047TIP3    H2 3064   6.344   3.811   1.925 -1.2643 -0.1638  0.2637
 1048TIP3   OH2 3065   3.396   5.409   1.060  0.2347  0.7025  0.3843
 1048TIP3    H1 3066   3.472   5.421   1.117  2.4043  0.3031 -2.2785
 1048TIP3    H2 3067   3.410   5.472   0.989 -2.7966  1.7332  0.6672
 1049TIP3   OH2 3068   3.248   2.344   1.490 -0.2568 -0.0747 -0.7086
 1049TIP3    H1 3069   3.216   2.430   1.462 -2.0418 -0.2768  0.6226
 1049TIP3    H2 3070   3.313   2.364   1.557 -2.7039  0.2250  1.6531
 1050TIP3   OH2 3071   5.216   2.399   2.399 -0.2770 -0.5788  0.9254
 1050TIP3    H1 3072   5.170   2.402   2.483 -0.3477 -0.5149  0.8844
 1050TIP3    H2 3073   5.260   2.314   2.399 -1.1793 -1.0593  0.5588
 1051TIP3   OH2 3074   5.858   2.385   1.621  0.0431 -0.0943 -0.6250
 1051TIP3    H1 3075   5.890   2.299   1.649  0.7648  1.0494  2.2143
 1051TIP3    H2 3076   5.779   2.400   1.673 -0.1866  0.8803 -1.2418
 1052TIP3   OH2 3077   3.004   3.358   0.535  0.2627  0.6506 -0.1011
 1052TIP3    H1 3078   3.038   3.294   0.598  0.9924  0.3483 -0.7926
 1052TIP3    H2 3079   3.040   3.442   0.563 -1.6334  0.9566  1.4947
 1053TIP3   OH2 3080   4.906   4.461   1.277 -0.1714 -0.3930  0.2864
 1053TIP3    H1 3081   4.994   4.490   1.250 -0.1733  0.6328  1.3810
 1053TIP3    H2 3082   4.884   4.392   1.214  0.4861  0.8853 -1.3847
 1054TIP3   OH2 3083   5.990   7.353   7.104  0.6462 -0.1427  0.1722
 1054TIP3    H1 3084   6.048   7.429   7.112  2.3634 -1.3300 -0.6238
 1054TIP3    H2 3085   5.974   7.325   7.194 -0.4284  1.4417  0.5052
 1055TIP3   OH2 3086   3.890   4.032   0.982  0.2891  0.0214 -0.4166
 1055TIP3    H1 3087   3.908   4.000   1.071  0.2134  0.1863 -0.3411
 1055TIP3    H2 3088   3.909   4.126   0.986 -1.6322  0.4224 -0.0363
 1056TIP3   OH2 3089   5.807   2.865   2.407 -0.2383  0.0119 -0.5864
 1056TIP3    H1 3090   5.829   2.948   2.364 -0.6898 -0.8540 -2.5349
 1056TIP3    H2 3091   5.711   2.863   2.407 -0.2470 -0.0718  0.3636
 1057TIP3   OH2 3092   3.326   4.224   1.199 -0.0221  0.0335  0.3475
 1057TIP3    H1 3093   3.278   4.202   1.280 -2.5315 -1.9478 -1.5820
 1057TIP3    H2 3094   3.263   4.272   1.147  0.8333 -0.6587 -1.3541
 1058TIP3   OH2 3095   6.531   4.503   2.396  0.1169 -0.1802  0.4079
 1058TIP3    H1 3096   6.455   4.553   2.368  1.0055  0.3431 -1.0969
 1058TIP3    H2 3097   6.575   4.560   2.459  0.1327  0.1561  0.0895
 1059TIP3   OH2 3098   3.609   1.957   1.323  0.0785 -0.7028  0.3219
 1059TIP3    H1 3099   3.591   2.050   1.340  2.6254 -0.2740  0.8426
 1059TIP3    H2 3100   3.564   1.940   1.240  0.4369  1.2835 -0.3251
 1060TIP3   OH2 3101   6.868   2.247   0.074 -0.4069 -0.0268  0.3176
 1060TIP3    H1 3102   6.841   2.218  -0.013  1.1170 -0.9936  0.1550
 1060TIP3    H2 3103   6.963   2.252   0.070 -0.4059  1.2294  1.5338
 1061TIP3   OH2 3104   1.852   3.691   0.204 -0.0295 -0.0903  0.0817
 1061TIP3    H1 3105   1.937   3.647   0.201 -0.2863 -0.6532  0.8123
 1061TIP3    H2 3106   1.791   3.626   0.168 -0.2858 -0.0056  0.3660
 1062TIP3   OH2 3107   5.099   4.625   0.824 -0.0654  0.3065  0.5174
 1062TIP3    H1 3108   5.037   4.575   0.876 -0.2792  0.6068  0.5551
 1062TIP3    H2 3109   5.154   4.670   0.889  0.3776 -0.1846  0.4852
 1063TIP3   OH2 3110   3.447   2.610   2.372 -0.5962  0.6553 -0.1356
 1063TIP3    H1 3111   3.418   2.519   2.385  0.7752  0.0586 -1.1254
 1063TIP3    H2 3112   3.542   2.605   2.373 -0.5152  2.1972  0.4128
 1064TIP3   OH2 3113   1.037   0.344   6.976  0.6284 -0.7309 -0.2197
 1064TIP3    H1 3114   1.059   0.290   6.901 -1.8528  0.9433 -2.2261
 1064TIP3    H2 3115   1.090   0.423   6.965 -0.5935  0.0175 -0.9002
 1065TIP3   OH2 3116   3.830   3.792   1.753  0.1174  0.2488 -0.2677
 1065TIP3    H1 3117   3.762   3.727   1.735 -0.2979  0.7049 -0.3571
 1065TIP3    H2 3118   3.886   3.791   1.676  0.6893 -0.7075  0.1411
 1066TIP3   OH2 3119   4.486   1.928   1.531  0.0546  0.1962  0.6466
 1066TIP3    H1 3120   4.550   1.864   1.500 -0.8736 -0.1279 -0.6161
 1066TIP3    H2 3121   4.469   1.902   1.622  0.8651 -0.3807  0.6451
 1067TIP3   OH2 3122   4.096   3.650   1.336  0.3602  0.3314  0.3181
 1067TIP3    H1 3123   4.128   3.740   1.325 -0.2710  0.5780  0.5105
 1067TIP3    H2 3124   4.158   3.596   1.286 -0.3971  1.0633 -1.4389
 1068TIP3   OH2 3125   7.655   3.748   0.626  0.2066 -0.0148  0.1956
 1068TIP3    H1 3126   7.649   3.702   0.710  0.4467  0.5871  0.5470
 1068TIP3    H2 3127   7.575   3.724   0.580  0.0082 -0.2409  0.6548
 1069TIP3   OH2 3128   3.728   1.719   1.700 -0.6286 -0.5767 -0.0165
 1069TIP3    H1 3129   3.743   1.717   1.605 -0.9487  0.8288 -0.1034
 1069TIP3    H2 3130   3.809   1.683   1.737 -1.7382 -4.1366 -0.9113
 1070TIP3   OH2 3131   6.168   2.433   1.577 -0.1784 -0.4814  0.3006
 1070TIP3    H1 3132   6.174   2.452   1.484 -1.0360  0.4594  0.4323
 1070TIP3    H2 3133   6.074   2.438   1.596  0.2010  1.6629  1.7074
 1071TIP3   OH2 3134   2.224   3.211   0.706  0.0803  0.4075  0.4294
 1071TIP3    H1 3135   2.185   3.149   0.645 -1.5890  0.1029  1.7714
 1071TIP3    H2 3136   2.304   3.167   0.737 -0.5990 -0.6871  0.6691
 1072TIP3   OH2 3137   7.903   3.892   0.373 -0.2452  0.1996 -0.0949
 1072TIP3    H1 3138   7.920   3.811   0.326 -0.8408  0.7316 -1.2427
 1072TIP3    H2 3139   7.808   3.898   0.376 -0.2286  2.1737 -2.3495
 1073TIP3   OH2 3140   3.987   3.988   0.408  0.1684  0.0460  0.0660
 1073TIP3    H1 3141   4.061   3.942   0.448  0.5503 -0.7212 -1.4936
 1073TIP3    H2 3142   4.018   4.012   0.321 -1.1848  0.3334 -0.3415
 1074TIP3   OH2 3143   5.614   3.289   2.536  0.1471 -0.2126  0.0595
 1074TIP3    H1 3144   5.578   3.374   2.561 -0.9399 -0.6316 -0.0519
 1074TIP3    H2 3145   5.676   3.268   2.605 -1.8340 -0.7324  1.7501
 1075TIP3   OH2 3146   5.116   3.734   1.949  0.4947 -0.2669  0.1856
 1075TIP3    H1 3147   5.093   3.697   1.863  0.2472 -1.0250  0.5781
 1075TIP3    H2 3148   5.056   3.692   2.010  0.7923  0.1447  0.7590
 1076TIP3   OH2 3149   2.244   1.655   7.194 -0.2545 -0.2079 -0.2062
 1076TIP3    H1 3150   2.160   1.619   7.167 -0.1661 -0.3210 -0.3342
 1076TIP3    H2 3151   2.228   1.748   7.207 -0.3505 -0.1946 -0.4228
 1077TIP3   OH2 3152   4.452   2.818   1.147  0.0004  0.2914 -0.2561
 1077TIP3    H1 3153   4.531   2.834   1.096 -0.0213  0.1919 -0.3203
 1077TIP3    H2 3154   4.470   2.859   1.232  0.4759 -0.5013  0.0329
 1078TIP3   OH2 3155   3.265   1.516   6.848  0.2764 -0.5290  0.0971
 1078TIP3    H1 3156   3.238   1.450   6.784 -1.5061 -1.2286  1.5219
 1078TIP3    H2 3157   3.353   1.489   6.874  2.0018  1.0926 -3.7246
 1079TIP3   OH2 3158   6.029   4.056   2.355 -0.4341  0.5423 -0.4232
 1079TIP3    H1 3159   6.038   3.992   2.284  0.4050  0.4538 -0.2449
 1079TIP3    H2 3160   6.024   4.140   2.310  0.8309  0.5550 -0.5813
 1080TIP3   OH2 3161   7.848   2.087   0.718  0.3930 -0.0572  0.2320
 1080TIP3    H1 3162   7.899   2.151   0.767 -0.2242  1.5840 -1.1985
 1080TIP3    H2 3163   7.904   2.063   0.644  0.5472 -1.0586  0.6594
 1081TIP3   OH2 3164   2.229   7.986   6.532 -0.3639 -0.1101  0.7274
 1081TIP3    H1 3165   2.293   7.996   6.461 -0.6671 -0.4938  0.3970
 1081TIP3    H2 3166   2.281   7.989   6.612  0.3565 -2.6327  0.3936
 1082TIP3   OH2 3167   4.479   3.163   0.122 -0.3634 -0.0391 -0.4449
 1082TIP3    H1 3168   4.572   3.163   0.144 -0.2337 -0.3259 -0.9674
 1082TIP3    H2 3169   4.449   3.074   0.140 -0.9013  0.4504  1.1672
 1083TIP3   OH2 3170   4.890   0.506   0.762  0.1560  0.0343 -0.0337
 1083TIP3    H1 3171   4.882   0.602   0.758 -0.2326 -0.0474 -1.1663
 1083TIP3    H2 3172   4.801   0.475   0.776  0.2296 -0.1918 -0.0656
 1084TIP3   OH2 3173   1.766   2.767   6.968 -0.5444  0.3096 -0.3067
 1084TIP3    H1 3174   1.861   2.771   6.957 -0.4472 -0.7513  0.1075
 1084TIP3    H2 3175   1.753   2.711   7.045 -1.5567 -0.6099 -1.1320
 1085TIP3   OH2 3176   4.601   3.214   1.338  0.1523 -0.0649  0.4700
 1085TIP3    H1 3177   4.686   3.174   1.318  0.5369  0.9403  0.0938
 1085TIP3    H2 3178   4.567   3.163   1.412 -0.8940 -3.2793 -2.1036
 1086TIP3   OH2 3179   4.381   4.843   0.860  0.3161 -0.3186  0.1920
 1086TIP3    H1 3180   4.319   4.879   0.796  1.2095 -0.4366 -0.7370
 1086TIP3    H2 3181   4.462   4.892   0.845  0.8825 -1.1728  0.4301
 1087TIP3   OH2 3182   4.432   4.547   0.802  0.1582 -0.2479  0.1520
 1087TIP3    H1 3183   4.390   4.615   0.750  1.1545  0.4714  0.2600
 1087TIP3    H2 3184   4.519   4.538   0.764  1.2164  0.9072  2.2024
 1088TIP3   OH2 3185   5.717   4.995   0.857 -0.8272 -0.1907  0.1803
 1088TIP3    H1 3186   5.692   5.080   0.894  0.3927 -0.1164  0.8483
 1088TIP3    H2 3187   5.668   4.989   0.775 -1.5727  0.7856  0.5484
 1089TIP3   OH2 3188   4.487   2.736   0.865  0.4838  0.2956  0.4071
 1089TIP3    H1 3189   4.472   2.830   0.873 -1.7298  0.0036  0.1089
 1089TIP3    H2 3190   4.425   2.696   0.926 -1.0783 -1.0750 -1.9562
 1090TIP3   OH2 3191   1.323   1.960   6.507  0.7888 -0.3405 -0.1765
 1090TIP3    H1 3192   1.356   2.020   6.440  1.7731 -0.9312 -0.2277
 1090TIP3    H2 3193   1.378   1.977   6.583 -0.3524  0.3519  0.5051
 1091TIP3   OH2 3194   4.516   3.471   0.960 -0.3295 -0.1408  0.1506
 1091TIP3    H1 3195   4.479   3.394   0.916 -0.6368 -0.0151  0.1822
 1091TIP3    H2 3196   4.439   3.522   0.984 -0.1791 -0.4081  1.1969
 1092TIP3   OH2 3197   5.538   1.842   1.837  0.0588 -0.2368 -0.5786
 1092TIP3    H1 3198   5.514   1.904   1.906  0.6878  0.8049 -1.2872
 1092TIP3    H2 3199   5.468   1.851   1.772  1.1915  1.2213 -1.6286
 1093TIP3   OH2 3200   6.438   5.637   5.838  0.3553 -0.4395 -0.1841
 1093TIP3    H1 3201   6.478   5.607   5.920  2.3191 -0.7032 -1.2026
 1093TIP3    H2 3202   6.493   5.599   5.769 -0.0794  1.3971 -1.5947
 1094TIP3   OH2 3203   6.840   2.434   0.289 -0.3633 -0.4401 -0.4995
 1094TIP3    H1 3204   6.765   2.470   0.337  0.5314  0.5166  0.1960
 1094TIP3    H2 3205   6.801   2.388   0.215 -1.5800  1.1435 -0.8686
 1095TIP3   OH2 3206   7.236   2.719   1.126 -0.1514 -0.1006 -0.3671
 1095TIP3    H1 3207   7.249   2.625   1.133 -2.4684 -0.6044 -2.2283
 1095TIP3    H2 3208   7.197   2.745   1.209 -0.9293 -1.0502 -0.4358
 1096TIP3   OH2 3209   5.960   1.936   1.060 -0.4061  0.4137 -0.3581
 1096TIP3    H1 3210   5.883   1.884   1.039 -1.2735  0.5559  2.3561
 1096TIP3    H2 3211   5.959   2.008   0.997 -1.0496 -0.9798 -1.9759
 1097TIP3   OH2 3212   3.245   1.930   2.295 -0.4054 -0.4628 -0.1283
 1097TIP3    H1 3213   3.257   1.905   2.387 -0.5672  1.6369  0.4954
 1097TIP3    H2 3214   3.235   1.847   2.249  1.9432 -1.6896  1.4204
 1098TIP3   OH2 3215   6.471   3.948   1.998  0.1192  0.7181  0.4243
 1098TIP3    H1 3216   6.515   3.864   1.987 -0.1996  0.3565  1.7958
 1098TIP3    H2 3217   6.502   3.981   2.082 -1.0097  1.2027  0.6624
 1099TIP3   OH2 3218   5.637   2.033   1.106  0.0017 -0.0274  0.1874
 1099TIP3    H1 3219   5.567   2.027   1.041 -3.0856  1.2500  3.2550
 1099TIP3    H2 3220   5.640   1.947   1.148 -1.3458  0.5963  1.6060
 1100TIP3   OH2 3221   1.880   2.798   1.814  0.3790 -1.0503 -0.4924
 1100TIP3    H1 3222   1.837   2.871   1.769 -1.7743 -1.1253  1.3985
 1100TIP3    H2 3223   1.904   2.833   1.900  0.2189 -2.2696  0.0630
 1101TIP3   OH2 3224   2.919   0.124   4.115 -0.2688 -0.7567  0.1528
 1101TIP3    H1 3225   2.888   0.207   4.149 -1.1441 -0.9284 -0.2244
 1101TIP3    H2 3226   3.014   0.127   4.127 -0.1785  0.7437 -0.8600
 1102TIP3   OH2 3227   4.040   1.672   0.579  0.4453 -0.1140 -0.3695
 1102TIP3    H1 3228   4.068   1.610   0.646 -2.4573 -0.0959  0.9216
 1102TIP3    H2 3229   3.991   1.739   0.626 -2.6615 -0.7164 -2.5868
 1103TIP3   OH2 3230   4.574   4.454   1.146  0.4688 -0.5053 -0.5922
 1103TIP3    H1 3231   4.631   4.378   1.153 -0.1266 -1.0136 -1.2429
 1103TIP3    H2 3232   4.588   4.501   1.229  1.4108 -0.9067 -0.5112
 1104TIP3   OH2 3233   3.559   2.195   2.921  0.0643  0.2789 -0.3975
 1104TIP3    H1 3234   3.549   2.289   2.939 -2.5937 -0.0444 -0.0666
 1104TIP3    H2 3235   3.490   2.175   2.858  0.0911 -1.6262  0.1555
 1105TIP3   OH2 3236   6.507   1.446   1.345  0.0381  0.3909 -0.8892
 1105TIP3    H1 3237   6.506   1.535   1.381 -0.5726  0.3100 -0.6972
 1105TIP3    H2 3238   6.552   1.394   1.412  0.2330  0.5224 -0.9185
 1106TIP3   OH2 3239   6.527   4.166   1.800 -0.5434  0.2375 -0.0677
 1106TIP3    H1 3240   6.533   4.127   1.713 -0.1452 -0.2728  0.1837
 1106TIP3    H2 3241   6.523   4.091   1.860  1.8671  0.5605  0.5416
 1107TIP3   OH2 3242   3.867   3.665   4.818 -0.3022 -0.4712 -0.1462
 1107TIP3    H1 3243   3.947   3.717   4.811 -1.1966  1.1618  1.3196
 1107TIP3    H2 3244   3.887   3.600   4.885 -0.6926  0.9064  1.3268
 1108TIP3   OH2 3245   5.405   2.424   0.908  0.8058  0.8036  0.0373
 1108TIP3    H1 3246   5.459   2.377   0.845 -1.9124 -2.9353  0.3402
 1108TIP3    H2 3247   5.448   2.410   0.993  0.0352 -1.1827  0.1186
 1109TIP3   OH2 3248   4.615   2.048   1.845  0.4122 -0.0791 -0.0212
 1109TIP3    H1 3249   4.667   1.991   1.788  0.8991 -0.2761  0.6005
 1109TIP3    H2 3250   4.641   2.137   1.821 -2.0814 -0.0008 -2.6195
 1110TIP3   OH2 3251   5.846   2.423   2.675 -0.2218  0.1519  0.1361
 1110TIP3    H1 3252   5.926   2.397   2.721 -1.4529 -2.3930  0.9402
 1110TIP3    H2 3253   5.866   2.412   2.582  1.5306  3.1032  0.1145
 1111TIP3   OH2 3254   5.219   5.227   1.431 -0.0382 -0.3332  0.0301
 1111TIP3    H1 3255   5.186   5.192   1.514 -1.6868  0.8422 -0.1080
 1111TIP3    H2 3256   5.158   5.193   1.365  1.1456 -1.0926 -0.6841
 1112TIP3   OH2 3257   6.546   2.124   1.286 -0.0370 -0.1524 -0.1055
 1112TIP3    H1 3258   6.463   2.090   1.317 -0.3294  1.4542  0.9703
 1112TIP3    H2 3259   6.523   2.202   1.235  0.7738  0.1497 -0.0268
 1113TIP3   OH2 3260   4.733   0.677   6.501 -0.0705  0.4110 -0.2215
 1113TIP3    H1 3261   4.657   0.710   6.549  1.2352  1.1267  1.4263
 1113TIP3    H2 3262   4.778   0.756   6.471  0.5156  0.0224 -0.3658
 1114TIP3   OH2 3263   2.242   0.801   5.239  0.0048 -0.2418  0.8549
 1114TIP3    H1 3264   2.277   0.725   5.191  1.8161  0.7036  0.6088
 1114TIP3    H2 3265   2.246   0.872   5.175 -0.8002  0.2623  1.3678
 1115TIP3   OH2 3266   6.860   1.298   1.380 -0.8051 -0.4515 -0.0016
 1115TIP3    H1 3267   6.902   1.212   1.367 -0.0157  0.0599 -0.9536
 1115TIP3    H2 3268   6.782   1.279   1.432  0.3840 -1.4888  1.4545
 1116TIP3   OH2 3269   5.132   4.194   1.304 -0.8759 -0.2968  0.0024
 1116TIP3    H1 3270   5.042   4.178   1.332 -1.1032  0.1891 -0.4510
 1116TIP3    H2 3271   5.134   4.165   1.213 -0.3952 -0.9430  0.2170
 1117TIP3   OH2 3272   7.029   4.072   1.779  0.8038  0.1301  0.0854
 1117TIP3    H1 3273   7.002   4.054   1.689  0.5662  0.8424  0.0070
 1117TIP3    H2 3274   7.113   4.028   1.789  0.5513 -0.4458 -0.2998
 1118TIP3   OH2 3275   2.771   4.596   1.199 -0.6094  0.1840 -0.1176
 1118TIP3    H1 3276   2.825   4.673   1.182  0.1162 -0.1974  0.4272
 1118TIP3    H2 3277   2.736   4.610   1.287 -0.6775  0.0125 -0.1164
 1119TIP3   OH2 3278   5.655   2.162   2.846  0.3247  0.0561 -0.7057
 1119TIP3    H1 3279   5.718   2.211   2.899  1.3702 -2.0255  0.0617
 1119TIP3    H2 3280   5.696   2.076   2.834 -1.6550 -0.7961 -1.5923
 1120TIP3   OH2 3281   3.874   2.087   0.863  0.6725  0.2669  0.2782
 1120TIP3    H1 3282   3.949   2.046   0.820  0.2717  1.4636 -1.6684
 1120TIP3    H2 3283   3.911   2.164   0.906  0.3474  1.8612 -2.1827
 1121TIP3   OH2 3284   7.208   4.201   1.381  0.2280  0.1412 -0.4420
 1121TIP3    H1 3285   7.231   4.291   1.358 -0.5506  0.5731  0.4057
 1121TIP3    H2 3286   7.277   4.173   1.441  1.4470 -0.4709 -2.0909
 1122TIP3   OH2 3287   3.907   2.787   0.543 -0.6618 -0.4855 -0.3510
 1122TIP3    H1 3288   3.968   2.792   0.469  0.5919 -0.5563  0.6696
 1122TIP3    H2 3289   3.928   2.704   0.586 -1.6646 -0.6390 -0.1393
 1123TIP3   OH2 3290   6.673   1.109   0.381 -0.1606  0.1341 -0.1052
 1123TIP3    H1 3291   6.644   1.019   0.397 -0.0467  0.1833  0.3645
 1123TIP3    H2 3292   6.665   1.119   0.286  0.4465 -0.5861 -0.2350
 1124TIP3   OH2 3293   6.039   1.520   3.737 -0.2237 -0.1434  0.1354
 1124TIP3    H1 3294   6.003   1.460   3.672  1.2762  0.5856 -1.4294
 1124TIP3    H2 3295   6.000   1.605   3.715 -0.4135 -0.0650  0.7673
 1125TIP3   OH2 3296   1.130   6.271   6.934 -0.3816  0.1081 -0.6629
 1125TIP3    H1 3297   1.065   6.326   6.977  0.7939  1.1571 -0.2154
 1125TIP3    H2 3298   1.168   6.327   6.866  0.3144 -0.3715 -0.6793
 1126TIP3   OH2 3299   4.721   4.366   2.398 -0.6483 -0.6436  0.1290
 1126TIP3    H1 3300   4.717   4.280   2.357  1.7441 -0.8886  0.3253
 1126TIP3    H2 3301   4.801   4.363   2.451  0.0079  2.0262 -0.6484
 1127TIP3   OH2 3302   6.595   8.352   6.851 -0.1480  0.3666  0.0351
 1127TIP3    H1 3303   6.689   8.367   6.842  0.6420 -3.9553 -0.0774
 1127TIP3    H2 3304   6.563   8.341   6.761 -0.4855  0.4260  0.1459
 1128TIP3   OH2 3305   3.571   4.136   2.446 -0.4960  0.1258  0.8866
 1128TIP3    H1 3306   3.507   4.096   2.387 -0.3194  1.1454 -0.0315
 1128TIP3    H2 3307   3.528   4.215   2.478 -0.0438  0.3271  0.9988
 1129TIP3   OH2 3308   0.756   0.827   6.703 -0.2606 -0.4907  0.1174
 1129TIP3    H1 3309   0.673   0.846   6.748 -0.8579 -1.1643 -0.6976
 1129TIP3    H2 3310   0.816   0.803   6.774 -1.1371 -1.3205  0.6013
 1130TIP3   OH2 3311   5.640   3.630   2.136 -0.2383  0.6370 -0.5897
 1130TIP3    H1 3312   5.590   3.693   2.188 -1.0416 -0.5895  0.1617
 1130TIP3    H2 3313   5.586   3.551   2.137  1.7129 -0.7360  0.2547
 1131TIP3   OH2 3314   5.863   5.572   1.516 -0.0165  0.3124  0.4269
 1131TIP3    H1 3315   5.882   5.490   1.560 -0.4746  1.5356  2.9687
 1131TIP3    H2 3316   5.797   5.615   1.571  0.7989  2.7313 -0.4057
 1132TIP3   OH2 3317   5.917   6.358   1.198 -0.5578  0.4673 -0.1870
 1132TIP3    H1 3318   5.926   6.266   1.174 -0.1152  1.0846 -2.4084
 1132TIP3    H2 3319   5.892   6.403   1.117 -1.7403  2.1699  1.0650
 1133TIP3   OH2 3320   5.230   4.194   1.564  0.3574 -0.2427  0.0293
 1133TIP3    H1 3321   5.320   4.180   1.534  0.7655 -0.1298  1.1898
 1133TIP3    H2 3322   5.182   4.217   1.485  1.6997  1.3659 -0.3328
 1134TIP3   OH2 3323   5.154   2.327   0.279 -0.2606 -0.1043  0.3830
 1134TIP3    H1 3324   5.149   2.422   0.267  0.0758 -0.2806 -1.1832
 1134TIP3    H2 3325   5.070   2.294   0.249  0.4427 -0.5068 -1.1954
 1135TIP3   OH2 3326   3.407   3.702   0.642  0.2472  0.3665 -1.0486
 1135TIP3    H1 3327   3.466   3.682   0.569  0.3410 -0.8314 -0.6597
 1135TIP3    H2 3328   3.413   3.797   0.652  0.7033  0.4720 -2.1970
 1136TIP3   OH2 3329   6.923   3.416   0.667 -0.3631  0.2816 -0.1428
 1136TIP3    H1 3330   7.014   3.390   0.651 -0.4321 -0.2801  0.3688
 1136TIP3    H2 3331   6.893   3.450   0.583  0.4601  0.8893 -0.2021
 1137TIP3   OH2 3332   6.778   2.159   1.432 -0.2013 -0.1120  0.8959
 1137TIP3    H1 3333   6.837   2.097   1.390  1.6314  1.2659  1.3574
 1137TIP3    H2 3334   6.691   2.124   1.417  0.7642 -2.4987  0.6832
 1138TIP3   OH2 3335   4.986   5.476   0.866 -0.3176  0.2714  0.3698
 1138TIP3    H1 3336   5.035   5.536   0.811  0.3030  0.3725  1.0235
 1138TIP3    H2 3337   4.943   5.533   0.930 -0.3497  0.0862  0.5118
 1139TIP3   OH2 3338   2.600   6.394   5.885  0.2196 -0.5861  0.2226
 1139TIP3    H1 3339   2.596   6.352   5.799  0.4384 -1.1904  0.5034
 1139TIP3    H2 3340   2.677   6.451   5.881  1.6410 -2.4074  0.8079
 1140TIP3   OH2 3341   3.140   3.761   1.899  0.5591  0.4243 -0.5378
 1140TIP3    H1 3342   3.076   3.790   1.834  0.5950  1.5348 -0.0963
 1140TIP3    H2 3343   3.207   3.830   1.898  2.4263 -1.3274 -1.9050
 1141TIP3   OH2 3344   8.695   1.717   0.645  0.0539 -0.3705  0.3307
 1141TIP3    H1 3345   8.642   1.753   0.573  1.8240  0.5310 -0.5546
 1141TIP3    H2 3346   8.706   1.625   0.622  1.8241  0.2279 -1.3471
 1142TIP3   OH2 3347   7.995   2.896   0.957  0.1404 -0.0959 -0.4887
 1142TIP3    H1 3348   7.964   2.909   1.047  2.2315 -0.4453  0.3068
 1142TIP3    H2 3349   7.924   2.848   0.914  1.0125 -4.2646  2.3398
 1143TIP3   OH2 3350   5.012   2.130   0.469 -0.6297 -0.2750  0.0256
 1143TIP3    H1 3351   5.106   2.115   0.459 -0.5109  1.7985 -2.2243
 1143TIP3    H2 3352   4.971   2.050   0.435  0.2355  0.2990 -2.4409
 1144TIP3   OH2 3353   5.430   6.614   5.393  0.0106  0.2812  0.6831
 1144TIP3    H1 3354   5.407   6.700   5.428  0.8209  1.2925 -1.1711
 1144TIP3    H2 3355   5.524   6.620   5.376 -0.4399  0.0555 -2.1478
 1145TIP3   OH2 3356   7.259   2.449   1.249 -0.0841  0.0797  0.4756
 1145TIP3    H1 3357   7.241   2.365   1.292 -0.6378  0.1604  0.4097
 1145TIP3    H2 3358   7.279   2.425   1.158  0.9214 -0.0767  0.7337
 1146TIP3   OH2 3359   3.114   3.201   1.265 -0.4730 -0.3280  0.5872
 1146TIP3    H1 3360   3.041   3.155   1.224 -1.5867  0.8856  1.1576
 1146TIP3    H2 3361   3.155   3.249   1.193 -1.9744  1.2139  0.7136
 1147TIP3   OH2 3362   3.466   3.744   1.812  0.6138 -0.1802  0.4308
 1147TIP3    H1 3363   3.426   3.802   1.748  1.1747 -0.4877 -0.2083
 1147TIP3    H2 3364   3.537   3.701   1.764  1.7982  0.4576  1.5797
 1148TIP3   OH2 3365   3.338   4.214   0.812 -0.0011  0.2404 -0.3559
 1148TIP3    H1 3366   3.394   4.292   0.811  1.1075 -0.5313 -0.4065
 1148TIP3    H2 3367   3.252   4.245   0.784  0.2522  1.5715  0.2973
 1149TIP3   OH2 3368   5.729   5.676   1.781  0.1294  0.2390 -0.2545
 1149TIP3    H1 3369   5.680   5.728   1.845  0.7571 -1.2673  1.5287
 1149TIP3    H2 3370   5.821   5.688   1.807  0.4510  0.3032 -1.4215
 1150TIP3   OH2 3371   5.304   2.669   2.866  0.6517  0.8308  0.5262
 1150TIP3    H1 3372   5.362   2.600   2.832  0.3400  1.7208 -1.8826
 1150TIP3    H2 3373   5.301   2.652   2.960 -1.2435 -3.8498 -0.2251
 1151TIP3   OH2 3374   5.830   5.732   0.216  0.3062 -0.7707 -0.7567
 1151TIP3    H1 3375   5.854   5.740   0.308 -2.1275  1.2021 -0.2362
 1151TIP3    H2 3376   5.832   5.821   0.183 -3.6901 -0.7876 -1.2862
 1152TIP3   OH2 3377   4.801   3.049   1.875 -0.1523  0.0762  0.8407
 1152TIP3    H1 3378   4.837   3.112   1.812 -2.7704  0.6657 -0.1325
 1152TIP3    H2 3379   4.769   3.103   1.947  1.2997 -0.4706  1.9054
 1153TIP3   OH2 3380   3.818   4.142   1.833  0.5197 -0.0289  0.2428
 1153TIP3    H1 3381   3.906   4.145   1.795  0.7326 -0.2582  0.7190
 1153TIP3    H2 3382   3.762   4.112   1.760  1.0889 -1.4992  0.3836
 1154TIP3   OH2 3383   4.497   2.602   1.854 -0.7202  0.2017 -0.2904
 1154TIP3    H1 3384   4.453   2.521   1.878 -0.4229  0.1839  0.1988
 1154TIP3    H2 3385   4.448   2.671   1.897 -0.5322  0.2179 -0.0997
 1155TIP3   OH2 3386   5.610   0.268   6.858  0.2657 -0.2052  0.0931
 1155TIP3    H1 3387   5.539   0.245   6.797  0.3500 -1.0478  0.2970
 1155TIP3    H2 3388   5.686   0.284   6.802 -0.7332  3.4276 -0.3339
 1156TIP3   OH2 3389   5.204   4.891   0.679  0.1512 -0.1177 -0.0438
 1156TIP3    H1 3390   5.121   4.927   0.708  0.0573 -0.8431  0.6180
 1156TIP3    H2 3391   5.245   4.857   0.760  1.4176  0.9019 -0.2338
 1157TIP3   OH2 3392   6.153   0.700   7.016 -0.2511  0.3602 -0.0700
 1157TIP3    H1 3393   6.239   0.672   7.048 -0.1790 -1.1676 -1.5735
 1157TIP3    H2 3394   6.142   0.654   6.934 -3.1453 -0.5829  0.8106
 1158TIP3   OH2 3395   3.231   2.219   0.570 -0.2506 -0.2370 -0.7350
 1158TIP3    H1 3396   3.265   2.247   0.655  0.4708  1.1284 -1.4562
 1158TIP3    H2 3397   3.287   2.146   0.544 -1.5303 -1.7877  0.7101
 1159TIP3   OH2 3398   4.426   4.028   2.855  1.1318  0.0519 -0.1845
 1159TIP3    H1 3399   4.388   4.013   2.768 -0.7701  1.6162  0.3351
 1159TIP3    H2 3400   4.374   4.100   2.891  0.5599 -1.9414  3.0865
 1160TIP3   OH2 3401   4.872   7.588   0.926  0.5015  0.1592 -0.1534
 1160TIP3    H1 3402   4.896   7.499   0.900  0.4057  0.7300 -2.3028
 1160TIP3    H2 3403   4.906   7.643   0.856 -0.6557  1.6817  0.4653
 1161TIP3   OH2 3404   6.483   5.435   2.141 -0.2381 -0.9786 -0.1231
 1161TIP3    H1 3405   6.494   5.340   2.140 -3.5137 -1.4197 -0.1374
 1161TIP3    H2 3406   6.538   5.466   2.069 -0.9533 -3.1212 -1.6619
 1162TIP3   OH2 3407   6.768   3.193   1.282 -0.5273  0.1368 -0.1703
 1162TIP3    H1 3408   6.808   3.119   1.236  0.1731  1.9546 -2.6213
 1162TIP3    H2 3409   6.695   3.155   1.331  0.8904 -2.4080  0.0312
 1163TIP3   OH2 3410   6.376   1.467   0.166  0.0559 -0.3285  0.0068
 1163TIP3    H1 3411   6.310   1.429   0.223 -0.7457  1.2882  0.1806
 1163TIP3    H2 3412   6.424   1.392   0.131 -0.0791 -1.3783  2.0222
 1164TIP3   OH2 3413   2.744   1.909   0.293 -0.1624  0.1725 -0.2359
 1164TIP3    H1 3414   2.801   1.833   0.278  1.2054  0.9121  1.0594
 1164TIP3    H2 3415   2.767   1.969   0.223 -1.4318 -0.6938 -1.4174
 1165TIP3   OH2 3416   3.260   2.102   1.907  0.0013  0.4116 -0.6476
 1165TIP3    H1 3417   3.234   2.058   1.988 -1.7432  0.2352 -1.2852
 1165TIP3    H2 3418   3.332   2.049   1.873 -0.1514 -0.2823  0.0913
 1166TIP3   OH2 3419   2.781   1.513   2.116 -0.7612 -0.7688  0.3765
 1166TIP3    H1 3420   2.727   1.548   2.186  0.9445 -1.4943  2.0992
 1166TIP3    H2 3421   2.724   1.512   2.039 -1.7316  3.0212  0.9555
 1167TIP3   OH2 3422   8.402   1.444   0.785 -0.3794 -0.3569  0.2029
 1167TIP3    H1 3423   8.480   1.389   0.790 -0.9450 -1.3777 -1.6657
 1167TIP3    H2 3424   8.330   1.387   0.810 -0.9874 -0.5411 -1.8834
 1168TIP3   OH2 3425   6.451   7.063   6.541 -0.4403  0.0725 -0.0787
 1168TIP3    H1 3426   6.400   7.035   6.617  1.4952 -0.3592  1.1003
 1168TIP3    H2 3427   6.509   7.131   6.575  0.4712 -0.1633 -1.1393
 1169TIP3   OH2 3428   4.004   4.587   0.475 -0.3853 -0.0764 -0.6359
 1169TIP3    H1 3429   3.970   4.661   0.526 -1.9679  0.2347 -2.0927
 1169TIP3    H2 3430   3.996   4.614   0.384  0.0634 -1.6078 -1.1497
 1170TIP3   OH2 3431   6.891   5.881   7.270 -0.1140 -0.1019 -0.2783
 1170TIP3    H1 3432   6.929   5.844   7.190  1.5731  2.3365 -0.6539
 1170TIP3    H2 3433   6.800   5.854   7.267 -0.1583  0.1650 -3.1999
 1171TIP3   OH2 3434   5.443   1.426   2.322 -0.4466  0.1918 -0.6390
 1171TIP3    H1 3435   5.393   1.393   2.397  1.0239  0.1969  0.3812
 1171TIP3    H2 3436   5.480   1.348   2.281  0.8096  0.3437  0.1616
 1172TIP3   OH2 3437   5.781   2.659   1.516 -0.3561  0.3329  0.5489
 1172TIP3    H1 3438   5.726   2.653   1.438 -0.8317 -0.2481  0.9251
 1172TIP3    H2 3439   5.814   2.570   1.530 -1.2829  0.1607  1.7344
 1173TIP3   OH2 3440   6.997   2.536   1.469 -0.1407  0.0069 -0.7325
 1173TIP3    H1 3441   7.051   2.470   1.514 -0.2242  1.4648  1.5778
 1173TIP3    H2 3442   6.931   2.485   1.423 -0.7678 -1.5575  1.7519
 1174TIP3   OH2 3443   7.060   1.756   1.045 -0.0672  0.1268  0.2451
 1174TIP3    H1 3444   7.077   1.668   1.080 -0.0977  0.5019  1.2046
 1174TIP3    H2 3445   7.147   1.794   1.033 -0.0657  0.0768  0.0901
 1175TIP3   OH2 3446   2.981   5.721   0.685  0.1133 -0.4532 -0.1438
 1175TIP3    H1 3447   3.061   5.702   0.734 -0.2018 -1.5873 -0.0533
 1175TIP3    H2 3448   2.967   5.644   0.631 -0.2604  0.2537 -1.0614
 1176TIP3   OH2 3449   2.278   8.142   5.976 -0.4306 -0.4272 -0.0684
 1176TIP3    H1 3450   2.185   8.155   5.956 -1.1231 -1.0829  2.4816
 1176TIP3    H2 3451   2.319   8.224   5.952 -1.4316 -0.5641 -2.4253
 1177TIP3   OH2 3452   7.787   4.502   2.221 -0.3775 -0.2052  0.4970
 1177TIP3    H1 3453   7.823   4.581   2.262  0.1351  0.6623 -1.5645
 1177TIP3    H2 3454   7.855   4.474   2.160 -1.4314 -1.0274 -0.3188
 1178TIP3   OH2 3455   6.646   5.543   1.971 -0.5138 -0.2516  0.1130
 1178TIP3    H1 3456   6.606   5.627   1.948 -0.5567 -0.3688 -0.2487
 1178TIP3    H2 3457   6.730   5.566   2.011  0.6069 -0.1008 -2.2304
 1179TIP3   OH2 3458   0.300   8.246   3.466  0.3600 -0.8297  0.6102
 1179TIP3    H1 3459   0.348   8.197   3.399  0.7694  1.7542 -1.0610
 1179TIP3    H2 3460   0.215   8.203   3.472  0.6629 -1.6567 -0.9105
 1180TIP3   OH2 3461   4.934   1.756   0.745 -0.1180 -0.5117  0.2858
 1180TIP3    H1 3462   4.937   1.722   0.834  0.6087 -0.4379  0.2891
 1180TIP3    H2 3463   4.999   1.705   0.697 -0.0465 -0.1125 -0.0460
 1181TIP3   OH2 3464   7.163   4.785   0.224 -0.7951  0.5303 -0.1939
 1181TIP3    H1 3465   7.196   4.771   0.312 -2.1225  0.7092  0.3392
 1181TIP3    H2 3466   7.229   4.744   0.167 -0.3812 -0.3824  0.9177
 1182TIP3   OH2 3467   8.471   4.953   1.342  0.5202  0.2853  0.2561
 1182TIP3    H1 3468   8.454   5.038   1.302 -2.2047 -0.8008 -1.0131
 1182TIP3    H2 3469   8.417   4.952   1.421  0.7412 -0.1600  0.4009
 1183TIP3   OH2 3470   0.977   5.833   1.910  0.3812 -0.2638 -0.2724
 1183TIP3    H1 3471   0.927   5.792   1.840  0.8395 -1.8011  0.2740
 1183TIP3    H2 3472   1.069   5.819   1.885  0.5540  1.1040 -0.4505
 1184TIP3   OH2 3473   3.888   1.320   5.997  0.6514  0.1587 -0.5906
 1184TIP3    H1 3474   3.904   1.304   6.089 -1.1979 -1.8448 -0.5518
 1184TIP3    H2 3475   3.869   1.233   5.961 -1.4597  1.2324 -2.2333
 1185TIP3   OH2 3476   5.929   0.307   5.567 -0.2037  0.3555  0.2716
 1185TIP3    H1 3477   5.908   0.381   5.509 -2.2163 -0.3801  0.0420
 1185TIP3    H2 3478   5.879   0.234   5.532  2.3497 -1.3478  0.0572
 1186TIP3   OH2 3479   6.529   1.202   0.586 -0.1788  0.0658  0.4341
 1186TIP3    H1 3480   6.574   1.169   0.509 -0.4660  0.6071  0.0366
 1186TIP3    H2 3481   6.495   1.287   0.560 -1.9127 -0.5767  0.5602
 1187TIP3   OH2 3482   8.397   5.296   0.616 -0.0010  0.3383  0.1491
 1187TIP3    H1 3483   8.433   5.372   0.661 -0.4435 -0.6004  2.1456
 1187TIP3    H2 3484   8.470   5.262   0.563  0.4866  1.5231  0.0515
 1188TIP3   OH2 3485   0.425   5.305   1.297  0.4758 -0.1052  0.0149
 1188TIP3    H1 3486   0.345   5.253   1.289  0.1131  0.0967  1.9419
 1188TIP3    H2 3487   0.396   5.396   1.285  0.9296 -0.2469 -2.2766
 1189TIP3   OH2 3488   1.976   6.585   7.082 -0.6986  0.2896 -0.1358
 1189TIP3    H1 3489   2.021   6.660   7.044  0.2714 -0.6196 -0.8017
 1189TIP3    H2 3490   1.985   6.596   7.176  1.8323 -0.4052 -0.2692
 1190TIP3   OH2 3491   7.540   5.494   0.208  0.1647 -0.0115 -0.5735
 1190TIP3    H1 3492   7.499   5.555   0.147  2.4356 -0.4877 -2.6239
 1190TIP3    H2 3493   7.633   5.493   0.183  0.6052 -2.4876  0.9786
 1191TIP3   OH2 3494   7.416   3.543   0.534  0.3184  0.0513 -0.4290
 1191TIP3    H1 3495   7.414   3.494   0.452  0.3716 -1.9979  0.7493
 1191TIP3    H2 3496   7.498   3.518   0.575  0.2603  1.0008  0.2850
 1192TIP3   OH2 3497   5.494   4.154   1.534 -0.1324 -0.4319 -0.2159
 1192TIP3    H1 3498   5.555   4.106   1.478 -0.0451 -1.4141  0.7054
 1192TIP3    H2 3499   5.521   4.133   1.623 -0.7216  0.5392  0.2051
 1193TIP3   OH2 3500   2.903   8.274   5.137  0.1134 -0.3011 -0.3336
 1193TIP3    H1 3501   2.965   8.215   5.095 -0.7461 -0.7513 -0.9858
 1193TIP3    H2 3502   2.820   8.258   5.092 -0.9767 -1.1936  1.8742
 1194TIP3   OH2 3503   0.684   3.418   1.371  0.4729  0.2270  0.0518
 1194TIP3    H1 3504   0.657   3.453   1.286 -1.2596 -0.6205  0.2342
 1194TIP3    H2 3505   0.602   3.412   1.422  1.1967 -1.0864  1.1038
 1195TIP3   OH2 3506   7.926   4.037   0.126  0.0304 -1.5940  0.0332
 1195TIP3    H1 3507   7.878   3.998   0.053 -2.7884 -2.6144  2.3331
 1195TIP3    H2 3508   7.908   3.979   0.201  0.7686  0.7889  2.1303
 1196TIP3   OH2 3509   7.390   3.981   0.765  0.2876  0.1011  0.0522
 1196TIP3    H1 3510   7.357   3.908   0.712  1.2288  0.6247 -1.2912
 1196TIP3    H2 3511   7.315   4.009   0.817 -0.3815 -1.1123 -0.2276
 1197TIP3   OH2 3512   4.198   6.434   0.378  0.1841  0.4244  0.1066
 1197TIP3    H1 3513   4.174   6.513   0.329 -0.0873  0.8114  0.8624
 1197TIP3    H2 3514   4.273   6.460   0.431 -1.3381  0.8386  2.1005
 1198TIP3   OH2 3515   7.575   3.547   0.802  0.2697 -0.1544 -0.3047
 1198TIP3    H1 3516   7.625   3.503   0.871 -0.4001  0.5254  0.6161
 1198TIP3    H2 3517   7.501   3.586   0.847 -1.0204 -1.0203 -1.6419
 1199TIP3   OH2 3518   4.148   0.860   5.897 -0.2381  0.5268  0.2080
 1199TIP3    H1 3519   4.171   0.780   5.944 -0.9345 -0.8818 -1.7493
 1199TIP3    H2 3520   4.212   0.925   5.926  2.3772 -1.6131 -0.5434
 1200TIP3   OH2 3521   6.253   3.429   2.078  0.0574  0.0853 -0.5183
 1200TIP3    H1 3522   6.261   3.351   2.133  0.1122  1.1867  1.0538
 1200TIP3    H2 3523   6.326   3.423   2.016 -0.0292 -1.1747 -0.5199
 1201TIP3   OH2 3524   4.924   2.199   0.172 -0.0792 -0.2898  0.0958
 1201TIP3    H1 3525   4.924   2.169   0.081  2.2368 -0.7958  0.2418
 1201TIP3    H2 3526   4.890   2.125   0.222  0.7474 -0.8194 -0.1209
 1202TIP3   OH2 3527   7.705   6.284   0.769 -0.2367  0.4889  0.2328
 1202TIP3    H1 3528   7.715   6.378   0.755  0.6594  0.1942 -1.1853
 1202TIP3    H2 3529   7.724   6.245   0.684 -0.8392 -0.9651  0.7507
 1203TIP3   OH2 3530   6.707   3.412   1.149  0.5547 -0.1098  0.5308
 1203TIP3    H1 3531   6.743   3.402   1.061 -1.0603 -0.5030 -0.1051
 1203TIP3    H2 3532   6.734   3.332   1.195  0.2833 -0.5226 -0.0180
 1204TIP3   OH2 3533   6.420   4.901   3.961 -0.3767  0.6014 -0.1747
 1204TIP3    H1 3534   6.365   4.832   3.998 -0.2972  1.1412  0.9764
 1204TIP3    H2 3535   6.364   4.944   3.897 -1.0568  0.6629  0.4480
 1205TIP3   OH2 3536   8.028   4.126   2.118  0.1336  0.1709  0.4810
 1205TIP3    H1 3537   7.975   4.061   2.074 -1.6997  1.6634  0.4075
 1205TIP3    H2 3538   8.118   4.099   2.102 -0.5829 -1.8698 -0.2145
 1206TIP3   OH2 3539   8.775   4.002   1.031  0.2564  0.0166 -0.0584
 1206TIP3    H1 3540   8.843   4.042   0.977  0.8386 -1.1806 -0.2280
 1206TIP3    H2 3541   8.698   4.057   1.017  1.3271  1.7084  0.5737
 1207TIP3   OH2 3542   6.721   4.840   0.601 -0.2724 -0.1950 -0.2074
 1207TIP3    H1 3543   6.711   4.746   0.610  0.7909 -0.4248 -1.3539
 1207TIP3    H2 3544   6.784   4.852   0.531  1.2593  1.3298  1.3567
 1208TIP3   OH2 3545   8.309   6.150   1.018  0.2904  0.2940  0.0395
 1208TIP3    H1 3546   8.317   6.128   0.925 -0.3919 -3.4600  0.8139
 1208TIP3    H2 3547   8.356   6.081   1.064  2.0357  2.9711  2.4910
 1209TIP3   OH2 3548   5.983   5.525   0.884  0.0546 -0.2976  0.5348
 1209TIP3    H1 3549   5.919   5.500   0.952  0.5823  0.1761  1.2054
 1209TIP3    H2 3550   6.068   5.511   0.925  0.3719  0.8862  0.2852
 1210TIP3   OH2 3551   0.186   4.544   0.061 -0.3945 -0.1266 -0.4117
 1210TIP3    H1 3552   0.243   4.620   0.067 -0.1239 -0.3864  0.3620
 1210TIP3    H2 3553   0.160   4.526   0.152 -1.4570 -0.1956 -0.7144
 1211TIP3   OH2 3554   8.113   3.793   0.523 -0.0917 -0.5412 -0.0076
 1211TIP3    H1 3555   8.175   3.864   0.541 -1.0423  0.0969  0.8891
 1211TIP3    H2 3556   8.037   3.838   0.486  0.4192 -1.4498 -2.1925
 1212TIP3   OH2 3557   6.227   2.444   3.193  0.2646  0.1621 -0.0494
 1212TIP3    H1 3558   6.170   2.492   3.132  0.4460 -0.7683 -0.9573
 1212TIP3    H2 3559   6.255   2.367   3.144 -0.3600 -1.1033  1.5479
 1213TIP3   OH2 3560   6.808   1.754   1.325 -0.0149 -0.4686 -0.2132
 1213TIP3    H1 3561   6.871   1.826   1.322 -0.5432  0.0537  1.1951
 1213TIP3    H2 3562   6.811   1.717   1.236  2.3317 -0.5192 -0.1455
 1214TIP3   OH2 3563   7.097   4.284   0.819  0.0447  0.3987 -0.1845
 1214TIP3    H1 3564   7.114   4.290   0.913 -2.9811 -0.0565  0.4429
 1214TIP3    H2 3565   7.100   4.191   0.799  5.2421  0.7255 -1.5311
 1215TIP3   OH2 3566   2.305   7.215   7.015  0.3605  0.2489 -0.2460
 1215TIP3    H1 3567   2.292   7.241   6.924  0.3144  0.4459 -0.1837
 1215TIP3    H2 3568   2.269   7.127   7.020 -0.8877  0.7670 -0.0926
 1216TIP3   OH2 3569   7.919   1.830   0.884  0.0407  0.0774 -0.6771
 1216TIP3    H1 3570   7.956   1.917   0.901  1.4006 -0.7809  0.8874
 1216TIP3    H2 3571   7.851   1.819   0.951 -0.7018  0.2586 -1.3918
 1217TIP3   OH2 3572   8.803   0.538   1.131 -0.0210  0.2941  1.0147
 1217TIP3    H1 3573   8.714   0.555   1.164  0.0446  1.0390  0.8232
 1217TIP3    H2 3574   8.859   0.594   1.185  0.1884  0.8092  0.2682
 1218TIP3   OH2 3575   1.911   6.899   5.947 -0.2006 -0.3578  0.3898
 1218TIP3    H1 3576   1.954   6.832   5.999  0.7165 -0.3360 -0.3219
 1218TIP3    H2 3577   1.818   6.874   5.947  0.3177 -2.3977 -0.9987
 1219TIP3   OH2 3578   6.459   4.891   1.921  0.1094 -0.0022 -0.1477
 1219TIP3    H1 3579   6.497   4.977   1.907  0.9856 -0.7169 -2.4603
 1219TIP3    H2 3580   6.533   4.835   1.943 -0.4412 -0.2002  1.2524
 1220TIP3   OH2 3581   5.157   0.932   6.701  0.4488 -0.0727  0.6313
 1220TIP3    H1 3582   5.249   0.907   6.698  1.2681  2.4777  2.0883
 1220TIP3    H2 3583   5.128   0.910   6.790  0.2790  1.0300  0.8685
 1221TIP3   OH2 3584   8.123   4.969   0.045 -0.1950  0.1915 -0.4642
 1221TIP3    H1 3585   8.102   5.013   0.128  2.2909  0.4623  0.0532
 1221TIP3    H2 3586   8.170   4.890   0.071 -2.0065 -1.2670 -1.5258
 1222TIP3   OH2 3587   1.407   6.810   6.817 -0.6342 -0.0965 -0.7088
 1222TIP3    H1 3588   1.486   6.811   6.763 -0.2860  2.1160 -0.2070
 1222TIP3    H2 3589   1.433   6.851   6.899 -1.5563 -2.0403  0.5964
 1223TIP3   OH2 3590   3.533   1.759   6.857 -0.2390 -0.0287 -0.3770
 1223TIP3    H1 3591   3.574   1.839   6.823 -1.5998  1.1809  0.7334
 1223TIP3    H2 3592   3.441   1.768   6.835 -0.4378 -1.1913 -0.0401
 1224TIP3   OH2 3593   0.308   5.572   1.186 -0.3870  0.1056  0.2342
 1224TIP3    H1 3594   0.269   5.573   1.099 -1.0253 -1.5532  0.4806
 1224TIP3    H2 3595   0.354   5.656   1.193 -0.5700  0.3735 -1.5758
 1225TIP3   OH2 3596   1.194   6.184   7.276 -0.1284 -0.0133  0.1434
 1225TIP3    H1 3597   1.142   6.261   7.252  1.6065  0.2499 -2.9803
 1225TIP3    H2 3598   1.151   6.111   7.232 -1.6789 -0.9140  2.9813
 1226TIP3   OH2 3599   5.844   5.696   0.506 -0.2268  0.0356 -0.5779
 1226TIP3    H1 3600   5.839   5.752   0.583 -1.8191  1.2684 -1.5528
 1226TIP3    H2 3601   5.847   5.607   0.541 -2.3045  0.5225  0.8945
 1227TIP3   OH2 3602   8.764   2.786   0.657  0.2134  0.9573 -0.2991
 1227TIP3    H1 3603   8.739   2.879   0.656  1.2844  1.2518 -0.0322
 1227TIP3    H2 3604   8.822   2.776   0.581 -2.0898 -0.1313 -1.9896
 1228TIP3   OH2 3605   8.516   3.917   1.755 -0.1873  0.1715  0.1535
 1228TIP3    H1 3606   8.514   3.951   1.665 -1.6170 -2.4323 -0.8657
 1228TIP3    H2 3607   8.492   3.991   1.810 -1.0507  1.3662 -1.7806
 1229TIP3   OH2 3608   5.548   2.977   2.145 -0.2679 -0.4115 -0.1886
 1229TIP3    H1 3609   5.610   3.050   2.137  0.0431 -0.8711 -2.1383
 1229TIP3    H2 3610   5.511   2.986   2.233  2.2338  0.1475  0.8461
 1230TIP3   OH2 3611   7.283   3.053   2.358  0.1330  0.2624  0.3117
 1230TIP3    H1 3612   7.378   3.045   2.367  0.1946  1.4929  0.9758
 1230TIP3    H2 3613   7.248   2.987   2.418  0.5682 -0.2522  0.0055
 1231TIP3   OH2 3614   0.255   5.728   3.412 -0.3215 -0.0689  0.1891
 1231TIP3    H1 3615   0.302   5.689   3.339  0.2064  2.5581 -0.9587
 1231TIP3    H2 3616   0.297   5.694   3.491 -1.9180 -4.1859 -0.6243
 1232TIP3   OH2 3617   0.373   5.098   1.852 -0.3768  0.7912  0.2722
 1232TIP3    H1 3618   0.347   5.190   1.849 -0.0566  0.8663 -0.3286
 1232TIP3    H2 3619   0.398   5.077   1.762 -1.5301 -0.2056  0.1588
 1233TIP3   OH2 3620   0.378   2.521   1.200 -0.0143  0.1415 -0.6508
 1233TIP3    H1 3621   0.472   2.523   1.219  0.2938 -0.6758 -1.9514
 1233TIP3    H2 3622   0.342   2.595   1.247  1.0365 -0.4524  1.1383
 1234TIP3   OH2 3623   6.860   0.550   6.916 -0.3280  0.3069  0.4146
 1234TIP3    H1 3624   6.791   0.594   6.966  0.1711  0.2197  1.1928
 1234TIP3    H2 3625   6.929   0.616   6.908 -0.6429  0.5143 -0.6781
 1235TIP3   OH2 3626   8.187   5.043   3.930 -0.7553  0.0891 -0.3595
 1235TIP3    H1 3627   8.130   5.119   3.942 -0.7911  0.0528 -0.2964
 1235TIP3    H2 3628   8.212   5.018   4.019  0.3515  0.8570 -0.4433
 1236TIP3   OH2 3629   0.023   4.414   2.425  0.2846  0.4100 -0.6196
 1236TIP3    H1 3630   0.017   4.509   2.417 -0.3400  0.3594 -0.7835
 1236TIP3    H2 3631  -0.029   4.380   2.352  1.6714 -0.0630 -1.4121
 1237TIP3   OH2 3632   0.561   4.274   1.350 -0.0696 -0.3801 -0.1721
 1237TIP3    H1 3633   0.526   4.247   1.435 -1.6458 -1.0402 -1.0188
 1237TIP3    H2 3634   0.510   4.352   1.327 -1.2069 -1.5045 -1.5381
 1238TIP3   OH2 3635   0.375   2.688   2.708 -0.5247  0.2131 -0.2049
 1238TIP3    H1 3636   0.431   2.695   2.631  1.7648 -0.3565  1.3749
 1238TIP3    H2 3637   0.334   2.774   2.716 -0.8602  0.2519 -2.0891
 1239TIP3   OH2 3638   8.524   3.462   3.254  0.2556  0.3918 -0.2874
 1239TIP3    H1 3639   8.500   3.418   3.335  3.0739 -2.1611 -0.7324
 1239TIP3    H2 3640   8.445   3.459   3.200 -0.7822 -0.4660  1.2779
 1240TIP3   OH2 3641   8.284   5.518   5.028  0.4184 -0.0368 -0.5427
 1240TIP3    H1 3642   8.337   5.519   5.107  0.5714  0.9551 -0.6585
 1240TIP3    H2 3643   8.240   5.432   5.029  1.6168 -0.6480 -0.1906
 1241TIP3   OH2 3644   8.836   4.322   3.272 -0.2632 -0.1193 -0.4006
 1241TIP3    H1 3645   8.925   4.329   3.238  0.9104 -0.1472  2.5045
 1241TIP3    H2 3646   8.827   4.396   3.332 -1.4663 -1.2325  0.8443
 1242TIP3   OH2 3647   8.615   3.489   1.948 -0.6059 -0.2588 -0.3818
 1242TIP3    H1 3648   8.678   3.559   1.934 -0.8478  0.1831  0.6572
 1242TIP3    H2 3649   8.639   3.452   2.033 -2.0812  0.2947  0.3037
 1243TIP3   OH2 3650   2.330   8.231   6.824  0.2656 -0.0643 -0.0286
 1243TIP3    H1 3651   2.375   8.175   6.887 -0.9785 -0.0257  0.9250
 1243TIP3    H2 3652   2.379   8.221   6.743  2.8849  1.1258  1.3273
 1244TIP3   OH2 3653   8.403   6.350   1.210 -0.1979  0.0392 -0.1887
 1244TIP3    H1 3654   8.427   6.310   1.293 -0.2582 -0.9199 -0.6288
 1244TIP3    H2 3655   8.389   6.277   1.151  1.3126  0.7609 -1.4550
 1245TIP3   OH2 3656   7.080   4.020   2.949 -0.0518 -0.2980  0.5541
 1245TIP3    H1 3657   7.121   4.004   2.864  0.5090 -0.4081  0.8443
 1245TIP3    H2 3658   7.048   3.934   2.977 -0.7411 -0.1646  0.2001
 1246TIP3   OH2 3659   0.178   2.529   2.644 -0.1893  0.3192 -0.7818
 1246TIP3    H1 3660   0.242   2.577   2.697  0.3511  0.5061 -1.5988
 1246TIP3    H2 3661   0.122   2.597   2.607  0.1592  0.2738 -1.3945
 1247TIP3   OH2 3662   8.210   5.175   1.420  0.0472 -0.2290 -0.5252
 1247TIP3    H1 3663   8.200   5.113   1.347 -1.3172 -0.7018  0.0571
 1247TIP3    H2 3664   8.141   5.239   1.407 -0.3457 -0.4458  0.4810
 1248TIP3   OH2 3665   1.989   2.985   0.843 -0.4132 -0.1236 -0.2538
 1248TIP3    H1 3666   1.997   3.066   0.893 -1.6517  0.6168 -1.2233
 1248TIP3    H2 3667   1.994   3.012   0.752  0.7922 -1.3408 -0.5782
 1249TIP3   OH2 3668   6.712   3.354   2.578 -0.5810  0.1146 -0.0892
 1249TIP3    H1 3669   6.701   3.259   2.577  0.5015 -0.0422  0.8825
 1249TIP3    H2 3670   6.671   3.385   2.497 -0.0153 -1.2897 -0.9278
 1250TIP3   OH2 3671   0.234   5.091   4.237 -0.3409  0.4227 -0.1478
 1250TIP3    H1 3672   0.151   5.062   4.198 -1.2677  0.7719  1.5078
 1250TIP3    H2 3673   0.225   5.071   4.330  1.8967 -0.5530 -0.1042
 1251TIP3   OH2 3674   1.189   4.058   3.973  0.2650  0.2133  0.1615
 1251TIP3    H1 3675   1.170   4.112   4.050 -0.3658 -0.6287  0.6202
 1251TIP3    H2 3676   1.240   4.114   3.915  3.0481  0.0434  2.3628
 1252TIP3   OH2 3677   8.108   5.243   3.575 -0.2510  0.3171  1.1914
 1252TIP3    H1 3678   8.086   5.276   3.488  1.4418 -1.0616  0.1978
 1252TIP3    H2 3679   8.040   5.178   3.594 -1.0258  1.1351  1.1976
 1253TIP3   OH2 3680   8.704   5.157   6.816  0.2226  0.3455  0.5219
 1253TIP3    H1 3681   8.795   5.185   6.810  0.3216 -0.2504 -0.9641
 1253TIP3    H2 3682   8.670   5.167   6.728 -1.1171  0.4219  1.0438
 1254TIP3   OH2 3683   0.731   4.959   3.908  0.7242 -0.5459 -0.3827
 1254TIP3    H1 3684   0.826   4.943   3.910  0.6608 -0.8609  0.4627
 1254TIP3    H2 3685   0.694   4.875   3.882  0.7451 -0.1025 -1.8448
 1255TIP3   OH2 3686   0.631   3.093   4.476  0.1739  0.2033  0.1274
 1255TIP3    H1 3687   0.597   3.007   4.454  0.1580 -0.1471  1.4443
 1255TIP3    H2 3688   0.653   3.087   4.569 -2.0397  2.3401  0.8309
 1256TIP3   OH2 3689   8.670   5.237   5.129 -0.1050  0.3042 -0.0598
 1256TIP3    H1 3690   8.683   5.317   5.078  0.6858 -0.0620 -0.4393
 1256TIP3    H2 3691   8.658   5.268   5.219 -0.0770  0.8680 -0.2481
 1257TIP3   OH2 3692   8.291   4.043   2.215  0.0964  0.5349 -0.6199
 1257TIP3    H1 3693   8.259   4.043   2.306  1.2587  3.3254 -0.1594
 1257TIP3    H2 3694   8.376   3.999   2.220 -1.4006 -2.5641 -1.0336
 1258TIP3   OH2 3695   8.684   6.430   1.356  0.1648  0.3526  0.5360
 1258TIP3    H1 3696   8.675   6.443   1.450 -1.7307  1.3569  0.2402
 1258TIP3    H2 3697   8.627   6.497   1.317 -0.1676 -0.9499 -1.2754
 1259TIP3   OH2 3698   1.430   5.824   1.001 -0.3087 -0.1410 -0.0172
 1259TIP3    H1 3699   1.352   5.832   1.056 -0.6380  0.1183 -0.5252
 1259TIP3    H2 3700   1.456   5.732   1.011  0.4688  0.2460  1.6990
 1260TIP3   OH2 3701   7.900   2.903   2.746 -0.4711 -0.4796  0.3005
 1260TIP3    H1 3702   7.878   2.970   2.811 -2.0079 -1.5293  0.9038
 1260TIP3    H2 3703   7.943   2.951   2.676 -2.9053  1.4092  0.0258
 1261TIP3   OH2 3704   8.358   5.899   4.381 -0.0933 -0.1604  0.1835
 1261TIP3    H1 3705   8.272   5.890   4.422  0.2261 -0.5166  0.7782
 1261TIP3    H2 3706   8.419   5.862   4.445  0.3463 -1.2662 -0.8728
 1262TIP3   OH2 3707   8.545   4.378   5.666 -0.2263  0.0823 -0.6939
 1262TIP3    H1 3708   8.462   4.425   5.666 -0.2636  0.0440  1.6431
 1262TIP3    H2 3709   8.611   4.447   5.666 -0.2809  0.1598  1.5785
 1263TIP3   OH2 3710   6.539   2.202   7.190 -0.0137 -0.2264  0.3258
 1263TIP3    H1 3711   6.581   2.133   7.242  0.5710 -0.3768 -0.3299
 1263TIP3    H2 3712   6.456   2.164   7.161  0.9590 -1.2039 -1.2485
 1264TIP3   OH2 3713   8.323   7.298   3.152  0.0846  0.7423  0.3756
 1264TIP3    H1 3714   8.326   7.209   3.118 -2.5935  0.9822 -0.6025
 1264TIP3    H2 3715   8.406   7.337   3.125  0.8034 -1.0968 -0.1533
 1265TIP3   OH2 3716   1.472   4.949   3.040 -0.1827 -0.2225  0.6902
 1265TIP3    H1 3717   1.524   5.019   3.001 -0.2930 -0.6654 -0.2710
 1265TIP3    H2 3718   1.381   4.973   3.022 -0.2034 -0.9187 -0.2130
 1266TIP3   OH2 3719   1.257   4.786   3.575 -0.0710  0.5355 -0.2167
 1266TIP3    H1 3720   1.279   4.745   3.659  0.7699 -1.4282 -1.3464
 1266TIP3    H2 3721   1.226   4.873   3.597  3.2942  1.2359  1.9037
 1267TIP3   OH2 3722   0.280   3.948   2.547  0.6840 -0.3796 -0.4994
 1267TIP3    H1 3723   0.366   3.909   2.563  0.7580  0.7269  1.9966
 1267TIP3    H2 3724   0.296   4.042   2.551 -0.4390 -0.1519 -1.2265
 1268TIP3   OH2 3725   2.458   3.383   2.654  0.3006  0.3555  0.1661
 1268TIP3    H1 3726   2.516   3.399   2.580 -0.0934 -1.0587 -0.4655
 1268TIP3    H2 3727   2.404   3.309   2.626 -3.0102  2.7073  0.0282
 1269TIP3   OH2 3728   0.666   1.999   2.963  0.1834  0.4578 -0.0199
 1269TIP3    H1 3729   0.596   1.949   2.922  1.5898 -0.9657 -0.7482
 1269TIP3    H2 3730   0.647   2.090   2.941 -1.1365  0.0408 -0.6460
 1270TIP3   OH2 3731   5.937   5.882   7.229  0.4600  0.3213 -0.2053
 1270TIP3    H1 3732   5.967   5.951   7.169  0.3093  0.1107 -0.5236
 1270TIP3    H2 3733   5.954   5.801   7.182 -0.3490  0.1888 -0.2739
 1271TIP3   OH2 3734   8.130   4.950   4.601 -0.3414  0.7344 -0.7248
 1271TIP3    H1 3735   8.181   4.921   4.676  0.9162  2.9492 -0.6774
 1271TIP3    H2 3736   8.039   4.952   4.632  0.1601  1.6021  0.7535
 1272TIP3   OH2 3737   2.338   4.815   1.511  0.7063 -0.3202 -0.8322
 1272TIP3    H1 3738   2.356   4.821   1.605 -1.7446 -0.6156 -0.3029
 1272TIP3    H2 3739   2.290   4.733   1.502  0.5762 -0.0873 -2.2967
 1273TIP3   OH2 3740   0.479   5.386   2.024 -0.2228  0.1961  0.9661
 1273TIP3    H1 3741   0.387   5.406   2.005 -0.3720  0.4980  1.9578
 1273TIP3    H2 3742   0.514   5.468   2.062  0.1312 -0.2845  1.6952
 1274TIP3   OH2 3743   6.874   1.503   6.953 -0.5773 -0.2149  0.0382
 1274TIP3    H1 3744   6.893   1.576   7.012  0.1472 -0.2441 -0.1525
 1274TIP3    H2 3745   6.853   1.430   7.010 -2.6632  0.4940  0.2206
 1275TIP3   OH2 3746   2.081   4.576   0.934  0.2095  0.4639 -0.0152
 1275TIP3    H1 3747   2.111   4.661   0.901  0.6511  0.8791  1.4106
 1275TIP3    H2 3748   2.160   4.521   0.933  0.3233  0.6167  0.7956
 1276TIP3   OH2 3749   0.941   4.959   2.154 -0.1712  0.0818  0.3007
 1276TIP3    H1 3750   1.035   4.946   2.169 -0.5709 -3.0284  0.3369
 1276TIP3    H2 3751   0.929   4.942   2.061 -0.8808 -0.6403  0.5241
 1277TIP3   OH2 3752   1.871   4.135   0.257  0.1000 -0.4975  0.4983
 1277TIP3    H1 3753   1.937   4.201   0.278  0.5683 -0.7166 -0.2907
 1277TIP3    H2 3754   1.854   4.146   0.164 -1.0709 -0.3641  0.7241
 1278TIP3   OH2 3755   8.119   2.122   1.040 -0.7127  0.5705  0.2147
 1278TIP3    H1 3756   8.090   2.079   1.120 -1.4107  0.3971 -0.1258
 1278TIP3    H2 3757   8.209   2.093   1.028 -1.0001 -0.3515  0.2821
 1279TIP3   OH2 3758   1.364   3.299   2.136  0.0078 -0.0619  0.2679
 1279TIP3    H1 3759   1.337   3.295   2.227  2.4852 -1.0817  0.9928
 1279TIP3    H2 3760   1.413   3.382   2.129 -1.6089  0.8382 -0.5577
 1280TIP3   OH2 3761   6.710   1.213   5.407 -0.0411  0.2971 -0.4005
 1280TIP3    H1 3762   6.632   1.261   5.379 -0.1048  0.2829 -0.2435
 1280TIP3    H2 3763   6.683   1.166   5.485  0.0365  0.0383 -0.5283
 1281TIP3   OH2 3764   8.650   4.566   1.862 -0.1444  0.2283  0.2078
 1281TIP3    H1 3765   8.616   4.653   1.880  2.9756  1.2328  1.4631
 1281TIP3    H2 3766   8.720   4.553   1.926 -0.3024 -3.0615 -0.1886
 1282TIP3   OH2 3767   0.081   4.637   1.776  0.4342 -0.2684 -0.4222
 1282TIP3    H1 3768   0.041   4.611   1.860 -0.1941  0.4234 -0.5113
 1282TIP3    H2 3769   0.007   4.656   1.719  0.8992  1.7691 -0.3577
 1283TIP3   OH2 3770   1.309   4.877   2.629 -0.2393  0.0720  0.7588
 1283TIP3    H1 3771   1.294   4.965   2.663  0.6819 -0.2553  2.0962
 1283TIP3    H2 3772   1.374   4.840   2.689 -0.3610 -1.3916  0.0058
 1284TIP3   OH2 3773   1.209   5.609   2.611 -0.2565  0.6993  0.2195
 1284TIP3    H1 3774   1.131   5.559   2.589 -0.2113  0.2395  1.0917
 1284TIP3    H2 3775   1.242   5.568   2.691  0.2361  1.6091  0.4856
 1285TIP3   OH2 3776   2.685   2.391   1.591 -0.0751 -0.4000 -0.4922
 1285TIP3    H1 3777   2.771   2.419   1.623  0.7233 -1.5394 -1.6104
 1285TIP3    H2 3778   2.640   2.473   1.569  1.5223  0.1185 -1.9137
 1286TIP3   OH2 3779   0.355   5.574   0.520 -0.1394 -0.4176 -0.4716
 1286TIP3    H1 3780   0.393   5.509   0.580 -1.1966 -0.8962 -0.3153
 1286TIP3    H2 3781   0.401   5.560   0.437 -0.3339 -1.3482 -0.4308
 1287TIP3   OH2 3782   2.919   5.628   2.221  0.3103 -0.6452 -0.1369
 1287TIP3    H1 3783   2.938   5.715   2.186  1.9617 -1.1275 -0.4619
 1287TIP3    H2 3784   2.852   5.593   2.163 -1.2409  0.8704  0.7086
 1288TIP3   OH2 3785   2.636   5.501   1.048  0.2095  0.7286  0.0808
 1288TIP3    H1 3786   2.604   5.591   1.042 -0.2777  0.5076 -0.8031
 1288TIP3    H2 3787   2.695   5.491   0.974 -1.7799 -0.4631 -1.3886
 1289TIP3   OH2 3788   6.059   3.426   2.759  0.2204  0.2394  0.1852
 1289TIP3    H1 3789   5.980   3.480   2.758  0.2023  0.2222  0.5419
 1289TIP3    H2 3790   6.034   3.346   2.711  1.0060  1.5754 -2.5451
 1290TIP3   OH2 3791   7.254   3.004   6.384 -0.1136  0.1858  0.1896
 1290TIP3    H1 3792   7.206   2.957   6.315  1.8426 -2.1658  0.3567
 1290TIP3    H2 3793   7.204   2.985   6.463 -1.0705  0.9725 -0.2142
 1291TIP3   OH2 3794   0.604   5.475   1.172 -0.1568 -0.1308 -0.1695
 1291TIP3    H1 3795   0.525   5.515   1.135 -0.9876  0.7083  2.4291
 1291TIP3    H2 3796   0.578   5.385   1.193 -0.0676 -0.2124 -0.4084
 1292TIP3   OH2 3797   1.565   3.482   1.278  0.0924 -0.1347  0.1401
 1292TIP3    H1 3798   1.547   3.455   1.368  3.8175  0.7643  1.2361
 1292TIP3    H2 3799   1.565   3.577   1.281  0.0337 -0.0963 -0.8790
 1293TIP3   OH2 3800   8.409   2.904   1.910  0.0275 -0.0027  0.1376
 1293TIP3    H1 3801   8.455   2.974   1.957 -1.5044  1.3778 -0.3679
 1293TIP3    H2 3802   8.327   2.894   1.958  0.2750 -1.5183  0.2457
 1294TIP3   OH2 3803   7.624   5.510   3.120 -0.3393  0.6408 -0.1454
 1294TIP3    H1 3804   7.573   5.443   3.166  0.7287 -0.6262 -0.7934
 1294TIP3    H2 3805   7.604   5.498   3.028 -0.5157  1.5336 -0.2296
 1295TIP3   OH2 3806   0.610   5.840   1.803  0.0174  0.1532  0.1969
 1295TIP3    H1 3807   0.523   5.807   1.824 -1.1455  1.0891 -2.7916
 1295TIP3    H2 3808   0.656   5.765   1.765  0.0369  0.0044  0.5155
 1296TIP3   OH2 3809   0.951   2.873   2.059 -0.6290  0.7522 -0.0845
 1296TIP3    H1 3810   1.009   2.831   1.996 -2.0654 -1.5071  0.0243
 1296TIP3    H2 3811   0.986   2.845   2.144 -0.0880  1.8731  0.0644
 1297TIP3   OH2 3812   7.442   3.842   3.997 -0.0396 -0.2582 -0.4757
 1297TIP3    H1 3813   7.507   3.801   4.055 -0.2454  1.6471  1.1885
 1297TIP3    H2 3814   7.489   3.858   3.916  2.1148  2.5019  1.2107
 1298TIP3   OH2 3815   8.912   7.136   0.208 -0.3080 -0.2733 -0.7788
 1298TIP3    H1 3816   8.894   7.071   0.141 -1.8241  1.3464 -1.9833
 1298TIP3    H2 3817   8.881   7.097   0.289 -1.6762 -0.8422 -1.5650
 1299TIP3   OH2 3818   0.785   4.212   1.018 -0.0411 -0.0411  0.0901
 1299TIP3    H1 3819   0.701   4.181   0.984  0.0411  0.1097 -0.2519
 1299TIP3    H2 3820   0.834   4.131   1.035 -0.0831 -0.1181 -0.1482
 1300TIP3   OH2 3821   1.242   5.323   3.303  0.1589  0.1915  0.0412
 1300TIP3    H1 3822   1.248   5.230   3.324  1.0669  0.7476  2.4490
 1300TIP3    H2 3823   1.188   5.360   3.372  3.2069  2.1165  1.5185
 1301TIP3   OH2 3824   7.321   0.637   6.472  0.0738 -0.1015 -0.3879
 1301TIP3    H1 3825   7.319   0.643   6.376 -0.7420  0.6510 -0.3269
 1301TIP3    H2 3826   7.373   0.558   6.489 -0.5268 -0.7584 -1.4676
 1302TIP3   OH2 3827   0.237   5.208   3.967  0.1834 -0.2704 -0.5551
 1302TIP3    H1 3828   0.142   5.219   3.958  0.2731  1.0587  0.0010
 1302TIP3    H2 3829   0.274   5.259   3.894  0.4985  0.1739 -0.0915
 1303TIP3   OH2 3830   2.738   6.973   0.158 -0.0776  0.0367 -0.3879
 1303TIP3    H1 3831   2.774   6.963   0.246 -0.6675  0.0511 -0.1440
 1303TIP3    H2 3832   2.667   7.036   0.167  1.1587  1.5819 -1.2422
 1304TIP3   OH2 3833   0.519   5.598   0.906 -1.0346 -0.1514 -0.2149
 1304TIP3    H1 3834   0.593   5.575   0.850  0.3883 -0.4672  1.7539
 1304TIP3    H2 3835   0.532   5.690   0.928 -0.4738 -0.5660  1.2315
 1305TIP3   OH2 3836   0.746   3.685   2.001 -0.2193  0.2545  0.0785
 1305TIP3    H1 3837   0.822   3.691   2.059 -0.1934  0.5320  0.0151
 1305TIP3    H2 3838   0.732   3.591   1.990 -1.1995  0.1679  1.7975
 1306TIP3   OH2 3839   7.537   4.799   3.302  0.6382  0.7275 -0.1225
 1306TIP3    H1 3840   7.575   4.720   3.262 -1.3656 -0.3143 -0.0376
 1306TIP3    H2 3841   7.479   4.834   3.235  0.9881  1.7520  0.1051
 1307TIP3   OH2 3842   2.579   3.875   0.371  0.1111  0.1076 -0.9964
 1307TIP3    H1 3843   2.558   3.951   0.318  0.9926  0.2332 -1.1667
 1307TIP3    H2 3844   2.673   3.860   0.357  0.2027 -0.2861 -0.0380
 1308TIP3   OH2 3845   1.850   5.315   3.416 -0.0646  0.6865  0.2237
 1308TIP3    H1 3846   1.874   5.229   3.380  0.2285  0.9396 -0.1892
 1308TIP3    H2 3847   1.797   5.294   3.493 -0.1438  0.1336  0.0264
 1309TIP3   OH2 3848   7.184   0.778   7.170 -0.0192  0.1664  0.1634
 1309TIP3    H1 3849   7.116   0.784   7.237  1.7432  0.7853  1.9330
 1309TIP3    H2 3850   7.139   0.741   7.094 -2.4895  1.2075  1.0558
 1310TIP3   OH2 3851   0.428   7.867   1.050  0.6352 -0.1121 -0.2046
 1310TIP3    H1 3852   0.394   7.854   0.962  0.1689 -1.3170  0.1419
 1310TIP3    H2 3853   0.514   7.824   1.049 -0.8582 -3.2184  0.9120
 1311TIP3   OH2 3854   1.399   3.497   0.481 -0.4100  0.2001 -0.5448
 1311TIP3    H1 3855   1.482   3.459   0.453  0.0694  1.0652 -0.3024
 1311TIP3    H2 3856   1.375   3.556   0.409 -0.8057 -0.0322 -0.6045
 1312TIP3   OH2 3857   8.291   4.318   3.008 -0.5686 -0.0369  0.3636
 1312TIP3    H1 3858   8.367   4.301   2.952 -0.3329  0.8439  0.4034
 1312TIP3    H2 3859   8.297   4.252   3.077  0.7038  0.6151  0.8918
 1313TIP3   OH2 3860   0.617   6.045   1.605 -0.3940 -0.0172  0.4176
 1313TIP3    H1 3861   0.626   6.131   1.645  1.0811 -0.0069  0.0644
 1313TIP3    H2 3862   0.575   5.991   1.673  0.5821  0.4279  1.3757
 1314TIP3   OH2 3863   0.978   4.400   1.022 -0.2980  0.2529  0.0774
 1314TIP3    H1 3864   0.931   4.329   0.978  0.2471  1.6033 -2.8486
 1314TIP3    H2 3865   0.914   4.439   1.081 -1.7709 -0.2106 -1.1860
 1315TIP3   OH2 3866   1.342   5.147   1.495  0.3093  0.7533  0.9408
 1315TIP3    H1 3867   1.249   5.130   1.511  0.6879  0.4115  2.8702
 1315TIP3    H2 3868   1.379   5.060   1.476  0.6554  0.5521  2.4692
 1316TIP3   OH2 3869   0.049   3.271   0.065  0.0705  0.1927 -0.0421
 1316TIP3    H1 3870  -0.014   3.202   0.086 -0.0753  0.5145  0.5689
 1316TIP3    H2 3871   0.134   3.230   0.080 -0.0147  0.1364  0.2945
 1317TIP3   OH2 3872   8.590   5.301   2.891 -0.7541 -0.0297 -0.4859
 1317TIP3    H1 3873   8.677   5.263   2.874 -0.6243  0.5805 -1.2097
 1317TIP3    H2 3874   8.531   5.251   2.835 -0.6115  0.6859 -1.2865
 1318TIP3   OH2 3875   8.798   5.396   2.164 -0.0321  0.1692  0.1102
 1318TIP3    H1 3876   8.851   5.330   2.208  1.2486  0.7637 -0.5257
 1318TIP3    H2 3877   8.856   5.472   2.157 -0.2878  0.1553 -2.4063
 1319TIP3   OH2 3878   8.531   4.072   2.740 -0.4837 -0.1144 -0.5852
 1319TIP3    H1 3879   8.595   4.016   2.784 -0.1494  0.4460 -0.3501
 1319TIP3    H2 3880   8.567   4.085   2.652 -0.4225 -0.0447 -0.5502
 1320TIP3   OH2 3881   8.533   3.693   3.406 -0.4630  0.4269  0.0471
 1320TIP3    H1 3882   8.598   3.755   3.374  0.7866 -0.6044  0.5215
 1320TIP3    H2 3883   8.531   3.623   3.341  1.0306 -0.9577  1.4287
 1321TIP3   OH2 3884   0.484   4.113   2.912  0.1260 -0.6108  0.0770
 1321TIP3    H1 3885   0.551   4.044   2.920 -0.2286 -0.9316  0.3164
 1321TIP3    H2 3886   0.482   4.134   2.819  0.7452 -0.4137  0.1005
 1322TIP3   OH2 3887   4.272   7.745   6.635  0.2755  0.7184 -0.0625
 1322TIP3    H1 3888   4.242   7.667   6.680  0.3525  1.1389  0.7253
 1322TIP3    H2 3889   4.365   7.729   6.619  0.3097  0.6820  0.1717
 1323TIP3   OH2 3890   0.651   4.969   0.521  0.1868 -0.2020 -0.6746
 1323TIP3    H1 3891   0.579   5.032   0.516 -0.0437 -0.5770 -2.3208
 1323TIP3    H2 3892   0.723   5.011   0.475  0.1058 -1.0211 -1.5672
 1324TIP3   OH2 3893   8.359   3.191   1.212  0.2147 -0.4242 -0.0514
 1324TIP3    H1 3894   8.396   3.103   1.223 -0.5772 -0.9881 -1.8193
 1324TIP3    H2 3895   8.268   3.182   1.238  0.3019  0.0575  0.4450
 1325TIP3   OH2 3896   0.314   4.921   1.074  0.3086  0.2099 -0.0576
 1325TIP3    H1 3897   0.366   4.841   1.062 -0.2528 -0.3889  1.4593
 1325TIP3    H2 3898   0.373   4.991   1.048  1.3135 -0.5962  0.0056
 1326TIP3   OH2 3899   1.481   3.541   0.751 -0.4022 -0.6709  0.0375
 1326TIP3    H1 3900   1.435   3.468   0.792  2.4408 -2.5248  0.0365
 1326TIP3    H2 3901   1.445   3.545   0.662 -1.1253 -1.5358  0.2829
 1327TIP3   OH2 3902   8.872   5.828   0.373 -0.3298  0.5732 -0.0724
 1327TIP3    H1 3903   8.837   5.745   0.341  1.3670  0.6753 -2.2769
 1327TIP3    H2 3904   8.943   5.803   0.432 -0.9519  0.4593  0.6447
 1328TIP3   OH2 3905   0.800   2.531   0.700  0.1739 -0.2022 -0.6047
 1328TIP3    H1 3906   0.881   2.577   0.676  0.6778  0.3539  1.9936
 1328TIP3    H2 3907   0.830   2.445   0.730 -0.1071  0.1807  0.8386
 1329TIP3   OH2 3908   8.550   5.688   2.668  0.4769 -0.1178  0.0797
 1329TIP3    H1 3909   8.554   5.752   2.739 -0.5103  2.2381 -1.9105
 1329TIP3    H2 3910   8.462   5.651   2.676  0.3867  0.1029  0.1343
 1330TIP3   OH2 3911   7.520   2.783   2.396 -0.0611  0.2644 -0.0168
 1330TIP3    H1 3912   7.502   2.785   2.302 -1.2752 -0.4051  0.1866
 1330TIP3    H2 3913   7.446   2.735   2.434  0.5858  0.2281  1.2450
 1331TIP3   OH2 3914   8.706   4.430   3.066  0.3237  0.2692 -0.3767
 1331TIP3    H1 3915   8.694   4.370   2.992  0.6470 -0.5474  0.2211
 1331TIP3    H2 3916   8.723   4.372   3.141 -1.6423  1.0180  0.6721
 1332TIP3   OH2 3917   1.728   2.954   2.068 -0.2756  0.1466 -0.2166
 1332TIP3    H1 3918   1.660   3.014   2.098 -0.0609 -0.8691  2.4674
 1332TIP3    H2 3919   1.804   3.010   2.050 -0.3080  0.7940  1.5559
 1333TIP3   OH2 3920   8.710   3.397   0.777 -0.1488 -0.3287 -0.0487
 1333TIP3    H1 3921   8.674   3.459   0.841 -1.0742 -0.3314 -0.5620
 1333TIP3    H2 3922   8.804   3.416   0.776 -0.2255  0.1311  0.8135
 1334TIP3   OH2 3923   0.333   4.025   1.981  0.2109  0.4782 -0.1745
 1334TIP3    H1 3924   0.259   3.978   2.020 -0.4779  1.1446 -0.6689
 1334TIP3    H2 3925   0.407   3.966   1.994 -0.6931 -0.9020 -1.0517
 1335TIP3   OH2 3926   0.416   3.512   2.885  0.2872 -0.3081  0.0485
 1335TIP3    H1 3927   0.358   3.460   2.940  0.6198  0.3339  1.0108
 1335TIP3    H2 3928   0.375   3.511   2.799 -1.1548  0.1388  0.7225
 1336TIP3   OH2 3929   0.863   6.342   1.134 -0.1762 -0.1313  0.4519
 1336TIP3    H1 3930   0.864   6.250   1.110 -0.8247 -0.3576  1.2713
 1336TIP3    H2 3931   0.833   6.387   1.055 -0.1811 -0.6483  0.1542
 1337TIP3   OH2 3932   0.818   4.359   1.253  0.1502 -0.4038 -0.2937
 1337TIP3    H1 3933   0.791   4.308   1.177 -0.3095 -2.4487  1.1695
 1337TIP3    H2 3934   0.740   4.361   1.309  1.2407 -1.3287  1.3360
 1338TIP3   OH2 3935   0.439   5.967   2.855  0.0650 -0.6994  0.1824
 1338TIP3    H1 3936   0.497   5.891   2.860  0.8885 -0.0908  0.0259
 1338TIP3    H2 3937   0.494   6.041   2.882 -0.8541 -0.2262  0.7772
 1339TIP3   OH2 3938   8.687   7.164   3.354 -0.0286  0.4776 -0.3337
 1339TIP3    H1 3939   8.702   7.212   3.436 -1.3188  2.0811 -1.0053
 1339TIP3    H2 3940   8.675   7.233   3.288 -1.0805 -0.7841 -1.4851
 1340TIP3   OH2 3941   8.759   2.837   6.211 -0.2862 -0.2454  0.1693
 1340TIP3    H1 3942   8.848   2.804   6.223  0.1814  0.7476 -0.4724
 1340TIP3    H2 3943   8.718   2.828   6.297  0.7924  0.3030  0.7454
 1341TIP3   OH2 3944   0.251   4.298   0.986 -0.1847 -0.8585 -0.0565
 1341TIP3    H1 3945   0.209   4.221   0.948 -0.9874  0.5201 -1.9888
 1341TIP3    H2 3946   0.287   4.346   0.912 -1.2221  1.5650  0.9556
 1342TIP3   OH2 3947   1.825   4.678   3.809  0.7100  0.5094 -0.7588
 1342TIP3    H1 3948   1.770   4.693   3.732 -0.7516 -0.0702  0.1570
 1342TIP3    H2 3949   1.779   4.722   3.881 -0.7574 -3.3942  0.8445
 1343TIP3   OH2 3950   8.910   5.050   3.077 -0.5409 -0.4948  0.0589
 1343TIP3    H1 3951   8.898   5.089   2.990 -0.1776 -2.9756 -1.1258
 1343TIP3    H2 3952   8.825   5.010   3.097 -0.6077  0.0178  0.8568
 1344TIP3   OH2 3953   8.321   2.809   2.233 -0.3841 -0.8298 -0.1269
 1344TIP3    H1 3954   8.340   2.721   2.201 -0.7903 -0.8462 -0.3219
 1344TIP3    H2 3955   8.269   2.850   2.164 -0.2601 -0.4635 -0.0050
 1345TIP3   OH2 3956   1.173   4.788   2.401 -0.2971 -0.3560 -0.2013
 1345TIP3    H1 3957   1.100   4.742   2.444 -0.0455  0.6698  1.3769
 1345TIP3    H2 3958   1.233   4.807   2.473  1.8124 -1.6903 -1.5635
 1346TIP3   OH2 3959   8.693   5.402   2.535  0.1904  0.1463 -0.1714
 1346TIP3    H1 3960   8.653   5.375   2.452  1.0115  3.2424 -1.6423
 1346TIP3    H2 3961   8.621   5.440   2.585 -0.3563 -1.9486  0.6706
 1347TIP3   OH2 3962   2.478   5.392   0.775  0.1100 -0.8646 -0.0743
 1347TIP3    H1 3963   2.564   5.431   0.760 -0.6343  0.3585 -1.3458
 1347TIP3    H2 3964   2.484   5.305   0.734  1.3372 -1.5630  1.5482
 1348TIP3   OH2 3965   0.928   4.093   2.020  0.2682 -0.5032 -0.4073
 1348TIP3    H1 3966   1.012   4.111   1.977  0.1674 -0.3000 -0.5242
 1348TIP3    H2 3967   0.864   4.097   1.949  0.1953 -0.9361 -0.3615
 1349TIP3   OH2 3968   0.373   6.382   0.522  0.8381 -0.4189 -0.4985
 1349TIP3    H1 3969   0.287   6.370   0.483  1.2575 -1.6580 -1.0442
 1349TIP3    H2 3970   0.425   6.425   0.454 -0.2043  3.1847  0.8958
 1350TIP3   OH2 3971   0.240   4.646   0.936 -0.0093  0.2956  0.7981
 1350TIP3    H1 3972   0.335   4.645   0.945 -0.0640 -0.7428  1.3314
 1350TIP3    H2 3973   0.222   4.723   0.882  1.0846  0.8438  1.1966
 1351TIP3   OH2 3974   7.208   2.063   6.848  0.0218 -0.0839 -0.3732
 1351TIP3    H1 3975   7.230   2.072   6.941  0.4233 -0.3028 -0.4454
 1351TIP3    H2 3976   7.189   1.969   6.837  0.4728 -0.1508 -0.6160
 1352TIP3   OH2 3977   7.627   4.352   2.025  0.0479 -0.1160 -0.0130
 1352TIP3    H1 3978   7.645   4.347   2.119  0.1370  1.4628  0.0607
 1352TIP3    H2 3979   7.622   4.446   2.007  1.4039 -0.3843 -1.8449
 1353TIP3   OH2 3980   0.057   1.738   0.731 -0.5357 -0.3586 -0.1565
 1353TIP3    H1 3981   0.072   1.791   0.652  0.9629 -0.2643  0.1660
 1353TIP3    H2 3982  -0.035   1.752   0.752 -0.3454  1.5717 -0.4969
 1354TIP3   OH2 3983   8.891   4.466   0.872 -0.4428 -0.5121  0.2409
 1354TIP3    H1 3984   8.953   4.449   0.942 -0.6086 -2.4722 -0.0433
 1354TIP3    H2 3985   8.807   4.435   0.906 -0.3030 -2.6712 -1.2425
 1355TIP3   OH2 3986   8.621   7.222   1.861 -0.5121  0.3484 -0.1764
 1355TIP3    H1 3987   8.651   7.173   1.937 -2.3265 -1.0651 -0.3124
 1355TIP3    H2 3988   8.641   7.166   1.786  0.6469  1.4253 -0.6819
 1356TIP3   OH2 3989   0.151   4.819   3.031  0.0403  0.2898 -0.3326
 1356TIP3    H1 3990   0.091   4.750   3.059  0.2519 -0.6653 -2.1507
 1356TIP3    H2 3991   0.100   4.900   3.042 -0.8478 -0.3166  0.1112
 1357TIP3   OH2 3992   8.378   2.337   2.653 -0.1602  0.1820  0.4464
 1357TIP3    H1 3993   8.288   2.305   2.652 -0.1052  0.0366  0.3304
 1357TIP3    H2 3994   8.421   2.286   2.722 -0.0850  0.0327  0.2906
 1358TIP3   OH2 3995   8.698   5.851   3.112  0.0322 -0.0182  0.1258
 1358TIP3    H1 3996   8.691   5.812   3.199  0.5085 -0.7964 -0.1874
 1358TIP3    H2 3997   8.792   5.855   3.094 -0.0006  1.4009  0.2153
 1359TIP3   OH2 3998   0.663   4.032   1.229  0.0305 -0.0445 -0.1863
 1359TIP3    H1 3999   0.676   4.042   1.135  0.2340 -1.6867 -0.3507
 1359TIP3    H2 4000   0.596   4.097   1.251 -1.5219 -1.0299 -1.8341
 1360TIP3   OH2 4001   1.356   3.064   1.141 -0.1844  0.0599  0.1086
 1360TIP3    H1 4002   1.351   2.973   1.172 -1.7041  0.0317 -0.1995
 1360TIP3    H2 4003   1.315   3.115   1.211 -0.5747  0.3551 -0.3334
 1361TIP3   OH2 4004   1.355   7.722   1.909  0.0274 -0.2502  0.0547
 1361TIP3    H1 4005   1.449   7.712   1.926 -0.1409  0.1971  1.2986
 1361TIP3    H2 4006   1.350   7.744   1.816  1.2726  1.3271  0.3391
 1362TIP3   OH2 4007   0.835   4.895   3.171 -0.6085  0.2620  0.2925
 1362TIP3    H1 4008   0.865   4.818   3.121 -0.2567 -0.0451  0.9675
 1362TIP3    H2 4009   0.880   4.969   3.130  0.3815 -0.0942  0.7139
 1363TIP3   OH2 4010   1.755   1.729   1.420  0.5204  0.1115  0.3015
 1363TIP3    H1 4011   1.786   1.714   1.509  0.4985  1.5168  0.5504
 1363TIP3    H2 4012   1.694   1.657   1.403  1.9337 -1.2246  0.7361
 1364TIP3   OH2 4013   3.437   6.883   0.448  0.1466 -0.4386  0.1120
 1364TIP3    H1 4014   3.491   6.960   0.465  0.3213 -0.2639 -1.1632
 1364TIP3    H2 4015   3.491   6.809   0.475  0.5251 -0.1876  0.0457
 1365TIP3   OH2 4016   8.237   6.088   0.056  0.1641 -0.3609  1.3150
 1365TIP3    H1 4017   8.183   6.009   0.055 -0.2851 -0.0414  0.4385
 1365TIP3    H2 4018   8.189   6.149   0.112 -1.6805  0.8235 -1.4812
 1366TIP3   OH2 4019   8.239   3.598   1.107  0.0814 -0.1956  0.0745
 1366TIP3    H1 4020   8.259   3.582   1.199 -0.2086  0.0471  0.1817
 1366TIP3    H2 4021   8.172   3.666   1.109 -0.4694 -0.7200 -0.2837
 1367TIP3   OH2 4022   5.743   1.938   6.960 -0.6005 -0.2286 -0.0473
 1367TIP3    H1 4023   5.778   1.849   6.956  1.7535  0.6367  0.3787
 1367TIP3    H2 4024   5.740   1.958   7.054  0.6021  0.7769 -0.2133
 1368TIP3   OH2 4025   8.668   4.134   2.439  0.1950 -0.2562 -0.1624
 1368TIP3    H1 4026   8.752   4.138   2.484 -0.8163  0.3105  1.7149
 1368TIP3    H2 4027   8.656   4.222   2.403 -0.9433  0.5491  2.1116
 1369TIP3   OH2 4028   8.536   4.651   2.184  0.0141 -0.3156  0.2502
 1369TIP3    H1 4029   8.471   4.636   2.253 -0.3401 -0.9398 -0.2030
 1369TIP3    H2 4030   8.491   4.708   2.121 -0.2284 -1.0375 -0.2389
 1370TIP3   OH2 4031   1.040   5.314   2.706  0.0120  0.0466  0.3307
 1370TIP3    H1 4032   1.083   5.350   2.783 -1.3373 -2.1716  2.1730
 1370TIP3    H2 4033   1.016   5.225   2.731 -1.6466 -0.2664 -2.1818
 1371TIP3   OH2 4034   1.244   5.424   2.324 -0.8025  0.3487  0.0286
 1371TIP3    H1 4035   1.169   5.440   2.381 -1.4818  0.2393 -0.8312
 1371TIP3    H2 4036   1.211   5.366   2.256  0.3103 -0.4618  0.1708
 1372TIP3   OH2 4037   1.847   7.225   2.835  0.1119 -1.0063 -0.3013
 1372TIP3    H1 4038   1.827   7.298   2.894 -0.6183 -1.5507  0.1331
 1372TIP3    H2 4039   1.936   7.243   2.804  0.3273 -0.4780  0.6059
 1373TIP3   OH2 4040   1.423   4.517   0.524  0.0555  0.0285  0.0193
 1373TIP3    H1 4041   1.343   4.553   0.485 -0.2036 -0.4354  0.1187
 1373TIP3    H2 4042   1.447   4.444   0.466 -1.2751 -1.7531  1.6583
 1374TIP3   OH2 4043   8.784   3.681   1.921  0.0027  0.8244 -0.6108
 1374TIP3    H1 4044   8.782   3.724   2.007  0.2235 -0.5440  0.0939
 1374TIP3    H2 4045   8.780   3.753   1.858  0.4133  1.8791  0.5483
 1375TIP3   OH2 4046   0.554   6.695   2.015  0.1315  0.1048 -0.2153
 1375TIP3    H1 4047   0.469   6.702   2.060  0.5733 -0.9677  0.7974
 1375TIP3    H2 4048   0.531   6.672   1.925 -0.6743  0.4476 -0.1086
 1376TIP3   OH2 4049   7.827   2.236   4.437 -0.1031 -0.1382 -0.0388
 1376TIP3    H1 4050   7.868   2.278   4.361  0.0411 -0.3965 -0.1052
 1376TIP3    H2 4051   7.895   2.236   4.504  0.2305 -1.1567 -0.3611
 1377TIP3   OH2 4052   2.597   2.701   1.198  0.8048 -0.1406  0.3539
 1377TIP3    H1 4053   2.510   2.731   1.174  1.9095  1.4590 -1.8845
 1377TIP3    H2 4054   2.624   2.644   1.126  0.2607 -3.5215  2.7285
 1378TIP3   OH2 4055   0.307   4.713   2.178 -0.4135 -0.8030 -0.0808
 1378TIP3    H1 4056   0.219   4.704   2.214 -0.4116 -1.4795 -0.2308
 1378TIP3    H2 4057   0.313   4.804   2.151  0.4122  0.4218  3.8013
 1379TIP3   OH2 4058   8.370   5.499   2.660 -0.1958  0.0532 -0.5183
 1379TIP3    H1 4059   8.340   5.475   2.572  1.1116 -1.4688 -0.5608
 1379TIP3    H2 4060   8.400   5.417   2.698  0.3697  0.9200  0.9264
 1380TIP3   OH2 4061   8.869   6.705   0.444  0.2684 -0.1783 -0.4840
 1380TIP3    H1 4062   8.784   6.661   0.443  0.3955 -0.4209 -0.8864
 1380TIP3    H2 4063   8.911   6.676   0.363 -0.0367  1.4158 -1.2394
 1381TIP3   OH2 4064   0.953   4.407   1.497  0.0768 -0.0300 -0.6415
 1381TIP3    H1 4065   0.925   4.413   1.405 -1.8576 -2.3635 -0.2714
 1381TIP3    H2 4066   0.890   4.462   1.544  1.2489  1.4072 -0.7002
 1382TIP3   OH2 4067   8.485   6.749   1.536 -0.5211  0.5480  0.1855
 1382TIP3    H1 4068   8.547   6.681   1.562 -0.5263  0.4618 -0.0274
 1382TIP3    H2 4069   8.455   6.787   1.618 -2.0446 -1.0498  0.3893
 1383TIP3   OH2 4070   0.306   5.452   5.062 -0.0687  0.2691  0.5587
 1383TIP3    H1 4071   0.270   5.523   5.009 -2.3873 -0.6892  0.7490
 1383TIP3    H2 4072   0.289   5.478   5.152  2.7652  1.3257  0.8336
 1384TIP3   OH2 4073   8.152   4.773   2.894 -0.9679  0.3283 -0.1874
 1384TIP3    H1 4074   8.206   4.696   2.878 -1.0634  0.2154  0.0347
 1384TIP3    H2 4075   8.152   4.783   2.989 -1.9217 -0.0811 -0.1397
 1385TIP3   OH2 4076   4.091   3.759   1.584 -0.2722 -0.2271  0.3617
 1385TIP3    H1 4077   4.086   3.710   1.502  0.3256  1.2091 -0.5508
 1385TIP3    H2 4078   4.068   3.849   1.560  0.2144  0.2731  1.7042
 1386TIP3   OH2 4079   1.467   4.002   1.306  1.2865  0.0303 -0.0187
 1386TIP3    H1 4080   1.499   3.992   1.396  0.1601 -1.2285  0.2437
 1386TIP3    H2 4081   1.382   4.046   1.315  1.6555  0.8781 -0.5491
 1387TIP3   OH2 4082   0.343   4.475   1.947 -0.4505  0.2395 -0.3857
 1387TIP3    H1 4083   0.271   4.517   1.898 -1.6477 -1.0398  0.2261
 1387TIP3    H2 4084   0.390   4.547   1.988 -1.1930  1.1277 -1.0667
 1388TIP3   OH2 4085   1.250   5.789   1.791  0.3033  1.4405  0.6042
 1388TIP3    H1 4086   1.296   5.714   1.753 -1.6590  0.4218  0.1832
 1388TIP3    H2 4087   1.209   5.832   1.716 -0.9366  1.2909  1.1958
 1389TIP3   OH2 4088   1.025   4.294   3.234 -0.0266  0.2378 -0.4765
 1389TIP3    H1 4089   1.090   4.323   3.170  1.3775  0.8609  1.2172
 1389TIP3    H2 4090   1.070   4.231   3.289 -0.4055  1.7557  1.6209
 1390TIP3   OH2 4091   0.783   6.516   1.980 -0.2990 -0.3960  0.0469
 1390TIP3    H1 4092   0.702   6.484   2.020 -0.6529 -1.7273 -1.6706
 1390TIP3    H2 4093   0.755   6.594   1.931 -0.4658 -0.5929 -0.1749
 1391TIP3   OH2 4094   1.973   6.455   1.737 -0.4619  0.2386  0.2628
 1391TIP3    H1 4095   1.928   6.430   1.656 -1.0876 -0.5799  0.8491
 1391TIP3    H2 4096   1.971   6.551   1.737 -0.3891  0.2482 -0.7226
 1392TIP3   OH2 4097   2.710   6.062   1.169 -0.5750  0.4595  0.2543
 1392TIP3    H1 4098   2.663   6.042   1.250 -0.9505 -0.5983 -0.2124
 1392TIP3    H2 4099   2.801   6.078   1.197 -1.1234  2.1573  1.1106
 1393TIP3   OH2 4100   4.893   8.089   7.240  0.2006  0.2938  0.0011
 1393TIP3    H1 4101   4.961   8.053   7.184  0.4902  0.1107  0.4726
 1393TIP3    H2 4102   4.882   8.025   7.310 -0.6200  0.2126 -0.2011
 1394TIP3   OH2 4103   0.689   4.166   2.132  0.4019  0.5968 -0.2200
 1394TIP3    H1 4104   0.648   4.095   2.081 -0.3159  0.6322  0.2976
 1394TIP3    H2 4105   0.783   4.156   2.116  0.6153 -2.4961  2.3937
 1395TIP3   OH2 4106   2.582   6.077   0.918 -0.0621 -0.1901 -0.4921
 1395TIP3    H1 4107   2.622   6.152   0.872 -0.7845  1.4469  1.4615
 1395TIP3    H2 4108   2.631   6.070   0.999  1.0327 -2.9029 -1.3516
 1396TIP3   OH2 4109   1.191   4.549   0.875  0.0870  0.9786 -0.1807
 1396TIP3    H1 4110   1.129   4.554   0.803 -0.2246 -0.7658 -0.0485
 1396TIP3    H2 4111   1.164   4.472   0.925  1.0213  1.4794  1.1301
 1397TIP3   OH2 4112   3.082   2.560   1.508  0.7004  0.0709  0.4774
 1397TIP3    H1 4113   3.041   2.482   1.544 -0.3887  0.4645  0.1252
 1397TIP3    H2 4114   3.040   2.572   1.423 -0.0230  1.7186  1.0508
 1398TIP3   OH2 4115   0.672   5.359   1.496  0.3336 -0.0759  0.2097
 1398TIP3    H1 4116   0.582   5.339   1.471  0.7047 -1.7066  0.1008
 1398TIP3    H2 4117   0.665   5.429   1.560 -0.9955 -0.0401  0.0347
 1399TIP3   OH2 4118   1.193   4.313   0.259 -0.1599 -0.2423  0.2149
 1399TIP3    H1 4119   1.120   4.316   0.198 -0.9581 -1.5832  1.0691
 1399TIP3    H2 4120   1.269   4.339   0.207 -0.9250 -0.7269 -1.1871
 1400TIP3   OH2 4121   8.651   3.403   2.216 -0.1158  0.1791  0.3417
 1400TIP3    H1 4122   8.566   3.436   2.246 -0.7522  0.0629 -1.2443
 1400TIP3    H2 4123   8.646   3.308   2.230 -1.7526 -0.3406 -3.1189
 1401TIP3   OH2 4124   1.624   5.143   2.921 -0.2894 -0.3757  0.1422
 1401TIP3    H1 4125   1.702   5.165   2.972  1.2743 -2.0000 -1.4799
 1401TIP3    H2 4126   1.590   5.227   2.892  1.1993  0.3264  0.3903
 1402TIP3   OH2 4127   2.595   2.610   1.469  0.1173 -0.5196 -0.4573
 1402TIP3    H1 4128   2.677   2.658   1.455  0.3091 -0.9940 -0.9891
 1402TIP3    H2 4129   2.553   2.609   1.384 -0.3222 -0.5065 -0.2417
 1403TIP3   OH2 4130   4.267   7.771   6.221 -0.2059  0.5525  0.0439
 1403TIP3    H1 4131   4.353   7.811   6.234 -0.2396  0.5354  0.3181
 1403TIP3    H2 4132   4.286   7.685   6.183  0.0409 -0.5272  2.5066
 1404TIP3   OH2 4133   2.074   4.317   0.381  0.1805  0.4384  0.0770
 1404TIP3    H1 4134   2.148   4.332   0.321  0.2604 -0.1346  0.0335
 1404TIP3    H2 4135   2.071   4.396   0.434  0.0801  0.9792 -0.7171
 1405TIP3   OH2 4136   8.727   5.125   3.352  0.0790  0.1269  0.1485
 1405TIP3    H1 4137   8.757   5.124   3.261 -0.0218 -1.8767  0.1008
 1405TIP3    H2 4138   8.690   5.212   3.364  0.2044  0.4665 -1.6869
 1406TIP3   OH2 4139   2.297   5.574   0.897 -0.0331 -0.4744 -0.4240
 1406TIP3    H1 4140   2.341   5.504   0.849  1.1780  0.1063 -0.1896
 1406TIP3    H2 4141   2.311   5.553   0.989  0.1919 -0.0373 -0.3522
 1407TIP3   OH2 4142   1.712   3.188   1.081 -0.1122 -0.0316  0.0867
 1407TIP3    H1 4143   1.708   3.116   1.017 -0.5533  0.1740 -0.1230
 1407TIP3    H2 4144   1.649   3.252   1.048  0.7896  0.7660 -0.1111
 1408TIP3   OH2 4145   1.014   5.451   0.738 -0.1403 -0.5213  0.2478
 1408TIP3    H1 4146   1.020   5.465   0.832  0.7979  0.2118  0.0783
 1408TIP3    H2 4147   1.091   5.397   0.717 -0.3624 -0.7062 -0.0945
 1409TIP3   OH2 4148   2.082   5.341   1.591  0.8199 -0.3497  0.2600
 1409TIP3    H1 4149   2.114   5.360   1.679 -2.1011 -0.7064  1.4598
 1409TIP3    H2 4150   2.137   5.268   1.560  3.1334  1.0572  0.9854
 1410TIP3   OH2 4151   1.812   3.101   1.744 -0.3858  0.2675  0.3588
 1410TIP3    H1 4152   1.863   3.145   1.813 -0.7361  1.0735  0.1185
 1410TIP3    H2 4153   1.819   3.160   1.669  0.2536 -0.7654 -0.3960
 1411TIP3   OH2 4154   8.771   4.331   1.278 -0.1514  0.1599  0.7317
 1411TIP3    H1 4155   8.862   4.331   1.249 -0.4101  1.2628 -0.1092
 1411TIP3    H2 4156   8.769   4.268   1.351  1.3452  0.4051  0.9976
 1412TIP3   OH2 4157   1.687   3.506   2.036 -0.2259  0.6029  0.5925
 1412TIP3    H1 4158   1.699   3.439   2.104  0.2561 -0.1967 -0.2791
 1412TIP3    H2 4159   1.758   3.569   2.052  1.4771 -0.9143 -0.7245
 1413TIP3   OH2 4160   8.406   4.276   2.454  0.1441 -0.0604  0.7489
 1413TIP3    H1 4161   8.362   4.326   2.385 -0.2580  0.4314  1.3535
 1413TIP3    H2 4162   8.341   4.214   2.485  0.3608 -0.3577  0.6069
 1414TIP3   OH2 4163   1.019   1.220   5.502 -0.6224  0.1947 -0.5015
 1414TIP3    H1 4164   1.094   1.185   5.549 -0.6064 -0.7121 -1.1702
 1414TIP3    H2 4165   0.961   1.254   5.570  0.1841  0.4779  0.0452
 1415TIP3   OH2 4166   8.781   3.143   2.175  0.6640  0.5951  0.2849
 1415TIP3    H1 4167   8.816   3.113   2.091  1.1944 -1.3972  1.1843
 1415TIP3    H2 4168   8.858   3.155   2.230  0.1050 -1.7922  1.6330
 1416TIP3   OH2 4169   8.760   6.079   2.211  0.2074 -0.3214  0.2267
 1416TIP3    H1 4170   8.839   6.045   2.253 -1.1358 -0.7113  2.4987
 1416TIP3    H2 4171   8.697   6.091   2.282 -1.7059  0.2765 -1.4915
 1417TIP3   OH2 4172   7.332   4.024   7.152 -0.2889 -0.4385 -0.2529
 1417TIP3    H1 4173   7.371   3.971   7.083 -0.5661  1.1213 -1.6327
 1417TIP3    H2 4174   7.397   4.091   7.171 -0.1898 -0.8931  1.0548
 1418TIP3   OH2 4175   8.127   5.795   1.764  0.1016  0.4378  0.2600
 1418TIP3    H1 4176   8.067   5.862   1.731  0.5980 -0.0287 -1.6191
 1418TIP3    H2 4177   8.194   5.845   1.812  0.9645  1.3866 -1.8861
 1419TIP3   OH2 4178   0.401   6.663   1.701  0.8272  0.1297  0.2147
 1419TIP3    H1 4179   0.337   6.613   1.753  1.0603  0.5002  0.8647
 1419TIP3    H2 4180   0.369   6.657   1.611 -0.0599  0.2101  0.5216
 1420TIP3   OH2 4181   1.826   4.207   2.532  0.1128  0.0890  0.3284
 1420TIP3    H1 4182   1.881   4.158   2.470  3.1805  1.1955  2.0645
 1420TIP3    H2 4183   1.888   4.261   2.581 -2.4550  0.6506  3.0724
 1421TIP3   OH2 4184   0.179   6.283   0.876 -0.4844 -0.2954 -0.4204
 1421TIP3    H1 4185   0.236   6.360   0.872 -1.0826  0.1493 -0.5098
 1421TIP3    H2 4186   0.091   6.319   0.867 -0.8226 -0.9026  0.4119
 1422TIP3   OH2 4187   1.827   5.827   1.935  0.7099 -0.0890  0.5552
 1422TIP3    H1 4188   1.797   5.743   1.969  3.3875 -1.0752  0.5704
 1422TIP3    H2 4189   1.894   5.855   1.997  1.4717  0.9511 -0.7246
 1423TIP3   OH2 4190   2.763   4.172   0.249 -0.1517 -0.3684 -0.0335
 1423TIP3    H1 4191   2.669   4.170   0.230  0.2376  1.2988 -2.4542
 1423TIP3    H2 4192   2.798   4.092   0.210 -0.4438 -0.6090  0.1967
 1424TIP3   OH2 4193   4.062   0.534   2.356  0.1102 -0.2037 -0.4616
 1424TIP3    H1 4194   4.023   0.458   2.399  2.1941 -1.5743 -0.9343
 1424TIP3    H2 4195   4.065   0.511   2.263 -0.8191  1.1685 -0.8489
 1425TIP3   OH2 4196   7.865   2.339   6.122  0.1841  0.4631  0.4959
 1425TIP3    H1 4197   7.816   2.271   6.077  0.5481  0.2875  0.3637
 1425TIP3    H2 4198   7.885   2.404   6.054  0.2581  0.4653  0.5197
 1426TIP3   OH2 4199   0.366   4.671   2.526  0.7146  0.0397  0.9365
 1426TIP3    H1 4200   0.368   4.711   2.439 -0.1032  0.1295  0.9494
 1426TIP3    H2 4201   0.403   4.737   2.584  3.7704 -1.0181  0.3034
 1427TIP3   OH2 4202   2.007   6.485   0.082  0.5186 -0.3135  0.0255
 1427TIP3    H1 4203   1.964   6.403   0.059 -0.8960 -0.3951  2.7420
 1427TIP3    H2 4204   2.082   6.459   0.135  0.1934  0.1063  0.7093
 1428TIP3   OH2 4205   2.655   7.016   1.063  0.4707  0.2695  0.3531
 1428TIP3    H1 4206   2.652   6.933   1.110  1.0159  1.5370  2.6967
 1428TIP3    H2 4207   2.747   7.041   1.064 -0.0468  2.2647  2.1770
 1429TIP3   OH2 4208   6.122   3.968   1.744 -0.6475  0.0376  0.2707
 1429TIP3    H1 4209   6.139   4.015   1.662 -2.9805 -0.3513 -0.4867
 1429TIP3    H2 4210   6.160   3.881   1.730 -0.8466  0.0397 -0.3439
 1430TIP3   OH2 4211   1.521   4.678   1.605 -0.1300 -0.4194  0.0826
 1430TIP3    H1 4212   1.572   4.696   1.684  0.0739 -0.4925 -0.0320
 1430TIP3    H2 4213   1.581   4.629   1.548  0.2725  1.1131 -0.8292
 1431TIP3   OH2 4214   0.623   3.432   1.967 -0.3078 -0.5175 -0.7866
 1431TIP3    H1 4215   0.536   3.436   1.928 -0.1281 -0.8815 -1.2324
 1431TIP3    H2 4216   0.608   3.442   2.061 -0.6841  1.1299 -0.9992
 1432TIP3   OH2 4217   0.748   5.509   1.731  0.0763  0.2000  0.5335
 1432TIP3    H1 4218   0.789   5.592   1.708 -1.0517  0.7745  0.5193
 1432TIP3    H2 4219   0.819   5.456   1.767  0.9027  1.0000  0.1037
 1433TIP3   OH2 4220   4.062   1.925   2.580  0.3985  0.0990  0.0722
 1433TIP3    H1 4221   4.087   1.863   2.512 -0.5928  0.4525 -0.6171
 1433TIP3    H2 4222   4.144   1.945   2.625  0.8843 -0.9459 -0.3365
 1434TIP3   OH2 4223   0.766   6.332   2.516 -0.1256 -0.3899 -0.0856
 1434TIP3    H1 4224   0.732   6.275   2.447  0.0491  0.2103 -0.6746
 1434TIP3    H2 4225   0.860   6.315   2.518 -0.1625 -0.5769  0.1707
 1435TIP3   OH2 4226   1.823   5.756   0.854 -0.2139 -0.2774  0.3211
 1435TIP3    H1 4227   1.902   5.703   0.840  0.0716  0.6417 -1.7030
 1435TIP3    H2 4228   1.789   5.727   0.939  1.7497 -1.3795  0.7509
 1436TIP3   OH2 4229   1.335   7.065   0.676 -0.1679  0.3418  0.0962
 1436TIP3    H1 4230   1.287   7.026   0.604 -0.9422  1.9121 -0.2603
 1436TIP3    H2 4231   1.313   7.011   0.752 -0.4388 -0.4875 -0.5720
 1437TIP3   OH2 4232   6.008   7.711   6.220 -0.4082  0.7010 -0.0554
 1437TIP3    H1 4233   6.007   7.784   6.282 -3.2076 -0.7514  1.7053
 1437TIP3    H2 4234   5.952   7.739   6.148  0.7605  1.3452 -0.7437
 1438TIP3   OH2 4235   1.100   2.041   6.657 -0.1383 -0.0659 -0.0875
 1438TIP3    H1 4236   1.144   2.007   6.734  0.2302  3.4843  1.3517
 1438TIP3    H2 4237   1.157   2.017   6.584  2.1211  0.8802  1.3181
 1439TIP3   OH2 4238   8.323   0.833   7.269  0.6806 -0.2195  0.0578
 1439TIP3    H1 4239   8.346   0.829   7.176  0.3062 -3.4009  0.0342
 1439TIP3    H2 4240   8.228   0.849   7.269  0.3793 -1.8570 -0.1953
 1440TIP3   OH2 4241   2.608   0.934   5.115  0.0093  0.5643 -0.1719
 1440TIP3    H1 4242   2.570   1.001   5.172  2.9568  0.4200  2.1121
 1440TIP3    H2 4243   2.571   0.952   5.028 -0.7535  3.9225  0.7746
 1441TIP3   OH2 4244   1.120   0.194   6.139 -0.2103 -0.3783 -0.1162
 1441TIP3    H1 4245   1.198   0.144   6.113 -0.2291 -1.1866  1.3490
 1441TIP3    H2 4246   1.147   0.285   6.134  0.2371 -0.5762 -1.5133
 1442TIP3   OH2 4247   1.288   3.848   1.791 -0.5737  0.3283  0.2202
 1442TIP3    H1 4248   1.258   3.859   1.701 -0.4169  0.2282  0.1564
 1442TIP3    H2 4249   1.270   3.933   1.833  0.2970  0.7145 -0.1774
 1443TIP3   OH2 4250   8.241   4.424   1.774  0.1620 -0.3199 -0.1462
 1443TIP3    H1 4251   8.154   4.393   1.747 -0.1437 -1.1531  1.6946
 1443TIP3    H2 4252   8.228   4.456   1.864  1.7620 -0.5086  0.1685
 1444TIP3   OH2 4253   7.594   2.308   6.613  0.4948  0.3656  0.3500
 1444TIP3    H1 4254   7.530   2.296   6.683 -0.9212  0.8560 -0.8100
 1444TIP3    H2 4255   7.540   2.323   6.535  2.0355  0.1742 -0.7709
 1445TIP3   OH2 4256   8.009   1.830   6.914 -0.1880 -0.2003 -0.3236
 1445TIP3    H1 4257   8.027   1.889   6.841 -0.0134 -0.0726 -0.1784
 1445TIP3    H2 4258   7.960   1.884   6.977  0.1485 -0.1532 -0.1018
 1446TIP3   OH2 4259   4.578   6.117   0.835 -0.4405  0.5148 -0.0205
 1446TIP3    H1 4260   4.538   6.201   0.857  1.1054  0.7828  1.9733
 1446TIP3    H2 4261   4.666   6.139   0.805 -0.8274 -0.2422 -1.7477
 1447TIP3   OH2 4262   6.474   5.140   0.440  0.1208  0.4109  0.0613
 1447TIP3    H1 4263   6.498   5.072   0.504 -0.5595 -0.4958 -0.6311
 1447TIP3    H2 4264   6.538   5.131   0.370  0.5702  1.0834  0.3837
 1448TIP3   OH2 4265   2.770   2.094   0.945  0.5046  0.0079  0.6883
 1448TIP3    H1 4266   2.739   2.014   0.903 -0.5150 -0.4103  2.2046
 1448TIP3    H2 4267   2.824   2.064   1.018  0.1934  0.7080  1.2077
 1449TIP3   OH2 4268   3.388   2.635   1.333  0.5485  0.6983  0.0294
 1449TIP3    H1 4269   3.346   2.576   1.270  2.1156  0.3962 -0.7582
 1449TIP3    H2 4270   3.383   2.721   1.292 -1.3006  1.0549  0.9591
 1450TIP3   OH2 4271   8.483   1.078   4.882 -0.2438  0.2841  0.4742
 1450TIP3    H1 4272   8.513   1.044   4.966 -0.3336  0.9728  0.7936
 1450TIP3    H2 4273   8.530   1.161   4.872 -0.5030  0.3774  0.0149
 1451TIP3   OH2 4274   4.716   8.181   6.537  0.1451 -0.1997 -0.2407
 1451TIP3    H1 4275   4.638   8.235   6.551  0.1378  0.4771 -2.6347
 1451TIP3    H2 4276   4.682   8.093   6.525 -0.1334 -0.1485  0.1508
 1452TIP3   OH2 4277   1.265   0.955   6.241  0.1121  0.5393 -0.6890
 1452TIP3    H1 4278   1.348   0.999   6.259 -0.2102  1.5678 -1.6769
 1452TIP3    H2 4279   1.250   0.900   6.319  0.7410  1.8303  0.3674
 1453TIP3   OH2 4280   3.968   4.657   0.205  0.3711  0.0839  0.4862
 1453TIP3    H1 4281   3.990   4.675   0.114  0.1837 -0.1103  0.4034
 1453TIP3    H2 4282   3.924   4.736   0.236 -0.1200 -0.0957  0.2320
 1454TIP3   OH2 4283   0.973   0.959   7.213  0.6073 -0.4554  0.0810
 1454TIP3    H1 4284   0.947   0.981   7.302 -0.6723  2.6548 -0.9910
 1454TIP3    H2 4285   1.031   1.030   7.186  0.4423 -0.9828 -1.7583
 1455TIP3   OH2 4286   1.285   4.635   1.289 -0.3721  0.6510 -0.3221
 1455TIP3    H1 4287   1.354   4.594   1.236 -0.1475  0.8772 -0.2087
 1455TIP3    H2 4288   1.271   4.575   1.361 -0.3551  0.5602 -0.3948
 1456TIP3   OH2 4289   0.558   0.988   5.544  0.1680 -0.0777  0.3881
 1456TIP3    H1 4290   0.611   0.981   5.464 -0.0538 -1.1593  0.3304
 1456TIP3    H2 4291   0.586   1.071   5.583  1.4911 -0.3474  0.0545
 1457TIP3   OH2 4292   0.924   4.093   0.762 -0.1245  0.2223  0.3457
 1457TIP3    H1 4293   1.015   4.121   0.773 -0.1338  0.4919 -0.2422
 1457TIP3    H2 4294   0.873   4.163   0.803 -0.0208 -0.7119  2.1434
 1458TIP3   OH2 4295   6.805   4.554   1.254 -0.6746  0.2168  0.2262
 1458TIP3    H1 4296   6.806   4.479   1.313  1.9009  0.2694  0.2949
 1458TIP3    H2 4297   6.782   4.518   1.169  1.7054 -0.9011  0.0015
 1459TIP3   OH2 4298   6.668   3.340   6.871  0.8212 -0.3916  0.3680
 1459TIP3    H1 4299   6.648   3.294   6.953  0.9388 -0.7211  0.2108
 1459TIP3    H2 4300   6.670   3.271   6.805  1.8016 -0.2676  0.2649
 1460TIP3   OH2 4301   4.283   6.192   1.649  0.5885 -0.8646 -0.4262
 1460TIP3    H1 4302   4.257   6.156   1.564  2.5568 -1.9064 -0.6301
 1460TIP3    H2 4303   4.259   6.124   1.712  0.3407 -0.6664 -0.3091
 1461TIP3   OH2 4304   3.676   0.982   6.539 -0.1798  0.0117 -0.3541
 1461TIP3    H1 4305   3.721   0.897   6.540  1.2531  0.7727  0.5682
 1461TIP3    H2 4306   3.671   1.008   6.631 -0.7633  0.8628 -0.6207
 1462TIP3   OH2 4307   3.039   4.076   1.752 -0.5487 -0.2274  0.0974
 1462TIP3    H1 4308   2.956   4.113   1.781 -0.2398  0.1962  0.4574
 1462TIP3    H2 4309   3.105   4.120   1.806 -0.0565 -0.2572 -0.4756
 1463TIP3   OH2 4310   6.302   7.584   7.040 -0.0410  0.1310  0.1319
 1463TIP3    H1 4311   6.317   7.493   7.013 -0.4472 -0.1339  0.7925
 1463TIP3    H2 4312   6.384   7.629   7.018 -0.1595 -0.2028 -1.0022
 1464TIP3   OH2 4313   0.140   3.493   6.729 -0.5779 -0.0671 -0.0146
 1464TIP3    H1 4314   0.090   3.507   6.648  0.5309 -0.8729 -0.8606
 1464TIP3    H2 4315   0.201   3.423   6.707  1.6794  1.6361  0.6655
 1465TIP3   OH2 4316   0.766   0.594   5.066 -0.2085  0.1272 -0.4969
 1465TIP3    H1 4317   0.763   0.526   4.999 -0.9932 -0.1344 -0.2120
 1465TIP3    H2 4318   0.749   0.547   5.148  0.3100  0.5074 -0.1707
 1466TIP3   OH2 4319   4.854   2.924   0.843  0.0216  0.0349 -0.9012
 1466TIP3    H1 4320   4.931   2.869   0.832 -1.4900 -2.0781 -1.3237
 1466TIP3    H2 4321   4.784   2.876   0.799 -1.9151  1.0335  0.9592
 1467TIP3   OH2 4322   0.591   0.928   6.285 -0.0074  0.2237  0.3036
 1467TIP3    H1 4323   0.686   0.913   6.285 -0.5095 -3.6918 -0.1726
 1467TIP3    H2 4324   0.572   0.962   6.373  1.6272 -0.8422  1.1047
 1468TIP3   OH2 4325   7.299   7.352   6.211 -0.1762 -0.1314 -0.2278
 1468TIP3    H1 4326   7.304   7.263   6.176  1.0595  0.6305 -2.0940
 1468TIP3    H2 4327   7.211   7.382   6.189  0.2002 -0.0729 -1.7007
 1469TIP3   OH2 4328   8.413   0.987   5.738  0.0658  0.5930 -0.0611
 1469TIP3    H1 4329   8.357   0.909   5.736  0.7451  0.1111 -0.4059
 1469TIP3    H2 4330   8.481   0.970   5.673 -0.3633  1.9174 -0.8777
 1470TIP3   OH2 4331   4.519   7.219   6.747  0.2963 -0.0584  0.1741
 1470TIP3    H1 4332   4.466   7.163   6.804 -0.0238  0.0274 -0.0439
 1470TIP3    H2 4333   4.607   7.215   6.786 -0.1842  0.9913  1.3881
 1471TIP3   OH2 4334   2.682   2.736   0.395  0.3473  0.3509 -0.2594
 1471TIP3    H1 4335   2.749   2.725   0.328  2.3151  0.5007  1.6436
 1471TIP3    H2 4336   2.689   2.827   0.422 -1.2938  0.6281 -0.7125
 1472TIP3   OH2 4337   7.190   8.201   6.273  0.1319 -0.4303 -0.3288
 1472TIP3    H1 4338   7.239   8.256   6.334  1.8888 -1.0644 -1.1295
 1472TIP3    H2 4339   7.240   8.205   6.191 -0.9857 -1.3474 -1.0820
 1473TIP3   OH2 4340   1.702   4.574   0.221 -0.1647  0.0656  0.2640
 1473TIP3    H1 4341   1.710   4.512   0.149 -2.5682  1.3112 -1.1689
 1473TIP3    H2 4342   1.785   4.620   0.223  0.6752 -1.3767 -0.3641
 1474TIP3   OH2 4343   5.621   8.175   3.928  0.0783  0.0752 -0.1885
 1474TIP3    H1 4344   5.695   8.182   3.868  0.4572  0.3633  0.3105
 1474TIP3    H2 4345   5.658   8.195   4.014 -0.5882  0.2524  0.0556
 1475TIP3   OH2 4346   7.645   0.576   6.476  0.1958 -0.0037 -0.5174
 1475TIP3    H1 4347   7.637   0.506   6.541  0.0898 -0.9696 -1.5721
 1475TIP3    H2 4348   7.651   0.656   6.529 -2.5354 -0.5120  0.6744
 1476TIP3   OH2 4349   8.018   8.068   5.181  0.0481  0.0345  0.1725
 1476TIP3    H1 4350   8.075   7.992   5.169  0.5781  0.4071  0.2722
 1476TIP3    H2 4351   8.077   8.137   5.212 -0.7056  0.0461  1.5969
 1477TIP3   OH2 4352   0.489   4.475   0.087  0.1267 -0.2381  0.1160
 1477TIP3    H1 4353   0.490   4.535   0.013  0.9600 -0.8927 -0.4170
 1477TIP3    H2 4354   0.432   4.403   0.059 -0.0332 -0.2015  0.3451
 1478TIP3   OH2 4355   1.983   1.454   5.543 -0.0697 -0.2634 -0.5684
 1478TIP3    H1 4356   2.015   1.460   5.633 -2.3472 -1.8790  0.3648
 1478TIP3    H2 4357   2.062   1.468   5.490  1.5504 -0.6275  1.6493
 1479TIP3   OH2 4358   1.088   1.362   6.471  0.0766  0.3284  0.3146
 1479TIP3    H1 4359   1.182   1.343   6.468 -0.0023 -0.1502  1.0830
 1479TIP3    H2 4360   1.074   1.402   6.557 -0.5836 -0.3869  0.5350
 1480TIP3   OH2 4361   3.608   4.307   1.899 -0.2004 -0.0322 -0.4902
 1480TIP3    H1 4362   3.665   4.230   1.894 -1.2886 -0.9021  0.2761
 1480TIP3    H2 4363   3.649   4.363   1.965 -0.8385 -1.1744  0.8983
 1481TIP3   OH2 4364   1.258   4.018   0.433  0.2248 -0.1385  0.1885
 1481TIP3    H1 4365   1.250   3.941   0.489 -0.4173  0.7793  1.3879
 1481TIP3    H2 4366   1.352   4.030   0.422  0.3236 -2.7036 -2.3042
 1482TIP3   OH2 4367   2.277   6.302   0.036  0.0278  0.5499 -0.2393
 1482TIP3    H1 4368   2.266   6.375   0.097 -0.7777 -1.0899  1.6453
 1482TIP3    H2 4369   2.366   6.270   0.052  0.5193  1.3522 -1.3388
 1483TIP3   OH2 4370   7.949   0.819   6.419  0.0335  0.5769  0.3604
 1483TIP3    H1 4371   7.965   0.725   6.413  0.6227  0.6823  0.1932
 1483TIP3    H2 4372   7.892   0.830   6.495 -1.3115 -0.0650 -0.5480
 1484TIP3   OH2 4373   3.856   6.068   0.766 -0.2404  0.1586  0.3142
 1484TIP3    H1 4374   3.840   6.154   0.727 -1.8643 -1.0471 -1.7488
 1484TIP3    H2 4375   3.787   6.059   0.832 -0.1585  0.3543  0.4295
 1485TIP3   OH2 4376   1.395   2.881   6.753 -0.1255 -0.5162  0.1513
 1485TIP3    H1 4377   1.360   2.913   6.669  1.7931  0.3231 -0.3640
 1485TIP3    H2 4378   1.487   2.864   6.735 -0.0892 -1.9919  1.6639
 1486TIP3   OH2 4379   8.806   0.822   5.990  0.5576 -0.4116 -0.4520
 1486TIP3    H1 4380   8.849   0.786   6.068 -0.1305  0.4102  0.3276
 1486TIP3    H2 4381   8.824   0.916   5.995 -0.2557 -0.2377 -0.7948
 1487TIP3   OH2 4382   3.693   4.495   2.442 -0.4380 -0.4115  0.2997
 1487TIP3    H1 4383   3.686   4.446   2.524  0.6781 -2.4929 -0.8033
 1487TIP3    H2 4384   3.776   4.543   2.450  0.1853 -1.4243 -0.0216
 1488TIP3   OH2 4385   7.751   0.786   6.635  0.6351 -0.3759 -0.5733
 1488TIP3    H1 4386   7.786   0.849   6.699  1.2520  1.1707 -2.3979
 1488TIP3    H2 4387   7.660   0.812   6.624 -0.0871 -1.9959  1.2635
 1489TIP3   OH2 4388   1.730   4.323   0.712  0.3762  0.1697  0.1343
 1489TIP3    H1 4389   1.799   4.287   0.656  0.7267 -0.0031  0.6798
 1489TIP3    H2 4390   1.710   4.253   0.774  0.3511  0.5477  0.5561
 1490TIP3   OH2 4391   2.803   4.328   1.474 -0.1635 -0.2261  0.0330
 1490TIP3    H1 4392   2.737   4.341   1.406  0.0405  0.9140  0.0455
 1490TIP3    H2 4393   2.808   4.233   1.484 -1.2491 -0.3531 -0.5038
 1491TIP3   OH2 4394   4.035   4.702   1.718 -0.2512  0.5101 -0.2359
 1491TIP3    H1 4395   4.091   4.764   1.764 -2.4571  0.8648  2.0694
 1491TIP3    H2 4396   3.968   4.757   1.677  0.6213  0.0350 -2.3668
 1492TIP3   OH2 4397   1.224   4.296   1.131 -0.2589  0.8806  0.3386
 1492TIP3    H1 4398   1.217   4.301   1.226 -0.9844  0.6189  0.3030
 1492TIP3    H2 4399   1.152   4.351   1.099 -0.3592  0.5163 -0.0593
 1493TIP3   OH2 4400   2.324   4.287   0.665 -0.7363  0.2658 -0.0114
 1493TIP3    H1 4401   2.326   4.240   0.748  3.9074  1.7905  0.9083
 1493TIP3    H2 4402   2.360   4.226   0.601  0.8136  0.9136  0.2258
 1494TIP3   OH2 4403   7.415   0.682   6.074  0.0707 -0.2264 -0.3719
 1494TIP3    H1 4404   7.466   0.607   6.103  0.2132 -0.6057 -1.5881
 1494TIP3    H2 4405   7.394   0.664   5.982 -0.9230  0.6524 -0.3319
 1495TIP3   OH2 4406   4.507   4.172   2.325 -0.1267  0.5558  0.0109
 1495TIP3    H1 4407   4.524   4.122   2.245  2.3312  0.0911  0.7831
 1495TIP3    H2 4408   4.543   4.118   2.395 -1.1237  1.5479  1.3124
 1496TIP3   OH2 4409   3.152   3.940   1.551 -0.4726  0.4658  0.6448
 1496TIP3    H1 4410   3.108   3.970   1.631  0.0015 -0.2854  1.1936
 1496TIP3    H2 4411   3.081   3.911   1.494 -0.8530  1.5807  0.5523
 1497TIP3   OH2 4412   4.226   1.964   5.507 -0.2811 -0.2704 -0.1303
 1497TIP3    H1 4413   4.310   1.994   5.473 -0.2881  1.5419  1.3544
 1497TIP3    H2 4414   4.232   1.869   5.508  2.1655 -0.1379  0.9468
 1498TIP3   OH2 4415   2.461   4.219   2.502 -0.1024 -0.0235 -0.1066
 1498TIP3    H1 4416   2.483   4.306   2.468 -0.0197  0.0541  0.1434
 1498TIP3    H2 4417   2.538   4.165   2.482 -0.8070 -0.4498 -1.7225
 1499TIP3   OH2 4418   2.910   5.713   0.300 -0.8042  0.6407 -0.2648
 1499TIP3    H1 4419   2.870   5.657   0.234  0.3820  2.0752 -2.2734
 1499TIP3    H2 4420   2.905   5.663   0.382 -1.7059 -1.4406 -1.5771
 1500TIP3   OH2 4421   8.657   2.996   6.643  0.7109  0.4313 -0.6110
 1500TIP3    H1 4422   8.672   2.932   6.713  2.6511 -1.7226 -2.9314
 1500TIP3    H2 4423   8.696   3.077   6.676 -0.6727  0.1498  1.8427
 1501TIP3   OH2 4424   2.054   3.283   0.245 -0.3450  0.1468  0.4209
 1501TIP3    H1 4425   2.039   3.357   0.303 -1.7647  1.1477 -1.1805
 1501TIP3    H2 4426   1.969   3.240   0.237 -0.2123  0.1299 -1.0408
 1502TIP3   OH2 4427   0.169   1.261   6.803  0.5953  0.2671 -0.0275
 1502TIP3    H1 4428   0.146   1.255   6.710 -3.3541 -0.9335  0.9470
 1502TIP3    H2 4429   0.245   1.203   6.812 -0.5090 -1.5717 -2.0613
 1503TIP3   OH2 4430   4.473   3.912   1.030  0.1241 -0.3334  0.4431
 1503TIP3    H1 4431   4.397   3.855   1.026  0.2950 -0.6216  1.2000
 1503TIP3    H2 4432   4.442   3.996   0.997 -0.6254 -0.3354  1.1370
 1504TIP3   OH2 4433   3.984   2.094   0.497  0.2193  0.7779  0.2827
 1504TIP3    H1 4434   3.919   2.031   0.526  0.7652  0.4047  0.6977
 1504TIP3    H2 4435   4.060   2.041   0.471  0.6440  1.2411  0.5486
 1505TIP3   OH2 4436   6.852   7.894   7.019  0.2129 -0.0731 -0.4950
 1505TIP3    H1 4437   6.796   7.817   7.030  1.5305 -1.0180 -0.2689
 1505TIP3    H2 4438   6.814   7.959   7.078 -0.2921 -0.8985  0.1166
 1506TIP3   OH2 4439   2.102   5.642   1.465  0.1299  0.0877 -0.4283
 1506TIP3    H1 4440   2.186   5.649   1.510  0.6813  0.5441 -1.5056
 1506TIP3    H2 4441   2.069   5.555   1.489  0.1363  0.5639  1.3057
 1507TIP3   OH2 4442   0.471   0.742   7.163  0.0160 -0.6811 -0.2465
 1507TIP3    H1 4443   0.538   0.808   7.181  0.7590 -1.2356 -0.9703
 1507TIP3    H2 4444   0.390   0.792   7.156  0.0534 -0.1878  2.3256
 1508TIP3   OH2 4445   1.044   1.044   6.078  0.3460  0.6532 -0.4097
 1508TIP3    H1 4446   1.043   1.138   6.095 -1.1910  0.3741  1.1110
 1508TIP3    H2 4447   1.131   1.015   6.108  0.2586  1.3500  0.5367
 1509TIP3   OH2 4448   0.914   7.502   0.120  0.1698 -0.0527 -0.2220
 1509TIP3    H1 4449   0.945   7.444   0.051  0.3918 -0.1054 -0.0761
 1509TIP3    H2 4450   0.991   7.520   0.174 -0.1718 -0.6386  0.4678
 1510TIP3   OH2 4451   3.938   6.737   1.142  0.2843 -0.1777  0.4161
 1510TIP3    H1 4452   3.984   6.763   1.222 -0.3591  0.3137  0.6362
 1510TIP3    H2 4453   3.845   6.745   1.165  0.0936 -0.7789 -0.1400
 1511TIP3   OH2 4454   1.152   6.042   0.852  0.0158 -0.0658  0.3176
 1511TIP3    H1 4455   1.155   5.953   0.887  1.9342  0.2984  1.1443
 1511TIP3    H2 4456   1.156   6.031   0.757  1.2495 -0.8200  0.4585
 1512TIP3   OH2 4457   1.829   5.560   1.077 -0.1672  0.8518  0.1936
 1512TIP3    H1 4458   1.856   5.491   1.138 -1.1821  1.2851  1.1531
 1512TIP3    H2 4459   1.733   5.555   1.077 -0.2461  2.2635  0.2709
 1513TIP3   OH2 4460   1.446   5.814   0.428  0.4280 -0.1590 -0.2991
 1513TIP3    H1 4461   1.440   5.906   0.404 -0.4471 -0.0027  0.4763
 1513TIP3    H2 4462   1.424   5.811   0.521 -1.5795 -1.3564 -0.7609
 1514TIP3   OH2 4463   7.585   7.555   5.096  0.0593 -0.1196 -0.9028
 1514TIP3    H1 4464   7.665   7.502   5.096 -0.9033 -1.6874  2.1001
 1514TIP3    H2 4465   7.541   7.532   5.013  1.2250 -1.5839 -1.1423
 1515TIP3   OH2 4466   2.653   4.474   0.093  0.2621  0.1138 -0.1551
 1515TIP3    H1 4467   2.716   4.435   0.153 -0.2894 -1.5365 -0.6234
 1515TIP3    H2 4468   2.593   4.522   0.150  2.0169  1.8443  0.2763
 1516TIP3   OH2 4469   2.517   4.644   0.270 -0.3404  0.2798  0.4519
 1516TIP3    H1 4470   2.502   4.611   0.358 -0.6634  1.5715  0.8839
 1516TIP3    H2 4471   2.444   4.703   0.253 -0.4362 -0.1819 -0.7995
 1517TIP3   OH2 4472   4.592   4.005   1.293  0.4776  0.2430  0.0232
 1517TIP3    H1 4473   4.630   3.943   1.354 -1.2035 -1.4801 -0.6391
 1517TIP3    H2 4474   4.558   3.952   1.221 -1.3308  1.8698 -0.3844
 1518TIP3   OH2 4475   1.197   7.558   0.867 -0.0982 -0.0610  0.1833
 1518TIP3    H1 4476   1.190   7.544   0.773 -0.2084  2.4517 -0.2131
 1518TIP3    H2 4477   1.283   7.522   0.890  1.4470  2.4194 -1.5201
 1519TIP3   OH2 4478   6.868   1.688   7.162  0.1280  0.3629  0.1853
 1519TIP3    H1 4479   6.890   1.646   7.245  0.5604  0.5447  0.1611
 1519TIP3    H2 4480   6.912   1.773   7.166 -0.0999  0.4951 -0.1013
 1520TIP3   OH2 4481   5.016   8.218   5.482  0.0672  0.2738  0.0583
 1520TIP3    H1 4482   4.975   8.296   5.520 -3.4350 -1.9677  1.1296
 1520TIP3    H2 4483   5.000   8.225   5.388 -0.6882  0.6031  0.2108
 1521TIP3   OH2 4484   4.569   4.691   1.009  0.4003 -0.2378  0.0384
 1521TIP3    H1 4485   4.543   4.610   1.054 -1.1498  0.7635  1.0262
 1521TIP3    H2 4486   4.492   4.715   0.957  1.1810  0.1203 -0.9595
 1522TIP3   OH2 4487   5.813   3.923   2.489  0.1827  0.2156  0.1188
 1522TIP3    H1 4488   5.894   3.972   2.477 -0.1857  0.9911  0.7581
 1522TIP3    H2 4489   5.769   3.929   2.404  1.8750 -2.2248 -0.9597
 1523TIP3   OH2 4490   3.892   6.153   1.217 -0.3211  0.2228  0.2544
 1523TIP3    H1 4491   3.838   6.117   1.288  0.5352 -1.3412  0.1341
 1523TIP3    H2 4492   3.882   6.248   1.226 -1.2290  0.0219  1.6799
 1524TIP3   OH2 4493   4.999   3.957   1.001  0.0205 -0.0530 -0.2967
 1524TIP3    H1 4494   4.919   3.976   0.952 -0.6733 -0.2078  0.7480
 1524TIP3    H2 4495   4.975   3.883   1.057  1.2127 -0.7760 -0.7320
 1525TIP3   OH2 4496   8.540   2.957   5.068  0.3173 -0.3303 -0.5294
 1525TIP3    H1 4497   8.511   2.867   5.083 -0.2865  0.1036  0.9977
 1525TIP3    H2 4498   8.496   2.983   4.987 -0.6298 -0.9511 -0.2263
 1526TIP3   OH2 4499   1.336   0.081   6.405 -0.6148 -0.4759  0.3557
 1526TIP3    H1 4500   1.386   0.095   6.325 -0.9979  0.2391  0.2293
 1526TIP3    H2 4501   1.283   0.161   6.413 -0.0314 -0.2175  1.7184
 1527TIP3   OH2 4502   2.012   5.161   0.681 -0.4269  0.1781  0.0562
 1527TIP3    H1 4503   1.989   5.068   0.675 -0.2220  0.1005  0.4919
 1527TIP3    H2 4504   1.933   5.202   0.716 -1.0473  0.3950 -1.5375
 1528TIP3   OH2 4505   2.307   6.701   1.514 -0.3351  0.1678  0.5024
 1528TIP3    H1 4506   2.245   6.773   1.529 -0.1166  0.5014 -0.1419
 1528TIP3    H2 4507   2.268   6.626   1.558 -1.0699  0.4380  0.3259
 1529TIP3   OH2 4508   2.372   4.056   0.837  0.4242  0.4597  0.6695
 1529TIP3    H1 4509   2.400   3.970   0.807  1.5270  1.2465 -0.6152
 1529TIP3    H2 4510   2.361   4.046   0.932 -1.8577 -1.7232  0.2148
 1530TIP3   OH2 4511   7.507   8.164   5.231 -0.0851 -0.2769 -0.6716
 1530TIP3    H1 4512   7.438   8.125   5.177  0.0243  0.3590 -1.2704
 1530TIP3    H2 4513   7.588   8.151   5.181  0.0832 -0.0770 -0.4589
 1531TIP3   OH2 4514   1.476   5.336   1.695  0.2969  0.0423  0.2430
 1531TIP3    H1 4515   1.492   5.299   1.782  0.1645 -0.1959  0.1688
 1531TIP3    H2 4516   1.440   5.263   1.645 -0.0319  0.2914  0.1140
 1532TIP3   OH2 4517   3.209   3.666   1.002 -0.4026  0.1278 -0.1048
 1532TIP3    H1 4518   3.137   3.715   0.962  0.9041  0.9609 -1.5085
 1532TIP3    H2 4519   3.242   3.611   0.931  1.7338  1.3799 -0.1130
 1533TIP3   OH2 4520   2.472   4.162   0.204  0.4566  0.2548 -0.2240
 1533TIP3    H1 4521   2.440   4.100   0.138  0.5935  0.5965 -0.6127
 1533TIP3    H2 4522   2.471   4.247   0.160 -0.4891  0.6598  0.5541
 1534TIP3   OH2 4523   4.417   6.770   6.720 -0.5159 -0.3295  0.1980
 1534TIP3    H1 4524   4.457   6.723   6.794 -1.9581 -1.2262  0.4343
 1534TIP3    H2 4525   4.408   6.703   6.652  0.6052  0.4443 -0.7363
 1535TIP3   OH2 4526   4.354   5.669   0.389 -0.1462  0.0167 -0.0815
 1535TIP3    H1 4527   4.314   5.741   0.438 -0.4284  0.6878 -1.2631
 1535TIP3    H2 4528   4.428   5.709   0.344  0.8644 -0.8667  0.7796
 1536TIP3   OH2 4529   3.364   5.670   1.360  0.3658  0.7250 -0.4115
 1536TIP3    H1 4530   3.353   5.592   1.415 -0.3333  0.4213 -0.9764
 1536TIP3    H2 4531   3.444   5.655   1.311 -0.6799 -0.4285 -1.8052
 1537TIP3   OH2 4532   0.104   6.826   3.613  0.1732 -0.1461  0.2802
 1537TIP3    H1 4533   0.119   6.793   3.525 -0.1380 -0.7700  0.4565
 1537TIP3    H2 4534   0.093   6.920   3.602  0.0002 -0.2405 -0.3627
 1538TIP3   OH2 4535   0.717   1.425   5.903  0.0149 -0.9682 -0.6776
 1538TIP3    H1 4536   0.813   1.420   5.898 -0.0735 -2.1971 -1.5602
 1538TIP3    H2 4537   0.699   1.451   5.993  1.1407 -2.9565  0.1539
 1539TIP3   OH2 4538   3.084   4.244   2.595 -0.0439  0.2586 -0.0810
 1539TIP3    H1 4539   3.136   4.325   2.598 -1.3478  1.0853  1.3734
 1539TIP3    H2 4540   3.001   4.271   2.557  0.2257 -0.8568 -1.5026
 1540TIP3   OH2 4541   2.059   3.636   1.206  0.1019 -0.1210  0.0201
 1540TIP3    H1 4542   2.029   3.724   1.230 -0.4320 -0.1546 -0.5020
 1540TIP3    H2 4543   1.979   3.584   1.203  0.3603 -0.5053 -0.1697
 1541TIP3   OH2 4544   8.520   0.524   6.236 -0.3489  0.4610 -0.5708
 1541TIP3    H1 4545   8.615   0.513   6.238 -0.4546 -0.3790  0.0818
 1541TIP3    H2 4546   8.505   0.597   6.176  0.6893  0.3540 -0.9612
 1542TIP3   OH2 4547   8.723   0.780   7.241 -0.1810 -0.0964 -0.1656
 1542TIP3    H1 4548   8.718   0.813   7.151  1.9988 -0.4555 -0.4337
 1542TIP3    H2 4549   8.745   0.687   7.231  1.7980  0.2604  0.7690
 1543TIP3   OH2 4550   2.718   4.694   0.673 -0.3997 -0.3294 -0.0145
 1543TIP3    H1 4551   2.669   4.776   0.669  0.9601  0.4902 -0.1674
 1543TIP3    H2 4552   2.745   4.677   0.583 -2.4022 -2.0236 -0.3148
 1544TIP3   OH2 4553   1.474   1.797   7.067 -0.2756 -0.2543 -0.2227
 1544TIP3    H1 4554   1.434   1.878   7.033 -0.4434 -0.8551 -1.5111
 1544TIP3    H2 4555   1.448   1.730   7.003  1.4062 -0.9724 -0.1674
 1545TIP3   OH2 4556   7.475   1.035   6.385  0.3487  1.0073  0.3870
 1545TIP3    H1 4557   7.437   1.028   6.298  0.2271  0.1057  0.5086
 1545TIP3    H2 4558   7.570   1.036   6.370  0.3402  0.2509  0.2843
 1546TIP3   OH2 4559   2.779   3.827   1.894  0.0103 -0.0774  0.0524
 1546TIP3    H1 4560   2.779   3.904   1.837  1.0585  0.4754  0.7911
 1546TIP3    H2 4561   2.702   3.777   1.866 -0.5816  1.1424 -0.5495
 1547TIP3   OH2 4562   0.257   0.985   6.255 -0.9459  0.3737 -0.1256
 1547TIP3    H1 4563   0.295   1.059   6.302 -1.1549  0.7319 -0.5137
 1547TIP3    H2 4564   0.307   0.981   6.173 -1.0261  0.1726 -0.1647
 1548TIP3   OH2 4565   1.019   5.436   2.465  0.5963  0.5263  0.2427
 1548TIP3    H1 4566   0.934   5.436   2.421  0.8350  2.2550 -0.2547
 1548TIP3    H2 4567   1.002   5.399   2.551 -0.5572  0.3600 -0.0562
 1549TIP3   OH2 4568   1.167   3.913   0.008 -0.3693 -0.0167 -0.5641
 1549TIP3    H1 4569   1.123   3.836  -0.028 -0.5489  0.1513 -0.6983
 1549TIP3    H2 4570   1.250   3.879   0.042 -0.6724 -0.3551 -0.1690
 1550TIP3   OH2 4571   3.547   6.653   0.558 -0.7527 -0.6841 -0.2464
 1550TIP3    H1 4572   3.602   6.641   0.635 -0.4149 -1.0089 -0.5315
 1550TIP3    H2 4573   3.462   6.618   0.582 -0.4527 -1.4202 -0.2532
 1551TIP3   OH2 4574   5.088   6.087   0.483 -0.1901  0.2066 -0.2063
 1551TIP3    H1 4575   5.115   6.082   0.575 -0.7189 -0.3401 -0.0748
 1551TIP3    H2 4576   4.996   6.112   0.487 -0.6433 -1.3516 -0.5312
 1552TIP3   OH2 4577   1.502   0.999   5.965 -0.5727  0.1918 -0.2373
 1552TIP3    H1 4578   1.577   0.996   6.025 -1.1189  1.9523  0.5689
 1552TIP3    H2 4579   1.463   0.912   5.972  1.1321 -0.6212 -0.3497
 1553TIP3   OH2 4580   4.487   4.927   0.449 -0.4754  0.3406 -0.3100
 1553TIP3    H1 4581   4.566   4.923   0.504 -0.2220 -0.3492 -0.7264
 1553TIP3    H2 4582   4.423   4.873   0.496 -0.5668  0.5482 -0.1945
 1554TIP3   OH2 4583   7.305   1.094   5.763  0.1575  0.1671  0.3467
 1554TIP3    H1 4584   7.382   1.085   5.820 -0.7355  0.9326  1.7157
 1554TIP3    H2 4585   7.235   1.121   5.823 -0.7009  1.4555 -1.2090
 1555TIP3   OH2 4586   1.667   6.012   0.615 -0.3478  0.4404 -0.0271
 1555TIP3    H1 4587   1.746   5.970   0.651 -0.1358  0.5308 -0.3873
 1555TIP3    H2 4588   1.677   6.006   0.520 -0.9259  0.1762 -0.0751
 1556TIP3   OH2 4589   3.750   6.313   0.635 -1.0871 -0.2256  0.4204
 1556TIP3    H1 4590   3.813   6.334   0.566 -1.0160 -2.7578 -0.3326
 1556TIP3    H2 4591   3.765   6.380   0.702  1.1263  0.2967 -0.5518
 1557TIP3   OH2 4592   1.684   5.260   0.448 -0.4161  0.7051 -0.1742
 1557TIP3    H1 4593   1.713   5.216   0.528 -0.8706 -0.3580 -0.5858
 1557TIP3    H2 4594   1.744   5.333   0.438 -0.2876  0.7813  1.0827
 1558TIP3   OH2 4595   0.522   4.193   0.955 -0.0857  0.6531 -0.1613
 1558TIP3    H1 4596   0.452   4.233   1.007 -0.0197  0.5413  0.0160
 1558TIP3    H2 4597   0.490   4.196   0.865 -0.7806 -0.3329  0.0417
 1559TIP3   OH2 4598   1.550   0.778   5.346  0.3728  0.2456 -0.3793
 1559TIP3    H1 4599   1.589   0.839   5.410  1.6636 -0.9438 -0.0118
 1559TIP3    H2 4600   1.463   0.814   5.330 -0.2491  0.1989  2.5705
 1560TIP3   OH2 4601   0.996   0.289   5.266  0.0117  0.1939  0.0417
 1560TIP3    H1 4602   1.085   0.261   5.288 -0.1240  0.8499  1.4553
 1560TIP3    H2 4603   0.995   0.383   5.280 -0.4261  0.4728 -1.6797
 1561TIP3   OH2 4604   8.668   1.691   7.225 -0.0436 -0.4313  0.2126
 1561TIP3    H1 4605   8.607   1.714   7.294  0.6254  0.8299  0.4063
 1561TIP3    H2 4606   8.708   1.775   7.200 -0.0861 -0.9070 -1.5034
 1562TIP3   OH2 4607   0.753   2.135   6.059 -0.3512 -0.0104  0.9943
 1562TIP3    H1 4608   0.735   2.100   6.146 -0.2757 -1.0902  0.5852
 1562TIP3    H2 4609   0.814   2.208   6.075  0.3436 -0.7513  1.7720
 1563TIP3   OH2 4610   2.516   5.390   2.766  0.5194  0.9847  0.2651
 1563TIP3    H1 4611   2.494   5.408   2.674 -1.0575 -0.6430  0.2760
 1563TIP3    H2 4612   2.605   5.423   2.777  0.5868  1.5408 -1.7452
 1564TIP3   OH2 4613   2.152   4.483   0.649  0.7338  0.2438 -1.1630
 1564TIP3    H1 4614   2.231   4.429   0.655  0.1942 -0.6545 -2.0036
 1564TIP3    H2 4615   2.180   4.569   0.680  0.6600 -1.4457  4.1491
 1565TIP3   OH2 4616   3.565   4.222   1.428  0.4559  0.0255 -0.0997
 1565TIP3    H1 4617   3.596   4.309   1.403 -0.4738  0.3906  0.0126
 1565TIP3    H2 4618   3.497   4.201   1.364 -0.6703  0.2001  1.0294
 1566TIP3   OH2 4619   8.913   1.226   5.896 -0.1723 -0.3102  0.4589
 1566TIP3    H1 4620   8.905   1.192   5.985 -0.3354  0.7008  0.8320
 1566TIP3    H2 4621   8.823   1.249   5.871  0.0237  0.4421  0.4453
 1567TIP3   OH2 4622   1.430   4.426   2.133 -0.4201 -0.5058  0.5407
 1567TIP3    H1 4623   1.480   4.350   2.164 -2.0028 -1.7689  0.0607
 1567TIP3    H2 4624   1.475   4.453   2.053  1.8126  0.8262  2.2008
 1568TIP3   OH2 4625   0.210   2.911   2.295  0.3847  0.5181  0.3847
 1568TIP3    H1 4626   0.275   2.841   2.307  0.1819  0.2323 -0.1623
 1568TIP3    H2 4627   0.128   2.865   2.279 -0.0302  0.8823  1.4495
 1569TIP3   OH2 4628   8.569   0.415   7.132  0.0501  0.0646 -0.3392
 1569TIP3    H1 4629   8.592   0.366   7.211  0.7453  0.2946 -0.3930
 1569TIP3    H2 4630   8.627   0.491   7.134 -0.9763  0.8418 -0.2961
 1570TIP3   OH2 4631   1.141   2.472   7.206 -0.1625 -0.5969  0.3878
 1570TIP3    H1 4632   1.235   2.489   7.206 -0.0620 -1.1247 -0.7175
 1570TIP3    H2 4633   1.111   2.496   7.119 -1.5473  2.1245  1.5450
 1571TIP3   OH2 4634   3.761   4.025   2.600  0.4481 -0.2378  0.3533
 1571TIP3    H1 4635   3.758   4.084   2.676  1.0474 -2.4576  2.1668
 1571TIP3    H2 4636   3.680   4.044   2.552 -0.5433  0.3740  2.1897
 1572TIP3   OH2 4637   3.140   3.593   0.597 -0.1777  0.0231  0.8036
 1572TIP3    H1 4638   3.085   3.668   0.572  0.0346  0.2558  1.0377
 1572TIP3    H2 4639   3.217   3.632   0.637 -0.2667 -0.3404  1.3283
 1573TIP3   OH2 4640   2.493   1.373   0.864  0.0759 -0.6939  0.1637
 1573TIP3    H1 4641   2.443   1.454   0.852 -2.0514 -1.6887  1.8823
 1573TIP3    H2 4642   2.581   1.396   0.836 -0.8740  1.7025 -1.0952
 1574TIP3   OH2 4643   1.833   3.863   1.354  0.3032  0.0118 -0.0492
 1574TIP3    H1 4644   1.905   3.874   1.291 -0.1094 -2.3092 -0.9913
 1574TIP3    H2 4645   1.854   3.782   1.400 -0.0419  1.0511  1.9662
 1575TIP3   OH2 4646   1.113   6.017   0.593 -0.6344 -0.1957 -0.2803
 1575TIP3    H1 4647   1.191   6.065   0.566 -0.0406 -1.0467 -0.0765
 1575TIP3    H2 4648   1.043   6.052   0.536 -0.3644  1.4017  0.3506
 1576TIP3   OH2 4649   6.998   1.549   6.477  0.2906 -0.4438  0.3198
 1576TIP3    H1 4650   6.939   1.540   6.403 -0.2785 -1.0953  0.8546
 1576TIP3    H2 4651   7.082   1.574   6.438  0.1391 -1.3449 -0.5864
 1577TIP3   OH2 4652   4.047   7.442   0.997  0.4538  0.3516 -0.2640
 1577TIP3    H1 4653   4.086   7.492   1.069 -0.1702  3.0662 -1.7418
 1577TIP3    H2 4654   4.026   7.357   1.036  1.5465  1.2171  2.3483
 1578TIP3   OH2 4655   4.306   7.386   0.332  0.4260  0.2389  0.2047
 1578TIP3    H1 4656   4.355   7.349   0.259  0.0503  1.1009 -0.4899
 1578TIP3    H2 4657   4.215   7.387   0.302  0.3739  1.3065  0.3869
 1579TIP3   OH2 4658   1.255   2.320   6.589 -0.2201  0.0548 -0.7902
 1579TIP3    H1 4659   1.222   2.237   6.625  0.0466  0.3398  0.1081
 1579TIP3    H2 4660   1.312   2.293   6.517  1.9210 -0.6590  1.1375
 1580TIP3   OH2 4661   8.049   0.860   7.188 -0.3483 -0.2606  0.0568
 1580TIP3    H1 4662   8.005   0.941   7.164  1.6531  0.7471 -0.2814
 1580TIP3    H2 4663   8.056   0.811   7.106  1.0978  0.5424 -0.3118
 1581TIP3   OH2 4664   2.408   5.078   0.766 -0.5822  0.0566  0.3089
 1581TIP3    H1 4665   2.337   5.130   0.805 -1.0613 -0.5261  0.2125
 1581TIP3    H2 4666   2.437   5.021   0.837  0.7624  1.2838  0.7782
 1582TIP3   OH2 4667   7.060   8.277   6.673  0.1629 -0.6720 -0.1236
 1582TIP3    H1 4668   7.138   8.248   6.719 -0.2569 -1.0851  0.3395
 1582TIP3    H2 4669   7.074   8.252   6.582  0.6297 -0.6076 -0.0700
 1583TIP3   OH2 4670   2.923   6.856   1.546  0.4165  0.5262  0.4390
 1583TIP3    H1 4671   2.933   6.777   1.599  1.7787  0.8886  0.7494
 1583TIP3    H2 4672   2.883   6.825   1.465  0.3654 -0.3850  0.7995
 1584TIP3   OH2 4673   8.699   1.253   4.613  0.8402 -0.2029 -0.3192
 1584TIP3    H1 4674   8.690   1.315   4.685  0.3712  1.3572 -1.6825
 1584TIP3    H2 4675   8.649   1.176   4.642  0.7012  0.3749  1.0340
 1585TIP3   OH2 4676   3.415   6.653   1.256 -0.4887 -0.2646  0.1722
 1585TIP3    H1 4677   3.333   6.654   1.206 -1.1332 -1.1728  1.1953
 1585TIP3    H2 4678   3.389   6.674   1.346  0.6594  1.3112  0.1583
 1586TIP3   OH2 4679   2.208   5.228   0.875 -0.4559 -0.0511  0.0756
 1586TIP3    H1 4680   2.165   5.253   0.957  1.0716  1.4711  0.4337
 1586TIP3    H2 4681   2.142   5.246   0.808 -1.8041 -1.5444  0.9599
 1587TIP3   OH2 4682   0.757   1.144   6.916 -0.3103  0.2371 -0.2158
 1587TIP3    H1 4683   0.764   1.195   6.836 -1.6735  0.6677 -0.0699
 1587TIP3    H2 4684   0.690   1.188   6.968 -0.7400 -1.0777  0.3779
 1588TIP3   OH2 4685   4.802   6.198   0.699  0.5250  0.2762  0.7791
 1588TIP3    H1 4686   4.773   6.283   0.667 -0.1585  0.8308  2.8601
 1588TIP3    H2 4687   4.803   6.143   0.620 -1.0692  1.6288 -0.2256
 1589TIP3   OH2 4688   2.330   4.899   1.768  0.1111 -0.0340  0.0640
 1589TIP3    H1 4689   2.398   4.891   1.834  1.0182  0.0760 -0.8562
 1589TIP3    H2 4690   2.273   4.969   1.802 -0.8702 -1.6948  1.9683
 1590TIP3   OH2 4691   2.461   5.914   0.512  0.6144  0.1215 -0.1050
 1590TIP3    H1 4692   2.399   5.853   0.552  1.3331 -0.9869 -0.6895
 1590TIP3    H2 4693   2.405   5.983   0.474 -0.2508 -0.7482 -0.4319
 1591TIP3   OH2 4694   3.754   4.573   1.176  0.0175 -0.1808  0.4045
 1591TIP3    H1 4695   3.757   4.533   1.089  1.2352 -0.6132  0.6385
 1591TIP3    H2 4696   3.750   4.667   1.158  1.7379 -0.1936 -0.1177
 1592TIP3   OH2 4697   5.534   4.410   1.403  0.7210 -0.6254  0.0225
 1592TIP3    H1 4698   5.540   4.340   1.469 -0.2742  0.4580  1.2932
 1592TIP3    H2 4699   5.598   4.386   1.337 -0.3234 -3.3217 -0.0829
 1593TIP3   OH2 4700   4.697   3.766   2.400 -0.3771  0.2862  0.5925
 1593TIP3    H1 4701   4.759   3.793   2.467 -1.4447 -0.6785  2.0059
 1593TIP3    H2 4702   4.615   3.810   2.423 -0.3223  1.3060 -1.0731
 1594TIP3   OH2 4703   1.615   5.805   0.134 -0.3088 -0.5076  0.2542
 1594TIP3    H1 4704   1.523   5.781   0.131 -0.0406 -1.8198  1.7489
 1594TIP3    H2 4705   1.660   5.724   0.159  1.1627  0.3237  0.3717
 1595TIP3   OH2 4706   1.694   2.581   0.139  0.6774  0.6150 -0.2410
 1595TIP3    H1 4707   1.676   2.599   0.231  0.2562  0.3774 -0.2774
 1595TIP3    H2 4708   1.646   2.500   0.120  1.6769  0.0389 -0.3707
 1596TIP3   OH2 4709   4.525   2.962   2.595  0.2973  0.0705 -0.8263
 1596TIP3    H1 4710   4.558   2.905   2.665  2.2628  2.2541  0.0946
 1596TIP3    H2 4711   4.440   2.991   2.626  0.0139 -1.0335 -0.5445
 1597TIP3   OH2 4712   2.327   3.704   1.284 -0.5532 -0.3645 -0.0704
 1597TIP3    H1 4713   2.316   3.761   1.360 -0.3457  1.5053 -1.4123
 1597TIP3    H2 4714   2.244   3.711   1.236  0.0633  0.1171 -1.0914
 1598TIP3   OH2 4715   1.995   3.396   2.277  0.2932 -0.1947  0.0944
 1598TIP3    H1 4716   2.000   3.460   2.348  0.5877 -0.6553  0.4911
 1598TIP3    H2 4717   2.085   3.370   2.262  0.2910  0.3308 -0.8469
 1599TIP3   OH2 4718   7.317   2.573   6.851 -0.2319  0.5893  0.4170
 1599TIP3    H1 4719   7.255   2.607   6.786  0.0404 -0.4192 -0.3894
 1599TIP3    H2 4720   7.328   2.481   6.827  0.4047  0.3823  1.4857
 1600TIP3   OH2 4721   8.391   0.663   4.864  0.1175 -0.2526  0.4271
 1600TIP3    H1 4722   8.453   0.694   4.929 -0.0291 -0.7436  0.8027
 1600TIP3    H2 4723   8.358   0.580   4.899  1.4306 -1.4771 -1.1618
 1601TIP3   OH2 4724   3.985   7.261   0.593 -0.0972 -0.2788  0.2052
 1601TIP3    H1 4725   3.891   7.263   0.612 -0.0157  1.1255  0.5691
 1601TIP3    H2 4726   4.026   7.239   0.676  0.0435  2.1087  0.8156
 1602TIP3   OH2 4727   1.737   4.912   1.345  0.2195 -0.0166  0.0482
 1602TIP3    H1 4728   1.808   4.908   1.409  0.5068  0.6014 -0.2242
 1602TIP3    H2 4729   1.712   5.004   1.343 -1.4454 -0.4311  1.0464
 1603TIP3   OH2 4730   4.236   5.059   0.696 -0.0117  0.0530 -0.3879
 1603TIP3    H1 4731   4.260   5.093   0.610 -2.1468  0.7854 -0.7178
 1603TIP3    H2 4732   4.157   5.008   0.680  1.5559 -2.8094  0.5581
 1604TIP3   OH2 4733   2.890   6.711   0.821  0.0944  0.3174 -0.5353
 1604TIP3    H1 4734   2.948   6.634   0.818  0.5663  0.5844  0.9139
 1604TIP3    H2 4735   2.900   6.752   0.736 -0.9524 -1.7953 -1.7122
 1605TIP3   OH2 4736   1.926   3.233   1.238 -0.3250 -0.0332  0.0546
 1605TIP3    H1 4737   1.853   3.202   1.184 -0.1862 -0.6678  0.2329
 1605TIP3    H2 4738   2.001   3.234   1.178  0.0962 -1.8855  0.5277
 1606TIP3   OH2 4739   5.019   5.148   0.501  0.3414 -0.3066 -0.2511
 1606TIP3    H1 4740   5.000   5.079   0.438 -0.5848 -0.6373  0.3805
 1606TIP3    H2 4741   4.973   5.225   0.467 -0.8704 -0.7075  0.4664
 1607TIP3   OH2 4742   4.891   3.838   2.203  0.2213 -0.4689  0.2595
 1607TIP3    H1 4743   4.823   3.827   2.269  0.2511  0.2241  0.4018
 1607TIP3    H2 4744   4.943   3.912   2.233  1.2352 -1.1965  0.3154
 1608TIP3   OH2 4745   3.204   7.008   1.320  0.6148  0.3896  0.1206
 1608TIP3    H1 4746   3.253   7.020   1.239  0.0944  0.9815 -0.1109
 1608TIP3    H2 4747   3.270   6.985   1.385  0.9787 -0.6129 -0.5808
 1609TIP3   OH2 4748   1.659   6.571   0.891 -0.1784  0.0371 -0.1696
 1609TIP3    H1 4749   1.643   6.498   0.951  0.7858 -0.0627 -0.0228
 1609TIP3    H2 4750   1.739   6.546   0.844 -0.2695  0.6519 -0.6594
 1610TIP3   OH2 4751   4.906   8.028   6.241  0.0008 -0.5379  0.1871
 1610TIP3    H1 4752   4.928   8.102   6.297  1.9617 -1.0210  0.0771
 1610TIP3    H2 4753   4.860   8.067   6.166 -1.1728  0.2753  1.2997
 1611TIP3   OH2 4754   3.144   5.826   0.382  0.5249 -0.3158  0.4227
 1611TIP3    H1 4755   3.153   5.915   0.349  0.7331 -0.1139  1.0301
 1611TIP3    H2 4756   3.069   5.790   0.334  0.2684  0.2761  0.3831
 1612TIP3   OH2 4757   1.403   0.744   5.846  0.2204  0.4488 -0.1857
 1612TIP3    H1 4758   1.362   0.775   5.766  0.4268 -1.5840 -1.1070
 1612TIP3    H2 4759   1.451   0.665   5.820  0.4556 -0.1302  1.8854
 1613TIP3   OH2 4760   3.902   5.261   0.189 -0.3365  0.6805  0.1315
 1613TIP3    H1 4761   3.978   5.304   0.229 -0.4216  0.4678  0.5168
 1613TIP3    H2 4762   3.828   5.288   0.243 -0.5188  0.7741 -0.1622
 1614TIP3   OH2 4763   3.478   1.840   6.511  0.1914  0.0498 -0.0268
 1614TIP3    H1 4764   3.498   1.746   6.504  1.4555  0.2599  0.7078
 1614TIP3    H2 4765   3.395   1.843   6.560 -0.3259 -0.7071 -0.8323
 1615TIP3   OH2 4766   0.483   4.200   1.818 -0.2155  0.0906 -0.8173
 1615TIP3    H1 4767   0.454   4.289   1.836 -0.1277 -0.0699  0.1193
 1615TIP3    H2 4768   0.423   4.144   1.868  1.3982 -0.2660  0.7548
 1616TIP3   OH2 4769   0.825   2.997   2.485  0.4416 -0.3814 -0.6020
 1616TIP3    H1 4770   0.878   3.021   2.408  1.2477  1.3360  0.4687
 1616TIP3    H2 4771   0.889   2.968   2.550 -0.1118 -0.3380 -0.0365
 1617TIP3   OH2 4772   5.851   6.583   5.931  0.1960  0.0948 -0.5517
 1617TIP3    H1 4773   5.826   6.640   6.004 -0.5445 -0.5228 -0.3128
 1617TIP3    H2 4774   5.866   6.497   5.971  1.2387  0.1048 -0.9151
 1618TIP3   OH2 4775   3.590   2.766   0.762 -0.0479 -0.0646  0.2522
 1618TIP3    H1 4776   3.551   2.848   0.731  0.5067 -0.0659 -0.4592
 1618TIP3    H2 4777   3.641   2.793   0.839 -0.0240  0.2332  0.1361
 1619TIP3   OH2 4778   3.625   3.650   0.455  0.2955 -0.3675 -0.2752
 1619TIP3    H1 4779   3.651   3.566   0.416 -0.8556 -1.2316  0.7693
 1619TIP3    H2 4780   3.699   3.674   0.512  1.6761  0.5531 -2.3962
 1620TIP3   OH2 4781   7.783   2.078   6.629 -0.0317 -0.0028 -0.0297
 1620TIP3    H1 4782   7.788   2.047   6.538  1.3925  1.5974 -0.5140
 1620TIP3    H2 4783   7.705   2.133   6.631 -0.0668 -0.0420 -0.2741
 1621TIP3   OH2 4784   1.029   2.692   0.684 -0.3247 -0.2978  0.0668
 1621TIP3    H1 4785   1.022   2.771   0.737 -0.0471  0.9036 -1.6595
 1621TIP3    H2 4786   1.110   2.651   0.714  0.4494  0.9872 -0.2375
 1622TIP3   OH2 4787   2.128   1.018   6.979 -0.4885 -0.1702 -0.1838
 1622TIP3    H1 4788   2.086   0.974   6.905 -2.7045  1.1344  0.2660
 1622TIP3    H2 4789   2.142   0.948   7.044 -2.6724 -0.4980 -0.0378
 1623TIP3   OH2 4790   1.633   4.510   1.119 -0.3531  0.0341 -0.1442
 1623TIP3    H1 4791   1.577   4.433   1.126  1.2452 -1.0191  1.4736
 1623TIP3    H2 4792   1.689   4.493   1.044  0.1985 -0.4975  0.3941
 1624TIP3   OH2 4793   1.449   2.956   0.554 -0.2788  0.4828 -0.1060
 1624TIP3    H1 4794   1.493   3.041   0.544 -1.9980  1.4042  0.1229
 1624TIP3    H2 4795   1.379   2.958   0.489 -0.2767 -0.7957 -0.1442
 1625TIP3   OH2 4796   3.934   3.570   2.650  0.1735  0.2597  0.4836
 1625TIP3    H1 4797   3.873   3.620   2.595  0.2318  0.6779  0.7940
 1625TIP3    H2 4798   3.890   3.487   2.665  0.1761  0.1248 -0.2310
 1626TIP3   OH2 4799   4.553   3.672   3.815 -0.0130 -0.0051 -0.3016
 1626TIP3    H1 4800   4.632   3.687   3.763  0.9865  1.2474  1.5504
 1626TIP3    H2 4801   4.560   3.581   3.843  1.2210  0.3532  0.5827
 1627TIP3   OH2 4802   1.750   1.118   5.075  0.1786  0.3813 -0.7131
 1627TIP3    H1 4803   1.736   1.081   4.988 -1.3237 -0.5785 -0.1054
 1627TIP3    H2 4804   1.840   1.093   5.098  0.5189  0.4932 -1.9144
 1628TIP3   OH2 4805   0.672   0.620   5.902  0.4070 -0.1200 -0.1740
 1628TIP3    H1 4806   0.613   0.663   5.840  3.6718  2.6003 -1.5011
 1628TIP3    H2 4807   0.693   0.536   5.861  0.1733  0.3645 -1.2945
 1629TIP3   OH2 4808   1.694   0.529   5.405  0.6980  0.0276 -0.1650
 1629TIP3    H1 4809   1.766   0.551   5.347  1.3959  1.8853  1.3792
 1629TIP3    H2 4810   1.626   0.593   5.384 -0.0057 -0.8399 -0.6191
 1630TIP3   OH2 4811   3.758   3.135   2.146  0.4419 -0.0166  0.9188
 1630TIP3    H1 4812   3.687   3.072   2.131  0.5923  0.0323  0.0106
 1630TIP3    H2 4813   3.728   3.187   2.221 -1.3091  1.2070 -0.6059
 1631TIP3   OH2 4814   3.633   3.968   1.229 -0.0244 -0.0648  0.5789
 1631TIP3    H1 4815   3.608   4.058   1.208  0.5342  0.0216  0.2586
 1631TIP3    H2 4816   3.552   3.927   1.258 -0.8304 -0.1748 -1.7040
 1632TIP3   OH2 4817   4.189   5.863   0.510 -0.2781 -0.3907 -0.8808
 1632TIP3    H1 4818   4.119   5.896   0.454 -1.6578 -0.4921  0.7437
 1632TIP3    H2 4819   4.234   5.942   0.541 -0.2417 -0.2875 -1.1949
 1633TIP3   OH2 4820   4.573   4.589   1.384  0.4934  0.2622  0.1840
 1633TIP3    H1 4821   4.489   4.635   1.385 -0.1009 -0.8210  1.2730
 1633TIP3    H2 4822   4.638   4.659   1.394 -0.2553  1.1275 -0.8528
 1634TIP3   OH2 4823   5.418   1.976   7.096  0.3691  0.1775 -0.1466
 1634TIP3    H1 4824   5.357   1.960   7.168 -0.4940  1.2611 -0.6155
 1634TIP3    H2 4825   5.505   1.967   7.135 -0.0832  1.7300  1.2660
 1635TIP3   OH2 4826   4.825   5.900   0.100  0.1764 -0.1088  0.0996
 1635TIP3    H1 4827   4.914   5.916   0.070 -0.3610 -0.2614 -1.6298
 1635TIP3    H2 4828   4.769   5.934   0.029 -1.1041 -1.6373  0.3419
 1636TIP3   OH2 4829   0.206   0.347   6.918  0.1816 -0.1571 -0.1863
 1636TIP3    H1 4830   0.285   0.320   6.872 -0.3298 -0.7484 -0.7394
 1636TIP3    H2 4831   0.236   0.406   6.987  1.1883 -1.1887  0.2571
 1637TIP3   OH2 4832   1.505   2.790   5.830  0.3359 -0.0667 -0.0991
 1637TIP3    H1 4833   1.452   2.868   5.843  1.7334  0.6546  1.4884
 1637TIP3    H2 4834   1.523   2.789   5.736 -1.6244  0.2192 -0.4928
 1638TIP3   OH2 4835   3.742   3.897   0.812  0.1658 -0.1915 -0.0823
 1638TIP3    H1 4836   3.798   3.938   0.878 -1.5891  1.6589  0.2981
 1638TIP3    H2 4837   3.670   3.859   0.863  0.0847 -0.9193 -0.7331
 1639TIP3   OH2 4838   7.911   6.792   1.312 -0.4434 -0.4854 -0.5543
 1639TIP3    H1 4839   7.996   6.807   1.272  0.8544 -3.6207  0.8876
 1639TIP3    H2 4840   7.880   6.880   1.336  3.8527  0.4745  1.8654
 1640TIP3   OH2 4841   2.807   1.947   6.304 -0.5044  0.4175 -0.0954
 1640TIP3    H1 4842   2.808   1.851   6.307  0.4845  0.4404  0.4011
 1640TIP3    H2 4843   2.886   1.970   6.256 -0.5059  1.0073  0.1829
 1641TIP3   OH2 4844   1.656   1.033   7.144 -0.0681  0.4922 -0.1982
 1641TIP3    H1 4845   1.578   0.980   7.162  1.2008 -1.3034  0.1492
 1641TIP3    H2 4846   1.622   1.122   7.129 -1.9307  0.4111  3.0184
 1642TIP3   OH2 4847   2.033   5.703   1.201  0.5616 -0.1822  0.0536
 1642TIP3    H1 4848   2.025   5.680   1.294  0.1928  1.7447  0.5285
 1642TIP3    H2 4849   1.951   5.673   1.162  0.5082 -0.5631  0.4504
 1643TIP3   OH2 4850   0.756   0.876   5.867  0.2543 -0.6963  0.6393
 1643TIP3    H1 4851   0.731   0.931   5.941 -1.0671 -1.0053  0.4419
 1643TIP3    H2 4852   0.724   0.788   5.891  1.0948 -1.0886  0.3390
 1644TIP3   OH2 4853   5.417   6.727   0.719 -0.1447  0.3303 -0.3446
 1644TIP3    H1 4854   5.506   6.746   0.688 -0.3109  0.8692 -0.5116
 1644TIP3    H2 4855   5.398   6.798   0.781 -0.2415 -0.1092  0.1286
 1645TIP3   OH2 4856   1.554   1.172   6.776 -0.0360  0.3278 -0.5421
 1645TIP3    H1 4857   1.585   1.252   6.820 -1.6280  1.1128 -0.7838
 1645TIP3    H2 4858   1.633   1.128   6.746  0.9092  1.3895  0.3499
 1646TIP3   OH2 4859   3.991   4.448   1.611 -0.2616 -0.3892 -0.1192
 1646TIP3    H1 4860   3.904   4.422   1.582 -0.4182 -0.5912  0.5481
 1646TIP3    H2 4861   3.979   4.536   1.647 -0.5748 -1.2621  1.9267
 1647TIP3   OH2 4862   4.106   5.589   0.058  0.2149 -0.2416  0.5546
 1647TIP3    H1 4863   4.084   5.672   0.100 -0.5250 -0.6443  0.9645
 1647TIP3    H2 4864   4.102   5.524   0.128  3.1209 -0.2857  0.7569
 1648TIP3   OH2 4865   2.899   5.056   1.637  0.5965  0.2531  0.2458
 1648TIP3    H1 4866   2.867   5.129   1.584 -0.2000  0.2985  0.7827
 1648TIP3    H2 4867   2.995   5.063   1.631  0.5218  0.8438 -0.3787
 1649TIP3   OH2 4868   5.671   5.263   0.093 -0.0784  0.6976  0.0212
 1649TIP3    H1 4869   5.702   5.352   0.105  0.2321  0.6331 -0.2795
 1649TIP3    H2 4870   5.743   5.219   0.046  0.0527  0.1093  0.7726
 1650TIP3   OH2 4871   7.754   5.354   0.825 -0.4549 -0.1087 -0.1673
 1650TIP3    H1 4872   7.744   5.449   0.837  0.9785 -0.0962  1.0178
 1650TIP3    H2 4873   7.716   5.338   0.739 -0.6086  1.5696 -0.4456
 1651TIP3   OH2 4874   6.151   4.958   1.477 -0.4175 -0.0420 -0.1282
 1651TIP3    H1 4875   6.154   4.912   1.393  2.5606  0.5037 -0.3580
 1651TIP3    H2 4876   6.169   4.890   1.542 -0.0742  0.0213 -0.1542
 1652TIP3   OH2 4877   5.520   5.026   0.251  0.0662 -0.4221  0.7574
 1652TIP3    H1 4878   5.589   5.010   0.316 -0.7729 -1.3086  1.4421
 1652TIP3    H2 4879   5.441   4.989   0.290 -0.3891 -1.2942 -0.9264
 1653TIP3   OH2 4880   4.635   1.745   6.816 -0.2286  0.4145 -0.0120
 1653TIP3    H1 4881   4.594   1.791   6.743  0.3157 -0.2280 -0.7533
 1653TIP3    H2 4882   4.580   1.763   6.891 -0.8756  0.9905 -0.6165
 1654TIP3   OH2 4883   3.849   3.536   1.372 -0.0297 -0.2707 -0.1617
 1654TIP3    H1 4884   3.894   3.620   1.372  1.0245 -0.8130 -1.8228
 1654TIP3    H2 4885   3.919   3.471   1.366 -0.9153 -1.2073 -0.5002
 1655TIP3   OH2 4886   2.603   2.060   5.990 -0.5396 -0.0018 -0.6049
 1655TIP3    H1 4887   2.622   1.980   6.038  1.0808  0.0588 -1.1099
 1655TIP3    H2 4888   2.642   2.130   6.042 -0.7034  0.3030 -0.8850
 1656TIP3   OH2 4889   5.764   5.696   0.800 -0.0702  0.0200 -0.1873
 1656TIP3    H1 4890   5.786   5.690   0.893  1.2071 -0.0544 -0.4931
 1656TIP3    H2 4891   5.782   5.609   0.765  1.5776  0.6404 -0.9494
 1657TIP3   OH2 4892   2.308   1.726   6.549 -0.3098  0.5497 -0.0001
 1657TIP3    H1 4893   2.235   1.772   6.508 -0.1812  0.9941  0.2614
 1657TIP3    H2 4894   2.367   1.796   6.578 -1.5623  0.3785  3.1571
 1658TIP3   OH2 4895   3.399   5.477   0.050 -0.2302  0.3696  0.0610
 1658TIP3    H1 4896   3.318   5.507   0.090 -1.0279 -0.4176 -0.9140
 1658TIP3    H2 4897   3.464   5.544   0.071 -1.2605  1.2531  0.4230
 1659TIP3   OH2 4898   4.695   6.456   0.605  0.4200  0.5146 -0.1139
 1659TIP3    H1 4899   4.761   6.525   0.603  0.0457  1.0450  2.8882
 1659TIP3    H2 4900   4.614   6.501   0.631 -0.0610 -0.8859  0.8670
 1660TIP3   OH2 4901   5.099   6.787   0.196 -0.5392  0.0285 -0.0402
 1660TIP3    H1 4902   5.103   6.851   0.266 -0.2575 -0.4093  0.3472
 1660TIP3    H2 4903   5.015   6.741   0.210 -1.0084  0.6935 -0.6547
 1661TIP3   OH2 4904   5.341   5.794   0.526  0.5001  0.3628 -0.3879
 1661TIP3    H1 4905   5.349   5.890   0.527  0.8748  0.3533 -1.3636
 1661TIP3    H2 4906   5.421   5.763   0.566 -0.9898  0.4908  2.8331
 1662TIP3   OH2 4907   7.338   8.364   5.369  0.3975 -0.1416  0.0109
 1662TIP3    H1 4908   7.393   8.384   5.445 -0.4204 -1.4809  0.9770
 1662TIP3    H2 4909   7.373   8.282   5.335  0.7373  0.4367 -1.0435
 1663TIP3   OH2 4910   6.042   4.680   1.408  0.0434 -0.3694 -0.1699
 1663TIP3    H1 4911   5.949   4.674   1.429  0.0692 -3.2161 -0.5641
 1663TIP3    H2 4912   6.050   4.633   1.325  1.8473 -0.2557 -0.0784
 1664TIP3   OH2 4913   5.305   5.279   2.143 -0.7207 -0.0640 -0.4571
 1664TIP3    H1 4914   5.342   5.297   2.057 -0.0500 -0.2790 -0.2139
 1664TIP3    H2 4915   5.243   5.207   2.128 -1.3316  0.5477 -0.9279
 1665TIP3   OH2 4916   2.289   5.016   0.507  0.2079  0.0681 -0.2472
 1665TIP3    H1 4917   2.294   4.924   0.535  1.6972 -0.5144 -2.3315
 1665TIP3    H2 4918   2.338   5.064   0.574 -1.6894 -0.4576  1.5737
 1666TIP3   OH2 4919   1.915   0.896   5.814 -0.4852 -0.2392  0.1225
 1666TIP3    H1 4920   1.879   0.952   5.882  0.5885  0.9672 -0.2833
 1666TIP3    H2 4921   1.970   0.834   5.860  0.6440  0.8947  0.3246
 1667TIP3   OH2 4922   0.564   0.649   6.178 -0.5928  0.0606 -0.7587
 1667TIP3    H1 4923   0.588   0.735   6.213 -0.9504  1.0115 -2.7586
 1667TIP3    H2 4924   0.572   0.659   6.083 -1.2124 -1.9487 -1.0457
 1668TIP3   OH2 4925   4.278   4.860   1.120  0.8076  0.0104 -0.6678
 1668TIP3    H1 4926   4.312   4.870   1.031 -1.0539 -0.3763 -1.4450
 1668TIP3    H2 4927   4.269   4.949   1.153  0.1227  0.2257 -1.4162
 1669TIP3   OH2 4928   1.598   2.948   7.174 -0.5919  0.0948  0.2144
 1669TIP3    H1 4929   1.686   2.929   7.206 -0.7451  0.0017  0.5744
 1669TIP3    H2 4930   1.611   2.974   7.083 -0.3577 -1.5019 -0.2288
 1670TIP3   OH2 4931   5.379   5.680   0.158 -0.2075  0.0810  0.0837
 1670TIP3    H1 4932   5.468   5.677   0.193 -0.1296  1.7044  0.0893
 1670TIP3    H2 4933   5.389   5.669   0.064 -0.1033 -0.8299  0.1984
 1671TIP3   OH2 4934   2.017   5.538   0.835  0.1276 -0.0830 -0.6496
 1671TIP3    H1 4935   1.983   5.513   0.921 -0.3653  0.3285 -0.7312
 1671TIP3    H2 4936   2.112   5.538   0.847  0.0503  0.3017 -0.0147
 1672TIP3   OH2 4937   6.743   6.197   0.901 -0.2131 -1.1178  0.2561
 1672TIP3    H1 4938   6.753   6.242   0.817 -2.0073  0.1475  0.6874
 1672TIP3    H2 4939   6.705   6.112   0.877 -0.9395 -0.6757 -0.2238
 1673TIP3   OH2 4940   7.791   2.084   0.162 -0.1564  0.8565 -0.2422
 1673TIP3    H1 4941   7.847   2.102   0.238  0.5965  1.9702 -1.0513
 1673TIP3    H2 4942   7.702   2.083   0.198  0.3598 -1.0883  1.0783
 1674TIP3   OH2 4943   4.749   4.819   0.590 -0.2239 -0.0144  0.1499
 1674TIP3    H1 4944   4.776   4.845   0.678  1.1857  0.9642 -0.5471
 1674TIP3    H2 4945   4.791   4.734   0.577  1.9926  1.1431 -0.6288
 1675TIP3   OH2 4946   8.387  -0.011   6.891  0.2800  0.0002 -0.6650
 1675TIP3    H1 4947   8.444   0.009   6.966  0.4662 -2.1224 -0.2048
 1675TIP3    H2 4948   8.428   0.032   6.817  1.1614  0.5092  0.1112
 1676TIP3   OH2 4949   4.412   5.250   1.673  0.0923  0.3286  0.2403
 1676TIP3    H1 4950   4.335   5.193   1.671  1.6006 -1.7348 -1.8232
 1676TIP3    H2 4951   4.427   5.273   1.581 -0.2284  3.7646  1.0050
 1677TIP3   OH2 4952   1.876   2.363   6.368  0.0568 -0.4350 -0.1367
 1677TIP3    H1 4953   1.794   2.356   6.417  0.6569 -0.9440  0.8139
 1677TIP3    H2 4954   1.884   2.279   6.323 -0.4235 -0.0204 -1.0015
 1678TIP3   OH2 4955   4.084   2.533   5.163  0.2465 -0.0267 -0.3038
 1678TIP3    H1 4956   4.073   2.438   5.155  0.7484 -0.0593 -0.6495
 1678TIP3    H2 4957   4.017   2.560   5.225  0.8141 -0.7810  0.6601
 1679TIP3   OH2 4958   5.369   5.263   0.121 -0.5173  1.0891 -0.0971
 1679TIP3    H1 4959   5.297   5.318   0.089 -2.1373 -0.5285  0.6497
 1679TIP3    H2 4960   5.393   5.301   0.205 -1.6309  0.6743  0.4158
 1680TIP3   OH2 4961   5.826   5.458   1.075 -0.4242  0.3472  0.0943
 1680TIP3    H1 4962   5.770   5.393   1.033 -1.7194  2.4947 -1.6400
 1680TIP3    H2 4963   5.789   5.469   1.162 -2.4305  1.3062 -0.8312
 1681TIP3   OH2 4964   4.672   8.103   0.761  0.2412  0.2529  0.1996
 1681TIP3    H1 4965   4.577   8.094   0.766  0.4653 -1.2485  2.4511
 1681TIP3    H2 4966   4.686   8.198   0.756 -1.3852  0.4457 -1.7965
 1682TIP3   OH2 4967   2.389   6.887   0.124 -0.2824 -0.1892  0.5998
 1682TIP3    H1 4968   2.417   6.862   0.212 -0.8427 -0.4849  0.6989
 1682TIP3    H2 4969   2.307   6.838   0.111 -0.1372 -0.2314 -0.1259
 1683TIP3   OH2 4970   8.710   1.677   6.296  0.4252  0.1022  0.1046
 1683TIP3    H1 4971   8.741   1.637   6.215  0.9879 -2.0830  1.3278
 1683TIP3    H2 4972   8.770   1.749   6.312  0.5901  0.2552 -1.1767
 1684TIP3   OH2 4973   7.809   4.811   0.223 -0.0920 -0.0342 -0.0791
 1684TIP3    H1 4974   7.805   4.896   0.266 -0.4990  0.2481 -0.6682
 1684TIP3    H2 4975   7.865   4.758   0.280 -0.7690  0.2802  0.8799
 1685TIP3   OH2 4976   6.729   8.073   7.231 -0.1080 -0.2355 -0.3766
 1685TIP3    H1 4977   6.792   8.104   7.295  0.4156 -1.2833 -0.3799
 1685TIP3    H2 4978   6.706   7.985   7.260 -2.7335  0.6788  0.4842
 1686TIP3   OH2 4979   2.824   4.616   1.722 -0.3664 -0.1603 -0.0367
 1686TIP3    H1 4980   2.817   4.662   1.806  0.9453  2.8076 -1.5013
 1686TIP3    H2 4981   2.917   4.620   1.699 -0.8569 -0.0063 -2.1275
 1687TIP3   OH2 4982   6.601   5.451   1.674 -0.0789 -0.0369  0.4103
 1687TIP3    H1 4983   6.564   5.490   1.754 -0.4804  1.8424 -0.6351
 1687TIP3    H2 4984   6.680   5.502   1.657  1.2998 -1.9773  0.8817
 1688TIP3   OH2 4985   6.458   6.403   0.517 -0.1488  0.5085  0.4670
 1688TIP3    H1 4986   6.383   6.423   0.461 -0.4284 -1.0358  0.2589
 1688TIP3    H2 4987   6.475   6.484   0.564 -1.0309  1.3051 -0.5543
 1689TIP3   OH2 4988   7.131   3.628   1.706 -0.1065 -0.3854  0.3591
 1689TIP3    H1 4989   7.075   3.595   1.776 -0.1432 -0.4434  0.3026
 1689TIP3    H2 4990   7.172   3.549   1.670  0.5680 -0.2817  0.8803
 1690TIP3   OH2 4991   3.415   0.885   6.658 -0.1844  0.3468  0.2065
 1690TIP3    H1 4992   3.417   0.790   6.647 -1.6171  0.3058  0.1164
 1690TIP3    H2 4993   3.507   0.911   6.663  0.2280 -0.9971 -0.1475
 1691TIP3   OH2 4994   6.190   3.686   1.652 -0.4370  0.1883  0.1505
 1691TIP3    H1 4995   6.099   3.693   1.680 -0.8211  3.8400 -1.7514
 1691TIP3    H2 4996   6.239   3.673   1.733 -2.7230 -3.5186  1.0559
 1692TIP3   OH2 4997   4.195   6.465   2.039  0.1047  0.3299 -0.0639
 1692TIP3    H1 4998   4.171   6.504   2.123  0.9852 -1.1296  0.9101
 1692TIP3    H2 4999   4.266   6.520   2.006 -0.8181  1.4051 -0.2703
 1693TIP3   OH2 5000   3.531   3.897   0.403  0.5052 -0.2675 -0.6212
 1693TIP3    H1 5001   3.580   3.946   0.469  0.3041 -0.1994 -0.5185
 1693TIP3    H2 5002   3.575   3.812   0.398  0.3315 -0.3883 -0.1678
 1694TIP3   OH2 5003   4.365   5.918   0.039 -0.0864 -0.0356 -0.2702
 1694TIP3    H1 5004   4.280   5.961   0.030  0.0176  0.2571  0.1373
 1694TIP3    H2 5005   4.415   5.946  -0.038 -0.1423  0.2936 -0.1866
 1695TIP3   OH2 5006   4.161   3.811   0.576 -0.6926  0.1813 -0.3247
 1695TIP3    H1 5007   4.256   3.797   0.575 -0.6690  0.3477 -0.5059
 1695TIP3    H2 5008   4.141   3.834   0.667 -0.5512  0.2036 -0.2998
 1696TIP3   OH2 5009   8.279   5.334   2.124 -0.0550  0.1160 -0.2481
 1696TIP3    H1 5010   8.316   5.399   2.064  1.5581  0.5524  1.1999
 1696TIP3    H2 5011   8.314   5.251   2.093  1.1735  0.3948  0.3655
 1697TIP3   OH2 5012   6.113   4.412   1.808 -0.6117 -0.1331 -0.3622
 1697TIP3    H1 5013   6.104   4.434   1.901  0.4281  0.4232 -0.3791
 1697TIP3    H2 5014   6.161   4.329   1.808 -1.6942 -0.7596 -0.3741
 1698TIP3   OH2 5015   8.560   6.771   4.320  0.1509 -0.0073 -0.0271
 1698TIP3    H1 5016   8.499   6.802   4.387 -0.5090 -2.8437  0.7236
 1698TIP3    H2 5017   8.507   6.719   4.261  1.8627 -2.9489  0.9200
 1699TIP3   OH2 5018   4.671   5.637   0.690 -0.3850 -0.0116 -0.2728
 1699TIP3    H1 5019   4.652   5.648   0.597  1.8120  2.0522 -0.5555
 1699TIP3    H2 5020   4.742   5.700   0.707 -0.4233 -0.6890  2.6847
 1700TIP3   OH2 5021   2.879   0.969   7.173  0.0406  0.1576  0.0584
 1700TIP3    H1 5022   2.875   0.915   7.094  1.2183 -1.7725  1.2590
 1700TIP3    H2 5023   2.973   0.980   7.189 -0.1872  0.2981  1.3400
 1701TIP3   OH2 5024   3.564   6.932   1.464 -0.5395 -0.0842 -0.1316
 1701TIP3    H1 5025   3.478   6.894   1.482 -0.2021 -0.1620  1.3473
 1701TIP3    H2 5026   3.619   6.857   1.440 -0.8920 -0.0265 -1.1361
 1702TIP3   OH2 5027   7.763   3.826   1.103  0.3760  1.1016 -0.4042
 1702TIP3    H1 5028   7.720   3.793   1.182  3.3371  0.2478  0.8835
 1702TIP3    H2 5029   7.745   3.920   1.104  0.6974  1.1615  1.4959
 1703TIP3   OH2 5030   8.472   3.858   4.496  0.4838 -0.5223  0.6173
 1703TIP3    H1 5031   8.544   3.916   4.518  1.5673 -0.2303 -3.2754
 1703TIP3    H2 5032   8.511   3.772   4.488  0.0860 -0.6760  0.2536
 1704TIP3   OH2 5033   0.860   0.587   6.276  0.0796 -0.0522 -0.0136
 1704TIP3    H1 5034   0.828   0.670   6.241 -1.3285 -1.4614 -2.1108
 1704TIP3    H2 5035   0.828   0.521   6.216  1.9025 -2.0746  1.1713
 1705TIP3   OH2 5036   4.337   1.498   6.928  0.0603 -0.1392 -0.5882
 1705TIP3    H1 5037   4.327   1.579   6.877 -1.2607 -1.6690 -2.8324
 1705TIP3    H2 5038   4.424   1.466   6.904  0.5882  0.6078  0.3089
 1706TIP3   OH2 5039   4.712   3.487   4.101  0.0637  0.2600 -0.2532
 1706TIP3    H1 5040   4.767   3.564   4.086 -0.0117  0.1571 -1.0869
 1706TIP3    H2 5041   4.626   3.523   4.122  0.2815  0.4143  0.3799
 1707TIP3   OH2 5042   6.459   2.680   3.179 -0.3522  0.0498 -0.2577
 1707TIP3    H1 5043   6.372   2.674   3.140 -0.1239  3.0296 -1.3614
 1707TIP3    H2 5044   6.517   2.706   3.108  1.4601 -1.8003  0.4854
 1708TIP3   OH2 5045   3.111   5.913   1.914 -0.0398  0.2109 -0.1053
 1708TIP3    H1 5046   3.136   5.923   2.006 -1.1097  2.0509  0.0231
 1708TIP3    H2 5047   3.053   5.988   1.897 -2.0246 -1.5812 -1.5305
 1709TIP3   OH2 5048   5.629   2.737   3.488  0.3568 -0.1394  0.3311
 1709TIP3    H1 5049   5.672   2.652   3.488 -1.0750 -0.8893 -0.1392
 1709TIP3    H2 5050   5.543   2.721   3.527  0.1425  1.1261  0.4139
 1710TIP3   OH2 5051   7.102   7.150   1.785  0.1988  0.2508 -0.1668
 1710TIP3    H1 5052   7.168   7.164   1.717 -0.0127  1.9084 -0.0517
 1710TIP3    H2 5053   7.019   7.146   1.739  0.3124 -1.3758 -0.2634
 1711TIP3   OH2 5054   7.654   2.329   1.303  0.1528  0.0716 -0.0413
 1711TIP3    H1 5055   7.575   2.384   1.305  0.1202  0.0076  1.4567
 1711TIP3    H2 5056   7.674   2.314   1.396  1.2166 -0.9358 -0.4284
 1712TIP3   OH2 5057   7.175   6.853   0.511  0.3026 -0.4541  0.0652
 1712TIP3    H1 5058   7.246   6.871   0.573  0.2759 -0.2599  0.0383
 1712TIP3    H2 5059   7.144   6.765   0.535  0.3966 -0.4434  0.2253
 1713TIP3   OH2 5060   0.376   6.703   2.629 -0.0681 -0.2063 -0.5397
 1713TIP3    H1 5061   0.469   6.724   2.638 -0.7540  2.2100  1.3028
 1713TIP3    H2 5062   0.352   6.663   2.712 -1.0046  0.4743 -0.4801
 1714TIP3   OH2 5063   6.748   4.455   2.231 -0.0279  0.5354 -0.4266
 1714TIP3    H1 5064   6.737   4.477   2.139  2.9220 -0.3466 -1.0214
 1714TIP3    H2 5065   6.673   4.497   2.274 -1.4095  1.0263 -3.1739
 1715TIP3   OH2 5066   7.089   6.537   1.203  0.3003 -0.4327  0.0681
 1715TIP3    H1 5067   7.157   6.602   1.223 -0.1184 -0.5972  2.1868
 1715TIP3    H2 5068   7.080   6.486   1.284 -2.6456 -0.1482 -0.0213
 1716TIP3   OH2 5069   8.680   4.244   1.551 -0.0906 -0.0006 -0.4034
 1716TIP3    H1 5070   8.625   4.299   1.606  1.4902  1.3599 -0.1350
 1716TIP3    H2 5071   8.767   4.249   1.590  0.2502 -2.1582 -0.7719
 1717TIP3   OH2 5072   1.131   2.742   2.252 -0.2713  0.3217  0.3356
 1717TIP3    H1 5073   1.174   2.761   2.336 -0.8891  1.5136  0.3889
 1717TIP3    H2 5074   1.181   2.668   2.217  2.0230  1.8356  0.2712
 1718TIP3   OH2 5075   5.329   4.772   1.258 -0.3596 -0.0030  0.1591
 1718TIP3    H1 5076   5.409   4.823   1.250 -0.3172 -0.1635 -0.4927
 1718TIP3    H2 5077   5.355   4.682   1.239 -0.8512  0.0753 -0.9687
 1719TIP3   OH2 5078   7.618   2.539   6.145 -0.4672  0.3856 -0.0983
 1719TIP3    H1 5079   7.614   2.450   6.109 -1.1965  0.6071 -0.5756
 1719TIP3    H2 5080   7.705   2.571   6.122  0.0221 -0.4233  0.5964
 1720TIP3   OH2 5081   1.329   5.313   1.179 -0.2728  0.2579 -0.9797
 1720TIP3    H1 5082   1.309   5.315   1.272  0.1698  0.2889 -0.8847
 1720TIP3    H2 5083   1.364   5.225   1.164  0.3754  0.5132 -0.9660
 1721TIP3   OH2 5084   1.179   6.288   1.251  0.3061 -0.6444  0.0040
 1721TIP3    H1 5085   1.217   6.353   1.309  1.5317 -0.4554 -1.0138
 1721TIP3    H2 5086   1.103   6.332   1.212 -0.1108 -0.5425  0.9092
 1722TIP3   OH2 5087   1.275   6.401   1.002 -0.3245 -0.2813 -0.2307
 1722TIP3    H1 5088   1.312   6.312   1.005 -1.2439 -0.6417  0.5972
 1722TIP3    H2 5089   1.268   6.427   1.094 -0.2249  0.5824 -0.4692
 1723TIP3   OH2 5090   7.339   2.674   7.118 -0.8325 -0.0349  0.1578
 1723TIP3    H1 5091   7.334   2.620   7.039  1.2073 -2.1059  1.3823
 1723TIP3    H2 5092   7.348   2.611   7.190 -0.2424  1.8775  1.8122
 1724TIP3   OH2 5093   1.297   6.053   0.235 -0.1566  0.0512  0.0105
 1724TIP3    H1 5094   1.229   6.114   0.205 -1.5514 -1.3232  0.2879
 1724TIP3    H2 5095   1.310   6.076   0.327  1.9110  2.2535 -0.7887
 1725TIP3   OH2 5096   1.309   7.527   1.200 -0.3811 -0.3886  1.0794
 1725TIP3    H1 5097   1.314   7.528   1.295 -1.6328 -0.0577  1.1575
 1725TIP3    H2 5098   1.299   7.435   1.177  2.9671 -0.7899  1.0610
 1726TIP3   OH2 5099   6.660   0.256   6.563 -0.0151 -0.0360 -0.4214
 1726TIP3    H1 5100   6.682   0.311   6.488 -0.0947 -0.5491 -0.8292
 1726TIP3    H2 5101   6.589   0.302   6.607 -1.6362 -0.9032 -2.0472
 1727TIP3   OH2 5102   8.671   1.843   5.735  0.2066 -0.1781 -0.1250
 1727TIP3    H1 5103   8.626   1.904   5.795  2.2957  0.6669  0.6256
 1727TIP3    H2 5104   8.667   1.887   5.650 -2.0497 -1.0045 -0.4987
 1728TIP3   OH2 5105   1.885   6.574   0.399  0.0079 -0.3629  0.0463
 1728TIP3    H1 5106   1.826   6.572   0.323 -0.4496  0.1842  0.3839
 1728TIP3    H2 5107   1.913   6.483   0.410  1.1679 -0.2289 -1.6278
 1729TIP3   OH2 5108   1.255   7.181   0.264  0.6311 -0.7820  0.5716
 1729TIP3    H1 5109   1.166   7.180   0.228  0.7980 -0.4110  0.1394
 1729TIP3    H2 5110   1.282   7.090   0.266  1.6259 -0.6308 -2.7866
 1730TIP3   OH2 5111   0.762   6.925   1.984 -0.1873 -0.1882  0.2973
 1730TIP3    H1 5112   0.853   6.894   1.975  0.1623  0.4598  1.4102
 1730TIP3    H2 5113   0.710   6.844   1.989  0.1764 -0.5585 -1.5939
 1731TIP3   OH2 5114   1.511   6.701   1.263 -0.2266 -0.3705  0.1946
 1731TIP3    H1 5115   1.556   6.765   1.318 -0.2158 -0.0503 -0.1803
 1731TIP3    H2 5116   1.543   6.719   1.174 -0.8822 -0.3289 -0.0357
 1732TIP3   OH2 5117   0.444   5.804   0.367 -0.5025 -0.4569 -0.0533
 1732TIP3    H1 5118   0.382   5.782   0.437 -1.4605 -1.9427 -1.3258
 1732TIP3    H2 5119   0.432   5.734   0.302  1.4327  0.0730 -1.0144
 1733TIP3   OH2 5120   1.123   5.311   3.061 -0.2038 -0.0916 -0.3246
 1733TIP3    H1 5121   1.067   5.236   3.045  0.1143 -0.0873 -1.4859
 1733TIP3    H2 5122   1.164   5.293   3.146 -2.5034  0.2588  0.9232
 1734TIP3   OH2 5123   0.171   6.088   2.872 -0.5476 -0.1645 -0.5309
 1734TIP3    H1 5124   0.255   6.042   2.874 -0.1198  0.5884 -0.8956
 1734TIP3    H2 5125   0.193   6.177   2.844 -1.0691  0.8634  2.1250
 1735TIP3   OH2 5126   8.022   5.893   0.101  0.0535  0.1460  0.4555
 1735TIP3    H1 5127   8.076   5.832   0.151  0.2841 -0.5833 -0.6696
 1735TIP3    H2 5128   7.960   5.928   0.166  1.3683  0.4334  1.5936
 1736TIP3   OH2 5129   1.553   7.071   2.179  0.3795  0.2837 -0.1406
 1736TIP3    H1 5130   1.471   7.026   2.159 -1.0060  2.2492  0.9107
 1736TIP3    H2 5131   1.605   7.006   2.226 -1.5056 -0.2960  1.2066
 1737TIP3   OH2 5132   6.641   3.270   7.140 -0.2601  0.1255 -0.1614
 1737TIP3    H1 5133   6.670   3.335   7.203 -0.1415  0.6327 -0.7389
 1737TIP3    H2 5134   6.625   3.191   7.192 -0.1937  0.5514  0.5018
 1738TIP3   OH2 5135   7.534   6.006   0.255  0.2454  0.3583 -0.3638
 1738TIP3    H1 5136   7.466   6.061   0.294 -0.9895  0.6125 -2.7836
 1738TIP3    H2 5137   7.528   5.924   0.303 -1.1667  0.6939  0.0766
 1739TIP3   OH2 5138   7.953   6.330   4.173  0.0681  0.4624  0.1916
 1739TIP3    H1 5139   7.981   6.392   4.240 -1.3620  2.4734 -1.0401
 1739TIP3    H2 5140   7.867   6.301   4.201  0.5785 -0.7015  0.5712
 1740TIP3   OH2 5141   8.881   6.943   0.033  0.4880 -0.2973 -0.4593
 1740TIP3    H1 5142   8.960   6.900   0.065 -0.5646 -0.6016  1.7938
 1740TIP3    H2 5143   8.809   6.901   0.081 -1.1482 -0.7069 -3.1506
 1741TIP3   OH2 5144   8.392   8.411   2.882  0.5124 -0.1657 -0.1291
 1741TIP3    H1 5145   8.485   8.388   2.894  0.4921 -0.5784 -0.7556
 1741TIP3    H2 5146   8.360   8.348   2.818 -0.2485 -0.1260  0.2153
 1742TIP3   OH2 5147   3.130   6.520   1.358  0.3063  0.5623  0.0406
 1742TIP3    H1 5148   3.118   6.614   1.349  0.5091  0.5003 -0.9817
 1742TIP3    H2 5149   3.050   6.482   1.322 -0.1976  0.3629  1.3453
 1743TIP3   OH2 5150   3.807   5.569  -0.005  0.7192  0.0198  0.2435
 1743TIP3    H1 5151   3.887   5.595   0.041  1.0456 -0.7937  0.1337
 1743TIP3    H2 5152   3.736   5.611   0.044  1.0501 -0.9295  1.5481
 1744TIP3   OH2 5153   3.347   7.664   2.383 -0.3375 -0.5217  0.0792
 1744TIP3    H1 5154   3.377   7.603   2.450  1.5982 -0.8662 -1.0517
 1744TIP3    H2 5155   3.375   7.625   2.300 -0.9079  0.8723 -0.8019
 1745TIP3   OH2 5156   8.241   0.490   6.305 -0.3155 -0.5641  0.1971
 1745TIP3    H1 5157   8.307   0.429   6.337 -0.7980 -0.9440  0.4691
 1745TIP3    H2 5158   8.290   0.571   6.287  0.2070 -0.8169  0.4774
 1746TIP3   OH2 5159   6.357   5.955   7.070 -0.3207  0.1253  0.2213
 1746TIP3    H1 5160   6.439   6.004   7.072 -0.6168  0.6029  0.7154
 1746TIP3    H2 5161   6.335   5.949   6.977  0.1605  0.1772  0.1002
 1747TIP3   OH2 5162   2.755   7.231   0.626 -0.3904 -0.4346 -0.2091
 1747TIP3    H1 5163   2.808   7.170   0.677  1.0974 -0.5060 -1.8173
 1747TIP3    H2 5164   2.741   7.187   0.542  0.5024  1.3266 -1.3084
 1748TIP3   OH2 5165   8.442   0.595   6.509  0.3141  0.2715 -0.5230
 1748TIP3    H1 5166   8.484   0.622   6.427  0.4452  0.3070 -0.4443
 1748TIP3    H2 5167   8.412   0.676   6.549 -0.3460  0.1955 -0.8578
 1749TIP3   OH2 5168   0.417   7.959   2.643  0.6473 -0.0510 -0.4467
 1749TIP3    H1 5169   0.356   7.969   2.717  1.1589 -0.5659  0.0507
 1749TIP3    H2 5170   0.431   8.048   2.611 -1.2895 -0.0329 -1.3264
 1750TIP3   OH2 5171   1.219   6.546   1.552 -0.1876 -0.1009 -0.3426
 1750TIP3    H1 5172   1.278   6.583   1.618  0.4436 -0.2264 -0.8344
 1750TIP3    H2 5173   1.174   6.474   1.598 -0.2392  0.2412  0.1436
 1751TIP3   OH2 5174   0.953   5.223   2.129 -0.0536  0.0654  0.1828
 1751TIP3    H1 5175   0.939   5.133   2.159 -0.4106 -0.2372 -0.8768
 1751TIP3    H2 5176   1.045   5.226   2.102 -0.6014 -0.6157 -1.8669
 1752TIP3   OH2 5177   1.687   4.081   3.277 -0.2202 -0.0586  0.3443
 1752TIP3    H1 5178   1.713   4.005   3.224 -0.1210  0.2269 -0.0228
 1752TIP3    H2 5179   1.687   4.049   3.367  2.2361  0.1325  0.4568
 1753TIP3   OH2 5180   8.621   3.433   5.217 -0.4104  0.4317  0.6279
 1753TIP3    H1 5181   8.613   3.507   5.156 -1.5895 -0.2400 -0.0571
 1753TIP3    H2 5182   8.643   3.473   5.300  0.8050  1.4110 -0.1501
 1754TIP3   OH2 5183   0.037   3.552   7.055  0.5656  0.2224 -0.2100
 1754TIP3    H1 5184   0.125   3.523   7.081  0.5250 -0.1029 -0.4291
 1754TIP3    H2 5185   0.051   3.637   7.015  0.8705 -0.1248 -0.8564
 1755TIP3   OH2 5186   5.037   0.295   0.365  0.0224  0.1738 -0.5341
 1755TIP3    H1 5187   4.954   0.332   0.395  0.5982  1.3159 -0.3394
 1755TIP3    H2 5188   5.032   0.300   0.270  1.2636  3.3886 -0.4693
 1756TIP3   OH2 5189   0.386   5.069   0.160 -0.1508 -0.2172  0.2363
 1756TIP3    H1 5190   0.385   5.130   0.086  0.3947  1.0836  1.2891
 1756TIP3    H2 5191   0.351   5.120   0.233 -0.8128 -1.5421  0.8479
 1757TIP3   OH2 5192   3.688   6.927   0.777 -0.2276 -0.0322 -0.3544
 1757TIP3    H1 5193   3.731   6.950   0.859 -1.0206 -0.5165  0.2085
 1757TIP3    H2 5194   3.678   6.832   0.781 -2.8499  0.2231  0.2987
 1758TIP3   OH2 5195   7.663   3.083   4.403  0.1870 -0.1654  0.0563
 1758TIP3    H1 5196   7.753   3.096   4.434 -0.1473  1.7230  0.2712
 1758TIP3    H2 5197   7.610   3.138   4.460 -1.0899 -1.0938 -0.2194
 1759TIP3   OH2 5198   7.650   2.778   6.575 -0.6345 -0.4217 -0.3001
 1759TIP3    H1 5199   7.615   2.794   6.663 -1.3394  1.8287 -0.9427
 1759TIP3    H2 5200   7.687   2.863   6.549 -0.5156 -1.0392 -2.2156
 1760TIP3   OH2 5201   8.106   1.958   5.925 -0.4011 -0.8331 -0.6426
 1760TIP3    H1 5202   8.179   2.010   5.893  0.3017 -1.8835 -0.7639
 1760TIP3    H2 5203   8.112   1.964   6.021  0.5549 -1.8677 -0.6253
 1761TIP3   OH2 5204   7.326   1.486   7.013 -0.8389  0.6700 -0.0750
 1761TIP3    H1 5205   7.302   1.431   7.088  0.0504  0.8198  0.3268
 1761TIP3    H2 5206   7.315   1.576   7.045 -0.5635  0.7334 -0.1549
 1762TIP3   OH2 5207   4.778   8.296   5.744  0.6523 -0.2339 -0.0257
 1762TIP3    H1 5208   4.797   8.220   5.799  0.9058  0.6711  1.1735
 1762TIP3    H2 5209   4.683   8.293   5.730  0.4188  0.1172  1.3846
 1763TIP3   OH2 5210   7.400   3.106   5.161  0.4999 -0.0806  0.2060
 1763TIP3    H1 5211   7.443   3.186   5.190  1.9814 -0.2403 -1.4919
 1763TIP3    H2 5212   7.412   3.105   5.066 -2.2593 -0.7193 -0.1975
 1764TIP3   OH2 5213   3.060   0.726   0.710  0.3682 -0.9187  0.1726
 1764TIP3    H1 5214   3.057   0.707   0.804  1.4129  0.8330  0.5714
 1764TIP3    H2 5215   3.025   0.814   0.702  1.3807 -0.6106 -0.9481
 1765TIP3   OH2 5216   0.866   1.105   6.480  0.0768  0.4822  0.4693
 1765TIP3    H1 5217   0.957   1.133   6.487  0.0743  1.7487 -3.1942
 1765TIP3    H2 5218   0.871   1.015   6.449  0.0714 -0.3499  2.8582
 1766TIP3   OH2 5219   2.962   5.516   0.515 -0.6142 -0.3477  0.5994
 1766TIP3    H1 5220   3.029   5.456   0.548  0.0300 -0.8843 -1.6200
 1766TIP3    H2 5221   2.896   5.458   0.476 -0.1771  0.3466 -1.2142
 1767TIP3   OH2 5222   7.783   2.858   6.908  0.0727  0.3050  0.1836
 1767TIP3    H1 5223   7.715   2.794   6.886  0.4584 -0.4989  1.2720
 1767TIP3    H2 5224   7.853   2.806   6.947  1.0332  1.2158 -0.2913
 1768TIP3   OH2 5225   8.177   1.392   6.438  0.0623 -0.1773 -0.4463
 1768TIP3    H1 5226   8.236   1.320   6.463 -1.4976 -1.0665  0.7352
 1768TIP3    H2 5227   8.188   1.400   6.343  1.8984 -0.4825 -0.2838
 1769TIP3   OH2 5228   6.020   0.379   0.715 -0.0805  0.5080 -0.0737
 1769TIP3    H1 5229   5.964   0.451   0.744  0.5096  0.4013  1.4208
 1769TIP3    H2 5230   6.088   0.421   0.662 -0.0841  0.9819  0.2885
 1770TIP3   OH2 5231   0.854   7.720   0.270  0.3485  0.2539 -0.0459
 1770TIP3    H1 5232   0.834   7.651   0.207  1.6367 -1.9666  1.8778
 1770TIP3    H2 5233   0.942   7.749   0.247  0.9077 -0.7098  0.7918
 1771TIP3   OH2 5234   2.721   5.524   0.689  0.4747 -0.5601 -0.7546
 1771TIP3    H1 5235   2.726   5.487   0.601 -0.4386  0.1158 -1.0965
 1771TIP3    H2 5236   2.709   5.618   0.675 -1.0917 -0.6300  0.0705
 1772TIP3   OH2 5237   2.363   7.517   1.902  0.5103 -0.2491 -0.2864
 1772TIP3    H1 5238   2.334   7.574   1.973  0.6906 -2.1173  1.3258
 1772TIP3    H2 5239   2.454   7.497   1.922  1.1796  0.8089 -2.1371
 1773TIP3   OH2 5240   4.271   0.702   1.057 -0.2534  0.4234  0.4502
 1773TIP3    H1 5241   4.233   0.614   1.050  0.7123 -0.0288  0.6965
 1773TIP3    H2 5242   4.359   0.687   1.093 -0.3996  1.5728  1.3150
 1774TIP3   OH2 5243   2.240   0.348   1.178  0.3319  0.0668  0.0306
 1774TIP3    H1 5244   2.156   0.359   1.132  1.3668  1.4328 -1.5756
 1774TIP3    H2 5245   2.297   0.305   1.113  1.9434  2.4109 -0.1561
 1775TIP3   OH2 5246   8.764   2.586   5.659 -0.0736  0.0762 -0.2193
 1775TIP3    H1 5247   8.813   2.563   5.738 -2.2463  0.9398  1.4395
 1775TIP3    H2 5248   8.795   2.674   5.636 -0.8877  0.6713  0.8985
 1776TIP3   OH2 5249   4.305   6.770   1.272 -0.4993  0.7504  0.4008
 1776TIP3    H1 5250   4.266   6.729   1.194  2.0382 -1.8197  0.4103
 1776TIP3    H2 5251   4.353   6.846   1.239 -0.5865  0.4774 -0.3546
 1777TIP3   OH2 5252   0.402   1.965   7.139  0.2949  0.1449 -0.5667
 1777TIP3    H1 5253   0.417   2.058   7.120 -2.4331  0.4582 -1.3333
 1777TIP3    H2 5254   0.443   1.952   7.225  1.0109  1.9726 -0.6049
 1778TIP3   OH2 5255   3.817   3.676   0.650  0.5952 -0.4177 -0.4342
 1778TIP3    H1 5256   3.904   3.650   0.679 -0.5557 -1.8072  1.9599
 1778TIP3    H2 5257   3.800   3.759   0.696  0.7780  0.0448 -1.1857
 1779TIP3   OH2 5258   4.575   0.772   1.230 -0.0106  0.2945  0.3534
 1779TIP3    H1 5259   4.610   0.697   1.182 -0.9264  0.1305 -0.0777
 1779TIP3    H2 5260   4.644   0.838   1.227  1.4535 -1.1039  2.1369
 1780TIP3   OH2 5261   2.837   5.977   0.350  0.0652  0.3919 -0.1041
 1780TIP3    H1 5262   2.848   5.891   0.308  0.5899 -0.1498  1.1327
 1780TIP3    H2 5263   2.858   5.962   0.442  0.6900  1.9708  0.0237
 1781TIP3   OH2 5264   1.321   6.754   0.679 -0.3742  0.3399 -0.0638
 1781TIP3    H1 5265   1.396   6.698   0.659 -0.6529 -0.3713  0.8534
 1781TIP3    H2 5266   1.288   6.722   0.763 -1.3347  1.0425 -0.1576
 1782TIP3   OH2 5267   0.468   7.374   1.243 -0.0126  0.1020 -0.9584
 1782TIP3    H1 5268   0.465   7.370   1.147  3.0229  0.6381 -1.1351
 1782TIP3    H2 5269   0.447   7.464   1.264  0.4618  0.2699 -1.1984
 1783TIP3   OH2 5270   2.815   7.016   0.437  1.0042 -0.1877  0.0080
 1783TIP3    H1 5271   2.771   6.945   0.484 -0.2422  0.4183 -0.2300
 1783TIP3    H2 5272   2.908   6.994   0.443  0.6137 -2.0952 -0.4435
 1784TIP3   OH2 5273   3.727   7.446   0.312 -0.3127 -0.1885 -0.1729
 1784TIP3    H1 5274   3.672   7.444   0.233 -1.2606 -0.4838  0.4872
 1784TIP3    H2 5275   3.797   7.383   0.293 -0.3156  0.0271 -0.9339
 1785TIP3   OH2 5276   0.858   6.101   0.983  0.1886 -0.1049  0.1534
 1785TIP3    H1 5277   0.931   6.111   0.923 -0.2949 -0.1708 -0.4531
 1785TIP3    H2 5278   0.780   6.109   0.928 -0.2729 -3.1000  0.2421
 1786TIP3   OH2 5279   1.465   7.888   0.526 -0.1201  0.0874 -0.7870
 1786TIP3    H1 5280   1.507   7.956   0.580 -0.7636 -0.0365 -0.1233
 1786TIP3    H2 5281   1.485   7.806   0.571 -1.1529  0.0361 -0.4034
 1787TIP3   OH2 5282   8.503   1.513   5.450 -0.0534  0.4303  0.1108
 1787TIP3    H1 5283   8.515   1.476   5.538  1.4370  1.1228  0.2227
 1787TIP3    H2 5284   8.449   1.449   5.404  0.5871 -0.7903  1.0046
 1788TIP3   OH2 5285   7.487  -0.005   5.907 -0.2749 -0.1326  0.2099
 1788TIP3    H1 5286   7.553   0.057   5.938  0.5681 -1.2610  0.7061
 1788TIP3    H2 5287   7.415   0.050   5.877  0.7397  1.1137 -0.0074
 1789TIP3   OH2 5288   7.756   2.325   6.369 -0.1638  0.1507  0.8934
 1789TIP3    H1 5289   7.798   2.332   6.283 -0.1498 -0.3986  0.8558
 1789TIP3    H2 5290   7.761   2.413   6.405 -0.4393  0.4535  0.1993
 1790TIP3   OH2 5291   3.496   1.314   0.658 -0.1375  0.3753 -0.0835
 1790TIP3    H1 5292   3.561   1.312   0.727 -1.0122  1.1178  0.7755
 1790TIP3    H2 5293   3.546   1.307   0.577  0.7159 -3.7228  0.6872
 1791TIP3   OH2 5294   2.126   6.072   0.040 -0.3887  0.0470 -0.4524
 1791TIP3    H1 5295   2.178   6.153   0.039 -0.3766  0.0828  1.0883
 1791TIP3    H2 5296   2.041   6.099   0.075  0.2219 -0.9247  1.8891
 1792TIP3   OH2 5297   2.892   5.994   0.614 -0.3373  0.0655  0.3491
 1792TIP3    H1 5298   2.889   6.040   0.698 -0.7123  1.7732 -0.5817
 1792TIP3    H2 5299   2.946   5.916   0.631 -1.1646 -0.0917  2.3877
 1793TIP3   OH2 5300   4.394   0.220   0.633 -0.0976  0.2325  0.1682
 1793TIP3    H1 5301   4.447   0.236   0.554 -0.4019  0.9242  0.1017
 1793TIP3    H2 5302   4.304   0.228   0.603 -0.2094  1.5197  0.7810
 1794TIP3   OH2 5303   4.303   7.893   3.156 -0.3154 -0.6679 -0.6168
 1794TIP3    H1 5304   4.368   7.823   3.166 -0.4483 -1.0952 -2.4260
 1794TIP3    H2 5305   4.221   7.854   3.185  0.0946 -0.3404  1.0470
 1795TIP3   OH2 5306   7.910   2.139   5.844 -0.0557 -0.2671 -0.8736
 1795TIP3    H1 5307   7.951   2.070   5.897 -0.5305  0.6634  0.7293
 1795TIP3    H2 5308   7.829   2.099   5.813 -0.2318 -0.5101 -0.1143
 1796TIP3   OH2 5309   1.618   7.124   0.599 -0.2229 -0.2698 -0.0462
 1796TIP3    H1 5310   1.529   7.104   0.628 -0.7642  0.2947 -1.2704
 1796TIP3    H2 5311   1.621   7.219   0.594  0.3885 -0.2937 -0.1919
 1797TIP3   OH2 5312   8.048   3.230   6.900 -0.4878  0.0650 -0.2998
 1797TIP3    H1 5313   7.960   3.194   6.889  0.7164 -3.2242  0.1533
 1797TIP3    H2 5314   8.077   3.196   6.984  0.8158  2.0599  0.0780
 1798TIP3   OH2 5315   6.311   0.529   6.525 -0.8995  0.4162 -0.2336
 1798TIP3    H1 5316   6.334   0.478   6.448 -0.3294 -0.1791  0.3172
 1798TIP3    H2 5317   6.287   0.615   6.491 -0.3244  0.2617 -1.0432
 1799TIP3   OH2 5318   1.866   7.972   0.165 -0.6199  0.4255 -0.1800
 1799TIP3    H1 5319   1.834   7.903   0.224 -1.4616  1.3628  0.4657
 1799TIP3    H2 5320   1.957   7.986   0.192 -0.2975 -0.7244 -0.6018
 1800TIP3   OH2 5321   4.381   5.960   2.605  0.5327  0.1474 -0.3792
 1800TIP3    H1 5322   4.287   5.965   2.619  0.5683 -1.7067  0.5799
 1800TIP3    H2 5323   4.419   6.009   2.678  0.4080 -1.8045  1.0197
 1801TIP3   OH2 5324   0.520   2.441   6.174 -0.1506 -0.1137  0.1971
 1801TIP3    H1 5325   0.607   2.447   6.215  0.4343  0.7976 -1.1197
 1801TIP3    H2 5326   0.538   2.412   6.085 -1.2118 -0.0300 -0.0467
 1802TIP3   OH2 5327   6.557   2.160   6.367 -0.2925  0.3854  0.3128
 1802TIP3    H1 5328   6.479   2.105   6.373  1.4975 -2.0625  2.4443
 1802TIP3    H2 5329   6.611   2.134   6.442  1.1167  4.3666  0.8235
 1803TIP3   OH2 5330   7.187   4.330   6.008 -0.3769 -0.4524 -0.1954
 1803TIP3    H1 5331   7.112   4.372   5.965  0.4998  0.3760 -0.9587
 1803TIP3    H2 5332   7.192   4.372   6.093 -1.1762 -0.9787  0.1149
 1804TIP3   OH2 5333   2.038   5.322   0.471  0.3803 -0.0036 -0.4056
 1804TIP3    H1 5334   2.041   5.268   0.550  0.4542  0.8073  0.1427
 1804TIP3    H2 5335   2.082   5.403   0.495  0.0636  0.4004 -1.1634
 1805TIP3   OH2 5336   5.575   1.579   0.646 -0.0045 -0.2110  0.4882
 1805TIP3    H1 5337   5.591   1.636   0.570  1.1507 -0.0505  0.8547
 1805TIP3    H2 5338   5.504   1.623   0.693  0.2137  0.4156  0.2404
 1806TIP3   OH2 5339   7.664   4.585   7.008 -0.5874  0.0310 -0.5057
 1806TIP3    H1 5340   7.662   4.648   6.935  0.5967  1.5773  0.7806
 1806TIP3    H2 5341   7.613   4.627   7.077  0.2662 -0.3882  0.3885
 1807TIP3   OH2 5342   3.070   4.904   0.196 -0.0189 -0.7060  0.2743
 1807TIP3    H1 5343   3.042   4.820   0.159  0.4742 -0.4303 -0.7384
 1807TIP3    H2 5344   3.122   4.880   0.272 -0.3679 -1.3078  0.3300
 1808TIP3   OH2 5345   2.218   5.909   0.257 -0.2037 -0.6276 -0.0594
 1808TIP3    H1 5346   2.268   5.981   0.296 -0.4216 -0.1538 -0.6508
 1808TIP3    H2 5347   2.185   5.945   0.175 -0.3678 -1.3862 -0.3236
 1809TIP3   OH2 5348   8.711   2.765   5.953  0.2517  0.2205 -0.1625
 1809TIP3    H1 5349   8.751   2.677   5.953  0.9693  0.5385 -1.1797
 1809TIP3    H2 5350   8.724   2.797   6.043 -0.0016 -0.7037  0.2117
 1810TIP3   OH2 5351   0.607   1.759   7.187  0.1120 -0.0392 -0.3161
 1810TIP3    H1 5352   0.698   1.757   7.156  0.2670 -1.1580  0.1532
 1810TIP3    H2 5353   0.610   1.713   7.271 -1.2399 -1.9637 -1.2864
 1811TIP3   OH2 5354   5.120   0.476   0.930  0.2028 -0.0604 -0.3565
 1811TIP3    H1 5355   5.066   0.432   0.865 -0.4922  0.3119 -0.0311
 1811TIP3    H2 5356   5.075   0.559   0.948 -0.7040 -1.0080  2.0557
 1812TIP3   OH2 5357   6.712   3.539   7.208  0.1615  0.6518  0.2827
 1812TIP3    H1 5358   6.806   3.537   7.193  0.1293 -0.4972  0.1597
 1812TIP3    H2 5359   6.674   3.555   7.121  0.2712  1.8630  0.4582
 1813TIP3   OH2 5360   5.767   7.967   6.451 -0.5431 -0.4313  0.4638
 1813TIP3    H1 5361   5.818   7.914   6.512 -1.4822 -1.0771  0.6858
 1813TIP3    H2 5362   5.820   8.046   6.439  0.2748 -0.8729  1.0800
 1814TIP3   OH2 5363   2.220   5.203   0.305 -0.1420 -0.4198  0.7327
 1814TIP3    H1 5364   2.141   5.232   0.350 -0.6624 -1.2820  0.3702
 1814TIP3    H2 5365   2.258   5.138   0.364 -0.7901 -1.5043 -0.0322
 1815TIP3   OH2 5366   7.250   1.352   6.315 -0.2212  0.1879  0.3996
 1815TIP3    H1 5367   7.303   1.407   6.373  0.0093  1.1964 -0.7685
 1815TIP3    H2 5368   7.312   1.316   6.252 -0.3387 -1.5626  1.2306
 1816TIP3   OH2 5369   1.422   1.644   6.838  0.0470  0.5869  0.0803
 1816TIP3    H1 5370   1.455   1.612   6.755 -0.7193  1.6789 -0.6645
 1816TIP3    H2 5371   1.353   1.582   6.862 -0.1006  0.5687 -0.3797
 1817TIP3   OH2 5372   7.369   2.909   6.976  0.4870  0.5439 -0.5005
 1817TIP3    H1 5373   7.433   2.961   7.023 -0.2331  0.5162  0.5294
 1817TIP3    H2 5374   7.335   2.847   7.041 -2.8303  2.5960 -0.1265
 1818TIP3   OH2 5375   2.621   7.885   1.055 -0.5659  0.0784 -0.9290
 1818TIP3    H1 5376   2.684   7.918   0.990  0.1173  0.3228 -0.1513
 1818TIP3    H2 5377   2.547   7.945   1.049 -0.5464  0.0389 -1.5600
 1819TIP3   OH2 5378   0.767   6.265   0.115  0.2723 -0.1260  0.5869
 1819TIP3    H1 5379   0.851   6.223   0.132  0.8452  1.1513  0.9319
 1819TIP3    H2 5380   0.766   6.342   0.172 -0.9955  0.0427  0.3616
 1820TIP3   OH2 5381  -0.010   3.133   5.477 -0.3579 -0.6341  0.1409
 1820TIP3    H1 5382  -0.001   3.038   5.473  2.5146 -0.4868  1.8541
 1820TIP3    H2 5383   0.039   3.165   5.401  0.8097 -0.4405  0.9637
 1821TIP3   OH2 5384   5.898   7.817   6.669 -0.1002 -0.0726 -0.0053
 1821TIP3    H1 5385   5.836   7.817   6.742  1.0618 -0.7907  1.0308
 1821TIP3    H2 5386   5.955   7.892   6.686  0.3436 -0.4042 -0.0203
 1822TIP3   OH2 5387   3.992   5.629   1.006 -0.0008  0.0545  0.0302
 1822TIP3    H1 5388   4.060   5.609   1.071 -1.6644  0.7340  2.0411
 1822TIP3    H2 5389   4.031   5.695   0.949  0.5687  1.5048  2.0462
 1823TIP3   OH2 5390   2.926   6.450   1.057 -0.0203  0.7575  0.1439
 1823TIP3    H1 5391   2.911   6.448   1.152 -1.3171  1.5310 -0.0422
 1823TIP3    H2 5392   2.843   6.477   1.020 -0.2650 -1.9175 -1.3891
 1824TIP3   OH2 5393   4.671   4.889   1.198 -0.0344 -0.0745  0.5480
 1824TIP3    H1 5394   4.614   4.835   1.143 -0.5896  0.6725  0.3778
 1824TIP3    H2 5395   4.731   4.827   1.239  0.0324 -0.6991 -0.4782
 1825TIP3   OH2 5396   0.428   6.508   1.047 -0.1655 -0.1079 -0.2842
 1825TIP3    H1 5397   0.457   6.442   0.984  0.2203  0.4130 -0.6576
 1825TIP3    H2 5398   0.506   6.559   1.067 -0.4694  0.2686 -0.0430
 1826TIP3   OH2 5399   4.415   0.428   0.820 -0.3626  0.7664  0.5556
 1826TIP3    H1 5400   4.330   0.470   0.834 -1.0087 -0.3088 -0.0743
 1826TIP3    H2 5401   4.399   0.364   0.751  0.9400  0.4709  0.5168
 1827TIP3   OH2 5402   5.661   0.366   1.147  0.1391  0.0178 -0.3045
 1827TIP3    H1 5403   5.722   0.437   1.125  1.1892 -0.9233 -0.4586
 1827TIP3    H2 5404   5.634   0.330   1.063 -0.4141  0.2359 -0.2258
 1828TIP3   OH2 5405   5.764   8.153   6.689  0.7103 -0.3038  0.1471
 1828TIP3    H1 5406   5.734   8.143   6.779 -0.1262  0.7605 -0.0084
 1828TIP3    H2 5407   5.853   8.119   6.690  0.1150 -1.9036  0.9888
 1829TIP3   OH2 5408   8.429   2.726   5.433 -0.0070 -0.1017 -0.1224
 1829TIP3    H1 5409   8.425   2.709   5.339 -0.3946  0.3175 -0.1822
 1829TIP3    H2 5410   8.396   2.645   5.472  0.4127 -0.3804 -0.3345
 1830TIP3   OH2 5411   3.933   0.911   1.336 -0.3412 -0.0300 -0.2940
 1830TIP3    H1 5412   4.011   0.870   1.299  0.3668  0.5351  0.5538
 1830TIP3    H2 5413   3.964   0.958   1.414 -1.2760  1.3916 -0.7490
 1831TIP3   OH2 5414   7.188   1.775   6.871 -0.3266  0.3065 -0.7412
 1831TIP3    H1 5415   7.106   1.762   6.823 -1.1157  2.9404 -0.1959
 1831TIP3    H2 5416   7.254   1.728   6.819 -1.8347 -0.1391 -2.2852
 1832TIP3   OH2 5417   4.036   5.818   0.181  0.0155 -0.2081 -0.6076
 1832TIP3    H1 5418   3.989   5.862   0.251  0.8644  0.2442 -0.3140
 1832TIP3    H2 5419   4.070   5.889   0.126 -0.4561 -0.5510 -1.3630
 1833TIP3   OH2 5420   8.137   2.052   6.181  0.2471 -0.5107 -0.0090
 1833TIP3    H1 5421   8.172   2.014   6.261 -0.4459  0.2703  0.6688
 1833TIP3    H2 5422   8.150   2.146   6.191  1.5103 -0.5079 -1.4704
 1834TIP3   OH2 5423   3.814   4.864   0.320 -0.1291 -0.7094 -0.0278
 1834TIP3    H1 5424   3.777   4.914   0.393 -1.1907 -2.4286  0.6454
 1834TIP3    H2 5425   3.739   4.837   0.268  0.4904 -1.0139 -0.7857
 1835TIP3   OH2 5426   2.982   7.609   1.517  0.3421 -0.0294  0.4711
 1835TIP3    H1 5427   3.018   7.619   1.605 -2.1075 -0.8669  1.6202
 1835TIP3    H2 5428   3.038   7.543   1.475  1.6154  0.4923  1.3228
 1836TIP3   OH2 5429   3.155   6.568   0.819 -0.4698 -0.0152  0.3037
 1836TIP3    H1 5430   3.178   6.603   0.905  1.2889 -1.1047  0.2927
 1836TIP3    H2 5431   3.198   6.628   0.757 -0.6773  0.0315  0.2044
 1837TIP3   OH2 5432   5.669   0.629   1.648 -0.0976  0.3968 -0.2610
 1837TIP3    H1 5433   5.698   0.566   1.714 -2.3039  0.6375  0.9961
 1837TIP3    H2 5434   5.675   0.582   1.565 -0.4607 -1.0376  0.5175
 1838TIP3   OH2 5435   2.570   7.552   1.186 -0.1907 -0.9947 -0.0845
 1838TIP3    H1 5436   2.603   7.463   1.203  0.7102 -0.8862 -1.1696
 1838TIP3    H2 5437   2.607   7.605   1.256 -0.2438 -1.3676  0.2295
 1839TIP3   OH2 5438   1.559   3.777   6.259  0.3920  0.4937  0.4189
 1839TIP3    H1 5439   1.599   3.690   6.265  1.4715  0.9947  0.5954
 1839TIP3    H2 5440   1.608   3.821   6.190 -1.3118  0.3704 -0.9192
 1840TIP3   OH2 5441   8.536   2.014   5.889 -0.3202 -0.1953 -0.6668
 1840TIP3    H1 5442   8.513   2.078   5.956 -0.8931 -1.1357  0.0538
 1840TIP3    H2 5443   8.469   2.024   5.822 -1.3458 -1.1257  0.1989
 1841TIP3   OH2 5444   1.721   1.438   6.773  0.6275 -0.3127  0.4801
 1841TIP3    H1 5445   1.633   1.454   6.740 -0.3216 -2.6401  1.7272
 1841TIP3    H2 5446   1.776   1.437   6.694 -0.6620 -0.0687 -0.4445
 1842TIP3   OH2 5447   3.747   6.403   1.534 -0.4330 -0.4813 -0.1639
 1842TIP3    H1 5448   3.702   6.420   1.618  1.3003 -1.8901  1.0848
 1842TIP3    H2 5449   3.746   6.488   1.489 -0.4659  0.5745  1.7551
 1843TIP3   OH2 5450   0.200   1.533   6.711  0.0660  0.1088  0.6472
 1843TIP3    H1 5451   0.196   1.456   6.767  2.3790  0.9923  2.0794
 1843TIP3    H2 5452   0.262   1.509   6.642  1.6530  1.0417  1.7176
 1844TIP3   OH2 5453   8.196   4.412   0.733 -0.4112  0.1070 -0.0550
 1844TIP3    H1 5454   8.225   4.350   0.666  0.5142  1.2966 -0.7817
 1844TIP3    H2 5455   8.173   4.491   0.683 -1.4542  0.4033  0.8655
 1845TIP3   OH2 5456   0.937   5.491   2.980  0.2926  0.4906 -0.2359
 1845TIP3    H1 5457   1.002   5.422   2.995 -0.1339 -0.2223 -1.5598
 1845TIP3    H2 5458   0.853   5.446   2.983  0.0877  0.6335 -2.7012
 1846TIP3   OH2 5459   0.101   1.090   5.201 -0.1951 -0.1954 -0.8057
 1846TIP3    H1 5460   0.165   1.120   5.267 -0.0808 -0.6589 -0.7056
 1846TIP3    H2 5461   0.094   0.996   5.216  0.4306 -0.4420 -1.9780
 1847TIP3   OH2 5462   2.279   4.666   1.186 -0.1316 -0.5490 -0.3222
 1847TIP3    H1 5463   2.336   4.741   1.168 -2.0501  1.1713  0.6118
 1847TIP3    H2 5464   2.313   4.630   1.269 -1.3306  1.4502  1.0786
 1848TIP3   OH2 5465   7.703   4.082   6.983 -0.3111  0.3531 -0.1795
 1848TIP3    H1 5466   7.667   4.165   6.952 -2.5823 -0.7111 -0.5419
 1848TIP3    H2 5467   7.683   4.081   7.076 -1.9364 -0.5700 -0.5235
 1849TIP3   OH2 5468   7.007   0.694   0.293  0.5543  0.1230 -0.1793
 1849TIP3    H1 5469   7.031   0.695   0.386  0.7625 -1.3352 -0.2017
 1849TIP3    H2 5470   6.912   0.709   0.292  0.6044  0.4869  0.2351
 1850TIP3   OH2 5471   8.260   3.205   6.232 -0.1881 -0.4251  0.1186
 1850TIP3    H1 5472   8.173   3.227   6.266 -0.9412 -1.1416 -1.3269
 1850TIP3    H2 5473   8.293   3.288   6.197  0.7239  0.4012  2.7739
 1851TIP3   OH2 5474   1.693   6.479   1.954 -0.2480  0.0317 -0.0073
 1851TIP3    H1 5475   1.612   6.496   2.001 -0.4931 -1.3420  0.0812
 1851TIP3    H2 5476   1.706   6.385   1.961  1.3167  0.2221 -0.0960
 1852TIP3   OH2 5477   6.736   0.633   0.253 -0.5462  0.5139  0.3360
 1852TIP3    H1 5478   6.744   0.551   0.301 -1.2475  0.2055 -0.0692
 1852TIP3    H2 5479   6.644   0.638   0.228 -0.1378  0.5235 -1.2352
 1853TIP3   OH2 5480   1.764   5.519   1.459 -0.4440 -0.1914 -0.1616
 1853TIP3    H1 5481   1.696   5.492   1.397 -1.0467  0.5150  0.1736
 1853TIP3    H2 5482   1.735   5.606   1.489  1.7589  1.1188 -1.6937
 1854TIP3   OH2 5483   3.292   2.128   6.339  0.2339  0.0760 -0.4113
 1854TIP3    H1 5484   3.226   2.060   6.351  0.3351 -0.5742 -3.3303
 1854TIP3    H2 5485   3.250   2.207   6.374 -0.3027 -1.2016  1.9934
 1855TIP3   OH2 5486   2.158   3.188   7.047 -0.2836  0.0804 -0.1270
 1855TIP3    H1 5487   2.244   3.205   7.010 -0.7234  2.3323 -0.1754
 1855TIP3    H2 5488   2.101   3.253   7.007 -1.3911  0.6317  2.2285
 1856TIP3   OH2 5489   5.864   8.226   0.715 -0.1704  0.9141  0.6745
 1856TIP3    H1 5490   5.804   8.291   0.752 -1.5996 -0.0683  0.1479
 1856TIP3    H2 5491   5.851   8.148   0.769  0.7509  0.7424  0.6490
 1857TIP3   OH2 5492   8.715   3.259   5.034  0.1425  0.6727  0.0774
 1857TIP3    H1 5493   8.680   3.290   5.118 -1.5985 -1.5154  0.2265
 1857TIP3    H2 5494   8.663   3.305   4.968  0.6348  1.4223  0.2031
 1858TIP3   OH2 5495   4.617   5.175   2.159  0.1612 -0.4012 -0.1792
 1858TIP3    H1 5496   4.552   5.228   2.205  0.1675  0.0661 -0.7111
 1858TIP3    H2 5497   4.567   5.127   2.094  0.7490  2.3866 -2.7998
 1859TIP3   OH2 5498   0.504   2.878   7.216 -0.0440  0.7967 -0.1222
 1859TIP3    H1 5499   0.495   2.788   7.186 -0.0516  0.6947  0.1788
 1859TIP3    H2 5500   0.591   2.881   7.257 -0.1841  0.8324  0.1770
 1860TIP3   OH2 5501   8.548   4.502   7.242 -0.6662  0.0790 -0.2333
 1860TIP3    H1 5502   8.515   4.575   7.191  0.4692  0.3505 -0.5888
 1860TIP3    H2 5503   8.474   4.474   7.296 -1.4095  0.7854 -0.8948
 1861TIP3   OH2 5504   0.920   6.109   0.429 -0.2141 -0.2706 -0.1352
 1861TIP3    H1 5505   0.841   6.162   0.434  0.2537  0.3021  1.6252
 1861TIP3    H2 5506   0.958   6.131   0.344 -0.7291  1.1976 -0.0007
 1862TIP3   OH2 5507   5.299   7.845   2.274 -0.7474 -0.0057 -0.0979
 1862TIP3    H1 5508   5.296   7.924   2.219  0.7074 -0.2734 -0.5963
 1862TIP3    H2 5509   5.223   7.794   2.246 -1.0822  0.7204 -0.5452
 1863TIP3   OH2 5510   8.678   2.882   6.896 -0.5837 -0.3312  0.3072
 1863TIP3    H1 5511   8.675   2.794   6.933 -1.8285 -0.1463  0.6629
 1863TIP3    H2 5512   8.677   2.940   6.972  0.3393 -0.0102  0.0745
 1864TIP3   OH2 5513   0.892   3.665   6.135  0.0436 -0.1723  0.0272
 1864TIP3    H1 5514   0.853   3.637   6.052  2.8961 -0.1297 -1.3750
 1864TIP3    H2 5515   0.890   3.587   6.190  2.1650 -1.4651 -1.6457
 1865TIP3   OH2 5516   5.845   6.248   0.808  0.3649  0.5737  0.0156
 1865TIP3    H1 5517   5.817   6.315   0.870 -1.4010  1.1959 -1.4154
 1865TIP3    H2 5518   5.941   6.252   0.810  0.2987  3.0308  0.0960
 1866TIP3   OH2 5519   1.612   7.125   6.278 -0.0338 -0.0550 -0.8535
 1866TIP3    H1 5520   1.665   7.150   6.353  0.0802 -1.1129 -0.5853
 1866TIP3    H2 5521   1.532   7.178   6.287 -0.3537 -0.7449  0.4312
 1867TIP3   OH2 5522   4.752   7.898   3.664 -0.2650 -0.0882  0.3537
 1867TIP3    H1 5523   4.732   7.990   3.684 -0.8251 -0.0548 -0.3279
 1867TIP3    H2 5524   4.672   7.851   3.684 -0.4089 -0.2352 -0.5510
 1868TIP3   OH2 5525   1.411   0.047   6.687 -0.5044 -0.4938 -0.3751
 1868TIP3    H1 5526   1.390   0.060   6.595  1.0188  0.6705 -0.5641
 1868TIP3    H2 5527   1.467   0.121   6.710 -2.3412  0.2370  1.9629
 1869TIP3   OH2 5528   2.452   1.705   5.640 -0.0264 -0.1384  0.2452
 1869TIP3    H1 5529   2.532   1.744   5.604 -0.2527  1.2609  1.2259
 1869TIP3    H2 5530   2.483   1.634   5.696  0.5451  0.3875  0.6098
 1870TIP3   OH2 5531   0.382   0.250   4.187  0.0084 -0.0968  0.3358
 1870TIP3    H1 5532   0.362   0.189   4.115  3.5695 -0.3426 -0.5425
 1870TIP3    H2 5533   0.350   0.205   4.266 -0.0977 -1.7733 -0.6414
 1871TIP3   OH2 5534   0.559   8.317   3.599  0.1089 -0.3036  0.2676
 1871TIP3    H1 5535   0.534   8.317   3.692  1.9024 -1.4173  0.7635
 1871TIP3    H2 5536   0.477   8.299   3.553 -0.8444  0.4848  1.6249
 1872TIP3   OH2 5537   2.300   2.278   3.746  0.9973 -0.0663 -0.4481
 1872TIP3    H1 5538   2.236   2.349   3.736  0.4879 -0.3971  0.3977
 1872TIP3    H2 5539   2.352   2.281   3.666 -1.2952 -0.9730 -2.0491
 1873TIP3   OH2 5540   2.552   0.712   3.656 -0.0603  0.1255 -0.2805
 1873TIP3    H1 5541   2.590   0.698   3.743 -0.0173  1.0488 -0.1434
 1873TIP3    H2 5542   2.526   0.625   3.627  0.2638 -0.2393  0.5051
 1874TIP3   OH2 5543   6.037   8.198   3.324  0.4108 -0.4785 -0.0024
 1874TIP3    H1 5544   6.021   8.287   3.358  0.4048  0.2923 -1.9471
 1874TIP3    H2 5545   6.044   8.144   3.402  0.1931  1.2024  1.2240
 1875TIP3   OH2 5546   2.129   1.841   4.714  0.7062  0.0653 -0.3408
 1875TIP3    H1 5547   2.131   1.879   4.626 -1.3297 -1.8589 -1.2828
 1875TIP3    H2 5548   2.152   1.913   4.772  0.8680  1.6957 -2.3613
 1876TIP3   OH2 5549   8.331   0.045   4.094  0.1961 -0.1362 -0.2827
 1876TIP3    H1 5550   8.380   0.066   4.014  2.1623  1.7539  1.3728
 1876TIP3    H2 5551   8.268   0.116   4.103 -1.2194 -1.2510 -1.0282
 1877TIP3   OH2 5552   8.325   0.884   4.087  0.0715  0.6962  0.2281
 1877TIP3    H1 5553   8.405   0.916   4.130  1.0335 -1.2901 -0.0358
 1877TIP3    H2 5554   8.354   0.809   4.035 -1.7023  0.9040 -1.1126
 1878TIP3   OH2 5555   2.571   0.993   3.662 -0.4439  0.0801  0.0723
 1878TIP3    H1 5556   2.550   1.040   3.581 -4.3202 -0.2278  0.7784
 1878TIP3    H2 5557   2.532   0.906   3.650 -1.5837  0.2189  2.4637
 1879TIP3   OH2 5558   0.463   0.195   4.631 -0.3245  0.1287 -0.0071
 1879TIP3    H1 5559   0.403   0.188   4.557 -0.1235  0.2478 -0.1800
 1879TIP3    H2 5560   0.516   0.115   4.627 -0.9407 -0.3219  0.5591
 1880TIP3   OH2 5561   7.995   0.635   6.751 -0.0497 -0.2138  0.0163
 1880TIP3    H1 5562   7.994   0.540   6.738 -1.1184 -0.6122  2.7087
 1880TIP3    H2 5563   7.920   0.667   6.701 -1.2822 -1.1403  1.2214
 1881TIP3   OH2 5564   1.874   0.724   5.044  0.1141 -0.6140 -0.2678
 1881TIP3    H1 5565   1.889   0.725   4.949  0.3445  0.0407 -0.2246
 1881TIP3    H2 5566   1.784   0.693   5.053  0.1516 -0.8618 -0.6886
 1882TIP3   OH2 5567   8.551   0.783   5.050 -0.3614 -0.5740  0.5659
 1882TIP3    H1 5568   8.464   0.813   5.077 -0.5569 -0.2827 -0.3896
 1882TIP3    H2 5569   8.607   0.859   5.065 -0.1995 -0.8785  1.5299
 1883TIP3   OH2 5570   3.078   0.027   3.219  0.4998 -0.1325  0.4287
 1883TIP3    H1 5571   3.154   0.065   3.264  0.5702  0.6875 -0.3681
 1883TIP3    H2 5572   3.031  -0.020   3.287  0.4306  1.3670  1.4279
 1884TIP3   OH2 5573   3.554   1.268   4.589 -0.3095 -0.0037 -0.1653
 1884TIP3    H1 5574   3.512   1.246   4.506 -2.3698  1.3149  0.5048
 1884TIP3    H2 5575   3.607   1.345   4.570  0.6390 -0.7580 -0.6456
 1885TIP3   OH2 5576   0.770   2.302   4.620 -0.0053  0.8610  0.0828
 1885TIP3    H1 5577   0.863   2.282   4.611 -0.4216 -0.5570 -1.1710
 1885TIP3    H2 5578   0.756   2.307   4.714  1.8536  3.6182  0.2665
 1886TIP3   OH2 5579   1.962   2.235   5.933 -0.4111  0.1826 -0.4171
 1886TIP3    H1 5580   2.014   2.316   5.941 -1.5376  0.9293 -0.5405
 1886TIP3    H2 5581   1.947   2.207   6.023  0.9778 -0.5469 -0.3987
 1887TIP3   OH2 5582   3.020   0.308   4.877  0.3552  0.5181 -0.0984
 1887TIP3    H1 5583   3.008   0.348   4.791 -0.4249 -0.7610 -0.5995
 1887TIP3    H2 5584   2.979   0.370   4.938 -0.6540  0.5882 -0.8416
 1888TIP3   OH2 5585   7.693   8.301   5.744 -0.4493  0.0142 -0.1284
 1888TIP3    H1 5586   7.743   8.313   5.664  0.9810 -0.9389  0.6045
 1888TIP3    H2 5587   7.759   8.293   5.813 -1.6848  3.9628  1.6338
 1889TIP3   OH2 5588   2.728   0.840   6.659  0.7766  0.0557 -0.1792
 1889TIP3    H1 5589   2.779   0.823   6.580  0.1992  1.9768 -1.0015
 1889TIP3    H2 5590   2.662   0.770   6.661  1.1284 -0.3046 -1.1107
 1890TIP3   OH2 5591   8.721   8.103   2.112 -0.5204 -0.2434  0.6007
 1890TIP3    H1 5592   8.799   8.073   2.065 -1.1172  2.0583 -1.9739
 1890TIP3    H2 5593   8.756   8.140   2.193  0.8260 -1.3573  0.5633
 1891TIP3   OH2 5594   4.749   6.688   3.828  0.3004 -1.0685  0.0136
 1891TIP3    H1 5595   4.713   6.618   3.774  0.1967 -0.1919 -1.0728
 1891TIP3    H2 5596   4.680   6.709   3.891 -0.1883 -1.0158 -0.5360
 1892TIP3   OH2 5597   8.635   3.506   3.866 -0.0809 -0.3687 -0.0010
 1892TIP3    H1 5598   8.640   3.486   3.772 -0.3657 -2.3434  0.3645
 1892TIP3    H2 5599   8.542   3.525   3.881  0.1952  1.3037 -0.3576
 1893TIP3   OH2 5600   0.503   1.641   2.932  0.5233 -0.7884 -0.1513
 1893TIP3    H1 5601   0.565   1.596   2.989  1.1875 -0.3022 -0.4870
 1893TIP3    H2 5602   0.417   1.620   2.969  0.7494 -3.2725 -0.9686
 1894TIP3   OH2 5603   1.701   1.862   5.252 -0.1896  0.3962  0.2418
 1894TIP3    H1 5604   1.737   1.775   5.272  0.7093  0.9448  1.0677
 1894TIP3    H2 5605   1.725   1.877   5.160 -3.2402 -1.6037 -0.9543
 1895TIP3   OH2 5606   0.652   8.213   0.452 -0.1047  0.6400  0.2865
 1895TIP3    H1 5607   0.703   8.170   0.521  0.2856  1.7115  0.6651
 1895TIP3    H2 5608   0.681   8.171   0.371 -0.1174 -0.1871  0.7056
 1896TIP3   OH2 5609   0.238  -0.004   4.920  0.1851  0.6332 -0.5523
 1896TIP3    H1 5610   0.209  -0.051   4.841  1.1637  1.1638 -1.2388
 1896TIP3    H2 5611   0.193   0.080   4.916 -0.0820  0.5007 -0.3277
 1897TIP3   OH2 5612   3.281   0.793   3.946 -0.4098 -0.4266 -0.2534
 1897TIP3    H1 5613   3.305   0.796   4.039  0.5697 -0.0736 -0.5116
 1897TIP3    H2 5614   3.195   0.750   3.945  0.0674 -1.4272  0.7223
 1898TIP3   OH2 5615   5.147   0.963   2.344  0.0098  0.3505 -0.2920
 1898TIP3    H1 5616   5.237   0.989   2.367 -0.9812  1.6875  2.2640
 1898TIP3    H2 5617   5.158   0.898   2.275  3.0664 -1.4104  1.7460
 1899TIP3   OH2 5618   0.164   8.067   4.587 -0.0732 -0.3698 -0.1479
 1899TIP3    H1 5619   0.165   8.072   4.491  0.2206 -2.8144 -0.3019
 1899TIP3    H2 5620   0.159   8.158   4.615 -1.1434  0.3462 -2.5009
 1900TIP3   OH2 5621   2.172   0.327   3.716  0.2867  0.4050  0.8449
 1900TIP3    H1 5622   2.229   0.404   3.704 -0.8926  1.0996 -0.5106
 1900TIP3    H2 5623   2.202   0.265   3.649  0.8063 -0.0590  1.5050
 1901TIP3   OH2 5624   2.446   2.255   3.973  0.3367 -0.4773 -0.1600
 1901TIP3    H1 5625   2.481   2.344   3.973 -1.2128  0.1749 -2.1059
 1901TIP3    H2 5626   2.372   2.259   3.912 -0.5964 -2.7698  0.7869
 1902TIP3   OH2 5627   2.525   0.331   4.241 -0.3739 -0.3057 -0.2196
 1902TIP3    H1 5628   2.593   0.269   4.214  0.0250  0.2689 -0.5388
 1902TIP3    H2 5629   2.443   0.285   4.223 -0.1129 -0.0838 -2.1077
 1903TIP3   OH2 5630   5.997   1.805   3.754 -0.1580  0.4072  0.5818
 1903TIP3    H1 5631   5.950   1.888   3.755 -0.2054  0.3708  1.2472
 1903TIP3    H2 5632   6.085   1.827   3.725 -0.1452  0.6967  0.8502
 1904TIP3   OH2 5633   3.173   0.391   4.160  0.1087  0.0913 -0.2288
 1904TIP3    H1 5634   3.208   0.392   4.249  0.6783 -3.0980 -0.3783
 1904TIP3    H2 5635   3.247   0.417   4.104 -0.2352  2.0383  0.1872
 1905TIP3   OH2 5636   5.333   2.299   1.589 -0.4221 -0.0162 -0.3013
 1905TIP3    H1 5637   5.371   2.214   1.610 -1.4472 -0.4219 -0.0206
 1905TIP3    H2 5638   5.298   2.331   1.672  1.1651  1.3187 -0.1221
 1906TIP3   OH2 5639   3.103   7.244   5.487  0.7927  0.0068  0.0201
 1906TIP3    H1 5640   3.127   7.335   5.502 -0.3243  0.3587 -0.2509
 1906TIP3    H2 5641   3.017   7.248   5.444  0.4944 -1.1806  0.4605
 1907TIP3   OH2 5642   7.403   7.645   3.389  0.5445 -0.1581 -1.1214
 1907TIP3    H1 5643   7.496   7.648   3.408  0.2475 -0.8563  0.5676
 1907TIP3    H2 5644   7.392   7.567   3.334  0.7509 -1.0389  0.0528
 1908TIP3   OH2 5645   4.358   0.728   1.847 -0.3758  0.0667  0.1716
 1908TIP3    H1 5646   4.309   0.783   1.786  2.2508  3.1220  0.6690
 1908TIP3    H2 5647   4.305   0.728   1.927 -0.5956  1.6654  0.0522
 1909TIP3   OH2 5648   1.890   1.597   2.146 -0.0251 -0.3078 -0.1646
 1909TIP3    H1 5649   1.877   1.502   2.147 -2.3860 -0.0237  2.3499
 1909TIP3    H2 5650   1.803   1.634   2.163  0.9998  2.2802 -0.2332
 1910TIP3   OH2 5651   2.844   1.191   3.652  0.2993  0.1871  0.0058
 1910TIP3    H1 5652   2.895   1.176   3.572  1.8866  2.5180  0.5157
 1910TIP3    H2 5653   2.756   1.210   3.621  0.1851 -1.9667 -1.0204
 1911TIP3   OH2 5654   2.834   0.395   1.781 -0.1223  0.2531 -0.2847
 1911TIP3    H1 5655   2.910   0.353   1.744 -1.1706 -0.8325 -1.2285
 1911TIP3    H2 5656   2.862   0.424   1.868  1.3099 -0.2429 -0.5829
 1912TIP3   OH2 5657   2.561   2.103   2.077  0.0914  0.3703 -0.0293
 1912TIP3    H1 5658   2.651   2.112   2.111  0.4662  0.9364 -1.1717
 1912TIP3    H2 5659   2.551   2.174   2.014 -0.9175 -0.1302 -0.4477
 1913TIP3   OH2 5660   7.725   8.045   3.743 -0.3112 -0.0124  0.0874
 1913TIP3    H1 5661   7.758   8.051   3.833 -2.5981  3.9372  0.7784
 1913TIP3    H2 5662   7.645   7.994   3.750 -1.2353  1.4719  0.5756
 1914TIP3   OH2 5663   3.895   0.716   2.479  0.6277 -0.2155  0.2453
 1914TIP3    H1 5664   3.983   0.682   2.495  0.4526 -0.0054  1.6918
 1914TIP3    H2 5665   3.864   0.744   2.564 -0.9257 -0.4649 -0.2161
 1915TIP3   OH2 5666   6.093   0.316   2.213  0.6303  0.0031  0.4742
 1915TIP3    H1 5667   6.071   0.231   2.251 -1.1578  0.9671  1.6672
 1915TIP3    H2 5668   6.137   0.295   2.131  0.0408 -2.0721  0.6640
 1916TIP3   OH2 5669   3.488   2.508   1.940  0.2770 -0.2022 -0.6549
 1916TIP3    H1 5670   3.539   2.431   1.968  3.1240  1.5238 -0.9146
 1916TIP3    H2 5671   3.514   2.577   2.000 -0.7204  1.0927 -1.6990
 1917TIP3   OH2 5672   2.610   2.562   3.311 -0.1981 -0.1160  0.2207
 1917TIP3    H1 5673   2.592   2.521   3.396 -0.9663 -1.5652 -0.6247
 1917TIP3    H2 5674   2.523   2.584   3.276  0.0634 -0.4094 -0.6172
 1918TIP3   OH2 5675   1.029   1.447   2.778 -0.3072  0.5670 -0.0464
 1918TIP3    H1 5676   1.090   1.508   2.820  0.8778  0.1033 -1.0536
 1918TIP3    H2 5677   0.990   1.397   2.850  0.8806  0.5292  0.5735
 1919TIP3   OH2 5678   1.353   1.421   3.392  0.2942  0.9120 -0.0129
 1919TIP3    H1 5679   1.362   1.474   3.312 -0.2295  2.0451  0.6691
 1919TIP3    H2 5680   1.356   1.485   3.463 -2.6375  0.2542  0.7295
 1920TIP3   OH2 5681   7.205   8.296   0.703  0.2604  0.3655  0.2006
 1920TIP3    H1 5682   7.254   8.378   0.701 -0.4489  0.7464 -2.8889
 1920TIP3    H2 5683   7.114   8.321   0.688 -0.0979 -0.9020  0.1608
 1921TIP3   OH2 5684   8.749   0.133   3.125  0.0934 -0.4025 -0.3265
 1921TIP3    H1 5685   8.800   0.184   3.062 -1.4552  1.4261 -0.1395
 1921TIP3    H2 5686   8.734   0.049   3.082 -0.8536  0.7763 -2.3880
 1922TIP3   OH2 5687   2.729   0.634   4.802 -0.1078 -0.3136  0.8427
 1922TIP3    H1 5688   2.794   0.642   4.732 -1.8925 -0.7095 -0.9029
 1922TIP3    H2 5689   2.653   0.596   4.759 -1.2777 -0.4545  3.0028
 1923TIP3   OH2 5690   3.337   0.748   5.600  0.7230 -0.1093  0.3713
 1923TIP3    H1 5691   3.397   0.805   5.552  1.4282 -0.5660  0.6884
 1923TIP3    H2 5692   3.394   0.683   5.642  0.0580 -0.2021  1.1583
 1924TIP3   OH2 5693   8.537   8.232   3.881 -0.4586 -0.2194  0.2309
 1924TIP3    H1 5694   8.555   8.201   3.970 -1.7387  1.1225  0.9671
 1924TIP3    H2 5695   8.451   8.273   3.886 -0.0372  0.9361 -1.3522
 1925TIP3   OH2 5696   0.331   8.263   3.809  0.4224 -0.4114 -0.4161
 1925TIP3    H1 5697   0.362   8.186   3.762 -0.6467  0.1637 -2.1251
 1925TIP3    H2 5698   0.236   8.253   3.812  0.1721  1.3507 -1.6390
 1926TIP3   OH2 5699   8.877   0.621   3.571  0.1174  0.2408  0.9655
 1926TIP3    H1 5700   8.895   0.697   3.626 -0.5994  1.7564 -0.8202
 1926TIP3    H2 5701   8.795   0.643   3.527  1.4456 -0.2365 -1.8519
 1927TIP3   OH2 5702   4.935   0.288   1.403  0.3463 -0.0027  0.1995
 1927TIP3    H1 5703   4.857   0.247   1.439  0.1378  0.5907  0.4349
 1927TIP3    H2 5704   5.008   0.244   1.445  0.1340 -0.4877  0.0588
 1928TIP3   OH2 5705   2.186   0.233   5.501 -0.6394 -0.3964  0.5533
 1928TIP3    H1 5706   2.113   0.291   5.520 -1.1934 -0.0865 -2.2796
 1928TIP3    H2 5707   2.264   0.287   5.512 -0.9536 -0.0684  1.2128
 1929TIP3   OH2 5708   2.760   2.800   2.566 -0.1678 -0.6902  0.0728
 1929TIP3    H1 5709   2.718   2.722   2.530 -0.8788 -0.7654  1.0295
 1929TIP3    H2 5710   2.805   2.840   2.492 -0.5155 -1.5466 -0.6051
 1930TIP3   OH2 5711   5.003   0.147   4.750 -0.3020  0.5763 -0.2507
 1930TIP3    H1 5712   5.003   0.116   4.840 -1.8594 -0.6369 -0.6409
 1930TIP3    H2 5713   4.966   0.235   4.756 -0.7481  0.3605  0.2651
 1931TIP3   OH2 5714   6.269   7.882   4.312  0.3098  0.3646  0.5858
 1931TIP3    H1 5715   6.244   7.810   4.253 -3.2830  2.6810 -0.8579
 1931TIP3    H2 5716   6.268   7.843   4.399 -0.5929 -1.5819 -0.2633
 1932TIP3   OH2 5717   2.116   1.638   3.774 -0.3131  0.2630  0.3131
 1932TIP3    H1 5718   2.127   1.550   3.809  0.2768  0.4876  0.6921
 1932TIP3    H2 5719   2.183   1.646   3.706  0.4011  0.8268  1.0705
 1933TIP3   OH2 5720   1.559   0.567   3.813  0.5074  0.3323 -0.6829
 1933TIP3    H1 5721   1.592   0.571   3.903 -0.9499 -3.3930  0.1364
 1933TIP3    H2 5722   1.603   0.638   3.768  0.5521  2.9288  3.1976
 1934TIP3   OH2 5723   7.300   7.804   1.238  1.3616  0.2430  0.4091
 1934TIP3    H1 5724   7.255   7.850   1.167  0.6667 -2.6110 -1.0761
 1934TIP3    H2 5725   7.374   7.861   1.260  1.4674  1.3301 -2.4457
 1935TIP3   OH2 5726   3.359   0.405   3.348 -0.5086  0.7166  0.6609
 1935TIP3    H1 5727   3.402   0.335   3.398  0.3335  1.8356  1.5412
 1935TIP3    H2 5728   3.340   0.366   3.263 -1.9462 -1.2324  1.8313
 1936TIP3   OH2 5729   2.786   1.135   2.933  0.0357 -0.3691  0.2711
 1936TIP3    H1 5730   2.690   1.129   2.940 -0.0938  1.8078  0.9963
 1936TIP3    H2 5731   2.801   1.225   2.904  1.8479 -0.9664 -0.7107
 1937TIP3   OH2 5732   3.774   0.860   5.257  0.9278  0.0146 -0.0395
 1937TIP3    H1 5733   3.709   0.919   5.218 -1.1764 -1.4137  1.1950
 1937TIP3    H2 5734   3.846   0.917   5.283  0.4590  1.5666 -1.9662
 1938TIP3   OH2 5735   0.941   7.020   5.169  0.8516 -1.0006  0.4679
 1938TIP3    H1 5736   1.005   7.079   5.130 -1.1409  0.9796  0.0526
 1938TIP3    H2 5737   0.931   6.949   5.106  0.6998  0.0578 -0.7335
 1939TIP3   OH2 5738   3.770   1.313   5.557  0.1753 -0.6436 -0.0532
 1939TIP3    H1 5739   3.792   1.278   5.644  0.0964  1.1318  0.7092
 1939TIP3    H2 5740   3.810   1.400   5.556 -0.0768 -0.5424 -1.6909
 1940TIP3   OH2 5741   3.614   0.551   3.024 -0.0445  0.3815  0.5673
 1940TIP3    H1 5742   3.604   0.644   3.044 -2.0440  0.1444  0.6777
 1940TIP3    H2 5743   3.616   0.548   2.928 -0.4805  0.4723  0.5574
 1941TIP3   OH2 5744   8.673   6.887   3.903 -0.8555  0.3961  0.0824
 1941TIP3    H1 5745   8.613   6.814   3.888 -0.4194  0.5141 -2.4585
 1941TIP3    H2 5746   8.617   6.964   3.904 -0.8745  0.4085 -1.2728
 1942TIP3   OH2 5747   4.689   1.988   2.924  0.3081  0.4039  0.2844
 1942TIP3    H1 5748   4.689   1.947   3.011  0.2234  1.0104  0.5817
 1942TIP3    H2 5749   4.601   2.027   2.917  0.0748 -0.2462 -0.3647
 1943TIP3   OH2 5750   3.080   0.929   4.751  0.5006 -0.2081 -1.1002
 1943TIP3    H1 5751   3.047   0.874   4.822  0.7980  0.7956 -0.1742
 1943TIP3    H2 5752   3.155   0.974   4.788 -0.6779  2.0159 -1.3552
 1944TIP3   OH2 5753   0.552   8.232   4.996 -0.2930 -0.1395  0.5921
 1944TIP3    H1 5754   0.559   8.142   4.964 -1.6084  0.0657 -0.2909
 1944TIP3    H2 5755   0.528   8.223   5.088  2.1109 -0.7142  1.1918
 1945TIP3   OH2 5756   5.225   1.389   2.828 -0.5785  0.5354 -0.8686
 1945TIP3    H1 5757   5.206   1.446   2.754 -2.1415  1.2777  0.0845
 1945TIP3    H2 5758   5.140   1.351   2.852 -0.3310  1.3099  1.3566
 1946TIP3   OH2 5759   2.614   0.535   3.452 -0.4091  0.0304 -0.5119
 1946TIP3    H1 5760   2.679   0.605   3.449  0.5275 -0.6694  2.1225
 1946TIP3    H2 5761   2.663   0.456   3.432 -0.5851 -0.4059  0.7445
 1947TIP3   OH2 5762   8.236   8.374   2.336  0.2749 -0.0125  0.5049
 1947TIP3    H1 5763   8.152   8.362   2.380 -0.1907 -0.5594 -0.5128
 1947TIP3    H2 5764   8.217   8.437   2.266  1.4386  2.4348  2.2749
 1948TIP3   OH2 5765   0.938   7.480   4.899  0.0402 -0.0383 -0.3161
 1948TIP3    H1 5766   0.991   7.411   4.857  1.8116 -0.0371  1.8103
 1948TIP3    H2 5767   1.001   7.527   4.954 -2.3178 -0.5311  2.9231
 1949TIP3   OH2 5768   2.049   0.597   1.206 -0.5526  0.3056  0.7378
 1949TIP3    H1 5769   2.123   0.617   1.263  0.8795 -1.7809 -0.3450
 1949TIP3    H2 5770   1.980   0.568   1.267  0.2742  0.0440  1.5609
 1950TIP3   OH2 5771   2.593   1.942   3.087  0.1745  0.5377 -0.1829
 1950TIP3    H1 5772   2.668   1.965   3.033  0.6750 -0.0847  0.2463
 1950TIP3    H2 5773   2.572   1.852   3.063  0.1122  0.4118  0.3326
 1951TIP3   OH2 5774   6.004   8.220   4.073 -0.0595 -0.0210 -0.1709
 1951TIP3    H1 5775   6.058   8.174   4.009  0.6509 -1.6657  1.5575
 1951TIP3    H2 5776   6.047   8.305   4.083 -1.4281  1.1195 -3.4512
 1952TIP3   OH2 5777   8.510   2.151   3.119 -0.0652 -0.7455 -0.1382
 1952TIP3    H1 5778   8.460   2.069   3.122 -0.1821 -0.6095  2.8283
 1952TIP3    H2 5779   8.599   2.124   3.099 -0.4327 -1.4224 -0.9055
 1953TIP3   OH2 5780   0.543   5.658   2.145  0.1838  0.1544  0.0242
 1953TIP3    H1 5781   0.620   5.707   2.115 -1.6807  1.6837 -2.4595
 1953TIP3    H2 5782   0.539   5.676   2.239  2.0389  1.2064 -0.0688
 1954TIP3   OH2 5783   1.013   7.550   0.518  0.7937  0.4988  0.0286
 1954TIP3    H1 5784   1.074   7.619   0.546 -1.3053  1.2056  3.1566
 1954TIP3    H2 5785   0.973   7.584   0.438  2.5852  1.1693 -0.6062
 1955TIP3   OH2 5786   2.114   6.995   6.605  0.3059  0.2128  0.4822
 1955TIP3    H1 5787   2.193   6.956   6.641  0.0452 -0.4016  0.3991
 1955TIP3    H2 5788   2.128   7.089   6.613  0.9983  0.1077  0.5656
 1956TIP3   OH2 5789   4.258   0.501   6.281  0.1776 -0.7095  0.3665
 1956TIP3    H1 5790   4.272   0.409   6.259  1.4391 -0.5158  0.3231
 1956TIP3    H2 5791   4.339   0.529   6.323 -0.4841  0.1821  1.0881
 1957TIP3   OH2 5792   8.484   8.289   2.384 -0.0779 -0.2340  0.8544
 1957TIP3    H1 5793   8.396   8.326   2.371  1.0032  1.5089 -1.7442
 1957TIP3    H2 5794   8.524   8.345   2.451 -0.1206  0.3782  0.3637
 1958TIP3   OH2 5795   4.810   0.782   3.435  0.0161 -0.3181 -0.1453
 1958TIP3    H1 5796   4.821   0.849   3.367  0.3745 -0.5069 -0.2741
 1958TIP3    H2 5797   4.859   0.817   3.510  0.2621 -0.4704 -0.2358
 1959TIP3   OH2 5798   3.515   8.255   2.971  0.0254 -0.2999  0.2289
 1959TIP3    H1 5799   3.492   8.184   2.911  0.2193  0.0858 -0.3092
 1959TIP3    H2 5800   3.609   8.268   2.957 -0.4637  1.7539 -1.5360
 1960TIP3   OH2 5801   4.021   1.037   2.405 -0.7915 -0.4622  0.1368
 1960TIP3    H1 5802   4.070   0.960   2.375  1.7148  0.2830  2.1447
 1960TIP3    H2 5803   4.009   1.023   2.499  1.4791  2.4792  0.9442
 1961TIP3   OH2 5804   3.315   1.027   2.806 -0.2022  0.1496 -0.1143
 1961TIP3    H1 5805   3.253   1.056   2.873 -1.2294  0.2212 -1.0577
 1961TIP3    H2 5806   3.260   0.982   2.741  0.5217  1.4704 -1.6863
 1962TIP3   OH2 5807   8.868   0.446   3.826  0.2005  0.2521  0.1450
 1962TIP3    H1 5808   8.869   0.506   3.752  0.2902  0.2245  0.1232
 1962TIP3    H2 5809   8.820   0.491   3.894  1.0302  0.7116  0.4374
 1963TIP3   OH2 5810   1.529   0.908   2.969 -0.2287  0.5809  0.0150
 1963TIP3    H1 5811   1.571   0.847   2.909  1.2293  0.8883  0.7008
 1963TIP3    H2 5812   1.555   0.878   3.057 -2.5069  0.0095  0.5155
 1964TIP3   OH2 5813   8.531   0.298   3.498  0.2285 -0.1656  0.1768
 1964TIP3    H1 5814   8.547   0.211   3.463 -0.6995  0.1943 -1.1682
 1964TIP3    H2 5815   8.523   0.354   3.421 -1.6223  0.6683  0.9413
 1965TIP3   OH2 5816   2.790   0.431   3.171  0.3360  0.4560  0.0334
 1965TIP3    H1 5817   2.791   0.336   3.163  0.6702  0.4705 -0.1181
 1965TIP3    H2 5818   2.697   0.454   3.178  0.2205  0.1615 -0.4766
 1966TIP3   OH2 5819   3.673   1.357   1.653  0.1395  0.2141 -0.2117
 1966TIP3    H1 5820   3.594   1.304   1.642 -0.4783  0.8981  0.8515
 1966TIP3    H2 5821   3.703   1.374   1.564 -0.3441 -0.8865 -0.5948
 1967TIP3   OH2 5822   4.444   1.884   3.677  0.3733 -0.0701  0.4507
 1967TIP3    H1 5823   4.403   1.918   3.757  0.4189  0.5978  0.1924
 1967TIP3    H2 5824   4.470   1.795   3.700 -0.1307 -0.0806  1.0030
 1968TIP3   OH2 5825   3.818   1.459   1.197 -0.2020 -0.9534 -0.2841
 1968TIP3    H1 5826   3.819   1.549   1.164  0.3714 -0.8311  0.0621
 1968TIP3    H2 5827   3.726   1.444   1.220 -0.1848 -0.2026  0.3283
 1969TIP3   OH2 5828   3.391   1.702   3.748 -0.1251 -0.3668 -0.0434
 1969TIP3    H1 5829   3.402   1.756   3.826  0.1361 -2.1995  1.2406
 1969TIP3    H2 5830   3.299   1.712   3.724 -0.7231 -1.3669  1.7421
 1970TIP3   OH2 5831   6.539   8.368   3.842 -0.0992 -0.2002 -0.5768
 1970TIP3    H1 5832   6.524   8.429   3.770 -0.2510  0.1800 -0.2250
 1970TIP3    H2 5833   6.634   8.369   3.856 -0.2831  1.4220  0.6940
 1971TIP3   OH2 5834   2.735   2.475   4.056  0.1811 -0.0303  0.5425
 1971TIP3    H1 5835   2.651   2.464   4.100 -0.0790 -1.0502 -0.1699
 1971TIP3    H2 5836   2.799   2.485   4.127 -0.7533  2.5247  1.0594
 1972TIP3   OH2 5837   5.002   0.906   5.467 -0.2483  0.0393  0.0212
 1972TIP3    H1 5838   4.913   0.909   5.503  0.4500 -2.6645  2.1446
 1972TIP3    H2 5839   5.056   0.944   5.536  0.5045 -0.4153 -0.3179
 1973TIP3   OH2 5840   3.773   1.322   1.993 -0.0884 -0.1468 -0.6052
 1973TIP3    H1 5841   3.740   1.385   2.057  0.1944 -1.7884  1.1908
 1973TIP3    H2 5842   3.787   1.374   1.913  0.0652  2.0326  0.8050
 1974TIP3   OH2 5843   0.821   7.051   4.009 -0.0318 -0.1787  0.2109
 1974TIP3    H1 5844   0.761   7.124   3.991 -1.8008 -1.2762  1.5564
 1974TIP3    H2 5845   0.806   6.989   3.937 -1.0884 -0.7986  0.9530
 1975TIP3   OH2 5846   2.631   0.496   2.913  0.1709 -0.6589 -0.0765
 1975TIP3    H1 5847   2.639   0.451   2.829 -0.4072 -1.8525  0.4941
 1975TIP3    H2 5848   2.695   0.454   2.969  1.8524  1.3613 -0.4040
 1976TIP3   OH2 5849   2.499   1.106   2.757  0.0478 -0.2440 -0.1461
 1976TIP3    H1 5850   2.530   1.027   2.801 -0.6245 -1.2211 -1.3846
 1976TIP3    H2 5851   2.404   1.098   2.758 -0.1123  1.5819  1.5446
 1977TIP3   OH2 5852   1.391   8.401   6.030  0.1508  0.1588 -0.5508
 1977TIP3    H1 5853   1.361   8.336   6.093  0.0508  1.0005  0.2791
 1977TIP3    H2 5854   1.382   8.358   5.945  0.8165 -1.1836  0.0494
 1978TIP3   OH2 5855   3.024   3.673   3.147 -0.4028 -0.0872 -0.5002
 1978TIP3    H1 5856   2.953   3.702   3.090 -0.6759 -4.0757 -2.3921
 1978TIP3    H2 5857   3.104   3.699   3.102 -0.6438 -1.3658 -1.6951
 1979TIP3   OH2 5858   2.873   2.046   3.909 -0.1136 -0.0429 -0.2637
 1979TIP3    H1 5859   2.901   2.041   3.818  0.9360  1.3811 -0.0538
 1979TIP3    H2 5860   2.901   2.133   3.937 -0.1752 -0.5717  1.4963
 1980TIP3   OH2 5861   6.590   7.146   2.362  0.1491 -0.0748 -0.1178
 1980TIP3    H1 5862   6.573   7.173   2.452 -1.4444  0.5821 -0.5823
 1980TIP3    H2 5863   6.598   7.051   2.366 -0.5414 -0.1080  0.6278
 1981TIP3   OH2 5864   1.413   0.951   4.533  0.1297  0.5788  0.2830
 1981TIP3    H1 5865   1.496   0.981   4.495 -0.3399  2.4198  0.6446
 1981TIP3    H2 5866   1.350   0.960   4.462 -0.0992  0.8805  0.5216
 1982TIP3   OH2 5867   4.563   2.561   4.002  0.1339 -0.2523  0.4320
 1982TIP3    H1 5868   4.533   2.584   4.090  0.0583 -2.3680  0.9899
 1982TIP3    H2 5869   4.638   2.504   4.017  1.2761  0.8747 -0.9103
 1983TIP3   OH2 5870   4.888   1.016   3.877  0.2665 -0.1607  0.3848
 1983TIP3    H1 5871   4.859   0.974   3.958 -1.7956  1.7716  0.6878
 1983TIP3    H2 5872   4.968   1.063   3.902 -0.5956  0.7717  1.4180
 1984TIP3   OH2 5873   2.144   0.758   4.157  0.2091  0.1452  0.4808
 1984TIP3    H1 5874   2.127   0.850   4.178  1.0876  0.5491 -0.5453
 1984TIP3    H2 5875   2.105   0.710   4.230  2.8671  1.5049  2.8998
 1985TIP3   OH2 5876   2.286   0.725   2.693 -0.0556  0.3666  0.5384
 1985TIP3    H1 5877   2.314   0.686   2.776 -2.6181  0.7068  1.5884
 1985TIP3    H2 5878   2.352   0.695   2.630  0.4082 -2.1598  2.1392
 1986TIP3   OH2 5879   0.514   7.277   4.998 -0.7505 -0.1955  0.0839
 1986TIP3    H1 5880   0.550   7.348   4.944  1.2234 -2.0531 -1.1250
 1986TIP3    H2 5881   0.449   7.235   4.942 -0.4723 -0.5857  0.0499
 1987TIP3   OH2 5882   5.286   1.217   3.403 -0.1083 -0.6806  0.0549
 1987TIP3    H1 5883   5.262   1.151   3.338 -0.4686 -0.0849 -0.4321
 1987TIP3    H2 5884   5.202   1.252   3.433  0.0454 -1.1442  1.0530
 1988TIP3   OH2 5885   6.979   4.925   0.017  0.4845 -0.0329 -0.0524
 1988TIP3    H1 5886   7.020   5.009  -0.006  1.5906 -0.6797 -0.4746
 1988TIP3    H2 5887   7.024   4.898   0.097  0.8518 -0.7048 -0.4741
 1989TIP3   OH2 5888   1.076   8.240   5.452 -0.2628 -0.0916 -0.1096
 1989TIP3    H1 5889   0.984   8.244   5.476 -0.1839 -0.4372  0.2684
 1989TIP3    H2 5890   1.118   8.196   5.526  0.7845  3.2394  1.3567
 1990TIP3   OH2 5891   4.660   1.494   5.001 -0.5881  0.2163  0.3185
 1990TIP3    H1 5892   4.681   1.496   4.908  0.9334  1.5148  0.6519
 1990TIP3    H2 5893   4.602   1.569   5.014  1.3551  1.6868  0.8484
 1991TIP3   OH2 5894   1.518   7.289   5.302 -0.3544  0.0051  0.0375
 1991TIP3    H1 5895   1.509   7.206   5.257 -0.3479  0.0958 -0.1326
 1991TIP3    H2 5896   1.461   7.349   5.253 -0.4925  0.0575  0.2648
 1992TIP3   OH2 5897   0.049   7.253   5.132  0.7486  0.1308  0.1438
 1992TIP3    H1 5898  -0.020   7.247   5.199 -0.4201  1.1713 -0.9417
 1992TIP3    H2 5899   0.036   7.177   5.076  0.5978  0.2292  0.0457
 1993TIP3   OH2 5900   1.141   7.015   4.584 -0.2036 -0.3846 -0.1101
 1993TIP3    H1 5901   1.138   6.999   4.490 -0.0115 -2.1933  0.1600
 1993TIP3    H2 5902   1.050   7.018   4.612 -0.2918  1.5998 -0.5593
 1994TIP3   OH2 5903   7.549   6.903   2.154  0.3537  0.1285  0.3140
 1994TIP3    H1 5904   7.561   6.928   2.063 -0.9380  1.4931  0.4893
 1994TIP3    H2 5905   7.552   6.986   2.202 -2.7611 -0.1239  1.0646
 1995TIP3   OH2 5906   0.190   1.332   4.611  0.4258  0.2587 -0.1784
 1995TIP3    H1 5907   0.215   1.414   4.653  1.4474  0.9915 -2.1357
 1995TIP3    H2 5908   0.234   1.264   4.663 -0.5246  0.9056  1.5223
 1996TIP3   OH2 5909   5.419   7.848   2.510 -0.3024 -0.0415 -0.4210
 1996TIP3    H1 5910   5.365   7.843   2.432 -0.8404  0.7912 -0.1068
 1996TIP3    H2 5911   5.440   7.941   2.519  1.7220 -0.4316 -0.8971
 1997TIP3   OH2 5912   6.849   2.117   3.756 -0.4122 -0.4179 -0.2925
 1997TIP3    H1 5913   6.819   2.042   3.808  0.7540  0.1050  1.1514
 1997TIP3    H2 5914   6.888   2.078   3.678  2.2103 -1.4700  1.4733
 1998TIP3   OH2 5915   0.060   7.456   1.774  0.5933 -0.5543  0.1696
 1998TIP3    H1 5916   0.030   7.486   1.859 -1.2637  0.8915 -0.9699
 1998TIP3    H2 5917   0.146   7.498   1.763 -1.1271  2.9657 -0.5885
 1999TIP3   OH2 5918   3.306   0.831   4.228  0.3262  0.4398  0.8224
 1999TIP3    H1 5919   3.277   0.900   4.288 -2.3359  0.9410 -0.9613
 1999TIP3    H2 5920   3.318   0.754   4.284 -4.4040  0.2358  1.7878
 2000TIP3   OH2 5921   1.569   0.034   3.701  0.1974 -0.3214 -0.1800
 2000TIP3    H1 5922   1.560   0.125   3.730  1.1756 -0.4790  0.6532
 2000TIP3    H2 5923   1.599  -0.013   3.778 -0.0800 -1.3177 -0.6704
 2001TIP3   OH2 5924   1.574   7.847   4.553 -0.1469  0.2628 -0.1820
 2001TIP3    H1 5925   1.519   7.924   4.570  2.0614  1.6519  0.8123
 2001TIP3    H2 5926   1.608   7.822   4.638  2.9336  1.1191 -1.0993
 2002TIP3   OH2 5927   4.102   0.162   4.322 -0.5821 -0.2436 -0.2707
 2002TIP3    H1 5928   4.154   0.083   4.307  1.1951  0.8265  0.0870
 2002TIP3    H2 5929   4.013   0.137   4.299  0.0323 -2.2283 -0.5633
 2003TIP3   OH2 5930   4.288   0.477   1.326  0.1659 -0.2978  0.1710
 2003TIP3    H1 5931   4.356   0.455   1.263 -1.3233  4.2132 -3.2690
 2003TIP3    H2 5932   4.321   0.555   1.371 -1.0692 -0.3276  1.1723
 2004TIP3   OH2 5933   2.171   8.277   2.345 -0.1311 -0.1544  0.2190
 2004TIP3    H1 5934   2.081   8.246   2.355 -1.0388  2.0170 -0.7709
 2004TIP3    H2 5935   2.161   8.368   2.315  2.3918  0.0376 -0.1174
 2005TIP3   OH2 5936   3.297   0.294   3.693 -0.0638  0.2193  0.0262
 2005TIP3    H1 5937   3.259   0.382   3.697  0.0362  0.2658 -0.0567
 2005TIP3    H2 5938   3.300   0.266   3.785  0.6259  0.6134  0.1272
 2006TIP3   OH2 5939   6.578   7.718   4.311  0.2986 -0.5473  0.1329
 2006TIP3    H1 5940   6.654   7.673   4.348 -0.4296 -1.3581  0.6638
 2006TIP3    H2 5941   6.505   7.692   4.367 -0.4926 -0.3201 -0.7834
 2007TIP3   OH2 5942   0.421   7.068   4.329 -0.0626  0.4171  0.0743
 2007TIP3    H1 5943   0.448   7.138   4.269 -0.3845 -0.6512 -1.3355
 2007TIP3    H2 5944   0.494   7.006   4.328  0.5083  1.0309  1.8362
 2008TIP3   OH2 5945   5.018   0.856   2.571  0.2137 -0.0605  0.3649
 2008TIP3    H1 5946   4.948   0.815   2.520  0.6339 -0.6650  0.2729
 2008TIP3    H2 5947   5.061   0.916   2.511  1.1584 -1.2873 -0.2047
 2009TIP3   OH2 5948   7.338   7.208   3.081  0.4627 -0.0041  0.1730
 2009TIP3    H1 5949   7.387   7.140   3.127 -0.4974  0.0631  1.3303
 2009TIP3    H2 5950   7.345   7.184   2.989  2.4189 -0.1386  0.3363
 2010TIP3   OH2 5951   1.559   0.457   4.780 -0.0382  0.3738 -0.4528
 2010TIP3    H1 5952   1.468   0.487   4.781  0.1201  0.9597  2.3468
 2010TIP3    H2 5953   1.554   0.362   4.769 -0.9863  0.4225 -0.4297
 2011TIP3   OH2 5954   0.932   6.961   2.712 -0.7028  0.1146 -0.2351
 2011TIP3    H1 5955   0.966   7.028   2.652  0.4418 -0.1273  0.1260
 2011TIP3    H2 5956   0.983   6.882   2.690  0.1151  0.1664  1.4108
 2012TIP3   OH2 5957   2.461   1.205   6.093 -0.2293 -0.6746 -0.0090
 2012TIP3    H1 5958   2.542   1.154   6.098 -0.8752 -1.8775 -1.3007
 2012TIP3    H2 5959   2.489   1.295   6.076  0.8261 -1.1275 -0.7056
 2013TIP3   OH2 5960   7.902   8.363   3.754 -0.3603 -0.4308  0.3411
 2013TIP3    H1 5961   7.848   8.380   3.677 -2.3507  2.1672  2.1709
 2013TIP3    H2 5962   7.848   8.304   3.808  0.2689 -0.8785  0.4792
 2014TIP3   OH2 5963   1.341   8.095   1.984  0.4926 -0.1709 -0.0360
 2014TIP3    H1 5964   1.267   8.055   2.029  0.2780 -0.9942 -1.0996
 2014TIP3    H2 5965   1.403   8.118   2.053 -0.7167  0.4281  0.8490
 2015TIP3   OH2 5966   1.580  -0.020   3.161  0.2521 -0.0726 -0.2624
 2015TIP3    H1 5967   1.673  -0.001   3.145  0.2259  0.1478 -0.1525
 2015TIP3    H2 5968   1.557   0.034   3.237  0.2153 -0.6595  0.1440
 2016TIP3   OH2 5969   6.438   8.111   3.879 -0.2431  0.7050 -0.2578
 2016TIP3    H1 5970   6.477   8.199   3.884 -0.2487  0.8251 -1.9871
 2016TIP3    H2 5971   6.433   8.082   3.970 -1.0043  2.8400  0.4249
 2017TIP3   OH2 5972   0.754   8.283   3.154  0.5387 -0.2362 -0.0572
 2017TIP3    H1 5973   0.719   8.260   3.240 -0.5019 -1.6314 -0.8321
 2017TIP3    H2 5974   0.817   8.353   3.172 -0.2345  0.0374  1.7414
 2018TIP3   OH2 5975   4.312   0.372   5.707  0.1193  0.2116  0.1513
 2018TIP3    H1 5976   4.277   0.296   5.661  0.2353  0.2328  0.0264
 2018TIP3    H2 5977   4.252   0.444   5.686  2.0580  1.0398 -2.7920
 2019TIP3   OH2 5978   2.539   0.631   2.485  0.0973  0.2781 -0.2091
 2019TIP3    H1 5979   2.615   0.678   2.518 -0.0921  0.4147  0.0390
 2019TIP3    H2 5980   2.490   0.696   2.435 -0.0429  0.2836 -0.0652
 2020TIP3   OH2 5981   2.119   2.490   3.733  0.2618 -0.2362  0.1241
 2020TIP3    H1 5982   2.176   2.566   3.748 -0.7438  0.6200 -0.3861
 2020TIP3    H2 5983   2.045   2.525   3.684  0.2209 -1.7197 -0.8732
 2021TIP3   OH2 5984   0.887   8.079   5.628  0.1917 -0.1137  0.0861
 2021TIP3    H1 5985   0.938   8.127   5.693 -0.4468  0.3237  0.2804
 2021TIP3    H2 5986   0.796   8.097   5.652 -0.0536  0.3905 -1.1801
 2022TIP3   OH2 5987   4.021   0.962   3.263  0.6765 -0.2777  0.6769
 2022TIP3    H1 5988   3.989   0.902   3.330 -0.1082  0.5065  1.0049
 2022TIP3    H2 5989   4.090   1.012   3.307  2.4893 -2.0468 -0.0615
 2023TIP3   OH2 5990   3.723   0.667   4.512  0.6531  0.2389 -0.0585
 2023TIP3    H1 5991   3.696   0.576   4.529  0.9148  0.0777 -0.5129
 2023TIP3    H2 5992   3.784   0.687   4.583 -0.4035  0.4955  0.7881
 2024TIP3   OH2 5993   8.853   2.472   4.127  0.2693  0.3870  0.5736
 2024TIP3    H1 5994   8.886   2.483   4.216 -0.9742  1.6141  0.9015
 2024TIP3    H2 5995   8.898   2.541   4.076 -1.3803  1.7575  0.9264
 2025TIP3   OH2 5996   1.513   0.631   1.509  0.3810  0.0347  0.6246
 2025TIP3    H1 5997   1.496   0.664   1.421  0.6365  0.2162  0.6432
 2025TIP3    H2 5998   1.600   0.591   1.504 -1.2132 -3.5296 -0.2170
 2026TIP3   OH2 5999   8.374   7.226   0.896 -0.0284 -0.4308 -0.3025
 2026TIP3    H1 6000   8.345   7.239   0.986 -0.8192 -2.0419 -0.3025
 2026TIP3    H2 6001   8.421   7.306   0.874 -0.7769  0.4335  1.1680
 2027TIP3   OH2 6002   1.619   1.612   2.216  0.1442  0.1108 -0.5712
 2027TIP3    H1 6003   1.524   1.627   2.217  0.2675  0.9230 -0.6286
 2027TIP3    H2 6004   1.628   1.517   2.221 -0.6886 -0.0574 -2.0455
 2028TIP3   OH2 6005   3.386   0.065   1.816 -0.4329 -0.1658  0.5184
 2028TIP3    H1 6006   3.373   0.046   1.723 -0.3896 -0.4471  0.5717
 2028TIP3    H2 6007   3.417  -0.017   1.854  1.0365  0.3761  0.4888
 2029TIP3   OH2 6008   3.123   0.991   5.139 -0.3696 -0.8096 -0.1873
 2029TIP3    H1 6009   3.029   1.007   5.131 -0.5014 -0.1622  2.2141
 2029TIP3    H2 6010   3.160   1.077   5.160  0.8449 -0.9723 -1.5657
 2030TIP3   OH2 6011   2.400   0.282   2.888  0.4243  0.2265 -0.0543
 2030TIP3    H1 6012   2.421   0.193   2.916  0.5015  0.2536 -0.0251
 2030TIP3    H2 6013   2.415   0.283   2.794  2.1202  0.6866  0.2041
 2031TIP3   OH2 6014   3.076   6.918   0.401  0.3762 -0.6457  0.1274
 2031TIP3    H1 6015   3.116   6.976   0.335 -0.3993 -0.9347 -0.6088
 2031TIP3    H2 6016   3.130   6.839   0.399  1.7215  0.2075  1.4656
 2032TIP3   OH2 6017   3.862   0.754   2.868 -0.1937 -0.5378  0.6407
 2032TIP3    H1 6018   3.938   0.716   2.825  0.0686 -0.6520  1.2054
 2032TIP3    H2 6019   3.803   0.679   2.882 -0.2128 -0.5276  0.6126
 2033TIP3   OH2 6020   6.605   4.404   5.230  0.1135  0.0317  0.2623
 2033TIP3    H1 6021   6.587   4.315   5.200 -0.7155 -0.5114  2.2843
 2033TIP3    H2 6022   6.675   4.394   5.294 -1.8801  0.4721  2.5574
 2034TIP3   OH2 6023   5.083   0.444   3.486  0.2982  0.7240 -0.1045
 2034TIP3    H1 6024   5.001   0.490   3.467 -0.1564  0.6891  1.6848
 2034TIP3    H2 6025   5.068   0.355   3.454 -0.3460  0.7451  0.1119
 2035TIP3   OH2 6026   4.307   3.070   3.004  0.4067  0.2093  0.1437
 2035TIP3    H1 6027   4.238   3.119   3.049 -0.5448 -1.4943  0.5975
 2035TIP3    H2 6028   4.368   3.046   3.073 -0.5206 -1.5196  0.3913
 2036TIP3   OH2 6029   3.284   1.267   2.316 -0.4097  0.0326 -0.7303
 2036TIP3    H1 6030   3.217   1.324   2.277 -0.4590  0.9124  0.5969
 2036TIP3    H2 6031   3.309   1.312   2.397 -1.1858 -2.3516  0.8785
 2037TIP3   OH2 6032   6.829   2.214   2.346  0.2006  0.0366 -0.0307
 2037TIP3    H1 6033   6.738   2.196   2.370 -0.4248  2.0570 -0.8009
 2037TIP3    H2 6034   6.854   2.140   2.291 -0.9623 -0.5826  0.2460
 2038TIP3   OH2 6035   2.854   2.025   3.006  0.4532  0.1672  0.2112
 2038TIP3    H1 6036   2.915   1.999   3.075 -1.3255  0.5878  2.0031
 2038TIP3    H2 6037   2.867   1.960   2.937  1.5784 -0.8590  1.3535
 2039TIP3   OH2 6038   7.802   7.975   1.205 -0.1497 -0.6276  0.2949
 2039TIP3    H1 6039   7.738   7.923   1.254  1.8963 -1.6679  1.9672
 2039TIP3    H2 6040   7.751   8.021   1.139 -2.3746 -2.7448  0.4870
 2040TIP3   OH2 6041   0.100   8.264   2.528 -0.0849 -0.5365 -0.2760
 2040TIP3    H1 6042   0.099   8.187   2.471 -1.7040  1.0298 -2.4127
 2040TIP3    H2 6043   0.043   8.328   2.485  1.8410  2.1784  1.0161
 2041TIP3   OH2 6044   4.870   0.934   3.206  0.5239 -0.0683 -0.1042
 2041TIP3    H1 6045   4.873   1.029   3.197  3.2184  0.0467  1.4343
 2041TIP3    H2 6046   4.881   0.901   3.117  0.1226  1.0575 -0.5773
 2042TIP3   OH2 6047   2.766   0.971   1.524 -0.1789  0.4132 -0.5754
 2042TIP3    H1 6048   2.691   1.004   1.475  0.2774  0.9314 -0.9357
 2042TIP3    H2 6049   2.730   0.943   1.608 -0.8696  0.0597 -0.9935
 2043TIP3   OH2 6050   2.544   7.874   3.935  0.1316 -0.8834 -0.2831
 2043TIP3    H1 6051   2.614   7.829   3.888  0.0344 -2.1814  0.7958
 2043TIP3    H2 6052   2.520   7.814   4.006  0.0687  0.8918  1.2329
 2044TIP3   OH2 6053   5.669   0.010   3.064 -0.6386  0.5814 -0.1001
 2044TIP3    H1 6054   5.681   0.008   2.969  0.0281 -1.4953  0.0069
 2044TIP3    H2 6055   5.733   0.073   3.095 -0.2630  0.6275 -0.9499
 2045TIP3   OH2 6056   4.753   2.093   1.509 -0.1236 -0.3654  0.3661
 2045TIP3    H1 6057   4.827   2.064   1.562  0.0169 -2.4845 -0.9607
 2045TIP3    H2 6058   4.687   2.025   1.521 -0.0874 -0.8841 -2.1514
 2046TIP3   OH2 6059   5.067   1.723   3.170 -0.4319 -0.2733  0.3769
 2046TIP3    H1 6060   5.063   1.745   3.077  1.2698  0.5160  0.4708
 2046TIP3    H2 6061   5.038   1.632   3.174 -1.1895 -0.0939 -0.8402
 2047TIP3   OH2 6062   6.088   0.492   4.043  0.5798  0.1403 -0.0471
 2047TIP3    H1 6063   6.103   0.493   4.138 -1.9033 -1.0060  0.3997
 2047TIP3    H2 6064   6.127   0.574   4.012  0.2582  1.1651  2.1663
 2048TIP3   OH2 6065   3.316   1.237   2.599  0.0607 -0.2472 -0.2745
 2048TIP3    H1 6066   3.309   1.242   2.695  1.3324 -3.4004  0.0276
 2048TIP3    H2 6067   3.227   1.252   2.568 -0.7532 -1.2318  1.5064
 2049TIP3   OH2 6068   4.950   1.876   2.112  0.1988  0.2571  0.4032
 2049TIP3    H1 6069   4.883   1.942   2.129  0.8575  0.9513  0.3281
 2049TIP3    H2 6070   5.007   1.878   2.188 -0.3634 -0.9622  0.8697
 2050TIP3   OH2 6071   5.499   1.768   2.642 -0.3162 -0.9163 -0.9403
 2050TIP3    H1 6072   5.490   1.793   2.734  0.7427 -2.0884 -0.5065
 2050TIP3    H2 6073   5.410   1.760   2.610 -0.6871 -0.6853  0.0277
 2051TIP3   OH2 6074   5.239   1.804   1.246  0.0385 -0.5742 -0.0744
 2051TIP3    H1 6075   5.153   1.789   1.285  0.9824  0.4917  2.5630
 2051TIP3    H2 6076   5.292   1.731   1.277  0.9357  0.5567  1.1192
 2052TIP3   OH2 6077   1.996   7.614   1.703 -0.2926 -0.5668  0.3812
 2052TIP3    H1 6078   2.005   7.674   1.629 -0.9864 -1.7029 -0.6410
 2052TIP3    H2 6079   2.047   7.537   1.678  0.9502 -0.2612  1.8651
 2053TIP3   OH2 6080   5.590   1.779   4.257  0.4076  0.0980 -0.4944
 2053TIP3    H1 6081   5.513   1.753   4.207 -0.9094  0.7496  1.1563
 2053TIP3    H2 6082   5.580   1.734   4.341  0.4147  2.3231  0.7264
 2054TIP3   OH2 6083   4.337   0.296   3.279  0.0715 -0.4641 -1.3008
 2054TIP3    H1 6084   4.426   0.330   3.286 -0.0342 -0.4669  0.2298
 2054TIP3    H2 6085   4.307   0.289   3.369 -1.4661 -0.5076 -1.8030
 2055TIP3   OH2 6086   2.050   7.562   2.269 -0.5628  0.1548  0.0596
 2055TIP3    H1 6087   2.094   7.642   2.240  1.5581 -1.1233 -0.3590
 2055TIP3    H2 6088   2.000   7.533   2.193 -0.2186  0.3237 -0.2321
 2056TIP3   OH2 6089   6.547   1.755   1.817  0.0803  0.3104  0.2869
 2056TIP3    H1 6090   6.595   1.681   1.782 -0.8044 -0.1071 -0.0577
 2056TIP3    H2 6091   6.527   1.810   1.741 -1.7895 -0.5685  0.1040
 2057TIP3   OH2 6092   6.200   1.990   5.624 -0.1289  0.1970  0.4133
 2057TIP3    H1 6093   6.295   1.996   5.612 -0.1375  2.5236  1.1944
 2057TIP3    H2 6094   6.182   1.896   5.627  2.1345 -0.2815  0.2257
 2058TIP3   OH2 6095   2.049   6.780   4.337  0.2107  0.3417  0.0583
 2058TIP3    H1 6096   2.074   6.690   4.317 -0.6250  0.0897  0.1227
 2058TIP3    H2 6097   1.959   6.789   4.304 -0.9367  0.1503  2.9312
 2059TIP3   OH2 6098   3.591   0.323   3.173  0.2545  0.7582  0.5237
 2059TIP3    H1 6099   3.597   0.410   3.133  0.7656  0.4558 -0.0603
 2059TIP3    H2 6100   3.663   0.320   3.236  1.1224  0.2277 -0.4878
 2060TIP3   OH2 6101   2.857   1.807   2.845  0.1587 -1.0792  0.2172
 2060TIP3    H1 6102   2.939   1.766   2.819 -0.2170 -0.8384 -1.4106
 2060TIP3    H2 6103   2.805   1.736   2.882  0.5502 -1.5221 -0.0848
 2061TIP3   OH2 6104   6.469   1.627   0.888  0.2436  0.2522 -0.6345
 2061TIP3    H1 6105   6.503   1.580   0.964 -1.1346  1.2736  0.6391
 2061TIP3    H2 6106   6.377   1.643   0.908  0.1239  1.4941 -2.0347
 2062TIP3   OH2 6107   4.198   0.395   2.808 -0.1882 -0.4833  0.0856
 2062TIP3    H1 6108   4.274   0.337   2.803 -1.1026 -1.6295 -0.8646
 2062TIP3    H2 6109   4.169   0.388   2.899 -0.0389 -1.1715  0.0826
 2063TIP3   OH2 6110   3.470   1.075   0.046  0.0703 -0.6636 -0.4936
 2063TIP3    H1 6111   3.562   1.069   0.071 -0.6455 -0.8574  2.2558
 2063TIP3    H2 6112   3.425   1.016   0.106 -1.8993 -0.2200 -1.5005
 2064TIP3   OH2 6113   6.147   0.912   5.075  0.0437  0.0600 -0.1472
 2064TIP3    H1 6114   6.217   0.937   5.134  0.4060  0.6386 -0.8104
 2064TIP3    H2 6115   6.067   0.918   5.128  0.2040  1.9361 -0.0960
 2065TIP3   OH2 6116   4.470   1.339   4.349 -0.3287  0.0367 -0.3903
 2065TIP3    H1 6117   4.421   1.263   4.316  0.6776 -0.6267 -0.4050
 2065TIP3    H2 6118   4.544   1.301   4.397 -0.7140  1.0172  0.9946
 2066TIP3   OH2 6119   4.536   0.548   3.879  0.6030  0.2509  0.0829
 2066TIP3    H1 6120   4.618   0.556   3.831  0.4251 -3.0240 -0.8704
 2066TIP3    H2 6121   4.481   0.620   3.846  1.8792  0.4010 -1.7514
 2067TIP3   OH2 6122   4.045   0.535   4.314  0.4488  0.7933 -0.5768
 2067TIP3    H1 6123   4.043   0.461   4.375  0.7902  1.5483  0.3494
 2067TIP3    H2 6124   4.015   0.497   4.231  0.9254 -0.4620 -0.1939
 2068TIP3   OH2 6125   5.041   1.781   2.907  0.2845  0.0191 -0.4128
 2068TIP3    H1 6126   4.975   1.781   2.839  0.6488 -1.2047 -0.7694
 2068TIP3    H2 6127   5.092   1.861   2.892 -0.3775  0.3562 -0.8413
 2069TIP3   OH2 6128   8.121   6.832   3.074  0.2074  0.0905 -0.1279
 2069TIP3    H1 6129   8.178   6.825   3.151 -1.8467  0.4077  1.4389
 2069TIP3    H2 6130   8.099   6.925   3.070 -3.3926 -0.5999  1.6684
 2070TIP3   OH2 6131   3.687   0.870   1.464  0.4652 -0.2054  0.4165
 2070TIP3    H1 6132   3.768   0.871   1.414  0.3161 -1.2766  0.1261
 2070TIP3    H2 6133   3.655   0.780   1.455  0.0167 -0.1840  1.7625
 2071TIP3   OH2 6134   7.108   1.317   1.721 -0.6230  0.4575  0.4308
 2071TIP3    H1 6135   7.166   1.366   1.663 -0.7287  3.4695  2.7257
 2071TIP3    H2 6136   7.154   1.314   1.805 -1.9021 -0.8731  1.1118
 2072TIP3   OH2 6137   4.870   1.876   3.277 -0.5904 -0.4898  0.2182
 2072TIP3    H1 6138   4.932   1.816   3.236 -0.8375 -1.7562  1.6314
 2072TIP3    H2 6139   4.922   1.922   3.344 -0.6357  0.1712 -0.1912
 2073TIP3   OH2 6140   0.518   7.975   0.198 -0.4042  0.2140  0.2021
 2073TIP3    H1 6141   0.486   7.888   0.173 -1.2803  0.2682  1.1292
 2073TIP3    H2 6142   0.612   7.971   0.182 -0.2033 -1.4145  1.6724
 2074TIP3   OH2 6143   3.173   2.872   3.557 -0.5602  0.1056 -0.1069
 2074TIP3    H1 6144   3.131   2.913   3.481 -0.6408  1.6365  0.7351
 2074TIP3    H2 6145   3.104   2.867   3.623 -0.2108 -0.2139  0.2324
 2075TIP3   OH2 6146   3.442   1.461   2.796  0.0489  0.2820  0.4285
 2075TIP3    H1 6147   3.377   1.522   2.829 -0.0681  0.5398 -0.2695
 2075TIP3    H2 6148   3.453   1.396   2.866 -1.0190  0.1897  0.5090
 2076TIP3   OH2 6149   3.879   2.559   3.867  0.1000  0.2622  0.5648
 2076TIP3    H1 6150   3.845   2.632   3.919  2.2608  2.1153 -0.5361
 2076TIP3    H2 6151   3.823   2.558   3.789  0.5954  1.3224  0.1806
 2077TIP3   OH2 6152   8.582   8.344   3.426 -0.1091 -1.1409  0.4517
 2077TIP3    H1 6153   8.544   8.313   3.344 -0.0442  0.1142 -0.0627
 2077TIP3    H2 6154   8.545   8.286   3.493 -1.3157 -1.2368 -0.2854
 2078TIP3   OH2 6155   4.407   3.315   3.411  0.0474  0.0623 -0.1175
 2078TIP3    H1 6156   4.400   3.341   3.320  0.5536  1.6714  0.2874
 2078TIP3    H2 6157   4.333   3.358   3.455  0.2747 -0.0324  0.3705
 2079TIP3   OH2 6158   5.767   0.533   4.702  0.2831  0.0426 -0.1977
 2079TIP3    H1 6159   5.850   0.506   4.741 -0.1652 -0.8820  0.1510
 2079TIP3    H2 6160   5.785   0.617   4.661  0.8804  0.8175  1.6218
 2080TIP3   OH2 6161   4.989   0.381   2.037 -0.1912  0.5668  0.3778
 2080TIP3    H1 6162   4.942   0.297   2.038 -1.6407  1.3562 -0.2243
 2080TIP3    H2 6163   4.945   0.432   1.969  2.3682  0.8713 -1.1383
 2081TIP3   OH2 6164   1.451   6.861   5.488  0.2324  0.0112  1.1555
 2081TIP3    H1 6165   1.386   6.931   5.485 -0.9617 -1.1363  0.1105
 2081TIP3    H2 6166   1.535   6.907   5.482 -0.5574  1.3195 -0.1686
 2082TIP3   OH2 6167   7.158   8.008   2.673 -0.6164 -1.0348  0.3305
 2082TIP3    H1 6168   7.133   7.978   2.760 -2.1688 -3.0837 -0.7505
 2082TIP3    H2 6169   7.167   8.103   2.680 -2.1018 -1.0380  2.3705
 2083TIP3   OH2 6170   2.901   7.349   2.579 -0.4928 -0.0758  0.3877
 2083TIP3    H1 6171   2.840   7.281   2.550 -1.2289  1.3553 -1.4825
 2083TIP3    H2 6172   2.972   7.348   2.515 -0.0349  0.2764  0.8803
 2084TIP3   OH2 6173   2.315   1.311   1.451  0.0408  0.4400 -0.1768
 2084TIP3    H1 6174   2.375   1.282   1.383 -0.9780 -0.6001 -0.6551
 2084TIP3    H2 6175   2.268   1.385   1.413 -1.3741 -0.8942 -1.0630
 2085TIP3   OH2 6176   6.596   0.188   1.437  0.3793 -0.3475 -0.1732
 2085TIP3    H1 6177   6.595   0.261   1.375 -1.0960  0.4978  0.8144
 2085TIP3    H2 6178   6.668   0.133   1.408  0.3803  0.5869 -2.0034
 2086TIP3   OH2 6179   1.174   8.097   5.699  0.0864  0.5591  0.1595
 2086TIP3    H1 6180   1.251   8.153   5.704  0.1632  0.4328  0.4729
 2086TIP3    H2 6181   1.173   8.052   5.784 -0.9752  1.4015  0.6020
 2087TIP3   OH2 6182   5.495   1.245   2.856 -0.5322  0.3863 -0.8486
 2087TIP3    H1 6183   5.438   1.319   2.835  0.0075  1.0255 -0.1001
 2087TIP3    H2 6184   5.454   1.204   2.931  1.1488  2.1889  1.1219
 2088TIP3   OH2 6185   5.607   2.006   1.455  0.4118  0.3462 -0.3230
 2088TIP3    H1 6186   5.588   2.068   1.525 -0.3879  2.0304 -2.0012
 2088TIP3    H2 6187   5.524   1.996   1.408  0.2480 -2.7896  0.5028
 2089TIP3   OH2 6188   0.674   8.272   4.280 -0.2096  0.5000 -0.2255
 2089TIP3    H1 6189   0.588   8.237   4.258 -0.2747 -0.0353  0.8593
 2089TIP3    H2 6190   0.728   8.195   4.298 -0.0255  0.9092  0.9747
 2090TIP3   OH2 6191   2.523   0.190   0.680 -0.1139  0.3490  0.0764
 2090TIP3    H1 6192   2.561   0.245   0.748 -2.4452  4.3549 -1.7447
 2090TIP3    H2 6193   2.431   0.215   0.676 -0.9070 -2.6044 -1.9078
 2091TIP3   OH2 6194   8.502   8.220   1.383 -0.3347  0.2081 -0.0842
 2091TIP3    H1 6195   8.464   8.135   1.363 -1.7634  0.8864 -0.3362
 2091TIP3    H2 6196   8.443   8.259   1.448 -0.0765  1.2808 -0.4690
 2092TIP3   OH2 6197   3.443   8.078   5.706  0.1145  0.3665 -0.1114
 2092TIP3    H1 6198   3.511   8.145   5.697  0.3043  0.0829 -0.8351
 2092TIP3    H2 6199   3.475   8.004   5.655 -0.3885 -0.0493  0.1657
 2093TIP3   OH2 6200   4.986   0.071   3.681 -0.4151 -0.2508 -0.0137
 2093TIP3    H1 6201   4.993   0.166   3.695  0.6985 -0.3224 -0.0987
 2093TIP3    H2 6202   5.073   0.037   3.702 -1.0110 -1.3486  0.7222
 2094TIP3   OH2 6203   5.218   1.307   2.102  0.4791  0.1873 -0.0995
 2094TIP3    H1 6204   5.167   1.276   2.177  0.5987 -0.9195 -0.4672
 2094TIP3    H2 6205   5.309   1.287   2.126  0.5518  0.2048 -0.3562
 2095TIP3   OH2 6206   2.024   6.815   2.737 -0.2286  0.5589  0.0210
 2095TIP3    H1 6207   2.101   6.759   2.724  0.2105  1.5148 -1.6207
 2095TIP3    H2 6208   1.993   6.793   2.825  2.1954  0.5084  0.8794
 2096TIP3   OH2 6209   4.592   0.721   3.123  0.3198  0.4992  0.1307
 2096TIP3    H1 6210   4.571   0.792   3.063 -0.8814  1.2269  1.3882
 2096TIP3    H2 6211   4.654   0.760   3.185 -0.2863  0.4345  0.7788
 2097TIP3   OH2 6212   3.899   7.907   2.252  0.5995 -0.4130 -0.0530
 2097TIP3    H1 6213   3.885   7.912   2.346  0.9610  0.1184 -0.0238
 2097TIP3    H2 6214   3.994   7.916   2.241  0.3743  1.8462 -0.5945
 2098TIP3   OH2 6215   2.016   7.299   2.439  0.3518 -0.5941 -0.4203
 2098TIP3    H1 6216   2.033   7.378   2.386  0.5923 -1.0059 -0.9618
 2098TIP3    H2 6217   2.014   7.331   2.529  2.0754 -0.2153 -0.4977
 2099TIP3   OH2 6218   3.153   7.485   5.583 -0.3377  0.5647 -0.2103
 2099TIP3    H1 6219   3.240   7.514   5.612 -0.9302  2.1602  0.0526
 2099TIP3    H2 6220   3.093   7.517   5.651 -1.1803 -0.0791 -0.6428
 2100TIP3   OH2 6221   4.090   0.079   1.050 -0.6944  0.6868  0.0376
 2100TIP3    H1 6222   4.073  -0.013   1.068  0.4768  0.3410 -0.6007
 2100TIP3    H2 6223   4.165   0.102   1.105 -0.9645  1.2514  0.1740
 2101TIP3   OH2 6224   4.655   1.429   2.963  0.2438 -0.0073 -0.3251
 2101TIP3    H1 6225   4.626   1.401   2.877 -0.6045  1.1752 -0.4300
 2101TIP3    H2 6226   4.575   1.446   3.012  0.6335  3.7425 -0.7728
 2102TIP3   OH2 6227   4.259   1.682   3.062  0.4397 -0.0622 -0.2361
 2102TIP3    H1 6228   4.260   1.766   3.109 -0.9854 -1.0622  1.6585
 2102TIP3    H2 6229   4.206   1.697   2.985  0.2894  0.8153  0.0373
 2103TIP3   OH2 6230   2.617   0.860   2.905 -0.5527 -0.0612 -0.0832
 2103TIP3    H1 6231   2.643   0.811   2.983 -0.5363  0.0590 -0.0140
 2103TIP3    H2 6232   2.674   0.827   2.836  0.4893  0.9371  0.2844
 2104TIP3   OH2 6233   5.787   1.225   3.116  0.2480 -0.2063  0.8292
 2104TIP3    H1 6234   5.861   1.202   3.060  0.3886 -0.5045  1.1402
 2104TIP3    H2 6235   5.726   1.152   3.105  0.3116 -0.3046  1.1311
 2105TIP3   OH2 6236   4.695   0.294   0.740 -0.0999 -0.4160 -0.4945
 2105TIP3    H1 6237   4.601   0.288   0.723 -0.5010  3.2209  0.1261
 2105TIP3    H2 6238   4.704   0.281   0.835 -0.0686  0.1573 -0.4191
 2106TIP3   OH2 6239   3.089   8.099   1.750 -0.1455 -0.2062  0.2710
 2106TIP3    H1 6240   3.043   8.018   1.772  0.5670 -0.5495  0.5002
 2106TIP3    H2 6241   3.059   8.120   1.662  1.3747 -1.9390 -0.6886
 2107TIP3   OH2 6242   5.586   1.057   3.100 -0.0331  0.1357  0.3101
 2107TIP3    H1 6243   5.492   1.075   3.098 -0.0496 -0.0130 -0.6648
 2107TIP3    H2 6244   5.600   0.996   3.028  0.2001 -2.9863  2.8828
 2108TIP3   OH2 6245   4.401   1.231   3.102 -0.0983  0.3201  0.3552
 2108TIP3    H1 6246   4.328   1.290   3.122  0.2749  1.0009 -0.2390
 2108TIP3    H2 6247   4.464   1.245   3.173 -0.5275 -0.2528  0.8577
 2109TIP3   OH2 6248   5.110   0.395   5.265 -0.2944  0.0106  0.3640
 2109TIP3    H1 6249   5.107   0.397   5.169 -1.5413  0.4876  0.4151
 2109TIP3    H2 6250   5.200   0.420   5.286 -0.5583  1.8635 -0.6318
 2110TIP3   OH2 6251   3.749   1.022   2.380  0.1091 -0.3107  0.2039
 2110TIP3    H1 6252   3.844   1.018   2.388  0.0806  1.0850  1.3592
 2110TIP3    H2 6253   3.726   1.110   2.408 -1.5131 -0.5652 -0.2716
 2111TIP3   OH2 6254   5.724   0.401   1.768 -0.3568 -0.1966 -0.2288
 2111TIP3    H1 6255   5.635   0.368   1.752 -0.4483 -0.1578  0.2027
 2111TIP3    H2 6256   5.780   0.324   1.755 -0.6501 -0.7502  1.6855
 2112TIP3   OH2 6257   5.222   0.191   2.597 -0.6503 -0.0949  0.0830
 2112TIP3    H1 6258   5.142   0.209   2.548 -0.1760 -1.2326 -1.1461
 2112TIP3    H2 6259   5.237   0.097   2.585  0.9121  0.1242  0.2271
 2113TIP3   OH2 6260   3.692   1.233   3.225 -0.5734  0.6729 -0.2637
 2113TIP3    H1 6261   3.725   1.176   3.156 -1.5907  1.0192 -1.0532
 2113TIP3    H2 6262   3.650   1.174   3.287  1.4817  0.2330  0.7365
 2114TIP3   OH2 6263   4.149   2.169   2.132  0.3007  0.3040 -0.0622
 2114TIP3    H1 6264   4.174   2.246   2.183 -0.9033  1.1462 -0.7275
 2114TIP3    H2 6265   4.054   2.174   2.126  0.1565 -1.5439  0.3608
 2115TIP3   OH2 6266   5.295   0.505   1.401 -0.5829 -0.3492  0.1508
 2115TIP3    H1 6267   5.288   0.554   1.483 -2.6003  0.5114 -0.4926
 2115TIP3    H2 6268   5.381   0.529   1.366 -0.9094  1.5379  0.5949
 2116TIP3   OH2 6269   1.582   8.200   1.205 -0.2001  0.3739 -0.4068
 2116TIP3    H1 6270   1.637   8.171   1.132  0.9704 -2.7264  1.5788
 2116TIP3    H2 6271   1.493   8.175   1.179  0.2363 -0.8958 -0.7454
 2117TIP3   OH2 6272   3.751   2.578   3.617 -0.4735  0.3418  0.4319
 2117TIP3    H1 6273   3.665   2.577   3.576  0.2819 -4.2039 -1.3037
 2117TIP3    H2 6274   3.800   2.644   3.568 -2.1803  1.1001 -0.2989
 2118TIP3   OH2 6275   0.830   8.422   0.469 -0.0767 -0.1942 -0.0467
 2118TIP3    H1 6276   0.750   8.370   0.460 -0.4878  0.5472 -0.7313
 2118TIP3    H2 6277   0.900   8.362   0.445 -0.6525 -0.0849 -2.0394
 2119TIP3   OH2 6278   5.419   0.992   2.411 -0.0318 -0.4284 -0.3163
 2119TIP3    H1 6279   5.443   0.900   2.405  0.2587 -0.4443  0.9278
 2119TIP3    H2 6280   5.432   1.014   2.504 -4.0263 -0.2021  0.2741
 2120TIP3   OH2 6281   4.500   2.796   3.385 -0.1349 -0.2096 -0.0703
 2120TIP3    H1 6282   4.452   2.728   3.432  1.5237 -1.5879 -0.3484
 2120TIP3    H2 6283   4.554   2.749   3.322  2.1851  1.2452  0.7627
 2121TIP3   OH2 6284   2.267   8.074   2.721 -0.3524  0.2087  0.5965
 2121TIP3    H1 6285   2.244   8.000   2.666 -1.2480  1.2317 -0.4453
 2121TIP3    H2 6286   2.327   8.039   2.786  1.3282 -0.8702 -1.4959
 2122TIP3   OH2 6287   1.494   0.699   0.502 -0.6264  0.1248 -0.1976
 2122TIP3    H1 6288   1.439   0.680   0.578 -0.6723  0.6649 -0.1007
 2122TIP3    H2 6289   1.521   0.612   0.471 -0.1635 -0.0803  0.7625
 2123TIP3   OH2 6290   4.729   2.298   1.809  0.9408  0.4947 -0.1877
 2123TIP3    H1 6291   4.686   2.366   1.757  0.2981 -0.4815 -0.9537
 2123TIP3    H2 6292   4.727   2.332   1.898 -1.9902  0.2342 -0.1071
 2124TIP3   OH2 6293   3.897   0.629   0.299  0.5139 -0.0141 -0.0075
 2124TIP3    H1 6294   3.945   0.596   0.375 -0.8001 -0.4808  0.6338
 2124TIP3    H2 6295   3.938   0.587   0.224  1.1910 -0.3068  0.5263
 2125TIP3   OH2 6296   6.122   1.500   2.547  0.3737  0.2874 -0.1136
 2125TIP3    H1 6297   6.027   1.499   2.560  0.5358  0.9427  1.2035
 2125TIP3    H2 6298   6.146   1.407   2.547 -0.5740  0.0121 -3.0092
 2126TIP3   OH2 6299   4.217   1.326   2.673 -0.3551  0.3673 -0.3034
 2126TIP3    H1 6300   4.244   1.237   2.695  0.8328  0.4210 -1.5076
 2126TIP3    H2 6301   4.124   1.329   2.696 -0.1236 -0.8169  0.8403
 2127TIP3   OH2 6302   6.559   0.512   2.849 -0.0181 -0.0962 -0.0335
 2127TIP3    H1 6303   6.583   0.422   2.872  0.8791  0.3600  0.7963
 2127TIP3    H2 6304   6.471   0.523   2.885 -0.8473 -1.2276 -1.6793
 2128TIP3   OH2 6305   4.594   0.091   2.591  0.8285 -0.2749 -0.0989
 2128TIP3    H1 6306   4.606   0.181   2.620 -2.4145 -0.0108  0.5686
 2128TIP3    H2 6307   4.586   0.040   2.671  1.0250 -0.9296 -0.4876
 2129TIP3   OH2 6308   5.270   5.109   6.612  0.1517 -0.3840  0.1245
 2129TIP3    H1 6309   5.289   5.202   6.621 -0.6068 -0.1457 -0.6596
 2129TIP3    H2 6310   5.183   5.099   6.651 -0.2744 -0.5487 -0.8668
 2130TIP3   OH2 6311   2.670   1.157   0.360 -0.4875 -0.2167  0.1029
 2130TIP3    H1 6312   2.609   1.163   0.286 -0.6028 -1.0217  0.1242
 2130TIP3    H2 6313   2.756   1.149   0.318 -0.6885 -2.1477  0.0215
 2131TIP3   OH2 6314   6.947   2.608   5.251  0.2662  0.4895 -0.3853
 2131TIP3    H1 6315   7.042   2.611   5.262  0.4365  0.3255 -1.7447
 2131TIP3    H2 6316   6.914   2.571   5.333  1.5015 -1.0761 -0.5720
 2132TIP3   OH2 6317   2.421   8.101   3.375 -0.8698  0.0860 -0.8188
 2132TIP3    H1 6318   2.396   8.145   3.456 -0.4867 -0.4722 -0.3830
 2132TIP3    H2 6319   2.504   8.058   3.397 -1.9329 -2.0186 -0.7862
 2133TIP3   OH2 6320   6.180   0.238   2.610  0.3387  0.1997 -0.6894
 2133TIP3    H1 6321   6.267   0.198   2.603 -0.3598 -1.2121 -1.5615
 2133TIP3    H2 6322   6.186   0.317   2.557  1.3217  0.5032 -0.1318
 2134TIP3   OH2 6323   5.700   5.474   4.821 -0.2206  0.9294 -0.4230
 2134TIP3    H1 6324   5.714   5.567   4.838  2.5753  0.7201 -1.3014
 2134TIP3    H2 6325   5.782   5.445   4.781 -0.6744 -2.1605  0.8219
 2135TIP3   OH2 6326   1.328   8.215   0.259  0.3031  0.3318  0.0703
 2135TIP3    H1 6327   1.396   8.155   0.228  1.4256  1.0987  1.0016
 2135TIP3    H2 6328   1.312   8.273   0.184 -0.1331 -0.5368 -0.5235
 2136TIP3   OH2 6329   7.231   1.983   4.488 -0.2658  0.0135 -0.5956
 2136TIP3    H1 6330   7.157   1.955   4.434 -0.5805  0.0686 -0.1988
 2136TIP3    H2 6331   7.201   1.971   4.578 -0.1519  0.9678 -0.4224
 2137TIP3   OH2 6332   6.505   1.422   2.914 -0.0318  0.3006  0.1559
 2137TIP3    H1 6333   6.565   1.366   2.963 -2.7738 -3.7035 -0.8104
 2137TIP3    H2 6334   6.437   1.446   2.978 -0.6291 -0.2505 -0.2687
 2138TIP3   OH2 6335   2.188   7.948   5.275 -0.0802  0.0432 -0.2367
 2138TIP3    H1 6336   2.142   7.866   5.292  0.9000 -0.3789  0.3739
 2138TIP3    H2 6337   2.220   7.940   5.185  0.3658 -0.4004 -0.0348
 2139TIP3   OH2 6338   5.382   2.265   3.246  0.2115  0.5964  0.1057
 2139TIP3    H1 6339   5.458   2.211   3.267 -0.1584 -0.7995 -1.9606
 2139TIP3    H2 6340   5.313   2.234   3.304  0.3727 -0.2513 -0.1519
 2140TIP3   OH2 6341   4.863   2.149   4.655 -0.5121 -0.0859  0.6709
 2140TIP3    H1 6342   4.919   2.169   4.730 -0.0751  2.0649 -0.1983
 2140TIP3    H2 6343   4.919   2.161   4.579 -1.4295 -0.5639 -0.0912
 2141TIP3   OH2 6344   2.387   8.329   0.915 -0.0315 -0.2619 -0.3498
 2141TIP3    H1 6345   2.398   8.237   0.891 -0.2821 -0.3832  0.0047
 2141TIP3    H2 6346   2.422   8.378   0.840  0.3733 -0.6448 -0.4099
 2142TIP3   OH2 6347   4.312   0.293   4.787  0.2291  0.0713 -0.0558
 2142TIP3    H1 6348   4.357   0.371   4.819  0.7655 -1.1249  2.1690
 2142TIP3    H2 6349   4.380   0.226   4.781 -0.3539 -0.4212 -1.2819
 2143TIP3   OH2 6350   5.720   1.466   5.547 -0.1744 -0.1424  0.0055
 2143TIP3    H1 6351   5.713   1.509   5.632  0.1397 -1.1393  0.5325
 2143TIP3    H2 6352   5.695   1.376   5.563 -0.9154 -0.1408 -1.1285
 2144TIP3   OH2 6353   2.572   7.446   3.669 -0.0164 -0.7131 -0.0463
 2144TIP3    H1 6354   2.605   7.369   3.622 -1.0147 -0.1515 -1.6997
 2144TIP3    H2 6355   2.608   7.521   3.621  1.4058 -0.1363  1.8873
 2145TIP3   OH2 6356   6.832   1.862   3.561 -0.0522  0.6408  0.3670
 2145TIP3    H1 6357   6.848   1.804   3.487 -0.6536  0.8379  0.0823
 2145TIP3    H2 6358   6.848   1.950   3.527  0.9966  0.6450  0.8349
 2146TIP3   OH2 6359   0.881   7.776   1.336  0.0678 -0.2519  0.2419
 2146TIP3    H1 6360   0.785   7.780   1.346 -0.0494 -2.9083  0.7141
 2146TIP3    H2 6361   0.896   7.696   1.287  2.0776  0.0101  0.4081
 2147TIP3   OH2 6362   4.913   2.196   5.484  0.1199  0.3024 -0.4408
 2147TIP3    H1 6363   4.925   2.117   5.537 -1.0453 -0.5149 -1.3765
 2147TIP3    H2 6364   4.878   2.261   5.545  2.5598  0.5967  0.6978
 2148TIP3   OH2 6365   7.400   4.277   6.990  0.5849  0.0828 -0.1055
 2148TIP3    H1 6366   7.451   4.279   6.909  0.6784 -0.6225 -0.0641
 2148TIP3    H2 6367   7.462   4.304   7.058  0.7587 -0.2375 -0.1350
 2149TIP3   OH2 6368   5.610   0.621   3.335  0.0607 -0.8277  0.6460
 2149TIP3    H1 6369   5.609   0.717   3.334 -0.4461 -0.8068 -2.2132
 2149TIP3    H2 6370   5.518   0.596   3.340  0.0699 -1.1200 -0.4164
 2150TIP3   OH2 6371   5.080   0.468   4.766 -0.6876  0.3248 -0.0663
 2150TIP3    H1 6372   5.081   0.446   4.672 -2.2834 -0.8962  0.1745
 2150TIP3    H2 6373   5.032   0.552   4.769  1.5996  1.6870 -0.5656
 2151TIP3   OH2 6374   2.711   8.218   3.254 -0.4889 -0.4646 -0.2295
 2151TIP3    H1 6375   2.805   8.226   3.242 -0.5861  1.2872 -0.0509
 2151TIP3    H2 6376   2.674   8.276   3.187 -1.3747  0.2100  0.8210
 2152TIP3   OH2 6377   6.359   0.892   1.875 -0.8695  0.3661  0.2798
 2152TIP3    H1 6378   6.372   0.960   1.941 -1.3486  1.0204 -0.2949
 2152TIP3    H2 6379   6.438   0.895   1.821 -1.5996  1.5831 -0.7392
 2153TIP3   OH2 6380   1.264   6.628   4.312 -0.6563 -0.4669  0.2826
 2153TIP3    H1 6381   1.187   6.679   4.337 -0.6310  0.7052 -1.9428
 2153TIP3    H2 6382   1.335   6.691   4.311 -0.3356 -0.8304 -1.0442
 2154TIP3   OH2 6383   2.117   7.678   2.941 -0.2838 -0.3815 -0.2169
 2154TIP3    H1 6384   2.142   7.586   2.932  0.0348 -0.2839 -0.3636
 2154TIP3    H2 6385   2.022   7.677   2.944 -0.3106 -0.6395 -1.0703
 2155TIP3   OH2 6386   4.803   1.242   2.769 -0.2304  0.8684  0.0817
 2155TIP3    H1 6387   4.760   1.291   2.700 -1.4061 -0.0691  0.1225
 2155TIP3    H2 6388   4.773   1.152   2.756  0.3230  0.5130  1.2007
 2156TIP3   OH2 6389   4.480   1.161   3.664  0.0800  0.5576 -0.2110
 2156TIP3    H1 6390   4.506   1.076   3.700 -1.3836  0.7448  1.3899
 2156TIP3    H2 6391   4.547   1.222   3.694  0.3075  0.2366 -0.0693
 2157TIP3   OH2 6392   3.475   1.890   4.000  0.6218  0.2573  0.0717
 2157TIP3    H1 6393   3.546   1.826   4.009 -0.1423 -0.4896  0.8639
 2157TIP3    H2 6394   3.499   1.941   3.923  0.7712 -1.6285 -1.1790
 2158TIP3   OH2 6395   7.782   8.291   4.929 -0.6560  0.8027 -0.1793
 2158TIP3    H1 6396   7.737   8.291   4.845 -1.1769  1.6730  0.0881
 2158TIP3    H2 6397   7.749   8.214   4.975 -2.3539  1.7588  0.2573
 2159TIP3   OH2 6398   6.657   1.241   3.376  0.3871  0.2782  0.5264
 2159TIP3    H1 6399   6.737   1.190   3.363 -0.1134 -0.2920 -0.3629
 2159TIP3    H2 6400   6.653   1.256   3.471  1.4262  0.1221  0.5998
 2160TIP3   OH2 6401   6.387   1.144   2.383 -0.5772 -0.1136 -0.7339
 2160TIP3    H1 6402   6.482   1.143   2.373 -0.3062  1.1010  1.4293
 2160TIP3    H2 6403   6.356   1.210   2.321 -0.2769 -2.1189 -3.1191
 2161TIP3   OH2 6404   5.181   2.455   5.945  0.0508 -0.2649 -0.5127
 2161TIP3    H1 6405   5.263   2.480   5.987 -0.8600  1.9810 -0.0210
 2161TIP3    H2 6406   5.205   2.439   5.854  0.7843  1.9750 -0.7491
 2162TIP3   OH2 6407   8.009   4.751   6.732 -0.0970  0.3317 -0.0771
 2162TIP3    H1 6408   8.022   4.686   6.663  0.0486 -0.9078  1.1134
 2162TIP3    H2 6409   8.026   4.835   6.689  0.4727 -0.4614 -1.4229
 2163TIP3   OH2 6410   5.969   0.326   1.502 -0.1128  0.3206 -0.2251
 2163TIP3    H1 6411   6.000   0.396   1.444  2.2807 -0.0968  0.5367
 2163TIP3    H2 6412   5.902   0.281   1.450  1.9989 -0.0738 -2.7195
 2164TIP3   OH2 6413   3.926   2.777   2.684 -0.3166 -0.2703 -0.1445
 2164TIP3    H1 6414   3.912   2.689   2.648 -0.9324 -0.3460  0.2759
 2164TIP3    H2 6415   3.870   2.834   2.631  1.7255  0.2277 -1.8793
 2165TIP3   OH2 6416   3.042   1.458   2.270 -0.3810  0.0628 -0.1722
 2165TIP3    H1 6417   2.957   1.442   2.229 -0.6602 -1.1861  0.8726
 2165TIP3    H2 6418   3.022   1.474   2.362  0.4293  0.8032 -0.1186
 2166TIP3   OH2 6419   3.125   6.318   2.388  0.6539  0.3220 -0.0529
 2166TIP3    H1 6420   3.112   6.313   2.482  1.5457  2.1426  0.1873
 2166TIP3    H2 6421   3.160   6.233   2.364  1.3794  0.1872  1.4255
 2167TIP3   OH2 6422   1.015   7.619   2.180 -0.0594  0.2325 -0.1421
 2167TIP3    H1 6423   1.059   7.536   2.197 -1.7254 -0.5333  0.5999
 2167TIP3    H2 6424   0.927   7.594   2.151 -0.2776  1.7244 -0.8163
 2168TIP3   OH2 6425   0.958   7.263   0.492  0.0401 -0.5548 -0.5315
 2168TIP3    H1 6426   0.957   7.239   0.399  0.1429  1.3418 -1.0310
 2168TIP3    H2 6427   1.008   7.344   0.496  1.5101 -1.5117  1.4246
 2169TIP3   OH2 6428   2.244   7.755   3.858 -0.4302  0.3292  0.3295
 2169TIP3    H1 6429   2.188   7.682   3.884 -0.3464  0.3279  0.5080
 2169TIP3    H2 6430   2.303   7.768   3.933 -0.3606  0.4963  0.2467
 2170TIP3   OH2 6431   6.354   1.183   3.049  0.8368 -0.4607 -0.5878
 2170TIP3    H1 6432   6.422   1.152   2.989  0.7484  1.8313 -1.9181
 2170TIP3    H2 6433   6.286   1.218   2.992  0.8600  2.0099  0.8380
 2171TIP3   OH2 6434   3.211   5.541   6.411 -0.0263 -0.4688 -0.0501
 2171TIP3    H1 6435   3.261   5.460   6.417 -1.0927 -1.0469  1.2733
 2171TIP3    H2 6436   3.278   5.610   6.408  0.8722 -1.3286 -0.0240
 2172TIP3   OH2 6437   5.928   1.213   1.926  0.0039  0.3172  0.3483
 2172TIP3    H1 6438   5.912   1.255   2.010  0.1683 -1.8187  1.4724
 2172TIP3    H2 6439   5.853   1.236   1.872 -0.6699  0.7497  1.4642
 2173TIP3   OH2 6440   5.796   0.828   1.053  0.0560 -0.5413  0.3420
 2173TIP3    H1 6441   5.841   0.870   1.125 -0.4810 -1.1598  1.0411
 2173TIP3    H2 6442   5.706   0.817   1.083 -0.3036 -0.3342 -0.6123
 2174TIP3   OH2 6443   6.502   0.328   5.026  0.1064 -0.0543  0.0878
 2174TIP3    H1 6444   6.526   0.291   5.111  2.0164  1.7556  0.3698
 2174TIP3    H2 6445   6.530   0.262   4.962 -0.7404 -1.1249  0.8053
 2175TIP3   OH2 6446   2.224   0.409   3.091  0.5297 -0.3300  0.5689
 2175TIP3    H1 6447   2.170   0.461   3.031  0.1818 -0.9334  0.3578
 2175TIP3    H2 6448   2.298   0.379   3.039  0.2096 -0.8834  0.4304
 2176TIP3   OH2 6449   4.239   1.941   2.275  0.5876 -0.0792 -0.0896
 2176TIP3    H1 6450   4.250   1.866   2.215 -0.0103  0.0522 -0.3684
 2176TIP3    H2 6451   4.190   2.005   2.224 -1.8001 -0.7967  1.2212
 2177TIP3   OH2 6452   4.109   1.507   2.051 -0.4839 -0.5963 -0.2825
 2177TIP3    H1 6453   4.192   1.467   2.076  0.0525  1.2621  0.9952
 2177TIP3    H2 6454   4.090   1.570   2.121 -0.3271  2.7755 -3.1131
 2178TIP3   OH2 6455   4.958   1.047   5.186  0.3986 -0.2325  0.7465
 2178TIP3    H1 6456   4.867   1.072   5.200 -0.4494 -1.6293 -1.9454
 2178TIP3    H2 6457   4.975   0.978   5.251 -0.9830 -1.1137  0.1854
 2179TIP3   OH2 6458   4.772   0.947   2.696 -0.1200 -0.5168  0.0800
 2179TIP3    H1 6459   4.692   0.908   2.661 -0.2899 -1.0048  0.9941
 2179TIP3    H2 6460   4.842   0.904   2.648 -0.3897 -0.3230 -0.4970
 2180TIP3   OH2 6461   1.451   7.129   3.609 -0.4114  0.1789  0.3490
 2180TIP3    H1 6462   1.464   7.034   3.612  0.6929  0.3189  0.3567
 2180TIP3    H2 6463   1.456   7.152   3.517 -0.9292  0.2031  0.3242
 2181TIP3   OH2 6464   2.502   7.538   4.338 -0.0730 -0.1696  0.2518
 2181TIP3    H1 6465   2.511   7.444   4.353  2.0588 -0.0321 -0.0209
 2181TIP3    H2 6466   2.516   7.578   4.424  0.1339 -0.0478  0.1628
 2182TIP3   OH2 6467   5.702   1.176   4.107 -0.0552  0.1380  0.0356
 2182TIP3    H1 6468   5.638   1.212   4.046  0.3260 -2.2579 -1.8772
 2182TIP3    H2 6469   5.670   1.202   4.194 -0.6155  3.5832 -1.1256
 2183TIP3   OH2 6470   4.763   3.018   3.303 -0.4968 -0.1792  0.4772
 2183TIP3    H1 6471   4.747   3.026   3.397 -2.4970 -1.7741  0.3034
 2183TIP3    H2 6472   4.774   2.924   3.288 -1.2730 -0.0410 -1.0395
 2184TIP3   OH2 6473   5.807   1.993   4.941 -0.0651 -0.4221  0.2911
 2184TIP3    H1 6474   5.884   2.044   4.968  0.9270 -2.3180  1.1184
 2184TIP3    H2 6475   5.755   2.055   4.890  2.2124  0.7980 -0.6499
 2185TIP3   OH2 6476   1.836   6.881   3.353 -0.0114  0.2217  0.0414
 2185TIP3    H1 6477   1.750   6.866   3.315  0.3623  0.4405 -0.9002
 2185TIP3    H2 6478   1.862   6.796   3.388 -0.6212  0.1616  0.3452
 2186TIP3   OH2 6479   4.787   0.708   2.962  0.7517  0.2010 -0.0672
 2186TIP3    H1 6480   4.707   0.682   3.009  1.9930 -1.9574  0.9394
 2186TIP3    H2 6481   4.759   0.780   2.906 -1.6037  0.4174  1.2855
 2187TIP3   OH2 6482   5.610   0.656   5.142  0.1933  0.6007 -0.3173
 2187TIP3    H1 6483   5.521   0.622   5.138  1.3571 -3.0124  1.6522
 2187TIP3    H2 6484   5.613   0.725   5.075 -4.2186  1.3297  0.1091
 2188TIP3   OH2 6485   4.360   0.992   2.367  0.2218  0.4739  0.0837
 2188TIP3    H1 6486   4.300   1.056   2.329 -0.0090 -0.0405 -0.4398
 2188TIP3    H2 6487   4.392   0.942   2.292 -0.2535 -0.5656  0.5640
 2189TIP3   OH2 6488   5.150   1.475   3.351 -0.0642  0.2737  0.3379
 2189TIP3    H1 6489   5.225   1.510   3.302  1.5239 -0.1828  2.3541
 2189TIP3    H2 6490   5.137   1.538   3.422 -0.7020 -0.3901  0.8092
 2190TIP3   OH2 6491   3.705   1.521   3.155 -0.4807 -0.4067  0.0862
 2190TIP3    H1 6492   3.676   1.434   3.182 -1.6782 -0.7046 -2.0939
 2190TIP3    H2 6493   3.643   1.581   3.197 -0.4403 -0.6683  0.5272
 2191TIP3   OH2 6494   0.317   8.047   1.249 -0.0257  0.1465  0.6054
 2191TIP3    H1 6495   0.344   7.972   1.195 -2.4647 -0.0474 -0.4288
 2191TIP3    H2 6496   0.332   8.123   1.193  0.4603  0.2243  0.8480
 2192TIP3   OH2 6497   6.233   1.570   3.931  0.0652 -0.4504 -0.3506
 2192TIP3    H1 6498   6.298   1.632   3.896  1.7435 -2.4650 -0.9334
 2192TIP3    H2 6499   6.171   1.557   3.859  0.5468 -0.5675 -0.7476
 2193TIP3   OH2 6500   6.251   2.852   6.095  0.5283  0.2852  0.7125
 2193TIP3    H1 6501   6.222   2.858   6.004 -0.2329 -1.8447  0.7844
 2193TIP3    H2 6502   6.171   2.837   6.145  0.8841  1.8665  1.8174
 2194TIP3   OH2 6503   5.326   1.365   3.072 -0.8009  0.2765 -0.4068
 2194TIP3    H1 6504   5.273   1.382   2.994 -0.2007  0.1517 -0.8436
 2194TIP3    H2 6505   5.314   1.271   3.089  0.2143 -0.0011 -1.2010
 2195TIP3   OH2 6506   6.672   1.123   2.365  1.1396  0.1678  0.1571
 2195TIP3    H1 6507   6.667   1.055   2.298  2.4039 -2.3890  2.5444
 2195TIP3    H2 6508   6.739   1.183   2.333  1.3819 -0.7421 -1.1056
 2196TIP3   OH2 6509   4.210   7.348   3.293 -0.6002  0.4416 -0.1253
 2196TIP3    H1 6510   4.164   7.346   3.209  1.3133 -1.2704 -1.1844
 2196TIP3    H2 6511   4.296   7.386   3.273  0.0067 -0.3191  0.9686
 2197TIP3   OH2 6512   4.939   1.132   3.607  0.6571 -0.4160  0.4424
 2197TIP3    H1 6513   4.878   1.133   3.680  1.1496 -1.2326  0.8818
 2197TIP3    H2 6514   5.024   1.114   3.647  1.1627  0.5565 -0.1772
 2198TIP3   OH2 6515   6.760   0.691   2.101  0.7007 -0.1007  0.1760
 2198TIP3    H1 6516   6.677   0.647   2.120  0.2412  0.2488 -1.0393
 2198TIP3    H2 6517   6.822   0.619   2.087  0.1192 -0.3684 -1.0468
 2199TIP3   OH2 6518   4.640   1.368   2.080 -0.6871 -0.3072  0.3949
 2199TIP3    H1 6519   4.646   1.450   2.033  3.0871 -1.0700 -0.5936
 2199TIP3    H2 6520   4.669   1.388   2.169  0.1044 -0.5510  0.1901
 2200TIP3   OH2 6521   1.664   6.465   1.338  0.5111  0.0080  0.4632
 2200TIP3    H1 6522   1.653   6.400   1.269  0.8990 -0.2589  0.6526
 2200TIP3    H2 6523   1.619   6.543   1.305 -0.6580 -0.5992  0.5864
 2201TIP3   OH2 6524   2.817   7.605   0.950 -0.0112  0.5380  0.0962
 2201TIP3    H1 6525   2.853   7.582   1.035  0.3017 -0.7121 -0.3648
 2201TIP3    H2 6526   2.723   7.618   0.967 -0.0585 -0.2940  0.5328
 2202TIP3   OH2 6527   3.865   8.015   3.076  0.5061  0.3119  0.0686
 2202TIP3    H1 6528   3.888   8.028   3.168 -0.1521  1.1566  0.1178
 2202TIP3    H2 6529   3.947   7.990   3.034  0.9998  0.8465  0.7064
 2203TIP3   OH2 6530   5.858   0.616   3.483  0.4009 -0.2454 -0.0593
 2203TIP3    H1 6531   5.852   0.704   3.521 -2.1146 -0.7709  0.8686
 2203TIP3    H2 6532   5.808   0.621   3.402  1.0391 -0.5774 -0.4753
 2204TIP3   OH2 6533   2.521   7.427   0.945 -0.3755  0.1780 -0.0197
 2204TIP3    H1 6534   2.505   7.335   0.963 -0.8761  0.2501 -0.0968
 2204TIP3    H2 6535   2.507   7.472   1.029  1.5409 -0.0207  0.4320
 2205TIP3   OH2 6536   0.780   8.361   4.869  0.2071 -0.4558 -0.0220
 2205TIP3    H1 6537   0.711   8.320   4.920 -0.6787 -0.6508 -1.3444
 2205TIP3    H2 6538   0.861   8.335   4.913 -0.5836  0.6291  2.1536
 2206TIP3   OH2 6539   1.524   8.054   0.728  0.4654  0.3997 -0.4754
 2206TIP3    H1 6540   1.582   8.050   0.803 -0.8392 -1.0850  0.4903
 2206TIP3    H2 6541   1.472   8.134   0.742 -0.9374 -0.7465  1.1258
 2207TIP3   OH2 6542   5.342   6.129   2.824  0.1839 -0.5117 -0.8761
 2207TIP3    H1 6543   5.422   6.135   2.772 -0.8489 -0.6843 -2.5352
 2207TIP3    H2 6544   5.366   6.075   2.899  2.0589  0.8711 -0.4453
 2208TIP3   OH2 6545   5.839   0.830   3.941  0.1014 -0.0425  0.1854
 2208TIP3    H1 6546   5.834   0.767   4.013  1.4481 -2.0612 -1.3786
 2208TIP3    H2 6547   5.921   0.877   3.956  0.9844 -1.2689 -0.5748
 2209TIP3   OH2 6548   6.827   2.867   3.219  0.2676  0.4137 -0.2964
 2209TIP3    H1 6549   6.829   2.775   3.246  0.0950 -0.0732 -1.9041
 2209TIP3    H2 6550   6.915   2.884   3.184 -0.3077  0.2656 -1.8665
 2210TIP3   OH2 6551   3.530   1.864   0.180  0.6143  0.0083  0.1172
 2210TIP3    H1 6552   3.594   1.796   0.161 -0.9994 -1.9401  1.3526
 2210TIP3    H2 6553   3.550   1.891   0.270 -0.0947 -0.4255  0.4152
 2211TIP3   OH2 6554   3.856   0.319   0.431 -1.1240  0.1023  0.2176
 2211TIP3    H1 6555   3.847   0.228   0.459 -4.8371  0.8297  1.5376
 2211TIP3    H2 6556   3.859   0.314   0.335  1.9812 -1.5859  0.3120
 2212TIP3   OH2 6557   2.593   0.210   1.325  0.0622 -0.3718  0.5567
 2212TIP3    H1 6558   2.565   0.280   1.383  0.1856  0.2876 -0.1778
 2212TIP3    H2 6559   2.662   0.165   1.374 -0.1079 -0.0635  1.0792
 2213TIP3   OH2 6560   4.999   0.961   0.622  0.1272 -0.2884  0.7870
 2213TIP3    H1 6561   4.948   1.030   0.664 -3.6431 -2.4969  0.1115
 2213TIP3    H2 6562   5.058   1.007   0.562 -0.4097  2.4236  2.2819
 2214TIP3   OH2 6563   8.849   5.462   6.951  0.2795  0.4401  0.5008
 2214TIP3    H1 6564   8.884   5.374   6.940 -1.4885 -0.2226  0.0994
 2214TIP3    H2 6565   8.898   5.499   7.024  1.3368 -0.6983  0.3795
 2215TIP3   OH2 6566   6.758   0.650   4.588 -0.2258 -0.2794  0.1662
 2215TIP3    H1 6567   6.811   0.591   4.642  1.8485  0.6894 -0.7960
 2215TIP3    H2 6568   6.709   0.591   4.530  0.6301 -1.1323  0.3050
 2216TIP3   OH2 6569   5.703   7.730   3.062 -0.4504 -0.2706 -0.0810
 2216TIP3    H1 6570   5.774   7.792   3.078  0.1538 -0.5664 -1.5180
 2216TIP3    H2 6571   5.673   7.750   2.973 -0.0281 -2.2292 -0.6868
 2217TIP3   OH2 6572   8.661   4.229   7.224  0.1956  0.0291 -0.4464
 2217TIP3    H1 6573   8.750   4.219   7.192 -0.3122 -1.1837 -1.5386
 2217TIP3    H2 6574   8.635   4.316   7.196  1.0418  0.3956 -0.1060
 2218TIP3   OH2 6575   6.022   0.911   3.462 -0.0351  0.0349  0.4575
 2218TIP3    H1 6576   5.939   0.895   3.507 -0.0256 -0.6826  0.2268
 2218TIP3    H2 6577   6.049   0.998   3.491 -0.6386  0.0778  0.8922
 2219TIP3   OH2 6578   8.583   3.636   6.969  0.0690 -0.5869 -0.1564
 2219TIP3    H1 6579   8.608   3.601   7.055  0.2410 -2.9372 -1.1426
 2219TIP3    H2 6580   8.555   3.726   6.988  0.7376 -0.8356  2.2611
 2220TIP3   OH2 6581   4.313   8.154   2.717 -0.2181 -0.0312  0.6996
 2220TIP3    H1 6582   4.340   8.063   2.708  1.6809  0.5125  0.6439
 2220TIP3    H2 6583   4.352   8.183   2.799  0.5386  1.1750 -0.0670
 2221TIP3   OH2 6584   0.468   7.677   1.341  0.3699  0.0318  0.2574
 2221TIP3    H1 6585   0.399   7.676   1.274  0.7187 -0.3731 -0.0997
 2221TIP3    H2 6586   0.496   7.769   1.344  0.9438 -0.0997 -0.7697
 2222TIP3   OH2 6587   6.081   1.305   0.778  0.0086 -0.0404  0.1569
 2222TIP3    H1 6588   6.027   1.304   0.856 -1.0981 -4.4617 -0.4815
 2222TIP3    H2 6589   6.043   1.373   0.722 -1.2548  0.8473  2.0720
 2223TIP3   OH2 6590   3.553   0.806   0.395  0.2788 -0.1697  0.3433
 2223TIP3    H1 6591   3.504   0.794   0.477  2.2625  0.7686  1.7234
 2223TIP3    H2 6592   3.584   0.718   0.373 -2.1860 -0.8199 -0.6984
 2224TIP3   OH2 6593   5.466   0.497   2.550  0.3293  0.0299  0.3172
 2224TIP3    H1 6594   5.441   0.524   2.638  2.2303  0.0571  0.8554
 2224TIP3    H2 6595   5.549   0.452   2.560 -0.1497 -1.2749 -1.2896
 2225TIP3   OH2 6596   5.697   1.151   2.393  0.0864  0.2248 -0.2207
 2225TIP3    H1 6597   5.771   1.100   2.427 -0.2142  0.5382  0.9354
 2225TIP3    H2 6598   5.621   1.118   2.441 -0.7250 -0.9045 -2.2267
 2226TIP3   OH2 6599   7.388   2.129   6.239  0.1118 -0.2431 -0.3143
 2226TIP3    H1 6600   7.386   2.223   6.257  1.1810 -0.3897  0.6468
 2226TIP3    H2 6601   7.480   2.108   6.227 -0.1795 -1.0511 -1.1954
 2227TIP3   OH2 6602   5.026   0.712   1.601  0.9659  0.3194 -1.1390
 2227TIP3    H1 6603   5.064   0.789   1.559  0.3236  0.7798 -0.8862
 2227TIP3    H2 6604   4.933   0.713   1.575  0.2626  1.3182  1.2785
 2228TIP3   OH2 6605   5.942   3.480   2.446 -0.1756 -0.3140  0.4898
 2228TIP3    H1 6606   5.911   3.537   2.516 -0.8668 -0.4957  0.3332
 2228TIP3    H2 6607   5.949   3.537   2.369  0.6406 -0.1020  0.7220
 2229TIP3   OH2 6608   3.716   7.163   3.387 -0.4837 -0.3269  0.6550
 2229TIP3    H1 6609   3.733   7.074   3.420 -1.5757 -0.8280 -0.0962
 2229TIP3    H2 6610   3.622   7.175   3.398 -0.1166  1.3409  2.1725
 2230TIP3   OH2 6611   4.933   0.779   1.262  0.2677 -0.0393  0.0145
 2230TIP3    H1 6612   4.869   0.847   1.241  0.6044 -0.6138 -3.0813
 2230TIP3    H2 6613   5.016   0.825   1.267  0.2593  0.0240 -0.4359
 2231TIP3   OH2 6614   4.899   8.042   2.007  0.1484 -0.0206  0.2456
 2231TIP3    H1 6615   4.951   8.121   1.997  0.5625 -0.0137  2.2887
 2231TIP3    H2 6616   4.819   8.059   1.956  1.5002  0.4884 -1.7886
 2232TIP3   OH2 6617   0.994   7.708   4.008 -0.2476 -0.0865 -0.0084
 2232TIP3    H1 6618   0.970   7.630   3.957 -0.0059  0.6073 -1.2119
 2232TIP3    H2 6619   1.076   7.684   4.051  0.7218  0.0419 -1.7075
 2233TIP3   OH2 6620   6.641   0.691   1.786 -0.0121  0.4503  0.4328
 2233TIP3    H1 6621   6.729   0.685   1.822 -0.2087 -0.8850  0.7056
 2233TIP3    H2 6622   6.583   0.673   1.861 -0.4085 -3.2124 -0.6404
 2234TIP3   OH2 6623   8.700   2.056   4.504  0.1269  0.1144 -0.7076
 2234TIP3    H1 6624   8.700   2.132   4.446  0.3241  1.3499  0.8970
 2234TIP3    H2 6625   8.777   2.068   4.560 -1.5867  0.3614  1.6612
 2235TIP3   OH2 6626   4.049   8.074   3.597  0.4708 -0.0999  0.3290
 2235TIP3    H1 6627   4.130   8.111   3.563  0.2010 -1.8603 -2.3563
 2235TIP3    H2 6628   4.078   8.000   3.651  0.7120 -0.1916  0.0789
 2236TIP3   OH2 6629   5.856   0.432   2.440 -0.1581 -0.7176 -0.0184
 2236TIP3    H1 6630   5.834   0.344   2.471  1.0866 -1.8727 -2.3498
 2236TIP3    H2 6631   5.877   0.481   2.520  0.9804 -3.0625  1.1546
 2237TIP3   OH2 6632   3.003   7.666   2.782 -0.2618  0.3026  0.5873
 2237TIP3    H1 6633   3.081   7.674   2.837  1.3727 -1.7084 -1.3260
 2237TIP3    H2 6634   2.982   7.573   2.783 -0.0411  0.1787 -2.3269
 2238TIP3   OH2 6635   6.896   2.562   3.247  0.4223  0.1341  0.5091
 2238TIP3    H1 6636   6.825   2.537   3.187  0.0147  0.4328  0.8704
 2238TIP3    H2 6637   6.875   2.518   3.329  0.3365  0.7046  0.7947
 2239TIP3   OH2 6638   7.754   2.589   1.700  0.4212  0.3346 -0.1198
 2239TIP3    H1 6639   7.811   2.628   1.634  1.0803 -0.8450 -0.2512
 2239TIP3    H2 6640   7.768   2.495   1.692 -0.0595  0.1371  1.1861
 2240TIP3   OH2 6641   5.830   0.898   2.414 -0.2608  0.0283  0.6746
 2240TIP3    H1 6642   5.823   0.806   2.387  0.1996  0.0466  0.4909
 2240TIP3    H2 6643   5.915   0.926   2.381 -0.0443  0.2817  1.4505
 2241TIP3   OH2 6644   5.846   1.026   1.453 -0.3168  0.2662  0.2790
 2241TIP3    H1 6645   5.762   1.040   1.495 -1.0474 -1.0965 -0.6943
 2241TIP3    H2 6646   5.855   0.931   1.447  0.4530  0.4080 -1.2807
 2242TIP3   OH2 6647   3.778   7.350   3.174  0.1315 -0.0156 -0.3239
 2242TIP3    H1 6648   3.713   7.302   3.123  2.4552 -2.7714 -0.7858
 2242TIP3    H2 6649   3.785   7.302   3.256  0.6868  0.9801  0.2221
 2243TIP3   OH2 6650   3.283   7.922   1.343 -0.5105  0.5216 -0.2891
 2243TIP3    H1 6651   3.187   7.922   1.335 -0.3906 -0.7085 -1.9281
 2243TIP3    H2 6652   3.306   7.829   1.353  0.4342  0.9056  1.2860
 2244TIP3   OH2 6653   5.924   1.371   4.393  0.6972 -0.0845 -0.1228
 2244TIP3    H1 6654   5.856   1.356   4.458 -0.2019  0.2496 -0.9705
 2244TIP3    H2 6655   5.953   1.461   4.408  1.9517 -0.6870  1.1481
 2245TIP3   OH2 6656   6.387   0.141   2.400  0.1406 -0.1748 -0.0635
 2245TIP3    H1 6657   6.295   0.119   2.381  0.2395 -0.5176 -0.1371
 2245TIP3    H2 6658   6.406   0.098   2.483  0.7218 -1.4492 -0.8428
 2246TIP3   OH2 6659   7.075   0.297   2.469  0.0774  0.3600 -0.4829
 2246TIP3    H1 6660   7.152   0.279   2.523  0.2181  0.1694 -0.7445
 2246TIP3    H2 6661   7.087   0.241   2.392 -0.4200  0.1851 -0.4308
 2247TIP3   OH2 6662   4.178   6.992   3.613 -0.7812 -0.1770  0.1710
 2247TIP3    H1 6663   4.194   7.059   3.546  1.6804  1.1086  1.9434
 2247TIP3    H2 6664   4.089   7.009   3.642 -0.5217  1.7735 -0.0741
 2248TIP3   OH2 6665   1.978   8.215   2.074  0.3272 -0.4405  0.1818
 2248TIP3    H1 6666   2.052   8.172   2.032  0.5397  1.0069 -0.9668
 2248TIP3    H2 6667   1.976   8.178   2.162  2.1831 -0.7796  0.1115
 2249TIP3   OH2 6668   1.734   7.088   1.956 -0.1883 -0.5428 -0.0641
 2249TIP3    H1 6669   1.666   7.057   2.016  0.0244 -1.1735 -0.1399
 2249TIP3    H2 6670   1.690   7.089   1.871 -0.5153  0.4366  0.1149
 2250TIP3   OH2 6671   6.553   2.349   2.778  0.4238  0.9656 -0.6350
 2250TIP3    H1 6672   6.491   2.422   2.785 -0.4893  0.0806  0.6844
 2250TIP3    H2 6673   6.594   2.343   2.864 -1.8265 -2.0684  0.3079
 2251TIP3   OH2 6674   3.981   1.300   2.758 -0.4120 -0.0685  0.4426
 2251TIP3    H1 6675   3.982   1.290   2.853  0.6136 -2.2496  0.2280
 2251TIP3    H2 6676   3.904   1.250   2.730 -1.7542  2.0672  0.2580
 2252TIP3   OH2 6677   2.839   6.190   1.559 -0.4601 -0.7987  0.2838
 2252TIP3    H1 6678   2.806   6.139   1.633 -1.2409  2.2533  2.1208
 2252TIP3    H2 6679   2.935   6.187   1.569 -0.4941 -1.8332  0.3866
 2253TIP3   OH2 6680   4.993   2.403   0.542 -0.5236  0.4250 -0.1291
 2253TIP3    H1 6681   5.020   2.312   0.527 -0.4506  0.6007 -1.0717
 2253TIP3    H2 6682   5.030   2.425   0.628 -1.3419 -0.7408  0.5500
 2254TIP3   OH2 6683   7.829   1.956   4.391  0.0314 -0.0754  0.0512
 2254TIP3    H1 6684   7.796   1.959   4.302  0.5282 -0.3268 -0.1478
 2254TIP3    H2 6685   7.861   2.044   4.409  0.3113 -0.1306 -0.1706
 2255TIP3   OH2 6686   4.578   7.689   1.168 -0.1820  0.5223  0.1626
 2255TIP3    H1 6687   4.515   7.640   1.115  1.1920 -0.1587 -0.8682
 2255TIP3    H2 6688   4.578   7.777   1.130  0.2810  0.2262 -0.5415
 2256TIP3   OH2 6689   2.909   6.665   3.142 -0.5202  0.6058 -0.1994
 2256TIP3    H1 6690   2.929   6.632   3.230  1.8424  0.4752 -0.7612
 2256TIP3    H2 6691   2.956   6.748   3.136  1.1786 -0.4739 -2.1446
 2257TIP3   OH2 6692   4.155   0.791   2.314 -0.4568  0.1009 -0.8130
 2257TIP3    H1 6693   4.238   0.745   2.316 -0.4503  0.1489  0.7976
 2257TIP3    H2 6694   4.089   0.723   2.331 -0.7705  0.0346 -2.2320
 2258TIP3   OH2 6695   0.397   2.234   2.413  0.0199  0.5152 -0.6107
 2258TIP3    H1 6696   0.355   2.167   2.358 -0.9874  0.7208 -0.1041
 2258TIP3    H2 6697   0.327   2.266   2.469  0.7292  1.3041 -0.1666
 2259TIP3   OH2 6698   3.778   6.642   2.957  0.4277  0.3771  0.5777
 2259TIP3    H1 6699   3.717   6.568   2.964  0.7611  0.2265  2.0299
 2259TIP3    H2 6700   3.846   6.611   2.898 -0.6747  0.3963 -0.7285
 2260TIP3   OH2 6701   8.479   0.893   2.788 -0.1777  0.1544 -0.4703
 2260TIP3    H1 6702   8.407   0.955   2.797 -0.9688 -0.6588 -1.0422
 2260TIP3    H2 6703   8.550   0.929   2.841 -1.0925  0.8440  0.2854
 2261TIP3   OH2 6704   6.327   1.285   2.612 -0.1114  0.4485 -0.5254
 2261TIP3    H1 6705   6.414   1.324   2.606  0.0786  0.3184  1.2302
 2261TIP3    H2 6706   6.320   1.229   2.535  2.9354 -2.6508  1.3376
 2262TIP3   OH2 6707   4.918   1.707   1.901  0.5351  0.0526 -0.3637
 2262TIP3    H1 6708   5.007   1.714   1.867  0.1426  2.4146 -0.9563
 2262TIP3    H2 6709   4.917   1.763   1.979 -0.5835  0.5273 -0.7051
 2263TIP3   OH2 6710   4.487   0.628   3.349 -0.0242  0.4385 -0.2703
 2263TIP3    H1 6711   4.394   0.650   3.355  0.1310  0.9559  0.2391
 2263TIP3    H2 6712   4.523   0.690   3.286 -0.2806 -0.6161 -1.4949
 2264TIP3   OH2 6713   5.743   0.071   4.498 -0.1426  0.3014 -0.3342
 2264TIP3    H1 6714   5.741  -0.019   4.528  0.5093  0.7405  1.0356
 2264TIP3    H2 6715   5.716   0.066   4.406 -1.5169 -1.1069  0.1228
 2265TIP3   OH2 6716   6.994   0.987   1.385 -0.1938 -0.3402 -0.2074
 2265TIP3    H1 6717   7.024   0.991   1.476  2.3114  0.7904 -1.0141
 2265TIP3    H2 6718   7.074   0.968   1.335 -1.4094 -0.2726 -2.2182
 2266TIP3   OH2 6719   6.781   1.067   3.011  0.0329  0.3323 -0.3855
 2266TIP3    H1 6720   6.804   1.004   2.943  1.6927 -0.4885  0.8744
 2266TIP3    H2 6721   6.695   1.100   2.986  0.8517  0.4582 -3.1357
 2267TIP3   OH2 6722   7.880   3.807   7.090 -0.0359  0.0643 -0.7088
 2267TIP3    H1 6723   7.838   3.807   7.004 -0.6433 -2.0038 -0.4185
 2267TIP3    H2 6724   7.968   3.772   7.073 -0.0798 -0.1332 -0.5251
 2268TIP3   OH2 6725   4.863   8.365   2.351 -0.2072 -0.5613  0.0120
 2268TIP3    H1 6726   4.816   8.287   2.380 -1.5267 -0.0095 -0.5885
 2268TIP3    H2 6727   4.804   8.407   2.288  1.0563  0.2029 -0.6895
 2269TIP3   OH2 6728   4.158   1.342   1.805  0.3761  0.1790  0.1155
 2269TIP3    H1 6729   4.145   1.389   1.888 -0.9769  1.1877 -0.6404
 2269TIP3    H2 6730   4.140   1.408   1.738  1.3090 -0.6706 -0.9847
 2270TIP3   OH2 6731   6.393   0.228   0.888  0.3427 -0.4072  0.4408
 2270TIP3    H1 6732   6.439   0.159   0.840  1.3824 -0.7079  1.8334
 2270TIP3    H2 6733   6.310   0.188   0.914  0.3365 -0.6684  0.0144
 2271TIP3   OH2 6734   6.224   1.162   1.814 -0.1773 -0.1964  0.0557
 2271TIP3    H1 6735   6.221   1.086   1.755  0.6183 -0.5796  0.5075
 2271TIP3    H2 6736   6.132   1.176   1.839 -0.1870 -1.7975  0.9861
 2272TIP3   OH2 6737   8.038   1.736   3.202  0.0018  0.1264 -0.2198
 2272TIP3    H1 6738   7.950   1.723   3.169 -0.1803 -2.2431  1.1203
 2272TIP3    H2 6739   8.093   1.678   3.150  0.4476  0.0964  0.2712
 2273TIP3   OH2 6740   6.391   1.210   1.592 -0.3660 -0.3375  0.0671
 2273TIP3    H1 6741   6.329   1.208   1.664 -1.0339 -2.7631 -0.5297
 2273TIP3    H2 6742   6.337   1.201   1.513  0.6649 -2.0698 -0.4775
 2274TIP3   OH2 6743   4.876   3.165   1.004  0.0713  0.0915 -0.0758
 2274TIP3    H1 6744   4.880   3.110   0.927  1.0263  0.7243 -0.4970
 2274TIP3    H2 6745   4.963   3.207   1.008 -0.6794  1.6641  0.1408
 2275TIP3   OH2 6746   6.091   1.764   2.510  0.0964 -0.1272  0.6989
 2275TIP3    H1 6747   6.097   1.673   2.539  1.0889  0.4504  2.3408
 2275TIP3    H2 6748   6.066   1.757   2.417 -0.2994 -2.0472  0.9166
 2276TIP3   OH2 6749   7.294   1.171   4.917  0.1982 -0.1888 -0.3584
 2276TIP3    H1 6750   7.292   1.248   4.973  1.3512 -0.6602  0.3467
 2276TIP3    H2 6751   7.387   1.153   4.904 -0.0541 -1.5138 -0.4114
 2277TIP3   OH2 6752   1.143   5.012   6.806  0.7493  0.0384 -0.0518
 2277TIP3    H1 6753   1.086   5.087   6.821 -0.1383 -0.2425 -1.9162
 2277TIP3    H2 6754   1.227   5.037   6.846  0.0306  1.4012  0.6408
 2278TIP3   OH2 6755   7.807   0.238   2.869  0.3811 -0.7859 -0.5243
 2278TIP3    H1 6756   7.821   0.307   2.804  1.6008  0.0082  0.5447
 2278TIP3    H2 6757   7.894   0.203   2.886  0.2061 -0.4682  1.2060
 2279TIP3   OH2 6758   4.320   0.832   0.799 -0.1324 -0.9310  0.1401
 2279TIP3    H1 6759   4.264   0.806   0.725 -2.3328  0.3456  1.3118
 2279TIP3    H2 6760   4.297   0.772   0.869 -0.5979  0.0909  0.8724
 2280TIP3   OH2 6761   3.321   7.653   1.344 -0.2453 -0.2173 -0.0553
 2280TIP3    H1 6762   3.312   7.614   1.258  0.2783 -1.3201  0.3851
 2280TIP3    H2 6763   3.378   7.593   1.393 -0.5865  0.3524  1.0786
 2281TIP3   OH2 6764   6.182  -0.002   3.478  0.3270  0.2068 -0.0537
 2281TIP3    H1 6765   6.095   0.034   3.462 -0.1744 -0.9431  0.0718
 2281TIP3    H2 6766   6.239   0.045   3.417 -0.4780  0.5156 -0.5768
 2282TIP3   OH2 6767   6.777   0.875   0.692  0.0652  0.5304 -0.4806
 2282TIP3    H1 6768   6.867   0.888   0.720  0.3450  0.4679 -1.3134
 2282TIP3    H2 6769   6.725   0.933   0.747  0.3446 -1.1584  1.5971
 2283TIP3   OH2 6770   4.091   7.165   0.826 -0.5361  0.0454  0.2946
 2283TIP3    H1 6771   4.055   7.081   0.854 -2.0847  0.6078 -0.0023
 2283TIP3    H2 6772   4.149   7.190   0.899 -0.2124 -1.1576  0.4800
 2284TIP3   OH2 6773   8.068   0.434   4.441  0.2253  0.7068  0.7474
 2284TIP3    H1 6774   8.123   0.359   4.422 -0.2120 -0.0243  2.3016
 2284TIP3    H2 6775   8.118   0.509   4.407  0.8974 -0.2067 -0.3338
 2285TIP3   OH2 6776   3.458   0.288   0.508  0.3022  0.1826 -0.4260
 2285TIP3    H1 6777   3.493   0.272   0.420  0.1376 -1.4093 -0.2194
 2285TIP3    H2 6778   3.457   0.202   0.549 -1.6504  0.5715  0.3859
 2286TIP3   OH2 6779   1.142   5.252   6.143 -0.0844 -0.5158 -0.3642
 2286TIP3    H1 6780   1.145   5.308   6.065 -0.1645 -2.2751 -1.6590
 2286TIP3    H2 6781   1.071   5.191   6.126  0.6737 -1.6847  0.5532
 2287TIP3   OH2 6782   0.306   0.296   2.834  0.3331 -0.3624  0.2860
 2287TIP3    H1 6783   0.255   0.373   2.806 -0.7563 -0.8354  0.9317
 2287TIP3    H2 6784   0.256   0.221   2.801  0.6946 -0.8355  0.8061
 2288TIP3   OH2 6785   8.161   5.007   7.111  0.1767 -0.1302  0.5192
 2288TIP3    H1 6786   8.070   5.029   7.132  0.1075  0.9259 -0.8501
 2288TIP3    H2 6787   8.157   4.917   7.078 -0.3397 -0.1768  0.7107
 2289TIP3   OH2 6788   4.615   1.127   2.362 -0.4433 -0.2882  0.1584
 2289TIP3    H1 6789   4.684   1.063   2.342 -0.9710 -0.8150  0.0049
 2289TIP3    H2 6790   4.534   1.076   2.360 -0.8706  0.3900  0.0477
 2290TIP3   OH2 6791   8.687   2.281   1.960 -0.0303  0.3138  0.1456
 2290TIP3    H1 6792   8.736   2.272   1.878 -0.3535 -2.1590  0.1967
 2290TIP3    H2 6793   8.746   2.328   2.019  0.8135  0.6855 -0.9860
 2291TIP3   OH2 6794   5.853   0.566   1.168 -0.1266 -0.7176 -0.4087
 2291TIP3    H1 6795   5.939   0.560   1.211 -0.7679 -0.4015  0.9500
 2291TIP3    H2 6796   5.845   0.659   1.145 -0.1786 -0.7064 -0.3476
 2292TIP3   OH2 6797   4.020   7.166   3.405  0.5491  0.5154  0.2371
 2292TIP3    H1 6798   3.939   7.212   3.427  0.3123  0.6881 -0.9238
 2292TIP3    H2 6799   4.087   7.234   3.404  0.5682  0.4987  0.4934
 2293TIP3   OH2 6800   0.985   5.358   7.181 -0.5313 -0.3280 -0.3102
 2293TIP3    H1 6801   1.054   5.387   7.121 -0.3967  1.9817  0.8824
 2293TIP3    H2 6802   1.027   5.356   7.267 -1.8595  0.9857  0.4074
 2294TIP3   OH2 6803   1.999   7.618   3.545  0.0987 -0.0832 -0.3250
 2294TIP3    H1 6804   2.013   7.539   3.596  0.3541  0.8810  1.1306
 2294TIP3    H2 6805   1.904   7.632   3.548  0.0161 -0.5113 -0.8665
 2295TIP3   OH2 6806   1.633   7.548   2.655 -0.3197 -0.1667 -0.1307
 2295TIP3    H1 6807   1.626   7.485   2.584 -3.9083 -1.1623  0.9933
 2295TIP3    H2 6808   1.578   7.622   2.628 -0.6975 -0.0009  1.0325
 2296TIP3   OH2 6809   7.251   1.952   1.304 -0.0689 -0.1904  0.2571
 2296TIP3    H1 6810   7.254   1.862   1.336  0.0484  0.0761  1.0120
 2296TIP3    H2 6811   7.312   1.955   1.231 -0.4278 -0.8386 -0.0721
 2297TIP3   OH2 6812   0.466   2.637   7.111 -0.4171 -0.0560 -0.7779
 2297TIP3    H1 6813   0.420   2.570   7.162  1.2199 -2.5961 -2.5152
 2297TIP3    H2 6814   0.418   2.642   7.028 -1.0902  1.6275 -0.2963
 2298TIP3   OH2 6815   6.724   1.191   4.189 -0.0139  0.3019  0.0478
 2298TIP3    H1 6816   6.639   1.188   4.235 -1.4480 -1.5017 -2.6153
 2298TIP3    H2 6817   6.765   1.107   4.209  0.8141  0.8564  0.6914
 2299TIP3   OH2 6818   2.460   8.375   2.361 -0.6802 -0.3921 -0.1030
 2299TIP3    H1 6819   2.404   8.437   2.315 -1.4363 -0.3839  0.7912
 2299TIP3    H2 6820   2.463   8.298   2.305 -0.2670  0.2141 -0.9130
 2300TIP3   OH2 6821   6.065   0.099   1.766  0.1876  0.1109 -0.7062
 2300TIP3    H1 6822   6.006   0.084   1.692  0.0987  1.7877 -0.9948
 2300TIP3    H2 6823   6.066   0.016   1.813 -0.5464 -0.6631 -2.0311
 2301TIP3   OH2 6824   5.591   0.029   2.040  0.0395  0.6328 -0.4867
 2301TIP3    H1 6825   5.570  -0.061   2.065  0.0431  0.3195 -1.5720
 2301TIP3    H2 6826   5.508   0.075   2.045  0.3020  0.9223  1.4864
 2302TIP3   OH2 6827   7.546   1.374   1.185  0.3050  0.0218  0.1039
 2302TIP3    H1 6828   7.526   1.381   1.092  1.4100 -0.0318 -0.1522
 2302TIP3    H2 6829   7.505   1.451   1.225  0.7987  0.6632 -0.6104
 2303TIP3   OH2 6830   3.038   6.065   1.248 -0.5068 -0.5668  0.0499
 2303TIP3    H1 6831   3.127   6.072   1.282 -0.6423 -1.0953  0.5113
 2303TIP3    H2 6832   3.029   5.973   1.223 -0.5072 -0.2479 -1.1472
 2304TIP3   OH2 6833   6.448   0.394   1.815 -0.4477  0.2216  0.7714
 2304TIP3    H1 6834   6.425   0.485   1.834 -0.2776 -0.0054  2.1307
 2304TIP3    H2 6835   6.382   0.365   1.752  0.3688  1.7193 -0.7802
 2305TIP3   OH2 6836   3.110   7.633   2.155 -0.4576 -0.0092 -0.0831
 2305TIP3    H1 6837   3.151   7.546   2.151  1.3566  0.7472  1.4451
 2305TIP3    H2 6838   3.071   7.638   2.242  1.3692  1.5333  0.6659
 2306TIP3   OH2 6839   3.513   7.587   6.223  0.4704  0.3782  0.7458
 2306TIP3    H1 6840   3.545   7.513   6.170  0.3606  0.3716  0.6899
 2306TIP3    H2 6841   3.579   7.655   6.210  1.5292 -0.3139  2.2105
 2307TIP3   OH2 6842   7.384   0.032   2.451 -0.5140  0.2506  0.2142
 2307TIP3    H1 6843   7.379   0.098   2.521  0.2456 -0.3992  0.8936
 2307TIP3    H2 6844   7.436   0.075   2.382  3.1673 -0.8967  2.1500
 2308TIP3   OH2 6845   5.912   1.303   3.885  0.7471 -0.2534 -0.2545
 2308TIP3    H1 6846   5.965   1.287   3.963  1.5111  1.5672 -0.3920
 2308TIP3    H2 6847   5.915   1.397   3.872  0.8677 -0.5451 -2.6548
 2309TIP3   OH2 6848   6.586   0.200   3.609  0.2394  0.3001 -0.3183
 2309TIP3    H1 6849   6.536   0.242   3.539  1.1668  0.5974 -0.8197
 2309TIP3    H2 6850   6.582   0.263   3.682  2.4283  1.7482 -1.3892
 2310TIP3   OH2 6851   5.391   1.784   0.747  0.5500  0.1800 -0.5387
 2310TIP3    H1 6852   5.450   1.860   0.753 -0.1077  0.5257  1.9871
 2310TIP3    H2 6853   5.303   1.822   0.750  0.2101 -0.6181 -0.4545
 2311TIP3   OH2 6854   2.608   8.111   1.438 -0.1339  0.0171  0.2024
 2311TIP3    H1 6855   2.580   8.199   1.412 -1.5467 -0.7043 -0.8252
 2311TIP3    H2 6856   2.610   8.114   1.533  1.1764  1.5489  0.1596
 2312TIP3   OH2 6857   6.182   1.606   2.887 -0.7443  0.9141  0.1377
 2312TIP3    H1 6858   6.248   1.583   2.952 -1.2158  0.1105  0.3346
 2312TIP3    H2 6859   6.217   1.684   2.844 -0.4950  1.5079  1.4244
 2313TIP3   OH2 6860   3.506   0.766   0.682  0.2438  0.1558 -0.4165
 2313TIP3    H1 6861   3.520   0.694   0.744 -0.0405  0.3308 -0.1479
 2313TIP3    H2 6862   3.496   0.843   0.737  1.8313  0.6150 -0.7479
 2314TIP3   OH2 6863   1.212   0.845   2.138 -0.4918 -0.3887 -0.8327
 2314TIP3    H1 6864   1.247   0.866   2.051  0.0279 -1.7277 -0.9469
 2314TIP3    H2 6865   1.122   0.818   2.121 -0.8404  0.7205 -0.7950
 2315TIP3   OH2 6866   6.353   1.347   3.630  0.5022  0.2399 -0.1612
 2315TIP3    H1 6867   6.284   1.344   3.696  1.1425  1.8189  0.6097
 2315TIP3    H2 6868   6.323   1.289   3.560 -0.4462 -1.0295  1.2740
 2316TIP3   OH2 6869   8.588   1.198   2.982  0.1201  0.0443  0.4154
 2316TIP3    H1 6870   8.567   1.198   3.076 -0.8846 -0.5199  0.2030
 2316TIP3    H2 6871   8.679   1.170   2.978  0.2277  0.2597  1.2440
 2317TIP3   OH2 6872   5.406   5.507   1.922 -0.4794 -0.1533 -0.5843
 2317TIP3    H1 6873   5.480   5.513   1.982 -0.3558 -1.9669 -0.5234
 2317TIP3    H2 6874   5.365   5.594   1.925  0.5096  0.2796  0.8229
 2318TIP3   OH2 6875   8.493   0.353   2.462 -0.1592  0.0179  0.4719
 2318TIP3    H1 6876   8.439   0.343   2.383 -0.8754 -0.2286  0.9825
 2318TIP3    H2 6877   8.490   0.266   2.503 -1.8164  0.8060  2.0497
 2319TIP3   OH2 6878   5.356   7.523   4.648 -0.6591  0.0196 -0.1804
 2319TIP3    H1 6879   5.332   7.491   4.735  0.0742 -1.1025 -0.3719
 2319TIP3    H2 6880   5.280   7.573   4.619 -1.2159 -0.2398  0.7960
 2320TIP3   OH2 6881   6.190   1.301   3.874  0.2823 -0.0020  0.2598
 2320TIP3    H1 6882   6.119   1.238   3.862  0.3074  0.2123 -0.9845
 2320TIP3    H2 6883   6.156   1.383   3.841  1.7554 -0.3060 -2.0907
 2321TIP3   OH2 6884   4.121   7.951   1.994 -0.3036  0.1211  0.1820
 2321TIP3    H1 6885   4.164   7.908   2.068  0.0039  0.4341  0.1866
 2321TIP3    H2 6886   4.077   7.880   1.947 -0.6949 -0.0487  0.7957
 2322TIP3   OH2 6887   1.030   7.337   1.653  0.0971  0.3409  0.2389
 2322TIP3    H1 6888   1.026   7.414   1.710 -0.4518  0.2865  0.2814
 2322TIP3    H2 6889   1.014   7.263   1.711 -1.2940  0.3477 -0.1003
 2323TIP3   OH2 6890   7.475   0.998   3.761 -0.2951  0.6733 -0.0577
 2323TIP3    H1 6891   7.521   1.066   3.712  3.2206 -1.4723  0.1154
 2323TIP3    H2 6892   7.482   0.920   3.707 -0.3085 -0.6441  1.8048
 2324TIP3   OH2 6893   7.238   3.043   2.978 -0.0900 -0.0261  0.3184
 2324TIP3    H1 6894   7.300   3.003   2.917 -0.8661  0.7827 -1.0240
 2324TIP3    H2 6895   7.264   3.135   2.981 -1.5910  0.4553 -0.7578
 2325TIP3   OH2 6896   4.467   6.608   3.421  0.6644 -0.7804  0.1457
 2325TIP3    H1 6897   4.403   6.664   3.376 -1.3175 -1.3225  2.1871
 2325TIP3    H2 6898   4.494   6.544   3.355  1.9610  1.6998 -1.8408
 2326TIP3   OH2 6899   3.463   8.238   4.352  0.1328 -0.4069  0.8275
 2326TIP3    H1 6900   3.550   8.259   4.386  0.7434  1.3051 -1.6776
 2326TIP3    H2 6901   3.467   8.260   4.259 -3.0447 -0.0898  0.7074
 2327TIP3   OH2 6902   2.870   7.540   2.061 -0.3823 -0.1784  0.2165
 2327TIP3    H1 6903   2.894   7.492   1.982 -1.0769 -0.2999  0.0789
 2327TIP3    H2 6904   2.943   7.600   2.076 -0.9019  0.8934 -1.3521
 2328TIP3   OH2 6905   5.813   0.232   3.145  0.1201  0.2604 -0.4379
 2328TIP3    H1 6906   5.893   0.283   3.140 -0.1525  0.5293 -2.5070
 2328TIP3    H2 6907   5.743   0.297   3.136 -0.2577 -0.3237 -1.7424
 2329TIP3   OH2 6908   3.026   8.221   3.108 -0.1859 -0.3887  0.0647
 2329TIP3    H1 6909   2.968   8.153   3.074 -1.2459  0.2583  0.5231
 2329TIP3    H2 6910   3.047   8.275   3.032  0.5190 -1.1302 -0.2675
 2330TIP3   OH2 6911   5.878   1.488   3.163 -0.4784  0.3354  0.3440
 2330TIP3    H1 6912   5.963   1.472   3.204  0.9690  0.7614 -2.3857
 2330TIP3    H2 6913   5.839   1.401   3.155 -0.0102  0.0626  1.0124
 2331TIP3   OH2 6914   2.444   7.310   2.537  0.5727 -0.4825 -0.1671
 2331TIP3    H1 6915   2.407   7.370   2.602 -1.2201  0.8152 -2.3033
 2331TIP3    H2 6916   2.438   7.224   2.578  0.0416  0.3811  1.6220
 2332TIP3   OH2 6917   7.560   1.525   2.617  0.1767 -0.2018  0.0681
 2332TIP3    H1 6918   7.575   1.433   2.595  0.7704 -0.4812  1.6010
 2332TIP3    H2 6919   7.510   1.522   2.699 -0.1398  0.8459 -0.0772
 2333TIP3   OH2 6920   7.733   0.824   4.886  0.0902  0.1733  0.3345
 2333TIP3    H1 6921   7.752   0.918   4.885  0.5624  0.0851  1.1484
 2333TIP3    H2 6922   7.775   0.791   4.806 -1.7091  0.9619 -0.9632
 2334TIP3   OH2 6923   6.281   3.209   2.878 -1.1008  0.0046  0.0387
 2334TIP3    H1 6924   6.232   3.275   2.927 -0.9329 -0.0700  0.3111
 2334TIP3    H2 6925   6.343   3.173   2.942 -3.1481 -2.4546  0.7290
 2335TIP3   OH2 6926   6.191   1.105   3.617 -0.0147 -0.1516  0.3048
 2335TIP3    H1 6927   6.208   1.063   3.701  1.5143  1.6526  0.9269
 2335TIP3    H2 6928   6.272   1.092   3.567 -0.0973  0.7175 -0.0621
 2336TIP3   OH2 6929   4.789   7.543   3.275 -0.1263  0.1668  0.2854
 2336TIP3    H1 6930   4.746   7.626   3.293 -0.4584  0.3148 -1.1660
 2336TIP3    H2 6931   4.878   7.567   3.250 -1.0139  0.3552 -3.0172
 2337TIP3   OH2 6932   7.925   1.733   4.078  0.1872  0.0173 -0.0604
 2337TIP3    H1 6933   8.012   1.758   4.107  0.3856 -0.0513 -0.5820
 2337TIP3    H2 6934   7.879   1.705   4.157  0.8951 -0.6963  0.0946
 2338TIP3   OH2 6935   6.705   0.749   5.384  0.5719 -0.6033  0.3026
 2338TIP3    H1 6936   6.661   0.671   5.418 -1.3793  0.6528  0.7051
 2338TIP3    H2 6937   6.783   0.714   5.339  0.1667 -2.7083  1.1548
 2339TIP3   OH2 6938   5.076   0.692   2.961 -0.4929 -0.5215  0.5415
 2339TIP3    H1 6939   5.000   0.653   2.918 -1.6258 -0.1005  2.1256
 2339TIP3    H2 6940   5.087   0.642   3.041  0.1147  0.2465  0.9453
 2340TIP3   OH2 6941   3.481   8.062   2.790 -0.2441  0.0647  0.3476
 2340TIP3    H1 6942   3.415   7.997   2.767 -1.0390  0.4623  1.4534
 2340TIP3    H2 6943   3.541   8.015   2.848  0.6820 -0.4052 -0.9721
 2341TIP3   OH2 6944   5.152   1.857   1.923 -0.6387  0.0882  0.6273
 2341TIP3    H1 6945   5.174   1.805   2.000 -0.3094  0.5108  0.8224
 2341TIP3    H2 6946   5.086   1.919   1.954 -1.0608 -0.2438  0.3858
 2342TIP3   OH2 6947   5.734   2.506   3.801 -0.3011 -0.8019 -0.1353
 2342TIP3    H1 6948   5.722   2.454   3.881  2.0097 -0.7411  0.2954
 2342TIP3    H2 6949   5.771   2.444   3.738 -1.7022 -0.7373 -1.0480
 2343TIP3   OH2 6950   7.187   1.455   4.187 -0.0347  0.1659  0.4616
 2343TIP3    H1 6951   7.160   1.536   4.145 -2.2671 -0.2280  1.1114
 2343TIP3    H2 6952   7.197   1.477   4.280  3.5298  0.6975  0.0166
 2344TIP3   OH2 6953   4.288   0.149   1.204  0.4092  0.2662 -0.1142
 2344TIP3    H1 6954   4.342   0.224   1.179  0.3030  0.2717 -0.3274
 2344TIP3    H2 6955   4.286   0.151   1.300  2.3935 -0.8499 -0.0189
 2345TIP3   OH2 6956   5.589   0.394   3.175  0.2390 -0.0835 -0.2124
 2345TIP3    H1 6957   5.592   0.456   3.248 -2.0772  0.8928 -0.8903
 2345TIP3    H2 6958   5.546   0.317   3.212  1.6240 -0.6572  0.1982
 2346TIP3   OH2 6959   8.256   0.756   3.512 -0.0894 -0.2094  0.2007
 2346TIP3    H1 6960   8.170   0.758   3.469  0.8960  0.1928 -1.8156
 2346TIP3    H2 6961   8.262   0.669   3.550 -1.1684 -0.4354 -0.1326
 2347TIP3   OH2 6962   7.844   0.957   1.309 -0.8400 -0.2366  0.2478
 2347TIP3    H1 6963   7.826   1.009   1.388 -2.2454 -0.3515  0.0259
 2347TIP3    H2 6964   7.774   0.982   1.248  0.3985  0.0706 -1.0721
 2348TIP3   OH2 6965   8.416   3.064   2.981 -0.3477  0.6593  0.2590
 2348TIP3    H1 6966   8.343   3.010   2.952 -1.3615  2.4633 -0.5928
 2348TIP3    H2 6967   8.378   3.125   3.043  0.9686 -0.1674  1.9264
 2349TIP3   OH2 6968   0.907   2.414   2.427 -0.4596  0.1953  0.0083
 2349TIP3    H1 6969   0.841   2.470   2.385  0.0517 -0.9895 -2.4906
 2349TIP3    H2 6970   0.944   2.363   2.355  1.6629 -0.7257  1.6977
 2350TIP3   OH2 6971   3.963   8.299   2.594 -0.4365  0.2129  0.1752
 2350TIP3    H1 6972   4.020   8.288   2.518 -1.1439 -0.1141 -0.3122
 2350TIP3    H2 6973   3.883   8.339   2.559 -0.9686 -0.4088  0.6704
 2351TIP3   OH2 6974   8.193   0.480   3.230  0.1526 -0.4883 -0.6361
 2351TIP3    H1 6975   8.116   0.437   3.266 -0.9136  1.1019 -0.9768
 2351TIP3    H2 6976   8.193   0.455   3.137 -0.3056 -0.0072 -0.7703
 2352TIP3   OH2 6977   6.932   1.522   2.383 -0.0816  0.3471  0.1378
 2352TIP3    H1 6978   7.011   1.575   2.374 -1.4402  2.2448 -0.9876
 2352TIP3    H2 6979   6.908   1.530   2.475  0.9975 -0.2289  0.4868
 2353TIP3   OH2 6980   5.011   7.453   2.609  0.2734  0.4569  0.1054
 2353TIP3    H1 6981   5.103   7.430   2.624  0.1088  0.1386  0.6123
 2353TIP3    H2 6982   5.016   7.541   2.570  0.9244 -0.6807 -2.4814
 2354TIP3   OH2 6983   3.775   8.257   2.941 -0.3186 -0.9868 -0.0428
 2354TIP3    H1 6984   3.790   8.176   2.990 -0.4378 -1.0227 -0.0657
 2354TIP3    H2 6985   3.854   8.268   2.888  1.1932  0.6921  2.4483
 2355TIP3   OH2 6986   5.382   7.331   4.218  0.0626 -0.5376 -0.4961
 2355TIP3    H1 6987   5.355   7.268   4.151  1.5286 -1.0961 -0.5918
 2355TIP3    H2 6988   5.447   7.386   4.173 -0.7870  0.6932 -0.2490
 2356TIP3   OH2 6989   0.081   0.722   2.279 -0.3548  0.1119 -0.0998
 2356TIP3    H1 6990   0.061   0.638   2.239 -2.4574 -0.2712  1.6746
 2356TIP3    H2 6991   0.003   0.776   2.261 -0.3332  0.6718  1.4109
 2357TIP3   OH2 6992   7.118   0.731   2.111  0.2466  0.4689 -0.0649
 2357TIP3    H1 6993   7.083   0.665   2.050  1.1610  0.0663 -0.1615
 2357TIP3    H2 6994   7.114   0.689   2.197 -0.0739  0.6480  0.0072
 2358TIP3   OH2 6995   0.986   0.438   4.121 -0.4542 -0.6832 -0.2079
 2358TIP3    H1 6996   0.915   0.487   4.163 -0.6838  0.1275 -1.5262
 2358TIP3    H2 6997   1.048   0.505   4.093 -0.3340 -1.2090 -1.2069
 2359TIP3   OH2 6998   5.905   7.894   1.288  0.5399 -0.2452 -0.3002
 2359TIP3    H1 6999   5.825   7.889   1.341  0.6643  1.6481  0.0930
 2359TIP3    H2 7000   5.927   7.987   1.286  2.8668 -0.7630 -0.2147
 2360TIP3   OH2 7001   6.482   2.294   1.892 -0.7131 -0.0829 -0.0189
 2360TIP3    H1 7002   6.529   2.221   1.933 -0.3457  1.0229  1.5444
 2360TIP3    H2 7003   6.406   2.252   1.850 -0.7051 -1.3192  1.1670
 2361TIP3   OH2 7004   7.332   0.213   3.129  0.0613  0.8106 -0.1765
 2361TIP3    H1 7005   7.417   0.174   3.107 -1.0782 -1.9762  0.1785
 2361TIP3    H2 7006   7.329   0.210   3.225 -0.8951 -0.1489 -0.2276
 2362TIP3   OH2 7007   5.763   1.561   0.303  0.1130 -0.5928  0.6318
 2362TIP3    H1 7008   5.739   1.495   0.238 -0.1548  0.9291 -0.8690
 2362TIP3    H2 7009   5.679   1.598   0.331  0.0657 -2.7270  3.5205
 2363TIP3   OH2 7010   5.589   7.768   2.220 -0.3479  0.1299 -0.6462
 2363TIP3    H1 7011   5.493   7.769   2.218 -0.4316 -2.0869  0.3680
 2363TIP3    H2 7012   5.611   7.778   2.312  0.4313  1.1633 -0.9353
 2364TIP3   OH2 7013   5.127   7.443   3.089 -0.6777 -0.2296  0.4587
 2364TIP3    H1 7014   5.062   7.374   3.078 -0.7919 -0.1387  0.5685
 2364TIP3    H2 7015   5.107   7.507   3.021 -0.8819 -0.0603  0.6793
 2365TIP3   OH2 7016   0.273   0.707   2.982  0.3801 -0.1024 -0.2103
 2365TIP3    H1 7017   0.286   0.789   2.934  1.1853 -0.2439 -0.2264
 2365TIP3    H2 7018   0.273   0.734   3.074 -4.3176  0.6520 -0.3024
 2366TIP3   OH2 7019   7.660   0.678   2.618 -0.4085 -0.4714 -0.1967
 2366TIP3    H1 7020   7.596   0.612   2.593  0.5648 -1.3489 -0.4205
 2366TIP3    H2 7021   7.692   0.650   2.704  1.4159 -1.3933 -1.1399
 2367TIP3   OH2 7022   0.794   0.244   3.569 -0.4204  0.3209 -0.3818
 2367TIP3    H1 7023   0.851   0.287   3.633  1.0525 -1.6100 -0.3400
 2367TIP3    H2 7024   0.809   0.291   3.487 -0.7486  1.4825  0.2128
 2368TIP3   OH2 7025   4.925   7.249   1.510  0.0592 -0.0302 -0.2647
 2368TIP3    H1 7026   4.923   7.227   1.417  1.1743  0.5813 -0.4421
 2368TIP3    H2 7027   4.967   7.335   1.514 -1.4432  0.6990  0.6758
 2369TIP3   OH2 7028   7.751   1.014   2.173 -0.2710 -0.2180  0.4324
 2369TIP3    H1 7029   7.716   0.925   2.173  1.2839 -0.8366 -0.1606
 2369TIP3    H2 7030   7.702   1.059   2.243 -2.3396 -1.0027 -0.4678
 2370TIP3   OH2 7031   0.912   4.199   7.043  0.2673 -0.0038  0.0502
 2370TIP3    H1 7032   0.930   4.175   7.134  0.2014 -0.3837 -0.0337
 2370TIP3    H2 7033   0.849   4.133   7.013  0.3103  0.1033 -0.2756
 2371TIP3   OH2 7034   6.530   8.020   1.185 -0.3178  0.1581 -0.7113
 2371TIP3    H1 7035   6.479   8.091   1.148 -1.2792  0.4261  1.0819
 2371TIP3    H2 7036   6.606   8.013   1.127 -0.6141  2.0866 -1.3745
 2372TIP3   OH2 7037   7.108   0.766   2.588  0.2042  0.5374  0.1813
 2372TIP3    H1 7038   7.176   0.747   2.523 -0.0854 -0.8513  0.2763
 2372TIP3    H2 7039   7.026   0.752   2.541 -0.0070 -0.4470  0.8253
 2373TIP3   OH2 7040   6.965   0.269   0.261 -0.1654 -0.1968  0.0881
 2373TIP3    H1 7041   7.002   0.347   0.219  0.9368 -1.5781 -1.5570
 2373TIP3    H2 7042   6.906   0.233   0.196  0.0404 -1.2522  0.4863
 2374TIP3   OH2 7043   0.286   0.467   3.269  0.4508  0.6522  0.3341
 2374TIP3    H1 7044   0.379   0.468   3.292 -0.5074  2.4801  4.8062
 2374TIP3    H2 7045   0.259   0.559   3.274 -1.6298  0.1299 -0.7209
 2375TIP3   OH2 7046   8.845   1.193   3.531  0.8403 -0.3958 -0.4534
 2375TIP3    H1 7047   8.778   1.261   3.521  2.0201  0.9040  0.3240
 2375TIP3    H2 7048   8.928   1.238   3.513  1.8501 -1.0677  2.2557
 2376TIP3   OH2 7049   6.745   0.784   3.949 -0.1200 -0.1296 -0.0662
 2376TIP3    H1 7050   6.794   0.712   3.988 -1.2506 -0.0265  1.6191
 2376TIP3    H2 7051   6.720   0.839   4.024  0.2773  1.7315 -1.2767
 2377TIP3   OH2 7052   7.478   0.570   4.737 -0.4075 -0.3908  0.3868
 2377TIP3    H1 7053   7.452   0.481   4.713 -0.0453 -0.5753  0.6656
 2377TIP3    H2 7054   7.480   0.618   4.655  0.5582 -0.9471  0.0779
 2378TIP3   OH2 7055   7.648   0.911   3.987  0.5555  0.4093  0.0706
 2378TIP3    H1 7056   7.709   0.853   3.943  0.0519 -0.1771  0.1352
 2378TIP3    H2 7057   7.575   0.920   3.925  0.1132  0.0502  0.5356
 2379TIP3   OH2 7058   7.392   8.363   1.881  0.6029  0.5710  0.0576
 2379TIP3    H1 7059   7.321   8.299   1.888 -0.2523  1.4796 -0.1789
 2379TIP3    H2 7060   7.372   8.429   1.947  0.5225  1.4937 -0.8709
 2380TIP3   OH2 7061   7.831   0.456   1.192  0.3373  0.0068 -0.0863
 2380TIP3    H1 7062   7.745   0.463   1.233  0.7212  2.4367  0.3584
 2380TIP3    H2 7063   7.882   0.403   1.253 -0.6193 -0.8133  0.0108
 2381TIP3   OH2 7064   4.203   8.380   1.136  0.1636 -0.4063  0.0585
 2381TIP3    H1 7065   4.271   8.379   1.069  0.2330 -0.3028  0.1270
 2381TIP3    H2 7066   4.196   8.289   1.164  0.7495 -0.3103  0.5307
 2382TIP3   OH2 7067   0.816   1.609   2.347 -0.6766  0.2357  0.0045
 2382TIP3    H1 7068   0.784   1.522   2.322 -0.0502 -0.2739  0.9628
 2382TIP3    H2 7069   0.844   1.599   2.438  0.8826  1.0398 -0.3719
 2383TIP3   OH2 7070   6.110   0.064   2.293 -0.2483  0.0368 -0.2431
 2383TIP3    H1 7071   6.131   0.005   2.221 -3.0347  0.2773 -1.2923
 2383TIP3    H2 7072   6.077   0.006   2.362  0.3842  0.0296  0.0596
 2384TIP3   OH2 7073   1.740   6.817   2.621 -0.1681 -0.4029 -0.0551
 2384TIP3    H1 7074   1.739   6.727   2.588  1.6916 -0.2014 -0.7279
 2384TIP3    H2 7075   1.816   6.857   2.578 -1.6509  1.8324 -0.6703
 2385TIP3   OH2 7076   0.592   1.909   1.922  0.3011 -0.1574 -0.4035
 2385TIP3    H1 7077   0.538   1.836   1.891 -0.1235  0.2480 -0.6158
 2385TIP3    H2 7078   0.658   1.867   1.977 -0.8715 -0.5594  0.7352
 2386TIP3   OH2 7079   8.222   0.301   3.021 -0.6321 -0.1350 -0.5634
 2386TIP3    H1 7080   8.293   0.359   2.993 -1.0922  0.9744  0.5341
 2386TIP3    H2 7081   8.216   0.235   2.951  1.6098 -0.3620 -0.5725
 2387TIP3   OH2 7082   0.982   1.276   2.323 -0.9012  0.3620 -0.5898
 2387TIP3    H1 7083   1.022   1.192   2.300 -1.5325 -0.9294  2.8585
 2387TIP3    H2 7084   0.983   1.325   2.240  0.5769 -2.5412 -2.4046
 2388TIP3   OH2 7085   8.152   0.709   2.062  0.2002  0.3228 -0.3814
 2388TIP3    H1 7086   8.091   0.636   2.074  0.0802  0.2838 -1.1804
 2388TIP3    H2 7087   8.205   0.710   2.142 -1.4769  0.9718  0.7495
 2389TIP3   OH2 7088   6.130   7.571   1.764  0.0075  0.3022  0.2574
 2389TIP3    H1 7089   6.158   7.609   1.681 -0.6388 -0.2508 -0.2160
 2389TIP3    H2 7090   6.116   7.479   1.745 -1.6995  0.4844  0.5956
 2390TIP3   OH2 7091   6.126   2.110   1.996  0.4429  0.6805  0.3049
 2390TIP3    H1 7092   6.164   2.030   1.960 -0.9159 -0.4065  1.2121
 2390TIP3    H2 7093   6.062   2.137   1.930  0.4083  0.6119  0.3090
 2391TIP3   OH2 7094   8.817   0.725   2.534 -0.4936 -0.1161 -0.6770
 2391TIP3    H1 7095   8.738   0.672   2.541  0.0860 -1.2782 -2.5437
 2391TIP3    H2 7096   8.818   0.755   2.443  0.4209  1.1469 -0.2705
 2392TIP3   OH2 7097   1.457   6.238   7.226  0.2334  0.2507  0.2098
 2392TIP3    H1 7098   1.364   6.251   7.244 -0.3464 -1.7769 -1.1682
 2392TIP3    H2 7099   1.463   6.234   7.130  1.4942 -1.2776  0.3291
 2393TIP3   OH2 7100   1.529   6.744   6.319 -0.2888  0.1752  0.4860
 2393TIP3    H1 7101   1.614   6.789   6.322  0.2683 -0.9131  1.3991
 2393TIP3    H2 7102   1.465   6.815   6.320  0.6057  1.0078  0.0137
 2394TIP3   OH2 7103   3.016   7.977   0.261 -0.2800 -0.4089 -0.3524
 2394TIP3    H1 7104   3.066   7.930   0.328  1.1202  0.0685 -1.0419
 2394TIP3    H2 7105   3.055   7.948   0.178 -1.1465 -0.0133 -0.9069
 2395TIP3   OH2 7106   8.828   1.854   3.435 -0.4565  0.1335  0.0976
 2395TIP3    H1 7107   8.920   1.844   3.410  0.1863  3.1629  0.9990
 2395TIP3    H2 7108   8.779   1.820   3.360  1.3788 -0.9646 -0.6472
 2396TIP3   OH2 7109   7.781   2.145   4.802 -0.1661 -0.1868 -0.5360
 2396TIP3    H1 7110   7.840   2.215   4.772 -0.4362  0.7528  1.0810
 2396TIP3    H2 7111   7.695   2.173   4.773 -0.0572 -0.7478 -1.4422
 2397TIP3   OH2 7112   6.971   2.793   2.297  0.1864  0.4589 -0.1497
 2397TIP3    H1 7113   6.922   2.853   2.354  0.6967  1.8865 -1.1993
 2397TIP3    H2 7114   6.908   2.767   2.230  0.1252  0.2232 -0.0048
 2398TIP3   OH2 7115   8.122   2.772   4.045 -0.0052  0.2524 -0.2402
 2398TIP3    H1 7116   8.210   2.802   4.019  0.1820  1.0355  1.2536
 2398TIP3    H2 7117   8.088   2.842   4.100 -0.2274 -1.5369  1.9474
 2399TIP3   OH2 7118   1.026   1.830   4.665 -0.2821  0.2699  0.3081
 2399TIP3    H1 7119   1.080   1.818   4.744  0.4106  0.3018 -0.1545
 2399TIP3    H2 7120   1.080   1.884   4.607 -0.3561 -0.6032 -0.5963
 2400TIP3   OH2 7121   0.332   1.667   3.580  0.9541  0.7330 -0.2634
 2400TIP3    H1 7122   0.336   1.610   3.656 -1.4805 -0.1662 -0.7800
 2400TIP3    H2 7123   0.332   1.607   3.505  0.5539  1.5036 -0.8830
 2401TIP3   OH2 7124   7.433   3.439   2.737  0.0355 -0.2322 -0.7044
 2401TIP3    H1 7125   7.478   3.523   2.735 -0.2706 -0.0684 -0.6721
 2401TIP3    H2 7126   7.502   3.375   2.717  0.3898 -0.0296 -0.1630
 2402TIP3   OH2 7127   3.307   1.514   3.112 -0.1382  0.0362 -0.3477
 2402TIP3    H1 7128   3.396   1.479   3.114 -0.0375  0.3098  2.1026
 2402TIP3    H2 7129   3.309   1.580   3.043  1.8805  0.7471  0.3291
 2403TIP3   OH2 7130   7.980   1.332   2.167 -0.2307  0.1153  0.4148
 2403TIP3    H1 7131   7.928   1.331   2.086 -0.5088 -1.1204  0.6041
 2403TIP3    H2 7132   8.063   1.371   2.140  0.2569 -1.7162 -0.8508
 2404TIP3   OH2 7133   1.083   1.075   3.692  0.2862 -0.4841  0.2377
 2404TIP3    H1 7134   1.053   1.008   3.631  1.1408 -0.8980  0.2643
 2404TIP3    H2 7135   1.159   1.113   3.649  0.2054  0.0086  0.5330
 2405TIP3   OH2 7136   0.445   8.019   3.661 -0.0886 -0.7426  0.2582
 2405TIP3    H1 7137   0.504   7.946   3.644 -0.5965 -0.9664 -0.5882
 2405TIP3    H2 7138   0.380   8.014   3.591 -0.6360 -0.0084  0.7040
 2406TIP3   OH2 7139   8.287   1.238   3.446  0.3046  0.2571  0.1813
 2406TIP3    H1 7140   8.343   1.291   3.389  1.1073 -0.8663 -0.0876
 2406TIP3    H2 7141   8.348   1.187   3.500 -0.4485  0.6293  1.4216
 2407TIP3   OH2 7142   2.035   1.430   4.229 -0.2644 -0.3049  0.3142
 2407TIP3    H1 7143   1.956   1.393   4.268 -0.7462  0.5196  0.1315
 2407TIP3    H2 7144   2.040   1.390   4.142 -0.0513 -0.9395  0.6099
 2408TIP3   OH2 7145   0.600   0.044   3.527  0.2025  0.1668  0.3246
 2408TIP3    H1 7146   0.621  -0.048   3.507  0.2284  0.4130 -0.8101
 2408TIP3    H2 7147   0.686   0.087   3.531  0.1146  0.4467 -0.6903
 2409TIP3   OH2 7148   0.820   0.543   1.868  0.1115  0.3948  0.1472
 2409TIP3    H1 7149   0.806   0.450   1.883  0.1180  0.4668  0.6047
 2409TIP3    H2 7150   0.732   0.579   1.856  0.1992  0.0307 -1.8742
 2410TIP3   OH2 7151   1.784   3.091   2.698  0.3271 -0.5013 -0.0203
 2410TIP3    H1 7152   1.773   3.141   2.617  1.0030 -0.4734 -0.0965
 2410TIP3    H2 7153   1.802   3.002   2.669  1.3376 -0.3373  0.0838
 2411TIP3   OH2 7154   8.641   0.951   4.698 -0.3261 -0.5826 -0.1713
 2411TIP3    H1 7155   8.552   0.976   4.723 -0.4258 -0.6830 -0.4272
 2411TIP3    H2 7156   8.635   0.858   4.679 -0.0181 -0.7384  0.4785
 2412TIP3   OH2 7157   0.542   2.290   2.638  0.2379  0.1852 -0.3713
 2412TIP3    H1 7158   0.578   2.377   2.618 -2.9146  2.1735  2.1032
 2412TIP3    H2 7159   0.489   2.268   2.562 -0.2043  1.1701 -0.3631
 2413TIP3   OH2 7160   1.832   2.368   2.772  1.1509 -0.2025 -0.1395
 2413TIP3    H1 7161   1.745   2.379   2.734  0.4302 -0.6023  1.3700
 2413TIP3    H2 7162   1.852   2.454   2.810  1.2331 -0.2369 -0.1055
 2414TIP3   OH2 7163   4.270   2.462   4.303  0.2276  0.0853  0.1025
 2414TIP3    H1 7164   4.305   2.503   4.382 -1.4124 -0.5146  1.1749
 2414TIP3    H2 7165   4.249   2.535   4.245  0.6967  0.5735  0.5429
 2415TIP3   OH2 7166   2.184   2.458   4.239  0.4481  0.1013  0.2864
 2415TIP3    H1 7167   2.189   2.530   4.176  0.1995  0.8744  1.1263
 2415TIP3    H2 7168   2.130   2.392   4.197  2.2435 -0.4033 -1.2778
 2416TIP3   OH2 7169   2.062   2.499   5.942  0.0850  0.4420  0.2865
 2416TIP3    H1 7170   2.153   2.514   5.968 -0.0390  0.2233  0.8533
 2416TIP3    H2 7171   2.048   2.559   5.868  1.0091 -0.2842 -0.5012
 2417TIP3   OH2 7172   1.534   3.529   3.526  0.1465  0.1265 -0.1124
 2417TIP3    H1 7173   1.448   3.553   3.491 -0.2158 -0.8759  0.0689
 2417TIP3    H2 7174   1.520   3.444   3.567  1.4080 -0.4014 -0.7456
 2418TIP3   OH2 7175   8.712   2.565   5.178 -0.0999 -0.0347 -0.1232
 2418TIP3    H1 7176   8.745   2.625   5.112 -1.6368 -0.2598 -1.1360
 2418TIP3    H2 7177   8.617   2.563   5.162 -0.6524  0.8014  2.8307
 2419TIP3   OH2 7178   7.599   0.193   3.050  0.2484 -0.2904 -0.0193
 2419TIP3    H1 7179   7.625   0.139   3.125 -0.3752 -1.3011 -0.5300
 2419TIP3    H2 7180   7.682   0.218   3.009  0.5221 -1.2984 -0.0866
 2420TIP3   OH2 7181   5.337   8.166   3.522  0.2856 -0.3833  0.0792
 2420TIP3    H1 7182   5.406   8.134   3.581  1.4194  2.8066  0.6123
 2420TIP3    H2 7183   5.256   8.158   3.572  0.9400  0.1462  1.2482
 2421TIP3   OH2 7184   2.838   2.446   4.310  0.3152  0.2955 -0.3107
 2421TIP3    H1 7185   2.816   2.360   4.345 -0.0719  1.1538  1.6099
 2421TIP3    H2 7186   2.765   2.502   4.337  0.7567  1.3227 -1.2068
 2422TIP3   OH2 7187   0.343   0.567   5.389  0.1355  0.4181  0.1301
 2422TIP3    H1 7188   0.296   0.646   5.364  1.2356  1.1687  0.3959
 2422TIP3    H2 7189   0.306   0.498   5.333  0.4411  1.4843 -1.4125
 2423TIP3   OH2 7190   7.384   1.592   2.379 -0.2851 -0.7013  0.6523
 2423TIP3    H1 7191   7.426   1.634   2.454  0.0197 -1.5455  0.9559
 2423TIP3    H2 7192   7.317   1.536   2.418  0.3906 -1.7409  0.3406
 2424TIP3   OH2 7193   8.742   2.591   2.239 -1.1396 -0.6744 -0.7000
 2424TIP3    H1 7194   8.814   2.655   2.238  1.1396 -3.0876  1.4553
 2424TIP3    H2 7195   8.693   2.612   2.319 -1.7730 -0.1645 -1.2205
 2425TIP3   OH2 7196   1.506   3.834   2.148 -0.2719 -0.5039 -0.2488
 2425TIP3    H1 7197   1.581   3.841   2.207 -0.3367 -3.2597  0.2514
 2425TIP3    H2 7198   1.544   3.819   2.062 -0.2272 -0.2966 -0.2650
 2426TIP3   OH2 7199   8.620   0.926   3.827  0.3192  0.3481 -0.0140
 2426TIP3    H1 7200   8.688   0.961   3.884  1.2504 -2.0692  0.4247
 2426TIP3    H2 7201   8.651   0.947   3.738  0.6146  1.0277  0.2443
 2427TIP3   OH2 7202   4.927   7.364   2.142 -0.3320  0.1967 -0.3059
 2427TIP3    H1 7203   4.862   7.429   2.169 -0.6386 -0.4460  0.5297
 2427TIP3    H2 7204   4.978   7.346   2.221  0.0001 -0.2984 -0.6231
 2428TIP3   OH2 7205   4.158   1.156   3.783 -0.4526  0.0556  0.1675
 2428TIP3    H1 7206   4.199   1.210   3.716  0.4772 -0.2306  0.4989
 2428TIP3    H2 7207   4.189   1.192   3.866 -0.2082 -0.6904  0.4013
 2429TIP3   OH2 7208   1.828   2.623   4.144  0.5312 -0.0033  0.1776
 2429TIP3    H1 7209   1.836   2.691   4.211 -2.5170 -1.1565  1.8025
 2429TIP3    H2 7210   1.748   2.646   4.097  1.0525 -0.8748 -1.1696
 2430TIP3   OH2 7211   0.686   1.299   3.233  0.2726 -0.3906  0.2497
 2430TIP3    H1 7212   0.749   1.238   3.272 -1.5161 -0.9297  2.3280
 2430TIP3    H2 7213   0.670   1.364   3.301 -1.2069 -0.0871 -0.3820
 2431TIP3   OH2 7214   2.642   2.854   2.094  0.1166  0.0050  0.2133
 2431TIP3    H1 7215   2.557   2.895   2.080 -0.3436 -1.2645 -0.8540
 2431TIP3    H2 7216   2.696   2.885   2.021  0.5556  0.7325  0.8353
 2432TIP3   OH2 7217   2.248   1.012   2.770  0.1881  0.5178 -0.2345
 2432TIP3    H1 7218   2.183   1.022   2.701  0.4288  0.0426 -0.5347
 2432TIP3    H2 7219   2.227   0.929   2.812 -0.0473  0.8739  0.3650
 2433TIP3   OH2 7220   7.205   8.041   0.974  0.3170 -0.1214  0.7021
 2433TIP3    H1 7221   7.147   8.018   0.902  1.6641 -1.8211  0.1518
 2433TIP3    H2 7222   7.267   8.103   0.936  1.8031 -1.9758  0.0512
 2434TIP3   OH2 7223   7.752   1.679   3.583 -0.2244  0.1260  0.2494
 2434TIP3    H1 7224   7.833   1.709   3.540  0.0793 -0.0151  0.7174
 2434TIP3    H2 7225   7.780   1.652   3.670 -1.2691  3.0346  1.5338
 2435TIP3   OH2 7226   2.903   0.851   6.897 -0.1941  0.8402 -0.7905
 2435TIP3    H1 7227   2.932   0.876   6.809 -0.3306 -0.6983 -1.2950
 2435TIP3    H2 7228   2.809   0.835   6.887 -0.1348  0.2758 -0.4687
 2436TIP3   OH2 7229   1.006   0.760   2.985  0.5291  0.0110 -0.4636
 2436TIP3    H1 7230   1.041   0.790   2.900  0.4150  1.2216 -0.0896
 2436TIP3    H2 7231   0.934   0.820   3.003  1.1872  0.3691  0.9729
 2437TIP3   OH2 7232   3.085   2.383   2.200  0.1322 -0.2807  0.8623
 2437TIP3    H1 7233   3.135   2.444   2.254  1.8321 -0.3683 -0.5815
 2437TIP3    H2 7234   3.008   2.433   2.172  0.5293  0.5729  1.2860
 2438TIP3   OH2 7235   4.839   6.809   2.537  0.1305 -0.4763 -0.0044
 2438TIP3    H1 7236   4.821   6.715   2.531 -0.3237 -0.5118  1.5784
 2438TIP3    H2 7237   4.853   6.825   2.630  0.2833  1.0131 -0.2653
 2439TIP3   OH2 7238   4.630   7.978   3.207  0.1333 -0.3377  0.0090
 2439TIP3    H1 7239   4.607   8.023   3.288 -1.0383  0.0672 -0.5279
 2439TIP3    H2 7240   4.582   7.895   3.211 -0.4992 -0.0096 -0.5757
 2440TIP3   OH2 7241   2.110   2.500   4.889 -0.2525 -0.4225  0.4291
 2440TIP3    H1 7242   2.202   2.514   4.868 -0.2297  1.5294  1.7504
 2440TIP3    H2 7243   2.064   2.524   4.808  0.3935 -1.5594 -0.2862
 2441TIP3   OH2 7244   2.431   0.844   4.599 -0.3221  0.4690  0.0322
 2441TIP3    H1 7245   2.507   0.792   4.572 -0.7369  0.2095 -0.6499
 2441TIP3    H2 7246   2.402   0.887   4.518 -0.3301  1.3176  0.4756
 2442TIP3   OH2 7247   8.078   3.495   4.239 -0.1258 -0.0138 -0.0046
 2442TIP3    H1 7248   8.092   3.550   4.316 -1.1190 -0.7072  0.6838
 2442TIP3    H2 7249   8.158   3.443   4.232  0.0932  0.2720  0.3729
 2443TIP3   OH2 7250   2.730   2.677   2.804  0.2203  0.3040 -0.3235
 2443TIP3    H1 7251   2.768   2.723   2.730  1.9418  0.4078  0.5888
 2443TIP3    H2 7252   2.787   2.699   2.878 -1.6507  0.4884  1.1025
 2444TIP3   OH2 7253   7.578   2.134   2.391 -0.1120  0.4619  0.0327
 2444TIP3    H1 7254   7.661   2.135   2.438  0.7805  0.8162 -1.4974
 2444TIP3    H2 7255   7.528   2.207   2.429  0.1491  0.0573  1.1669
 2445TIP3   OH2 7256   0.839   1.867   4.211 -0.0798 -0.2849  0.2199
 2445TIP3    H1 7257   0.835   1.912   4.295  1.3629 -0.0225  0.1586
 2445TIP3    H2 7258   0.849   1.775   4.234 -0.7629 -0.3348  0.3331
 2446TIP3   OH2 7259   1.968   1.696   1.911 -0.5954  0.2852 -0.2977
 2446TIP3    H1 7260   1.937   1.676   1.999 -0.0385 -2.6056 -0.7370
 2446TIP3    H2 7261   2.055   1.657   1.905 -0.1977  1.3294 -1.8090
 2447TIP3   OH2 7262  -0.005   2.259   5.927  0.0270  0.4463 -0.5063
 2447TIP3    H1 7263  -0.045   2.205   5.994  0.5614  0.2742 -0.3254
 2447TIP3    H2 7264   0.051   2.319   5.975 -0.2323  0.8774 -0.7395
 2448TIP3   OH2 7265   1.570   2.554   3.818  0.2771 -0.3805 -0.3758
 2448TIP3    H1 7266   1.488   2.584   3.779  2.4281  0.4893 -4.5316
 2448TIP3    H2 7267   1.579   2.464   3.787  0.2538 -0.9269  1.1822
 2449TIP3   OH2 7268   7.723   1.225   6.208  0.0773  0.1976  0.9399
 2449TIP3    H1 7269   7.792   1.282   6.241  0.5831  0.2115 -0.1101
 2449TIP3    H2 7270   7.759   1.137   6.213  0.3535  0.2419  0.0105
 2450TIP3   OH2 7271   1.773   1.050   3.031 -0.7392  0.1855 -0.4487
 2450TIP3    H1 7272   1.834   1.088   2.967 -0.3427 -2.5345 -1.7220
 2450TIP3    H2 7273   1.829   1.027   3.105 -0.4353 -0.9365 -1.0166
 2451TIP3   OH2 7274   0.391   2.262   4.546  0.4464 -0.3565 -0.5862
 2451TIP3    H1 7275   0.368   2.272   4.454 -0.6261  0.9086 -0.2045
 2451TIP3    H2 7276   0.314   2.222   4.587  1.4043 -2.0867 -0.4701
 2452TIP3   OH2 7277   8.050   1.080   3.414 -0.4953  0.3989  0.4409
 2452TIP3    H1 7278   8.133   1.125   3.402  1.2404 -2.5349  0.8972
 2452TIP3    H2 7279   7.999   1.100   3.335  0.9299  1.5725 -0.1949
 2453TIP3   OH2 7280   0.525   0.655   4.127 -0.2915  0.3380 -0.4300
 2453TIP3    H1 7281   0.528   0.574   4.076 -0.2616  0.2379 -0.2698
 2453TIP3    H2 7282   0.465   0.711   4.078 -0.8085 -0.0147 -0.2058
 2454TIP3   OH2 7283   1.118   4.107   3.421 -0.0242 -0.1677 -0.1642
 2454TIP3    H1 7284   1.045   4.066   3.467 -1.8462  2.1201 -0.9294
 2454TIP3    H2 7285   1.176   4.138   3.491 -0.7621 -0.3017  0.5172
 2455TIP3   OH2 7286   0.556   2.014   4.635  0.2675 -0.1639 -0.2883
 2455TIP3    H1 7287   0.486   1.958   4.670 -0.9275  1.0829 -0.6282
 2455TIP3    H2 7288   0.509   2.080   4.584  1.7370  0.4791 -0.8107
 2456TIP3   OH2 7289   3.158   3.730   2.165 -0.4469 -0.0949  0.4833
 2456TIP3    H1 7290   3.149   3.742   2.071  1.4990  0.4442  0.3347
 2456TIP3    H2 7291   3.115   3.807   2.203 -2.4711 -1.0211  0.1033
 2457TIP3   OH2 7292   1.515   1.200   0.784 -0.6217  0.0960 -0.3570
 2457TIP3    H1 7293   1.512   1.106   0.766  0.2321 -0.2283  1.1180
 2457TIP3    H2 7294   1.446   1.214   0.848 -0.7762  0.4772 -0.6091
 2458TIP3   OH2 7295   0.415   0.979   4.373 -0.0279 -0.3052  0.0739
 2458TIP3    H1 7296   0.491   0.929   4.403  0.2695  0.5891  0.8632
 2458TIP3    H2 7297   0.352   0.973   4.445  0.7648  2.0153  1.0108
 2459TIP3   OH2 7298   0.360   1.447   3.929 -0.1730  0.1237 -0.2508
 2459TIP3    H1 7299   0.405   1.531   3.936  0.9782 -0.5410  0.6443
 2459TIP3    H2 7300   0.322   1.434   4.016 -0.0051 -0.4544 -0.2631
 2460TIP3   OH2 7301   0.516   2.286   5.029  0.7384  0.0938  0.0559
 2460TIP3    H1 7302   0.600   2.242   5.042 -0.9042 -2.6450  1.9643
 2460TIP3    H2 7303   0.462   2.222   4.984 -0.7831  1.2853  0.1264
 2461TIP3   OH2 7304   2.862   1.241   4.087  0.4050 -0.1750 -0.0108
 2461TIP3    H1 7305   2.866   1.325   4.041  0.1589  0.0699  0.4029
 2461TIP3    H2 7306   2.799   1.189   4.037 -1.1418  0.6949  1.0010
 2462TIP3   OH2 7307   0.809   8.304   5.283 -0.2184  0.2728 -0.2556
 2462TIP3    H1 7308   0.857   8.361   5.223  0.2551  0.5805  0.4027
 2462TIP3    H2 7309   0.856   8.220   5.278  0.3846  0.5616  0.3543
 2463TIP3   OH2 7310   5.488   7.970   5.724  0.1119  0.4075 -0.2446
 2463TIP3    H1 7311   5.529   7.944   5.807 -0.5206  2.6594  0.8020
 2463TIP3    H2 7312   5.395   7.949   5.735  0.1267  0.1272 -0.6275
 2464TIP3   OH2 7313   1.239   0.972   4.043  0.0331  0.0691  0.4447
 2464TIP3    H1 7314   1.152   0.994   4.010 -0.1193 -0.3010  0.5901
 2464TIP3    H2 7315   1.276   0.913   3.977  0.4163  0.7155  0.0833
 2465TIP3   OH2 7316   8.486   1.651   3.685 -0.3371 -0.5515 -0.4223
 2465TIP3    H1 7317   8.421   1.636   3.754 -0.1152 -0.7467 -0.2545
 2465TIP3    H2 7318   8.438   1.696   3.616 -1.0108 -2.0243 -0.9307
 2466TIP3   OH2 7319   7.363   0.264   5.471  0.3231  0.8726 -0.0879
 2466TIP3    H1 7320   7.362   0.345   5.523  0.3452  2.2038 -2.1298
 2466TIP3    H2 7321   7.452   0.259   5.436 -0.0840  0.7277 -1.1230
 2467TIP3   OH2 7322   3.215   1.116   4.881  0.0713  0.7412 -0.0942
 2467TIP3    H1 7323   3.218   1.211   4.886  0.6414  0.6588  1.4519
 2467TIP3    H2 7324   3.294   1.087   4.926 -0.1803 -0.4722 -0.4009
 2468TIP3   OH2 7325   8.411   1.638   6.182 -0.0372 -0.6823 -0.5762
 2468TIP3    H1 7326   8.382   1.548   6.194 -0.2419 -0.3861  1.3341
 2468TIP3    H2 7327   8.506   1.634   6.192  0.0876 -0.8688 -1.7639
 2469TIP3   OH2 7328   8.208   1.969   4.446 -0.3776 -0.1952  0.4115
 2469TIP3    H1 7329   8.186   1.878   4.430  0.7873 -0.4885  0.4326
 2469TIP3    H2 7330   8.193   1.982   4.540 -1.3358 -0.1407  0.2479
 2470TIP3   OH2 7331   2.059   2.232   4.186 -0.6039  0.3716  0.6620
 2470TIP3    H1 7332   2.063   2.247   4.092  0.8360 -0.9570  0.5088
 2470TIP3    H2 7333   1.998   2.158   4.196  0.8964 -0.8961  0.5980
 2471TIP3   OH2 7334   8.597   2.332   4.940  0.4902  0.4215 -0.4642
 2471TIP3    H1 7335   8.630   2.379   4.863 -1.4310  0.8816 -1.0254
 2471TIP3    H2 7336   8.671   2.332   5.000  1.1419  2.5317 -1.1889
 2472TIP3   OH2 7337   1.211   2.696   5.929 -0.2299 -0.9235 -0.5365
 2472TIP3    H1 7338   1.236   2.783   5.896  0.7957 -0.5934  1.0598
 2472TIP3    H2 7339   1.287   2.667   5.979 -0.9852 -2.2945 -0.1765
 2473TIP3   OH2 7340   0.832   3.800   5.906  0.5048 -0.3605 -0.7436
 2473TIP3    H1 7341   0.819   3.825   5.998  0.3216  0.3055 -0.9487
 2473TIP3    H2 7342   0.927   3.791   5.897  0.6932  1.5481 -0.9846
 2474TIP3   OH2 7343   1.248   0.200   5.341  0.0065  0.3135 -0.2753
 2474TIP3    H1 7344   1.289   0.114   5.340  1.5631  1.0146 -4.3319
 2474TIP3    H2 7345   1.313   0.257   5.383 -0.6267 -0.2418  1.5169
 2475TIP3   OH2 7346   6.567   0.395   3.822  0.2910  0.2020 -0.1310
 2475TIP3    H1 7347   6.570   0.488   3.800  0.8078  0.0425 -0.7399
 2475TIP3    H2 7348   6.481   0.383   3.864  0.3788  1.0186  0.2816
 2476TIP3   OH2 7349   1.332   1.933   5.227 -0.4309 -0.4762 -0.0570
 2476TIP3    H1 7350   1.393   1.880   5.277 -1.5441  1.3226  3.3880
 2476TIP3    H2 7351   1.246   1.895   5.245 -0.9634  0.8852  0.3652
 2477TIP3   OH2 7352   1.809   1.600   5.815 -0.0401  0.1463  0.7286
 2477TIP3    H1 7353   1.738   1.631   5.870  1.7713  1.2636  2.5108
 2477TIP3    H2 7354   1.790   1.637   5.728 -1.6842  0.3138  1.1572
 2478TIP3   OH2 7355   7.028   5.248   0.253 -0.4680 -0.1722 -0.0321
 2478TIP3    H1 7356   6.961   5.285   0.195 -1.9195 -0.5708  1.3311
 2478TIP3    H2 7357   6.994   5.264   0.341  1.0371 -0.7828  0.6759
 2479TIP3   OH2 7358   6.842   7.406   6.264 -0.3348 -0.3795  0.3726
 2479TIP3    H1 7359   6.839   7.441   6.353 -1.3203  0.6208 -0.0245
 2479TIP3    H2 7360   6.929   7.430   6.231 -1.3292  2.7636 -0.2440
 2480TIP3   OH2 7361   2.346   0.957   5.485  0.1131 -0.0533 -0.3406
 2480TIP3    H1 7362   2.332   0.894   5.415 -0.0839 -1.6583  1.1288
 2480TIP3    H2 7363   2.315   1.040   5.449 -0.6363 -0.9982 -1.8948
 2481TIP3   OH2 7364   0.093   0.693   4.043  0.1676 -0.2723  0.1655
 2481TIP3    H1 7365   0.093   0.617   4.101 -1.4443  0.8669  1.7255
 2481TIP3    H2 7366   0.163   0.749   4.076 -0.4355  0.1579  0.7212
 2482TIP3   OH2 7367   7.820   0.988   4.356  0.2188  0.1166 -0.1697
 2482TIP3    H1 7368   7.879   1.052   4.397  4.0271 -2.3447 -1.5975
 2482TIP3    H2 7369   7.776   0.946   4.430  2.8080 -0.3573  1.1843
 2483TIP3   OH2 7370   2.614   2.643   6.529 -0.1302  0.1026 -0.0631
 2483TIP3    H1 7371   2.611   2.727   6.573  0.3069 -0.2857  0.7278
 2483TIP3    H2 7372   2.530   2.602   6.548 -0.6773  0.7056 -1.1563
 2484TIP3   OH2 7373   0.736   0.622   3.188  0.3521  0.3923 -0.2354
 2484TIP3    H1 7374   0.714   0.601   3.098 -0.8987 -0.5384  0.2712
 2484TIP3    H2 7375   0.745   0.537   3.232  1.1889  0.8269  0.4642
 2485TIP3   OH2 7376   1.035   2.088   5.287  0.6684 -0.2240 -0.1723
 2485TIP3    H1 7377   1.057   2.149   5.358  0.5627 -0.5313  0.1232
 2485TIP3    H2 7378   1.094   2.113   5.215  0.0168  0.8025 -0.3561
 2486TIP3   OH2 7379   8.522   1.219   3.758  0.5995 -0.3223 -0.2267
 2486TIP3    H1 7380   8.591   1.159   3.786  0.1533 -1.3285 -1.2188
 2486TIP3    H2 7381   8.468   1.232   3.835  2.2420  0.9797  0.7373
 2487TIP3   OH2 7382   8.743   2.213   5.441  0.8409  0.2804  0.0121
 2487TIP3    H1 7383   8.762   2.245   5.530  0.5975  0.5376 -0.0289
 2487TIP3    H2 7384   8.820   2.238   5.390  1.2050 -0.3062  0.2574
 2488TIP3   OH2 7385   2.153   3.526   5.013 -0.0248 -0.2471 -0.0644
 2488TIP3    H1 7386   2.222   3.526   4.947 -0.1079  3.0818 -0.2748
 2488TIP3    H2 7387   2.125   3.618   5.018 -1.7105 -0.8365  2.8418
 2489TIP3   OH2 7388   2.926   1.590   4.570  0.2808  0.0236  0.3986
 2489TIP3    H1 7389   2.920   1.495   4.558  1.1210 -0.2937  2.3218
 2489TIP3    H2 7390   2.946   1.624   4.483  2.2123 -1.7679  0.1126
 2490TIP3   OH2 7391   6.623   8.189   5.045 -0.6796 -0.5727 -0.0846
 2490TIP3    H1 7392   6.698   8.250   5.045 -0.9776 -0.2044 -0.1174
 2490TIP3    H2 7393   6.578   8.208   4.963 -2.5229  1.3122  1.3162
 2491TIP3   OH2 7394   2.547   1.824   2.110 -0.3509  0.2715  0.2326
 2491TIP3    H1 7395   2.465   1.811   2.157 -0.1647 -1.2328  0.1724
 2491TIP3    H2 7396   2.570   1.915   2.127 -0.9431  0.1128  1.9893
 2492TIP3   OH2 7397   0.094   2.635   3.601 -0.3397 -0.1979 -0.1818
 2492TIP3    H1 7398   0.010   2.673   3.628 -0.5372 -0.2231 -0.7597
 2492TIP3    H2 7399   0.111   2.675   3.516  1.0543  1.1013  0.6694
 2493TIP3   OH2 7400   2.897   1.621   4.214  0.6285  0.5246  0.3926
 2493TIP3    H1 7401   2.954   1.572   4.155  0.9484 -1.7416  2.5056
 2493TIP3    H2 7402   2.818   1.638   4.162  1.2066 -0.7357 -0.9452
 2494TIP3   OH2 7403   1.884   0.326   3.721 -0.2364 -0.3724  0.1722
 2494TIP3    H1 7404   1.980   0.331   3.718 -0.2499 -0.4658 -0.3958
 2494TIP3    H2 7405   1.863   0.251   3.666 -0.5920 -0.8371  0.9235
 2495TIP3   OH2 7406   0.646   0.842   4.501 -0.1295  0.1654 -0.1446
 2495TIP3    H1 7407   0.736   0.871   4.514 -0.1602  1.4325 -2.4325
 2495TIP3    H2 7408   0.653   0.747   4.491  1.4767  0.5846 -3.9030
 2496TIP3   OH2 7409   1.776   1.647   4.189 -0.0520 -0.7500 -0.0534
 2496TIP3    H1 7410   1.841   1.601   4.242 -1.4192 -1.1025  1.3682
 2496TIP3    H2 7411   1.800   1.628   4.099  0.9671 -2.0590  0.4807
 2497TIP3   OH2 7412   0.584   1.513   2.684  0.3705 -0.2621  0.1198
 2497TIP3    H1 7413   0.559   1.572   2.756 -0.4350 -0.5726  0.1043
 2497TIP3    H2 7414   0.595   1.428   2.726 -0.6681 -0.5665 -0.2048
 2498TIP3   OH2 7415   8.682   0.681   4.616 -0.1601 -0.0161  0.2142
 2498TIP3    H1 7416   8.704   0.635   4.697  0.2318  1.5948  1.0407
 2498TIP3    H2 7417   8.742   0.645   4.551  1.4987  0.7221  1.2966
 2499TIP3   OH2 7418   2.855   0.525   3.725  0.5134  0.0465 -0.2741
 2499TIP3    H1 7419   2.764   0.515   3.755  0.4549 -0.3217 -0.5740
 2499TIP3    H2 7420   2.847   0.562   3.638  0.6892  1.1829  0.1872
 2500TIP3   OH2 7421   1.934   0.936   5.390  0.2083 -0.4638  0.0894
 2500TIP3    H1 7422   1.899   0.960   5.304  0.0568  0.5140  0.4202
 2500TIP3    H2 7423   2.003   0.873   5.370  0.8490  0.4957 -0.8306
 2501TIP3   OH2 7424   1.186   0.985   3.284 -0.3175 -0.3032 -0.1399
 2501TIP3    H1 7425   1.242   0.908   3.290  1.0984  0.3985 -3.0216
 2501TIP3    H2 7426   1.224   1.047   3.347  0.6552 -0.7302 -0.2927
 2502TIP3   OH2 7427   0.366   1.833   4.875  0.1308  1.0577  0.1297
 2502TIP3    H1 7428   0.296   1.769   4.885 -0.8799  2.1530  0.1577
 2502TIP3    H2 7429   0.390   1.857   4.964  0.4671  0.7694  0.1185
 2503TIP3   OH2 7430   0.553   3.533   5.795  1.1185 -0.0216  0.2480
 2503TIP3    H1 7431   0.526   3.449   5.758  0.4744 -0.5868  1.9472
 2503TIP3    H2 7432   0.472   3.585   5.798  1.3243  0.3077  0.1106
 2504TIP3   OH2 7433   0.765   3.763   3.421  0.2942  0.1058 -0.0923
 2504TIP3    H1 7434   0.819   3.840   3.440  0.8069 -0.7278  1.9321
 2504TIP3    H2 7435   0.791   3.698   3.486 -3.2429 -0.2694  1.0690
 2505TIP3   OH2 7436   2.622   0.064   4.946 -0.2224  0.3160 -0.1111
 2505TIP3    H1 7437   2.709   0.089   4.977 -0.1836 -0.7817  0.7156
 2505TIP3    H2 7438   2.564   0.132   4.979  0.2351  0.7038 -0.1050
 2506TIP3   OH2 7439   0.866   0.346   2.542 -0.0095  0.5975 -0.2353
 2506TIP3    H1 7440   0.846   0.308   2.628  0.0715  1.4337  0.1582
 2506TIP3    H2 7441   0.931   0.286   2.505  0.4597  0.5931  0.5750
 2507TIP3   OH2 7442   7.926   2.655   3.228 -0.3057  0.1250 -0.1055
 2507TIP3    H1 7443   7.989   2.582   3.230 -0.0721  0.2750 -1.4544
 2507TIP3    H2 7444   7.900   2.666   3.319  1.7182  0.1240  0.4947
 2508TIP3   OH2 7445   8.754   4.834   3.420  0.3102  0.1917  0.0153
 2508TIP3    H1 7446   8.728   4.895   3.489  1.6525 -0.2979  0.9781
 2508TIP3    H2 7447   8.774   4.890   3.344  3.1543  1.1551  1.3814
 2509TIP3   OH2 7448   0.834   1.844   3.414 -0.2254  0.0181  0.6109
 2509TIP3    H1 7449   0.842   1.845   3.319  0.3551  0.7608  0.6658
 2509TIP3    H2 7450   0.793   1.759   3.434 -0.2345 -0.1903 -0.2835
 2510TIP3   OH2 7451   2.103   2.945   3.856  0.7570  0.9995  0.1051
 2510TIP3    H1 7452   2.086   2.927   3.948  0.8541  1.2515  0.1714
 2510TIP3    H2 7453   2.154   3.026   3.856  1.0273  0.8316 -0.1497
 2511TIP3   OH2 7454   2.956   2.493   1.222 -0.3066  0.1597  0.0207
 2511TIP3    H1 7455   2.921   2.574   1.187 -1.0990  0.4287  1.4085
 2511TIP3    H2 7456   2.916   2.424   1.169  0.2950  0.6560 -1.0924
 2512TIP3   OH2 7457   0.373   2.309   3.788  0.2789  0.2688  0.1520
 2512TIP3    H1 7458   0.432   2.248   3.833 -1.8861 -1.1889  1.0910
 2512TIP3    H2 7459   0.292   2.259   3.776 -0.5502  2.0058 -1.7415
 2513TIP3   OH2 7460   7.971   1.449   1.876 -0.1568 -0.3177  0.3461
 2513TIP3    H1 7461   8.060   1.449   1.914  0.1443 -0.4714 -0.3562
 2513TIP3    H2 7462   7.985   1.433   1.783 -0.8690  0.5073  0.0936
 2514TIP3   OH2 7463   6.514   8.336   4.603  0.1117 -0.0625  0.3876
 2514TIP3    H1 7464   6.501   8.279   4.679  1.2642  0.2683  0.8373
 2514TIP3    H2 7465   6.512   8.276   4.528  0.2484 -0.5528  0.7697
 2515TIP3   OH2 7466   0.976   2.509   5.134  0.0650 -0.1226  0.3907
 2515TIP3    H1 7467   0.936   2.478   5.053 -0.5071 -2.4680  1.5051
 2515TIP3    H2 7468   1.049   2.448   5.148 -1.4852 -1.4556  3.0056
 2516TIP3   OH2 7469   0.987   0.918   3.472  0.5257 -0.3485 -0.1081
 2516TIP3    H1 7470   1.054   0.928   3.405  1.1836 -0.9034  0.4566
 2516TIP3    H2 7471   0.994   0.827   3.500  0.8846  0.1011  1.3419
 2517TIP3   OH2 7472   2.781   2.775   4.105  0.6278  0.6255  0.2284
 2517TIP3    H1 7473   2.741   2.733   4.181 -1.4376  1.2311 -0.4948
 2517TIP3    H2 7474   2.744   2.729   4.030  1.4496  1.0658 -0.4436
 2518TIP3   OH2 7475   2.173   1.535   5.059  0.2310  0.3453  0.5619
 2518TIP3    H1 7476   2.198   1.527   4.967 -0.7879 -0.6969  0.3736
 2518TIP3    H2 7477   2.097   1.478   5.068  1.3000 -0.8218  2.4228
 2519TIP3   OH2 7478   8.229   2.730   5.842 -0.7598 -0.3744 -1.0343
 2519TIP3    H1 7479   8.319   2.751   5.867 -0.1399 -1.6279 -2.1547
 2519TIP3    H2 7480   8.210   2.788   5.768 -0.9155 -0.0102 -0.7067
 2520TIP3   OH2 7481   1.539   2.111   1.918  0.2397  0.1693 -0.2440
 2520TIP3    H1 7482   1.504   2.126   1.830 -0.3144 -0.2158 -0.0907
 2520TIP3    H2 7483   1.632   2.133   1.911  0.1675  0.2732 -0.8925
 2521TIP3   OH2 7484   2.154   3.256   4.581  0.2785 -0.4247  0.1958
 2521TIP3    H1 7485   2.151   3.240   4.675  0.1959  0.8367  0.4138
 2521TIP3    H2 7486   2.243   3.231   4.555  0.2977 -0.7813  0.6068
 2522TIP3   OH2 7487   8.328   0.387   4.947 -0.0571 -0.0117 -0.5765
 2522TIP3    H1 7488   8.283   0.316   4.902 -0.3898 -0.0528 -0.1874
 2522TIP3    H2 7489   8.269   0.410   5.019  0.1590  0.5009 -0.5641
 2523TIP3   OH2 7490   2.616   3.972   3.309  0.1235 -0.2690  0.4162
 2523TIP3    H1 7491   2.554   3.908   3.272  1.0299 -1.3264  0.6764
 2523TIP3    H2 7492   2.565   4.019   3.375 -0.8912  0.0996 -0.6005
 2524TIP3   OH2 7493   8.170   1.182   0.517  0.3295  0.2761  0.4393
 2524TIP3    H1 7494   8.261   1.155   0.503 -0.2588 -1.6747  0.2835
 2524TIP3    H2 7495   8.142   1.216   0.432  0.9747  1.1045  0.5500
 2525TIP3   OH2 7496   0.772   2.452   4.162  0.4324  0.1707  0.7245
 2525TIP3    H1 7497   0.856   2.409   4.149 -1.4985 -3.0013 -2.2683
 2525TIP3    H2 7498   0.775   2.529   4.104  0.3112 -1.4847 -1.5486
 2526TIP3   OH2 7499   8.674   0.191   3.772 -0.1088  0.4990 -0.6666
 2526TIP3    H1 7500   8.675   0.251   3.698 -0.8494  0.0638 -1.0230
 2526TIP3    H2 7501   8.640   0.109   3.737  1.3761 -0.2931 -0.2975
 2527TIP3   OH2 7502   3.943   0.975   2.702 -0.2687 -0.0161  0.4429
 2527TIP3    H1 7503   3.947   0.900   2.762 -0.0272 -0.4787 -0.1391
 2527TIP3    H2 7504   3.877   1.033   2.739 -1.7253 -1.3415 -0.0272
 2528TIP3   OH2 7505   1.671   1.607   2.766  0.3324 -0.1344 -0.0236
 2528TIP3    H1 7506   1.629   1.663   2.701  1.9387 -0.8580 -1.7270
 2528TIP3    H2 7507   1.662   1.518   2.731  1.5603 -0.4902  0.5170
 2529TIP3   OH2 7508   2.572   1.134   1.386  0.4480  0.1383  0.4018
 2529TIP3    H1 7509   2.500   1.117   1.447 -0.4755  1.0244 -0.4271
 2529TIP3    H2 7510   2.618   1.208   1.423  0.4224  0.1106  0.4889
 2530TIP3   OH2 7511   2.835   0.294   4.363 -0.5774 -0.0648  0.2878
 2530TIP3    H1 7512   2.814   0.354   4.291  0.6882  0.9262  0.7344
 2530TIP3    H2 7513   2.801   0.337   4.441  0.3523  0.0822  0.6136
 2531TIP3   OH2 7514   2.859   3.226   1.539  0.0923  0.6064  0.0198
 2531TIP3    H1 7515   2.887   3.278   1.464 -2.2089  1.2057 -0.4650
 2531TIP3    H2 7516   2.859   3.287   1.613  1.7099  0.1788  0.3892
 2532TIP3   OH2 7517   3.343   1.431   3.992  0.2467 -0.5520 -0.7026
 2532TIP3    H1 7518   3.345   1.352   4.045  0.2444 -0.2616 -0.2650
 2532TIP3    H2 7519   3.371   1.403   3.905 -0.0447 -1.0865 -0.6203
 2533TIP3   OH2 7520   4.415   2.610   3.571 -0.0756  0.0585 -0.6475
 2533TIP3    H1 7521   4.373   2.665   3.637  0.8500  0.9971 -0.8214
 2533TIP3    H2 7522   4.353   2.539   3.556 -1.4601  1.2451 -0.6795
 2534TIP3   OH2 7523   7.620   8.228   3.543  0.1756  0.2294  0.6445
 2534TIP3    H1 7524   7.574   8.286   3.604  1.5972 -0.2753  2.2166
 2534TIP3    H2 7525   7.673   8.171   3.599 -1.3846 -2.8253 -0.8115
 2535TIP3   OH2 7526   3.506   2.033   3.766 -0.0323 -0.3354 -0.8490
 2535TIP3    H1 7527   3.421   2.072   3.745 -0.1309 -0.3593 -0.4947
 2535TIP3    H2 7528   3.546   2.015   3.681  0.4141  1.4230 -1.0451
 2536TIP3   OH2 7529   3.135   0.564   3.415  0.8243  0.9004  0.1590
 2536TIP3    H1 7530   3.142   0.565   3.510  1.7918  1.3434  0.0894
 2536TIP3    H2 7531   3.206   0.507   3.386 -0.1537 -0.1231 -0.2495
 2537TIP3   OH2 7532   3.099   2.372   3.810 -0.7324  0.2171  0.1075
 2537TIP3    H1 7533   3.035   2.417   3.755 -0.9882  0.1439  0.3439
 2537TIP3    H2 7534   3.179   2.424   3.801 -1.0605  0.7966  0.4794
 2538TIP3   OH2 7535   0.245   2.547   3.833 -0.0414 -0.2767 -0.0243
 2538TIP3    H1 7536   0.204   2.559   3.747 -1.0815  0.4812  0.5794
 2538TIP3    H2 7537   0.300   2.469   3.822 -0.5570 -0.4819 -1.2338
 2539TIP3   OH2 7538   3.334   1.780   2.519  0.7197  0.1070  0.2887
 2539TIP3    H1 7539   3.381   1.715   2.466  1.3098  0.8099 -0.0584
 2539TIP3    H2 7540   3.403   1.828   2.565  0.2709  0.3267  0.7291
 2540TIP3   OH2 7541   1.757   0.770   3.980 -0.4612  0.0442  0.1580
 2540TIP3    H1 7542   1.829   0.756   4.041  0.4528  0.6292 -0.7634
 2540TIP3    H2 7543   1.725   0.859   3.999 -0.3344  0.1349 -0.0498
 2541TIP3   OH2 7544   2.602   3.699   3.955  0.4711 -0.0822  0.3974
 2541TIP3    H1 7545   2.618   3.706   3.861  0.8123  0.8657  0.5235
 2541TIP3    H2 7546   2.607   3.605   3.973  1.2566 -0.1980 -0.3822
 2542TIP3   OH2 7547   0.648   0.361   3.975  0.1065 -0.0284  0.0432
 2542TIP3    H1 7548   0.601   0.356   3.891 -1.0350 -0.1559  0.6695
 2542TIP3    H2 7549   0.718   0.297   3.967  1.9408  2.1161 -1.9759
 2543TIP3   OH2 7550   2.138   1.418   3.517  0.2536  0.1826 -0.1005
 2543TIP3    H1 7551   2.117   1.355   3.448  0.1676  0.0533  0.0410
 2543TIP3    H2 7552   2.142   1.503   3.473  1.6123 -0.0835 -0.5048
 2544TIP3   OH2 7553   3.080   1.181   3.820  0.3980 -0.1314 -0.4417
 2544TIP3    H1 7554   3.000   1.176   3.768  0.5540  0.2896 -0.7142
 2544TIP3    H2 7555   3.049   1.200   3.909  0.1698 -0.3437 -0.4758
 2545TIP3   OH2 7556   4.162   1.619   4.292  0.4676 -0.2577  0.6193
 2545TIP3    H1 7557   4.212   1.621   4.210  1.7325 -0.0382  1.3678
 2545TIP3    H2 7558   4.087   1.563   4.273  0.2624  0.5102 -0.9463
 2546TIP3   OH2 7559   3.259   2.987   2.777 -0.5297  0.2840 -0.6147
 2546TIP3    H1 7560   3.315   2.917   2.745 -0.6634 -0.1354  0.0698
 2546TIP3    H2 7561   3.173   2.969   2.739 -1.6217 -2.2893  2.8402
 2547TIP3   OH2 7562   8.407   8.185   4.711 -0.4892  0.1170 -0.1931
 2547TIP3    H1 7563   8.332   8.128   4.727 -0.5493 -0.1299 -1.3343
 2547TIP3    H2 7564   8.422   8.229   4.795 -0.6816 -1.2720  0.5778
 2548TIP3   OH2 7565   5.353   2.520   3.265  0.3031 -0.1099 -0.1685
 2548TIP3    H1 7566   5.327   2.429   3.249  1.1626 -0.1751 -1.2219
 2548TIP3    H2 7567   5.448   2.521   3.252  0.4140  0.7671  0.6549
 2549TIP3   OH2 7568   3.092   3.226   3.913 -0.0752 -0.0543 -0.0917
 2549TIP3    H1 7569   3.183   3.237   3.888  0.2299  0.5585  1.3079
 2549TIP3    H2 7570   3.065   3.146   3.867  1.4024 -0.7233  0.1699
 2550TIP3   OH2 7571   1.377   4.650   2.783  0.6913 -0.4822  0.1365
 2550TIP3    H1 7572   1.300   4.675   2.732  1.1633  0.8950  0.0698
 2550TIP3    H2 7573   1.345   4.589   2.849 -0.6640  1.0251  0.8843
 2551TIP3   OH2 7574   2.793   3.164   2.618 -0.5894  0.2373 -0.1844
 2551TIP3    H1 7575   2.882   3.190   2.641  0.3657 -2.1332 -1.0365
 2551TIP3    H2 7576   2.751   3.143   2.701  0.3999 -0.8888  0.0409
 2552TIP3   OH2 7577   2.389   2.878   5.890  0.2963  0.2590 -0.2401
 2552TIP3    H1 7578   2.471   2.837   5.916  0.0842 -0.5461 -0.8328
 2552TIP3    H2 7579   2.415   2.966   5.862  0.8010  0.4025  0.6437
 2553TIP3   OH2 7580   1.174   3.892   2.465 -0.2326 -0.0540  0.4553
 2553TIP3    H1 7581   1.217   3.899   2.551 -1.6629  1.5684  1.0751
 2553TIP3    H2 7582   1.139   3.804   2.462 -0.1691 -0.1208  1.5434
 2554TIP3   OH2 7583   3.572   3.316   4.339 -0.3241 -0.0315  0.1800
 2554TIP3    H1 7584   3.605   3.237   4.297 -1.2353 -0.2084 -0.2314
 2554TIP3    H2 7585   3.557   3.289   4.430  1.2673  0.2399  0.5313
 2555TIP3   OH2 7586   3.989   3.399   3.724 -0.0957  0.1548 -0.3806
 2555TIP3    H1 7587   3.992   3.304   3.724 -0.1794  0.1028  2.3510
 2555TIP3    H2 7588   3.897   3.421   3.737  0.1998  0.5689  1.0812
 2556TIP3   OH2 7589   1.419   2.300   4.968  0.1114 -0.0675 -0.4467
 2556TIP3    H1 7590   1.390   2.264   4.885 -0.8957 -0.2987  0.0024
 2556TIP3    H2 7591   1.481   2.369   4.945 -0.1079 -0.1840 -1.3778
 2557TIP3   OH2 7592   3.931   2.377   3.616 -0.1838  0.1119 -0.8082
 2557TIP3    H1 7593   3.905   2.330   3.695 -1.4179  1.9465 -0.1120
 2557TIP3    H2 7594   3.874   2.454   3.613  1.4812  1.3316 -2.1768
 2558TIP3   OH2 7595   3.673   0.926   3.968 -0.2137 -0.3053 -0.0173
 2558TIP3    H1 7596   3.686   0.837   3.935 -0.0815  0.3289 -1.7293
 2558TIP3    H2 7597   3.755   0.971   3.948 -0.7794  0.5635 -0.4295
 2559TIP3   OH2 7598   1.260   1.727   3.508  0.3000 -0.3622 -0.3331
 2559TIP3    H1 7599   1.255   1.662   3.578  0.2946 -0.4169 -0.3841
 2559TIP3    H2 7600   1.353   1.726   3.482  0.1886 -0.7706 -0.7319
 2560TIP3   OH2 7601   3.132   1.185   6.063  0.1595  0.1136  0.1620
 2560TIP3    H1 7602   3.151   1.198   6.156  1.2892  0.0863 -0.0517
 2560TIP3    H2 7603   3.066   1.116   6.060  0.0623  0.1771  0.9432
 2561TIP3   OH2 7604   2.220   1.249   2.513  0.0125 -0.3677  0.4138
 2561TIP3    H1 7605   2.312   1.225   2.514  0.0424 -0.2548  0.8899
 2561TIP3    H2 7606   2.220   1.343   2.534 -0.1653 -0.1959 -0.3375
 2562TIP3   OH2 7607   8.541   6.801   0.682 -0.1956 -0.6001  0.4045
 2562TIP3    H1 7608   8.617   6.744   0.691 -0.2842 -0.8195 -0.2542
 2562TIP3    H2 7609   8.574   6.888   0.703  0.3974 -0.5862 -0.5944
 2563TIP3   OH2 7610   3.472   0.847   1.796  0.6434  0.0735  0.1006
 2563TIP3    H1 7611   3.435   0.894   1.722 -0.4427 -0.5811  0.2131
 2563TIP3    H2 7612   3.497   0.915   1.859 -1.8854  0.4684  0.7172
 2564TIP3   OH2 7613   3.095   2.658   2.972 -0.4217 -0.7360 -0.4153
 2564TIP3    H1 7614   3.011   2.691   3.004 -0.3976 -0.7395 -0.3493
 2564TIP3    H2 7615   3.158   2.684   3.039 -0.1573  0.4375 -1.1085
 2565TIP3   OH2 7616   0.360   2.500   4.358 -0.9042 -0.3506  0.3185
 2565TIP3    H1 7617   0.447   2.461   4.372  0.1085  1.3090 -1.0257
 2565TIP3    H2 7618   0.347   2.496   4.263 -0.4974  2.9759  0.0519
 2566TIP3   OH2 7619   1.286   3.414   2.849 -0.5112 -0.2592 -0.3806
 2566TIP3    H1 7620   1.278   3.403   2.944  0.1068  1.2610 -0.1435
 2566TIP3    H2 7621   1.380   3.407   2.832 -0.6258 -0.5689 -0.8853
 2567TIP3   OH2 7622   2.169   4.018   3.920 -0.3963  0.4183  0.3743
 2567TIP3    H1 7623   2.169   4.082   3.849 -1.7293  0.7670  0.6677
 2567TIP3    H2 7624   2.161   3.933   3.876 -4.3468  0.8045  0.1821
 2568TIP3   OH2 7625   1.537   2.866   2.837 -0.0274 -0.1263  0.7441
 2568TIP3    H1 7626   1.467   2.850   2.773  0.5825 -1.3327  0.3634
 2568TIP3    H2 7627   1.573   2.952   2.813  1.0211 -1.1072 -1.3206
 2569TIP3   OH2 7628   3.144   2.744   2.024 -0.4969  0.1866  0.5236
 2569TIP3    H1 7629   3.123   2.803   1.952 -1.1588 -0.7110 -0.0317
 2569TIP3    H2 7630   3.133   2.656   1.987  0.3662 -0.2902  1.3632
 2570TIP3   OH2 7631   3.484   2.759   5.095 -0.2675  0.2382 -0.2836
 2570TIP3    H1 7632   3.545   2.746   5.022 -2.3215 -0.8989 -1.8316
 2570TIP3    H2 7633   3.454   2.849   5.085  0.5454  0.5507  0.0258
 2571TIP3   OH2 7634   3.856   1.792   5.883  0.2649 -0.1849 -0.4169
 2571TIP3    H1 7635   3.866   1.838   5.800  1.0502  2.1874  0.9430
 2571TIP3    H2 7636   3.934   1.737   5.890  0.3625 -0.1335 -1.0749
 2572TIP3   OH2 7637   1.636   2.104   1.061 -0.1183  0.0859  0.4393
 2572TIP3    H1 7638   1.672   2.025   1.021 -0.3528  0.9982 -1.6289
 2572TIP3    H2 7639   1.584   2.072   1.135 -0.5421 -1.7359 -0.6084
 2573TIP3   OH2 7640   2.294   1.234   2.923  0.5933  0.1463 -0.2140
 2573TIP3    H1 7641   2.207   1.272   2.918  0.5232 -0.1004 -0.9729
 2573TIP3    H2 7642   2.287   1.153   2.872  0.7049 -0.9329  1.4681
 2574TIP3   OH2 7643   1.091   2.020   3.093  0.1306  0.1848  0.1476
 2574TIP3    H1 7644   1.095   2.024   2.997 -0.8115  0.8411  0.1381
 2574TIP3    H2 7645   1.123   2.106   3.121 -1.3353  0.6642  0.3756
 2575TIP3   OH2 7646   2.633   2.426   2.537  0.9103  0.0689 -0.6892
 2575TIP3    H1 7647   2.580   2.351   2.511 -1.1407  1.3708 -0.4235
 2575TIP3    H2 7648   2.608   2.442   2.629  1.5585  0.8718 -0.6454
 2576TIP3   OH2 7649   7.868   8.120   1.430 -0.0551  0.2275 -0.4736
 2576TIP3    H1 7650   7.851   8.070   1.350 -1.4682 -0.9825  0.5507
 2576TIP3    H2 7651   7.917   8.059   1.486 -0.6472  0.4355  0.2781
 2577TIP3   OH2 7652   2.245   1.834   2.931  0.0056  0.0313 -0.2183
 2577TIP3    H1 7653   2.226   1.745   2.903 -0.2998  0.3354 -0.9942
 2577TIP3    H2 7654   2.236   1.887   2.852  3.0643  0.3586 -0.4201
 2578TIP3   OH2 7655   7.467   7.928   3.754 -0.1401 -0.0815  0.3862
 2578TIP3    H1 7656   7.393   7.988   3.766  0.7606  1.2454 -0.5176
 2578TIP3    H2 7657   7.438   7.845   3.792 -1.0466  1.1997  2.5528
 2579TIP3   OH2 7658   2.035   0.904   0.889 -0.2338  0.6087  0.1132
 2579TIP3    H1 7659   2.014   0.988   0.849  0.0487  0.1890 -0.9572
 2579TIP3    H2 7660   2.088   0.859   0.822 -0.5586 -0.4895  0.5910
 2580TIP3   OH2 7661   3.320   1.056   4.420 -0.6956  0.6728 -0.0970
 2580TIP3    H1 7662   3.384   1.032   4.487  0.8802  2.1403 -1.0507
 2580TIP3    H2 7663   3.239   1.071   4.468 -0.6463 -2.2074  1.0286
 2581TIP3   OH2 7664   3.185   0.799   2.665 -0.3530 -0.2400  0.5880
 2581TIP3    H1 7665   3.241   0.736   2.619  0.8304  0.2213  1.3737
 2581TIP3    H2 7666   3.120   0.745   2.710 -0.2806 -0.8014  0.0264
 2582TIP3   OH2 7667   3.260   1.649   4.519  0.0285 -0.0396  0.2232
 2582TIP3    H1 7668   3.177   1.652   4.471 -0.8074  0.4223  1.6509
 2582TIP3    H2 7669   3.264   1.561   4.556  0.1227 -0.0187  0.2637
 2583TIP3   OH2 7670   4.111   0.690   2.773 -0.1142 -0.0751  0.0113
 2583TIP3    H1 7671   4.158   0.611   2.746 -1.0255 -0.1370 -1.4839
 2583TIP3    H2 7672   4.159   0.762   2.732 -0.1552  0.0174  0.1253
 2584TIP3   OH2 7673   2.286   1.796   3.213  0.4581 -0.7676  0.3134
 2584TIP3    H1 7674   2.261   1.826   3.126 -1.1392 -1.1650  0.6043
 2584TIP3    H2 7675   2.359   1.852   3.238 -1.4807  1.9038  0.2498
 2585TIP3   OH2 7676   3.567   1.049   4.196  0.2302  0.0767 -0.4082
 2585TIP3    H1 7677   3.606   1.018   4.115 -0.1597 -1.9789  0.1554
 2585TIP3    H2 7678   3.512   0.976   4.226 -1.4057  1.6429  0.5342
 2586TIP3   OH2 7679   3.473   1.384   3.343  0.0481  1.3834  0.1390
 2586TIP3    H1 7680   3.397   1.357   3.395  1.1497  1.0322  1.6190
 2586TIP3    H2 7681   3.544   1.329   3.375  1.2919  2.8295 -0.0765
 2587TIP3   OH2 7682   1.582   1.955   2.881  0.1751  0.1493  0.3286
 2587TIP3    H1 7683   1.535   2.032   2.851  0.1745  0.2940  0.6963
 2587TIP3    H2 7684   1.568   1.889   2.812  0.5923  0.6344 -0.2258
 2588TIP3   OH2 7685   2.600   2.123   3.531  0.0350 -0.0227 -0.3997
 2588TIP3    H1 7686   2.570   2.056   3.470  0.3808 -1.0287  0.5230
 2588TIP3    H2 7687   2.631   2.194   3.475  1.2424 -1.3330 -1.4219
 2589TIP3   OH2 7688   3.813   3.428   6.390 -0.0556  0.1165 -0.0152
 2589TIP3    H1 7689   3.906   3.409   6.377 -0.2903 -1.9657  1.2026
 2589TIP3    H2 7690   3.788   3.478   6.313  1.4649 -1.5340 -1.6122
 2590TIP3   OH2 7691   8.303   0.519   3.567 -0.1206  0.0448 -0.0291
 2590TIP3    H1 7692   8.386   0.490   3.603  0.6217 -0.5687 -2.1402
 2590TIP3    H2 7693   8.261   0.438   3.536 -0.1336  0.6758 -1.6951
 2591TIP3   OH2 7694   1.805   4.386   3.491  0.7603  0.8431  0.0456
 2591TIP3    H1 7695   1.885   4.425   3.528  1.9346 -0.5258 -0.9930
 2591TIP3    H2 7696   1.814   4.292   3.509 -1.2610  0.8127  1.0716
 2592TIP3   OH2 7697   3.311   2.305   3.483  0.3773 -0.5827 -0.0017
 2592TIP3    H1 7698   3.275   2.230   3.435 -0.1966  0.9970 -2.0705
 2592TIP3    H2 7699   3.358   2.356   3.417  1.2971  0.5701  1.5105
 2593TIP3   OH2 7700   2.673   3.362   3.630  0.6873  0.3297 -0.0196
 2593TIP3    H1 7701   2.682   3.417   3.552  0.1388  0.1651 -0.2048
 2593TIP3    H2 7702   2.744   3.298   3.623  0.9589  0.6422 -0.1136
 2594TIP3   OH2 7703   1.646   1.356   4.698  0.1506  0.1900  0.5325
 2594TIP3    H1 7704   1.592   1.282   4.726  0.1567  0.1906  0.5459
 2594TIP3    H2 7705   1.698   1.379   4.775 -0.4813  0.7695  0.7818
 2595TIP3   OH2 7706   2.853   0.923   3.543  0.2280 -0.4106 -0.2808
 2595TIP3    H1 7707   2.773   0.958   3.581  0.1610 -1.2229  0.3448
 2595TIP3    H2 7708   2.901   1.000   3.512 -0.9963  0.0638 -1.0830
 2596TIP3   OH2 7709   3.249   0.572   3.709  0.0606  0.2362 -0.2088
 2596TIP3    H1 7710   3.167   0.616   3.733 -0.2390  0.2883 -1.3070
 2596TIP3    H2 7711   3.300   0.572   3.790  0.2387  3.0048 -0.2863
 2597TIP3   OH2 7712   2.328   0.575   2.057  0.0619 -0.7006  0.1193
 2597TIP3    H1 7713   2.313   0.489   2.018 -0.2830 -0.9385  0.7658
 2597TIP3    H2 7714   2.346   0.556   2.149 -1.0296 -0.0107  0.4790
 2598TIP3   OH2 7715   2.024   0.884   1.546 -0.5189  0.5444  0.5409
 2598TIP3    H1 7716   1.952   0.841   1.592  0.4006  0.3922  1.8556
 2598TIP3    H2 7717   2.059   0.817   1.488  0.5561 -0.3317  2.1786
 2599TIP3   OH2 7718   4.162   2.528   3.853 -0.2995 -0.0412 -0.3771
 2599TIP3    H1 7719   4.067   2.533   3.849 -0.3420  1.0230  1.5453
 2599TIP3    H2 7720   4.184   2.451   3.801 -2.2562 -0.7034 -0.2560
 2600TIP3   OH2 7721   2.144   1.631   3.373  0.2399 -0.2798  0.3856
 2600TIP3    H1 7722   2.186   1.700   3.321 -0.5706  0.0993  0.2365
 2600TIP3    H2 7723   2.073   1.600   3.318 -0.7493  0.2542  1.3450
 2601TIP3   OH2 7724   1.984   0.997   4.149  0.1385  0.5413 -0.1002
 2601TIP3    H1 7725   1.967   1.029   4.237 -0.0923 -1.8856  0.7863
 2601TIP3    H2 7726   1.910   1.028   4.097  0.4680  2.3051  0.4506
 2602TIP3   OH2 7727   0.313   0.721   4.737 -0.2400  0.1324  0.0492
 2602TIP3    H1 7728   0.262   0.671   4.801  0.6507 -1.4501 -0.4675
 2602TIP3    H2 7729   0.260   0.718   4.657  0.3642 -0.9745 -0.3096
 2603TIP3   OH2 7730   3.699   1.725   4.017  0.0758 -0.5784  0.1200
 2603TIP3    H1 7731   3.713   1.720   4.111 -0.0951  0.5872  0.2232
 2603TIP3    H2 7732   3.784   1.706   3.978  0.0321 -1.5366  0.4934
 2604TIP3   OH2 7733   3.613   1.124   1.349 -0.1384  0.5506 -0.0660
 2604TIP3    H1 7734   3.649   1.056   1.407 -0.7005 -0.2277 -0.6255
 2604TIP3    H2 7735   3.640   1.206   1.390 -2.6668  0.0528  2.7143
 2605TIP3   OH2 7736   5.227   2.443   4.185  0.1846  0.0064 -0.6206
 2605TIP3    H1 7737   5.255   2.354   4.163  0.8611  0.4259 -1.4876
 2605TIP3    H2 7738   5.235   2.448   4.281 -0.0574 -0.9334 -0.5546
 2606TIP3   OH2 7739   1.668   1.429   1.550 -0.2086 -0.2705 -0.2666
 2606TIP3    H1 7740   1.733   1.362   1.570 -1.3194 -1.3801 -0.2907
 2606TIP3    H2 7741   1.649   1.471   1.634  0.5903  0.1106 -0.2739
 2607TIP3   OH2 7742   5.261   3.795   4.481  0.1594  0.1300  0.4483
 2607TIP3    H1 7743   5.187   3.811   4.423 -1.2051  0.5497  2.2467
 2607TIP3    H2 7744   5.284   3.882   4.514 -0.5144 -0.3280  2.2056
 2608TIP3   OH2 7745   2.439   1.987   3.737  0.1380  0.4212  0.1944
 2608TIP3    H1 7746   2.503   2.036   3.687  0.1833 -0.9867 -1.1523
 2608TIP3    H2 7747   2.365   1.975   3.678  0.3187 -1.5283  0.3115
 2609TIP3   OH2 7748   1.475   1.742   1.636 -0.4257  0.0624  0.5179
 2609TIP3    H1 7749   1.517   1.687   1.702  0.4918  0.7973  0.5568
 2609TIP3    H2 7750   1.478   1.690   1.556  0.4540  0.0402  0.5525
 2610TIP3   OH2 7751   4.170   2.976   6.342 -0.2343  0.1065 -0.4623
 2610TIP3    H1 7752   4.196   3.056   6.297  0.7788 -0.2627 -0.5525
 2610TIP3    H2 7753   4.091   3.000   6.390 -0.6907  0.8020 -1.5393
 2611TIP3   OH2 7754   2.348   3.609   3.396  0.2002  0.2225  0.4005
 2611TIP3    H1 7755   2.388   3.559   3.467  4.3292  0.9946 -1.2322
 2611TIP3    H2 7756   2.282   3.550   3.359 -0.4391 -1.0194  3.4193
 2612TIP3   OH2 7757   6.678   1.808   4.166  0.1608 -0.6770  0.1641
 2612TIP3    H1 7758   6.613   1.741   4.188  0.3762 -0.4334  1.5345
 2612TIP3    H2 7759   6.667   1.876   4.232  0.4361  0.3265 -0.7950
 2613TIP3   OH2 7760   1.460   1.124   4.110 -0.2874 -0.4341 -0.4457
 2613TIP3    H1 7761   1.395   1.054   4.103 -0.7850  0.2188 -2.3534
 2613TIP3    H2 7762   1.413   1.203   4.085  0.2246  0.6564  1.8884
 2614TIP3   OH2 7763   2.400   1.395   3.547 -0.0351 -0.2265  0.1784
 2614TIP3    H1 7764   2.306   1.379   3.541  0.0212 -0.7276  0.6582
 2614TIP3    H2 7765   2.431   1.335   3.614  0.8907 -1.1697 -1.0677
 2615TIP3   OH2 7766   2.003   3.691   1.530  0.1375 -0.6207 -0.6078
 2615TIP3    H1 7767   1.974   3.733   1.611 -0.6502 -1.4523 -0.4525
 2615TIP3    H2 7768   2.098   3.681   1.541 -0.0323 -1.1824  0.4227
 2616TIP3   OH2 7769   2.616   0.662   4.406 -0.3130 -0.4769 -0.0076
 2616TIP3    H1 7770   2.588   0.748   4.376 -0.8094 -0.8894 -0.7273
 2616TIP3    H2 7771   2.693   0.641   4.352 -0.5559 -0.7487 -0.2472
 2617TIP3   OH2 7772   2.819   2.872   2.282 -0.0222 -0.0914  0.2601
 2617TIP3    H1 7773   2.853   2.783   2.278 -0.1310 -0.0742 -1.8955
 2617TIP3    H2 7774   2.754   2.876   2.212 -0.4369  1.5075  0.7118
 2618TIP3   OH2 7775   1.003   1.172   2.604  0.4247 -0.8219 -0.3838
 2618TIP3    H1 7776   1.023   1.254   2.650  1.9072 -1.7675  0.7276
 2618TIP3    H2 7777   0.987   1.198   2.514 -1.5867  0.9809  0.4296
 2619TIP3   OH2 7778   1.713   2.616   0.903  0.0953 -0.6875 -0.0179
 2619TIP3    H1 7779   1.689   2.601   0.994  0.0733 -0.4186  0.0230
 2619TIP3    H2 7780   1.808   2.601   0.900  0.7064  2.5477  0.7877
 2620TIP3   OH2 7781   2.257   4.158   4.334 -0.4006 -0.5796 -0.1584
 2620TIP3    H1 7782   2.349   4.187   4.335 -0.5889  0.1048 -1.2563
 2620TIP3    H2 7783   2.220   4.194   4.415 -0.2574  1.0706 -0.7914
 2621TIP3   OH2 7784   1.807   1.741   1.683 -0.4639  0.2760  0.0197
 2621TIP3    H1 7785   1.784   1.833   1.692  3.5073  1.3411  0.0429
 2621TIP3    H2 7786   1.848   1.717   1.766 -1.1146 -1.4225 -0.1153
 2622TIP3   OH2 7787   4.006   0.999   4.219  0.1832  0.5509  0.0841
 2622TIP3    H1 7788   3.955   1.068   4.261 -0.5042 -0.1276  0.3907
 2622TIP3    H2 7789   4.013   0.931   4.286 -0.2149 -0.1889 -0.6187
 2623TIP3   OH2 7790   7.308   7.515   2.202  0.2081  0.0385 -0.6193
 2623TIP3    H1 7791   7.342   7.488   2.116 -0.3761 -0.5141 -0.6825
 2623TIP3    H2 7792   7.294   7.432   2.248 -1.9568  0.2160 -0.9404
 2624TIP3   OH2 7793   3.404   2.589   0.877  0.0504 -0.2889  0.7637
 2624TIP3    H1 7794   3.459   2.559   0.949  1.0998 -1.4823 -0.5220
 2624TIP3    H2 7795   3.447   2.668   0.844  1.2008 -1.3962 -0.4436
 2625TIP3   OH2 7796   3.331   2.446   3.060  0.0912  0.4285  0.3090
 2625TIP3    H1 7797   3.310   2.411   2.974 -0.6187  0.0546  0.6379
 2625TIP3    H2 7798   3.295   2.535   3.058 -2.2172 -0.4475  1.1274
 2626TIP3   OH2 7799   1.104   0.575   2.399  0.0165  0.5826  0.1296
 2626TIP3    H1 7800   1.186   0.611   2.364 -1.3477  2.5202 -1.1519
 2626TIP3    H2 7801   1.117   0.577   2.494  1.2439  1.4029 -0.0400
 2627TIP3   OH2 7802   2.733   3.690   3.693 -0.0153 -0.0226  0.3236
 2627TIP3    H1 7803   2.803   3.643   3.738 -0.1076  0.9799  1.5269
 2627TIP3    H2 7804   2.710   3.633   3.619  0.7754 -1.2436  0.9993
 2628TIP3   OH2 7805   1.508   2.966   3.451 -0.0407  0.3288  0.1515
 2628TIP3    H1 7806   1.453   2.987   3.526 -1.0050  1.1246 -0.7670
 2628TIP3    H2 7807   1.526   2.872   3.460  0.3660  0.5460  1.6980
 2629TIP3   OH2 7808   3.198   0.230   1.936 -0.3008 -0.5103  0.2524
 2629TIP3    H1 7809   3.229   0.166   1.872  2.6703 -0.2758  1.3603
 2629TIP3    H2 7810   3.203   0.184   2.020 -0.1795  0.4692  0.7943
 2630TIP3   OH2 7811   2.263   1.240   4.122 -0.4900  0.0383 -0.0741
 2630TIP3    H1 7812   2.261   1.309   4.189  1.3785  0.9565 -0.9102
 2630TIP3    H2 7813   2.200   1.268   4.056  1.1908  1.6897 -1.0528
 2631TIP3   OH2 7814   2.998   0.966   2.291  0.0599  0.7419 -0.3171
 2631TIP3    H1 7815   3.012   1.044   2.237  0.1191 -0.6784 -2.4447
 2631TIP3    H2 7816   2.921   0.924   2.251 -0.2173 -0.0691  1.0621
 2632TIP3   OH2 7817   2.129   2.518   2.089 -0.2096 -0.2444 -0.3217
 2632TIP3    H1 7818   2.048   2.555   2.124  1.0645  1.7143  0.5797
 2632TIP3    H2 7819   2.191   2.521   2.161  1.0900 -0.4617 -1.4043
 2633TIP3   OH2 7820   2.588   3.316   4.800  0.6491 -0.0354  0.2078
 2633TIP3    H1 7821   2.666   3.371   4.810  0.3854 -0.0549  2.5735
 2633TIP3    H2 7822   2.614   3.231   4.835 -0.6233  0.1432  1.6168
 2634TIP3   OH2 7823   0.259   0.781   3.262 -0.2311  0.5001  0.6357
 2634TIP3    H1 7824   0.270   0.874   3.244 -1.1778  0.3593 -0.7040
 2634TIP3    H2 7825   0.164   0.768   3.264 -0.1033 -0.6891 -0.5118
 2635TIP3   OH2 7826   7.752   2.633   3.009 -0.2039  0.4954  0.1287
 2635TIP3    H1 7827   7.693   2.701   3.039  0.4881 -0.0353  2.8185
 2635TIP3    H2 7828   7.834   2.650   3.055  0.3432 -1.4276 -0.0749
 2636TIP3   OH2 7829   8.550   3.599   4.441  0.0606 -0.0023 -0.1868
 2636TIP3    H1 7830   8.612   3.539   4.401  0.3015  0.9091 -1.2270
 2636TIP3    H2 7831   8.503   3.547   4.506  1.6983 -0.7688  0.3960
 2637TIP3   OH2 7832   2.840   2.018   7.240 -0.1059 -0.0888 -0.0993
 2637TIP3    H1 7833   2.888   2.098   7.218 -0.2356  0.1030  0.3064
 2637TIP3    H2 7834   2.750   2.037   7.213 -0.2810  0.1762  0.6513
 2638TIP3   OH2 7835   1.515   1.457   3.878  1.0243  0.0538 -0.2492
 2638TIP3    H1 7836   1.464   1.376   3.874 -1.1402  1.4039 -0.6431
 2638TIP3    H2 7837   1.498   1.492   3.965 -0.6564  1.7005 -1.2004
 2639TIP3   OH2 7838   2.328   3.115   4.943  0.0751 -0.3274  0.8259
 2639TIP3    H1 7839   2.274   3.180   4.898 -0.0370 -0.7146  0.4022
 2639TIP3    H2 7840   2.299   3.119   5.034  0.2666  0.4190  0.8606
 2640TIP3   OH2 7841   2.644   2.928   3.122  0.3224 -0.2821  0.0256
 2640TIP3    H1 7842   2.560   2.909   3.165 -0.1237  0.5916 -0.4441
 2640TIP3    H2 7843   2.691   2.983   3.185  0.1064  0.1058 -0.1489
 2641TIP3   OH2 7844   1.561   2.310   4.390  0.3174 -0.0312  0.0021
 2641TIP3    H1 7845   1.650   2.343   4.391 -0.1320  1.1810  1.1062
 2641TIP3    H2 7846   1.547   2.273   4.477 -0.8629  1.5160  0.5102
 2642TIP3   OH2 7847   8.639   2.676   3.279  0.1902 -0.4688 -0.2415
 2642TIP3    H1 7848   8.582   2.740   3.237  0.4305 -0.2534 -0.2443
 2642TIP3    H2 7849   8.661   2.714   3.364 -0.4004 -0.9661  0.1359
 2643TIP3   OH2 7850   1.838   2.603   3.870 -0.2122  0.0370  0.2552
 2643TIP3    H1 7851   1.744   2.618   3.869  0.1358  2.5771  1.3174
 2643TIP3    H2 7852   1.860   2.589   3.962  0.1681 -2.8298 -0.2197
 2644TIP3   OH2 7853   8.773   7.161   2.408 -0.5387 -0.1658 -0.2467
 2644TIP3    H1 7854   8.714   7.210   2.352 -0.2280 -0.6615 -1.0128
 2644TIP3    H2 7855   8.852   7.215   2.414 -0.5277 -0.1694 -0.3799
 2645TIP3   OH2 7856   4.979   0.253   2.478  0.5774  0.3707 -0.3106
 2645TIP3    H1 7857   5.001   0.206   2.398 -0.4274  1.6917 -1.3986
 2645TIP3    H2 7858   4.980   0.345   2.452 -0.9015  0.7471  0.9176
 2646TIP3   OH2 7859   0.141   3.833   3.193  0.3559  0.0406  0.3920
 2646TIP3    H1 7860   0.195   3.870   3.262  0.5131  0.8669 -0.1724
 2646TIP3    H2 7861   0.202   3.812   3.122 -0.0759  1.1032 -0.2994
 2647TIP3   OH2 7862   2.223   3.231   2.992 -0.7593 -0.0459  0.6762
 2647TIP3    H1 7863   2.139   3.248   2.950 -0.3573  0.8550  0.2138
 2647TIP3    H2 7864   2.275   3.309   2.973  0.8391 -1.4202 -0.6486
 2648TIP3   OH2 7865   3.768   0.952   4.500  0.4452  0.0175  0.2042
 2648TIP3    H1 7866   3.760   0.858   4.486 -0.9769 -0.1583  2.0621
 2648TIP3    H2 7867   3.690   0.976   4.550  0.8151  2.1792 -0.1985
 2649TIP3   OH2 7868   3.713   0.796   2.014 -0.0166 -0.0852  0.4708
 2649TIP3    H1 7869   3.760   0.762   2.090 -0.6098  0.6300  1.1780
 2649TIP3    H2 7870   3.765   0.870   1.984  1.2818 -1.5865 -1.0766
 2650TIP3   OH2 7871   2.092   1.259   3.279  0.0977  0.4500 -0.2929
 2650TIP3    H1 7872   2.064   1.172   3.250 -0.2407  0.6196 -0.4651
 2650TIP3    H2 7873   2.085   1.314   3.201  0.5323  0.5824 -0.2416
 2651TIP3   OH2 7874   5.014   1.589   4.481 -0.0961 -0.5109 -0.0007
 2651TIP3    H1 7875   4.951   1.518   4.496 -1.0130  0.1767 -0.4945
 2651TIP3    H2 7876   5.077   1.552   4.419 -2.2943  0.0176 -2.7009
 2652TIP3   OH2 7877   2.686   1.356   3.107 -0.0769 -0.0876  0.2954
 2652TIP3    H1 7878   2.638   1.435   3.134 -0.1156 -0.7278  2.1843
 2652TIP3    H2 7879   2.617   1.291   3.092  0.0102 -0.0411 -0.2937
 2653TIP3   OH2 7880   5.099   3.572   2.957  0.3840  0.0123  0.1860
 2653TIP3    H1 7881   5.111   3.486   2.998 -0.8102  0.4921  1.5786
 2653TIP3    H2 7882   5.052   3.623   3.022 -0.9049  1.0304 -1.4985
 2654TIP3   OH2 7883   3.485   2.374   3.280  0.1790  0.4264  0.1924
 2654TIP3    H1 7884   3.573   2.344   3.255  0.3523 -0.3560  1.6909
 2654TIP3    H2 7885   3.440   2.388   3.197  1.2142 -0.7026 -0.5725
 2655TIP3   OH2 7886   5.905   1.684   4.438 -0.1038  0.1915 -0.5478
 2655TIP3    H1 7887   5.905   1.747   4.366 -0.0086 -0.5554 -1.2077
 2655TIP3    H2 7888   5.983   1.706   4.489  1.2508 -0.8611 -2.1013
 2656TIP3   OH2 7889   1.720   7.319   4.757 -0.8569  0.3846 -0.1575
 2656TIP3    H1 7890   1.640   7.336   4.807 -0.7206 -0.2625  0.2845
 2656TIP3    H2 7891   1.732   7.225   4.762 -0.5631  0.3744 -0.9941
 2657TIP3   OH2 7892   3.518   1.115   4.815 -0.4172 -0.3078  0.0599
 2657TIP3    H1 7893   3.474   1.175   4.875 -1.6737 -0.9659 -0.1755
 2657TIP3    H2 7894   3.538   1.169   4.738  0.6866  0.3948  0.8308
 2658TIP3   OH2 7895   4.594   1.208   6.376  0.0376  0.0205 -0.4768
 2658TIP3    H1 7896   4.622   1.292   6.413  0.5754 -0.3909  0.0557
 2658TIP3    H2 7897   4.505   1.196   6.407 -0.3254  0.7813 -1.2179
 2659TIP3   OH2 7898   4.236   1.159   4.338  0.3581 -0.0302 -0.0719
 2659TIP3    H1 7899   4.166   1.125   4.282 -1.9950  1.3611  1.9371
 2659TIP3    H2 7900   4.237   1.100   4.414  0.0426  1.0696  0.8053
 2660TIP3   OH2 7901   2.972   1.494   3.979 -0.0202  0.0590  0.1015
 2660TIP3    H1 7902   2.930   1.564   3.929 -1.0780 -0.0380  0.8477
 2660TIP3    H2 7903   3.065   1.505   3.962 -0.2494  1.0948 -0.5032
 2661TIP3   OH2 7904   3.167   1.367   4.458  0.3590  0.1863  0.0049
 2661TIP3    H1 7905   3.210   1.352   4.374  1.6036 -1.0807  0.8562
 2661TIP3    H2 7906   3.138   1.280   4.486  0.2136  0.5564  1.0301
 2662TIP3   OH2 7907   2.058   1.154   5.930 -0.6288 -0.2159 -0.1256
 2662TIP3    H1 7908   2.074   1.090   5.861  5.3171  1.9445 -0.9699
 2662TIP3    H2 7909   2.039   1.235   5.883 -1.7185  0.1358  0.8975
 2663TIP3   OH2 7910   4.728   1.595   5.928  0.2233  0.2561  0.5917
 2663TIP3    H1 7911   4.819   1.566   5.940  0.0757 -0.2319  0.5521
 2663TIP3    H2 7912   4.713   1.656   6.000  1.1536  1.7192 -0.4203
 2664TIP3   OH2 7913   1.183   5.012   3.015  0.0406 -0.6761  0.2747
 2664TIP3    H1 7914   1.161   4.945   3.080 -1.6110 -0.3138  0.1305
 2664TIP3    H2 7915   1.102   5.022   2.964  0.8192  0.1878 -0.8114
 2665TIP3   OH2 7916   2.540   2.193   1.386  0.0848  0.5540 -0.2985
 2665TIP3    H1 7917   2.536   2.165   1.477 -0.0013 -0.0412 -0.4841
 2665TIP3    H2 7918   2.550   2.288   1.390 -0.1408  0.5487  0.3277
 2666TIP3   OH2 7919   0.555   0.527   2.186 -0.1329 -0.1006 -0.0880
 2666TIP3    H1 7920   0.469   0.489   2.204 -0.0866 -0.8281 -1.2842
 2666TIP3    H2 7921   0.617   0.464   2.222 -0.1127  1.3666  2.4935
 2667TIP3   OH2 7922   2.437   2.543   3.942 -0.3681  0.8276  0.2104
 2667TIP3    H1 7923   2.488   2.623   3.926 -2.2344  1.7727 -1.1491
 2667TIP3    H2 7924   2.347   2.574   3.952 -1.2476 -1.2111 -1.2583
 2668TIP3   OH2 7925   2.885   1.912   3.406  0.1557 -0.1745 -0.1880
 2668TIP3    H1 7926   2.817   1.874   3.463 -1.4524 -0.3609 -2.1646
 2668TIP3    H2 7927   2.954   1.939   3.466 -0.3712 -2.6845  1.6327
 2669TIP3   OH2 7928   3.976   2.407   4.205  0.0337 -0.1428  0.1340
 2669TIP3    H1 7929   4.033   2.473   4.166  1.2583 -1.1928  0.0767
 2669TIP3    H2 7930   3.977   2.426   4.299  0.6961 -0.3076  0.1639
 2670TIP3   OH2 7931   5.246   2.461   3.872  0.2067  1.0190 -0.9639
 2670TIP3    H1 7932   5.263   2.507   3.954 -0.7478  0.5963 -0.5138
 2670TIP3    H2 7933   5.329   2.421   3.848  0.2871  0.4379  0.2492
 2671TIP3   OH2 7934   2.181   1.950   4.477 -0.4402 -0.0370 -0.2504
 2671TIP3    H1 7935   2.102   1.940   4.424  0.0262 -2.4333 -0.5325
 2671TIP3    H2 7936   2.231   2.019   4.432  0.2320 -2.4481 -3.3490
 2672TIP3   OH2 7937   4.825   0.023   4.017  0.2361 -0.0681  0.0560
 2672TIP3    H1 7938   4.851  -0.041   3.949 -2.0818 -1.2705  0.2625
 2672TIP3    H2 7939   4.777   0.090   3.969  0.6381  0.3069  0.1789
 2673TIP3   OH2 7940   2.536   1.903   3.353  0.3846  0.8753  0.1034
 2673TIP3    H1 7941   2.608   1.857   3.396  0.9475 -0.1772 -1.9511
 2673TIP3    H2 7942   2.566   1.917   3.263 -1.8659  0.6295 -0.7173
 2674TIP3   OH2 7943   3.475   0.089   4.871  0.3025  0.0837 -0.2446
 2674TIP3    H1 7944   3.508   0.003   4.896 -0.4016 -0.0700  0.1538
 2674TIP3    H2 7945   3.407   0.109   4.935  0.1996  0.7705 -0.5600
 2675TIP3   OH2 7946   1.600   2.709   4.050 -0.3058  0.1207  0.3569
 2675TIP3    H1 7947   1.561   2.652   3.984 -1.4569  0.4746  0.7150
 2675TIP3    H2 7948   1.586   2.798   4.017  2.9759  0.1896 -1.0292
 2676TIP3   OH2 7949   3.174   0.811   1.558 -0.2532  0.2551  0.4083
 2676TIP3    H1 7950   3.221   0.759   1.494 -0.7603 -0.4346  0.5902
 2676TIP3    H2 7951   3.085   0.775   1.558 -0.5481  0.9726  0.6922
 2677TIP3   OH2 7952   7.921   8.115   3.262 -0.7188  0.3034 -0.3475
 2677TIP3    H1 7953   7.974   8.148   3.189  0.2290 -0.5179 -0.0408
 2677TIP3    H2 7954   7.890   8.030   3.231 -0.2883 -0.0605  0.2227
 2678TIP3   OH2 7955   1.253   0.359   3.596 -0.6966  0.5802 -0.9968
 2678TIP3    H1 7956   1.239   0.305   3.518 -0.9225 -0.1698 -0.4313
 2678TIP3    H2 7957   1.193   0.433   3.584  1.5011  2.1267 -3.0734
 2679TIP3   OH2 7958   4.678   1.805   5.035 -0.0664 -0.0944 -0.6060
 2679TIP3    H1 7959   4.593   1.846   5.051 -0.8746 -0.9492 -2.5441
 2679TIP3    H2 7960   4.730   1.872   4.991  0.5646  0.6968  1.2908
 2680TIP3   OH2 7961   5.797   2.401   4.041 -0.8085 -0.6170 -0.4753
 2680TIP3    H1 7962   5.830   2.315   4.068  1.8709  0.2187 -0.8763
 2680TIP3    H2 7963   5.876   2.452   4.023 -2.3647  1.8436 -0.5608
 2681TIP3   OH2 7964   2.412   1.710   1.727  0.6191  0.4587 -0.0100
 2681TIP3    H1 7965   2.500   1.674   1.740  0.1726 -0.2475  1.0943
 2681TIP3    H2 7966   2.413   1.744   1.637  1.1085 -2.0779 -0.9896
 2682TIP3   OH2 7967   2.155   3.598   2.995 -0.2188  0.0982  0.1059
 2682TIP3    H1 7968   2.108   3.565   2.919 -1.9468 -0.5030  1.4197
 2682TIP3    H2 7969   2.240   3.554   2.992 -0.9032 -1.1856 -0.5334
 2683TIP3   OH2 7970   3.047   0.743   5.910 -0.4192  0.0836  0.3473
 2683TIP3    H1 7971   3.125   0.761   5.859  0.0767 -0.7335  0.8126
 2683TIP3    H2 7972   3.070   0.767   5.999 -0.3333 -1.1481  0.6720
 2684TIP3   OH2 7973   3.751   2.837   2.382 -0.3413 -0.2133 -0.0240
 2684TIP3    H1 7974   3.700   2.887   2.318  0.6902  1.9462  0.7919
 2684TIP3    H2 7975   3.735   2.881   2.466  0.4623 -1.3569  0.7473
 2685TIP3   OH2 7976   1.673   1.261   3.471 -0.1766 -0.2032  0.4408
 2685TIP3    H1 7977   1.630   1.344   3.490 -0.9048  0.3186 -3.2642
 2685TIP3    H2 7978   1.762   1.272   3.504 -0.3246  1.9454  0.1680
 2686TIP3   OH2 7979   3.420   3.648   4.809  0.2547 -0.4137  0.1292
 2686TIP3    H1 7980   3.383   3.611   4.890 -1.6311 -0.5007 -0.7527
 2686TIP3    H2 7981   3.474   3.722   4.839  0.6289 -1.2535  1.5633
 2687TIP3   OH2 7982   3.807   1.423   4.002  0.7336  0.4308 -0.3876
 2687TIP3    H1 7983   3.809   1.364   3.927 -0.6936 -1.0658  0.7042
 2687TIP3    H2 7984   3.744   1.491   3.978 -1.9679 -1.6523  0.5538
 2688TIP3   OH2 7985   2.444   0.896   3.404 -0.0686 -0.0216 -0.0094
 2688TIP3    H1 7986   2.442   0.807   3.370  2.0241 -1.3731  3.2530
 2688TIP3    H2 7987   2.517   0.938   3.359  0.1912 -0.5364 -0.0614
 2689TIP3   OH2 7988   4.370   3.235   4.746  0.5944 -0.1370 -0.2150
 2689TIP3    H1 7989   4.280   3.234   4.715  0.3894 -1.4549  0.3746
 2689TIP3    H2 7990   4.398   3.326   4.736 -0.8882  0.3452 -0.1415
 2690TIP3   OH2 7991   4.487   1.992   5.774 -0.1839 -0.3142 -0.3559
 2690TIP3    H1 7992   4.438   1.940   5.710 -2.3561  1.1021  0.0932
 2690TIP3    H2 7993   4.427   2.003   5.847  0.3847  2.4293 -0.2593
 2691TIP3   OH2 7994   8.352   7.464   2.679  0.1092  0.7777 -0.0528
 2691TIP3    H1 7995   8.439   7.470   2.719 -0.0785  1.7225  0.2312
 2691TIP3    H2 7996   8.368   7.468   2.585  0.3385  1.4837  0.0141
 2692TIP3   OH2 7997   1.613   0.710   4.543 -0.3435 -0.2632 -1.1658
 2692TIP3    H1 7998   1.561   0.789   4.553 -0.0955 -0.3053  0.5031
 2692TIP3    H2 7999   1.559   0.653   4.488 -1.8862 -0.1503  0.1887
 2693TIP3   OH2 8000   1.842   4.333   1.278 -0.2219 -0.5598  0.6283
 2693TIP3    H1 8001   1.774   4.266   1.276 -0.9810  0.1455  2.4401
 2693TIP3    H2 8002   1.814   4.397   1.213 -0.7091 -0.8402  0.5565
 2694TIP3   OH2 8003   2.590   2.483   3.578 -0.3233  0.4208  0.2326
 2694TIP3    H1 8004   2.638   2.493   3.660 -1.0374  0.5774  0.6294
 2694TIP3    H2 8005   2.519   2.547   3.583 -0.9231 -0.2123 -0.1045
 2695TIP3   OH2 8006   7.640   1.548   5.475 -0.0277 -0.8177  0.0036
 2695TIP3    H1 8007   7.728   1.526   5.446  0.3884  0.6308  0.1481
 2695TIP3    H2 8008   7.628   1.497   5.555  1.2984  0.2451  0.8856
 2696TIP3   OH2 8009   1.720   0.448   4.576  0.0128 -0.3309 -0.3603
 2696TIP3    H1 8010   1.735   0.536   4.542  0.5013  0.0142  0.7061
 2696TIP3    H2 8011   1.643   0.458   4.633  0.1149 -0.5762 -0.1806
 2697TIP3   OH2 8012   2.823   2.954   5.798  0.8052  0.0740  0.2158
 2697TIP3    H1 8013   2.914   2.930   5.780  0.8232 -0.1290  0.5767
 2697TIP3    H2 8014   2.817   3.046   5.773  0.4429 -0.5964 -2.2593
 2698TIP3   OH2 8015   2.473   2.507   4.234 -0.5689 -0.4343  0.5431
 2698TIP3    H1 8016   2.384   2.484   4.261 -0.3324 -0.8943  0.9321
 2698TIP3    H2 8017   2.463   2.544   4.146 -1.1011 -0.8362  0.4339
 2699TIP3   OH2 8018   4.393   1.362   4.816  0.4952 -0.1350  0.0254
 2699TIP3    H1 8019   4.464   1.303   4.842 -0.9711 -1.4355  1.1838
 2699TIP3    H2 8020   4.323   1.304   4.789 -0.0003  1.1511 -1.4929
 2700TIP3   OH2 8021   1.253   2.717   2.966 -0.0504  0.1666  0.3998
 2700TIP3    H1 8022   1.347   2.701   2.971 -0.2230 -0.9533  0.1786
 2700TIP3    H2 8023   1.241   2.758   2.880  0.2729  0.5888  0.5541
 2701TIP3   OH2 8024   2.890   2.906   3.562  0.4218  0.2699  0.3577
 2701TIP3    H1 8025   2.875   3.000   3.563  0.4219  0.3873 -3.2562
 2701TIP3    H2 8026   2.803   2.867   3.571  0.2839  0.6316  0.6004
 2702TIP3   OH2 8027   3.422   2.051   4.213  0.1718 -0.5408  1.0920
 2702TIP3    H1 8028   3.405   2.136   4.172  0.0835 -0.9941  0.1881
 2702TIP3    H2 8029   3.432   1.990   4.140  0.4930 -1.2651  1.7309
 2703TIP3   OH2 8030   0.178   0.515   4.547 -0.0134  0.0525 -0.5876
 2703TIP3    H1 8031   0.161   0.537   4.455 -0.5762 -3.5256 -1.3899
 2703TIP3    H2 8032   0.095   0.481   4.579  1.0264 -1.6958  0.3154
 2704TIP3   OH2 8033   0.014   2.940   3.433 -0.5811  0.0918  0.0405
 2704TIP3    H1 8034   0.029   2.998   3.508  0.6081  0.5443 -0.5436
 2704TIP3    H2 8035   0.040   2.992   3.357 -0.7494 -0.7537 -0.5970
 2705TIP3   OH2 8036   1.422   3.277   3.617 -0.8762  0.5079  0.0028
 2705TIP3    H1 8037   1.337   3.320   3.611 -0.9098  0.3081 -1.0307
 2705TIP3    H2 8038   1.401   3.186   3.639 -0.9826  0.2432 -1.1732
 2706TIP3   OH2 8039   2.458   1.729   1.428 -0.1161  0.3956  0.1118
 2706TIP3    H1 8040   2.497   1.766   1.349  1.7094  0.7049  1.1253
 2706TIP3    H2 8041   2.418   1.647   1.399  0.9475  0.2713 -1.0433
 2707TIP3   OH2 8042   1.731   1.832   4.424  0.3324 -0.2679 -0.1414
 2707TIP3    H1 8043   1.767   1.763   4.479  1.3612 -0.6916 -1.3440
 2707TIP3    H2 8044   1.719   1.792   4.338 -2.2713  0.0863  0.0098
 2708TIP3   OH2 8045   3.511   2.581   3.478  0.2577  0.0625 -0.0284
 2708TIP3    H1 8046   3.521   2.518   3.406  0.5421  1.6771 -1.4343
 2708TIP3    H2 8047   3.418   2.605   3.476  0.2069 -0.1025  0.3264
 2709TIP3   OH2 8048   8.406   7.742   3.522 -0.3503  1.2324 -0.6194
 2709TIP3    H1 8049   8.460   7.785   3.588  1.5360  1.4406 -2.2490
 2709TIP3    H2 8050   8.442   7.654   3.514 -0.6695  1.1520 -1.2384
 2710TIP3   OH2 8051   3.362   3.186   3.123 -0.0022 -0.2209  0.0291
 2710TIP3    H1 8052   3.371   3.168   3.217  0.2812 -0.1215  0.0221
 2710TIP3    H2 8053   3.402   3.273   3.112 -1.1525  0.3123  0.0310
 2711TIP3   OH2 8054   7.820   8.407   3.303  0.1110  0.4011  0.2320
 2711TIP3    H1 8055   7.814   8.421   3.209  1.9520  1.1260  0.1995
 2711TIP3    H2 8056   7.805   8.313   3.315 -1.2188  0.4847 -0.6484
 2712TIP3   OH2 8057   6.877   7.951   3.674  0.1541  0.2357 -0.6243
 2712TIP3    H1 8058   6.868   7.960   3.579  0.3292 -1.3262 -0.8099
 2712TIP3    H2 8059   6.939   7.879   3.685  1.1253  1.2663  0.6770
 2713TIP3   OH2 8060   2.764   0.788   2.678  0.3733  0.0154 -0.6818
 2713TIP3    H1 8061   2.820   0.722   2.720  0.2832 -0.5249 -1.3996
 2713TIP3    H2 8062   2.826   0.850   2.639  0.4512  1.0625  1.0911
 2714TIP3   OH2 8063   3.072   3.483   2.738 -0.2349  0.4372 -0.0203
 2714TIP3    H1 8064   3.003   3.496   2.803 -1.7416 -0.3456 -1.4322
 2714TIP3    H2 8065   3.057   3.552   2.673  1.6448  1.6102  0.7673
 2715TIP3   OH2 8066   0.667   0.887   3.249 -0.4269 -0.0257 -0.0073
 2715TIP3    H1 8067   0.586   0.878   3.299 -1.2737 -0.4117 -1.4235
 2715TIP3    H2 8068   0.680   0.801   3.210 -0.0576  0.4246 -0.8729
 2716TIP3   OH2 8069   2.317   0.994   0.614 -0.3804  0.3962  0.3179
 2716TIP3    H1 8070   2.350   1.024   0.698 -0.2846  2.2166 -0.3359
 2716TIP3    H2 8071   2.396   0.985   0.559 -0.4716 -0.4614  0.3203
 2717TIP3   OH2 8072   1.778   1.328   4.263  0.2765 -0.1649  0.6070
 2717TIP3    H1 8073   1.798   1.249   4.314 -0.4895 -1.0547 -0.4406
 2717TIP3    H2 8074   1.689   1.352   4.288 -0.3818 -1.0305 -0.8057
 2718TIP3   OH2 8075   0.429   3.477   3.178  0.0130  0.6706 -0.2492
 2718TIP3    H1 8076   0.516   3.510   3.154 -1.1853  2.2060 -2.6174
 2718TIP3    H2 8077   0.417   3.505   3.269  1.4752  1.5015 -0.2946
 2719TIP3   OH2 8078   3.149   1.501   3.479  0.1458  0.1226 -0.3327
 2719TIP3    H1 8079   3.207   1.543   3.415  2.3104  1.5433  2.4170
 2719TIP3    H2 8080   3.184   1.413   3.489  0.4441  0.2359 -0.3631
 2720TIP3   OH2 8081   0.935   8.159   3.704 -0.6001  0.2925 -0.2996
 2720TIP3    H1 8082   0.934   8.079   3.757 -2.9800 -0.2443 -1.1071
 2720TIP3    H2 8083   0.893   8.225   3.760 -1.2411  0.2433 -0.7166
 2721TIP3   OH2 8084   0.962   2.532   3.544  0.1935  0.9900  0.2370
 2721TIP3    H1 8085   0.876   2.490   3.531  1.1699 -1.6938  1.8957
 2721TIP3    H2 8086   0.979   2.577   3.462 -1.7771 -0.4023 -1.0052
 2722TIP3   OH2 8087   5.117   1.239   0.869 -0.5870 -0.6954  0.1991
 2722TIP3    H1 8088   5.130   1.224   0.776 -0.1411  1.5779 -0.1293
 2722TIP3    H2 8089   5.051   1.309   0.873  0.7352  0.5182  1.5155
 2723TIP3   OH2 8090   4.683   2.896   3.577 -0.5922  0.4423  0.2649
 2723TIP3    H1 8091   4.625   2.846   3.520 -1.5002  0.8945  0.7964
 2723TIP3    H2 8092   4.687   2.846   3.658 -2.1944  1.6387  1.1191
 2724TIP3   OH2 8093   4.429   3.043   3.232 -0.5607 -0.6837 -0.8930
 2724TIP3    H1 8094   4.456   2.961   3.274  0.9874  0.4472  0.4039
 2724TIP3    H2 8095   4.380   3.089   3.300 -1.0373 -0.3391 -1.4672
 2725TIP3   OH2 8096   3.711   3.752   2.790 -0.2544  0.2881 -0.4201
 2725TIP3    H1 8097   3.776   3.820   2.776 -1.1666  1.2260 -0.1168
 2725TIP3    H2 8098   3.750   3.673   2.751  1.0002  0.8629 -0.3431
 2726TIP3   OH2 8099   2.675   1.765   3.531  0.0485  0.1875  0.0341
 2726TIP3    H1 8100   2.628   1.764   3.615 -0.1749 -1.3704 -0.0928
 2726TIP3    H2 8101   2.686   1.673   3.509 -0.7381  0.6025 -2.1433
 2727TIP3   OH2 8102   5.984   2.714   1.256  0.1490 -0.0047 -0.2980
 2727TIP3    H1 8103   5.889   2.713   1.253  0.1650  0.6517 -3.0301
 2727TIP3    H2 8104   6.009   2.794   1.208  2.0523  0.2708  1.0847
 2728TIP3   OH2 8105   2.175   3.812   3.483  0.5535  0.0075 -0.3121
 2728TIP3    H1 8106   2.233   3.736   3.476  0.4030 -0.1188 -0.1855
 2728TIP3    H2 8107   2.098   3.779   3.529  0.0094 -0.0340 -1.2445
 2729TIP3   OH2 8108   5.336   2.313   2.116 -0.7301  0.0479  0.1124
 2729TIP3    H1 8109   5.280   2.381   2.154  0.5793  0.3930  1.4903
 2729TIP3    H2 8110   5.293   2.231   2.141 -1.1784  0.3317  0.2810
 2730TIP3   OH2 8111   4.901   2.385   2.320 -0.4610 -0.4215  0.5903
 2730TIP3    H1 8112   4.912   2.463   2.374 -0.3809 -0.8186  1.1507
 2730TIP3    H2 8113   4.897   2.312   2.383 -0.2549 -0.8952  0.0595
 2731TIP3   OH2 8114   5.527   2.484   1.140 -0.3593  0.2030  0.4077
 2731TIP3    H1 8115   5.521   2.427   1.217 -0.4728  1.6778  1.5194
 2731TIP3    H2 8116   5.618   2.513   1.139 -0.2122 -0.2907 -0.3657
 2732TIP3   OH2 8117   4.593   1.127   3.960 -0.1463 -0.1163 -0.5337
 2732TIP3    H1 8118   4.615   1.048   3.910 -1.3129  0.0747 -1.3724
 2732TIP3    H2 8119   4.564   1.095   4.045  3.7318 -0.3741  0.8148
 2733TIP3   OH2 8120   1.237   6.398   6.710  0.6448  0.2628  0.1941
 2733TIP3    H1 8121   1.268   6.316   6.672 -1.1201 -0.6858  0.7481
 2733TIP3    H2 8122   1.185   6.439   6.641  1.0364  0.6406  0.1192
 2734TIP3   OH2 8123   5.631   1.587   2.451  0.3109 -0.2843  0.6853
 2734TIP3    H1 8124   5.558   1.544   2.407  0.0710  2.1719 -1.4449
 2734TIP3    H2 8125   5.589   1.644   2.515  0.4428 -0.1694  0.6674
 2735TIP3   OH2 8126   2.900   0.863   4.089  0.5305  0.4538  0.3262
 2735TIP3    H1 8127   2.861   0.911   4.017  1.3984  1.1598  0.3240
 2735TIP3    H2 8128   2.940   0.786   4.048  0.8145  0.7290  0.0950
 2736TIP3   OH2 8129   6.381   1.537   3.130  0.4413 -0.1884 -0.3399
 2736TIP3    H1 8130   6.388   1.465   3.193  1.5938 -1.4107 -1.8436
 2736TIP3    H2 8131   6.432   1.608   3.168 -0.2257 -0.3466  0.8748
 2737TIP3   OH2 8132   3.953   2.283   3.363 -0.1081  0.1865 -0.0454
 2737TIP3    H1 8133   3.946   2.297   3.458 -0.9195 -0.9703  0.0675
 2737TIP3    H2 8134   4.024   2.341   3.336  0.1180  0.5405  1.2725
 2738TIP3   OH2 8135   2.622   1.793   2.456  0.0529 -0.0476 -0.5662
 2738TIP3    H1 8136   2.647   1.721   2.512  0.3834  1.1673  0.8777
 2738TIP3    H2 8137   2.704   1.827   2.421 -0.2692 -2.1633 -3.5798
 2739TIP3   OH2 8138   5.003   3.245   2.675  0.0023 -0.3566  0.5125
 2739TIP3    H1 8139   4.915   3.213   2.656 -0.6202  1.6033 -0.0200
 2739TIP3    H2 8140   4.995   3.290   2.759  0.7206 -0.9758  0.9256
 2740TIP3   OH2 8141   6.451   0.423   3.531  0.7063 -0.5521 -0.7408
 2740TIP3    H1 8142   6.405   0.464   3.604  1.5513 -1.1315  0.1167
 2740TIP3    H2 8143   6.528   0.478   3.517  1.0302 -0.9739 -0.5991
 2741TIP3   OH2 8144   5.048   3.348   2.393  0.0184  0.4221  0.6694
 2741TIP3    H1 8145   5.139   3.326   2.413  0.1813  2.0201  1.8400
 2741TIP3    H2 8146   5.008   3.363   2.479 -1.3055 -0.1295  0.1474
 2742TIP3   OH2 8147   3.587   2.015   3.500  0.2456 -0.0278  0.1638
 2742TIP3    H1 8148   3.595   2.078   3.429  1.3249  1.6637  1.7365
 2742TIP3    H2 8149   3.644   1.943   3.474  0.3564  0.4112 -0.8478
 2743TIP3   OH2 8150   3.918   1.438   0.460 -0.2013 -0.2025 -0.5844
 2743TIP3    H1 8151   3.909   1.524   0.502 -2.8851 -0.3597 -0.7034
 2743TIP3    H2 8152   3.937   1.459   0.368  1.5570  0.2192 -0.1250
 2744TIP3   OH2 8153   3.531   4.327   3.736  0.4309  0.2692  0.3322
 2744TIP3    H1 8154   3.495   4.260   3.679 -0.1204  1.5630 -0.8600
 2744TIP3    H2 8155   3.615   4.292   3.765  1.0078 -0.1273 -1.7911
 2745TIP3   OH2 8156   4.936   2.485   6.043  0.2354  0.3330 -0.2011
 2745TIP3    H1 8157   4.907   2.411   5.990 -0.2877  1.2767 -1.2667
 2745TIP3    H2 8158   5.031   2.486   6.034  0.2247 -0.0835 -0.3552
 2746TIP3   OH2 8159   2.851   2.748   3.049  0.1176 -0.7624 -0.3756
 2746TIP3    H1 8160   2.793   2.822   3.068 -1.6645 -1.8816 -1.3898
 2746TIP3    H2 8161   2.842   2.690   3.124 -1.3244 -1.6960 -1.2507
 2747TIP3   OH2 8162   3.902   1.936   3.698  0.0758 -0.1039 -0.4830
 2747TIP3    H1 8163   3.989   1.973   3.712 -0.5446  1.6042 -0.9592
 2747TIP3    H2 8164   3.844   1.991   3.750 -1.2489  1.5492 -3.5895
 2748TIP3   OH2 8165   2.416   7.255   2.077 -0.7760  0.2189 -0.0541
 2748TIP3    H1 8166   2.444   7.299   2.157 -1.9606 -1.8346  1.5358
 2748TIP3    H2 8167   2.334   7.298   2.053 -1.1308 -0.0542  0.6364
 2749TIP3   OH2 8168   4.949   3.700   3.144 -0.7022 -0.0450  0.4850
 2749TIP3    H1 8169   4.879   3.635   3.152 -1.6880  0.8380 -0.8401
 2749TIP3    H2 8170   4.930   3.764   3.213 -1.6900  0.6337 -0.4043
 2750TIP3   OH2 8171   3.074   1.689   2.476 -0.2713  0.2479 -0.2428
 2750TIP3    H1 8172   3.040   1.680   2.565  1.3570 -1.7756  0.2116
 2750TIP3    H2 8173   3.169   1.699   2.488 -0.1861  1.2889 -1.7026
 2751TIP3   OH2 8174   4.371   1.769   3.356 -0.1061 -0.6205  0.0579
 2751TIP3    H1 8175   4.301   1.705   3.344  1.0562 -2.0213  0.6427
 2751TIP3    H2 8176   4.357   1.804   3.444 -1.0471  0.3291 -0.4564
 2752TIP3   OH2 8177   6.213   1.389   4.271  0.0039 -0.4332 -0.0303
 2752TIP3    H1 8178   6.249   1.349   4.350  1.5502 -1.0415 -1.0132
 2752TIP3    H2 8179   6.288   1.398   4.212 -0.8593  1.2987 -0.9185
 2753TIP3   OH2 8180   3.607   1.526   1.851  0.2017  0.1022 -0.1155
 2753TIP3    H1 8181   3.610   1.449   1.795 -1.0501  0.0392 -0.1224
 2753TIP3    H2 8182   3.657   1.592   1.804  0.6311 -0.4748 -0.4776
 2754TIP3   OH2 8183   5.278   2.193   3.818  0.5704  0.6031 -0.2395
 2754TIP3    H1 8184   5.294   2.182   3.725 -1.4387  1.1151 -0.6794
 2754TIP3    H2 8185   5.209   2.129   3.838  1.0761  0.3980  0.9377
 2755TIP3   OH2 8186   7.002   2.713   2.958 -0.5922 -0.0815  0.0232
 2755TIP3    H1 8187   7.033   2.775   3.024 -2.1324 -0.8780  1.5141
 2755TIP3    H2 8188   7.062   2.725   2.884  1.1092  0.8785  1.5248
 2756TIP3   OH2 8189   6.338   1.627   2.439 -0.0764 -1.3770 -0.1822
 2756TIP3    H1 8190   6.412   1.611   2.497 -0.3467 -1.1317  0.2426
 2756TIP3    H2 8191   6.266   1.576   2.477 -0.6413 -0.0648  0.5476
 2757TIP3   OH2 8192   6.216   1.910   3.045 -0.3684  0.1130  0.6385
 2757TIP3    H1 8193   6.205   1.818   3.071  0.2385 -0.1456  0.0209
 2757TIP3    H2 8194   6.256   1.905   2.958 -1.7200  0.9570 -0.0479
 2758TIP3   OH2 8195   4.199   2.643   4.103 -0.0950 -0.0308 -0.3414
 2758TIP3    H1 8196   4.185   2.587   4.027  0.3565 -1.2010  0.4163
 2758TIP3    H2 8197   4.176   2.731   4.073 -1.7942 -0.7582 -1.2849
 2759TIP3   OH2 8198   5.947   3.937   2.805 -0.7745 -0.2667 -0.2420
 2759TIP3    H1 8199   5.926   3.919   2.896 -1.1033  1.8462  0.1211
 2759TIP3    H2 8200   5.862   3.949   2.762 -0.5685  0.9762 -0.3315
 2760TIP3   OH2 8201   5.189   3.640   3.534  0.0080  0.1465  0.1197
 2760TIP3    H1 8202   5.195   3.667   3.626  0.3046  1.4320 -0.2678
 2760TIP3    H2 8203   5.130   3.565   3.535  1.0361 -0.6712  1.5271
 2761TIP3   OH2 8204   4.692   3.345   2.489  0.9940 -0.3033  0.0353
 2761TIP3    H1 8205   4.708   3.263   2.535 -0.7562 -0.3485  0.6052
 2761TIP3    H2 8206   4.604   3.372   2.517  1.4993  1.7187 -0.2002
 2762TIP3   OH2 8207   3.342   2.301   4.048 -0.3064 -0.8422 -0.0420
 2762TIP3    H1 8208   3.378   2.338   3.967 -1.6640  1.9410  0.5711
 2762TIP3    H2 8209   3.267   2.356   4.068 -0.0719 -1.5683  3.0542
 2763TIP3   OH2 8210   1.566   1.531   1.826 -0.4074  0.0450 -0.1712
 2763TIP3    H1 8211   1.559   1.596   1.895 -2.4459 -1.9459  1.5810
 2763TIP3    H2 8212   1.604   1.454   1.869 -0.2273 -0.7159 -1.6439
 2764TIP3   OH2 8213   1.201   1.152   2.807 -0.3007 -0.2020 -0.4705
 2764TIP3    H1 8214   1.142   1.114   2.742 -0.1680  0.8807 -1.2429
 2764TIP3    H2 8215   1.171   1.117   2.891 -0.7238 -1.2978 -1.0781
 2765TIP3   OH2 8216   7.590   1.864   2.653 -0.0908 -0.6171 -0.0362
 2765TIP3    H1 8217   7.628   1.817   2.727  1.0208  0.7127  0.2393
 2765TIP3    H2 8218   7.657   1.927   2.627 -1.2787  0.3237 -0.8648
 2766TIP3   OH2 8219   4.860   2.379   2.833 -0.0347  0.1364 -0.8189
 2766TIP3    H1 8220   4.860   2.360   2.927  1.3341 -0.3175 -0.8955
 2766TIP3    H2 8221   4.774   2.416   2.816 -0.7609 -0.9437  0.3861
 2767TIP3   OH2 8222   4.744   0.096   2.314  0.4184 -0.0721  0.1876
 2767TIP3    H1 8223   4.729   0.083   2.407  1.3895 -0.1419  0.3439
 2767TIP3    H2 8224   4.745   0.191   2.303 -0.4226 -0.0702  0.1224
 2768TIP3   OH2 8225   3.465   1.060   3.172  0.1653 -0.0160 -0.5449
 2768TIP3    H1 8226   3.372   1.069   3.153 -0.2091 -0.8183  0.8527
 2768TIP3    H2 8227   3.474   1.082   3.264  1.4984  0.8738 -0.8694
 2769TIP3   OH2 8228   6.894   6.204   2.673 -0.7996  0.7313 -1.0226
 2769TIP3    H1 8229   6.827   6.145   2.708  0.9644 -0.2367  0.8374
 2769TIP3    H2 8230   6.890   6.193   2.579 -0.9521 -1.8719 -0.7312
 2770TIP3   OH2 8231   3.113   3.242   1.824 -0.5128  0.5852 -0.2599
 2770TIP3    H1 8232   3.032   3.261   1.778 -0.0491 -0.0444 -1.3546
 2770TIP3    H2 8233   3.154   3.328   1.836 -0.3479  0.7045 -1.5820
 2771TIP3   OH2 8234   2.618   4.705   3.482 -0.1731 -0.2280  0.0453
 2771TIP3    H1 8235   2.689   4.765   3.506 -1.8672  1.9791 -0.2946
 2771TIP3    H2 8236   2.630   4.690   3.388 -0.3367  0.3758 -0.0716
 2772TIP3   OH2 8237   8.038   2.912   2.321  0.7402 -0.0873 -0.1441
 2772TIP3    H1 8238   8.070   2.834   2.365 -0.2944  0.0194  0.8036
 2772TIP3    H2 8239   7.976   2.879   2.256 -1.0646  0.0614  1.4822
 2773TIP3   OH2 8240   5.868   3.297   1.732 -0.8073  0.4464 -0.0879
 2773TIP3    H1 8241   5.959   3.299   1.760 -0.4662 -0.8325 -1.0451
 2773TIP3    H2 8242   5.818   3.315   1.812  0.2230 -0.8288  0.8734
 2774TIP3   OH2 8243   3.551   2.764   2.016  0.1539  0.2680 -0.0228
 2774TIP3    H1 8244   3.494   2.836   1.989 -0.8807 -0.3124  0.5824
 2774TIP3    H2 8245   3.618   2.760   1.948 -1.0180  0.4109 -1.2078
 2775TIP3   OH2 8246   5.004   2.456   1.682  0.3151 -0.2358 -0.2959
 2775TIP3    H1 8247   4.989   2.373   1.637  1.7136 -0.0039 -1.2008
 2775TIP3    H2 8248   5.071   2.436   1.748 -0.2104 -0.0988  0.2830
 2776TIP3   OH2 8249   3.955   1.778   1.486  0.2647  0.1281 -0.1574
 2776TIP3    H1 8250   3.959   1.849   1.551  0.1075  0.7242 -0.7887
 2776TIP3    H2 8251   4.011   1.710   1.522 -0.3502  0.1846  0.9264
 2777TIP3   OH2 8252   2.422   3.144   1.881 -0.0565  0.0882  0.2876
 2777TIP3    H1 8253   2.459   3.077   1.823  1.5190 -0.7146  2.1554
 2777TIP3    H2 8254   2.328   3.127   1.881  0.3223 -2.2224  0.7943
 2778TIP3   OH2 8255   4.857   3.244   4.138  0.1724  0.1568 -0.3410
 2778TIP3    H1 8256   4.904   3.228   4.220  1.6286  0.1150 -1.1601
 2778TIP3    H2 8257   4.825   3.333   4.145 -0.8953 -0.3094  0.8405
 2779TIP3   OH2 8258   1.484   2.412   3.180  0.3625  0.2739 -0.7585
 2779TIP3    H1 8259   1.535   2.338   3.147  1.6861  0.6441  0.4213
 2779TIP3    H2 8260   1.484   2.401   3.275 -0.7652  0.9243 -0.6747
 2780TIP3   OH2 8261   4.887   0.695   0.987  0.1900  1.1055 -0.5848
 2780TIP3    H1 8262   4.904   0.719   1.078 -0.8671  2.3204 -0.7045
 2780TIP3    H2 8263   4.929   0.763   0.935 -0.6167  1.3085 -0.9783
 2781TIP3   OH2 8264   6.325   1.155   1.007  0.2928  0.0673  0.2691
 2781TIP3    H1 8265   6.345   1.128   0.917 -1.0842 -3.0685  0.8050
 2781TIP3    H2 8266   6.230   1.148   1.013  0.5271 -2.1266  2.5871
 2782TIP3   OH2 8267   5.021   1.430   2.533 -0.8754  0.4442 -0.4645
 2782TIP3    H1 8268   5.027   1.385   2.449 -0.5991 -0.3454 -0.0252
 2782TIP3    H2 8269   5.058   1.517   2.517 -0.1562  0.0492 -0.9902
 2783TIP3   OH2 8270   4.523  -0.022   4.259 -0.0188  0.0400  0.0091
 2783TIP3    H1 8271   4.503   0.014   4.173 -0.3588 -1.6247 -0.6222
 2783TIP3    H2 8272   4.605   0.020   4.284  0.5855 -0.1960 -1.5484
 2784TIP3   OH2 8273   4.099   2.926   1.261 -0.2709 -0.2129 -0.1421
 2784TIP3    H1 8274   4.013   2.903   1.295 -1.5595  1.6147 -2.0283
 2784TIP3    H2 8275   4.127   3.000   1.315 -0.1825 -0.3697  0.0279
 2785TIP3   OH2 8276   4.154   1.854   3.628  0.3505  0.1322  0.0851
 2785TIP3    H1 8277   4.135   1.795   3.556 -2.2233  0.4375  0.4575
 2785TIP3    H2 8278   4.140   1.802   3.707 -0.1518  0.7238  0.3937
 2786TIP3   OH2 8279   1.634   0.526   4.084 -0.4781 -0.2756 -0.1025
 2786TIP3    H1 8280   1.721   0.565   4.074 -0.8696  0.3055 -1.4279
 2786TIP3    H2 8281   1.640   0.443   4.037 -0.5279 -0.4005  0.1157
 2787TIP3   OH2 8282   4.388   1.072   2.740  0.1924  0.7056  0.6718
 2787TIP3    H1 8283   4.395   1.007   2.670 -2.0839  1.3032 -0.1502
 2787TIP3    H2 8284   4.342   1.027   2.811  0.1409  0.8992  0.7628
 2788TIP3   OH2 8285   4.837   2.042   4.996  0.0051 -0.0965 -0.3679
 2788TIP3    H1 8286   4.796   2.111   5.048 -0.9661 -0.8706 -0.0950
 2788TIP3    H2 8287   4.871   2.088   4.919 -1.8897  0.4950 -0.8951
 2789TIP3   OH2 8288   5.011   2.325   3.941  0.1799 -0.3945 -0.3342
 2789TIP3    H1 8289   5.086   2.382   3.922  0.0035 -0.3401 -0.8863
 2789TIP3    H2 8290   4.990   2.285   3.856 -1.4290  0.8372 -0.5457
 2790TIP3   OH2 8291   5.993   0.744   2.861  0.3602  0.1888  0.0949
 2790TIP3    H1 8292   5.945   0.708   2.936  0.9600  3.7536  2.3147
 2790TIP3    H2 8293   5.931   0.804   2.819  0.7790 -0.0621 -0.9031
 2791TIP3   OH2 8294   5.220   1.695   2.539 -0.1834  0.3709 -0.3117
 2791TIP3    H1 8295   5.220   1.789   2.520  3.5351  0.4178 -0.4366
 2791TIP3    H2 8296   5.220   1.690   2.635  2.5314  0.5820 -0.2841
 2792TIP3   OH2 8297   3.845   1.867   2.740  0.3160 -0.0181  0.4629
 2792TIP3    H1 8298   3.838   1.774   2.763 -0.5008  0.0857  0.6842
 2792TIP3    H2 8299   3.913   1.871   2.674 -0.2433 -0.8994 -0.1829
 2793TIP3   OH2 8300   3.680   1.431   2.651  0.0601  0.0652 -0.4770
 2793TIP3    H1 8301   3.587   1.447   2.666  0.0817  1.8741 -2.0476
 2793TIP3    H2 8302   3.724   1.495   2.707  0.3093  0.6626 -1.3532
 2794TIP3   OH2 8303   5.801   3.029   3.368  0.6673 -0.0816  0.3530
 2794TIP3    H1 8304   5.767   3.116   3.392  2.3158  0.7565 -0.3096
 2794TIP3    H2 8305   5.820   2.988   3.452 -0.4644  0.0436  0.6865
 2795TIP3   OH2 8306   3.594   1.077   3.419  0.3890 -0.7031  0.2236
 2795TIP3    H1 8307   3.633   1.153   3.462 -0.3346 -0.0563 -0.2465
 2795TIP3    H2 8308   3.634   1.002   3.462 -0.7912 -0.0733  2.5016
 2796TIP3   OH2 8309   3.017   0.641   3.937  0.1538 -0.0866  0.2426
 2796TIP3    H1 8310   2.975   0.585   4.002 -2.4701  2.7255  1.0915
 2796TIP3    H2 8311   2.978   0.614   3.853 -2.2127  1.3589  0.8233
 2797TIP3   OH2 8312   6.522   5.709   6.807 -0.2332 -0.1714 -0.5317
 2797TIP3    H1 8313   6.433   5.680   6.791 -0.0680 -0.5569 -0.7588
 2797TIP3    H2 8314   6.553   5.651   6.878 -0.3677  0.3609 -0.0326
 2798TIP3   OH2 8315   4.002   1.318   2.399  0.4400  0.6649 -0.0929
 2798TIP3    H1 8316   3.909   1.333   2.418  0.3881  0.1565  0.0605
 2798TIP3    H2 8317   4.018   1.228   2.428 -0.0539 -0.7555 -3.9269
 2799TIP3   OH2 8318   6.989   5.290   6.447 -0.3340  0.1019 -0.2176
 2799TIP3    H1 8319   6.894   5.305   6.453 -0.3659  0.5709 -1.6172
 2799TIP3    H2 8320   7.028   5.374   6.469 -0.2386 -0.1874  0.7005
 2800TIP3   OH2 8321   3.734   2.117   3.870 -0.0868 -0.0631 -0.3887
 2800TIP3    H1 8322   3.647   2.104   3.831  0.5484  0.8091 -2.1871
 2800TIP3    H2 8323   3.723   2.095   3.962 -1.9810 -0.9251 -0.7964
 2801TIP3   OH2 8324   5.697   0.816   4.301  0.3256 -0.2638  0.2316
 2801TIP3    H1 8325   5.627   0.830   4.237  0.8129  1.1499  0.0031
 2801TIP3    H2 8326   5.756   0.753   4.259 -1.4320 -2.4808  0.9274
 2802TIP3   OH2 8327   2.416   2.915   3.266  0.7189  0.3247  0.2826
 2802TIP3    H1 8328   2.435   2.949   3.353  0.5191 -0.9834  0.8538
 2802TIP3    H2 8329   2.325   2.938   3.250  0.0293 -1.5090  1.4339
 2803TIP3   OH2 8330   2.392   0.453   0.381  0.2985  0.2678  0.5876
 2803TIP3    H1 8331   2.362   0.395   0.311 -0.9541  2.3165 -0.6270
 2803TIP3    H2 8332   2.483   0.474   0.357 -0.4031  1.6959 -0.9967
 2804TIP3   OH2 8333   2.371   1.678   3.640  0.6912  0.3545  0.1422
 2804TIP3    H1 8334   2.383   1.597   3.589 -0.3634  0.3701 -0.1300
 2804TIP3    H2 8335   2.326   1.737   3.580  0.8287  0.9028  0.5832
 2805TIP3   OH2 8336   4.521   2.225   3.317 -0.3271 -0.7234 -0.3156
 2805TIP3    H1 8337   4.606   2.216   3.361  0.1441 -0.9713 -1.2648
 2805TIP3    H2 8338   4.460   2.180   3.375  0.6507 -2.9298 -0.9331
 2806TIP3   OH2 8339   5.428   1.961   3.174  0.4970 -0.1969 -0.1041
 2806TIP3    H1 8340   5.494   1.997   3.233  0.9870 -1.2695 -0.0002
 2806TIP3    H2 8341   5.362   1.924   3.232  0.5228 -0.4251 -0.2198
 2807TIP3   OH2 8342   4.116   1.643   3.459 -0.0498 -0.1194 -0.1705
 2807TIP3    H1 8343   4.103   1.613   3.369  1.1546  0.1591 -0.4401
 2807TIP3    H2 8344   4.029   1.639   3.498 -0.4599 -0.8948 -1.1491
 2808TIP3   OH2 8345   6.556   2.098   3.940 -0.2551 -0.0052  0.3016
 2808TIP3    H1 8346   6.600   2.015   3.956 -0.0744 -0.3333 -1.7381
 2808TIP3    H2 8347   6.552   2.105   3.845 -1.6716  1.5804  0.4464
 2809TIP3   OH2 8348   5.305   2.293   4.756 -0.0860  0.1202 -0.5054
 2809TIP3    H1 8349   5.392   2.253   4.753 -0.3773 -0.4144 -2.2810
 2809TIP3    H2 8350   5.311   2.358   4.826  0.4197 -2.9273  2.4336
 2810TIP3   OH2 8351   1.281   4.421   3.896 -0.5500  0.0345 -0.2928
 2810TIP3    H1 8352   1.259   4.393   3.985 -1.2725  2.5402  0.3402
 2810TIP3    H2 8353   1.198   4.414   3.848 -0.3558 -0.4640 -0.5623
 2811TIP3   OH2 8354   4.551   2.464   2.869  0.3742  0.3564  0.3978
 2811TIP3    H1 8355   4.576   2.480   2.961  1.2488  1.0068  0.0546
 2811TIP3    H2 8356   4.515   2.547   2.840 -0.0720  0.0930  0.2023
 2812TIP3   OH2 8357   1.969   2.593   2.904 -0.1999 -0.3176  0.5192
 2812TIP3    H1 8358   1.900   2.568   2.966 -1.3699 -0.8498 -0.9566
 2812TIP3    H2 8359   1.957   2.687   2.893  0.5447 -0.0699  1.7123
 2813TIP3   OH2 8360   4.616   3.236   4.319 -0.4071  0.5822 -0.9270
 2813TIP3    H1 8361   4.671   3.297   4.367 -1.2676  0.4515  0.2445
 2813TIP3    H2 8362   4.544   3.216   4.379 -1.0369 -0.2517 -1.9442
 2814TIP3   OH2 8363   4.626   3.751   2.053  0.1581 -0.3041  0.1202
 2814TIP3    H1 8364   4.649   3.713   1.968 -0.8664 -2.7952  0.9267
 2814TIP3    H2 8365   4.683   3.708   2.115 -0.0052  0.5532  0.8755
 2815TIP3   OH2 8366   4.398   2.330   3.914 -0.0730  0.1302 -0.1769
 2815TIP3    H1 8367   4.441   2.251   3.883 -1.3756 -0.6084 -0.1535
 2815TIP3    H2 8368   4.467   2.396   3.918  1.0850 -1.0989  0.1349
 2816TIP3   OH2 8369   5.388   1.676   4.083  0.3750  0.4390  0.4446
 2816TIP3    H1 8370   5.405   1.755   4.032 -0.2885  0.6103  0.4752
 2816TIP3    H2 8371   5.457   1.615   4.059  0.3981  0.7285 -0.2171
 2817TIP3   OH2 8372   4.635   2.511   1.651  0.4746 -0.2910  0.1232
 2817TIP3    H1 8373   4.591   2.571   1.711  1.3413 -0.3420  0.8362
 2817TIP3    H2 8374   4.709   2.562   1.617 -0.1414 -0.1957 -1.0719
 2818TIP3   OH2 8375   5.071   2.662   2.685  0.0245  0.2821 -0.1242
 2818TIP3    H1 8376   4.994   2.695   2.732 -0.5679 -1.2289 -0.0290
 2818TIP3    H2 8377   5.143   2.671   2.748 -0.5682 -0.7454  0.7004
 2819TIP3   OH2 8378   5.742   1.068   3.810  0.0266  0.0777 -0.5285
 2819TIP3    H1 8379   5.765   0.994   3.866 -0.6908  0.3527  0.1312
 2819TIP3    H2 8380   5.770   1.145   3.858  1.3448  0.2273 -1.4924
 2820TIP3   OH2 8381   4.250   3.583   2.993 -0.0524  0.0473 -0.4065
 2820TIP3    H1 8382   4.163   3.554   2.968 -0.1678 -0.4441  0.5214
 2820TIP3    H2 8383   4.242   3.608   3.085  0.8670 -0.3797 -0.1980
 2821TIP3   OH2 8384   4.928   2.664   3.479  0.2683 -0.0802 -0.3526
 2821TIP3    H1 8385   5.023   2.670   3.483  0.5542 -3.4218 -0.9938
 2821TIP3    H2 8386   4.900   2.672   3.570  0.9726  2.6846 -0.3224
 2822TIP3   OH2 8387   5.295   4.050   4.566 -0.6103 -0.2365  0.4364
 2822TIP3    H1 8388   5.259   4.102   4.638 -1.0069 -2.7467  2.1221
 2822TIP3    H2 8389   5.382   4.023   4.597 -0.7379 -1.2589 -0.0768
 2823TIP3   OH2 8390   2.239   2.162   0.665  0.2433 -0.0497 -0.2370
 2823TIP3    H1 8391   2.191   2.104   0.724  0.2655  0.6830  0.5120
 2823TIP3    H2 8392   2.331   2.145   0.685  0.2561  0.0433 -0.2175
 2824TIP3   OH2 8393   3.575   5.365   3.237 -0.5570 -0.0059 -0.2962
 2824TIP3    H1 8394   3.482   5.348   3.249 -0.5147  1.2198  2.0535
 2824TIP3    H2 8395   3.590   5.448   3.282  1.4907  0.2932 -1.4791
 2825TIP3   OH2 8396   3.610   1.559   3.601  0.0968 -0.4616  0.5115
 2825TIP3    H1 8397   3.684   1.560   3.661 -1.3001 -0.7174  2.2743
 2825TIP3    H2 8398   3.536   1.586   3.654 -1.3960 -1.9138 -0.7785
 2826TIP3   OH2 8399   5.415   3.287   1.782 -0.0476  0.2415 -0.7971
 2826TIP3    H1 8400   5.479   3.224   1.751 -0.2629 -0.7749  0.7509
 2826TIP3    H2 8401   5.468   3.359   1.818  0.1992  0.3570 -1.3826
 2827TIP3   OH2 8402   6.072   1.757   3.292 -0.0328  0.4916  0.0851
 2827TIP3    H1 8403   6.022   1.742   3.212  1.0774  1.9262 -0.9298
 2827TIP3    H2 8404   6.090   1.670   3.327 -0.0969 -0.1797 -1.5240
 2828TIP3   OH2 8405   2.204   1.805   2.558 -0.1667  0.0261  0.6209
 2828TIP3    H1 8406   2.219   1.887   2.606 -0.7784  0.5423 -0.0661
 2828TIP3    H2 8407   2.109   1.794   2.559 -0.3609  1.0131 -2.0628
 2829TIP3   OH2 8408   5.763   0.635   2.298 -0.4315  0.5380  0.0835
 2829TIP3    H1 8409   5.787   0.550   2.335 -0.7392  0.3680 -0.1026
 2829TIP3    H2 8410   5.766   0.621   2.203 -1.3407  0.4861  0.0539
 2830TIP3   OH2 8411   4.865   2.095   2.741 -0.3378 -0.3523  0.3033
 2830TIP3    H1 8412   4.893   2.178   2.780  1.0012 -0.9312  0.6179
 2830TIP3    H2 8413   4.824   2.048   2.813  0.0725 -0.4824  0.4573
 2831TIP3   OH2 8414   2.768   0.179   1.992  0.3600  0.1710  0.5033
 2831TIP3    H1 8415   2.700   0.221   2.045 -1.5117 -1.0862 -0.8560
 2831TIP3    H2 8416   2.802   0.249   1.936  0.3539  0.8566  1.3563
 2832TIP3   OH2 8417   4.694   3.173   3.072  0.6567  0.0467 -0.1921
 2832TIP3    H1 8418   4.721   3.261   3.099 -0.4641 -0.0332  1.2460
 2832TIP3    H2 8419   4.722   3.117   3.145 -0.0395 -0.5585 -0.3914
 2833TIP3   OH2 8420   4.148   0.610   1.636  0.2088  0.1672 -0.2357
 2833TIP3    H1 8421   4.214   0.679   1.629  0.0910  0.4582  1.2383
 2833TIP3    H2 8422   4.084   0.644   1.699 -0.8159 -0.5325 -0.8831
 2834TIP3   OH2 8423   5.189   3.003   3.981  0.0741  0.0730  0.6605
 2834TIP3    H1 8424   5.234   2.967   4.057  0.0306  0.0540  0.6776
 2834TIP3    H2 8425   5.239   3.081   3.958  0.5101 -0.3213  0.2682
 2835TIP3   OH2 8426   3.612   7.894   2.960  0.7089 -0.0661  0.3099
 2835TIP3    H1 8427   3.580   7.855   3.042  2.2449  1.6644  1.7882
 2835TIP3    H2 8428   3.704   7.911   2.976  0.8626  0.9924 -1.5303
 2836TIP3   OH2 8429   3.122   2.483   3.261 -0.0491  0.1380  0.3643
 2836TIP3    H1 8430   3.214   2.502   3.241  0.2025 -0.2325  1.1455
 2836TIP3    H2 8431   3.105   2.399   3.218  0.6686 -0.9622  2.2099
 2837TIP3   OH2 8432   5.624   6.318   6.912  0.0026  0.3422 -0.0411
 2837TIP3    H1 8433   5.611   6.224   6.915  0.3317  0.3566  2.3054
 2837TIP3    H2 8434   5.719   6.330   6.912 -0.0028  0.6626 -2.0783
 2838TIP3   OH2 8435   6.667   0.955   3.457  0.1896 -0.0539 -0.2226
 2838TIP3    H1 8436   6.758   0.935   3.477 -1.0378 -3.8247  2.1858
 2838TIP3    H2 8437   6.646   0.899   3.382 -0.5430 -0.3864  0.2205
 2839TIP3   OH2 8438   3.845   0.989   3.032  0.4064  0.4727 -0.0613
 2839TIP3    H1 8439   3.900   0.979   3.109 -1.5198  0.4582  1.3450
 2839TIP3    H2 8440   3.843   0.902   2.992  0.0588  0.0631  0.8295
 2840TIP3   OH2 8441   4.276   2.606   2.471  0.0398 -0.4271  0.3826
 2840TIP3    H1 8442   4.363   2.623   2.435 -0.3315 -0.6955 -0.6609
 2840TIP3    H2 8443   4.277   2.647   2.557  1.2457 -0.5566  0.4317
 2841TIP3   OH2 8444   3.640   1.245   0.934 -0.3266 -0.3822  0.6622
 2841TIP3    H1 8445   3.607   1.156   0.948 -1.4296 -0.0684  0.1105
 2841TIP3    H2 8446   3.715   1.233   0.876 -0.8876 -0.8931  0.0350
 2842TIP3   OH2 8447   7.678   2.585   2.057  0.3347 -0.3350  0.2130
 2842TIP3    H1 8448   7.704   2.505   2.012 -0.6438 -1.1331  1.0238
 2842TIP3    H2 8449   7.582   2.579   2.062  0.2576  0.8886  0.2695
 2843TIP3   OH2 8450   4.553   4.161   1.882 -0.4616  0.2501 -0.2759
 2843TIP3    H1 8451   4.624   4.214   1.846  0.5542 -1.7539 -1.3096
 2843TIP3    H2 8452   4.516   4.115   1.807 -1.7365 -0.0412  0.5129
 2844TIP3   OH2 8453   5.205   2.340   2.928  0.2433 -0.0187  0.1501
 2844TIP3    H1 8454   5.158   2.421   2.945 -0.4365 -0.4847  0.5471
 2844TIP3    H2 8455   5.292   2.367   2.900 -0.3944  0.8716 -1.0114
 2845TIP3   OH2 8456   2.296   2.551   2.742 -0.0937  0.1969  0.3128
 2845TIP3    H1 8457   2.338   2.637   2.746  0.3942 -0.1058  2.1489
 2845TIP3    H2 8458   2.366   2.490   2.764 -1.0985 -0.4510  1.6851
 2846TIP3   OH2 8459   3.587   1.871   1.027 -0.3242 -0.2403  0.4576
 2846TIP3    H1 8460   3.577   1.947   0.970  0.1470 -0.2573  0.3524
 2846TIP3    H2 8461   3.502   1.864   1.072 -0.0254  0.9648  1.2364
 2847TIP3   OH2 8462   3.752   0.263   4.148 -0.0733 -0.8027  0.0147
 2847TIP3    H1 8463   3.682   0.232   4.204 -0.8653  0.0424 -0.4992
 2847TIP3    H2 8464   3.816   0.192   4.147 -0.0486 -0.8154  1.9848
 2848TIP3   OH2 8465   8.878   4.916   3.861 -0.1218  0.1348 -0.3671
 2848TIP3    H1 8466   8.800   4.963   3.830  0.5442  0.6307 -1.3272
 2848TIP3    H2 8467   8.864   4.825   3.835 -0.3932  0.2153 -0.5034
 2849TIP3   OH2 8468   2.217   4.219   3.729 -0.0678  0.8120  0.4887
 2849TIP3    H1 8469   2.189   4.201   3.639 -0.7308  0.0709  0.8345
 2849TIP3    H2 8470   2.313   4.213   3.726 -0.1564 -0.8292  0.1609
 2850TIP3   OH2 8471   6.207   5.789   6.839 -0.1515  0.6745 -0.0310
 2850TIP3    H1 8472   6.213   5.693   6.838 -0.9718  0.6240 -0.2041
 2850TIP3    H2 8473   6.258   5.817   6.764  1.5435  0.4542  1.0157
 2851TIP3   OH2 8474   4.928   3.262   3.818 -0.3250 -0.2077 -0.3352
 2851TIP3    H1 8475   5.011   3.296   3.784 -0.4246 -0.9374 -1.3286
 2851TIP3    H2 8476   4.879   3.235   3.740 -1.2026 -0.4558  0.2901
 2852TIP3   OH2 8477   4.728   2.382   2.092  0.8884  0.2369 -0.0753
 2852TIP3    H1 8478   4.790   2.389   2.164 -0.0272  2.4493  0.5481
 2852TIP3    H2 8479   4.694   2.471   2.081 -2.2195 -0.9282 -0.3693
 2853TIP3   OH2 8480   3.228   1.662   4.070 -0.2706 -0.5538 -0.7145
 2853TIP3    H1 8481   3.305   1.717   4.088 -0.3118 -0.5634 -0.5137
 2853TIP3    H2 8482   3.264   1.586   4.023 -0.0520 -0.9083  0.0060
 2854TIP3   OH2 8483   3.293   1.455   0.447  0.4557 -0.1969 -0.4021
 2854TIP3    H1 8484   3.199   1.463   0.461  0.4234 -0.8147 -0.2645
 2854TIP3    H2 8485   3.307   1.362   0.428  0.9218  0.0469 -1.2843
 2855TIP3   OH2 8486   5.177   2.084   6.942 -0.4392 -0.9353  0.1367
 2855TIP3    H1 8487   5.121   2.158   6.964  0.1794  0.0861 -1.5706
 2855TIP3    H2 8488   5.244   2.084   7.009 -0.3510  0.1714  0.0662
 2856TIP3   OH2 8489   2.894   2.332   2.674 -0.1701 -0.1889  0.0600
 2856TIP3    H1 8490   2.922   2.388   2.602 -0.9445 -0.1444 -0.2076
 2856TIP3    H2 8491   2.799   2.336   2.672 -0.2215  1.6690  2.4918
 2857TIP3   OH2 8492   5.402   5.216   1.895  0.2559  0.0556  0.0824
 2857TIP3    H1 8493   5.399   5.309   1.870  0.4800  0.5076  1.6694
 2857TIP3    H2 8494   5.487   5.186   1.864 -0.2637  0.0674 -1.4268
 2858TIP3   OH2 8495   5.128   1.142   4.650  0.2184  0.0766 -0.3359
 2858TIP3    H1 8496   5.042   1.170   4.681  1.0404  2.0501  0.2615
 2858TIP3    H2 8497   5.111   1.063   4.599 -1.7930 -0.2023  0.7475
 2859TIP3   OH2 8498   2.164   0.492   1.541  0.3348  0.0561  0.3634
 2859TIP3    H1 8499   2.077   0.481   1.579  0.6582 -2.2233  0.5584
 2859TIP3    H2 8500   2.154   0.562   1.477 -0.3772  3.5026  4.0887
 2860TIP3   OH2 8501   3.033   3.202   2.745  0.4461 -0.2936  0.2563
 2860TIP3    H1 8502   3.034   3.294   2.773  0.1765  0.0835 -0.9408
 2860TIP3    H2 8503   3.090   3.158   2.807  1.4350  0.8797  0.2141
 2861TIP3   OH2 8504   7.392   7.569   0.590  0.2687 -0.5219  0.1625
 2861TIP3    H1 8505   7.435   7.648   0.623  1.7509 -1.2197 -0.0919
 2861TIP3    H2 8506   7.463   7.515   0.555 -0.7173 -1.9849  0.3579
 2862TIP3   OH2 8507   4.475   2.960   4.581 -0.4484  0.0306 -0.1962
 2862TIP3    H1 8508   4.569   2.948   4.594 -0.1325  1.1998 -1.2764
 2862TIP3    H2 8509   4.462   3.055   4.592 -1.1509  0.1730 -2.0849
 2863TIP3   OH2 8510   3.619   2.222   1.746  0.3173 -0.0331  0.2723
 2863TIP3    H1 8511   3.549   2.282   1.721 -0.1841 -1.4762 -1.8967
 2863TIP3    H2 8512   3.697   2.255   1.700  0.7373  0.7012  1.4930
 2864TIP3   OH2 8513   5.706   2.692   1.108  0.0327  0.2700  0.4080
 2864TIP3    H1 8514   5.654   2.662   1.034  1.2464  1.4526 -0.9466
 2864TIP3    H2 8515   5.642   2.728   1.170 -1.0555 -1.4706  0.3183
 2865TIP3   OH2 8516   4.446   2.031   2.426 -0.1957  0.1249 -0.0274
 2865TIP3    H1 8517   4.502   2.083   2.367  0.5428  0.2036  0.7460
 2865TIP3    H2 8518   4.364   2.023   2.378 -0.0419  1.3107 -0.5259
 2866TIP3   OH2 8519   5.524   1.954   3.659  0.3469 -0.0498  0.4533
 2866TIP3    H1 8520   5.502   1.912   3.576 -1.6879  1.8486 -0.0272
 2866TIP3    H2 8521   5.510   1.887   3.725 -1.0782 -0.6546 -0.4592
 2867TIP3   OH2 8522   6.534   1.861   2.221  0.4089  0.2163  0.2558
 2867TIP3    H1 8523   6.558   1.940   2.269 -0.0643 -0.3152  1.4011
 2867TIP3    H2 8524   6.439   1.868   2.209  0.2695 -0.4611  0.9077
 2868TIP3   OH2 8525   4.870   3.675   4.901 -0.4499 -0.0554  0.2582
 2868TIP3    H1 8526   4.864   3.728   4.822 -0.1466  0.9493  0.8986
 2868TIP3    H2 8527   4.962   3.647   4.904 -0.6438 -0.7539 -0.1589
 2869TIP3   OH2 8528   3.485   1.214   2.927 -0.0459 -0.0455  0.3933
 2869TIP3    H1 8529   3.505   1.174   3.011  0.0074  0.8090  0.7838
 2869TIP3    H2 8530   3.437   1.146   2.879  1.2258 -1.0609  0.5382
 2870TIP3   OH2 8531   5.166   1.107   3.755  0.1495 -0.2051  0.5625
 2870TIP3    H1 8532   5.188   1.020   3.787  0.3573 -0.5502 -0.5064
 2870TIP3    H2 8533   5.205   1.167   3.820 -1.8410 -0.9126  2.4470
 2871TIP3   OH2 8534   5.513   1.809   3.440 -0.4762 -0.1093  0.2204
 2871TIP3    H1 8535   5.598   1.783   3.405 -0.7154  0.3542 -0.7299
 2871TIP3    H2 8536   5.450   1.781   3.373 -1.0325 -0.1221  0.7470
 2872TIP3   OH2 8537   3.188   7.394   6.799 -0.6013  0.2357 -0.3533
 2872TIP3    H1 8538   3.271   7.355   6.773 -0.5311 -0.0310  0.2587
 2872TIP3    H2 8539   3.212   7.471   6.850 -0.6771 -1.3755  2.2025
 2873TIP3   OH2 8540   4.815   2.587   3.053  0.2400 -0.3591 -0.0331
 2873TIP3    H1 8541   4.908   2.580   3.031  1.1029  1.0034  2.8266
 2873TIP3    H2 8542   4.788   2.498   3.075  1.1709 -0.5992  0.1465
 2874TIP3   OH2 8543   5.352   0.197   3.916  0.0822 -0.1334 -0.0641
 2874TIP3    H1 8544   5.430   0.242   3.948  0.1994 -1.2048  1.2001
 2874TIP3    H2 8545   5.386   0.125   3.862  0.0463 -1.5263  1.7124
 2875TIP3   OH2 8546   6.435   1.754   3.887  0.5391 -0.7710  0.1561
 2875TIP3    H1 8547   6.499   1.765   3.957  1.0068 -1.0650 -0.2175
 2875TIP3    H2 8548   6.470   1.805   3.814 -0.2814  0.0756  0.3501
 2876TIP3   OH2 8549   5.685   1.028   2.137 -0.2701 -0.2781  0.0271
 2876TIP3    H1 8550   5.702   1.011   2.230 -0.0852  0.7645  0.1854
 2876TIP3    H2 8551   5.751   1.092   2.111 -0.0468 -0.8899 -0.9352
 2877TIP3   OH2 8552   1.280   2.610   3.263  0.3053  0.2610 -0.5059
 2877TIP3    H1 8553   1.288   2.596   3.357  2.0183  1.3167 -0.4733
 2877TIP3    H2 8554   1.351   2.559   3.224 -1.1149 -1.1282 -1.3482
 2878TIP3   OH2 8555   4.301   1.112   1.734 -0.2690 -0.1887  0.3044
 2878TIP3    H1 8556   4.364   1.089   1.802 -0.8939 -0.2513  0.8682
 2878TIP3    H2 8557   4.262   1.194   1.765  0.8703  0.8493 -0.9551
 2879TIP3   OH2 8558   3.165   1.620   1.923 -0.4348  0.3349  0.5700
 2879TIP3    H1 8559   3.178   1.530   1.895  1.7665  1.0882 -0.9947
 2879TIP3    H2 8560   3.197   1.673   1.850  0.4765  2.3673  2.3750
 2880TIP3   OH2 8561   3.304   3.208   3.589  0.2943 -0.4526 -0.3661
 2880TIP3    H1 8562   3.298   3.209   3.684 -1.0139 -0.5052 -0.4415
 2880TIP3    H2 8563   3.335   3.120   3.567 -1.1516 -1.0448 -0.0766
 2881TIP3   OH2 8564   5.593   2.112   3.322 -0.0262 -0.2502 -0.3079
 2881TIP3    H1 8565   5.604   2.129   3.416 -1.7479  0.1014 -0.1475
 2881TIP3    H2 8566   5.680   2.124   3.285  1.0378 -2.1331  1.5137
 2882TIP3   OH2 8567   3.978   5.464   5.217 -0.1671 -0.0447 -0.3866
 2882TIP3    H1 8568   4.017   5.421   5.294 -2.2196 -1.6330 -0.2113
 2882TIP3    H2 8569   4.031   5.433   5.143 -0.9454 -2.0201 -0.1301
 2883TIP3   OH2 8570   6.748   1.898   3.925  0.0696  0.3889 -0.7191
 2883TIP3    H1 8571   6.774   1.823   3.872 -1.5858 -0.5863 -0.1937
 2883TIP3    H2 8572   6.756   1.868   4.015  2.4726  1.9074 -0.3681
 2884TIP3   OH2 8573   2.998   1.326   1.575 -0.4702 -0.1809 -0.0104
 2884TIP3    H1 8574   2.969   1.244   1.615  0.5884  0.0113  1.1964
 2884TIP3    H2 8575   2.963   1.394   1.633  2.2182  0.0577  1.4095
 2885TIP3   OH2 8576   3.899   3.890   2.948  0.2557 -0.3407  0.0567
 2885TIP3    H1 8577   3.906   3.981   2.921 -0.4690 -0.1076  0.6176
 2885TIP3    H2 8578   3.896   3.893   3.044 -0.3809 -0.8973  0.0650
 2886TIP3   OH2 8579   4.970   2.606   1.001 -0.2303 -0.0475  0.1061
 2886TIP3    H1 8580   5.031   2.546   1.046  0.9245  0.1196 -1.2022
 2886TIP3    H2 8581   4.990   2.692   1.037  1.3793  0.2369 -1.3901
 2887TIP3   OH2 8582   3.256   3.246   4.432  0.4189  0.3201 -0.2709
 2887TIP3    H1 8583   3.212   3.161   4.436  1.8898 -0.3961  2.0965
 2887TIP3    H2 8584   3.323   3.235   4.364 -0.8699  0.3528 -1.5683
 2888TIP3   OH2 8585   5.118   3.918   3.549  0.6750 -0.0571  0.2869
 2888TIP3    H1 8586   5.081   4.000   3.516  1.0719  0.1376  0.3268
 2888TIP3    H2 8587   5.146   3.872   3.470 -0.5471 -0.6415  0.1811
 2889TIP3   OH2 8588   6.468   1.807   3.185  0.5951 -0.0987  0.3699
 2889TIP3    H1 8589   6.533   1.825   3.117  0.9774 -1.4406  0.3657
 2889TIP3    H2 8590   6.447   1.893   3.222 -0.4443  0.8045 -2.1900
 2890TIP3   OH2 8591   4.188   1.407   4.491 -0.2509 -0.5603  0.4141
 2890TIP3    H1 8592   4.160   1.484   4.441 -0.9146 -0.7701  0.4598
 2890TIP3    H2 8593   4.207   1.341   4.424  1.4492 -0.0093  0.3077
 2891TIP3   OH2 8594   4.476   3.620   4.190 -0.3601  0.1006  0.2803
 2891TIP3    H1 8595   4.493   3.712   4.210 -0.0400  0.2213 -0.5489
 2891TIP3    H2 8596   4.385   3.606   4.219 -0.3267  0.6047  0.6353
 2892TIP3   OH2 8597   5.736   1.532   4.163 -0.6543 -0.2648 -0.0750
 2892TIP3    H1 8598   5.738   1.567   4.252 -1.0510 -1.0903  0.2717
 2892TIP3    H2 8599   5.828   1.528   4.137 -0.5192 -0.2384  0.3920
 2893TIP3   OH2 8600   4.217   0.707   3.342  0.4481 -0.1599 -0.0030
 2893TIP3    H1 8601   4.256   0.780   3.293  0.3165 -1.3093 -1.8669
 2893TIP3    H2 8602   4.175   0.653   3.275  1.0115 -2.2440  1.2886
 2894TIP3   OH2 8603   5.257   0.125   3.317 -0.3502 -0.3438  0.6112
 2894TIP3    H1 8604   5.268   0.030   3.310  0.2881 -0.2571  0.4527
 2894TIP3    H2 8605   5.308   0.161   3.245  0.1894  0.1644  1.2365
 2895TIP3   OH2 8606   4.046   0.366   3.194 -0.2664 -0.1866 -0.5548
 2895TIP3    H1 8607   4.128   0.349   3.240  0.2275  2.9528 -0.1642
 2895TIP3    H2 8608   4.005   0.279   3.185  1.4421 -1.3708  2.3039
 2896TIP3   OH2 8609   5.529   1.926   2.383  0.3690 -0.3747  0.0865
 2896TIP3    H1 8610   5.532   1.905   2.476 -0.2795 -0.2212  0.1491
 2896TIP3    H2 8611   5.582   1.859   2.340 -2.3443 -2.6698  0.1859
 2897TIP3   OH2 8612   3.919   1.802   3.075  0.2381  0.1387 -0.0597
 2897TIP3    H1 8613   3.958   1.818   2.989  0.4100  2.2302  0.3603
 2897TIP3    H2 8614   3.829   1.775   3.056  1.6187 -4.1865 -1.0111
 2898TIP3   OH2 8615   6.028   2.027   4.413  0.4158  0.2195  0.1311
 2898TIP3    H1 8616   5.949   1.993   4.370  0.1999  1.2370 -0.2954
 2898TIP3    H2 8617   6.094   2.027   4.343  0.1780  1.4858 -0.0998
 2899TIP3   OH2 8618   2.187   0.096   1.772 -0.0275 -0.1308 -0.3043
 2899TIP3    H1 8619   2.153   0.008   1.752  1.1767 -0.1128 -2.6307
 2899TIP3    H2 8620   2.259   0.080   1.833  0.5708 -0.8149 -1.1792
 2900TIP3   OH2 8621   5.771   3.789   5.484  0.4998 -0.1149 -0.1178
 2900TIP3    H1 8622   5.732   3.877   5.485  0.3845 -0.1832  1.2848
 2900TIP3    H2 8623   5.773   3.766   5.391 -2.9126 -0.1685 -0.2297
 2901TIP3   OH2 8624   2.033   2.880   2.950  0.2807 -0.3904 -0.3619
 2901TIP3    H1 8625   1.977   2.954   2.973 -1.4080 -1.9959  0.8765
 2901TIP3    H2 8626   2.080   2.908   2.871 -2.1176  1.0922 -1.3019
 2902TIP3   OH2 8627   6.262   2.009   3.980 -0.6191  0.0590  0.3069
 2902TIP3    H1 8628   6.222   2.085   3.938 -0.6305  0.0281  0.2618
 2902TIP3    H2 8629   6.308   1.964   3.910 -0.4313  0.1442  0.3769
 2903TIP3   OH2 8630   5.809   0.346   2.816  0.2033  0.1289  0.0196
 2903TIP3    H1 8631   5.822   0.288   2.741 -0.6384  1.2763 -1.0423
 2903TIP3    H2 8632   5.736   0.308   2.864 -0.6358  0.5391 -0.9191
 2904TIP3   OH2 8633   2.163   0.842   2.976  0.1596 -0.1440  0.3090
 2904TIP3    H1 8634   2.242   0.802   3.012  1.1021  1.5553  0.1662
 2904TIP3    H2 8635   2.124   0.891   3.048  0.5978  1.0662 -0.2627
 2905TIP3   OH2 8636   4.432   1.962   2.704 -0.0773 -0.1151 -0.1226
 2905TIP3    H1 8637   4.448   1.976   2.610 -1.0650 -0.5170 -0.3591
 2905TIP3    H2 8638   4.354   2.015   2.723 -1.3309 -1.9317 -0.0805
 2906TIP3   OH2 8639   3.591   2.657   4.466 -0.1084  0.3258 -0.5645
 2906TIP3    H1 8640   3.595   2.565   4.441  0.8237  0.2812 -0.2645
 2906TIP3    H2 8641   3.578   2.704   4.383  2.3415  0.1333 -1.1116
 2907TIP3   OH2 8642   4.211   2.772   2.681 -0.1728  0.1443 -0.1297
 2907TIP3    H1 8643   4.117   2.780   2.667 -0.6338 -1.7740  1.5862
 2907TIP3    H2 8644   4.219   2.751   2.774  1.9485  0.3248 -0.2541
 2908TIP3   OH2 8645   5.085   2.363   2.638  0.1647 -0.0659  0.2261
 2908TIP3    H1 8646   5.047   2.433   2.690  0.3227  0.0790  0.1460
 2908TIP3    H2 8647   5.081   2.286   2.695  0.2326  0.0670  0.4099
 2909TIP3   OH2 8648   5.772   3.453   4.145  0.0818 -0.4422 -0.2106
 2909TIP3    H1 8649   5.791   3.385   4.210 -1.7686 -1.2140 -0.4583
 2909TIP3    H2 8650   5.692   3.495   4.175 -2.3495 -2.5972 -3.3513
 2910TIP3   OH2 8651   4.707   4.630   2.777 -0.3309 -0.0984 -0.2840
 2910TIP3    H1 8652   4.669   4.698   2.722  0.4466  0.6629  0.0950
 2910TIP3    H2 8653   4.790   4.608   2.735 -1.4289 -2.2115 -1.4611
 2911TIP3   OH2 8654   6.806   1.725   2.777 -0.7454 -0.4320  0.4511
 2911TIP3    H1 8655   6.751   1.712   2.854 -0.1880 -0.4639  0.8480
 2911TIP3    H2 8656   6.802   1.819   2.761 -0.4002 -0.3414  0.8729
 2912TIP3   OH2 8657   3.104   3.023   5.849 -0.1678 -0.3554 -0.2528
 2912TIP3    H1 8658   3.185   3.044   5.803 -0.4556 -0.3244 -0.7429
 2912TIP3    H2 8659   3.057   3.106   5.856  0.9929  0.1461  2.3096
 2913TIP3   OH2 8660   4.685   3.260   4.916  0.0586 -0.1800 -0.1931
 2913TIP3    H1 8661   4.659   3.236   5.005  2.3802  0.0428  0.5806
 2913TIP3    H2 8662   4.658   3.352   4.907  0.2511 -0.0556  0.4619
 2914TIP3   OH2 8663   5.004   2.666   2.074 -0.5871 -0.3402 -0.2643
 2914TIP3    H1 8664   4.914   2.639   2.094 -0.6755  1.0332  1.3351
 2914TIP3    H2 8665   5.020   2.740   2.133  1.3271 -0.0796 -1.0853
 2915TIP3   OH2 8666   5.568   2.426   2.640  0.3105  0.2906  0.0713
 2915TIP3    H1 8667   5.662   2.443   2.631  0.6054 -1.0521  0.5967
 2915TIP3    H2 8668   5.555   2.405   2.732 -0.2488 -1.0551 -0.3004
 2916TIP3   OH2 8669   6.258   2.034   1.471 -0.0268  0.2594 -0.7124
 2916TIP3    H1 8670   6.272   2.011   1.379  2.1192  1.9709 -0.8450
 2916TIP3    H2 8671   6.167   2.066   1.474 -0.6980 -1.5134 -1.8583
 2917TIP3   OH2 8672   1.345   3.986   3.708  0.1403 -0.1971 -0.1690
 2917TIP3    H1 8673   1.418   3.925   3.700 -0.4303 -0.9154  0.1232
 2917TIP3    H2 8674   1.372   4.046   3.778  0.5686 -0.2853 -0.2545
 2918TIP3   OH2 8675   3.705   1.309   3.522 -0.4407  0.3673 -0.3849
 2918TIP3    H1 8676   3.789   1.342   3.488 -0.1253 -1.5933 -1.6100
 2918TIP3    H2 8677   3.661   1.387   3.555  1.4726  1.5856 -0.5695
 2919TIP3   OH2 8678   6.246   1.944   3.308  0.4468 -0.5812  0.1733
 2919TIP3    H1 8679   6.226   1.927   3.216  4.4301 -0.8249 -0.7011
 2919TIP3    H2 8680   6.220   1.864   3.353 -3.6206  0.3298 -0.2815
 2920TIP3   OH2 8681   6.114   2.874   4.148 -0.1748 -0.3617 -0.1277
 2920TIP3    H1 8682   6.036   2.862   4.202 -0.4606  1.8452  0.0101
 2920TIP3    H2 8683   6.144   2.963   4.169  0.9074 -0.2435 -2.0495
 2921TIP3   OH2 8684   4.456   3.601   1.531 -0.3634  0.2422  0.3178
 2921TIP3    H1 8685   4.397   3.593   1.606  0.1760 -0.9669  0.6131
 2921TIP3    H2 8686   4.502   3.518   1.527 -0.9554 -0.0114 -1.8328
 2922TIP3   OH2 8687   7.135   1.782   3.574 -0.0455 -0.2257  0.1998
 2922TIP3    H1 8688   7.131   1.698   3.527  1.7602 -0.1088 -0.1633
 2922TIP3    H2 8689   7.048   1.820   3.561 -0.3970 -1.3635 -0.8894
 2923TIP3   OH2 8690   6.637   0.897   4.196 -0.0465 -0.2540  0.2953
 2923TIP3    H1 8691   6.585   0.966   4.237 -0.2940  0.7403 -1.6405
 2923TIP3    H2 8692   6.572   0.835   4.162  0.0554  0.5692 -1.4074
 2924TIP3   OH2 8693   4.683   2.475   3.568  0.3456 -0.4894  0.0373
 2924TIP3    H1 8694   4.590   2.494   3.565  0.4382  0.0219  0.2404
 2924TIP3    H2 8695   4.719   2.543   3.625  1.1489  0.5530 -1.6717
 2925TIP3   OH2 8696   4.853   2.118   2.475 -0.1106  0.2449 -0.6373
 2925TIP3    H1 8697   4.870   2.121   2.569  0.2794  0.5280 -0.7135
 2925TIP3    H2 8698   4.791   2.046   2.464 -1.9332  1.6689  0.0828
 2926TIP3   OH2 8699   4.660   1.313   3.775  0.1085  0.9128  0.6585
 2926TIP3    H1 8700   4.752   1.342   3.770  0.1764  0.5063 -0.5608
 2926TIP3    H2 8701   4.656   1.262   3.856  0.7297  1.7319  1.2178
 2927TIP3   OH2 8702   4.146   0.618   3.583  0.0525  0.6571  0.5222
 2927TIP3    H1 8703   4.180   0.624   3.493 -0.8463  0.6090  0.1674
 2927TIP3    H2 8704   4.125   0.708   3.607  0.4004  0.6827  0.7236
 2928TIP3   OH2 8705   1.435   2.808   2.319  0.1042  0.3764 -0.1308
 2928TIP3    H1 8706   1.370   2.814   2.249  0.5841  0.1490 -0.5973
 2928TIP3    H2 8707   1.488   2.887   2.308  1.2613 -0.5222 -1.1093
 2929TIP3   OH2 8708   4.291   0.026   3.741  0.3828 -0.4761  0.3073
 2929TIP3    H1 8709   4.323   0.116   3.736 -2.1505  0.6531  2.7078
 2929TIP3    H2 8710   4.350  -0.018   3.803  0.6956 -0.0290  0.3234
 2930TIP3   OH2 8711   5.468   1.409   3.301 -0.1731 -0.1357 -0.2804
 2930TIP3    H1 8712   5.431   1.404   3.213  2.5736 -1.0036 -1.4552
 2930TIP3    H2 8713   5.418   1.346   3.352 -1.3612 -0.1066 -1.3692
 2931TIP3   OH2 8714   3.893   1.011   1.959 -0.2280  0.0236  0.5864
 2931TIP3    H1 8715   3.926   1.068   1.889  0.4768  0.7943  1.5348
 2931TIP3    H2 8716   3.931   1.047   2.039 -1.2396 -0.6975  1.4004
 2932TIP3   OH2 8717   4.887   3.621   3.788  0.3544 -0.4004 -0.1401
 2932TIP3    H1 8718   4.891   3.551   3.853  0.7204 -0.6261 -0.4058
 2932TIP3    H2 8719   4.973   3.663   3.792 -0.6978  1.6432  1.7921
 2933TIP3   OH2 8720   6.080   0.339   3.141  0.5458 -0.4130 -0.1782
 2933TIP3    H1 8721   6.149   0.308   3.082  0.8515 -2.1847  1.0600
 2933TIP3    H2 8722   6.116   0.326   3.229 -0.0309  1.8907  0.4391
 2934TIP3   OH2 8723   6.741   2.322   4.910  0.7721 -0.0014  0.0540
 2934TIP3    H1 8724   6.730   2.228   4.894  1.5314  0.0057 -0.5022
 2934TIP3    H2 8725   6.691   2.364   4.840 -0.1173  0.0141  0.6869
 2935TIP3   OH2 8726   1.767   3.280   2.203  0.8303 -0.1541 -0.3261
 2935TIP3    H1 8727   1.855   3.315   2.213  0.7924  0.5874 -2.4137
 2935TIP3    H2 8728   1.758   3.218   2.276  2.0331  1.8098  1.5777
 2936TIP3   OH2 8729   6.214   0.400   3.399 -0.2849  0.4090  0.1874
 2936TIP3    H1 8730   6.178   0.474   3.448  1.0748  1.4696 -0.3625
 2936TIP3    H2 8731   6.305   0.395   3.427  1.0285  2.1897 -3.4656
 2937TIP3   OH2 8732   5.413   2.784   3.635 -0.1847  0.2487  0.6147
 2937TIP3    H1 8733   5.345   2.843   3.667 -1.5024 -1.2151  0.5602
 2937TIP3    H2 8734   5.439   2.734   3.713  0.6087  0.5595  0.5620
 2938TIP3   OH2 8735   7.927   0.260   1.733 -0.0773  0.2217  0.4776
 2938TIP3    H1 8736   7.876   0.250   1.653 -1.7994 -1.1739  1.7010
 2938TIP3    H2 8737   7.875   0.319   1.787  1.1631  1.3007  0.5062
 2939TIP3   OH2 8738   6.093   1.470   2.122  0.0311  0.7680 -0.4472
 2939TIP3    H1 8739   6.111   1.507   2.036 -0.2882  0.7890 -0.5052
 2939TIP3    H2 8740   6.011   1.512   2.150 -0.7735 -0.4903 -0.8622
 2940TIP3   OH2 8741   8.036   2.597   3.480 -0.2452  0.2538 -0.0791
 2940TIP3    H1 8742   8.065   2.648   3.555  2.1950 -0.4442 -0.4954
 2940TIP3    H2 8743   7.963   2.544   3.513 -0.2086  1.0991  1.3678
 2941TIP3   OH2 8744   6.061   3.044   3.079 -0.3144 -0.2372  0.0174
 2941TIP3    H1 8745   6.071   3.131   3.117  1.6180  0.4345 -1.8851
 2941TIP3    H2 8746   6.070   2.984   3.153  0.6929  1.1009  1.0087
 2942TIP3   OH2 8747   6.733   1.838   2.023 -0.3331 -0.1496  0.4422
 2942TIP3    H1 8748   6.712   1.812   1.934  0.2682  0.8370  0.0004
 2942TIP3    H2 8749   6.661   1.804   2.076  0.2454 -2.3682 -0.1430
 2943TIP3   OH2 8750   8.394   3.971   3.461 -0.3691  0.4009 -0.2507
 2943TIP3    H1 8751   8.383   3.885   3.501  0.6039  0.2833 -0.2234
 2943TIP3    H2 8752   8.336   3.970   3.385 -0.0134 -0.4487 -0.5184
 2944TIP3   OH2 8753   6.267   2.229   4.270  0.4681  0.5035 -0.1681
 2944TIP3    H1 8754   6.327   2.273   4.210  1.6514  0.2256  0.7971
 2944TIP3    H2 8755   6.284   2.136   4.258 -0.4365  0.3883 -0.5709
 2945TIP3   OH2 8756   6.079   4.187   2.987  0.0189 -0.1501  0.4381
 2945TIP3    H1 8757   6.005   4.219   3.040 -0.0740 -0.8651  0.7514
 2945TIP3    H2 8758   6.048   4.104   2.951  0.9874 -0.9076  1.3029
 2946TIP3   OH2 8759   8.119   0.020   2.318  0.3260 -0.4921 -0.0072
 2946TIP3    H1 8760   8.167   0.006   2.400 -1.3251  0.0707  1.1020
 2946TIP3    H2 8761   8.028  -0.003   2.340 -0.1083 -0.5075 -1.7395
 2947TIP3   OH2 8762   1.648   5.084   6.624  0.3790  0.6093  0.9617
 2947TIP3    H1 8763   1.556   5.077   6.647  0.4104  1.4110  1.3331
 2947TIP3    H2 8764   1.657   5.170   6.584  0.8473  0.2820  0.3494
 2948TIP3   OH2 8765   5.381   2.129   2.783  0.4533 -0.0068  0.4419
 2948TIP3    H1 8766   5.388   2.217   2.819  1.1453  0.2628 -0.3151
 2948TIP3    H2 8767   5.472   2.101   2.770  0.2350  0.3249 -2.0343
 2949TIP3   OH2 8768   6.052   1.327   3.552  0.1122  0.6482 -0.3664
 2949TIP3    H1 8769   6.116   1.257   3.564 -1.1869 -0.2009  1.9447
 2949TIP3    H2 8770   5.987   1.291   3.491 -0.4093 -0.0645  0.6073
 2950TIP3   OH2 8771   6.855   0.905   1.149  0.2388  0.2053 -0.8842
 2950TIP3    H1 8772   6.884   0.947   1.230  0.0566  0.1207 -0.7742
 2950TIP3    H2 8773   6.778   0.954   1.123  0.5132  0.4653 -1.2072
 2951TIP3   OH2 8774   6.741   1.072   4.738  0.4532 -0.2196  0.6123
 2951TIP3    H1 8775   6.831   1.090   4.764  0.1675  0.0431  1.4550
 2951TIP3    H2 8776   6.724   0.983   4.768  0.7833 -0.6634 -0.5252
 2952TIP3   OH2 8777   1.765   8.289   3.743 -0.1950  0.6098  0.4607
 2952TIP3    H1 8778   1.846   8.259   3.786 -1.0962 -1.3874  0.8445
 2952TIP3    H2 8779   1.794   8.353   3.679  2.1444 -2.7049 -1.9805
 2953TIP3   OH2 8780   7.361   0.507   2.622  0.0059 -0.0172  0.3012
 2953TIP3    H1 8781   7.296   0.441   2.597  1.6118 -1.8012  0.6523
 2953TIP3    H2 8782   7.415   0.463   2.687  0.4326  2.0625  1.3762
 2954TIP3   OH2 8783   6.319   0.960   4.104  0.5017  0.0595 -0.0601
 2954TIP3    H1 8784   6.297   0.976   4.195  1.3327  0.3699  0.0898
 2954TIP3    H2 8785   6.378   0.884   4.106 -1.1629 -1.2744 -0.5223
 2955TIP3   OH2 8786   7.866   0.781   2.479 -0.2252 -0.1153 -0.1852
 2955TIP3    H1 8787   7.774   0.779   2.504 -0.7920 -1.5293 -2.2370
 2955TIP3    H2 8788   7.869   0.737   2.394  2.1311  1.2559 -0.8762
 2956TIP3   OH2 8789   6.944   1.509   2.961 -0.3116  0.4074  0.3163
 2956TIP3    H1 8790   6.936   1.473   3.049  1.2056  1.7198  1.0087
 2956TIP3    H2 8791   6.870   1.570   2.953  1.1328  2.4152  1.7510
 2957TIP3   OH2 8792   5.924   2.713   2.617  0.1256  0.0207 -0.1056
 2957TIP3    H1 8793   5.865   2.641   2.594  1.4797 -0.5234 -1.9899
 2957TIP3    H2 8794   5.915   2.775   2.545  1.4961  0.1395 -0.1881
 2958TIP3   OH2 8795   6.852   5.414   6.854  0.2242 -0.2579  0.1075
 2958TIP3    H1 8796   6.885   5.481   6.913  1.9784 -0.0193 -1.1108
 2958TIP3    H2 8797   6.844   5.336   6.908  1.3417  0.0836  0.7727
 2959TIP3   OH2 8798   5.872   4.587   1.808 -0.1456  0.4914  0.3910
 2959TIP3    H1 8799   5.959   4.548   1.794  0.5560  1.6249  1.4140
 2959TIP3    H2 8800   5.846   4.557   1.895 -0.9577 -0.1530 -0.0690
 2960TIP3   OH2 8801   4.623   2.494   0.913 -0.1645 -0.5870 -0.1406
 2960TIP3    H1 8802   4.580   2.577   0.893  0.7046  0.6171  2.6271
 2960TIP3    H2 8803   4.711   2.504   0.879  0.1184 -0.1035  0.7028
 2961TIP3   OH2 8804   7.163   2.378   1.878 -0.5220 -0.0277 -0.4110
 2961TIP3    H1 8805   7.109   2.307   1.912 -1.3742  1.1224  0.6782
 2961TIP3    H2 8806   7.227   2.396   1.947 -2.7410  2.8292  0.9808
 2962TIP3   OH2 8807   6.326   1.332   2.186  0.2022 -0.5726 -0.2542
 2962TIP3    H1 8808   6.393   1.396   2.160  0.1241 -0.6521 -0.6447
 2962TIP3    H2 8809   6.243   1.379   2.178  0.2507 -0.2871  0.8002
 2963TIP3   OH2 8810   3.402   4.038   1.017  0.4178 -0.0446 -0.1822
 2963TIP3    H1 8811   3.361   4.070   0.936  1.0597  0.4054 -0.3304
 2963TIP3    H2 8812   3.380   4.105   1.082  0.6412  0.0308 -0.1857
 2964TIP3   OH2 8813   4.860   1.200   1.972  0.6026  0.4661 -0.2334
 2964TIP3    H1 8814   4.918   1.248   1.912 -0.7297  0.1058 -1.8659
 2964TIP3    H2 8815   4.781   1.255   1.978 -0.4699 -0.9298 -1.2061
 2965TIP3   OH2 8816   7.212   3.515   0.967 -0.1059  0.1333 -0.2309
 2965TIP3    H1 8817   7.184   3.428   0.936  0.2369  0.1691 -0.6410
 2965TIP3    H2 8818   7.158   3.577   0.918 -0.1913  0.1612 -0.1027
 2966TIP3   OH2 8819   6.212   2.880   3.519  0.0232 -0.0580  0.6837
 2966TIP3    H1 8820   6.217   2.955   3.578 -1.3370 -0.4639  1.3370
 2966TIP3    H2 8821   6.287   2.826   3.541 -1.1053 -0.7826  2.8737
 2967TIP3   OH2 8822   7.038   2.286   1.610 -0.6251 -0.8619  0.0984
 2967TIP3    H1 8823   7.044   2.285   1.706  0.9296 -1.3322 -0.0012
 2967TIP3    H2 8824   6.947   2.264   1.592 -1.1078 -0.0855  1.4887
 2968TIP3   OH2 8825   6.062   0.831   3.185  0.1142 -0.0531 -0.0635
 2968TIP3    H1 8826   6.052   0.859   3.276  0.3428  1.6236 -0.5375
 2968TIP3    H2 8827   5.988   0.772   3.170  0.5959 -1.0715  1.4755
 2969TIP3   OH2 8828   4.177   0.576   0.785 -0.5077  0.0208 -0.3260
 2969TIP3    H1 8829   4.106   0.580   0.849  0.5308  2.4368  0.7122
 2969TIP3    H2 8830   4.136   0.540   0.707 -2.4254 -0.4402  0.8488
 2970TIP3   OH2 8831   5.614   8.191   1.696 -0.7096 -0.3674 -0.2473
 2970TIP3    H1 8832   5.652   8.205   1.783 -1.7957  1.0366  0.0162
 2970TIP3    H2 8833   5.529   8.149   1.713 -1.6116  1.3068 -0.5285
 2971TIP3   OH2 8834   5.275   7.894   2.932 -0.0540 -0.5407  0.1309
 2971TIP3    H1 8835   5.312   7.827   2.874 -0.3053 -1.6308  1.2064
 2971TIP3    H2 8836   5.215   7.846   2.989 -1.3791  0.8553 -0.0769
 2972TIP3   OH2 8837   3.492   6.921   2.677  0.4052 -1.1798 -0.1982
 2972TIP3    H1 8838   3.546   6.953   2.750 -1.5622  1.8894 -0.0028
 2972TIP3    H2 8839   3.415   6.882   2.719 -1.6947  2.3864 -0.5827
 2973TIP3   OH2 8840   6.486   0.643   2.160 -0.2165  0.9902  0.2688
 2973TIP3    H1 8841   6.460   0.643   2.252  1.1075  2.0330  0.6652
 2973TIP3    H2 8842   6.419   0.591   2.115 -0.4003 -0.2456  1.9500
 2974TIP3   OH2 8843   5.609   0.384   4.990  0.1773 -0.5093 -0.0777
 2974TIP3    H1 8844   5.581   0.394   4.899  0.9712 -0.7236 -0.3542
 2974TIP3    H2 8845   5.701   0.410   4.989 -0.1200  0.6160  0.8938
 2975TIP3   OH2 8846   6.010   2.898   3.300  0.0617 -0.3282  0.1873
 2975TIP3    H1 8847   6.054   2.903   3.385  1.2794 -1.7018 -0.3321
 2975TIP3    H2 8848   5.948   2.970   3.301  0.7846  0.3073  1.8390
 2976TIP3   OH2 8849   6.786   1.493   0.854  0.4401  0.1409 -0.0335
 2976TIP3    H1 8850   6.832   1.576   0.839  1.2605 -0.3707 -0.4250
 2976TIP3    H2 8851   6.716   1.514   0.916 -0.1233  1.3699 -1.0798
 2977TIP3   OH2 8852   7.030   1.714   2.126 -0.3178 -0.1384  0.2802
 2977TIP3    H1 8853   7.028   1.672   2.040  0.0671 -1.4964  0.9195
 2977TIP3    H2 8854   6.947   1.691   2.166 -1.3465  2.1218 -0.4547
 2978TIP3   OH2 8855   4.253   1.111   5.114  0.5514 -0.0646 -0.2290
 2978TIP3    H1 8856   4.170   1.154   5.095  0.8221 -0.3225 -2.0948
 2978TIP3    H2 8857   4.313   1.184   5.133 -0.0771  0.1188  1.1429
 2979TIP3   OH2 8858   5.858   2.122   3.133  0.0444 -0.3255  0.2570
 2979TIP3    H1 8859   5.895   2.055   3.191 -1.4731 -0.9446  0.5118
 2979TIP3    H2 8860   5.857   2.080   3.046  0.1248 -0.2257  0.2072
 2980TIP3   OH2 8861   6.742   6.111   1.472 -0.2982  0.4926 -0.1969
 2980TIP3    H1 8862   6.784   6.067   1.398  0.1391 -0.8635  0.8390
 2980TIP3    H2 8863   6.650   6.084   1.467  0.4584 -2.7989  1.9819
 2981TIP3   OH2 8864   5.287   2.008   2.163  0.5093 -0.0173 -0.8213
 2981TIP3    H1 8865   5.290   1.912   2.157  1.5441 -0.1418  1.2375
 2981TIP3    H2 8866   5.243   2.024   2.247 -0.2973  1.3210 -1.4991
 2982TIP3   OH2 8867   5.786   1.581   1.430  0.5245  0.0302  0.2126
 2982TIP3    H1 8868   5.864   1.608   1.479 -0.5777  0.4464  1.7816
 2982TIP3    H2 8869   5.810   1.499   1.388  0.8879 -1.3326  3.0214
 2983TIP3   OH2 8870   6.676   1.549   1.697 -0.1795  0.0322 -0.9750
 2983TIP3    H1 8871   6.751   1.490   1.695 -0.4641 -0.3119 -2.3642
 2983TIP3    H2 8872   6.666   1.577   1.606 -0.8740  1.1656 -0.5537
 2984TIP3   OH2 8873   6.179   3.271   3.246  0.1116  0.0908 -0.0550
 2984TIP3    H1 8874   6.241   3.212   3.288  1.7266  2.5000  1.0671
 2984TIP3    H2 8875   6.185   3.352   3.296 -1.1020  1.6505 -2.3139
 2985TIP3   OH2 8876   6.567   2.189   3.664  0.5377  0.2035 -0.3689
 2985TIP3    H1 8877   6.498   2.251   3.640  1.1719  0.4631 -1.5372
 2985TIP3    H2 8878   6.641   2.243   3.688 -0.1500 -0.0463  2.4859
 2986TIP3   OH2 8879   7.023   3.230   4.133  0.4678  0.0752 -0.1804
 2986TIP3    H1 8880   6.991   3.308   4.088 -1.4766 -0.0839  0.8507
 2986TIP3    H2 8881   7.021   3.162   4.067  1.0613  0.6304 -0.7822
 2987TIP3   OH2 8882   5.399   3.014   3.010  0.5301  0.0259 -0.0516
 2987TIP3    H1 8883   5.330   3.025   3.076 -0.1357 -0.5048 -0.6414
 2987TIP3    H2 8884   5.479   3.039   3.055  0.3646 -2.1663  1.5775
 2988TIP3   OH2 8885   0.603   6.330   6.649 -0.1735  0.0762 -0.2169
 2988TIP3    H1 8886   0.513   6.297   6.653  0.2603 -0.9596  1.3779
 2988TIP3    H2 8887   0.602   6.393   6.577 -2.2610  0.3258 -0.0067
 2989TIP3   OH2 8888   5.952   0.128   3.392 -0.8666  0.1061  0.0011
 2989TIP3    H1 8889   5.928   0.167   3.308 -0.2481  0.1662 -0.1497
 2989TIP3    H2 8890   5.969   0.202   3.450  0.6952  0.0711 -0.3976
 2990TIP3   OH2 8891   5.936   1.707   3.040 -0.2245 -0.0287  0.0983
 2990TIP3    H1 8892   6.010   1.678   2.987 -1.2233 -1.1773 -0.6838
 2990TIP3    H2 8893   5.905   1.628   3.084  0.6893  0.9237  2.5709
 2991TIP3   OH2 8894   6.455   3.313   1.216  0.1491 -0.3562  0.5280
 2991TIP3    H1 8895   6.539   3.345   1.183  0.7707 -0.2234  2.1478
 2991TIP3    H2 8896   6.447   3.354   1.302  0.0892 -3.0317  1.8561
 2992TIP3   OH2 8897   7.351   1.439   0.643  0.2174 -0.0604  0.2494
 2992TIP3    H1 8898   7.391   1.507   0.589 -0.4838 -0.5587 -0.9089
 2992TIP3    H2 8899   7.386   1.357   0.610 -0.4746 -0.3933  0.3240
 2993TIP3   OH2 8900   5.473   3.465   1.343 -0.2882  0.1330 -0.1337
 2993TIP3    H1 8901   5.515   3.422   1.418 -2.1093  0.3810  1.0631
 2993TIP3    H2 8902   5.494   3.558   1.354  0.2776  0.0430 -0.4758
 2994TIP3   OH2 8903   8.328   1.954   3.101  0.3484  0.8678  0.0538
 2994TIP3    H1 8904   8.303   1.881   3.043  0.7739  0.5036  0.3269
 2994TIP3    H2 8905   8.245   1.984   3.138  0.2841 -0.2001  0.7901
 2995TIP3   OH2 8906   6.392   3.414   1.817  0.0991  0.2774  0.4747
 2995TIP3    H1 8907   6.304   3.395   1.784  0.7019 -1.1892 -0.3363
 2995TIP3    H2 8908   6.450   3.394   1.744  1.0183  2.7188  0.4845
 2996TIP3   OH2 8909   7.778   1.880   2.889  0.2366  0.1955 -0.0509
 2996TIP3    H1 8910   7.706   1.934   2.920  0.3994  0.1528  0.4062
 2996TIP3    H2 8911   7.795   1.818   2.961 -0.7605 -1.2625 -1.0338
 2997TIP3   OH2 8912   3.747   5.137   6.346 -0.4355 -0.2651  0.0153
 2997TIP3    H1 8913   3.760   5.231   6.358 -0.8276  0.0635 -1.9273
 2997TIP3    H2 8914   3.820   5.096   6.392  0.9273  1.0897 -0.8992
 2998TIP3   OH2 8915   6.251   1.921   0.942 -0.1300 -0.2654  1.1292
 2998TIP3    H1 8916   6.180   1.977   0.909  2.2836  3.1492  1.5336
 2998TIP3    H2 8917   6.207   1.840   0.967 -3.5594  0.8808 -0.8005
 2999TIP3   OH2 8918   6.719   0.575   3.087 -0.2308 -0.1414  0.2161
 2999TIP3    H1 8919   6.722   0.512   3.015 -0.8763  0.3646 -0.2613
 2999TIP3    H2 8920   6.632   0.561   3.126 -1.2864  1.9712 -1.2875
 3000TIP3   OH2 8921   6.542   1.845   2.607  0.2301  0.2839  0.3226
 3000TIP3    H1 8922   6.458   1.856   2.562 -0.3686 -0.5007  1.2074
 3000TIP3    H2 8923   6.584   1.772   2.562 -0.7363 -1.0551  1.5145
 3001TIP3   OH2 8924   8.700   2.306   1.521  0.0527  0.1867 -0.5245
 3001TIP3    H1 8925   8.737   2.298   1.433 -0.5676 -0.8072 -0.7112
 3001TIP3    H2 8926   8.650   2.387   1.519  1.3010  0.9669 -0.6070
 3002TIP3   OH2 8927   6.881   3.759   3.984  0.1194 -0.2301  0.3906
 3002TIP3    H1 8928   6.836   3.819   4.043 -1.0368  0.5993 -1.2700
 3002TIP3    H2 8929   6.974   3.779   3.994 -0.1525  0.7279  1.0386
 3003TIP3   OH2 8930   3.449   2.447   1.663  0.5834 -0.3767  0.7066
 3003TIP3    H1 8931   3.526   2.446   1.606  0.0202 -0.9448 -0.0523
 3003TIP3    H2 8932   3.480   2.489   1.743  1.8990 -1.2883  0.7111
 3004TIP3   OH2 8933   3.129   8.225   2.125  0.2829  0.8322 -0.5207
 3004TIP3    H1 8934   3.174   8.209   2.042 -2.6287 -1.3087 -1.7720
 3004TIP3    H2 8935   3.158   8.153   2.182  1.7918  1.9452  0.1489
 3005TIP3   OH2 8936   5.438   0.395   1.639  0.8545 -0.0832  0.5031
 3005TIP3    H1 8937   5.437   0.358   1.551  0.7389 -1.8567  1.2321
 3005TIP3    H2 8938   5.415   0.487   1.627 -0.3436 -0.5942 -1.1869
 3006TIP3   OH2 8939   5.329   0.451   3.052  0.3840  0.2879 -0.1822
 3006TIP3    H1 8940   5.415   0.445   3.095  0.0806  0.9934  0.5324
 3006TIP3    H2 8941   5.294   0.361   3.057  0.2245  0.4159  1.3350
 3007TIP3   OH2 8942   4.703   1.619   2.046 -0.0835  0.1710 -0.2172
 3007TIP3    H1 8943   4.779   1.634   1.989  0.5524 -0.1037  0.5459
 3007TIP3    H2 8944   4.717   1.679   2.120 -1.9601  2.0323 -1.3382
 3008TIP3   OH2 8945   2.519   8.306   1.764  0.6089 -0.6101  0.0061
 3008TIP3    H1 8946   2.442   8.362   1.761  0.7874 -0.4636 -2.5529
 3008TIP3    H2 8947   2.589   8.363   1.796  0.1068 -0.2033  0.3910
 3009TIP3   OH2 8948   5.044   1.226   2.343  0.2755  0.5673  0.2831
 3009TIP3    H1 8949   4.950   1.229   2.359  0.1440  0.7625 -0.5266
 3009TIP3    H2 8950   5.064   1.133   2.336  0.3928  0.4569  1.8813
 3010TIP3   OH2 8951   4.861   1.340   4.125 -0.1678  0.4190  0.2994
 3010TIP3    H1 8952   4.841   1.430   4.151 -2.8600 -0.2620  0.7194
 3010TIP3    H2 8953   4.813   1.286   4.188  1.4943 -1.3096  0.0890
 3011TIP3   OH2 8954   3.522   0.641   1.596  0.0234  0.0675  0.1040
 3011TIP3    H1 8955   3.524   0.702   1.670  0.2669 -0.0105  0.1632
 3011TIP3    H2 8956   3.575   0.567   1.626 -0.8346 -0.4772  0.2982
 3012TIP3   OH2 8957   4.397   7.888   2.690 -0.6063 -0.5822 -0.5329
 3012TIP3    H1 8958   4.407   7.825   2.761 -0.6516 -0.7603 -0.6869
 3012TIP3    H2 8959   4.484   7.895   2.652 -0.7479 -1.0476 -0.9414
 3013TIP3   OH2 8960   6.645   2.012   4.369 -0.7949  0.2968  0.7051
 3013TIP3    H1 8961   6.712   1.975   4.427  1.2737  0.1791 -1.6615
 3013TIP3    H2 8962   6.659   2.107   4.374  0.7738  0.2139 -1.0675
 3014TIP3   OH2 8963   8.562   5.066   3.627 -0.3874  0.3779  0.7520
 3014TIP3    H1 8964   8.597   5.133   3.569 -1.2613  0.9145  0.8392
 3014TIP3    H2 8965   8.487   5.029   3.580 -1.0091  0.7168  1.4743
 3015TIP3   OH2 8966   7.143   3.318   2.681 -0.3591 -0.1691  0.0477
 3015TIP3    H1 8967   7.107   3.241   2.725  0.2434 -1.1655 -1.1743
 3015TIP3    H2 8968   7.226   3.335   2.726 -1.5291  1.1467  1.7902
 3016TIP3   OH2 8969   6.054   2.423   4.800 -0.4415  0.2442 -0.6647
 3016TIP3    H1 8970   5.993   2.395   4.868 -0.4788  0.5358 -0.5793
 3016TIP3    H2 8971   6.102   2.343   4.777  1.3484  0.6512  1.4915
 3017TIP3   OH2 8972   5.311   1.291   2.522 -0.5283 -0.3740  0.0582
 3017TIP3    H1 8973   5.217   1.294   2.505 -1.0991 -2.0561  2.7966
 3017TIP3    H2 8974   5.324   1.213   2.575  2.0849  1.1590  1.7786
 3018TIP3   OH2 8975   6.003   0.827   2.160 -0.0070  0.2229 -0.2979
 3018TIP3    H1 8976   5.955   0.784   2.231  1.1845  2.6766  2.0553
 3018TIP3    H2 8977   6.076   0.767   2.141  0.3489  0.0867  1.3905
 3019TIP3   OH2 8978   5.836   0.052   0.940  0.9281 -0.7536 -0.5051
 3019TIP3    H1 8979   5.763   0.114   0.949  0.7180 -1.0006 -0.4896
 3019TIP3    H2 8980   5.857   0.027   1.030  1.5179 -0.1237 -0.4645
 3020TIP3   OH2 8981   6.202   0.449   2.438 -0.2376  0.2524 -0.0334
 3020TIP3    H1 8982   6.153   0.399   2.373 -2.0841  0.8707  0.8610
 3020TIP3    H2 8983   6.178   0.540   2.421  1.2680  0.6522 -0.1135
 3021TIP3   OH2 8984   7.171   0.774   3.223 -0.0901  0.0067 -0.0618
 3021TIP3    H1 8985   7.216   0.786   3.140 -1.4606  0.0129 -0.8264
 3021TIP3    H2 8986   7.093   0.722   3.201 -1.2935  1.3184  0.9346
 3022TIP3   OH2 8987   4.425   2.142   1.218 -0.3629  0.3021 -0.2884
 3022TIP3    H1 8988   4.460   2.200   1.150  0.1235 -0.4299 -0.6771
 3022TIP3    H2 8989   4.487   2.069   1.221 -0.2800  0.4302  1.0953
 3023TIP3   OH2 8990   6.434   2.264   0.436  0.0127 -0.0831 -0.0596
 3023TIP3    H1 8991   6.479   2.180   0.441  1.0510  0.5327  1.0453
 3023TIP3    H2 8992   6.389   2.261   0.351  0.0662 -1.7281 -0.0547
 3024TIP3   OH2 8993   6.540   2.521   2.056  0.2546 -0.1552  0.0585
 3024TIP3    H1 8994   6.609   2.488   2.114 -0.2920 -2.3457 -0.4793
 3024TIP3    H2 8995   6.501   2.442   2.019  0.3764  1.1686 -3.0670
 3025TIP3   OH2 8996   5.894   2.315   2.400 -0.0751  0.5635  0.1423
 3025TIP3    H1 8997   5.815   2.265   2.418 -0.2020  1.0417  0.9471
 3025TIP3    H2 8998   5.865   2.389   2.347  0.0704 -0.0783 -0.8286
 3026TIP3   OH2 8999   6.066   1.278   4.771 -0.2253 -0.4156  0.1622
 3026TIP3    H1 9000   6.044   1.370   4.757  1.4280  0.0623  0.5656
 3026TIP3    H2 9001   6.067   1.269   4.867 -2.0314 -1.2772  0.1117
 3027TIP3   OH2 9002   5.402   2.937   0.844 -0.3751 -0.6056  0.1324
 3027TIP3    H1 9003   5.440   2.852   0.822 -1.5376 -1.0759 -0.0911
 3027TIP3    H2 9004   5.393   2.981   0.759 -1.4466 -0.9783  0.0429
 3028TIP3   OH2 9005   5.932   2.661   2.902  0.5472  0.4200 -0.0271
 3028TIP3    H1 9006   5.963   2.571   2.887  1.0232  0.3374  1.3615
 3028TIP3    H2 9007   5.941   2.704   2.817 -2.2669 -1.5867 -1.4480
 3029TIP3   OH2 9008   6.756   1.278   2.026 -0.3070  0.1500  0.1258
 3029TIP3    H1 9009   6.662   1.294   2.030 -0.4798 -0.8661  0.1413
 3029TIP3    H2 9010   6.789   1.306   2.111 -0.6048  0.4261  0.1506
 3030TIP3   OH2 9011   6.324   2.883   2.875  0.5901  0.3345  0.2136
 3030TIP3    H1 9012   6.326   2.800   2.923  0.4362  0.6694  0.8127
 3030TIP3    H2 9013   6.341   2.949   2.942  0.3296  0.8160 -0.1952
 3031TIP3   OH2 9014   0.082   3.180   2.350  0.0725  0.2459 -0.1126
 3031TIP3    H1 9015   0.115   3.214   2.433 -0.9549 -2.2306  1.3527
 3031TIP3    H2 9016   0.137   3.105   2.330 -1.4329 -0.8560 -0.2288
 3032TIP3   OH2 9017   6.637   3.368   3.949 -0.6710  0.1219  0.2782
 3032TIP3    H1 9018   6.697   3.311   3.900 -0.1289  1.0457 -0.1518
 3032TIP3    H2 9019   6.624   3.443   3.891 -1.3448  0.4510  0.8621
 3033TIP3   OH2 9020   6.781   3.927   1.396  0.1882 -0.2336  0.3955
 3033TIP3    H1 9021   6.778   4.023   1.395  0.0413 -0.2245  1.2070
 3033TIP3    H2 9022   6.785   3.905   1.489  1.1275 -0.9865  0.1746
 3034TIP3   OH2 9023   3.783   1.687   2.512 -0.5018 -0.2822 -0.7670
 3034TIP3    H1 9024   3.701   1.655   2.551 -0.1250 -0.6530 -0.2684
 3034TIP3    H2 9025   3.764   1.777   2.487 -0.4995  0.2489  1.0685
 3035TIP3   OH2 9026   5.923   1.980   3.364  0.5113 -0.0624  0.3818
 3035TIP3    H1 9027   5.999   2.001   3.418  0.1661  1.7782  0.1745
 3035TIP3    H2 9028   5.930   1.885   3.349  3.3150  0.2436 -0.5151
 3036TIP3   OH2 9029   5.055   3.756   2.482  0.2829  0.6641 -0.0751
 3036TIP3    H1 9030   5.116   3.734   2.411  1.5715 -0.0347  1.2162
 3036TIP3    H2 9031   4.980   3.698   2.469  0.4882  0.5746 -0.8876
 3037TIP3   OH2 9032   4.513   4.078   3.467 -1.2292 -1.0451  0.0093
 3037TIP3    H1 9033   4.461   4.089   3.547  1.4536  1.1638  1.5138
 3037TIP3    H2 9034   4.590   4.030   3.495 -0.1454 -0.0420 -1.1996
 3038TIP3   OH2 9035   7.900   4.388   1.807  0.0749  0.4510 -0.2555
 3038TIP3    H1 9036   7.945   4.376   1.724 -0.2896 -0.6307 -0.2978
 3038TIP3    H2 9037   7.823   4.442   1.786 -0.9696 -1.2765 -0.9315
 3039TIP3   OH2 9038   5.643   0.940   1.851 -0.5303 -0.5703 -0.4614
 3039TIP3    H1 9039   5.722   0.886   1.853 -0.2165 -0.1364 -0.9119
 3039TIP3    H2 9040   5.635   0.973   1.941  1.3738  1.5879 -1.0271
 3040TIP3   OH2 9041   6.801   0.277   1.601  0.1896  0.2075  0.1070
 3040TIP3    H1 9042   6.801   0.224   1.681 -0.6956  1.3469  0.8636
 3040TIP3    H2 9043   6.709   0.287   1.578  0.4910 -1.5238 -2.0217
 3041TIP3   OH2 9044   7.672   0.741   1.838 -0.1488 -0.1513 -0.1413
 3041TIP3    H1 9045   7.610   0.779   1.899  0.2637 -0.7103  0.6337
 3041TIP3    H2 9046   7.689   0.810   1.774 -1.0096  0.2401  0.0563
 3042TIP3   OH2 9047   6.028   1.507   4.110  0.5687  0.1390 -0.3716
 3042TIP3    H1 9048   6.084   1.462   4.172  0.1692 -0.8907 -0.7378
 3042TIP3    H2 9049   6.087   1.539   4.042  0.8344  0.0321 -0.1880
 3043TIP3   OH2 9050   7.567   1.481   3.784 -0.3236  0.1850  0.0500
 3043TIP3    H1 9051   7.591   1.501   3.874 -1.4597  0.0146  0.3984
 3043TIP3    H2 9052   7.593   1.390   3.771 -1.0381 -0.0806  0.5065
 3044TIP3   OH2 9053   5.663   1.769   1.234 -0.2361 -0.6687 -0.4610
 3044TIP3    H1 9054   5.574   1.757   1.267 -0.0760 -1.6919 -0.4043
 3044TIP3    H2 9055   5.716   1.705   1.281  0.5219 -0.1113 -0.5480
 3045TIP3   OH2 9056   6.731   3.116   3.122  0.4188  0.4217 -0.0380
 3045TIP3    H1 9057   6.814   3.136   3.080  0.4492  0.8731  0.2344
 3045TIP3    H2 9058   6.738   3.024   3.146  0.2819  0.0871 -1.2812
 3046TIP3   OH2 9059   5.035   1.192   2.914  0.0679 -0.3381 -0.1000
 3046TIP3    H1 9060   5.055   1.099   2.905  0.5633 -0.3832  1.3096
 3046TIP3    H2 9061   4.960   1.206   2.857 -1.1800 -1.9993  1.0710
 3047TIP3   OH2 9062   6.623   1.967   2.836  0.2001 -0.4297 -0.1634
 3047TIP3    H1 9063   6.544   2.020   2.846  1.7300  1.9686 -0.5235
 3047TIP3    H2 9064   6.615   1.928   2.749 -0.5099 -0.0857 -0.2525
 3048TIP3   OH2 9065   4.438   3.353   3.140  0.5140  0.2659 -0.4379
 3048TIP3    H1 9066   4.518   3.404   3.129  0.1783  0.6098 -1.2793
 3048TIP3    H2 9067   4.455   3.270   3.096 -0.1389  0.9196 -1.9492
 3049TIP3   OH2 9068   1.230   5.532   6.668 -0.4113 -0.2821 -0.3966
 3049TIP3    H1 9069   1.296   5.584   6.622 -1.9385  0.1573 -2.1346
 3049TIP3    H2 9070   1.262   5.442   6.663 -0.5061 -0.2310 -2.2805
 3050TIP3   OH2 9071   0.733   5.912   6.563 -0.2219 -0.2386 -0.2632
 3050TIP3    H1 9072   0.659   5.853   6.550 -0.3279 -0.2956  0.5639
 3050TIP3    H2 9073   0.808   5.854   6.579  0.0953 -0.1892 -1.5501
 3051TIP3   OH2 9074   5.938   0.933   1.888 -0.1875  0.0024  0.2079
 3051TIP3    H1 9075   5.962   0.925   1.980 -0.5048 -0.5817  0.2422
 3051TIP3    H2 9076   5.930   1.027   1.873  0.8852  0.1431  0.5082
 3052TIP3   OH2 9077   8.009   1.946   3.707 -0.1307  0.3412 -0.0291
 3052TIP3    H1 9078   8.002   1.991   3.791  2.2652 -0.1770  0.4684
 3052TIP3    H2 9079   7.995   1.853   3.728  1.9901  0.0228  0.0630
 3053TIP3   OH2 9080   7.738   0.645   4.544 -0.3296 -0.3249  0.0902
 3053TIP3    H1 9081   7.768   0.650   4.453 -0.3036  0.4891  0.1382
 3053TIP3    H2 9082   7.738   0.736   4.574 -1.6789 -0.4403  0.4645
 3054TIP3   OH2 9083   5.241   3.807   1.503 -0.0465  0.5258  0.1121
 3054TIP3    H1 9084   5.259   3.839   1.414  1.3889 -2.4262 -0.7112
 3054TIP3    H2 9085   5.150   3.832   1.519  0.5249  3.6106 -1.0480
 3055TIP3   OH2 9086   6.765   2.318   1.725 -0.0905  0.2605  0.1629
 3055TIP3    H1 9087   6.768   2.400   1.676  0.2072  0.5545  0.6789
 3055TIP3    H2 9088   6.688   2.325   1.780 -1.2489 -0.6654 -1.3043
 3056TIP3   OH2 9089   2.987   7.838   3.641 -0.0267  0.0094 -0.1072
 3056TIP3    H1 9090   3.045   7.788   3.583 -1.3894 -0.7151 -0.8845
 3056TIP3    H2 9091   2.984   7.925   3.604 -0.7602 -0.4099 -1.0594
 3057TIP3   OH2 9092   6.981   2.001   3.136 -0.3385  0.5957 -0.1406
 3057TIP3    H1 9093   6.989   2.078   3.080  1.8582  0.6432  0.1903
 3057TIP3    H2 9094   7.041   2.019   3.209 -1.1752 -0.6290  0.8595
 3058TIP3   OH2 9095   5.366   1.523   1.991 -0.0785  0.1545  0.2210
 3058TIP3    H1 9096   5.331   1.461   2.055 -2.7052  1.1179 -0.2206
 3058TIP3    H2 9097   5.440   1.477   1.951 -1.4634 -2.3764  0.4774
 3059TIP3   OH2 9098   5.933   1.982   2.593  0.9460 -0.2562 -0.0361
 3059TIP3    H1 9099   5.972   1.989   2.680 -1.8904  0.2266  1.2598
 3059TIP3    H2 9100   5.966   1.900   2.557  1.8035 -0.6629  1.6690
 3060TIP3   OH2 9101   6.475   3.082   1.453 -0.0073  0.6179  0.2285
 3060TIP3    H1 9102   6.393   3.033   1.448  1.3428 -1.4834 -2.8648
 3060TIP3    H2 9103   6.462   3.157   1.395 -0.5116  1.6139  1.5795
 3061TIP3   OH2 9104   2.827   7.777   3.271 -0.1743 -0.0468 -0.1399
 3061TIP3    H1 9105   2.916   7.812   3.267 -1.3997  3.4559  0.9793
 3061TIP3    H2 9106   2.795   7.785   3.181  0.2072 -0.0897 -0.2839
 3062TIP3   OH2 9107   5.752   4.311   2.773  0.9237 -0.3760 -0.0991
 3062TIP3    H1 9108   5.750   4.215   2.775  1.9756 -0.4192 -0.5340
 3062TIP3    H2 9109   5.732   4.338   2.863 -1.5377 -0.9345 -0.4409
 3063TIP3   OH2 9110   3.657   5.864   3.745 -0.7920  0.3891  0.0564
 3063TIP3    H1 9111   3.634   5.784   3.792 -0.4344  0.0280 -0.3792
 3063TIP3    H2 9112   3.610   5.933   3.792 -0.2002  0.0745  1.1389
 3064TIP3   OH2 9113   6.179   2.845   3.885  0.0956 -0.6977  0.3338
 3064TIP3    H1 9114   6.122   2.782   3.840  2.3985 -2.0846 -0.7156
 3064TIP3    H2 9115   6.156   2.836   3.978 -1.3733 -1.2318 -0.0650
 3065TIP3   OH2 9116   5.554   3.896   3.947  0.3323  0.0159  0.2734
 3065TIP3    H1 9117   5.638   3.926   3.914  0.1264  0.7659  0.4281
 3065TIP3    H2 9118   5.499   3.890   3.869  0.7016 -1.0717  0.0876
 3066TIP3   OH2 9119   7.666   0.755   2.185  0.3569  0.1480 -0.1295
 3066TIP3    H1 9120   7.676   0.689   2.116  1.7658 -1.4406  1.5267
 3066TIP3    H2 9121   7.575   0.747   2.213  0.0413  0.1384 -1.1593
 3067TIP3   OH2 9122   1.940   7.892   1.271 -0.2167 -0.4755  0.0995
 3067TIP3    H1 9123   1.944   7.983   1.241 -0.8436 -0.1528  0.9719
 3067TIP3    H2 9124   1.939   7.840   1.191 -0.9559  0.3363 -0.4214
 3068TIP3   OH2 9125   4.155   2.970   5.358  0.0570 -0.6798 -0.3966
 3068TIP3    H1 9126   4.113   2.962   5.272  0.2425  1.8722 -0.7728
 3068TIP3    H2 9127   4.117   3.049   5.396  2.2316 -0.0284  0.5506
 3069TIP3   OH2 9128   7.932   1.341   4.098  0.2259  0.0904 -0.2654
 3069TIP3    H1 9129   7.858   1.281   4.108 -0.1345  0.6143  0.2507
 3069TIP3    H2 9130   7.958   1.333   4.006 -0.8285  0.3215 -0.5849
 3070TIP3   OH2 9131   5.294   3.173   3.545 -0.0166  0.4069 -0.0863
 3070TIP3    H1 9132   5.378   3.185   3.587  1.4988 -2.5259 -2.1406
 3070TIP3    H2 9133   5.259   3.092   3.581 -1.0069  0.5147 -0.7577
 3071TIP3   OH2 9134   7.022   5.033   1.076 -0.7084  0.3813  0.2299
 3071TIP3    H1 9135   7.099   4.999   1.122 -0.0135 -1.9649 -2.4986
 3071TIP3    H2 9136   7.049   5.119   1.044  0.7275 -0.3153 -0.4893
 3072TIP3   OH2 9137   1.021   6.563   6.898 -0.1073  0.5367 -0.8429
 3072TIP3    H1 9138   0.949   6.516   6.856  1.3618 -1.1497 -1.4999
 3072TIP3    H2 9139   1.052   6.624   6.831  0.4117 -0.1930 -1.2751
 3073TIP3   OH2 9140   7.239   2.506   2.410 -0.1263  0.5333  0.0975
 3073TIP3    H1 9141   7.168   2.443   2.422  1.1713 -1.4041 -1.9016
 3073TIP3    H2 9142   7.312   2.470   2.461  0.3933  0.8196 -0.4385
 3074TIP3   OH2 9143   4.895   4.238   2.051  0.2457 -0.6865  0.1937
 3074TIP3    H1 9144   4.871   4.146   2.039 -0.4041 -0.8063  2.1154
 3074TIP3    H2 9145   4.967   4.236   2.114 -2.0668  0.2597  2.9864
 3075TIP3   OH2 9146   4.403   3.800   1.867 -0.2505  0.4170 -0.1882
 3075TIP3    H1 9147   4.361   3.729   1.819 -1.3507  1.2517 -0.4644
 3075TIP3    H2 9148   4.463   3.756   1.928 -1.3536 -0.7585  0.0495
 3076TIP3   OH2 9149   7.655   1.657   1.377 -0.3669  0.7209  0.0316
 3076TIP3    H1 9150   7.580   1.673   1.320 -1.0473 -1.9349  0.1053
 3076TIP3    H2 9151   7.619   1.610   1.452  1.4630 -1.5081 -0.4069
 3077TIP3   OH2 9152   7.182   3.485   2.455 -0.1208 -0.5471  0.6010
 3077TIP3    H1 9153   7.130   3.469   2.534  0.0149 -0.5831  0.6816
 3077TIP3    H2 9154   7.226   3.568   2.472 -2.0670  0.7450 -0.4588
 3078TIP3   OH2 9155   6.288   1.954   2.582  0.2447  0.3934 -0.1094
 3078TIP3    H1 9156   6.280   2.009   2.505 -1.0083  0.8140  0.3164
 3078TIP3    H2 9157   6.212   1.896   2.579  1.7450 -1.5779 -0.7542
 3079TIP3   OH2 9158   6.828   1.042   5.059  0.3563 -0.1617 -0.1220
 3079TIP3    H1 9159   6.921   1.024   5.047  0.5410 -1.0304  2.2285
 3079TIP3    H2 9160   6.788   0.956   5.069 -0.6414  0.2271 -0.7126
 3080TIP3   OH2 9161   5.811   3.328   3.103 -0.0591 -0.6036 -0.3634
 3080TIP3    H1 9162   5.729   3.350   3.059 -0.5051 -1.5971 -0.0510
 3080TIP3    H2 9163   5.783   3.279   3.180  0.7871 -0.1166  0.2601
 3081TIP3   OH2 9164   5.585   1.388   1.889 -0.0087 -0.0801 -0.1020
 3081TIP3    H1 9165   5.632   1.371   1.970  0.5272  1.6415 -0.0228
 3081TIP3    H2 9166   5.651   1.381   1.820 -0.0661  0.2936 -0.1985
 3082TIP3   OH2 9167   7.586   2.377   3.357  0.2535 -0.2868  0.0902
 3082TIP3    H1 9168   7.494   2.353   3.359 -0.3598  2.0583  0.7930
 3082TIP3    H2 9169   7.605   2.393   3.264  0.0012 -0.9395 -0.0725
 3083TIP3   OH2 9170   7.637   0.960   2.614  0.1691 -0.2474  0.4817
 3083TIP3    H1 9171   7.640   0.959   2.710  0.1944 -1.1340  0.4694
 3083TIP3    H2 9172   7.672   0.876   2.587  1.5709  0.5936 -0.3639
 3084TIP3   OH2 9173   4.294   0.752   4.994 -0.2430  0.1447 -0.1913
 3084TIP3    H1 9174   4.201   0.743   5.014 -0.4030  0.3873 -0.8264
 3084TIP3    H2 9175   4.330   0.803   5.067  0.0136 -2.6244  1.6885
 3085TIP3   OH2 9176   6.562   1.945   5.036  0.1843 -0.1401  0.0305
 3085TIP3    H1 9177   6.571   1.863   5.083 -1.6488 -0.7037 -0.5747
 3085TIP3    H2 9178   6.520   1.921   4.953 -0.0861  1.3456 -0.2799
 3086TIP3   OH2 9179   6.197   0.924   2.424 -0.0618  0.5676  0.2075
 3086TIP3    H1 9180   6.213   0.960   2.511  0.6786 -0.8180  0.6428
 3086TIP3    H2 9181   6.232   0.991   2.365  1.1718  0.6481  1.0130
 3087TIP3   OH2 9182   5.965   3.068   4.604 -0.1156  0.1193  0.1032
 3087TIP3    H1 9183   6.036   3.100   4.548  0.4065 -1.1477  0.0171
 3087TIP3    H2 9184   6.010   3.018   4.673 -0.9780 -2.0722 -0.8531
 3088TIP3   OH2 9185   3.471   8.339   4.891  0.4486 -0.4095  0.5827
 3088TIP3    H1 9186   3.486   8.322   4.984  1.4781 -2.9981 -0.0236
 3088TIP3    H2 9187   3.558   8.337   4.851  0.0996  1.4900 -0.3320
 3089TIP3   OH2 9188   4.953   4.219   3.748  0.2088 -0.3067  0.2554
 3089TIP3    H1 9189   4.937   4.245   3.657 -1.5935  2.6198  1.3208
 3089TIP3    H2 9190   4.898   4.143   3.762 -0.8162  0.2631 -0.6341
 3090TIP3   OH2 9191   7.218   2.784   2.419 -0.1594  0.3506  0.1206
 3090TIP3    H1 9192   7.205   2.689   2.422 -1.4543  0.5360  0.9551
 3090TIP3    H2 9193   7.135   2.819   2.387 -0.2310  1.2905  1.2747
 3091TIP3   OH2 9194   7.993   1.691   3.808  0.5667  0.0075 -0.0310
 3091TIP3    H1 9195   7.985   1.702   3.903  3.4211 -0.2883  0.2881
 3091TIP3    H2 9196   7.976   1.598   3.793  2.0191 -0.3403  0.4401
 3092TIP3   OH2 9197   5.995   1.102   0.575  0.4860 -0.2068 -0.1057
 3092TIP3    H1 9198   6.046   1.170   0.532  1.7588 -0.5880  0.7692
 3092TIP3    H2 9199   5.982   1.134   0.664 -0.9380 -0.0515 -0.3577
 3093TIP3   OH2 9200   5.540   0.750   2.409  0.2074  0.1894  0.0039
 3093TIP3    H1 9201   5.604   0.722   2.343 -0.9169  0.6293 -1.2850
 3093TIP3    H2 9202   5.510   0.668   2.449  1.0652 -0.0631  0.1506
 3094TIP3   OH2 9203   5.362   0.693   0.550 -0.4002 -0.2622  0.1147
 3094TIP3    H1 9204   5.299   0.723   0.615 -0.6392 -0.4386 -0.0348
 3094TIP3    H2 9205   5.331   0.730   0.467  0.6393  1.0662  0.2950
 3095TIP3   OH2 9206   3.731   3.431   2.976 -0.1835 -0.4450  0.0201
 3095TIP3    H1 9207   3.708   3.425   2.884  1.1461  2.3737 -0.5486
 3095TIP3    H2 9208   3.696   3.516   3.005 -0.4860 -1.2337  2.0844
 3096TIP3   OH2 9209   7.468   6.918   3.227  0.8064  0.2502 -0.2551
 3096TIP3    H1 9210   7.431   6.860   3.293  0.2241  0.1642 -0.6526
 3096TIP3    H2 9211   7.504   6.991   3.276  1.6600 -0.5040  0.2674
 3097TIP3   OH2 9212   0.901   3.785   4.058 -0.4971  0.0157 -0.1821
 3097TIP3    H1 9213   0.974   3.788   4.120 -1.3610 -0.0692  0.8766
 3097TIP3    H2 9214   0.827   3.756   4.112 -0.5950 -3.1939 -1.9288
 3098TIP3   OH2 9215   6.744   2.578   0.975 -0.0862 -0.3533  0.1457
 3098TIP3    H1 9216   6.683   2.557   1.046 -0.9957 -1.5132 -0.9401
 3098TIP3    H2 9217   6.722   2.516   0.906  1.5909 -0.0398 -0.7034
 3099TIP3   OH2 9218   7.815   0.645   0.866  0.4385 -0.3164  0.1735
 3099TIP3    H1 9219   7.796   0.553   0.885  0.2498  0.0549  1.8994
 3099TIP3    H2 9220   7.899   0.643   0.821 -1.0717 -1.5605 -2.7498
 3100TIP3   OH2 9221   8.102   1.758   0.087  0.2263  0.2256  0.1990
 3100TIP3    H1 9222   8.019   1.713   0.103  0.3153  0.4893  1.5270
 3100TIP3    H2 9223   8.078   1.836   0.038 -0.2881  0.1990  0.4017
 3101TIP3   OH2 9224   7.613   2.339   4.078  0.4171  0.5528  0.2441
 3101TIP3    H1 9225   7.537   2.395   4.059 -1.1999 -0.7532  2.6563
 3101TIP3    H2 9226   7.626   2.289   3.997 -1.5303  0.5496 -0.1010
 3102TIP3   OH2 9227   6.416   3.071   3.067  0.4888  0.1490 -0.0131
 3102TIP3    H1 9228   6.506   3.103   3.064  0.6104 -0.2836 -1.6143
 3102TIP3    H2 9229   6.403   3.042   3.157  1.7914  0.6610  0.3423
 3103TIP3   OH2 9230   8.646   6.133   5.693  0.0242 -0.0792 -0.6108
 3103TIP3    H1 9231   8.658   6.176   5.778  1.3127 -0.7116 -0.4654
 3103TIP3    H2 9232   8.686   6.046   5.704 -0.3748 -0.4079 -1.6682
 3104TIP3   OH2 9233   6.559   2.899   1.127 -0.5972 -0.0404 -0.4595
 3104TIP3    H1 9234   6.535   2.986   1.097 -2.4399  0.2621  1.7953
 3104TIP3    H2 9235   6.655   2.901   1.133 -0.6897  2.1341  0.5377
 3105TIP3   OH2 9236   7.792   1.351   1.431  0.1993 -0.0091  0.3679
 3105TIP3    H1 9237   7.714   1.391   1.470  0.5749  1.3894 -0.2983
 3105TIP3    H2 9238   7.847   1.425   1.405  0.7628 -0.9449 -1.1653
 3106TIP3   OH2 9239   4.589   2.207   2.639 -0.2913  0.7797 -0.4905
 3106TIP3    H1 9240   4.565   2.160   2.559 -0.2558 -0.3053  0.1115
 3106TIP3    H2 9241   4.654   2.150   2.681 -1.7099  0.4068  1.2408
 3107TIP3   OH2 9242   6.188   0.640   0.935  1.0062 -0.1395  0.0122
 3107TIP3    H1 9243   6.110   0.674   0.891  1.0706 -1.5119 -1.2156
 3107TIP3    H2 9244   6.196   0.691   1.015 -0.9638  0.2417 -0.0304
 3108TIP3   OH2 9245   7.446   1.166   0.898  0.5334 -0.0164  0.4342
 3108TIP3    H1 9246   7.436   1.174   0.804 -0.0728  0.1639  0.5142
 3108TIP3    H2 9247   7.444   1.256   0.931  0.7369 -0.0777  0.6170
 3109TIP3   OH2 9248   7.154   0.140   1.421 -0.2675  0.2540 -0.1256
 3109TIP3    H1 9249   7.177   0.181   1.504 -0.4075 -0.0676  0.0732
 3109TIP3    H2 9250   7.077   0.087   1.441 -0.0457 -0.1604 -0.3653
 3110TIP3   OH2 9251   6.342   0.630   1.905  0.1304  0.0831  0.6405
 3110TIP3    H1 9252   6.331   0.720   1.875  0.1324 -0.2488 -0.3898
 3110TIP3    H2 9253   6.279   0.620   1.976 -0.9550  0.4499 -0.2548
 3111TIP3   OH2 9254   4.627   7.522   2.233  0.6744 -0.3046  1.2332
 3111TIP3    H1 9255   4.587   7.446   2.190 -1.8139  1.5729  0.1433
 3111TIP3    H2 9256   4.612   7.507   2.326 -1.1671 -0.4414  0.9308
 3112TIP3   OH2 9257   8.848   1.721   1.608  0.5784 -0.9745  0.2691
 3112TIP3    H1 9258   8.924   1.743   1.555 -0.3893 -0.1525 -0.8151
 3112TIP3    H2 9259   8.780   1.697   1.545 -0.8654  0.8823  1.0400
 3113TIP3   OH2 9260   3.214   8.130   0.895  0.5123 -0.5190 -0.3778
 3113TIP3    H1 9261   3.125   8.140   0.928  1.0694 -0.0087  1.0549
 3113TIP3    H2 9262   3.207   8.145   0.801 -1.3578 -3.3670 -0.7394
 3114TIP3   OH2 9263   8.075   2.410   3.257 -0.0087  0.3849  0.0572
 3114TIP3    H1 9264   8.160   2.441   3.226  0.2289  0.2736  0.5955
 3114TIP3    H2 9265   8.095   2.354   3.331 -0.5348  0.1070 -0.0049
 3115TIP3   OH2 9266   4.728   0.987   1.156 -0.1719 -0.3152  0.1843
 3115TIP3    H1 9267   4.782   0.966   1.080  1.7280 -0.2381  1.4446
 3115TIP3    H2 9268   4.730   1.082   1.162 -0.5099 -0.3084  0.1870
 3116TIP3   OH2 9269   6.149   1.295   2.845 -0.4237  0.2868  0.3127
 3116TIP3    H1 9270   6.158   1.391   2.841  1.0825  0.1146 -1.2283
 3116TIP3    H2 9271   6.188   1.264   2.763 -3.6625 -1.4922 -0.6461
 3117TIP3   OH2 9272   7.059   0.814   2.952 -0.0667  0.3273  0.1064
 3117TIP3    H1 9273   6.980   0.840   2.904  1.8404  1.1776 -2.6630
 3117TIP3    H2 9274   7.079   0.726   2.918  0.9375  0.6705 -0.1964
 3118TIP3   OH2 9275   4.330   8.345   4.035 -0.0173  0.0727 -0.6636
 3118TIP3    H1 9276   4.272   8.273   4.060  0.3233 -0.4492 -1.3696
 3118TIP3    H2 9277   4.282   8.424   4.060 -0.6702 -0.3829 -0.4656
 3119TIP3   OH2 9278   7.931   0.440   0.084 -0.1015 -0.2139  0.3919
 3119TIP3    H1 9279   7.889   0.355   0.095 -1.1178  0.1438 -0.5820
 3119TIP3    H2 9280   7.999   0.425   0.019 -0.9170 -0.0861 -0.5035
 3120TIP3   OH2 9281   1.901   6.786   3.005 -0.6553 -0.5538 -0.5785
 3120TIP3    H1 9282   1.866   6.873   3.024 -1.2098 -0.6520 -1.1634
 3120TIP3    H2 9283   1.832   6.726   3.033 -0.7727 -0.7611 -1.3099
 3121TIP3   OH2 9284   7.219   2.248   1.396 -0.0216 -0.0135  0.5639
 3121TIP3    H1 9285   7.269   2.167   1.382  0.2509  0.1288  0.6991
 3121TIP3    H2 9286   7.137   2.220   1.435 -1.4303 -0.5751 -2.6462
 3122TIP3   OH2 9287   5.457   1.166   2.179 -0.4582  0.3508 -0.1397
 3122TIP3    H1 9288   5.536   1.114   2.167 -0.2245  0.7364 -0.2620
 3122TIP3    H2 9289   5.400   1.110   2.233  0.4711  0.6588  1.1794
 3123TIP3   OH2 9290   5.109   4.015   5.999 -0.1189 -0.2821  0.4997
 3123TIP3    H1 9291   5.081   3.939   5.949 -1.8741  1.0298 -0.5596
 3123TIP3    H2 9292   5.029   4.049   6.039  0.0244  2.9237 -1.7238
 3124TIP3   OH2 9293   7.320   2.485   3.442  0.5751 -0.1809  0.7626
 3124TIP3    H1 9294   7.325   2.565   3.496 -1.4786 -0.1852  0.9833
 3124TIP3    H2 9295   7.325   2.414   3.506  0.7736 -0.2276  0.6972
 3125TIP3   OH2 9296   8.166   3.071   3.689 -0.6273 -0.3670 -0.7635
 3125TIP3    H1 9297   8.082   3.108   3.716  0.6408  0.1470  2.6831
 3125TIP3    H2 9298   8.226   3.146   3.687  0.3883 -1.1608 -0.4011
 3126TIP3   OH2 9299   0.936   2.528   1.980  0.8459 -0.2669 -0.0785
 3126TIP3    H1 9300   1.002   2.512   2.047  0.7406 -2.4631 -0.4858
 3126TIP3    H2 9301   0.959   2.470   1.908 -2.0898 -1.8259  0.1593
 3127TIP3   OH2 9302   4.562   7.487   1.346 -0.1640 -0.0325  0.4416
 3127TIP3    H1 9303   4.568   7.521   1.436 -1.4668  1.6856 -0.0800
 3127TIP3    H2 9304   4.577   7.564   1.291  1.1676 -1.1895 -0.8311
 3128TIP3   OH2 9305   4.941   4.416   3.082 -0.8999 -0.4657  0.2865
 3128TIP3    H1 9306   4.926   4.370   2.999  0.5205  2.1542 -1.5321
 3128TIP3    H2 9307   4.892   4.497   3.073  1.1613  0.9061  0.9750
 3129TIP3   OH2 9308   6.135   2.461   4.211 -0.7056 -0.3528  0.2286
 3129TIP3    H1 9309   6.180   2.387   4.250  1.4259  0.7906  0.0544
 3129TIP3    H2 9310   6.110   2.516   4.285  0.1410  0.0668  0.2096
 3130TIP3   OH2 9311   3.262   2.655   3.441 -0.3750 -0.4791 -0.1542
 3130TIP3    H1 9312   3.201   2.612   3.381 -0.2713 -0.1521 -0.4921
 3130TIP3    H2 9313   3.211   2.724   3.482 -0.3803 -0.5533 -0.0337
 3131TIP3   OH2 9314   5.819   1.698   1.016  0.4780 -0.6646 -0.9201
 3131TIP3    H1 9315   5.745   1.733   1.065  0.1268  0.2640 -2.0627
 3131TIP3    H2 9316   5.886   1.680   1.081 -0.6556 -1.2539  0.0938
 3132TIP3   OH2 9317   8.236   2.163   1.715  0.0796  0.4073 -0.7239
 3132TIP3    H1 9318   8.327   2.144   1.694  0.2404 -0.0884  0.3573
 3132TIP3    H2 9319   8.203   2.081   1.753 -0.4164  1.0065  0.1577
 3133TIP3   OH2 9320   5.055   4.079   3.333 -0.6898 -0.1459  0.2158
 3133TIP3    H1 9321   5.130   4.078   3.274 -1.7294 -1.0984 -1.1116
 3133TIP3    H2 9322   4.983   4.043   3.282 -1.6590 -0.8600  2.0089
 3134TIP3   OH2 9323   7.545   4.397   0.210  0.6154 -0.3190  0.4771
 3134TIP3    H1 9324   7.554   4.342   0.132  1.1883  0.2319  0.1417
 3134TIP3    H2 9325   7.537   4.336   0.283  3.7052 -0.8961  0.4103
 3135TIP3   OH2 9326   7.624   1.914   1.051  0.1256 -0.3353  0.0349
 3135TIP3    H1 9327   7.660   1.836   1.008  1.3644  0.2625 -0.0439
 3135TIP3    H2 9328   7.696   1.977   1.050 -0.2069  0.1057  1.9159
 3136TIP3   OH2 9329   5.395   1.229   1.760  0.7662 -0.2925 -0.2230
 3136TIP3    H1 9330   5.378   1.272   1.676  1.5055 -0.2034 -0.3273
 3136TIP3    H2 9331   5.466   1.280   1.799  2.1482 -1.8312 -0.6629
 3137TIP3   OH2 9332   3.633   7.952   2.372  0.1536 -0.4829  0.0010
 3137TIP3    H1 9333   3.659   7.860   2.369 -1.1715 -0.8243 -1.7139
 3137TIP3    H2 9334   3.648   7.984   2.283 -0.6158  0.6328  0.2652
 3138TIP3   OH2 9335   0.736   0.735   3.494  0.2780  0.4833 -0.5765
 3138TIP3    H1 9336   0.816   0.683   3.502  0.2821  0.8119  2.1490
 3138TIP3    H2 9337   0.756   0.800   3.427  2.1175  0.2231 -0.3032
 3139TIP3   OH2 9338   1.484   7.565   1.482 -0.2179  0.2905  0.2849
 3139TIP3    H1 9339   1.397   7.604   1.490 -0.0029  0.9373 -0.4656
 3139TIP3    H2 9340   1.467   7.471   1.478 -0.6766  0.2313  3.0087
 3140TIP3   OH2 9341   4.741   0.903   1.498 -0.2191 -0.7105  0.0360
 3140TIP3    H1 9342   4.734   0.868   1.409  1.4751 -1.6897  0.2594
 3140TIP3    H2 9343   4.772   0.993   1.486 -1.6400 -0.2689 -0.4182
 3141TIP3   OH2 9344   6.946   1.940   1.799 -0.0521 -0.3928  0.6071
 3141TIP3    H1 9345   6.963   2.028   1.832 -2.1677  0.2170  0.1312
 3141TIP3    H2 9346   6.955   1.883   1.876  0.5977  0.3173  1.0653
 3142TIP3   OH2 9347   5.815   0.738   3.119 -0.4390 -0.1048 -0.0458
 3142TIP3    H1 9348   5.764   0.764   3.043 -0.4571 -1.2882 -0.4498
 3142TIP3    H2 9349   5.814   0.642   3.117 -1.0215 -0.1515  1.8400
 3143TIP3   OH2 9350   2.221   3.464   6.510 -0.0554 -0.4969 -0.2481
 3143TIP3    H1 9351   2.280   3.391   6.527 -1.1920 -1.4099 -0.2094
 3143TIP3    H2 9352   2.137   3.437   6.547 -1.2890 -0.4319 -2.9028
 3144TIP3   OH2 9353   4.079   1.080   0.692  0.0974 -0.2116 -0.3048
 3144TIP3    H1 9354   4.104   1.016   0.626 -0.2074 -0.7759  0.1219
 3144TIP3    H2 9355   4.013   1.036   0.745 -0.5965  0.6851 -0.4100
 3145TIP3   OH2 9356   5.791   0.316   2.188  0.0833 -0.3809  0.2626
 3145TIP3    H1 9357   5.883   0.334   2.206 -0.1118 -0.0623  0.9676
 3145TIP3    H2 9358   5.770   0.238   2.240 -0.0645 -0.4034  0.1706
 3146TIP3   OH2 9359   7.117   0.975   3.409  0.1084 -0.7711  0.1265
 3146TIP3    H1 9360   7.155   0.916   3.344 -0.6632  0.2794 -1.3054
 3146TIP3    H2 9361   7.095   0.918   3.484  2.7089 -1.6782  0.2284
 3147TIP3   OH2 9362   5.717   2.179   2.554  0.4886  0.1287 -0.3508
 3147TIP3    H1 9363   5.695   2.222   2.637  0.3819 -0.0439 -0.2886
 3147TIP3    H2 9364   5.796   2.129   2.574  0.0625 -0.4711 -0.1669
 3148TIP3   OH2 9365   6.719   1.951   3.097 -0.1724  0.2693 -0.1230
 3148TIP3    H1 9366   6.706   1.957   3.002 -2.8739 -1.3706  0.0731
 3148TIP3    H2 9367   6.813   1.964   3.110  0.3716 -0.3898 -3.1064
 3149TIP3   OH2 9368   5.759   0.103   4.893 -0.1488  0.2358  0.0636
 3149TIP3    H1 9369   5.730   0.182   4.938  2.1714 -0.4787  2.9384
 3149TIP3    H2 9370   5.838   0.131   4.846  0.5504 -0.3064  0.9105
 3150TIP3   OH2 9371   6.543   2.737   4.158 -0.4720 -0.8401 -0.4083
 3150TIP3    H1 9372   6.629   2.768   4.183  0.3284 -2.9607 -0.4156
 3150TIP3    H2 9373   6.519   2.790   4.082  2.1809 -2.2677 -2.3367
 3151TIP3   OH2 9374   3.859   7.352   2.023  0.3233  0.4491 -0.2997
 3151TIP3    H1 9375   3.930   7.317   1.969  1.5746  0.2817  1.4257
 3151TIP3    H2 9376   3.793   7.283   2.023  1.3530 -0.5389  0.3713
 3152TIP3   OH2 9377   5.388   7.381   3.169 -0.2482  0.3213 -0.0859
 3152TIP3    H1 9378   5.315   7.405   3.113  0.2535 -0.6387 -1.1641
 3152TIP3    H2 9379   5.466   7.404   3.118  0.2203 -1.1816 -0.0579
 3153TIP3   OH2 9380   7.037   0.865   1.832 -0.3914  0.2304 -0.0054
 3153TIP3    H1 9381   6.947   0.887   1.856 -0.8117  0.6721 -1.8853
 3153TIP3    H2 9382   7.046   0.772   1.852 -1.4784  0.0355 -0.4164
 3154TIP3   OH2 9383   0.589   1.651   3.876 -0.3219 -0.1105  0.5090
 3154TIP3    H1 9384   0.654   1.708   3.916 -0.3725 -0.0705  0.5355
 3154TIP3    H2 9385   0.639   1.588   3.825 -0.2655 -0.0498  0.4901
 3155TIP3   OH2 9386   1.669   0.322   2.878  0.0647  0.3552 -0.0090
 3155TIP3    H1 9387   1.738   0.260   2.852  0.0193 -1.1138  3.1665
 3155TIP3    H2 9388   1.588   0.281   2.849  0.0148 -1.2299  2.3123
 3156TIP3   OH2 9389   7.213   0.981   1.215  0.0728 -0.0107  0.2906
 3156TIP3    H1 9390   7.220   0.943   1.127  0.8118  0.8848 -0.0480
 3156TIP3    H2 9391   7.275   0.931   1.268  0.6680  0.3709 -0.0353
 3157TIP3   OH2 9392   6.877   4.026   2.013  0.1971  0.5064 -0.0195
 3157TIP3    H1 9393   6.911   4.008   1.925 -1.9262  0.8705 -0.9354
 3157TIP3    H2 9394   6.878   3.941   2.057 -1.0261 -0.1486 -1.2243
 3158TIP3   OH2 9395   0.688   1.923   0.704  0.2807 -0.2914  0.5675
 3158TIP3    H1 9396   0.708   1.830   0.714 -0.7511 -0.4520  1.2557
 3158TIP3    H2 9397   0.749   1.967   0.762  1.8055 -0.4216 -0.9150
 3159TIP3   OH2 9398   7.176   2.755   1.394  0.5013 -0.2221 -0.2517
 3159TIP3    H1 9399   7.165   2.821   1.462 -1.0409 -0.1972 -0.5082
 3159TIP3    H2 9400   7.115   2.685   1.420 -1.2300  0.4423 -2.3992
 3160TIP3   OH2 9401   0.072   4.175   1.906 -0.4340 -0.5355  0.0350
 3160TIP3    H1 9402   0.139   4.112   1.878  1.7703  2.2413 -1.1750
 3160TIP3    H2 9403   0.050   4.223   1.826 -1.3257  0.8796  1.1218
 3161TIP3   OH2 9404   6.628   1.629   2.473 -0.7879  0.2218  0.3323
 3161TIP3    H1 9405   6.630   1.564   2.543 -1.2150 -0.8389 -0.6273
 3161TIP3    H2 9406   6.716   1.624   2.434 -0.4867  0.9505  0.9216
 3162TIP3   OH2 9407   6.251   1.850   2.281  0.0013  0.3079 -0.2921
 3162TIP3    H1 9408   6.271   1.806   2.198  3.1473  1.9994 -0.5391
 3162TIP3    H2 9409   6.281   1.789   2.348 -1.7662 -0.7009 -0.3907
 3163TIP3   OH2 9410   4.718   8.204   3.042 -0.1368 -0.1736  0.3381
 3163TIP3    H1 9411   4.672   8.274   3.089  0.5422 -0.7126  1.8339
 3163TIP3    H2 9412   4.763   8.155   3.111  0.2798 -1.4244 -0.8162
 3164TIP3   OH2 9413   8.729   0.024   2.303 -0.2083  0.2876 -0.4488
 3164TIP3    H1 9414   8.762   0.091   2.243  0.6169  0.2838 -0.0045
 3164TIP3    H2 9415   8.794   0.020   2.373 -0.3256 -0.8547 -0.3900
 3165TIP3   OH2 9416   7.093   1.353   0.668  0.1348 -0.5170 -0.6092
 3165TIP3    H1 9417   7.033   1.427   0.679  0.0369 -0.5121 -1.1341
 3165TIP3    H2 9418   7.180   1.392   0.663  0.1792 -0.5218  0.1303
 3166TIP3   OH2 9419   8.312   3.290   1.881 -0.2153 -0.5175 -0.4123
 3166TIP3    H1 9420   8.267   3.320   1.802 -0.1624 -0.2363 -0.3366
 3166TIP3    H2 9421   8.404   3.286   1.856 -0.1243  0.1374 -0.1985
 3167TIP3   OH2 9422   8.517   1.664   1.728  0.4714 -0.4236  0.4219
 3167TIP3    H1 9423   8.526   1.756   1.704 -1.2479 -0.4232 -0.2460
 3167TIP3    H2 9424   8.556   1.616   1.655 -2.0126 -0.3282 -0.9984
 3168TIP3   OH2 9425   6.918   3.163   2.051  0.3511  0.2962 -0.1440
 3168TIP3    H1 9426   6.992   3.106   2.071  0.8786  0.7395 -0.7967
 3168TIP3    H2 9427   6.906   3.215   2.130  1.6093  1.1486 -0.4771
 3169TIP3   OH2 9428   8.486   1.587   1.992 -0.4378  0.1749 -0.7453
 3169TIP3    H1 9429   8.498   1.656   1.926  3.1717 -0.9681 -1.3962
 3169TIP3    H2 9430   8.468   1.508   1.941  0.2607 -0.2994 -0.2694
 3170TIP3   OH2 9431   6.397   2.655   2.442 -0.2220 -0.3538 -0.3188
 3170TIP3    H1 9432   6.306   2.626   2.454 -0.3789 -0.0125 -0.6857
 3170TIP3    H2 9433   6.397   2.701   2.358 -0.0314  0.9614  0.3862
 3171TIP3   OH2 9434   0.350   0.797   2.141 -0.1510 -0.0505 -0.1581
 3171TIP3    H1 9435   0.444   0.790   2.159 -0.0955  0.0758 -0.4008
 3171TIP3    H2 9436   0.309   0.753   2.215  0.0924  0.1200  0.0820
 3172TIP3   OH2 9437   1.330   0.566   3.141  0.0449  0.8668  0.1723
 3172TIP3    H1 9438   1.359   0.559   3.050  0.6187  1.6957  0.2935
 3172TIP3    H2 9439   1.377   0.496   3.187 -1.3667 -0.5125 -0.4451
 3173TIP3   OH2 9440   8.006   1.208   1.356 -0.4522  0.3733 -0.1409
 3173TIP3    H1 9441   7.999   1.212   1.451 -1.4900  0.1148 -0.1956
 3173TIP3    H2 9442   7.918   1.229   1.325 -0.8123 -2.1483 -0.9519
 3174TIP3   OH2 9443   7.628   3.127   0.882  0.0548  0.4650 -0.1115
 3174TIP3    H1 9444   7.540   3.092   0.897  0.5933 -0.2975  1.3821
 3174TIP3    H2 9445   7.633   3.205   0.936  0.0435  0.9339 -0.7814
 3175TIP3   OH2 9446   6.670   0.659   1.511 -0.6728  0.4816  0.2352
 3175TIP3    H1 9447   6.648   0.745   1.475 -3.4496 -0.3242 -0.0820
 3175TIP3    H2 9448   6.637   0.661   1.601 -1.9114 -0.6756 -0.1720
 3176TIP3   OH2 9449   4.018   8.096   1.043 -0.7443  0.7621 -0.3563
 3176TIP3    H1 9450   3.949   8.040   1.079  1.0186 -1.7922 -0.8273
 3176TIP3    H2 9451   4.078   8.111   1.117  0.3263 -0.4389 -0.9661
 3177TIP3   OH2 9452   7.025   2.139   0.301  0.0673  0.5741  0.1658
 3177TIP3    H1 9453   6.942   2.178   0.275 -0.3294  0.1397  0.7688
 3177TIP3    H2 9454   7.063   2.106   0.219 -0.9991 -0.4542  0.0715
 3178TIP3   OH2 9455   7.957   1.433   3.759  0.2678  0.2426 -0.1472
 3178TIP3    H1 9456   7.882   1.397   3.711  1.8813 -0.7965 -1.9438
 3178TIP3    H2 9457   7.977   1.367   3.825  1.0266 -0.5666 -1.1698
 3179TIP3   OH2 9458   0.326   1.508   1.511 -0.2729 -0.1905 -0.0116
 3179TIP3    H1 9459   0.313   1.425   1.464  0.0779  0.0503 -0.5343
 3179TIP3    H2 9460   0.322   1.484   1.603 -2.0862 -0.4985 -0.1512
 3180TIP3   OH2 9461   1.573   2.036   1.299 -0.0001 -0.2857 -0.3061
 3180TIP3    H1 9462   1.607   1.972   1.362  3.4870  1.1023 -0.6757
 3180TIP3    H2 9463   1.556   2.115   1.352  0.8955  0.1955 -0.7224
 3181TIP3   OH2 9464   6.420   2.776   2.172  0.2041 -0.3750 -0.0331
 3181TIP3    H1 9465   6.506   2.783   2.213  0.3425  0.5606 -0.4907
 3181TIP3    H2 9466   6.423   2.692   2.126  1.7728  0.7666 -2.1129
 3182TIP3   OH2 9467   8.245   1.841   1.317  0.2700 -0.3259  0.2910
 3182TIP3    H1 9468   8.229   1.848   1.223  0.2665 -1.9639  0.1630
 3182TIP3    H2 9469   8.175   1.893   1.357  0.7164  1.0119 -0.6218
 3183TIP3   OH2 9470   6.942   2.119   3.453 -0.0294 -0.3906  0.5793
 3183TIP3    H1 9471   7.026   2.147   3.417  0.6233 -1.7245  1.0600
 3183TIP3    H2 9472   6.885   2.196   3.444  0.2447 -0.5237 -2.9015
 3184TIP3   OH2 9473   0.082   4.108   0.870 -0.2019  0.4776 -0.0051
 3184TIP3    H1 9474   0.160   4.110   0.815 -0.6917  1.3215 -0.6780
 3184TIP3    H2 9475   0.010   4.126   0.809 -1.1493 -2.3212  0.2029
 3185TIP3   OH2 9476   8.662   1.331   2.310 -0.2501 -0.1088  0.3126
 3185TIP3    H1 9477   8.729   1.279   2.265 -2.0122 -1.2563 -1.0753
 3185TIP3    H2 9478   8.603   1.265   2.347 -1.5721  0.9007  0.0013
 3186TIP3   OH2 9479   1.441   6.026   5.802 -0.0776  0.6028  0.5923
 3186TIP3    H1 9480   1.525   6.048   5.842  0.8537 -0.6552 -0.6189
 3186TIP3    H2 9481   1.428   6.091   5.733  1.2165 -0.7798 -0.9906
 3187TIP3   OH2 9482   0.407   2.512   1.880 -0.3362  0.7658 -0.6735
 3187TIP3    H1 9483   0.368   2.540   1.963  1.9315  0.9548  0.3535
 3187TIP3    H2 9484   0.498   2.490   1.902  0.0231 -0.1335 -2.9208
 3188TIP3   OH2 9485   8.674   3.049   3.580  0.0041  0.2268 -0.1097
 3188TIP3    H1 9486   8.693   3.119   3.518  0.3710  0.6022  0.4307
 3188TIP3    H2 9487   8.582   3.060   3.601 -0.1635  0.0006 -0.7084
 3189TIP3   OH2 9488   5.880   8.108   2.869 -0.3557 -0.4291 -0.1670
 3189TIP3    H1 9489   5.953   8.068   2.916 -1.0670 -0.2159  1.1490
 3189TIP3    H2 9490   5.847   8.039   2.812  1.7519 -0.1132 -1.8466
 3190TIP3   OH2 9491   2.522   4.574   6.918  0.8752 -0.2127 -0.3734
 3190TIP3    H1 9492   2.546   4.564   6.826  1.9615 -0.3110 -0.0886
 3190TIP3    H2 9493   2.562   4.500   6.962 -1.2636 -1.2497 -0.0918
 3191TIP3   OH2 9494   8.412   2.363   1.942  0.4766  0.1684  0.2406
 3191TIP3    H1 9495   8.426   2.456   1.927 -0.1351  0.4917  1.5746
 3191TIP3    H2 9496   8.499   2.324   1.935  0.8738  0.9826  0.6077
 3192TIP3   OH2 9497   6.667   1.932   1.098  0.0359  0.1719  0.0678
 3192TIP3    H1 9498   6.635   1.991   1.166 -1.4636  0.8113 -1.1534
 3192TIP3    H2 9499   6.608   1.947   1.024  1.1269 -1.1082 -1.0868
 3193TIP3   OH2 9500   8.051   3.795   1.155  0.6347 -0.4022 -0.2675
 3193TIP3    H1 9501   8.078   3.837   1.236  1.3740 -0.5291 -0.4402
 3193TIP3    H2 9502   7.974   3.845   1.126  0.6407 -0.0807  0.2733
 3194TIP3   OH2 9503   7.547   2.284   2.127  0.0513  0.3217 -0.7199
 3194TIP3    H1 9504   7.638   2.288   2.098  0.2266 -2.6928 -0.7614
 3194TIP3    H2 9505   7.550   2.233   2.208 -1.6780 -0.4285 -1.1014
 3195TIP3   OH2 9506   7.741   1.293   2.881 -0.2158  0.1608 -0.0381
 3195TIP3    H1 9507   7.676   1.364   2.883 -0.2344  0.1364  0.4211
 3195TIP3    H2 9508   7.811   1.326   2.824 -0.9805 -0.1266 -1.1647
 3196TIP3   OH2 9509   0.273   2.486   5.041  0.0664 -0.2073 -0.2065
 3196TIP3    H1 9510   0.247   2.396   5.019  1.5251 -0.9881  1.1321
 3196TIP3    H2 9511   0.367   2.488   5.022  0.3535  0.5484  1.2592
 3197TIP3   OH2 9512   8.432   0.731   1.461 -0.2714 -0.1667 -0.3910
 3197TIP3    H1 9513   8.500   0.752   1.525  0.4805 -1.8800 -0.5861
 3197TIP3    H2 9514   8.367   0.681   1.510 -0.1063 -0.7630 -0.7738
 3198TIP3   OH2 9515   1.142   2.694   1.857  0.5388  0.0364  0.5086
 3198TIP3    H1 9516   1.214   2.676   1.916 -0.8305 -1.1426  1.8691
 3198TIP3    H2 9517   1.083   2.619   1.867 -0.5243  0.6110 -1.1106
 3199TIP3   OH2 9518   8.243   2.799   1.010  0.3519  0.3236  0.2999
 3199TIP3    H1 9519   8.243   2.847   1.093 -0.3074  2.1468 -0.7071
 3199TIP3    H2 9520   8.156   2.816   0.973  0.7215 -0.2695 -0.8544
 3200TIP3   OH2 9521   0.686   1.454   1.399 -0.5027  0.2054 -0.8538
 3200TIP3    H1 9522   0.662   1.546   1.397  0.2891  0.4794  0.8536
 3200TIP3    H2 9523   0.769   1.449   1.350 -1.0259  0.2315 -1.7504
 3201TIP3   OH2 9524   8.762   1.487   2.523 -0.0971 -0.0315  0.1613
 3201TIP3    H1 9525   8.687   1.487   2.463 -1.3700  1.1917  1.7148
 3201TIP3    H2 9526   8.724   1.501   2.610  1.8790 -0.0378  1.0674
 3202TIP3   OH2 9527   6.627   0.925   2.182 -0.4037 -0.4601 -0.2876
 3202TIP3    H1 9528   6.659   0.842   2.148  0.5602 -1.0213  1.9196
 3202TIP3    H2 9529   6.532   0.922   2.169 -0.1095 -0.8216 -2.4753
 3203TIP3   OH2 9530   6.582   0.433   1.320 -0.4936 -0.2489  0.4038
 3203TIP3    H1 9531   6.668   0.450   1.358 -0.4517 -0.9934  0.6391
 3203TIP3    H2 9532   6.555   0.518   1.285 -0.4064  0.3810  1.8364
 3204TIP3   OH2 9533   7.340   1.943   3.410  0.1028 -0.2179  0.1051
 3204TIP3    H1 9534   7.426   1.905   3.391  0.2978  0.3310 -0.1198
 3204TIP3    H2 9535   7.290   1.871   3.448  1.2021 -0.1088  1.8141
 3205TIP3   OH2 9536   6.520   3.203   2.236  0.0467  0.1394 -0.3138
 3205TIP3    H1 9537   6.589   3.146   2.201  1.0568  0.2392  1.4337
 3205TIP3    H2 9538   6.518   3.278   2.177  1.7429  0.3353 -0.1405
 3206TIP3   OH2 9539   7.833   1.942   1.501 -0.7381 -0.0022  0.1861
 3206TIP3    H1 9540   7.758   1.882   1.500 -0.6736 -0.0817 -0.0077
 3206TIP3    H2 9541   7.801   2.019   1.548 -1.9720  1.2311 -2.5164
 3207TIP3   OH2 9542   2.230   2.911   1.865 -0.1010 -0.6199 -0.0357
 3207TIP3    H1 9543   2.223   2.928   1.771 -0.0427 -1.2485 -0.1564
 3207TIP3    H2 9544   2.283   2.832   1.871  2.5145  1.1383  0.6660
 3208TIP3   OH2 9545   6.560   2.588   1.794  0.4652 -0.2888 -0.0418
 3208TIP3    H1 9546   6.652   2.591   1.768  0.9153 -0.5286  1.4428
 3208TIP3    H2 9547   6.562   2.572   1.889 -1.0450  2.2076  0.4793
 3209TIP3   OH2 9548   4.226   6.694   3.297  0.1509  0.3615 -0.5333
 3209TIP3    H1 9549   4.168   6.714   3.371  0.3982  1.8292 -0.7191
 3209TIP3    H2 9550   4.205   6.761   3.232  2.5782  1.3708 -0.3138
 3210TIP3   OH2 9551   8.328   3.968   1.010 -0.4091 -0.5986 -0.4281
 3210TIP3    H1 9552   8.321   3.883   0.967  1.3906 -0.3642 -1.2204
 3210TIP3    H2 9553   8.358   3.948   1.098  0.6932 -0.7552 -0.8294
 3211TIP3   OH2 9554   8.220   3.724   1.710 -0.3483  0.2861 -0.8188
 3211TIP3    H1 9555   8.263   3.675   1.780 -0.1700  0.1205 -1.0461
 3211TIP3    H2 9556   8.267   3.699   1.631 -1.9483 -1.2431 -1.3229
 3212TIP3   OH2 9557   8.422   1.980   3.426 -0.2414 -0.2413 -0.4041
 3212TIP3    H1 9558   8.332   1.973   3.458  0.0143  0.0339  0.3737
 3212TIP3    H2 9559   8.440   2.074   3.425 -0.0800 -0.2729 -0.9046
 3213TIP3   OH2 9560   6.043   3.080   2.729 -0.1189 -0.3787 -0.5423
 3213TIP3    H1 9561   6.093   3.024   2.670 -0.5952 -0.9437 -0.4155
 3213TIP3    H2 9562   6.109   3.122   2.784  0.1562 -1.9754  0.3651
 3214TIP3   OH2 9563   7.361   1.745   4.045  1.0742  0.5548  0.1156
 3214TIP3    H1 9564   7.447   1.783   4.027  1.7051 -0.7665  0.2382
 3214TIP3    H2 9565   7.326   1.724   3.958  0.6691  1.5307  0.0426
 3215TIP3   OH2 9566   8.087   1.632   2.735 -0.0524 -0.2081  0.4116
 3215TIP3    H1 9567   8.016   1.569   2.724 -0.6781  0.3936  0.8996
 3215TIP3    H2 9568   8.159   1.598   2.682 -1.5776  0.4977 -2.1854
 3216TIP3   OH2 9569   6.703   1.525   3.397 -0.0446  0.5704  0.4161
 3216TIP3    H1 9570   6.667   1.436   3.408  0.4115  0.4749  1.1510
 3216TIP3    H2 9571   6.785   1.524   3.446  1.5068  0.4819 -2.0799
 3217TIP3   OH2 9572   4.775   7.921   0.131 -0.0016  0.1365 -0.0362
 3217TIP3    H1 9573   4.736   8.007   0.146  1.4001  0.6069  0.9558
 3217TIP3    H2 9574   4.830   7.905   0.208 -1.5216 -2.3779  0.5654
 3218TIP3   OH2 9575   0.427   3.219   3.158  0.0685  0.0609  0.4565
 3218TIP3    H1 9576   0.507   3.185   3.196 -0.4637  0.1180  1.6561
 3218TIP3    H2 9577   0.443   3.312   3.146  0.6132 -0.1458 -0.4509
 3219TIP3   OH2 9578   7.020   2.313   2.498  0.0674  0.2305  0.0629
 3219TIP3    H1 9579   6.949   2.273   2.449 -1.3398  2.2514  0.3694
 3219TIP3    H2 9580   6.982   2.330   2.585  1.7783 -1.1338  1.1001
 3220TIP3   OH2 9581   8.035   1.711   3.455  0.4101 -0.1886  0.4617
 3220TIP3    H1 9582   8.055   1.730   3.364  1.1254 -1.5429  0.3293
 3220TIP3    H2 9583   8.083   1.630   3.474 -1.4257 -1.0915  1.4117
 3221TIP3   OH2 9584   0.033   1.269   2.506 -0.1746 -0.2539  0.0130
 3221TIP3    H1 9585   0.021   1.221   2.424 -0.6420  0.3046 -0.2485
 3221TIP3    H2 9586  -0.031   1.340   2.502  1.6270  1.4133 -0.3611
 3222TIP3   OH2 9587   7.837   3.122   2.172 -0.2810 -0.1577 -0.0644
 3222TIP3    H1 9588   7.932   3.131   2.168 -0.2456  0.3991  1.6168
 3222TIP3    H2 9589   7.815   3.062   2.101  1.0557  1.7096 -2.1184
 3223TIP3   OH2 9590   6.267   0.787   2.997 -0.1842 -0.5249  0.2067
 3223TIP3    H1 9591   6.175   0.778   3.020 -0.0092 -0.4688  0.9696
 3223TIP3    H2 9592   6.299   0.698   2.989 -0.3416 -0.5431 -0.2047
 3224TIP3   OH2 9593   8.748   1.159   1.831 -0.4624 -0.2620 -0.3283
 3224TIP3    H1 9594   8.713   1.150   1.920 -0.4971 -0.8558 -0.3954
 3224TIP3    H2 9595   8.672   1.145   1.774 -0.8632  2.1629 -0.4394
 3225TIP3   OH2 9596   1.291   2.800   1.181 -0.3044 -0.2863  0.4124
 3225TIP3    H1 9597   1.203   2.801   1.218 -0.5006 -0.1690 -0.0504
 3225TIP3    H2 9598   1.307   2.709   1.158 -0.7738 -0.1189 -0.6013
 3226TIP3   OH2 9599   1.392   0.326   1.916  0.2052  0.3454  0.2171
 3226TIP3    H1 9600   1.331   0.269   1.962 -0.9064  1.0722 -0.3169
 3226TIP3    H2 9601   1.443   0.368   1.985  2.1256 -2.4276  0.5620
 3227TIP3   OH2 9602   6.483   1.899   1.598 -0.0774 -0.2909  0.2108
 3227TIP3    H1 9603   6.423   1.952   1.545  0.0899 -1.3752 -1.1006
 3227TIP3    H2 9604   6.545   1.963   1.635 -0.0120  0.4680 -1.1718
 3228TIP3   OH2 9605   8.498   5.863   1.597 -0.2551 -0.0205  0.2160
 3228TIP3    H1 9606   8.530   5.845   1.685 -1.2556 -2.9352  0.0417
 3228TIP3    H2 9607   8.569   5.837   1.539 -0.1307  0.5487  0.1132
 3229TIP3   OH2 9608   0.633   3.163   2.662  0.2672  0.2951 -0.8094
 3229TIP3    H1 9609   0.656   3.193   2.750  1.7389  0.8839 -1.3848
 3229TIP3    H2 9610   0.687   3.086   2.647  0.2490  0.3761 -1.3075
 3230TIP3   OH2 9611   8.646   1.008   2.598  0.8768 -0.0164 -0.0805
 3230TIP3    H1 9612   8.601   0.964   2.671  1.2452 -0.1823  0.0460
 3230TIP3    H2 9613   8.724   0.955   2.582 -0.0718 -0.9724 -1.7334
 3231TIP3   OH2 9614   8.768   1.601   1.879 -0.4143 -0.1129 -0.0598
 3231TIP3    H1 9615   8.801   1.633   1.795 -1.1766 -0.0517 -0.3346
 3231TIP3    H2 9616   8.685   1.647   1.892 -0.6114 -0.6000  0.4192
 3232TIP3   OH2 9617   1.378   7.494   6.450 -0.1059 -0.4332 -0.2137
 3232TIP3    H1 9618   1.430   7.562   6.406 -0.3560  0.8851  1.4841
 3232TIP3    H2 9619   1.383   7.517   6.543 -2.2920 -1.3007  0.1352
 3233TIP3   OH2 9620   2.811   6.574   5.893 -0.1606  0.3942  0.0319
 3233TIP3    H1 9621   2.903   6.549   5.901  0.0301  1.5982  2.0844
 3233TIP3    H2 9622   2.804   6.653   5.946 -2.5187 -0.0287  0.3792
 3234TIP3   OH2 9623   7.024   1.044   0.143  0.0876 -0.1975 -0.0394
 3234TIP3    H1 9624   6.965   0.968   0.141 -1.8869  1.3043 -0.7572
 3234TIP3    H2 9625   7.014   1.080   0.231  0.9169 -0.6764  0.2541
 3235TIP3   OH2 9626   7.141   2.673   1.796 -0.2222  0.7210  0.4964
 3235TIP3    H1 9627   7.130   2.604   1.731 -0.3252  0.7430  0.4915
 3235TIP3    H2 9628   7.110   2.752   1.754  1.3201  1.0627 -0.0455
 3236TIP3   OH2 9629   2.378   3.434   2.927  0.1773  0.1727  0.0461
 3236TIP3    H1 9630   2.447   3.482   2.973  0.0045  1.6486 -1.1923
 3236TIP3    H2 9631   2.419   3.406   2.845  0.8921 -3.6103  1.6187
 3237TIP3   OH2 9632   8.746   0.591   1.999  0.0010  0.1124 -0.0552
 3237TIP3    H1 9633   8.719   0.671   2.045 -1.0077 -0.7511  0.8807
 3237TIP3    H2 9634   8.664   0.550   1.972  0.4120 -1.7947  1.5058
 3238TIP3   OH2 9635   8.459   2.901   1.645  0.6263 -0.4593  0.3014
 3238TIP3    H1 9636   8.431   2.901   1.737  2.1471 -1.3125  0.7875
 3238TIP3    H2 9637   8.542   2.949   1.645  0.9767 -1.0478 -0.5052
 3239TIP3   OH2 9638   7.330   1.386   1.576  0.5990  0.3961 -0.6127
 3239TIP3    H1 9639   7.353   1.447   1.507 -2.3180 -0.4348 -2.3617
 3239TIP3    H2 9640   7.336   1.300   1.535 -0.3701 -0.1707  0.4034
 3240TIP3   OH2 9641   7.987   2.207   1.491 -0.1909 -0.4824 -0.2964
 3240TIP3    H1 9642   8.039   2.161   1.557  0.1860  0.2320 -0.0854
 3240TIP3    H2 9643   7.911   2.240   1.539  0.4823  0.7297 -0.0214
 3241TIP3   OH2 9644   8.004   0.945   2.005 -0.0840 -0.1215 -0.1977
 3241TIP3    H1 9645   8.053   0.866   2.026  0.8676  0.5194 -0.0048
 3241TIP3    H2 9646   7.952   0.963   2.083  1.4090  0.7208  0.6243
 3242TIP3   OH2 9647   1.159   7.071   6.605  0.2680  0.3814  0.2180
 3242TIP3    H1 9648   1.102   7.096   6.677  0.0453 -2.4143  1.0789
 3242TIP3    H2 9649   1.152   6.976   6.601  3.9097  0.0771 -0.4476
 3243TIP3   OH2 9650   0.416   3.441   0.983  0.0942  0.3812 -0.5057
 3243TIP3    H1 9651   0.380   3.504   0.920  0.2300  1.7452  0.7640
 3243TIP3    H2 9652   0.444   3.495   1.057  0.5184 -1.1501  0.4529
 3244TIP3   OH2 9653   8.346   1.590   2.587  0.4603  0.4359 -0.3111
 3244TIP3    H1 9654   8.399   1.647   2.532  0.6849 -0.3989 -0.9651
 3244TIP3    H2 9655   8.379   1.502   2.569 -0.7899 -0.0358 -0.3418
 3245TIP3   OH2 9656   8.048   4.985   6.582  0.1649  0.0442  0.0056
 3245TIP3    H1 9657   7.993   5.032   6.519  0.2083  1.2220  0.8111
 3245TIP3    H2 9658   8.130   5.035   6.583 -0.0760  0.4333  1.4694
 3246TIP3   OH2 9659   8.332   3.813   3.774  0.0236 -0.1988 -0.2599
 3246TIP3    H1 9660   8.289   3.799   3.690 -1.2150 -0.0648  0.3361
 3246TIP3    H2 9661   8.426   3.811   3.754 -0.2578 -0.3395 -1.6056
 3247TIP3   OH2 9662   7.814   5.405   0.548  0.6971  0.5803 -0.4367
 3247TIP3    H1 9663   7.768   5.323   0.530 -2.1704  2.1049 -0.4206
 3247TIP3    H2 9664   7.857   5.427   0.466  3.1269 -1.8736  0.1042
 3248TIP3   OH2 9665   0.240   0.710   2.541 -0.2567 -0.5853  0.0270
 3248TIP3    H1 9666   0.177   0.709   2.469 -2.0638 -1.5611  1.5997
 3248TIP3    H2 9667   0.256   0.803   2.557  0.5339 -0.3429 -1.8987
 3249TIP3   OH2 9668   8.275   2.273   1.396 -0.0536  0.2145  0.4585
 3249TIP3    H1 9669   8.287   2.207   1.463  0.2156  0.2564  0.4519
 3249TIP3    H2 9670   8.198   2.322   1.424 -1.8427 -1.7466 -0.8826
 3250TIP3   OH2 9671   5.897   3.317   2.011  0.1673 -0.1009 -0.4935
 3250TIP3    H1 9672   5.948   3.398   2.014 -0.1747  0.0778  0.7381
 3250TIP3    H2 9673   5.911   3.277   2.097  0.8271 -1.6667 -1.3123
 3251TIP3   OH2 9674   8.417   3.454   1.302  0.3379 -0.7217  0.2352
 3251TIP3    H1 9675   8.398   3.370   1.260  0.1801 -0.1819 -0.7945
 3251TIP3    H2 9676   8.480   3.496   1.243  0.5426 -0.1796  0.8298
 3252TIP3   OH2 9677   6.951   1.966   1.263 -0.5488  0.8331 -0.0497
 3252TIP3    H1 9678   7.044   1.988   1.255 -0.1874 -1.0462 -1.2973
 3252TIP3    H2 9679   6.911   2.005   1.185 -1.2607  3.7024  1.6727
 3253TIP3   OH2 9680   7.697   5.147   0.530  0.1050 -0.3794  1.1597
 3253TIP3    H1 9681   7.602   5.142   0.520 -0.0790  0.4263  2.4707
 3253TIP3    H2 9682   7.722   5.060   0.561  0.0467 -1.2293 -1.1232
 3254TIP3   OH2 9683   7.646   2.220   2.826  0.0978 -0.0100  0.2451
 3254TIP3    H1 9684   7.688   2.190   2.745 -0.2529  1.4683 -0.4982
 3254TIP3    H2 9685   7.575   2.277   2.796 -0.2322  0.2929  1.5934
 3255TIP3   OH2 9686   8.134   1.743   2.466  0.5248 -0.2788 -1.1542
 3255TIP3    H1 9687   8.205   1.807   2.460  0.6290 -0.1276  1.1107
 3255TIP3    H2 9688   8.178   1.660   2.480  0.2835  0.2062  3.1661
 3256TIP3   OH2 9689   7.597   1.206   3.675  0.3633  0.1686  0.0021
 3256TIP3    H1 9690   7.558   1.223   3.590  1.1313 -0.1370 -0.4189
 3256TIP3    H2 9691   7.689   1.231   3.665  0.5260 -0.1392  0.6526
 3257TIP3   OH2 9692   8.051   1.776   1.527  0.6076  0.1409 -0.9590
 3257TIP3    H1 9693   8.005   1.844   1.478  2.1484  1.1300 -1.0653
 3257TIP3    H2 9694   8.045   1.698   1.471 -2.3560 -0.2090 -0.2045
 3258TIP3   OH2 9695   6.568   0.911   1.391 -0.0953  0.0220 -0.0138
 3258TIP3    H1 9696   6.552   0.956   1.309 -0.4968 -1.2407 -0.6384
 3258TIP3    H2 9697   6.615   0.975   1.445  0.2662  0.8184 -1.2555
 3259TIP3   OH2 9698   1.783   0.172   3.510  0.1586 -0.5213  0.2496
 3259TIP3    H1 9699   1.796   0.137   3.422  1.2709 -2.1589  1.0360
 3259TIP3    H2 9700   1.716   0.117   3.549 -0.5162  0.3579  0.3434
 3260TIP3   OH2 9701   0.465   0.336   2.353  0.9442  0.5626 -0.4161
 3260TIP3    H1 9702   0.377   0.299   2.364  0.3627  2.3552  1.2911
 3260TIP3    H2 9703   0.522   0.276   2.401  0.6888 -0.6892 -1.6490
 3261TIP3   OH2 9704   3.900   8.162   3.809 -0.2428 -0.3764 -0.2042
 3261TIP3    H1 9705   3.855   8.231   3.759  2.6123  1.2674 -0.5844
 3261TIP3    H2 9706   3.963   8.125   3.747 -0.4315 -2.0483  0.5895
 3262TIP3   OH2 9707   7.700   2.643   0.219  0.2165  0.6559 -0.5054
 3262TIP3    H1 9708   7.738   2.656   0.306 -3.1117 -0.7482  1.2779
 3262TIP3    H2 9709   7.674   2.550   0.218 -0.1177  0.7438 -2.8816
 3263TIP3   OH2 9710   7.332   2.842   3.287  0.4130 -0.7383 -0.0607
 3263TIP3    H1 9711   7.350   2.790   3.366 -2.8211  0.4513  1.5946
 3263TIP3    H2 9712   7.239   2.825   3.269  0.3399  1.3426 -1.8231
 3264TIP3   OH2 9713   7.937   1.175   3.885 -0.3724 -0.9218  0.1375
 3264TIP3    H1 9714   7.975   1.144   3.802 -1.3087  0.1886 -0.7330
 3264TIP3    H2 9715   7.952   1.103   3.946  1.7983 -1.1064 -0.5520
 3265TIP3   OH2 9716   6.498   0.651   1.159  0.3488 -0.3106 -0.0780
 3265TIP3    H1 9717   6.527   0.738   1.187 -0.7974 -0.1510  0.6343
 3265TIP3    H2 9718   6.404   0.660   1.144  0.4293 -1.1341 -1.1592
 3266TIP3   OH2 9719   6.777   2.581   1.624  0.2078  0.4688 -0.3948
 3266TIP3    H1 9720   6.741   2.632   1.552  2.2091  0.7909 -1.2078
 3266TIP3    H2 9721   6.866   2.560   1.596 -0.1023 -2.3396  0.4855
 3267TIP3   OH2 9722   1.559   1.751   2.548  0.2207  0.6908  0.0616
 3267TIP3    H1 9723   1.603   1.816   2.493  0.5995 -1.2110 -1.9648
 3267TIP3    H2 9724   1.467   1.756   2.521  0.0553  1.1489  0.7015
 3268TIP3   OH2 9725   0.438   1.182   2.506 -0.1244  0.1492  0.2728
 3268TIP3    H1 9726   0.411   1.216   2.591  0.5995 -0.2071  0.6461
 3268TIP3    H2 9727   0.530   1.158   2.517  0.4462  1.5835 -1.0538
 3269TIP3   OH2 9728   7.788   3.781   3.056  0.1044  0.5263  0.1177
 3269TIP3    H1 9729   7.777   3.819   3.144  0.2498 -0.7047  0.6867
 3269TIP3    H2 9730   7.880   3.757   3.053  0.0828  0.5111 -0.3540
 3270TIP3   OH2 9731   0.990   3.152   1.753  0.1429 -0.1026  0.2550
 3270TIP3    H1 9732   0.967   3.092   1.682  0.5709 -1.3788  1.1681
 3270TIP3    H2 9733   1.056   3.104   1.804 -1.3361  0.1279  2.4481
 3271TIP3   OH2 9734   7.068   0.595   1.504  0.6912 -0.1232  0.4817
 3271TIP3    H1 9735   7.006   0.613   1.575  1.3578 -0.7118  1.2051
 3271TIP3    H2 9736   7.140   0.656   1.519 -0.0051  1.0667 -0.7695
 3272TIP3   OH2 9737   6.289   3.538   2.430 -0.2323  0.0617 -0.3441
 3272TIP3    H1 9738   6.200   3.544   2.464 -0.4111 -0.1854 -0.7588
 3272TIP3    H2 9739   6.313   3.629   2.409  0.1956  0.3227  1.2052
 3273TIP3   OH2 9740   5.237   2.402   1.822  0.1639 -0.3732 -0.0617
 3273TIP3    H1 9741   5.296   2.474   1.800 -1.2657  0.4053 -1.4854
 3273TIP3    H2 9742   5.204   2.423   1.909  0.1383  0.4358 -0.2638
 3274TIP3   OH2 9743   4.909   8.173   3.425 -0.8795  0.1013  0.0929
 3274TIP3    H1 9744   4.874   8.259   3.402 -0.4166  0.1478 -0.4330
 3274TIP3    H2 9745   4.987   8.192   3.478 -0.0725  0.0129 -1.0582
 3275TIP3   OH2 9746   1.250   1.661   1.208 -0.1694  0.2282  0.1203
 3275TIP3    H1 9747   1.211   1.710   1.136  0.6125  0.3937 -0.1895
 3275TIP3    H2 9748   1.330   1.708   1.230 -0.2919  0.0566  0.9559
 3276TIP3   OH2 9749   6.326   0.986   3.837  0.4012 -0.0717 -0.4536
 3276TIP3    H1 9750   6.328   0.997   3.932 -0.1984 -2.4844 -0.1155
 3276TIP3    H2 9751   6.409   1.021   3.807  0.5288  0.8706  0.9349
 3277TIP3   OH2 9752   0.009   1.200   2.232  0.5323  0.0738  0.4614
 3277TIP3    H1 9753  -0.020   1.269   2.173  0.6063  1.2360  1.7743
 3277TIP3    H2 9754   0.088   1.164   2.190  0.9323  1.2933  0.1408
 3278TIP3   OH2 9755   6.393   2.790   1.763 -0.4172  0.5005  0.3480
 3278TIP3    H1 9756   6.453   2.855   1.800 -0.5674  1.6306 -1.3710
 3278TIP3    H2 9757   6.439   2.707   1.776  0.1132  1.0108  1.8856
 3279TIP3   OH2 9758   7.708   1.017   2.874 -0.3708  0.7085  0.3219
 3279TIP3    H1 9759   7.724   1.109   2.855  0.9067  0.4954  0.3534
 3279TIP3    H2 9760   7.647   1.018   2.948  0.5315  1.5294  1.0559
 3280TIP3   OH2 9761   7.342   1.548   2.798 -0.4546 -0.0930  0.3676
 3280TIP3    H1 9762   7.282   1.622   2.789 -0.8237 -0.6443 -1.9931
 3280TIP3    H2 9763   7.285   1.472   2.815 -0.3018 -0.3304 -0.1727
 3281TIP3   OH2 9764   0.882   2.220   1.945  0.0788  0.1838  0.4193
 3281TIP3    H1 9765   0.922   2.260   1.867  0.5458 -1.7260 -0.3355
 3281TIP3    H2 9766   0.878   2.127   1.925 -1.8584 -0.0543  1.7982
 3282TIP3   OH2 9767   1.357   2.279   1.189 -0.4602 -0.3126  0.1257
 3282TIP3    H1 9768   1.356   2.279   1.284 -2.3288 -1.7673  0.1242
 3282TIP3    H2 9769   1.299   2.207   1.164 -0.9158  0.7959 -2.1174
 3283TIP3   OH2 9770   8.126   2.210   2.666 -0.7305 -0.0882 -0.5322
 3283TIP3    H1 9771   8.054   2.217   2.603 -0.3837 -3.3491 -1.3614
 3283TIP3    H2 9772   8.084   2.185   2.748 -0.9338  1.9180 -0.0028
 3284TIP3   OH2 9773   6.886   2.660   1.221  0.2175  0.1902 -0.9427
 3284TIP3    H1 9774   6.832   2.670   1.143 -1.1765 -1.9822 -0.2886
 3284TIP3    H2 9775   6.959   2.605   1.193 -0.2258 -0.5000 -0.7514
 3285TIP3   OH2 9776   8.557   3.181   0.850 -0.3451 -0.0525  0.2626
 3285TIP3    H1 9777   8.467   3.206   0.872  0.0561  1.1758  0.5677
 3285TIP3    H2 9778   8.596   3.261   0.815  0.5091 -0.6917 -0.2609
 3286TIP3   OH2 9779   6.557   3.318   1.630  0.5675  0.1765 -0.3534
 3286TIP3    H1 9780   6.549   3.242   1.572  1.0324  0.1415 -0.3736
 3286TIP3    H2 9781   6.620   3.375   1.586 -0.4651  1.0022 -0.7891
 3287TIP3   OH2 9782   8.423   3.617   1.531  0.0343  0.2528 -0.8676
 3287TIP3    H1 9783   8.510   3.656   1.526 -0.2423  0.9937 -0.1335
 3287TIP3    H2 9784   8.407   3.581   1.444  0.6432  1.0456 -1.3068
 3288TIP3   OH2 9785   7.956   3.274   0.825 -0.1109  0.7395  0.1264
 3288TIP3    H1 9786   7.888   3.341   0.814 -1.3721 -0.4963  0.1526
 3288TIP3    H2 9787   7.981   3.280   0.917 -0.6874  0.7549  0.2855
 3289TIP3   OH2 9788   2.936   8.398   1.562 -0.1467 -0.2996 -0.3762
 3289TIP3    H1 9789   2.843   8.413   1.548 -0.0230  0.1766 -0.7086
 3289TIP3    H2 9790   2.947   8.303   1.550 -0.6066 -0.3782 -0.1985
 3290TIP3   OH2 9791   3.690   7.993   4.633  0.6034 -0.3151 -0.6448
 3290TIP3    H1 9792   3.715   7.929   4.566  2.5303  2.0474 -2.2125
 3290TIP3    H2 9793   3.600   8.017   4.611 -1.3454 -4.6646  1.7659
 3291TIP3   OH2 9794   6.647   2.299   1.090  0.5003 -0.2274  0.0916
 3291TIP3    H1 9795   6.723   2.241   1.096 -0.9322 -2.1610  0.3342
 3291TIP3    H2 9796   6.614   2.285   1.001 -0.1611 -0.1961  0.3318
 3292TIP3   OH2 9797   7.903   1.482   0.997  0.1813  0.1230  0.1992
 3292TIP3    H1 9798   7.976   1.535   1.027 -1.2861  0.5477  3.1306
 3292TIP3    H2 9799   7.837   1.545   0.967  0.3268 -0.2052 -0.8326
 3293TIP3   OH2 9800   8.730   0.903   2.956  0.3686 -0.3199 -0.8644
 3293TIP3    H1 9801   8.799   0.878   2.895  0.0221 -1.6907 -0.7138
 3293TIP3    H2 9802   8.716   0.825   3.009 -0.3715  0.3815 -0.0173
 3294TIP3   OH2 9803   5.614   1.066   1.628  0.4774  0.1360 -0.2130
 3294TIP3    H1 9804   5.525   1.099   1.642 -0.1136 -1.4494 -0.0780
 3294TIP3    H2 9805   5.630   1.009   1.703  0.5718 -1.6905 -1.5935
 3295TIP3   OH2 9806   0.536   2.161   1.988  0.6684 -0.1516 -0.1700
 3295TIP3    H1 9807   0.569   2.072   1.971 -0.8671 -0.8362  0.3200
 3295TIP3    H2 9808   0.442   2.148   2.006  0.4294  1.5806 -0.1532
 3296TIP3   OH2 9809   6.297   4.621   2.335  0.9309  0.5429  0.0410
 3296TIP3    H1 9810   6.213   4.644   2.374 -0.2210 -1.6164 -1.0695
 3296TIP3    H2 9811   6.315   4.692   2.273 -1.6865 -0.5088 -2.0451
 3297TIP3   OH2 9812   0.379   3.117   2.508 -0.1160  0.3407  0.1595
 3297TIP3    H1 9813   0.374   3.163   2.425  0.6789 -0.7052 -0.4784
 3297TIP3    H2 9814   0.442   3.166   2.560  0.2215  0.3567 -0.2672
 3298TIP3   OH2 9815   4.816   7.954   2.912 -0.1906  0.0489 -0.4136
 3298TIP3    H1 9816   4.858   7.959   2.998 -3.5668 -1.5423  1.4284
 3298TIP3    H2 9817   4.745   8.019   2.916 -0.5406 -0.2247 -1.8786
 3299TIP3   OH2 9818   1.994   3.252   0.954 -0.4600 -0.4143 -0.6085
 3299TIP3    H1 9819   1.926   3.299   0.905  0.8258  1.9250 -0.2374
 3299TIP3    H2 9820   2.072   3.306   0.944  1.2108 -2.7608 -0.5353
 3300TIP3   OH2 9821   5.545   1.039   2.666  0.1672 -0.4153  0.2547
 3300TIP3    H1 9822   5.634   1.007   2.674  0.2868 -0.2362 -0.3521
 3300TIP3    H2 9823   5.541   1.115   2.725  0.8855  0.5761 -0.9563
 3301TIP3   OH2 9824   8.586   1.045   2.039  0.1303 -0.0552  0.8896
 3301TIP3    H1 9825   8.537   0.970   2.005 -0.0606  0.4997 -0.0911
 3301TIP3    H2 9826   8.599   1.025   2.132 -1.1264 -0.6618  0.9543
 3302TIP3   OH2 9827   5.705   4.368   1.177  0.2141 -0.5039 -0.3715
 3302TIP3    H1 9828   5.781   4.395   1.125 -0.7972 -0.5392 -1.9009
 3302TIP3    H2 9829   5.723   4.277   1.201  1.0253 -0.2536 -0.0340
 3303TIP3   OH2 9830   8.538   4.584   3.652 -0.0209  0.0089  0.2016
 3303TIP3    H1 9831   8.520   4.672   3.685  1.3572  1.2790 -2.3155
 3303TIP3    H2 9832   8.617   4.557   3.698 -0.0898  0.3186  0.5057
 3304TIP3   OH2 9833   1.636   3.033   1.372  0.0887 -0.5293  0.1994
 3304TIP3    H1 9834   1.650   3.013   1.280  1.1172 -1.9126  0.6445
 3304TIP3    H2 9835   1.589   3.117   1.372  0.9954 -0.0176 -1.5387
 3305TIP3   OH2 9836   0.633   1.218   6.402  0.2414 -0.6488  0.4290
 3305TIP3    H1 9837   0.715   1.169   6.408  0.1430 -0.6595  1.8260
 3305TIP3    H2 9838   0.655   1.294   6.347  0.9445 -1.1210  0.0438
 3306TIP3   OH2 9839   6.932   1.354   4.594  0.1834 -0.1799 -0.5224
 3306TIP3    H1 9840   7.015   1.325   4.556 -0.1232 -0.2474 -1.1470
 3306TIP3    H2 9841   6.924   1.445   4.568 -0.1884 -0.3199 -0.9054
 3307TIP3   OH2 9842   1.079   4.603   2.972  0.1824  0.2388 -0.1404
 3307TIP3    H1 9843   1.006   4.650   2.932  0.1374 -0.1364 -0.5001
 3307TIP3    H2 9844   1.063   4.610   3.067 -1.2384 -1.2697 -0.2335
 3308TIP3   OH2 9845   0.752   3.516   1.610 -0.1241 -0.7926  0.0131
 3308TIP3    H1 9846   0.753   3.456   1.535  2.4970 -1.7642  0.7592
 3308TIP3    H2 9847   0.777   3.461   1.684  0.4946  0.8305  1.0320
 3309TIP3   OH2 9848   5.528   0.923   0.166  0.3509  0.2544  0.7172
 3309TIP3    H1 9849   5.449   0.929   0.113  0.6473 -0.8360  0.1353
 3309TIP3    H2 9850   5.597   0.958   0.110  0.2951  1.1636  1.2087
 3310TIP3   OH2 9851   8.793   3.302   3.110 -0.5442  0.0320 -0.1656
 3310TIP3    H1 9852   8.742   3.288   3.030 -1.3940  2.5117 -0.1184
 3310TIP3    H2 9853   8.753   3.379   3.150  1.0923 -0.0406  1.6603
 3311TIP3   OH2 9854   0.885   5.696   2.802  0.0680 -0.1109 -0.4806
 3311TIP3    H1 9855   0.918   5.652   2.880  1.1172 -1.4197 -1.6447
 3311TIP3    H2 9856   0.818   5.637   2.767 -0.9357  0.8239 -0.1677
 3312TIP3   OH2 9857   8.538   4.838   5.749  0.2721 -0.1699 -0.1809
 3312TIP3    H1 9858   8.457   4.790   5.765  0.1744  0.4537  1.2672
 3312TIP3    H2 9859   8.561   4.817   5.658  0.0901 -2.7254  0.3306
 3313TIP3   OH2 9860   5.120   5.825   6.805  0.0019 -0.0690  0.0141
 3313TIP3    H1 9861   5.153   5.797   6.890  0.9391  0.7961 -0.0556
 3313TIP3    H2 9862   5.123   5.745   6.751 -0.7500 -0.6559  0.8202
 3314TIP3   OH2 9863   2.776   3.062   4.698  0.2309  0.4057  0.1483
 3314TIP3    H1 9864   2.801   3.154   4.707  0.3907  0.3041  0.7666
 3314TIP3    H2 9865   2.771   3.048   4.603 -1.6301  1.5536  0.0401
 3315TIP3   OH2 9866   7.576   4.652   4.300 -0.0647 -0.5995  0.0599
 3315TIP3    H1 9867   7.577   4.651   4.205  1.1073  1.6455  0.0338
 3315TIP3    H2 9868   7.635   4.580   4.325  0.8074 -0.2293 -0.9093
 3316TIP3   OH2 9869   7.839   1.892   5.106 -0.6038  0.2728 -0.1459
 3316TIP3    H1 9870   7.868   1.979   5.077 -1.0954  0.7782  0.8241
 3316TIP3    H2 9871   7.801   1.852   5.028  0.2830  0.6472 -0.7765
 3317TIP3   OH2 9872   0.766   2.864   4.152 -0.3413 -0.0756 -0.4101
 3317TIP3    H1 9873   0.693   2.887   4.094  0.6137 -1.0260 -2.0113
 3317TIP3    H2 9874   0.818   2.801   4.102  1.2231  0.0925  0.9633
 3318TIP3   OH2 9875   7.828   2.110   3.969 -0.1194  0.5464 -0.2226
 3318TIP3    H1 9876   7.765   2.156   3.914 -1.1285 -0.5622 -0.0048
 3318TIP3    H2 9877   7.782   2.096   4.052  0.7466  0.5889  0.2691
 3319TIP3   OH2 9878   3.903   2.761   4.672  0.5114 -0.2146 -0.3904
 3319TIP3    H1 9879   3.861   2.734   4.590  2.8747 -0.5781 -1.5469
 3319TIP3    H2 9880   3.897   2.685   4.729  0.3465 -0.5471 -0.8492
 3320TIP3   OH2 9881   0.530   2.311   4.117 -0.7374  0.4693 -0.0433
 3320TIP3    H1 9882   0.611   2.341   4.159 -0.3304  0.4497 -0.7994
 3320TIP3    H2 9883   0.558   2.240   4.060 -1.0857  1.2786 -1.2488
 3321TIP3   OH2 9884   8.526   2.751   1.413  0.0296 -0.4757  0.2569
 3321TIP3    H1 9885   8.520   2.793   1.499 -0.1978 -2.0202  0.9968
 3321TIP3    H2 9886   8.617   2.720   1.408  0.8285  1.9207 -1.1683
 3322TIP3   OH2 9887   8.650   3.474   3.599 -1.1987  0.5369 -0.0020
 3322TIP3    H1 9888   8.714   3.447   3.533 -1.0557 -0.7479  0.6490
 3322TIP3    H2 9889   8.644   3.569   3.589 -2.0012  0.2654 -2.6323
 3323TIP3   OH2 9890   0.751   1.806   4.607  0.2656 -0.1527 -0.0937
 3323TIP3    H1 9891   0.845   1.809   4.623  0.3690 -1.5385 -0.3367
 3323TIP3    H2 9892   0.720   1.894   4.628  1.5817  0.2606  0.1749
 3324TIP3   OH2 9893   7.895   5.066   4.343  0.2420 -0.9633 -0.0614
 3324TIP3    H1 9894   7.869   5.029   4.259  0.9695  0.3479 -0.8786
 3324TIP3    H2 9895   7.866   5.001   4.407 -0.5221 -1.8757 -1.2943
 3325TIP3   OH2 9896   2.138   2.372   2.925 -0.2305 -0.7134  0.3732
 3325TIP3    H1 9897   2.088   2.453   2.932  0.8301 -0.0503  0.3044
 3325TIP3    H2 9898   2.194   2.384   2.848 -0.6690 -1.8433 -0.1406
 3326TIP3   OH2 9899   1.193   1.802   3.221  0.7133 -0.3196 -0.1246
 3326TIP3    H1 9900   1.148   1.846   3.149  1.1444  0.6184  0.1792
 3326TIP3    H2 9901   1.133   1.808   3.295  0.3355 -1.1502 -0.3569
 3327TIP3   OH2 9902   1.933   2.000   3.570 -0.0654 -0.3451 -0.4582
 3327TIP3    H1 9903   2.008   1.990   3.630  0.2046  0.2777 -0.6927
 3327TIP3    H2 9904   1.917   1.911   3.539  1.3337 -0.3170 -1.3118
 3328TIP3   OH2 9905   7.745   5.207   5.579 -0.3609  0.4853  0.6735
 3328TIP3    H1 9906   7.687   5.258   5.634  0.9591  0.8059  1.8016
 3328TIP3    H2 9907   7.815   5.178   5.637  0.1980 -0.5498 -0.4781
 3329TIP3   OH2 9908   7.595   2.568   5.461  0.1654  0.0152  0.1154
 3329TIP3    H1 9909   7.607   2.474   5.448  0.1536  0.1504 -0.9126
 3329TIP3    H2 9910   7.648   2.588   5.538 -1.5444 -1.2025  1.6491
 3330TIP3   OH2 9911   0.296   6.172   4.464  0.0242 -0.2721 -0.7012
 3330TIP3    H1 9912   0.228   6.198   4.525  0.2394 -0.0952 -0.5359
 3330TIP3    H2 9913   0.250   6.157   4.381 -0.5573 -2.2365 -0.0718
 3331TIP3   OH2 9914   3.431   3.706   6.436  0.0519 -0.5580 -0.6075
 3331TIP3    H1 9915   3.493   3.644   6.474 -0.5350 -0.0482  1.2398
 3331TIP3    H2 9916   3.451   3.789   6.481 -0.4190  0.1477 -1.6925
 3332TIP3   OH2 9917   8.591   3.328   2.914  0.2237 -0.6624 -0.8561
 3332TIP3    H1 9918   8.560   3.252   2.865 -0.3659 -1.1428  0.2342
 3332TIP3    H2 9919   8.512   3.380   2.930  0.1301 -1.2922  0.8920
 3333TIP3   OH2 9920   8.645   2.789   6.446 -0.6885  0.1082  0.6054
 3333TIP3    H1 9921   8.613   2.711   6.491  2.2252 -0.5370  1.7104
 3333TIP3    H2 9922   8.659   2.853   6.516  0.4154  0.3460  0.1800
 3334TIP3   OH2 9923   2.557   1.743   3.823  0.0793 -0.0467 -0.4753
 3334TIP3    H1 9924   2.492   1.704   3.764 -1.8904  1.6631  0.4810
 3334TIP3    H2 9925   2.539   1.837   3.820  1.1305  0.2433  1.4375
 3335TIP3   OH2 9926   8.541   3.490   6.635  0.7073  0.3280  0.2575
 3335TIP3    H1 9927   8.506   3.431   6.568 -0.8653 -0.9186  2.1160
 3335TIP3    H2 9928   8.566   3.432   6.707  1.4261  1.7368  1.1685
 3336TIP3   OH2 9929   2.425   3.192   4.562 -0.3399 -0.1367  0.1446
 3336TIP3    H1 9930   2.444   3.199   4.655  0.1400  1.1373 -0.0343
 3336TIP3    H2 9931   2.512   3.183   4.521 -0.5490 -0.7267 -0.1818
 3337TIP3   OH2 9932   1.184   3.624   2.702  0.0466  0.5920 -0.0193
 3337TIP3    H1 9933   1.188   3.698   2.762 -0.8738 -0.8265  1.8552
 3337TIP3    H2 9934   1.168   3.548   2.758 -1.2533 -0.7265 -2.0893
 3338TIP3   OH2 9935   0.296   4.691   4.405  0.4459  0.1453  0.3565
 3338TIP3    H1 9936   0.388   4.678   4.428  0.0379 -0.4897  1.7123
 3338TIP3    H2 9937   0.285   4.645   4.322  1.2667 -0.0589  0.3546
 3339TIP3   OH2 9938   1.234   3.666   5.215  0.1168  0.3718 -0.5585
 3339TIP3    H1 9939   1.268   3.755   5.218 -2.1693  1.2329  0.6982
 3339TIP3    H2 9940   1.296   3.615   5.267  0.1134  1.6852  0.7538
 3340TIP3   OH2 9941   0.458   4.696   5.526 -0.3196 -0.0171 -0.0854
 3340TIP3    H1 9942   0.403   4.630   5.568  0.5579 -1.5521 -1.2785
 3340TIP3    H2 9943   0.532   4.708   5.585 -0.8464  0.4385  0.4817
 3341TIP3   OH2 9944   0.309   2.212   3.086 -0.3549 -0.4620 -0.8677
 3341TIP3    H1 9945   0.372   2.283   3.069  0.3704 -1.1286 -0.9763
 3341TIP3    H2 9946   0.327   2.185   3.176 -0.0396 -1.0966 -1.1179
 3342TIP3   OH2 9947   0.888   3.584   3.609 -0.3628  1.0011  0.2264
 3342TIP3    H1 9948   0.972   3.618   3.640  1.0593 -0.4313 -1.8601
 3342TIP3    H2 9949   0.890   3.491   3.632 -1.5161  1.0229  0.4298
 3343TIP3   OH2 9950   7.310   1.549   3.364 -0.0066 -0.3472 -0.0338
 3343TIP3    H1 9951   7.256   1.481   3.403 -0.0427 -0.3925 -0.1640
 3343TIP3    H2 9952   7.360   1.586   3.438  0.0204 -0.5198  0.0338
 3344TIP3   OH2 9953   8.293   4.743   3.931  0.2679 -0.4131  0.9616
 3344TIP3    H1 9954   8.238   4.816   3.904 -0.9467 -1.2174  1.1952
 3344TIP3    H2 9955   8.296   4.749   4.026 -0.4189 -1.0566  1.0331
 3345TIP3   OH2 9956   8.069   4.557   4.654 -0.1264  0.3991  0.1829
 3345TIP3    H1 9957   8.100   4.467   4.654 -0.9490  0.1059 -1.0753
 3345TIP3    H2 9958   8.075   4.584   4.746 -0.6547 -1.2099  0.7140
 3346TIP3   OH2 9959   1.983   1.002   1.801  0.0866  0.2208  0.1795
 3346TIP3    H1 9960   1.970   0.979   1.709 -0.1827 -1.2214  0.5696
 3346TIP3    H2 9961   2.039   0.932   1.835 -0.7965  0.0965  1.4065
 3347TIP3   OH2 9962   8.714   2.511   4.758 -0.7600 -0.1018  0.8065
 3347TIP3    H1 9963   8.728   2.590   4.809 -1.8073  1.2121 -0.8820
 3347TIP3    H2 9964   8.675   2.542   4.676  1.7721 -2.0169 -1.2222
 3348TIP3   OH2 9965   0.885   4.329   2.275 -0.3542 -0.5678  0.1129
 3348TIP3    H1 9966   0.837   4.316   2.194 -0.5567 -1.5770  0.3747
 3348TIP3    H2 9967   0.865   4.418   2.302 -0.8232 -0.4587 -0.5988
 3349TIP3   OH2 9968   2.644   3.330   7.033  0.3776  0.0491 -0.0578
 3349TIP3    H1 9969   2.625   3.292   7.119 -1.7445  1.0456 -0.0471
 3349TIP3    H2 9970   2.739   3.324   7.024  0.6154 -0.1155  2.3370
 3350TIP3   OH2 9971   1.098   5.162   4.595 -0.1651  0.0750 -0.4984
 3350TIP3    H1 9972   1.172   5.135   4.649  0.1374 -0.9339 -1.4010
 3350TIP3    H2 9973   1.053   5.229   4.647  0.4981 -0.4072  0.7063
 3351TIP3   OH2 9974   1.178   4.348   3.010 -0.0614 -0.2320 -0.0947
 3351TIP3    H1 9975   1.262   4.373   3.048 -0.0187  0.0611 -0.3858
 3351TIP3    H2 9976   1.153   4.422   2.954  0.0792 -0.8491 -0.9764
 3352TIP3   OH2 9977   3.021   4.184   3.782 -0.0021  0.4819  0.2341
 3352TIP3    H1 9978   2.983   4.260   3.738 -0.1590 -0.0345 -0.5292
 3352TIP3    H2 9979   3.080   4.146   3.718  0.4756  0.2614  0.8032
 3353TIP3   OH2 9980   2.003   4.335   3.122  0.4879 -0.2700 -0.2274
 3353TIP3    H1 9981   2.068   4.369   3.184  0.8670  0.7205 -1.1474
 3353TIP3    H2 9982   2.051   4.273   3.068  0.0619 -1.4375  0.7130
 3354TIP3   OH2 9983   1.548   4.602   4.231  0.0859  0.3139 -0.5808
 3354TIP3    H1 9984   1.536   4.692   4.260  0.1399 -0.0043  0.4487
 3354TIP3    H2 9985   1.573   4.554   4.310  0.8442 -0.4559 -1.2689
 3355TIP3   OH2 9986   0.750   5.632   4.110  0.4962  0.0978 -1.3442
 3355TIP3    H1 9987   0.677   5.674   4.156 -0.8868 -1.8634 -1.6838
 3355TIP3    H2 9988   0.827   5.679   4.140 -0.2613 -1.4369  3.4903
 3356TIP3   OH2 9989   0.204   0.601   6.436 -0.7577  0.2260  0.3521
 3356TIP3    H1 9990   0.289   0.556   6.436 -0.6661  0.3901 -0.8924
 3356TIP3    H2 9991   0.141   0.531   6.452 -0.6174 -0.3889 -1.6213
 3357TIP3   OH2 9992   0.739   1.643   4.392 -0.1895  0.2820 -0.1403
 3357TIP3    H1 9993   0.753   1.694   4.472 -1.1344 -0.4509  0.5042
 3357TIP3    H2 9994   0.644   1.646   4.378 -0.1907 -0.7995 -0.4297
 3358TIP3   OH2 9995   7.132   3.322   3.136  0.1615 -0.0776  0.2457
 3358TIP3    H1 9996   7.121   3.241   3.185  1.7527 -0.8944 -0.6915
 3358TIP3    H2 9997   7.222   3.319   3.104  0.4799  2.3927  0.7553
 3359TIP3   OH2 9998   0.520   3.836   2.086 -0.4945  0.1358  0.3537
 3359TIP3    H1 9999   0.578   3.776   2.039 -0.2331  0.0421  0.7917
 3359TIP3    H210000   0.487   3.785   2.160  0.0755  0.6666  0.9757
 3360TIP3   OH210001   0.367   2.800   5.175  0.2834  0.7050 -0.3098
 3360TIP3    H110002   0.359   2.795   5.271  0.4098  1.4383 -0.2620
 3360TIP3    H210003   0.423   2.725   5.152  0.3332  0.5854  0.1970
 3361TIP3   OH210004   0.631   0.630   2.919 -0.0584 -0.4187 -0.4667
 3361TIP3    H110005   0.673   0.583   2.847  0.6671  1.1668 -1.0815
 3361TIP3    H210006   0.561   0.571   2.947 -0.0059 -1.2945 -2.0909
 3362TIP3   OH210007   7.990   2.259   4.647 -0.3246 -0.8387 -0.6941
 3362TIP3    H110008   8.013   2.168   4.668 -0.5090 -0.4156  1.3506
 3362TIP3    H210009   8.068   2.309   4.669 -0.6551 -0.3427 -0.6552
 3363TIP3   OH210010   2.171   2.756   3.657  0.0036  0.4018  0.2777
 3363TIP3    H110011   2.177   2.799   3.572  0.8871  0.0033  0.1291
 3363TIP3    H210012   2.121   2.816   3.712 -1.2994  0.2815 -0.7590
 3364TIP3   OH210013   0.877   4.403   2.877  0.1718 -0.1085  0.1490
 3364TIP3    H110014   0.931   4.439   2.947  1.1388  1.0715 -1.1787
 3364TIP3    H210015   0.787   4.424   2.904  0.5392  0.4542  0.9689
 3365TIP3   OH210016   8.023   3.999   4.615  0.5004 -0.3232  0.4797
 3365TIP3    H110017   8.115   3.976   4.600 -0.4537 -3.2272 -1.1495
 3365TIP3    H210018   7.973   3.933   4.568 -2.4651  1.2839  1.2362
 3366TIP3   OH210019   0.051   1.045   3.747 -0.1195  0.2824 -0.0598
 3366TIP3    H110020   0.107   1.121   3.762  0.5316 -0.0195 -0.9565
 3366TIP3    H210021   0.017   1.057   3.658  0.1081 -0.5455 -0.2652
 3367TIP3   OH210022   2.691   2.613   4.684 -0.0345  0.2675  0.0287
 3367TIP3    H110023   2.709   2.519   4.679 -2.7056 -0.2581 -0.1049
 3367TIP3    H210024   2.603   2.624   4.649  0.3890  2.8984 -0.3682
 3368TIP3   OH210025   8.415   4.211   3.266  0.1244  0.2111 -0.0422
 3368TIP3    H110026   8.421   4.297   3.308 -1.2912  0.6670 -0.7593
 3368TIP3    H210027   8.368   4.157   3.329 -0.5797  0.4564 -0.3577
 3369TIP3   OH210028   7.333   5.121   2.603 -0.0268 -0.1404  0.5073
 3369TIP3    H110029   7.412   5.073   2.577 -0.1392 -1.3267  2.2666
 3369TIP3    H210030   7.270   5.052   2.626 -0.9688  0.8229  0.8588
 3370TIP3   OH210031   8.137   2.632   2.948 -0.0942 -0.2501  0.0850
 3370TIP3    H110032   8.123   2.628   2.853  0.2178 -0.9985  0.0650
 3370TIP3    H210033   8.064   2.583   2.985  0.2028 -0.6103  0.1934
 3371TIP3   OH210034   0.377   4.182   3.483  0.1646  0.4621 -0.3534
 3371TIP3    H110035   0.470   4.181   3.463  0.0302 -0.2683 -0.9700
 3371TIP3    H210036   0.367   4.252   3.548  1.2716 -0.0859  0.4149
 3372TIP3   OH210037   0.415   3.351   5.404  0.3591  0.5211  0.2343
 3372TIP3    H110038   0.411   3.446   5.418 -0.2115  0.8108 -1.6412
 3372TIP3    H210039   0.502   3.336   5.368 -0.1835  0.6275 -1.1891
 3373TIP3   OH210040   7.724   1.166   4.169 -0.4783  0.5269 -0.3183
 3373TIP3    H110041   7.674   1.143   4.091 -0.4982  0.5571 -0.3144
 3373TIP3    H210042   7.754   1.081   4.204  0.3413  0.5718 -0.8951
 3374TIP3   OH210043   8.580   2.129   2.175  0.4210  0.7329 -0.7346
 3374TIP3    H110044   8.614   2.165   2.093  0.8141  0.6144 -0.6235
 3374TIP3    H210045   8.606   2.193   2.242  1.8371 -0.1500 -0.4175
 3375TIP3   OH210046   0.781   1.516   3.714  0.4105  0.0665  0.5080
 3375TIP3    H110047   0.826   1.432   3.701 -0.7339 -0.5408  0.3680
 3375TIP3    H210048   0.851   1.579   3.728  1.2277 -1.1940  2.2071
 3376TIP3   OH210049   8.614   3.949   3.039  0.1831 -0.0265 -0.2680
 3376TIP3    H110050   8.671   3.996   2.977 -0.5655  0.6096 -0.4817
 3376TIP3    H210051   8.621   4.000   3.120 -0.4291  0.3146 -0.4255
 3377TIP3   OH210052   0.812   2.877   5.030  0.1177  0.6235  0.1259
 3377TIP3    H110053   0.853   2.963   5.016 -0.5225  0.9538  0.2756
 3377TIP3    H210054   0.779   2.881   5.120  1.1074 -0.2097  0.5387
 3378TIP3   OH210055   2.358   2.556   4.808 -0.3631  0.0575  0.1566
 3378TIP3    H110056   2.365   2.649   4.788 -1.2085 -0.1573 -1.2055
 3378TIP3    H210057   2.437   2.535   4.857 -0.2928  1.5482  0.6743
 3379TIP3   OH210058   0.644   2.408   1.976  0.0333  0.2793  0.2121
 3379TIP3    H110059   0.604   2.323   1.995  2.2120 -0.1730  3.0017
 3379TIP3    H210060   0.728   2.386   1.935  1.0515  1.0424  1.8573
 3380TIP3   OH210061   1.279   1.576   2.885  0.2491  0.1072 -0.2458
 3380TIP3    H110062   1.328   1.508   2.841 -0.8685 -0.8156 -0.0842
 3380TIP3    H210063   1.301   1.566   2.978 -0.8244 -0.7995 -0.0825
 3381TIP3   OH210064   8.536   3.120   2.749 -0.4050 -0.1375 -0.0086
 3381TIP3    H110065   8.627   3.098   2.728 -0.0704  0.5225  0.7270
 3381TIP3    H210066   8.520   3.077   2.834 -0.0391  1.6686  0.9927
 3382TIP3   OH210067   1.999   3.025   4.119 -0.0034 -0.0777 -0.3807
 3382TIP3    H110068   1.959   2.940   4.138  1.2085 -0.5508  0.1428
 3382TIP3    H210069   1.971   3.081   4.191 -0.4223 -0.1595 -0.4771
 3383TIP3   OH210070   0.273   5.116   3.177  0.6932  0.4295  0.1737
 3383TIP3    H110071   0.186   5.099   3.141  0.1111  2.1670  0.6981
 3383TIP3    H210072   0.281   5.055   3.250  0.0017  0.1098 -0.0108
 3384TIP3   OH210073   1.049   4.590   2.112 -0.1415  0.0095 -0.2703
 3384TIP3    H110074   1.031   4.626   2.199 -0.0140  0.9409 -0.6231
 3384TIP3    H210075   1.131   4.630   2.086 -0.6443  0.4469 -1.2073
 3385TIP3   OH210076   0.660   6.922   3.552  0.6242  0.3279  0.2621
 3385TIP3    H110077   0.606   6.871   3.491  0.1139  0.3973  0.6567
 3385TIP3    H210078   0.721   6.970   3.495  0.5372 -0.0531 -0.1590
 3386TIP3   OH210079   1.451   4.315   4.364 -0.4300  0.1988  0.8990
 3386TIP3    H110080   1.509   4.375   4.411 -0.6570  1.6658 -0.6593
 3386TIP3    H210081   1.508   4.244   4.334  1.0213  2.7007 -2.4854
 3387TIP3   OH210082   0.057   4.310   3.799 -0.6418  0.5165 -0.0089
 3387TIP3    H110083   0.091   4.225   3.771  1.2837  1.1920  0.1653
 3387TIP3    H210084  -0.007   4.289   3.867  2.0380 -0.7086  2.2266
 3388TIP3   OH210085   0.653   3.096   3.811  0.6577  0.6666 -1.0069
 3388TIP3    H110086   0.691   3.061   3.731 -1.1590  0.3544 -1.7501
 3388TIP3    H210087   0.711   3.168   3.836  2.4849 -0.6572 -1.3605
 3389TIP3   OH210088   8.571   3.286   1.759  0.3914  0.2613 -0.6408
 3389TIP3    H110089   8.611   3.361   1.802 -1.2038 -0.0628  1.4503
 3389TIP3    H210090   8.644   3.237   1.722  1.5792  1.8248 -0.3778
 3390TIP3   OH210091   1.479   3.408   4.880  0.1250  0.2593  0.1765
 3390TIP3    H110092   1.406   3.461   4.914  0.1670  0.3585  0.1123
 3390TIP3    H210093   1.439   3.325   4.855 -0.2449  0.8721 -1.3311
 3391TIP3   OH210094   7.757   5.931   5.389  0.1712 -0.5083 -0.7251
 3391TIP3    H110095   7.661   5.942   5.389  0.1565 -0.4312  1.3155
 3391TIP3    H210096   7.772   5.858   5.448  1.2917 -1.7147 -2.4453
 3392TIP3   OH210097   8.022   5.996   5.368 -0.0514 -0.5338  0.3024
 3392TIP3    H110098   7.928   5.979   5.378 -0.0839 -1.2496 -1.1165
 3392TIP3    H210099   8.054   6.005   5.458 -1.8376  1.7784  0.7581
 3393TIP3   OH210100   8.729   4.040   3.931  0.4645  0.0290 -0.4151
 3393TIP3    H110101   8.728   4.131   3.960 -0.0870 -0.1862  0.2380
 3393TIP3    H210102   8.704   4.044   3.839 -0.2423  0.4725 -0.2052
 3394TIP3   OH210103   3.604   3.429   2.397  0.5575  0.0716 -0.2017
 3394TIP3    H110104   3.676   3.476   2.356  0.1199 -1.1019 -2.3714
 3394TIP3    H210105   3.634   3.338   2.404 -0.0317 -0.0801  0.5513
 3395TIP3   OH210106   0.877   4.947   5.828  0.4422  0.2207 -0.0252
 3395TIP3    H110107   0.910   4.861   5.799  1.1150  0.3726  0.2793
 3395TIP3    H210108   0.792   4.956   5.784 -0.4067 -1.3415  1.2612
 3396TIP3   OH210109   6.002   1.882   4.042 -0.2400  0.0668  0.2190
 3396TIP3    H110110   5.969   1.829   3.969  0.6103 -1.3946  0.8732
 3396TIP3    H210111   6.087   1.915   4.011 -0.1849 -0.0042  0.2942
 3397TIP3   OH210112   8.512   1.238   6.837 -0.1872 -0.3473 -0.4493
 3397TIP3    H110113   8.432   1.268   6.881  1.1275 -0.9688  2.4791
 3397TIP3    H210114   8.509   1.142   6.844  1.8028 -0.3050  1.6178
 3398TIP3   OH210115   2.274   3.378   2.308 -0.4293  0.3448 -0.6673
 3398TIP3    H110116   2.296   3.471   2.315 -0.9814  0.4293  0.0132
 3398TIP3    H210117   2.338   3.343   2.246  0.8953  0.8233  0.4035
 3399TIP3   OH210118   1.729   4.314   4.595  0.0222  0.7226 -0.5578
 3399TIP3    H110119   1.717   4.235   4.647 -0.5767  0.4976 -1.0254
 3399TIP3    H210120   1.823   4.319   4.578 -0.0435 -0.3863 -1.2837
 3400TIP3   OH210121   7.875   4.431   0.560 -0.4046 -0.2897  0.3562
 3400TIP3    H110122   7.940   4.391   0.617 -0.5044 -2.7652 -1.1868
 3400TIP3    H210123   7.822   4.357   0.529 -0.8628  1.0659 -2.2363
 3401TIP3   OH210124   8.399   1.935   2.077  0.2446 -0.4014  0.4844
 3401TIP3    H110125   8.458   1.988   2.130 -0.4695 -1.1009  2.0304
 3401TIP3    H210126   8.441   1.928   1.992  0.5626  2.2560  0.3939
 3402TIP3   OH210127   1.177   3.778   3.686 -0.0241  0.2359  0.1037
 3402TIP3    H110128   1.237   3.704   3.694  0.5955  0.9822  2.7632
 3402TIP3    H210129   1.234   3.856   3.689 -1.0044  0.9219  1.7625
 3403TIP3   OH210130   8.711   2.830   4.708 -0.6102 -0.9332  0.6181
 3403TIP3    H110131   8.734   2.830   4.616 -1.1941 -0.1231  0.4591
 3403TIP3    H210132   8.772   2.892   4.748  1.6309 -3.5081  1.3266
 3404TIP3   OH210133   1.009   2.670   3.287  0.0463 -0.3460 -0.3129
 3404TIP3    H110134   1.099   2.650   3.259 -0.2620  0.2449 -1.7636
 3404TIP3    H210135   1.010   2.764   3.303 -0.1137 -0.4728  0.4174
 3405TIP3   OH210136   8.801   2.199   2.838 -0.1904  0.6023 -0.0553
 3405TIP3    H110137   8.858   2.145   2.893  0.4273 -0.4915 -1.7215
 3405TIP3    H210138   8.812   2.288   2.870  2.7114  0.4512 -0.5639
 3406TIP3   OH210139   0.951   2.747   2.896 -0.0761 -0.0761 -0.2748
 3406TIP3    H110140   0.897   2.722   2.971 -0.0101  2.2129  0.5610
 3406TIP3    H210141   1.033   2.698   2.908 -0.7908 -1.1846  0.1095
 3407TIP3   OH210142   7.955   8.246   4.555  0.0346  0.0291 -0.2628
 3407TIP3    H110143   7.934   8.338   4.571 -1.1730 -0.1661 -0.6646
 3407TIP3    H210144   8.050   8.243   4.554  0.0862  1.2017  0.2011
 3408TIP3   OH210145   8.101   4.829   5.661 -0.2846 -0.1617  0.4946
 3408TIP3    H110146   8.065   4.742   5.679  1.2773 -1.0477 -0.5298
 3408TIP3    H210147   8.124   4.827   5.568  3.8946 -0.2692  1.4110
 3409TIP3   OH210148   1.917   2.110   5.139 -0.1132 -0.3516  0.1846
 3409TIP3    H110149   1.831   2.107   5.097 -0.7856  0.8784  1.4579
 3409TIP3    H210150   1.899   2.133   5.230  1.5794  0.0112  0.4358
 3410TIP3   OH210151   0.587   3.233   5.195  0.2559  0.3970 -0.1206
 3410TIP3    H110152   0.560   3.160   5.140  0.8992 -0.5003  0.7518
 3410TIP3    H210153   0.682   3.237   5.184  0.4989 -0.3705  1.6303
 3411TIP3   OH210154   0.527   4.495   5.804  0.1212  0.0407  0.2967
 3411TIP3    H110155   0.435   4.494   5.777  0.5856  0.5817 -1.3645
 3411TIP3    H210156   0.545   4.406   5.833 -0.7131 -0.2733 -0.1421
 3412TIP3   OH210157   0.725   2.714   4.585 -0.0885  0.1068 -0.4762
 3412TIP3    H110158   0.651   2.704   4.525 -1.0748  0.3641  0.6712
 3412TIP3    H210159   0.699   2.784   4.644  2.6339  2.8110 -2.3104
 3413TIP3   OH210160   6.715   0.526   4.331 -0.0471 -0.1227  0.5294
 3413TIP3    H110161   6.791   0.570   4.293 -0.5749  0.8282  0.5593
 3413TIP3    H210162   6.663   0.497   4.256  0.4447 -0.9599  0.5065
 3414TIP3   OH210163   5.002   0.258   0.779  0.4338  0.0448 -0.4447
 3414TIP3    H110164   4.957   0.333   0.739  1.1716  1.4753  1.3490
 3414TIP3    H210165   4.933   0.210   0.824 -0.0159 -0.2873 -1.4599
 3415TIP3   OH210166   0.238   3.195   3.347 -0.1427  0.2062 -0.3109
 3415TIP3    H110167   0.179   3.155   3.282  0.4166 -1.3694  0.1430
 3415TIP3    H210168   0.316   3.218   3.297  0.0619 -0.4831 -0.3103
 3416TIP3   OH210169   1.456   3.661   3.866  0.0653 -0.4910 -0.0097
 3416TIP3    H110170   1.497   3.672   3.780 -0.1439 -0.4081 -0.0977
 3416TIP3    H210171   1.492   3.578   3.899  0.0825 -0.5651 -0.2127
 3417TIP3   OH210172   1.409   4.467   3.066 -0.0297  0.2254  0.4387
 3417TIP3    H110173   1.441   4.422   3.144 -1.3991  0.1016  0.9476
 3417TIP3    H210174   1.474   4.535   3.049  1.4290 -1.1676  0.3690
 3418TIP3   OH210175   0.482   1.939   3.801  0.1666 -0.0793  0.0786
 3418TIP3    H110176   0.495   1.845   3.812 -0.6536 -0.0876  0.9607
 3418TIP3    H210177   0.388   1.950   3.790  0.3881  0.5098 -1.3649
 3419TIP3   OH210178   0.717   1.156   0.923 -0.0983 -0.1421 -0.2843
 3419TIP3    H110179   0.675   1.081   0.964  1.6800 -0.3284  1.2695
 3419TIP3    H210180   0.696   1.230   0.981 -0.4379  0.2423 -0.8922
 3420TIP3   OH210181   2.359   3.638   2.375 -0.0210  0.5118 -1.0064
 3420TIP3    H110182   2.452   3.618   2.367 -0.1126 -0.9373  1.1249
 3420TIP3    H210183   2.353   3.688   2.457 -1.2370 -0.2081 -0.6516
 3421TIP3   OH210184   8.643   1.357   6.322  0.4628  0.1365  0.1913
 3421TIP3    H110185   8.667   1.420   6.254  0.2695 -0.1842 -0.1762
 3421TIP3    H210186   8.684   1.391   6.401  0.1190  0.8812  0.0546
 3422TIP3   OH210187   8.558   3.942   2.282  0.3883  0.1395  0.0421
 3422TIP3    H110188   8.559   3.861   2.334 -1.2822  0.4238  0.5519
 3422TIP3    H210189   8.589   4.010   2.343 -0.4973  0.2840  0.3345
 3423TIP3   OH210190   0.123   2.285   3.692  0.4009  0.1738  0.4487
 3423TIP3    H110191   0.089   2.196   3.687  1.4631 -0.2029 -0.2311
 3423TIP3    H210192   0.044   2.340   3.694 -0.2602 -0.7720  0.8959
 3424TIP3   OH210193   8.744   3.978   5.467  0.2422  0.1979 -0.1379
 3424TIP3    H110194   8.741   3.949   5.376 -0.7788 -1.5238  0.4196
 3424TIP3    H210195   8.830   3.950   5.498  0.8298  1.3174 -0.7285
 3425TIP3   OH210196   8.370   0.531   2.939 -0.2227  0.3934  0.4100
 3425TIP3    H110197   8.458   0.532   2.902 -0.0806 -1.7899  0.6430
 3425TIP3    H210198   8.359   0.619   2.976  1.3446  1.1133 -0.7592
 3426TIP3   OH210199   8.847   3.238   4.005 -0.1696 -0.3723 -0.3300
 3426TIP3    H110200   8.857   3.205   3.916 -0.8487 -0.6245 -0.3140
 3426TIP3    H210201   8.937   3.245   4.038 -0.0118 -2.5070 -0.2388
 3427TIP3   OH210202   0.739   2.265   2.819 -0.2282  0.2133  0.1086
 3427TIP3    H110203   0.654   2.297   2.790 -0.6812 -1.4786 -0.5014
 3427TIP3    H210204   0.786   2.244   2.738  0.3690  0.1612  0.4653
 3428TIP3   OH210205   1.286   3.330   2.388 -0.2313 -0.0067  0.4550
 3428TIP3    H110206   1.263   3.278   2.465 -2.4812  0.9717  0.4796
 3428TIP3    H210207   1.298   3.419   2.421  0.3274  0.1247 -0.0956
 3429TIP3   OH210208   8.209   4.092   5.574 -0.2286 -0.6378 -0.2615
 3429TIP3    H110209   8.235   4.021   5.633 -0.3135 -1.0031 -0.6675
 3429TIP3    H210210   8.292   4.127   5.541 -0.2684 -2.3838 -2.2474
 3430TIP3   OH210211   1.722   3.284   4.420 -0.0815  0.2761  0.4146
 3430TIP3    H110212   1.629   3.267   4.407  0.2610 -1.2529 -0.0579
 3430TIP3    H210213   1.733   3.286   4.515 -0.1564 -2.0418  0.4882
 3431TIP3   OH210214   7.407   2.174   4.311  0.0892 -0.2744 -0.2202
 3431TIP3    H110215   7.425   2.267   4.322 -0.0574 -0.2682 -0.0337
 3431TIP3    H210216   7.322   2.170   4.268  0.6094 -0.3009 -1.2588
 3432TIP3   OH210217   7.863   1.253   5.530  0.1010 -0.0619  0.6440
 3432TIP3    H110218   7.907   1.259   5.615  0.6306  1.7922  0.2542
 3432TIP3    H210219   7.869   1.341   5.493 -1.8879 -0.3573 -0.4463
 3433TIP3   OH210220   0.002   2.878   4.518 -0.2716  0.0728 -0.4056
 3433TIP3    H110221   0.039   2.854   4.433 -0.2635  0.4992 -0.5215
 3433TIP3    H210222   0.056   2.831   4.582 -0.0373  0.0559 -0.6165
 3434TIP3   OH210223   0.837   4.315   3.439 -0.8358 -0.5625 -0.0357
 3434TIP3    H110224   0.886   4.312   3.521 -0.8893  0.1246  0.0305
 3434TIP3    H210225   0.904   4.319   3.371 -0.7906 -1.2282 -0.0322
 3435TIP3   OH210226   8.824   3.502   3.368  0.2498  0.0761 -0.1646
 3435TIP3    H110227   8.916   3.498   3.341 -0.5419 -2.3514 -2.7189
 3435TIP3    H210228   8.799   3.594   3.355  1.7010  0.2937 -1.5461
 3436TIP3   OH210229   8.083   8.286   4.897 -0.4677 -0.0708  0.0484
 3436TIP3    H110230   8.109   8.317   4.983  0.4286  2.5324 -1.0947
 3436TIP3    H210231   7.987   8.284   4.899 -0.4503  0.1017  1.0499
 3437TIP3   OH210232   1.998   0.953   3.196  0.7786  0.1162 -0.0368
 3437TIP3    H110233   1.934   0.981   3.262  1.0608  0.9606 -0.1169
 3437TIP3    H210234   2.036   0.873   3.233 -0.8478 -0.8197 -0.3329
 3438TIP3   OH210235   0.050   1.594   3.641 -0.3211  0.3793 -0.7600
 3438TIP3    H110236   0.099   1.672   3.669 -0.3159  0.0620  0.1085
 3438TIP3    H210237   0.043   1.540   3.719  1.0076 -1.2120 -1.7059
 3439TIP3   OH210238   8.719   0.205   2.721 -0.3272  0.5685 -0.0913
 3439TIP3    H110239   8.753   0.220   2.632  0.6613 -1.8266 -0.1388
 3439TIP3    H210240   8.734   0.288   2.766  1.7188  0.9167 -1.3613
 3440TIP3   OH210241   2.163   2.226   3.162  0.0166 -0.1496  0.2894
 3440TIP3    H110242   2.168   2.289   3.090  0.3737  1.1769  1.4517
 3440TIP3    H210243   2.227   2.159   3.140  0.4719  0.4984 -0.3923
 3441TIP3   OH210244   0.088   4.530   4.595  0.0746  0.1420 -0.1932
 3441TIP3    H110245  -0.005   4.542   4.579  0.3747  0.3770 -1.8131
 3441TIP3    H210246   0.130   4.599   4.543  1.1854 -0.4194 -0.0422
 3442TIP3   OH210247   0.224   5.995   3.488 -0.2059  0.3880 -0.6840
 3442TIP3    H110248   0.290   6.061   3.464  1.8583 -0.2976  2.7458
 3442TIP3    H210249   0.254   5.915   3.445 -0.8388  0.8976 -2.0926
 3443TIP3   OH210250   0.424   8.170   1.916  0.0124  0.3607  0.2290
 3443TIP3    H110251   0.429   8.133   1.828  0.0460 -1.0974  0.8333
 3443TIP3    H210252   0.515   8.172   1.946 -0.0053  0.8052  0.2597
 3444TIP3   OH210253   0.487   4.140   2.633  0.2044 -0.6766 -0.2939
 3444TIP3    H110254   0.514   4.061   2.586 -1.1413 -0.3937 -1.5740
 3444TIP3    H210255   0.549   4.208   2.605  0.2898 -0.8568 -0.5374
 3445TIP3   OH210256   3.475   0.987   3.801 -0.1358 -0.5193  0.3597
 3445TIP3    H110257   3.401   0.934   3.833  0.9381 -2.4276 -0.2288
 3445TIP3    H210258   3.536   0.989   3.875 -1.0734  1.6606  1.0935
 3446TIP3   OH210259   8.881   4.383   6.222  0.0293  0.1538  0.1891
 3446TIP3    H110260   8.801   4.331   6.221  0.2983 -0.2482 -1.0599
 3446TIP3    H210261   8.939   4.336   6.283  0.6096 -1.5671 -1.6420
 3447TIP3   OH210262   1.314   0.502   4.714  0.0186 -0.6937 -0.3507
 3447TIP3    H110263   1.235   0.456   4.740 -0.4670 -0.4680 -1.4227
 3447TIP3    H210264   1.285   0.590   4.691  0.5275 -0.6965 -1.0378
 3448TIP3   OH210265   8.586   2.219   3.719  0.1665 -0.1458  0.3452
 3448TIP3    H110266   8.606   2.133   3.755  1.3416  0.2868  0.7364
 3448TIP3    H210267   8.663   2.273   3.739 -0.8845  1.2214  0.8354
 3449TIP3   OH210268   0.573   5.474   4.389  0.4158 -0.4370 -0.1956
 3449TIP3    H110269   0.595   5.488   4.480 -1.0058  1.1045 -0.0599
 3449TIP3    H210270   0.559   5.562   4.353  1.8331 -0.9583 -2.1332
 3450TIP3   OH210271   7.132   2.291   4.419 -0.1916  0.0095  0.1269
 3450TIP3    H110272   7.162   2.312   4.331 -1.2519  1.3599  0.0723
 3450TIP3    H210273   7.069   2.220   4.406  1.6137 -1.6262  0.0784
 3451TIP3   OH210274   3.434   1.353   6.256 -0.7764  0.0274 -0.1577
 3451TIP3    H110275   3.458   1.354   6.163  1.0743 -0.6895  0.2963
 3451TIP3    H210276   3.452   1.264   6.285 -3.5881 -0.4129  0.3475
 3452TIP3   OH210277   0.456   3.615   3.400  0.1483 -0.1238 -0.6705
 3452TIP3    H110278   0.527   3.676   3.420 -0.6987  0.9260 -0.7743
 3452TIP3    H210279   0.388   3.635   3.464  0.1086 -1.4012 -0.3102
 3453TIP3   OH210280   0.323   3.212   2.865  0.4276 -0.1758 -0.5976
 3453TIP3    H110281   0.257   3.273   2.899  0.1502 -1.6568  1.6213
 3453TIP3    H210282   0.362   3.173   2.943  1.7120 -1.6747 -1.9564
 3454TIP3   OH210283   0.757   2.633   3.754 -0.0290 -0.3329  0.3683
 3454TIP3    H110284   0.832   2.594   3.710 -0.8820 -1.3974 -0.1500
 3454TIP3    H210285   0.733   2.708   3.700 -0.2772 -0.8796 -0.2762
 3455TIP3   OH210286   3.019   2.182   4.353  0.2508 -0.2096 -0.6221
 3455TIP3    H110287   3.066   2.255   4.394  2.6023 -2.1045  0.1045
 3455TIP3    H210288   3.020   2.203   4.259 -1.2446  1.8910 -0.2158
 3456TIP3   OH210289   0.218   2.744   4.928 -0.5779  0.1328  0.7507
 3456TIP3    H110290   0.293   2.789   4.966 -1.2959  1.2956  0.7965
 3456TIP3    H210291   0.193   2.679   4.994  0.2583 -0.1275  0.8172
 3457TIP3   OH210292   0.891   3.325   3.645 -0.0504  0.0212 -1.2210
 3457TIP3    H110293   0.822   3.298   3.584 -0.5905  0.4575 -0.8169
 3457TIP3    H210294   0.881   3.266   3.720 -1.0256  1.0993 -0.4755
 3458TIP3   OH210295   8.486   2.401   4.209 -0.0975 -0.4805 -0.6543
 3458TIP3    H110296   8.464   2.365   4.123 -0.0665 -1.1653 -0.3803
 3458TIP3    H210297   8.417   2.367   4.266  1.1538 -1.9088  0.0380
 3459TIP3   OH210298   8.871   0.745   3.285  0.1505 -0.1793  0.0022
 3459TIP3    H110299   8.825   0.759   3.203 -1.4706  0.4424  0.9778
 3459TIP3    H210300   8.853   0.654   3.308 -1.1857  0.2431  0.7038
 3460TIP3   OH210301   2.907   0.236   2.558  0.3247 -0.0278  0.1555
 3460TIP3    H110302   2.908   0.189   2.475  3.1025 -0.4460  0.3723
 3460TIP3    H210303   2.945   0.322   2.537 -0.7413  0.5721  0.6314
 3461TIP3   OH210304   8.831   2.362   2.158 -0.4989  0.2544 -0.1445
 3461TIP3    H110305   8.921   2.395   2.166 -0.3430 -0.5675  1.8734
 3461TIP3    H210306   8.778   2.430   2.199 -0.4658 -0.6154  1.3966
 3462TIP3   OH210307   0.518   4.665   2.810 -0.2100  0.2478  0.3392
 3462TIP3    H110308   0.507   4.760   2.808 -1.2303  0.1495  1.2776
 3462TIP3    H210309   0.442   4.633   2.857  0.0975 -1.0493 -0.0399
 3463TIP3   OH210310   6.931   1.314   5.147 -0.3070 -0.0797  0.0135
 3463TIP3    H110311   6.885   1.230   5.149  0.3486 -0.4295  0.7446
 3463TIP3    H210312   6.962   1.322   5.057 -1.2180 -0.1534 -0.3145
 3464TIP3   OH210313   2.834   4.881   3.472  0.4967 -0.3927 -0.3676
 3464TIP3    H110314   2.910   4.842   3.516  1.1830  0.6801 -0.5724
 3464TIP3    H210315   2.848   4.863   3.380  0.9656  0.5657 -0.4921
 3465TIP3   OH210316   3.173   0.129   5.328 -0.0286 -0.0010  0.3977
 3465TIP3    H110317   3.251   0.177   5.357 -0.1279  0.8304 -0.6817
 3465TIP3    H210318   3.106   0.149   5.393  0.2269  0.5191  0.4994
 3466TIP3   OH210319   1.347   5.075   4.751  0.4262  0.0420  0.5116
 3466TIP3    H110320   1.352   4.985   4.785  0.1158 -0.2386 -0.1885
 3466TIP3    H210321   1.329   5.128   4.829 -1.0203 -0.6880  0.6975
 3467TIP3   OH210322   2.182   0.947   4.803  0.3218  0.3934 -0.1345
 3467TIP3    H110323   2.214   0.880   4.741  0.2617  0.2811 -0.0433
 3467TIP3    H210324   2.143   1.014   4.747  0.1262  0.2162 -0.2114
 3468TIP3   OH210325   8.230   5.593   5.489 -0.6252 -0.3387  0.1580
 3468TIP3    H110326   8.187   5.600   5.574  0.4461  0.7106  0.6277
 3468TIP3    H210327   8.264   5.680   5.471  1.4348 -1.1509 -0.1140
 3469TIP3   OH210328   1.004   5.038   4.219 -0.1918  0.6665 -0.6554
 3469TIP3    H110329   0.925   4.985   4.208 -0.4325  0.6176  1.0872
 3469TIP3    H210330   0.971   5.127   4.235  0.0438  0.4737  1.0361
 3470TIP3   OH210331   1.963   3.354   6.643 -0.2933 -0.0089  0.2929
 3470TIP3    H110332   1.894   3.403   6.598 -0.4795 -1.9924 -1.6811
 3470TIP3    H210333   1.923   3.269   6.662  0.6460 -0.1052  1.8852
 3471TIP3   OH210334   0.975   2.546   5.834 -0.3793  0.7140 -0.5809
 3471TIP3    H110335   1.051   2.587   5.877  1.4851 -0.7690 -2.3925
 3471TIP3    H210336   0.935   2.617   5.784 -1.6556  2.0926  2.2515
 3472TIP3   OH210337   0.064   3.949   2.346  0.1392  0.5076 -0.1530
 3472TIP3    H110338   0.123   3.955   2.421 -1.1110 -1.6774  1.0420
 3472TIP3    H210339  -0.004   3.887   2.373 -2.3497  2.4267 -1.7438
 3473TIP3   OH210340   1.234   2.383   6.007  0.3069  0.0370  0.1503
 3473TIP3    H110341   1.269   2.300   6.039 -0.6805 -0.5787 -0.3290
 3473TIP3    H210342   1.203   2.364   5.918  1.3011  1.2561 -0.4747
 3474TIP3   OH210343   0.288   1.226   1.446  0.6091  0.0430 -0.1683
 3474TIP3    H110344   0.197   1.250   1.463  1.0198  1.1470  0.5552
 3474TIP3    H210345   0.305   1.257   1.357  0.8175  1.5270  0.3714
 3475TIP3   OH210346   1.556   2.499   0.686 -0.4264  0.1645  0.3137
 3475TIP3    H110347   1.579   2.408   0.701  1.7147  0.5475 -0.4742
 3475TIP3    H210348   1.598   2.547   0.757 -0.9089  0.6192  0.2985
 3476TIP3   OH210349   0.395   2.790   3.845  0.7764  0.2936 -0.1552
 3476TIP3    H110350   0.376   2.696   3.855 -0.6505  0.5704 -0.2477
 3476TIP3    H210351   0.443   2.796   3.763  0.3641 -0.2800 -0.4416
 3477TIP3   OH210352   8.154   1.949   3.485 -0.6522  0.0124 -0.3510
 3477TIP3    H110353   8.123   1.955   3.575 -0.1748 -1.7738 -0.0339
 3477TIP3    H210354   8.108   1.873   3.449 -1.5391  1.2573 -1.9193
 3478TIP3   OH210355   0.256   1.400   0.734  0.1494 -0.4798 -0.2455
 3478TIP3    H110356   0.348   1.395   0.710  0.1566  0.4627 -0.4433
 3478TIP3    H210357   0.217   1.456   0.668 -0.5074 -0.6334  0.0083
 3479TIP3   OH210358   1.300   3.094   3.925  0.9557  0.0415  0.3524
 3479TIP3    H110359   1.242   3.028   3.965  1.8205  0.1843  1.8633
 3479TIP3    H210360   1.243   3.168   3.907  0.5786  0.0165  1.4387
 3480TIP3   OH210361   7.893   1.235   2.415  0.0159 -0.2439  0.1308
 3480TIP3    H110362   7.934   1.281   2.342 -0.0994  0.2311  0.3633
 3480TIP3    H210363   7.809   1.204   2.381  0.3500 -0.7966 -0.2006
 3481TIP3   OH210364   8.189   2.326   2.096  0.0489 -0.1051 -0.1833
 3481TIP3    H110365   8.193   2.248   2.151  0.5442 -0.3463 -0.5665
 3481TIP3    H210366   8.264   2.319   2.037 -0.0333  0.5418 -0.3753
 3482TIP3   OH210367   0.820   4.264   4.128 -0.4310  0.1360  0.4311
 3482TIP3    H110368   0.779   4.235   4.046 -1.1381 -2.3884  1.6430
 3482TIP3    H210369   0.762   4.332   4.161 -1.0748 -0.0485 -0.3002
 3483TIP3   OH210370   1.718   2.176   5.337  0.1527  0.0630 -0.1553
 3483TIP3    H110371   1.680   2.263   5.337 -0.0213 -0.0167  0.2575
 3483TIP3    H210372   1.658   2.123   5.284 -0.2553 -0.0421  0.4203
 3484TIP3   OH210373   0.953   3.928   3.611  0.1912 -0.0450 -0.2843
 3484TIP3    H110374   0.919   3.959   3.695  0.1208 -0.9760  0.0356
 3484TIP3    H210375   1.026   3.870   3.634  1.9092  1.7997 -0.9554
 3485TIP3   OH210376   8.384   1.375   5.253 -0.1096 -0.3292  0.3258
 3485TIP3    H110377   8.367   1.323   5.174  1.0038  0.3666 -0.4007
 3485TIP3    H210378   8.350   1.462   5.232 -1.4154 -0.5962  1.3021
 3486TIP3   OH210379   2.724   0.232   3.442 -0.2669  0.0459 -0.5562
 3486TIP3    H110380   2.693   0.147   3.411 -0.3869  0.5767 -1.9240
 3486TIP3    H210381   2.789   0.259   3.377  1.2162  0.0976  0.9418
 3487TIP3   OH210382   2.455   3.278   2.122 -0.3428  0.2309 -0.2579
 3487TIP3    H110383   2.455   3.207   2.057  0.9387 -1.9903  2.0419
 3487TIP3    H210384   2.547   3.291   2.144 -0.7584  0.8069  1.2279
 3488TIP3   OH210385   2.131   3.942   3.146 -0.1843  0.1929  0.0919
 3488TIP3    H110386   2.073   3.983   3.211  0.4504  1.7577 -0.2917
 3488TIP3    H210387   2.132   4.004   3.073  0.9275 -0.4534 -0.4591
 3489TIP3   OH210388   1.574   1.787   3.955  0.1668  0.1508 -0.2808
 3489TIP3    H110389   1.660   1.766   3.991  0.0360  1.9727  1.1273
 3489TIP3    H210390   1.592   1.835   3.875  0.4636  1.3074  0.4789
 3490TIP3   OH210391   4.621   2.774   3.827  0.1844 -0.0884  0.2417
 3490TIP3    H110392   4.532   2.807   3.815  0.3627  0.1917 -0.3272
 3490TIP3    H210393   4.616   2.719   3.906 -0.6356 -0.6075 -0.1683
 3491TIP3   OH210394   0.838   4.712   4.548 -0.2547 -0.5535  0.0175
 3491TIP3    H110395   0.829   4.774   4.620 -0.2249  0.0335 -0.4788
 3491TIP3    H210396   0.859   4.629   4.590  0.7898  0.0022  0.6269
 3492TIP3   OH210397   8.776   3.894   2.692 -0.2300 -0.1010  0.4989
 3492TIP3    H110398   8.827   3.973   2.674 -0.6862  0.2475  0.7603
 3492TIP3    H210399   8.784   3.842   2.612  1.0039 -0.2948  0.7364
 3493TIP3   OH210400   8.834   3.886   3.548 -0.0246  0.6445  0.3569
 3493TIP3    H110401   8.741   3.908   3.544 -1.1442 -3.6288  0.5858
 3493TIP3    H210402   8.852   3.841   3.465  1.2107 -0.8307  1.3994
 3494TIP3   OH210403   1.244   6.047   2.649 -0.2232 -0.6887 -0.0212
 3494TIP3    H110404   1.206   6.107   2.584  0.3718  0.4480  0.6473
 3494TIP3    H210405   1.314   6.002   2.601 -2.4635 -2.8820 -1.2797
 3495TIP3   OH210406   3.642   4.668   2.681  0.0423  0.8787 -0.4424
 3495TIP3    H110407   3.653   4.763   2.687  0.6185  0.7671  0.4376
 3495TIP3    H210408   3.606   4.653   2.594 -0.7095  1.9670 -0.3272
 3496TIP3   OH210409   4.342   3.844   3.800 -0.4906  0.1371 -0.3031
 3496TIP3    H110410   4.264   3.805   3.840 -0.1935 -0.5431 -0.3885
 3496TIP3    H210411   4.404   3.772   3.792  0.6921  0.9791  1.0977
 3497TIP3   OH210412   2.994   2.160   4.687 -0.6946  0.4456  0.5281
 3497TIP3    H110413   3.057   2.205   4.630 -1.3057  0.4364 -0.1711
 3497TIP3    H210414   2.989   2.071   4.651 -1.4214  0.5697  0.3036
 3498TIP3   OH210415   1.879   1.589   3.293 -0.1707  0.0748 -0.3668
 3498TIP3    H110416   1.870   1.675   3.252  0.0558  0.6768  0.8296
 3498TIP3    H210417   1.842   1.528   3.229 -1.1435  1.1563 -0.8483
 3499TIP3   OH210418   2.042   3.091   3.490 -0.6487  0.0399 -0.5374
 3499TIP3    H110419   2.061   3.165   3.547 -1.7132 -0.3596  0.3596
 3499TIP3    H210420   2.122   3.038   3.490 -0.3948  0.4255 -0.0059
 3500TIP3   OH210421   0.917   4.607   3.206  0.1173  0.0547 -0.3359
 3500TIP3    H110422   0.925   4.512   3.219  0.8912  0.1075 -0.3834
 3500TIP3    H210423   0.917   4.643   3.295  0.9695  0.0871 -0.3410
 3501TIP3   OH210424   2.021   4.374   2.653 -0.3738 -0.1652 -0.9180
 3501TIP3    H110425   2.113   4.354   2.669 -0.3158  0.1310 -0.8666
 3501TIP3    H210426   2.003   4.449   2.710 -0.6632 -0.2622 -0.8796
 3502TIP3   OH210427   4.202   4.565   5.363  0.1926 -0.0834  0.4410
 3502TIP3    H110428   4.198   4.496   5.429  0.3641 -0.7201 -0.2074
 3502TIP3    H210429   4.183   4.521   5.281  1.0256  0.5122 -0.0773
 3503TIP3   OH210430   1.866   2.796   3.680 -0.6983 -0.1843 -0.2432
 3503TIP3    H110431   1.875   2.733   3.752 -1.5889  0.2516  0.2559
 3503TIP3    H210432   1.911   2.755   3.606  0.0764 -0.7146  0.5101
 3504TIP3   OH210433   3.694   3.431   2.695 -0.1695 -0.3312  0.3065
 3504TIP3    H110434   3.641   3.460   2.621  0.3102 -1.0698 -0.3370
 3504TIP3    H210435   3.682   3.336   2.697 -2.2798 -0.0629  2.8066
 3505TIP3   OH210436   2.185   3.655   5.327 -0.3076  0.0896 -0.0309
 3505TIP3    H110437   2.170   3.745   5.298  3.1706  1.0866  0.9774
 3505TIP3    H210438   2.232   3.614   5.255 -0.9811 -0.6462 -0.0659
 3506TIP3   OH210439   2.844   2.475   2.059  0.6385 -0.3791 -0.1817
 3506TIP3    H110440   2.890   2.537   2.003 -0.3807  2.4225  1.9394
 3506TIP3    H210441   2.754   2.508   2.062  0.5198 -0.8036  2.5122
 3507TIP3   OH210442   3.180   4.099   3.539  0.7096  0.2084  0.4709
 3507TIP3    H110443   3.200   4.005   3.536 -0.2855 -0.0121  0.4338
 3507TIP3    H210444   3.265   4.142   3.529  1.1516 -0.6889  0.2818
 3508TIP3   OH210445   1.279   2.912   4.929 -0.2157  0.0572 -0.0574
 3508TIP3    H110446   1.338   2.842   4.904  0.5615  0.3448  0.9248
 3508TIP3    H210447   1.210   2.911   4.863  0.6985 -0.5168 -1.0092
 3509TIP3   OH210448   1.656   5.450   4.975  0.3345 -0.4134  0.2670
 3509TIP3    H110449   1.636   5.411   4.890 -0.3697 -1.0975  0.7500
 3509TIP3    H210450   1.725   5.394   5.011 -1.0123 -1.5230  1.1716
 3510TIP3   OH210451   0.339   6.239   1.305  0.0800 -0.9330 -0.2827
 3510TIP3    H110452   0.273   6.204   1.365  0.4435 -1.3846 -0.1395
 3510TIP3    H210453   0.408   6.272   1.362  0.2652 -1.0388 -0.4441
 3511TIP3   OH210454   3.326   2.181   2.608 -0.3643 -0.2134  0.2805
 3511TIP3    H110455   3.421   2.191   2.618 -0.4286 -0.4642  1.2604
 3511TIP3    H210456   3.310   2.089   2.632 -0.6554 -0.6210 -1.4529
 3512TIP3   OH210457   4.158   2.341   5.900 -0.0148  0.5039  0.2497
 3512TIP3    H110458   4.098   2.309   5.833  0.1893  0.2620  0.1794
 3512TIP3    H210459   4.121   2.425   5.927 -0.8979 -0.0937  0.9008
 3513TIP3   OH210460   2.966   3.853   4.414 -0.2908  0.4224 -0.2684
 3513TIP3    H110461   2.921   3.799   4.349 -0.6097 -1.3162  1.3949
 3513TIP3    H210462   2.904   3.924   4.433  0.8705  2.5917 -3.8623
 3514TIP3   OH210463   2.990   1.138   3.416 -0.1662 -0.0771  0.9590
 3514TIP3    H110464   3.043   1.073   3.371  0.1175  0.0810  1.0684
 3514TIP3    H210465   2.980   1.209   3.352  0.7029  0.3938  1.3417
 3515TIP3   OH210466   4.058   4.174   1.660 -0.1646 -0.3626  0.7000
 3515TIP3    H110467   4.086   4.265   1.656 -0.3884 -0.3237 -0.1600
 3515TIP3    H210468   4.102   4.132   1.586 -1.4789 -0.5473  0.0057
 3516TIP3   OH210469   2.308   3.493   1.895 -0.0119 -0.4415  0.8511
 3516TIP3    H110470   2.354   3.549   1.958  0.2971 -1.7636  1.8081
 3516TIP3    H210471   2.377   3.453   1.843 -0.1943 -0.6227  0.7456
 3517TIP3   OH210472   3.100   3.277   5.041  0.3243 -0.4230  0.0612
 3517TIP3    H110473   3.076   3.357   5.088 -0.3737 -0.1518 -0.7371
 3517TIP3    H210474   3.030   3.215   5.062  1.0287 -0.9348  0.9318
 3518TIP3   OH210475   1.416   3.212   3.357  0.4902 -0.0760 -0.5896
 3518TIP3    H110476   1.450   3.256   3.435 -3.8430 -0.0772  1.4088
 3518TIP3    H210477   1.441   3.120   3.368 -1.6192 -0.4086  1.7488
 3519TIP3   OH210478   7.012   4.551   2.708 -0.1175 -0.1977  0.9754
 3519TIP3    H110479   6.959   4.612   2.760 -0.1380 -0.0802  0.8185
 3519TIP3    H210480   6.948   4.497   2.661 -0.1367  1.3355 -0.8515
 3520TIP3   OH210481   0.176   4.508   5.312  0.6596 -0.6093  0.3021
 3520TIP3    H110482   0.222   4.585   5.279 -1.8181  0.7656 -0.0750
 3520TIP3    H210483   0.232   4.474   5.382  2.6898  0.4155 -0.7879
 3521TIP3   OH210484   1.358   1.604   3.151 -0.2706 -0.0562 -0.2422
 3521TIP3    H110485   1.428   1.658   3.187  0.0282 -0.7215  0.1888
 3521TIP3    H210486   1.281   1.661   3.150  0.1563  0.5238 -0.2607
 3522TIP3   OH210487   1.571   3.688   2.530 -0.1605 -0.1202  0.1939
 3522TIP3    H110488   1.648   3.716   2.481  0.0361  0.6653  0.9348
 3522TIP3    H210489   1.570   3.744   2.608 -1.7568  0.2089 -0.0409
 3523TIP3   OH210490   3.083   3.197   3.043 -0.1457  0.3664 -0.3445
 3523TIP3    H110491   3.172   3.163   3.050 -0.0525  0.5107 -0.7970
 3523TIP3    H210492   3.071   3.252   3.121  0.4191  0.9434 -0.6592
 3524TIP3   OH210493   0.929   5.641   3.513  0.3628 -0.4238  0.1876
 3524TIP3    H110494   0.887   5.725   3.530  0.8858 -0.0620 -0.2781
 3524TIP3    H210495   0.973   5.653   3.428  2.5636 -0.3444  1.3060
 3525TIP3   OH210496   2.111   4.997   3.948  0.0020 -0.3412 -0.1973
 3525TIP3    H110497   2.113   4.961   4.036 -0.0269  0.2457  0.0441
 3525TIP3    H210498   2.099   4.920   3.891 -0.1577 -0.6996  0.3155
 3526TIP3   OH210499   1.136   5.395   1.017  0.1059 -0.2784 -0.5756
 3526TIP3    H110500   1.187   5.355   1.087 -0.8686 -0.9907 -0.2709
 3526TIP3    H210501   1.045   5.376   1.039 -0.3216  1.2878 -0.9349
 3527TIP3   OH210502   0.944   2.205   3.876  1.0327  0.3461 -0.1730
 3527TIP3    H110503   0.862   2.185   3.830  0.0712  1.8675  0.8352
 3527TIP3    H210504   1.012   2.173   3.817 -0.2244  0.6653 -1.8732
 3528TIP3   OH210505   0.401   4.420   0.722  0.2189  0.3080  0.0551
 3528TIP3    H110506   0.490   4.453   0.714 -0.0540  0.9426 -0.4704
 3528TIP3    H210507   0.347   4.488   0.680 -0.4593 -0.3023 -0.0657
 3529TIP3   OH210508   1.517   5.601   2.018  0.5000 -0.1571  0.1345
 3529TIP3    H110509   1.470   5.618   2.099  0.3349  0.8136 -0.1540
 3529TIP3    H210510   1.600   5.564   2.046  0.0878 -0.6645  0.7043
 3530TIP3   OH210511   3.923   2.787   3.466  0.0186 -0.3592 -0.3679
 3530TIP3    H110512   3.926   2.769   3.372  1.1444 -0.4595 -0.3272
 3530TIP3    H210513   4.008   2.828   3.485 -0.5139  0.3785  0.4595
 3531TIP3   OH210514   0.650   4.110   3.427  0.2180  0.1490 -0.5810
 3531TIP3    H110515   0.727   4.165   3.443 -0.5018  1.7024 -2.2980
 3531TIP3    H210516   0.645   4.102   3.332 -2.1490  0.7056 -0.5392
 3532TIP3   OH210517   3.745   5.709   2.330 -0.0438  0.2831  0.9958
 3532TIP3    H110518   3.698   5.774   2.382 -2.1235 -1.2811  1.1674
 3532TIP3    H210519   3.797   5.661   2.394  1.2009  1.5058  0.9203
 3533TIP3   OH210520   2.086   3.367   5.248 -0.3732 -0.3237 -0.6415
 3533TIP3    H110521   2.109   3.422   5.172 -0.2255  1.5225  0.7144
 3533TIP3    H210522   2.037   3.426   5.306 -0.9577 -1.8755  0.4619
 3534TIP3   OH210523   1.250   3.794   2.977 -0.1002 -0.3278  0.1544
 3534TIP3    H110524   1.236   3.872   3.032  1.0792 -0.1088  0.1436
 3534TIP3    H210525   1.340   3.768   2.994 -0.8489 -2.4014  1.0379
 3535TIP3   OH210526   2.760   4.798   4.228  0.8691  0.2583  0.3456
 3535TIP3    H110527   2.831   4.778   4.166  0.7316  1.1337 -0.1138
 3535TIP3    H210528   2.784   4.883   4.264 -0.2227  0.8141 -0.2140
 3536TIP3   OH210529   0.019   3.573   3.920 -0.1058 -0.2979  0.3098
 3536TIP3    H110530  -0.052   3.510   3.924  0.1176 -0.5238  0.7462
 3536TIP3    H210531   0.098   3.523   3.941  0.3131 -0.2432 -1.0798
 3537TIP3   OH210532   0.241   2.565   2.947 -0.6150 -0.2204 -0.2548
 3537TIP3    H110533   0.289   2.488   2.979 -0.3277 -0.4619 -1.2287
 3537TIP3    H210534   0.307   2.615   2.899 -1.0472  0.0814 -0.5375
 3538TIP3   OH210535   1.405   2.194   1.700 -0.1073  0.1641  0.9462
 3538TIP3    H110536   1.387   2.288   1.706 -1.1974  0.1328 -1.3365
 3538TIP3    H210537   1.318   2.154   1.691  0.5308 -0.7440 -1.4969
 3539TIP3   OH210538   2.712   4.794   2.202  0.3651 -0.0554  0.4190
 3539TIP3    H110539   2.618   4.802   2.185  0.5066  0.8677  0.0414
 3539TIP3    H210540   2.729   4.856   2.273  0.6615 -0.3404  0.5988
 3540TIP3   OH210541   1.708   4.771   4.040 -0.2995  0.0040 -0.6480
 3540TIP3    H110542   1.614   4.786   4.026 -0.5547  1.4851  2.1525
 3540TIP3    H210543   1.711   4.700   4.104  0.4583  0.3919 -0.2457
 3541TIP3   OH210544   0.086   4.819   2.751  0.1475  0.1484  0.4341
 3541TIP3    H110545   0.097   4.837   2.844 -2.7144 -1.8112  1.2157
 3541TIP3    H210546   0.111   4.727   2.740  0.1056  0.2504 -0.6563
 3542TIP3   OH210547   0.885   1.269   3.751  0.1848 -0.1148 -0.7336
 3542TIP3    H110548   0.911   1.234   3.836 -0.2652  0.5170 -0.3279
 3542TIP3    H210549   0.949   1.234   3.689 -1.6961 -3.7135 -0.7562
 3543TIP3   OH210550   2.061   2.301   3.918  0.2939  0.3688 -0.3376
 3543TIP3    H110551   1.972   2.279   3.890  0.1202 -0.1934  0.6197
 3543TIP3    H210552   2.083   2.380   3.869 -0.0961 -0.4356 -1.8439
 3544TIP3   OH210553   1.911   1.730   3.959 -0.0512  0.9223  0.0114
 3544TIP3    H110554   1.977   1.708   4.025 -1.8282 -1.3679  1.1035
 3544TIP3    H210555   1.942   1.687   3.879 -0.3515 -0.3687  0.5854
 3545TIP3   OH210556   1.833   3.668   2.684 -0.8308  0.2191 -0.1804
 3545TIP3    H110557   1.844   3.639   2.774  0.2966  0.6121 -0.1784
 3545TIP3    H210558   1.796   3.756   2.691 -1.6169 -0.1150 -0.1238
 3546TIP3   OH210559   3.047   6.757   1.289  0.1551 -0.5884 -0.0175
 3546TIP3    H110560   3.099   6.827   1.328  2.6574 -0.9804 -2.4702
 3546TIP3    H210561   3.008   6.797   1.211  0.8882 -1.6642 -0.9453
 3547TIP3   OH210562   0.994   3.021   5.290  0.5760 -0.4217  0.1144
 3547TIP3    H110563   1.055   2.947   5.284  0.1110 -0.7803 -0.2246
 3547TIP3    H210564   0.913   2.983   5.326  0.2367 -0.1356 -0.3392
 3548TIP3   OH210565   2.879   2.027   4.921 -0.1187 -0.2779  0.3944
 3548TIP3    H110566   2.919   2.061   4.840  1.1771 -2.1549  0.2227
 3548TIP3    H210567   2.790   2.063   4.920  0.1419  0.4005 -1.4557
 3549TIP3   OH210568   1.118   2.313   3.488  0.1153 -0.1839 -0.1003
 3549TIP3    H110569   1.202   2.358   3.478 -0.8274  1.4261 -0.9413
 3549TIP3    H210570   1.058   2.381   3.516 -1.2565 -1.0053 -1.0213
 3550TIP3   OH210571   2.945   4.765   3.099 -0.2950  0.0012 -0.0415
 3550TIP3    H110572   3.002   4.696   3.131 -2.5084 -1.3497  1.1512
 3550TIP3    H210573   3.004   4.831   3.063  1.8140 -4.0732 -4.6479
 3551TIP3   OH210574   1.595   3.841   2.759  0.0976  0.9748 -0.1336
 3551TIP3    H110575   1.662   3.907   2.773 -1.1110  2.3175 -0.5943
 3551TIP3    H210576   1.576   3.806   2.846  1.1307  0.8266  0.0382
 3552TIP3   OH210577   3.600   2.911   4.656 -0.7191 -0.1247 -0.1530
 3552TIP3    H110578   3.674   2.961   4.622 -0.7703  0.3366  0.4054
 3552TIP3    H210579   3.559   2.873   4.579  0.2592 -0.6121 -0.4518
 3553TIP3   OH210580   2.731   3.257   2.168  0.7999  0.2534 -0.0196
 3553TIP3    H110581   2.723   3.209   2.250  1.5400 -1.8214 -1.1133
 3553TIP3    H210582   2.791   3.205   2.115  0.4332  1.6059 -1.8346
 3554TIP3   OH210583   0.445   0.474   4.599 -0.5127 -0.4715 -0.7197
 3554TIP3    H110584   0.464   0.380   4.596 -1.1762 -0.7240  1.8423
 3554TIP3    H210585   0.352   0.480   4.578 -0.9688 -0.6063  1.1850
 3555TIP3   OH210586   1.803   3.584   2.984  0.3657 -0.0830  0.3244
 3555TIP3    H110587   1.897   3.600   2.993  0.9249 -2.8611 -0.2397
 3555TIP3    H210588   1.767   3.607   3.070  1.9065 -1.2693  1.3111
 3556TIP3   OH210589   3.671   4.196   3.387  0.3307 -0.2861  0.3112
 3556TIP3    H110590   3.711   4.176   3.471 -1.3159 -3.1605  0.4694
 3556TIP3    H210591   3.740   4.176   3.323  0.1260 -2.5045  0.7368
 3557TIP3   OH210592   1.011   2.858   3.791 -0.3255 -0.1773  0.1828
 3557TIP3    H110593   1.035   2.893   3.877 -0.6387  0.1757  0.1266
 3557TIP3    H210594   1.030   2.764   3.798  1.3674  0.1333  0.0380
 3558TIP3   OH210595   0.006   2.451   3.237  0.3662 -0.2437  0.6162
 3558TIP3    H110596   0.047   2.442   3.323  1.5287  1.8126  0.3089
 3558TIP3    H210597   0.074   2.425   3.175  0.7869  1.7629  0.1767
 3559TIP3   OH210598   1.137   3.172   3.397 -0.6354 -0.1213  0.4257
 3559TIP3    H110599   1.102   3.259   3.417  1.6148  0.6327  1.2694
 3559TIP3    H210600   1.232   3.185   3.392 -0.2208 -2.6171  1.0647
 3560TIP3   OH210601   2.010   2.387   3.354  0.2313 -0.1573  0.5274
 3560TIP3    H110602   2.089   2.353   3.312  0.9573 -0.9880  2.4816
 3560TIP3    H210603   1.938   2.342   3.310  0.8092  0.7248 -1.3833
 3561TIP3   OH210604   1.093   3.558   3.017 -0.0933  0.1082 -0.4078
 3561TIP3    H110605   1.029   3.601   3.074 -0.7727 -0.3785 -0.7989
 3561TIP3    H210606   1.154   3.628   2.992  0.7934  0.1265  1.7114
 3562TIP3   OH210607   3.284   7.031   3.807  0.8351  0.6358  0.2777
 3562TIP3    H110608   3.304   6.962   3.745  0.6000  0.2399  0.6420
 3562TIP3    H210609   3.246   6.986   3.882 -0.3271  1.2637  0.0782
 3563TIP3   OH210610   8.722   3.655   2.925 -0.1259 -0.4472  0.2224
 3563TIP3    H110611   8.795   3.643   2.863  0.5337 -0.5856  1.0230
 3563TIP3    H210612   8.736   3.742   2.962 -1.1139  0.0625 -0.5902
 3564TIP3   OH210613   2.439   3.937   1.843  0.3168 -0.1761  0.0817
 3564TIP3    H110614   2.527   3.947   1.807 -0.3860  0.2425 -1.5643
 3564TIP3    H210615   2.393   3.884   1.778 -0.6077 -0.5003  1.0023
 3565TIP3   OH210616   1.984   0.976   5.094 -0.0181 -0.3093 -0.1373
 3565TIP3    H110617   1.953   0.896   5.052  0.9101 -1.2043  0.8344
 3565TIP3    H210618   2.079   0.967   5.097 -0.0001  0.1466  1.2968
 3566TIP3   OH210619   8.438   2.267   3.501 -0.3093  0.6301  0.1713
 3566TIP3    H110620   8.477   2.253   3.587 -0.3086 -0.0648  0.0587
 3566TIP3    H210621   8.348   2.293   3.519 -0.4876 -0.1199  0.3657
 3567TIP3   OH210622   2.886   3.119   1.146  0.4376  0.0996 -0.3349
 3567TIP3    H110623   2.798   3.155   1.148 -0.0210 -0.9623 -0.9130
 3567TIP3    H210624   2.873   3.025   1.135  1.6244 -0.1598  0.4213
 3568TIP3   OH210625   4.815   2.181   0.675  0.8615 -0.1318  0.5302
 3568TIP3    H110626   4.905   2.211   0.665  0.7905 -0.1709 -0.2442
 3568TIP3    H210627   4.789   2.152   0.588 -0.3711  1.1899  0.4455
 3569TIP3   OH210628   3.631   2.488   1.424  0.1127  0.1997 -0.5493
 3569TIP3    H110629   3.711   2.540   1.422  0.1709  0.1679  0.4585
 3569TIP3    H210630   3.561   2.554   1.425  0.1880  0.2783  0.8113
 3570TIP3   OH210631   2.567   3.403   3.219 -0.0910 -0.2187  0.7508
 3570TIP3    H110632   2.567   3.468   3.148 -0.2561  2.0678  2.7665
 3570TIP3    H210633   2.475   3.379   3.230 -0.3480  1.0855  1.6105
 3571TIP3   OH210634   5.571   3.404   2.948 -0.0891 -0.1248 -0.4904
 3571TIP3    H110635   5.485   3.415   2.908  0.1878 -0.2351 -1.1106
 3571TIP3    H210636   5.607   3.325   2.909  0.3920  0.0455 -0.4019
 3572TIP3   OH210637   2.522   3.372   0.868  0.1877 -0.2269  0.5989
 3572TIP3    H110638   2.480   3.429   0.932  1.7114  0.9592  0.5748
 3572TIP3    H210639   2.554   3.298   0.920  0.6634  0.3116  1.0850
 3573TIP3   OH210640   0.532   3.654   1.725 -0.4129 -0.5016 -0.0231
 3573TIP3    H110641   0.588   3.592   1.678 -0.9970 -1.0873  0.0420
 3573TIP3    H210642   0.586   3.732   1.737 -1.0878  0.6939 -4.0272
 3574TIP3   OH210643   2.264   0.801   3.602 -0.0277 -0.0548 -0.4584
 3574TIP3    H110644   2.301   0.736   3.662  0.5828 -0.3837 -1.1928
 3574TIP3    H210645   2.333   0.867   3.593 -1.2054  1.5167  1.5014
 3575TIP3   OH210646   3.503   3.123   2.561  0.3552 -0.6038 -0.2334
 3575TIP3    H110647   3.464   3.146   2.645  0.1420 -1.7946  0.0112
 3575TIP3    H210648   3.430   3.124   2.499  0.1032 -1.8679  0.0316
 3576TIP3   OH210649   1.433   2.192   2.861  0.2565  0.3360 -0.4723
 3576TIP3    H110650   1.350   2.146   2.855  1.0266 -1.1881  0.1415
 3576TIP3    H210651   1.449   2.202   2.955 -0.9870  3.9600 -0.5648
 3577TIP3   OH210652   2.220   2.882   5.283  0.2110  0.2061 -0.1561
 3577TIP3    H110653   2.279   2.852   5.214  2.3464 -0.0851  1.7503
 3577TIP3    H210654   2.219   2.977   5.275  1.5078  0.2606  0.2345
 3578TIP3   OH210655   1.152   3.277   4.046 -0.6386 -0.3179  0.0933
 3578TIP3    H110656   1.158   3.370   4.068 -1.1390 -0.5825  1.3224
 3578TIP3    H210657   1.132   3.233   4.128 -1.4719 -1.4095 -0.6706
 3579TIP3   OH210658   3.097   2.818   3.272  0.3322 -0.0316 -0.2115
 3579TIP3    H110659   3.009   2.784   3.287  0.1970  0.1012 -0.6984
 3579TIP3    H210660   3.084   2.892   3.213  0.8673 -0.6394 -1.1034
 3580TIP3   OH210661   1.955   3.323   3.242 -0.0753 -0.0870 -0.4631
 3580TIP3    H110662   1.964   3.231   3.218 -1.4020 -0.4360  0.3507
 3580TIP3    H210663   1.867   3.330   3.278  1.4620  0.6222  3.3746
 3581TIP3   OH210664   0.853   4.600   2.314  0.0880 -0.0949 -0.0048
 3581TIP3    H110665   0.855   4.644   2.400  2.4128  2.6714 -1.3779
 3581TIP3    H210666   0.760   4.596   2.291 -0.3072  2.5658  0.9681
 3582TIP3   OH210667   0.123   3.888   2.090  0.3631  0.5768 -0.3111
 3582TIP3    H110668   0.134   3.922   2.179 -0.5169 -3.0172  1.2849
 3582TIP3    H210669   0.028   3.875   2.082  0.5042  0.3344 -1.5632
 3583TIP3   OH210670   1.068   3.470   3.363  0.3424  0.3991 -0.7036
 3583TIP3    H110671   0.990   3.483   3.417 -1.1223 -1.6655 -2.2526
 3583TIP3    H210672   1.050   3.521   3.283  0.3986 -0.4170 -1.2392
 3584TIP3   OH210673   0.369   3.824   5.722  0.3836  0.5371  0.1464
 3584TIP3    H110674   0.321   3.907   5.728 -0.0671  0.1630  1.8995
 3584TIP3    H210675   0.461   3.849   5.736  0.3744  0.8604 -0.3308
 3585TIP3   OH210676   8.608   5.345   1.990  0.0700  1.1739  0.0128
 3585TIP3    H110677   8.594   5.251   1.979  1.2735  1.2211 -2.1454
 3585TIP3    H210678   8.678   5.351   2.055 -0.4882  0.6129  0.6803
 3586TIP3   OH210679   2.132   6.047   4.397  0.0857  0.0893 -1.1919
 3586TIP3    H110680   2.217   6.072   4.362 -0.3103  3.0623 -0.2033
 3586TIP3    H210681   2.079   6.025   4.320  1.3259 -0.4566 -1.8969
 3587TIP3   OH210682   1.654   4.773   2.136 -0.4423  0.3417 -0.4034
 3587TIP3    H110683   1.613   4.856   2.115 -0.5753  0.5627  0.6981
 3587TIP3    H210684   1.653   4.769   2.231 -0.9216 -1.1643 -0.4524
 3588TIP3   OH210685   2.476   4.278   3.735  0.1771  0.0828 -0.2807
 3588TIP3    H110686   2.479   4.339   3.809  2.6159 -0.1163 -0.1962
 3588TIP3    H210687   2.506   4.330   3.660 -0.8798 -0.1227 -0.8581
 3589TIP3   OH210688   0.802   4.575   1.657  0.2814  0.0676 -0.1365
 3589TIP3    H110689   0.818   4.573   1.751 -1.3424 -1.4767  0.1361
 3589TIP3    H210690   0.772   4.663   1.639  2.6625  1.0388  0.4058
 3590TIP3   OH210691   1.884   4.919   0.907 -0.5729 -0.0624 -0.1314
 3590TIP3    H110692   1.896   4.925   0.812 -0.5751  1.7484 -0.0516
 3590TIP3    H210693   1.810   4.859   0.919 -0.2203 -0.7178 -1.2524
 3591TIP3   OH210694   2.450   3.764   1.555  1.1086 -0.1968 -0.3059
 3591TIP3    H110695   2.362   3.735   1.578  0.7877  0.7728 -0.3157
 3591TIP3    H210696   2.506   3.729   1.625  0.6432 -0.3315 -0.0029
 3592TIP3   OH210697   4.144   2.344   2.997  0.2477  0.2584  0.9295
 3592TIP3    H110698   4.108   2.421   2.953 -0.6096 -0.0793  1.0154
 3592TIP3    H210699   4.204   2.379   3.062  1.9387  0.7418 -0.8618
 3593TIP3   OH210700   3.041   2.570   2.420  0.3673 -0.4069  0.1700
 3593TIP3    H110701   3.067   2.662   2.423 -1.3827  0.0659  1.4675
 3593TIP3    H210702   3.094   2.528   2.488  2.1501 -0.6467 -1.3306
 3594TIP3   OH210703   8.033   2.981   1.717  0.1426  0.6762 -0.8899
 3594TIP3    H110704   7.964   3.048   1.710 -0.5294  0.2199  1.0054
 3594TIP3    H210705   8.094   3.002   1.647 -0.3639  2.9266 -0.6910
 3595TIP3   OH210706   2.745   4.074   2.501 -0.1409 -0.0320  0.1321
 3595TIP3    H110707   2.783   4.013   2.564  3.2977 -0.0305 -1.8130
 3595TIP3    H210708   2.668   4.028   2.467  0.0425 -1.5374  1.6843
 3596TIP3   OH210709   2.208   1.136   4.547  0.0984  0.2158 -0.0123
 3596TIP3    H110710   2.302   1.133   4.531  0.3469 -1.6265  1.5517
 3596TIP3    H210711   2.197   1.202   4.616 -0.0055  1.8643 -1.5720
 3597TIP3   OH210712   4.166   5.092   2.726  0.2775  0.9039 -0.5755
 3597TIP3    H110713   4.154   5.135   2.641  0.7229  0.1258 -1.0402
 3597TIP3    H210714   4.224   5.151   2.775  0.0535  1.3325 -0.8175
 3598TIP3   OH210715   4.476   6.210   1.907 -0.5084  0.1628  0.3936
 3598TIP3    H110716   4.434   6.225   1.822 -0.4151  0.0931  0.3335
 3598TIP3    H210717   4.404   6.194   1.967 -0.5141 -1.2967  0.0186
 3599TIP3   OH210718   3.243   2.745   2.260  0.4745  0.5511 -0.4432
 3599TIP3    H110719   3.224   2.740   2.166  1.2448  1.5166 -0.6677
 3599TIP3    H210720   3.327   2.702   2.269 -0.1570 -0.5931 -0.0056
 3600TIP3   OH210721   3.902   2.552   4.880 -0.7957  0.5856 -0.0957
 3600TIP3    H110722   3.979   2.594   4.918 -2.0502  2.3433  0.6130
 3600TIP3    H210723   3.849   2.526   4.955 -1.3148  0.2054 -0.5882
 3601TIP3   OH210724   0.521   5.332   3.573 -0.0204 -0.4116  0.5225
 3601TIP3    H110725   0.538   5.337   3.479  0.2296 -0.4403  0.5669
 3601TIP3    H210726   0.602   5.362   3.614 -0.7773  1.4659  0.7010
 3602TIP3   OH210727   0.233   4.306   3.248 -0.3102  0.0233  0.5440
 3602TIP3    H110728   0.280   4.259   3.317  0.8665 -0.0119 -0.2645
 3602TIP3    H210729   0.266   4.396   3.254 -0.3498  0.0625  0.1621
 3603TIP3   OH210730   8.744   3.887   4.776 -0.3540  0.0369  0.0415
 3603TIP3    H110731   8.729   3.940   4.698  0.1605 -1.3376 -1.0052
 3603TIP3    H210732   8.661   3.890   4.823 -0.5929  1.0604 -0.4337
 3604TIP3   OH210733   3.939   2.534   2.126 -0.3922 -0.0483  0.3591
 3604TIP3    H110734   3.844   2.540   2.136 -0.1619  1.7694  1.6326
 3604TIP3    H210735   3.975   2.579   2.203  1.4981  1.3586 -1.2708
 3605TIP3   OH210736   2.909   3.834   1.490  0.7669 -0.7271 -0.0562
 3605TIP3    H110737   2.888   3.783   1.412  1.4331 -1.0194 -0.0536
 3605TIP3    H210738   2.909   3.771   1.562 -0.5896 -0.3274  0.3149
 3606TIP3   OH210739   1.118   2.086   2.810 -0.7223  0.0939  0.4378
 3606TIP3    H110740   1.107   2.165   2.757 -0.1728 -0.4366 -0.4867
 3606TIP3    H210741   1.033   2.043   2.806 -0.7709  0.2082  0.2434
 3607TIP3   OH210742   0.990   3.171   1.263 -0.3301 -0.2199 -0.4752
 3607TIP3    H110743   0.923   3.173   1.195  0.7782 -0.8362 -1.6002
 3607TIP3    H210744   1.046   3.246   1.245 -0.3305 -0.0848  0.0688
 3608TIP3   OH210745   1.500   4.272   1.126 -0.6647  0.1571  0.2782
 3608TIP3    H110746   1.409   4.296   1.110 -0.4352  1.6098  1.0404
 3608TIP3    H210747   1.499   4.226   1.210 -0.5706  1.0223  0.7563
 3609TIP3   OH210748   7.633   2.057   3.042  0.0087  0.1879 -0.0776
 3609TIP3    H110749   7.659   2.115   2.970 -0.3922  1.0985  0.4976
 3609TIP3    H210750   7.539   2.045   3.030 -0.2010  0.9969  0.7646
 3610TIP3   OH210751   4.013   2.686   1.601 -0.1100  0.2623  0.0938
 3610TIP3    H110752   4.002   2.696   1.696  0.2546 -2.1891  0.4155
 3610TIP3    H210753   4.072   2.758   1.576 -2.1552  2.4274  1.2949
 3611TIP3   OH210754   0.941   5.298   4.053 -0.6506  0.4126  0.1334
 3611TIP3    H110755   1.035   5.278   4.051 -0.5815  0.4948  1.9781
 3611TIP3    H210756   0.932   5.374   3.994  0.0422 -1.0810 -1.9578
 3612TIP3   OH210757   1.636   5.858   3.744 -0.2281  0.6345 -1.1488
 3612TIP3    H110758   1.715   5.903   3.715 -0.0052  0.9857 -0.0254
 3612TIP3    H210759   1.619   5.894   3.831  0.1909 -1.7241 -0.0592
 3613TIP3   OH210760   2.055   2.213   2.602 -0.2266  0.1022  0.1700
 3613TIP3    H110761   1.966   2.243   2.622  0.1611 -0.0569  2.2550
 3613TIP3    H210762   2.047   2.170   2.517 -1.7437  1.8474 -0.6033
 3614TIP3   OH210763   1.220   5.497   2.890 -0.0831 -0.0277  0.2214
 3614TIP3    H110764   1.193   5.423   2.946 -0.0536 -0.3661 -0.2113
 3614TIP3    H210765   1.199   5.574   2.942  1.3330 -0.3622  1.3430
 3615TIP3   OH210766   1.019   6.229   2.476  0.2415  0.4232  0.3070
 3615TIP3    H110767   1.091   6.287   2.502  1.3011 -0.9760  0.5810
 3615TIP3    H210768   1.009   6.244   2.382 -0.4140  2.0401  0.6226
 3616TIP3   OH210769   0.501   4.526   3.621  0.1870 -0.3801 -0.2911
 3616TIP3    H110770   0.406   4.516   3.634  0.2928 -1.6607 -0.4201
 3616TIP3    H210771   0.540   4.460   3.677  0.9449 -0.8872 -1.3985
 3617TIP3   OH210772   2.227   5.007   2.171 -0.0344 -0.1038  0.6533
 3617TIP3    H110773   2.139   4.990   2.203 -0.5089  1.5662  0.2527
 3617TIP3    H210774   2.218   5.015   2.076  0.3668  1.1873  0.7176
 3618TIP3   OH210775   2.498   4.798   4.101 -0.4890  0.0207  0.0493
 3618TIP3    H110776   2.431   4.751   4.150 -0.1418 -1.6394 -1.0155
 3618TIP3    H210777   2.577   4.791   4.155 -0.6789  0.2661  0.3629
 3619TIP3   OH210778   0.124   3.360   2.975 -0.6132 -0.3239 -0.0939
 3619TIP3    H110779   0.066   3.344   3.049 -1.1562 -0.1498 -0.4738
 3619TIP3    H210780   0.066   3.394   2.906  0.1129  0.9226 -0.1089
 3620TIP3   OH210781   2.853   5.183   4.137 -0.1709  0.2169  0.0038
 3620TIP3    H110782   2.887   5.097   4.112  0.8104  0.7052 -0.3778
 3620TIP3    H210783   2.762   5.182   4.108  0.2727 -0.1121 -1.4372
 3621TIP3   OH210784   1.699   3.376   3.324 -0.0776  0.3671 -0.0736
 3621TIP3    H110785   1.708   3.300   3.382 -0.0879  0.1859 -0.3123
 3621TIP3    H210786   1.641   3.436   3.373 -0.7674 -0.1447 -0.2599
 3622TIP3   OH210787   2.074   2.023   3.342  0.3942 -0.0240  0.5008
 3622TIP3    H110788   2.076   2.100   3.286 -0.2394 -0.6800 -0.4312
 3622TIP3    H210789   2.008   2.042   3.408  0.8981  0.6077  0.8286
 3623TIP3   OH210790   0.059   3.950   4.069 -0.3142 -0.4055 -0.1605
 3623TIP3    H110791  -0.001   3.880   4.093  0.0057 -1.1914 -1.6280
 3623TIP3    H210792   0.011   4.003   4.006  0.1497 -0.4267 -0.5342
 3624TIP3   OH210793   8.359   2.293   2.961 -0.3661  0.4153  0.2486
 3624TIP3    H110794   8.272   2.260   2.939 -0.8817  1.3389  0.8683
 3624TIP3    H210795   8.386   2.240   3.036  0.4097 -1.1421 -1.0875
 3625TIP3   OH210796   2.841   3.463   2.899  0.1324  0.5647  0.5253
 3625TIP3    H110797   2.824   3.386   2.954 -0.4933 -0.6539 -1.3516
 3625TIP3    H210798   2.755   3.503   2.887 -0.0591 -0.4022 -1.3637
 3626TIP3   OH210799   2.599   1.623   1.930 -0.5883  0.1760  0.1136
 3626TIP3    H110800   2.594   1.699   1.988 -0.0324 -0.2428  0.7086
 3626TIP3    H210801   2.523   1.570   1.953 -0.7699  0.3655 -0.0448
 3627TIP3   OH210802   3.251   2.907   4.606 -0.8553  0.1503  0.2707
 3627TIP3    H110803   3.158   2.914   4.628 -1.3660  0.3067 -1.8612
 3627TIP3    H210804   3.253   2.911   4.510  1.2275 -1.2269  0.2401
 3628TIP3   OH210805   1.631   1.820   3.223  0.3962 -0.5195  0.0656
 3628TIP3    H110806   1.658   1.867   3.302  0.7102 -0.0142 -0.3497
 3628TIP3    H210807   1.551   1.864   3.195 -0.4884 -1.5563  0.8765
 3629TIP3   OH210808   3.908   3.655   3.525 -0.4124 -0.4434  0.0271
 3629TIP3    H110809   3.993   3.650   3.483  0.6258 -0.9049  2.1229
 3629TIP3    H210810   3.853   3.595   3.474  1.3888 -2.6472  0.6028
 3630TIP3   OH210811   0.696   3.377   3.860  0.0233  0.4072 -0.0097
 3630TIP3    H110812   0.607   3.408   3.871  0.0635  0.5863 -0.1782
 3630TIP3    H210813   0.727   3.422   3.781  0.9887  1.9902  1.2542
 3631TIP3   OH210814   3.882   1.942   3.348  0.0337  0.0004  0.1991
 3631TIP3    H110815   3.887   1.882   3.421 -1.8944  1.3153  1.4822
 3631TIP3    H210816   3.881   1.886   3.270  1.6700 -1.4224  1.1908
 3632TIP3   OH210817   2.811   4.576   3.824 -0.3370  0.3354  0.5526
 3632TIP3    H110818   2.823   4.549   3.915 -1.4819 -0.2178  0.5587
 3632TIP3    H210819   2.743   4.643   3.828 -1.5808 -0.8497 -0.0305
 3633TIP3   OH210820   2.673   1.972   4.097  0.1728  0.4258  0.4740
 3633TIP3    H110821   2.593   2.000   4.051 -0.1827 -0.0377  0.8026
 3633TIP3    H210822   2.744   2.014   4.049 -0.1320 -0.7901 -1.0748
 3634TIP3   OH210823   1.933   3.496   3.671  0.1800  0.6896  0.2454
 3634TIP3    H110824   1.927   3.445   3.752  0.1019 -0.1199 -0.2580
 3634TIP3    H210825   1.974   3.437   3.608  0.0937  1.2549 -0.3522
 3635TIP3   OH210826   3.523   3.389   1.780 -0.6249  0.5582  0.1671
 3635TIP3    H110827   3.504   3.387   1.874  0.1218 -0.4777  0.3155
 3635TIP3    H210828   3.487   3.306   1.747  0.9176 -0.0310 -0.0773
 3636TIP3   OH210829   2.966   2.295   4.045  0.0987  0.1982 -0.0463
 3636TIP3    H110830   2.942   2.377   4.089 -0.4742 -0.1184  0.2344
 3636TIP3    H210831   3.027   2.322   3.976 -0.1914  0.8768 -0.0421
 3637TIP3   OH210832   1.689   2.162   5.006 -0.3585  0.1543  0.0504
 3637TIP3    H110833   1.614   2.202   5.052 -0.2527 -0.3799  0.6909
 3637TIP3    H210834   1.652   2.129   4.924 -0.8268 -0.1192  0.3711
 3638TIP3   OH210835   1.588   1.591   5.225 -0.3030  0.0077  0.4425
 3638TIP3    H110836   1.529   1.641   5.170 -2.6771 -0.9034  2.1028
 3638TIP3    H210837   1.534   1.560   5.297  2.3066 -0.3976  2.3173
 3639TIP3   OH210838   3.396   2.306   4.647 -0.4041  0.0048  0.1103
 3639TIP3    H110839   3.393   2.324   4.741 -0.8403 -0.5718  0.2086
 3639TIP3    H210840   3.477   2.346   4.617 -0.4337  0.4875  0.6739
 3640TIP3   OH210841   1.390   4.623   3.405 -0.1160 -0.1067  0.0232
 3640TIP3    H110842   1.471   4.670   3.383  0.2835 -0.3433  0.9814
 3640TIP3    H210843   1.340   4.685   3.458  0.3632 -0.7201  1.2005
 3641TIP3   OH210844   0.335   3.246   1.985  0.2834  0.0243 -0.1742
 3641TIP3    H110845   0.331   3.263   2.079 -5.1909 -0.1850 -0.2401
 3641TIP3    H210846   0.321   3.331   1.945 -1.0607 -0.4656 -0.7539
 3642TIP3   OH210847   2.437   4.834   2.234 -0.5070 -0.1852 -0.3071
 3642TIP3    H110848   2.381   4.781   2.290  0.3154  0.0969  0.8007
 3642TIP3    H210849   2.376   4.893   2.189 -1.3169 -1.3394 -0.7766
 3643TIP3   OH210850   2.872   3.905   3.775  0.1750 -0.2351  0.1479
 3643TIP3    H110851   2.827   3.821   3.767 -0.1391  0.0024 -0.5096
 3643TIP3    H210852   2.825   3.964   3.717  1.5938 -0.0977 -0.8899
 3644TIP3   OH210853   7.845   2.038   7.255  0.9496 -0.1472 -0.5482
 3644TIP3    H110854   7.858   2.032   7.160  0.9661  1.7086 -0.6805
 3644TIP3    H210855   7.761   1.995   7.270  0.3637  0.5857 -1.5805
 3645TIP3   OH210856   2.143   3.929   4.212  0.1102 -0.2918 -0.1734
 3645TIP3    H110857   2.154   3.900   4.121 -0.2858 -0.1425 -0.2719
 3645TIP3    H210858   2.184   4.016   4.214  1.3846 -0.9044  0.1458
 3646TIP3   OH210859   4.415   4.829   3.820 -0.0835 -0.7524  0.6220
 3646TIP3    H110860   4.354   4.821   3.747 -0.4047  1.1617  0.6635
 3646TIP3    H210861   4.456   4.743   3.826 -0.8898 -1.2792 -1.0751
 3647TIP3   OH210862   3.778   1.728   1.150  0.2493 -0.2165  0.0105
 3647TIP3    H110863   3.707   1.772   1.103  0.2721 -0.0922  0.0923
 3647TIP3    H210864   3.857   1.773   1.122  0.0949  0.9849  1.4783
 3648TIP3   OH210865   0.274   5.339   3.732  0.8365  0.0355  0.9021
 3648TIP3    H110866   0.323   5.349   3.650  1.4500 -0.3578  1.2076
 3648TIP3    H210867   0.290   5.420   3.780  2.0957 -0.5235  1.4617
 3649TIP3   OH210868   3.671   4.596   5.017  0.0888 -0.3782 -0.6039
 3649TIP3    H110869   3.715   4.672   4.979  1.2999 -0.5885  0.3555
 3649TIP3    H210870   3.578   4.609   4.996  0.5837  0.0556 -2.6939
 3650TIP3   OH210871   2.252   6.738   3.925 -0.4500 -0.7840 -0.3481
 3650TIP3    H110872   2.189   6.789   3.976  1.4062  0.5332  0.6732
 3650TIP3    H210873   2.236   6.764   3.835 -1.5672 -0.7092 -0.1445
 3651TIP3   OH210874   3.058   4.074   2.816  0.6945 -0.4841 -0.4378
 3651TIP3    H110875   3.040   4.135   2.744  2.5861  2.3503  1.4228
 3651TIP3    H210876   3.145   4.040   2.798  0.2747 -1.4666 -0.6371
 3652TIP3   OH210877   0.083   4.057   4.757 -0.1466 -0.0600  0.1482
 3652TIP3    H110878  -0.002   4.021   4.784 -0.6159  0.9288  0.0324
 3652TIP3    H210879   0.078   4.061   4.661  0.9209 -2.1324 -0.0054
 3653TIP3   OH210880   2.078   4.702   1.531  0.2786 -0.0204  0.5705
 3653TIP3    H110881   2.089   4.639   1.460 -4.1306 -4.0222  3.1205
 3653TIP3    H210882   2.025   4.772   1.493  0.4258 -0.6610 -0.8454
 3654TIP3   OH210883   8.832   3.399   2.773 -0.6386 -0.5249 -0.3298
 3654TIP3    H110884   8.798   3.418   2.685  1.6521 -1.2940 -1.4356
 3654TIP3    H210885   8.756   3.403   2.830 -2.6216 -2.3104 -2.7233
 3655TIP3   OH210886   2.596   3.069   3.834  0.0550 -1.0371  0.2412
 3655TIP3    H110887   2.665   3.124   3.870 -0.0347 -0.2762 -0.7272
 3655TIP3    H210888   2.612   3.069   3.740 -1.4370 -0.6130 -0.0221
 3656TIP3   OH210889   1.978   3.543   4.311 -0.1661  0.4263  0.1659
 3656TIP3    H110890   1.905   3.599   4.338  0.3443  2.5716 -2.5583
 3656TIP3    H210891   1.947   3.499   4.233  0.4820 -0.8305  0.6114
 3657TIP3   OH210892   4.122   3.276   2.638 -0.0702 -0.5820 -0.0921
 3657TIP3    H110893   4.159   3.363   2.623 -1.3471 -0.0937 -0.5335
 3657TIP3    H210894   4.191   3.227   2.683  1.0247  0.3428 -0.7510
 3658TIP3   OH210895   0.771   2.720   3.118  0.2680 -0.2741 -0.1462
 3658TIP3    H110896   0.702   2.661   3.147  0.6250 -1.1787 -1.1027
 3658TIP3    H210897   0.841   2.708   3.182  0.2958 -0.8105 -0.2763
 3659TIP3   OH210898   3.225   2.628   1.733 -0.3572  0.7137 -0.4706
 3659TIP3    H110899   3.190   2.618   1.645  0.2421 -0.7008 -0.5631
 3659TIP3    H210900   3.247   2.539   1.761  0.3811  1.2500  0.7271
 3660TIP3   OH210901   5.176   4.031   2.891 -0.0014 -0.4366  0.1820
 3660TIP3    H110902   5.169   4.122   2.864  1.3511  0.3374  2.3564
 3660TIP3    H210903   5.088   3.995   2.877 -1.0966  1.7484  1.2501
 3661TIP3   OH210904   4.135   2.270   5.091 -0.1849  0.1170  0.5837
 3661TIP3    H110905   4.149   2.203   5.025  0.3808  1.6587 -0.9081
 3661TIP3    H210906   4.039   2.279   5.097 -0.2296  1.2653 -1.4114
 3662TIP3   OH210907   4.147   3.768   4.755 -0.2940 -0.1444  0.3585
 3662TIP3    H110908   4.206   3.693   4.752 -0.1030  0.0135  0.1551
 3662TIP3    H210909   4.175   3.823   4.682 -0.9179 -0.2433  0.0402
 3663TIP3   OH210910   1.067   0.713   4.406  0.1074 -0.6243 -0.1671
 3663TIP3    H110911   0.992   0.664   4.371 -1.0545  0.5191  0.6773
 3663TIP3    H210912   1.129   0.645   4.433  0.3064 -1.5558 -2.8046
 3664TIP3   OH210913   8.788   2.962   5.798 -0.0234 -0.2416  0.5065
 3664TIP3    H110914   8.764   2.906   5.872 -1.5011  0.5138  0.6150
 3664TIP3    H210915   8.720   2.944   5.732  0.1182  0.6204  0.1302
 3665TIP3   OH210916   1.834   3.560   5.070  0.3884  0.5366  1.0576
 3665TIP3    H110917   1.842   3.542   4.977  0.7973 -1.2549  1.4112
 3665TIP3    H210918   1.914   3.607   5.093 -0.0798  1.6751  0.3505
 3666TIP3   OH210919   2.364   4.442   2.142  0.6831 -0.2380  0.1418
 3666TIP3    H110920   2.315   4.360   2.131  1.9835 -1.3484  2.1766
 3666TIP3    H210921   2.297   4.507   2.160 -0.2272 -1.2866  0.6473
 3667TIP3   OH210922   4.332   3.593   2.116  0.2044  0.0424 -0.0011
 3667TIP3    H110923   4.368   3.596   2.205  0.4064 -0.0849 -0.0793
 3667TIP3    H210924   4.270   3.666   2.113  0.8140  0.5729 -0.0148
 3668TIP3   OH210925   8.049   3.073   2.563 -0.0384 -0.7808  0.3862
 3668TIP3    H110926   8.145   3.078   2.568 -0.0151 -0.6771 -0.0966
 3668TIP3    H210927   8.033   3.028   2.479 -0.4573  1.2634 -0.6548
 3669TIP3   OH210928   2.777   5.526   2.742  0.0441  0.1330  0.1315
 3669TIP3    H110929   2.817   5.543   2.657  0.6341  0.5628  0.4940
 3669TIP3    H210930   2.792   5.433   2.758  0.6449  0.2255  0.1282
 3670TIP3   OH210931   0.219   3.686   5.322  0.9945  0.3099  0.2678
 3670TIP3    H110932   0.151   3.623   5.346  0.6890  0.1530 -0.9342
 3670TIP3    H210933   0.295   3.660   5.373  0.6102 -0.4998  0.4383
 3671TIP3   OH210934   1.390   5.179   4.220  0.1210 -0.4497  0.2932
 3671TIP3    H110935   1.376   5.086   4.201 -0.2849 -0.2547 -0.4029
 3671TIP3    H210936   1.475   5.182   4.263 -0.2526 -1.2373  1.0999
 3672TIP3   OH210937   3.299   2.355   2.800 -0.3089 -0.1961 -0.5836
 3672TIP3    H110938   3.308   2.277   2.745 -0.7210 -0.2343 -0.5993
 3672TIP3    H210939   3.249   2.416   2.746  0.3705  0.2377 -0.7316
 3673TIP3   OH210940   2.264   2.212   4.407  0.0188 -0.3594  0.0527
 3673TIP3    H110941   2.305   2.298   4.402  0.1418 -0.4036  0.3262
 3673TIP3    H210942   2.213   2.205   4.326 -0.2098  0.0792  0.1604
 3674TIP3   OH210943   1.965   4.115   3.310  0.0359 -0.0623  0.2480
 3674TIP3    H110944   1.939   4.196   3.265 -1.7211 -0.4620  0.4946
 3674TIP3    H210945   1.885   4.087   3.355  0.8456 -1.5278  0.7850
 3675TIP3   OH210946   1.698   4.896   2.799  0.3497 -0.0147 -0.3121
 3675TIP3    H110947   1.735   4.836   2.863 -0.8116 -0.1637  0.2443
 3675TIP3    H210948   1.668   4.971   2.851  0.3041  0.3102 -0.8003
 3676TIP3   OH210949   1.276   5.056   3.367 -0.1121  0.7123 -0.2063
 3676TIP3    H110950   1.310   4.981   3.318 -0.8890  1.1137 -1.3794
 3676TIP3    H210951   1.188   5.030   3.393 -0.4925  1.3242 -0.8666
 3677TIP3   OH210952   2.245   4.945   2.680 -0.2773  0.4591 -0.1041
 3677TIP3    H110953   2.268   4.854   2.698  1.1860  0.7739 -0.3011
 3677TIP3    H210954   2.224   4.982   2.766  0.5720  0.3226  0.1625
 3678TIP3   OH210955   1.595   2.175   3.112 -0.3468 -0.3883  0.3026
 3678TIP3    H110956   1.623   2.132   3.031 -0.6131 -0.8522  0.4562
 3678TIP3    H210957   1.555   2.105   3.163 -1.4985  0.2013  0.2258
 3679TIP3   OH210958   0.891   4.926   2.596 -0.2258  0.5188 -0.6078
 3679TIP3    H110959   0.892   4.981   2.674 -0.9390  0.5900 -0.6473
 3679TIP3    H210960   0.903   4.987   2.524 -0.9846  0.6191 -0.6497
 3680TIP3   OH210961   1.332   2.879   3.198  0.3132 -0.1976 -0.2156
 3680TIP3    H110962   1.267   2.860   3.131  0.5575 -0.8895 -0.2554
 3680TIP3    H210963   1.331   2.803   3.255  0.5779  0.1022  0.1924
 3681TIP3   OH210964   3.381   4.624   1.503  0.5313 -0.0611 -0.1085
 3681TIP3    H110965   3.418   4.548   1.549  0.1111  0.5055  1.1665
 3681TIP3    H210966   3.367   4.592   1.414 -0.8987 -1.9170  0.7370
 3682TIP3   OH210967   2.021   5.739   3.071  0.0760 -0.2584 -0.3915
 3682TIP3    H110968   1.943   5.734   3.015 -0.5850  1.5745  0.3286
 3682TIP3    H210969   1.996   5.695   3.152 -0.3316  0.5936 -0.0463
 3683TIP3   OH210970   2.457   2.529   4.544  0.1427  0.0386  0.5359
 3683TIP3    H110971   2.404   2.521   4.624 -2.2027 -2.0039 -1.1373
 3683TIP3    H210972   2.393   2.541   4.474  2.0583 -0.2255 -1.3126
 3684TIP3   OH210973   4.422   2.371   6.580  0.3001  0.5024  0.1432
 3684TIP3    H110974   4.516   2.385   6.596  0.5042  1.0041 -1.4489
 3684TIP3    H210975   4.414   2.276   6.568  0.3315  0.2542  1.8930
 3685TIP3   OH210976   3.844   3.020   1.683 -0.1840  0.4712 -0.0671
 3685TIP3    H110977   3.774   2.962   1.655 -0.2592  1.7267 -2.5594
 3685TIP3    H210978   3.913   2.960   1.713 -1.9134 -0.7825  1.5353
 3686TIP3   OH210979   3.103   1.837   2.718  0.0996  0.1270  0.1784
 3686TIP3    H110980   3.192   1.871   2.725  1.0083 -1.8367 -1.3489
 3686TIP3    H210981   3.055   1.904   2.670  1.6092 -0.2316 -1.9169
 3687TIP3   OH210982   2.180   1.778   4.050 -0.5116  0.6747  0.0563
 3687TIP3    H110983   2.167   1.739   3.963  0.6685  0.7821 -0.1734
 3687TIP3    H210984   2.231   1.857   4.033 -0.8739  1.0676  0.7844
 3688TIP3   OH210985   1.733   6.068   3.497 -0.3896  0.2149 -0.2510
 3688TIP3    H110986   1.642   6.082   3.472 -0.2662  0.6832 -0.4503
 3688TIP3    H210987   1.759   6.151   3.539 -0.4221 -0.3498  0.9184
 3689TIP3   OH210988   0.686   3.903   2.901  0.2130  0.2769 -0.2360
 3689TIP3    H110989   0.763   3.908   2.958  0.3245 -1.7801 -0.1584
 3689TIP3    H210990   0.713   3.945   2.820  0.8565  1.0550  0.3686
 3690TIP3   OH210991   3.389   2.421   3.784 -0.0998 -0.2906  0.0882
 3690TIP3    H110992   3.435   2.472   3.850  1.4823 -3.0265  1.1918
 3690TIP3    H210993   3.436   2.438   3.702 -0.2529  0.8312  0.2354
 3691TIP3   OH210994   0.154   2.291   3.423  0.5349  0.3872 -0.4756
 3691TIP3    H110995   0.150   2.301   3.518 -0.2861  1.0392 -0.5713
 3691TIP3    H210996   0.238   2.248   3.407  0.5104 -0.0643  0.5691
 3692TIP3   OH210997   2.140   1.954   0.810 -0.5363 -0.0970 -0.5171
 3692TIP3    H110998   2.135   1.910   0.725 -0.0292  0.5711 -0.9003
 3692TIP3    H210999   2.225   1.928   0.845 -1.1423 -1.1118  0.2010
 3693TIP3   OH211000   2.376   0.841   1.630 -0.1538  0.4000  0.3649
 3693TIP3    H111001   2.305   0.808   1.576  0.1527 -0.5825  0.5630
 3693TIP3    H211002   2.428   0.764   1.653  0.7425  1.0424  0.5644
 3694TIP3   OH211003   6.054   2.528   3.948  0.0209 -0.5006 -0.6618
 3694TIP3    H111004   6.094   2.532   4.035  1.1192  0.3741 -1.1981
 3694TIP3    H211005   6.085   2.445   3.911  0.6673 -0.2240 -0.7478
 3695TIP3   OH211006   2.481   4.397   2.885 -0.2436  0.0505 -0.4657
 3695TIP3    H111007   2.572   4.378   2.863 -0.5523 -1.7430 -0.2995
 3695TIP3    H211008   2.486   4.450   2.965  0.6844  1.2671 -1.3265
 3696TIP3   OH211009   1.236   2.240   4.784  0.0531 -0.1423 -0.3446
 3696TIP3    H111010   1.223   2.241   4.689  1.5834 -1.4075 -0.5853
 3696TIP3    H211011   1.178   2.171   4.816  0.6078 -0.6944 -0.5305
 3697TIP3   OH211012   1.394   4.640   3.776 -0.0489 -0.2160 -0.5399
 3697TIP3    H111013   1.415   4.700   3.847 -1.1576  1.6266 -1.7107
 3697TIP3    H211014   1.341   4.572   3.817  0.7443 -0.0848  0.7104
 3698TIP3   OH211015   1.399   4.887   1.491  0.5897  0.2604  0.2423
 3698TIP3    H111016   1.333   4.835   1.537 -1.1717  0.5670 -1.8800
 3698TIP3    H211017   1.480   4.837   1.501 -0.3539 -1.0861  1.2719
 3699TIP3   OH211018   2.844   0.899   4.972 -0.3612 -0.0227 -0.4384
 3699TIP3    H111019   2.788   0.922   5.046  0.4408  0.4267  0.0428
 3699TIP3    H211020   2.784   0.869   4.904 -1.1355 -0.0688  0.2595
 3700TIP3   OH211021   1.228   8.218   2.404 -0.5092 -0.6097  0.3169
 3700TIP3    H111022   1.304   8.273   2.386 -1.6487  1.0491  0.5304
 3700TIP3    H211023   1.186   8.205   2.319 -1.8459  1.2570  0.6646
 3701TIP3   OH211024   1.505   4.943   1.947 -0.0104 -0.0546 -0.4681
 3701TIP3    H111025   1.441   4.880   1.915 -0.1431 -0.6171  0.8501
 3701TIP3    H211026   1.575   4.942   1.882 -0.2019 -1.2563 -0.6670
 3702TIP3   OH211027   4.163   3.115   1.857 -0.5974  0.6521 -0.5729
 3702TIP3    H111028   4.105   3.061   1.911  0.2547 -0.3722 -0.6653
 3702TIP3    H211029   4.223   3.156   1.919 -0.2583  0.2691 -0.6475
 3703TIP3   OH211030   6.364   5.459   2.911 -0.3100 -0.3094 -0.3709
 3703TIP3    H111031   6.457   5.444   2.927 -0.3611  0.0609  0.2642
 3703TIP3    H211032   6.351   5.552   2.925 -0.6899 -0.2701 -0.9331
 3704TIP3   OH211033   3.647   3.179   3.914 -0.3291  0.4978 -0.1981
 3704TIP3    H111034   3.709   3.115   3.881  0.3153  1.4523 -0.8438
 3704TIP3    H211035   3.587   3.128   3.969 -0.9227 -0.9579 -2.1565
 3705TIP3   OH211036   5.651   4.774   1.772 -0.3733  0.2538  0.2848
 3705TIP3    H111037   5.581   4.711   1.756 -1.7102  1.3340  1.7469
 3705TIP3    H211038   5.715   4.727   1.826 -0.3683 -0.4743 -0.3516
 3706TIP3   OH211039   3.967   3.135   3.679  0.4765 -0.7930 -0.1833
 3706TIP3    H111040   3.917   3.097   3.751  1.8719 -1.2962  0.5328
 3706TIP3    H211041   3.910   3.126   3.603  0.5160 -3.7382  0.0897
 3707TIP3   OH211042   0.261   3.038   3.759 -0.2702 -0.2812 -0.2071
 3707TIP3    H111043   0.170   3.066   3.767  0.6829  2.8422  0.6535
 3707TIP3    H211044   0.264   2.950   3.797 -3.2638 -1.2274 -2.0347
 3708TIP3   OH211045   2.273   5.200   1.218 -0.1296 -0.1969  0.1281
 3708TIP3    H111046   2.353   5.188   1.168 -0.0935  0.2969  0.0640
 3708TIP3    H211047   2.233   5.279   1.182 -0.2104  0.0433  0.7360
 3709TIP3   OH211048   3.876   3.294   1.174  0.0175  0.0112 -0.2915
 3709TIP3    H111049   3.822   3.356   1.127  0.6287  0.7138 -0.0708
 3709TIP3    H211050   3.938   3.348   1.223  0.1850 -0.7467  0.3462
 3710TIP3   OH211051   4.935   1.347   3.836 -0.3642  0.3153 -0.3034
 3710TIP3    H111052   5.020   1.305   3.825 -0.2909  1.3031 -4.1942
 3710TIP3    H211053   4.932   1.371   3.928  3.0400 -0.8259  0.1740
 3711TIP3   OH211054   4.554   4.428   3.074 -0.4266  0.7761 -0.1072
 3711TIP3    H111055   4.614   4.503   3.075  1.4007 -0.6573  0.4018
 3711TIP3    H211056   4.609   4.353   3.099 -2.4128 -0.5945  0.2393
 3712TIP3   OH211057   3.600   1.895   2.602 -0.0848 -0.3113  0.1484
 3712TIP3    H111058   3.676   1.868   2.653 -0.2735  1.7114  1.5750
 3712TIP3    H211059   3.611   1.990   2.593 -1.5006 -0.2673 -1.2117
 3713TIP3   OH211060   5.126   3.008   2.790 -0.8015 -0.2412 -0.4928
 3713TIP3    H111061   5.037   3.017   2.824 -0.0380 -0.4356  1.6625
 3713TIP3    H211062   5.174   3.081   2.830  0.5598 -1.5839  0.3772
 3714TIP3   OH211063   4.988   3.588   2.143 -0.0171 -0.3980 -0.0044
 3714TIP3    H111064   5.008   3.545   2.226 -0.5635  1.0612  0.8918
 3714TIP3    H211065   4.921   3.652   2.164 -0.4657 -0.2889 -1.6566
 3715TIP3   OH211066   2.295   4.331   2.686  0.8027 -0.2435  0.2003
 3715TIP3    H111067   2.338   4.276   2.621  0.7297 -1.5083  1.2015
 3715TIP3    H211068   2.365   4.355   2.747  0.6653  0.0729  0.2327
 3716TIP3   OH211069   6.583   5.252   3.930  0.2705  0.3680 -0.3676
 3716TIP3    H111070   6.599   5.158   3.927  0.0945  0.3179  0.2088
 3716TIP3    H211071   6.488   5.260   3.930  0.2715  0.5007  0.6461
 3717TIP3   OH211072   2.117   3.907   5.240 -0.2461 -0.0303  0.4106
 3717TIP3    H111073   2.039   3.930   5.291  0.7715  1.3375  1.4018
 3717TIP3    H211074   2.146   3.991   5.203  1.0107 -0.4602  0.4231
 3718TIP3   OH211075   3.195   3.326   4.157 -0.4212 -0.3390 -0.1688
 3718TIP3    H111076   3.124   3.369   4.206  0.2147  3.2719 -2.2393
 3718TIP3    H211077   3.160   3.313   4.069  0.9949  0.1904 -0.8262
 3719TIP3   OH211078   0.991   3.390   2.792  0.0275 -0.4869  0.3706
 3719TIP3    H111079   0.905   3.377   2.831 -0.8556  0.6025 -1.1369
 3719TIP3    H211080   1.052   3.390   2.866 -0.9146 -4.0418  1.2044
 3720TIP3   OH211081   4.772   2.687   2.555 -0.4050 -0.1830 -0.8069
 3720TIP3    H111082   4.765   2.707   2.648  3.6255 -1.2865 -0.1357
 3720TIP3    H211083   4.760   2.592   2.550  0.2122 -0.2459 -1.2489
 3721TIP3   OH211084   4.257   4.308   2.274  0.2274  0.3855  0.3113
 3721TIP3    H111085   4.327   4.245   2.290  0.4263  0.6273  0.3774
 3721TIP3    H211086   4.238   4.299   2.180 -0.1373 -0.1819  0.4328
 3722TIP3   OH211087   2.594   4.876   1.867  0.2239  0.2236 -0.0160
 3722TIP3    H111088   2.554   4.795   1.900 -0.1256  1.0636  1.7257
 3722TIP3    H211089   2.682   4.875   1.905  0.3566  0.4658 -0.3229
 3723TIP3   OH211090   5.260   2.986   1.938 -0.3871  0.6802 -0.0352
 3723TIP3    H111091   5.303   2.900   1.935 -0.7601  0.4856  0.1160
 3723TIP3    H211092   5.332   3.049   1.938 -0.1357  0.4412 -2.3037
 3724TIP3   OH211093   0.467   1.724   6.713 -0.0227  0.4978 -0.5318
 3724TIP3    H111094   0.533   1.734   6.782 -0.0348  0.4975 -0.5204
 3724TIP3    H211095   0.385   1.752   6.754  0.1085  1.2682 -0.7867
 3725TIP3   OH211096   5.256   3.820   3.335 -0.0424 -0.3409  0.0186
 3725TIP3    H111097   5.253   3.771   3.253  1.2914  0.7737 -0.7258
 3725TIP3    H211098   5.235   3.756   3.402 -1.8274 -1.1118 -1.2535
 3726TIP3   OH211099   4.779   3.973   3.267 -0.0128 -0.2808 -0.4421
 3726TIP3    H111100   4.777   3.944   3.359  0.3906 -2.7326 -1.1666
 3726TIP3    H211101   4.724   3.909   3.221  2.8089 -1.3599 -2.4788
 3727TIP3   OH211102   3.822   4.098   3.619 -0.0704  0.2854  0.6595
 3727TIP3    H111103   3.791   4.068   3.705 -0.7390 -1.9758 -0.3195
 3727TIP3    H211104   3.812   4.021   3.562  1.0937  1.5158 -1.2637
 3728TIP3   OH211105   4.413   2.825   1.493  0.1332  0.0375 -0.0162
 3728TIP3    H111106   4.346   2.760   1.470  0.6992 -0.9151  0.9729
 3728TIP3    H211107   4.492   2.795   1.448 -0.0409  1.0401 -1.0062
 3729TIP3   OH211108   2.970   3.646   1.707 -0.5697  0.5108  0.4856
 3729TIP3    H111109   2.922   3.656   1.789 -1.9178  1.8263 -0.4433
 3729TIP3    H211110   2.957   3.555   1.683 -1.3437  0.4740  1.0125
 3730TIP3   OH211111   1.590   3.494   2.791  0.3759 -0.1584 -0.7519
 3730TIP3    H111112   1.642   3.503   2.871  5.1484  0.5479 -3.6776
 3730TIP3    H211113   1.549   3.579   2.778  0.7970  0.1806  0.1556
 3731TIP3   OH211114   3.614   3.988   2.000  0.2623  0.5526  0.2871
 3731TIP3    H111115   3.645   3.906   2.040 -1.1398 -0.7261 -1.2042
 3731TIP3    H211116   3.682   4.010   1.937  0.0968 -0.0833 -0.1207
 3732TIP3   OH211117   3.822   4.186   2.916  0.0226  0.0792  0.5236
 3732TIP3    H111118   3.795   4.261   2.863 -1.0282  0.2122  1.2438
 3732TIP3    H211119   3.918   4.186   2.910 -0.0646  0.3087 -1.0694
 3733TIP3   OH211120   1.981   5.527   3.585  0.2440  0.2452 -0.2493
 3733TIP3    H111121   1.906   5.585   3.589  0.7311  1.0730 -2.4845
 3733TIP3    H211122   1.950   5.450   3.538  0.9376  0.8914 -1.8204
 3734TIP3   OH211123   5.647   4.986   3.581  0.4327  0.1855 -0.3903
 3734TIP3    H111124   5.602   5.030   3.653 -0.1407 -0.8258 -0.1237
 3734TIP3    H211125   5.686   4.908   3.621  0.7675  0.0311 -1.0175
 3735TIP3   OH211126   2.522   5.063   0.268 -0.2746 -0.3035  0.7635
 3735TIP3    H111127   2.465   5.079   0.192 -0.1041  0.8734  0.8798
 3735TIP3    H211128   2.581   5.139   0.271  0.7696 -1.1132  1.1307
 3736TIP3   OH211129   3.028   5.788   2.623  0.5292  0.1419 -0.0218
 3736TIP3    H111130   3.006   5.711   2.571  1.9861 -0.2532 -0.0502
 3736TIP3    H211131   3.053   5.753   2.708  2.3184  0.4815 -0.3865
 3737TIP3   OH211132   5.053   4.209   5.157  0.1153  0.1957  0.2237
 3737TIP3    H111133   5.006   4.280   5.114 -0.0699  0.1037  0.2728
 3737TIP3    H211134   4.992   4.175   5.222 -0.1305 -0.5848 -0.4018
 3738TIP3   OH211135   2.871   4.992   4.409  0.0704  0.3263 -0.3475
 3738TIP3    H111136   2.801   5.029   4.463 -0.4376  0.3565 -1.0252
 3738TIP3    H211137   2.941   5.057   4.413  1.0503 -0.8129  2.3499
 3739TIP3   OH211138   4.160   5.434   4.398 -0.4229  0.0694  0.7194
 3739TIP3    H111139   4.133   5.351   4.435 -1.1106  0.2373  0.6063
 3739TIP3    H211140   4.078   5.481   4.382 -0.0107  1.0076  1.3472
 3740TIP3   OH211141   2.504   4.996   1.382 -0.0002  0.2387  0.8147
 3740TIP3    H111142   2.435   4.954   1.433  0.8119 -2.4757 -0.2562
 3740TIP3    H211143   2.582   4.988   1.436 -0.0268  1.2242  1.0066
 3741TIP3   OH211144   3.744   5.601   5.290  0.0557 -0.4314  0.5978
 3741TIP3    H111145   3.830   5.574   5.259  0.1615  0.6441 -0.0460
 3741TIP3    H211146   3.743   5.577   5.383  0.4615 -1.8625  0.2468
 3742TIP3   OH211147   2.565   6.050   2.202  1.0419 -0.0032 -0.0270
 3742TIP3    H111148   2.548   6.142   2.181  1.3069  0.1581  0.4653
 3742TIP3    H211149   2.542   6.003   2.122  0.4078  0.4365 -0.1048
 3743TIP3   OH211150   1.228   6.246   3.207  0.3962  0.4185 -0.0987
 3743TIP3    H111151   1.136   6.249   3.180  0.3866 -1.6568 -0.4304
 3743TIP3    H211152   1.225   6.246   3.302  0.0518  0.5822 -0.1069
 3744TIP3   OH211153   5.322   4.171   2.046 -0.8200 -0.4528 -0.5153
 3744TIP3    H111154   5.263   4.186   1.972  0.3431 -1.4734 -1.6795
 3744TIP3    H211155   5.327   4.076   2.053 -0.0923 -0.3655  0.1927
 3745TIP3   OH211156   3.010   3.505   2.262 -0.2482 -0.2274  0.2543
 3745TIP3    H111157   2.922   3.541   2.250 -0.1410 -0.5740 -1.5856
 3745TIP3    H211158   3.069   3.574   2.232  0.0611 -0.7161 -0.2603
 3746TIP3   OH211159   5.642   3.130   1.706  0.8550 -0.2285 -0.1930
 3746TIP3    H111160   5.657   3.037   1.725  1.2867 -0.1583 -0.1767
 3746TIP3    H211161   5.730   3.165   1.688  0.6659  0.1235 -0.4355
 3747TIP3   OH211162   5.663   5.089   1.825  0.6011 -1.0653  0.0096
 3747TIP3    H111163   5.752   5.109   1.855  0.7921 -1.0699 -0.5431
 3747TIP3    H211164   5.668   4.999   1.794  0.8659 -0.4783 -1.7275
 3748TIP3   OH211165   4.938   4.283   3.464 -0.0673  0.7599  0.0163
 3748TIP3    H111166   4.854   4.299   3.422 -1.2145 -1.0532  1.5176
 3748TIP3    H211167   4.985   4.225   3.404 -1.0488 -0.5114  0.4509
 3749TIP3   OH211168   4.344   4.459   4.086  0.0224 -0.2363 -0.0566
 3749TIP3    H111169   4.383   4.485   4.170 -0.8998 -2.0095  0.9676
 3749TIP3    H211170   4.262   4.508   4.081 -0.4359 -0.9083  0.6151
 3750TIP3   OH211171   2.776   5.224   1.837 -0.1125 -0.0988  0.4894
 3750TIP3    H111172   2.685   5.208   1.861 -0.5031 -0.8197 -1.3576
 3750TIP3    H211173   2.808   5.138   1.808  1.4349 -0.0516  1.9733
 3751TIP3   OH211174   4.052   3.418   4.552  0.1809 -0.3366 -0.0547
 3751TIP3    H111175   4.052   3.424   4.648 -0.3025  0.3357 -0.0943
 3751TIP3    H211176   3.989   3.484   4.524  0.8000 -0.0865 -0.8685
 3752TIP3   OH211177   2.733   3.576   0.777 -0.5182  0.3544  0.4816
 3752TIP3    H111178   2.791   3.541   0.845 -0.2721  0.0049  0.0934
 3752TIP3    H211179   2.653   3.525   0.785  0.6201 -1.8673 -1.5326
 3753TIP3   OH211180   3.627   4.172   0.871 -0.5376  0.1730 -0.1155
 3753TIP3    H111181   3.681   4.114   0.816 -0.1305  0.7484 -0.3234
 3753TIP3    H211182   3.549   4.120   0.891 -0.5139 -0.1814 -0.9167
 3754TIP3   OH211183   4.946   2.817   1.820 -0.2009  0.3767 -0.4265
 3754TIP3    H111184   4.918   2.745   1.876 -0.4253 -0.1662 -1.2215
 3754TIP3    H211185   4.891   2.891   1.847 -0.5819  0.0153 -0.2029
 3755TIP3   OH211186   5.138   6.500   1.207 -0.5460  0.2159 -0.0070
 3755TIP3    H111187   5.061   6.443   1.199 -0.0996 -0.4070  0.1408
 3755TIP3    H211188   5.159   6.499   1.301  0.9528 -1.3394 -0.3454
 3756TIP3   OH211189   3.613   3.123   0.433  0.0904  0.1799 -0.4556
 3756TIP3    H111190   3.687   3.070   0.464 -0.6822 -0.9396 -0.5080
 3756TIP3    H211191   3.573   3.071   0.364 -0.2396  1.1695 -1.0168
 3757TIP3   OH211192   2.770   4.213   3.910  0.0608 -0.1243 -0.0952
 3757TIP3    H111193   2.857   4.188   3.879 -0.2506 -1.1164 -0.1776
 3757TIP3    H211194   2.717   4.134   3.901 -0.4828  0.0492  1.3339
 3758TIP3   OH211195   5.633   2.438   3.420  0.5446 -0.4445  0.7676
 3758TIP3    H111196   5.723   2.407   3.405 -0.3189 -3.0387  0.6992
 3758TIP3    H211197   5.591   2.367   3.468 -1.8765  0.1587 -0.3897
 3759TIP3   OH211198   4.600   3.766   3.251 -0.2028 -0.2686  0.4487
 3759TIP3    H111199   4.557   3.808   3.176  0.5758  0.3965  0.3694
 3759TIP3    H211200   4.591   3.672   3.234 -1.6586 -0.1486  0.4551
 3760TIP3   OH211201   4.505   4.715   1.769 -0.8454  0.1625  0.3113
 3760TIP3    H111202   4.595   4.705   1.802 -1.5575 -2.3803  1.5442
 3760TIP3    H211203   4.488   4.634   1.721 -2.4005  0.7616 -0.1565
 3761TIP3   OH211204   2.716   2.965   1.497 -0.3269  0.5171  0.8113
 3761TIP3    H111205   2.648   2.986   1.433  0.4592  0.7853  0.0641
 3761TIP3    H211206   2.762   3.048   1.511 -0.3637  0.4120  1.5720
 3762TIP3   OH211207   4.152   3.777   3.437 -0.4581 -0.3500  0.2314
 3762TIP3    H111208   4.230   3.798   3.488  0.5228 -0.6120 -1.1550
 3762TIP3    H211209   4.115   3.863   3.413  0.0348 -0.2322 -0.0942
 3763TIP3   OH211210   3.912   2.777   1.933 -0.1525 -0.4266 -0.3640
 3763TIP3    H111211   3.930   2.869   1.956 -1.2588 -0.2607 -0.1357
 3763TIP3    H211212   3.958   2.726   2.000  0.4629 -0.0475 -0.4856
 3764TIP3   OH211213   3.234   2.943   4.342 -0.0310 -0.2679 -0.8980
 3764TIP3    H111214   3.306   2.893   4.303  1.1297  1.5806 -1.2248
 3764TIP3    H211215   3.175   2.961   4.269  0.0363 -0.3665 -0.9761
 3765TIP3   OH211216   6.212   2.310   2.163 -0.0391 -0.2228  0.8768
 3765TIP3    H111217   6.191   2.244   2.097 -1.0847 -0.1734  1.1526
 3765TIP3    H211218   6.195   2.394   2.120 -0.8331 -0.1928  1.2408
 3766TIP3   OH211219   5.293   3.772   2.946 -0.1574  0.6475  0.1906
 3766TIP3    H111220   5.249   3.856   2.934  1.1311  0.9432 -2.9108
 3766TIP3    H211221   5.225   3.707   2.924  0.1823  1.0364 -2.1131
 3767TIP3   OH211222   4.964   1.411   1.510 -0.3230  0.5669 -0.2203
 3767TIP3    H111223   5.055   1.441   1.507 -0.1768  0.2071  0.5318
 3767TIP3    H211224   4.926   1.443   1.428  0.8999 -0.6581 -1.3049
 3768TIP3   OH211225   4.099   4.183   2.923 -0.7171  0.6850  0.5001
 3768TIP3    H111226   4.149   4.221   2.851  1.9354  0.2013  2.0139
 3768TIP3    H211227   4.148   4.206   3.002 -1.8863 -1.3886  1.9066
 3769TIP3   OH211228   2.923   2.025   1.958 -0.4321 -0.4001  0.0921
 3769TIP3    H111229   2.916   1.930   1.965  0.2886 -0.3949  1.1476
 3769TIP3    H211230   3.004   2.046   2.005  0.5884  0.5321 -2.0333
 3770TIP3   OH211231   3.469   2.968   3.923  0.0704 -0.3894  0.3329
 3770TIP3    H111232   3.485   2.912   3.999 -2.4076 -0.1874  1.0416
 3770TIP3    H211233   3.442   2.908   3.854 -1.1897 -0.2033  0.6682
 3771TIP3   OH211234   4.805   2.739   2.833  0.3395  0.6123  0.3466
 3771TIP3    H111235   4.769   2.703   2.914  1.6733  2.1763  1.6838
 3771TIP3    H211236   4.807   2.834   2.848  2.2103  0.7867 -0.8187
 3772TIP3   OH211237   2.590   3.391   1.833 -0.3418 -0.3433  0.3164
 3772TIP3    H111238   2.577   3.317   1.774  2.7163 -0.4602 -0.2684
 3772TIP3    H211239   2.552   3.362   1.916 -0.6171 -1.9279 -0.3514
 3773TIP3   OH211240   5.291   3.122   1.525 -0.1641  0.2082  0.4503
 3773TIP3    H111241   5.276   3.215   1.538  0.8370  0.2210  1.5200
 3773TIP3    H211242   5.291   3.084   1.613 -2.2190 -1.0690 -0.0563
 3774TIP3   OH211243   2.816   3.914   2.733  0.7762 -0.5733 -0.3192
 3774TIP3    H111244   2.757   3.981   2.767  0.5953  0.1230 -1.9457
 3774TIP3    H211245   2.904   3.948   2.752  0.6672 -0.5805  0.1844
 3775TIP3   OH211246   5.231   1.970   2.959  0.1452 -0.4919 -0.1668
 3775TIP3    H111247   5.295   1.957   3.029 -0.0787 -0.6170  0.0177
 3775TIP3    H211248   5.268   2.038   2.904 -0.1007  0.2650  0.5883
 3776TIP3   OH211249   6.423   3.628   1.284  0.2294  0.3756 -0.1032
 3776TIP3    H111250   6.385   3.557   1.336  1.2079  0.3535  0.6098
 3776TIP3    H211251   6.384   3.618   1.198 -1.2071  0.2323  0.5457
 3777TIP3   OH211252   5.154   3.714   4.725  0.5502  0.0541 -0.3273
 3777TIP3    H111253   5.188   3.755   4.645  0.9321  0.0643 -0.1621
 3777TIP3    H211254   5.147   3.786   4.788 -1.0802  0.2941 -0.7798
 3778TIP3   OH211255   4.234   3.540   2.632 -0.3945  0.3099  0.2311
 3778TIP3    H111256   4.142   3.567   2.632 -0.7367 -0.8301  0.0845
 3778TIP3    H211257   4.279   3.610   2.679 -1.4383  0.5611  0.8875
 3779TIP3   OH211258   3.132   2.965   1.838  0.0622 -0.3031 -0.4982
 3779TIP3    H111259   3.131   3.059   1.821  2.2589 -0.3668 -1.1278
 3779TIP3    H211260   3.131   2.925   1.751  0.2274 -0.8493 -0.2533
 3780TIP3   OH211261   2.371   3.896   1.077 -0.3507 -0.2687  0.1578
 3780TIP3    H111262   2.307   3.845   1.026 -0.3256 -1.6993  1.5507
 3780TIP3    H211263   2.391   3.842   1.152  2.0734  0.4484  0.0634
 3781TIP3   OH211264   4.928   3.994   2.571  0.2026  0.0631 -0.2802
 3781TIP3    H111265   4.873   3.928   2.614  2.2340 -0.3663  1.7248
 3781TIP3    H211266   4.990   3.943   2.519  0.9916  0.4170  0.3035
 3782TIP3   OH211267   3.979   4.143   1.328 -0.2477 -0.0015  0.4698
 3782TIP3    H111268   4.056   4.105   1.285  0.1844  2.0365 -0.6217
 3782TIP3    H211269   3.923   4.068   1.347  2.2583 -1.5981  1.8082
 3783TIP3   OH211270   2.038   4.367   1.548 -0.3206  0.5647  0.3069
 3783TIP3    H111271   2.123   4.385   1.589  0.3880 -0.4736 -0.6741
 3783TIP3    H211272   2.043   4.411   1.462  0.9551 -3.1078 -1.6023
 3784TIP3   OH211273   3.374   4.128   3.181  0.5681 -0.1911 -0.0694
 3784TIP3    H111274   3.302   4.169   3.132  1.0865 -0.0110 -0.6818
 3784TIP3    H211275   3.440   4.110   3.115 -0.3605 -3.6475 -0.1246
 3785TIP3   OH211276   2.610   3.984   3.964  0.1822  0.2229 -0.5721
 3785TIP3    H111277   2.607   3.890   3.981  0.4018 -0.0039 -1.7584
 3785TIP3    H211278   2.581   3.993   3.873  1.3011  1.1899 -0.8497
 3786TIP3   OH211279   4.249   4.696   3.241  0.2347 -0.0923  0.6635
 3786TIP3    H111280   4.156   4.705   3.263  0.0980 -0.2896  0.1711
 3786TIP3    H211281   4.254   4.722   3.149  0.6912  0.0465  0.7280
 3787TIP3   OH211282   2.594   4.420   3.509 -0.3418 -0.3464  0.0659
 3787TIP3    H111283   2.601   4.512   3.484 -0.8363  0.1107  1.5844
 3787TIP3    H211284   2.659   4.376   3.455 -1.1314  0.6569 -1.7827
 3788TIP3   OH211285   4.119   4.223   2.005  0.6222  0.1833 -0.1426
 3788TIP3    H111286   4.165   4.210   1.922 -1.0163 -1.0908 -0.8545
 3788TIP3    H211287   4.130   4.141   2.053 -0.7479 -0.0724 -0.2445
 3789TIP3   OH211288   2.088   4.008   2.777  0.2168 -0.2804  0.2615
 3789TIP3    H111289   2.114   4.056   2.699  0.8605  0.4860  0.9346
 3789TIP3    H211290   2.163   3.952   2.798  1.3348  1.8564  2.1447
 3790TIP3   OH211291   5.217   3.580   2.689 -0.1457  0.2666  0.1195
 3790TIP3    H111292   5.171   3.544   2.765 -0.8663  0.9683  0.0214
 3790TIP3    H211293   5.149   3.627   2.640  0.5220  0.6722 -0.4244
 3791TIP3   OH211294   5.844   6.241   2.029  0.1410 -0.6995  0.0523
 3791TIP3    H111295   5.909   6.269   2.093 -0.7498  0.2383  0.5587
 3791TIP3    H211296   5.872   6.281   1.946 -0.0791  0.1446  0.3810
 3792TIP3   OH211297   5.283   3.618   2.363 -0.2787  0.1970 -0.0812
 3792TIP3    H111298   5.349   3.591   2.426 -2.5222  0.2333  2.4090
 3792TIP3    H211299   5.245   3.536   2.330  0.6487  0.1823 -1.1200
 3793TIP3   OH211300   4.724   1.653   3.783  0.0542  0.4127  0.7228
 3793TIP3    H111301   4.720   1.562   3.813  0.4802 -0.2604 -1.2249
 3793TIP3    H211302   4.659   1.658   3.713  2.1866  0.7677 -1.2952
 3794TIP3   OH211303   2.302   3.299   3.283  0.2641  0.5891  0.1631
 3794TIP3    H111304   2.246   3.258   3.217  1.5434 -1.8395  0.4874
 3794TIP3    H211305   2.254   3.287   3.366 -0.0219  1.0536  0.0666
 3795TIP3   OH211306   3.640   2.131   4.401  0.0732 -0.5809  0.5763
 3795TIP3    H111307   3.603   2.213   4.368 -2.4574 -2.5410 -1.7144
 3795TIP3    H211308   3.734   2.141   4.390 -0.3863  0.7523 -2.9284
 3796TIP3   OH211309   2.872   3.394   1.798 -0.1854 -0.3752  0.1487
 3796TIP3    H111310   2.868   3.448   1.876  1.5979 -1.4663  1.0319
 3796TIP3    H211311   2.786   3.354   1.792 -0.9637  1.2094  0.4438
 3797TIP3   OH211312   2.443   6.029   3.611 -0.3045  0.1702 -0.1310
 3797TIP3    H111313   2.507   5.972   3.567 -0.4021 -1.3955  1.6948
 3797TIP3    H211314   2.392   5.969   3.665 -2.2824  1.6438 -0.3399
 3798TIP3   OH211315   2.210   5.281   5.097  0.6088 -0.3169 -0.1649
 3798TIP3    H111316   2.260   5.245   5.024  0.2289  0.0609 -0.6098
 3798TIP3    H211317   2.176   5.364   5.065  0.7387  0.0177  0.5644
 3799TIP3   OH211318   2.147   4.509   3.322 -0.4197  0.6681 -0.4284
 3799TIP3    H111319   2.210   4.580   3.338 -0.1155  0.6557 -1.5587
 3799TIP3    H211320   2.095   4.505   3.402  1.3017  0.3991  0.7089
 3800TIP3   OH211321   2.667   4.910   1.601 -0.1804  0.0304  0.2461
 3800TIP3    H111322   2.617   4.930   1.680 -2.1461 -2.1563 -0.3897
 3800TIP3    H211323   2.752   4.952   1.615 -1.3510  1.7480  2.4216
 3801TIP3   OH211324   3.117   4.364   1.045  0.7556 -0.3538  0.1297
 3801TIP3    H111325   3.078   4.325   0.967 -0.2830 -1.9047  1.3815
 3801TIP3    H211326   3.164   4.441   1.013 -2.6310  1.1107 -1.5449
 3802TIP3   OH211327   1.872   6.289   0.335  0.2839  0.0097  0.3630
 3802TIP3    H111328   1.899   6.242   0.257  1.9263  0.1689  0.8187
 3802TIP3    H211329   1.779   6.308   0.321  0.6580  0.4209 -1.7461
 3803TIP3   OH211330   1.276   3.141   2.615  0.1491 -0.1113 -0.4292
 3803TIP3    H111331   1.366   3.138   2.581 -0.1109  0.0449 -1.1328
 3803TIP3    H211332   1.286   3.129   2.710  0.8197 -1.3133 -0.6347
 3804TIP3   OH211333   4.727   3.166   2.112  0.3935  0.0927  0.2861
 3804TIP3    H111334   4.815   3.186   2.143 -0.0768  0.7011  1.2246
 3804TIP3    H211335   4.673   3.239   2.141 -0.3379 -0.0536 -0.6787
 3805TIP3   OH211336   2.879   5.260   3.322 -0.0584 -0.6126 -0.8224
 3805TIP3    H111337   2.799   5.216   3.294  0.3942 -1.2912 -1.0344
 3805TIP3    H211338   2.935   5.262   3.244  0.4526 -0.8562 -0.4685
 3806TIP3   OH211339   3.808   3.223   2.456  0.4208 -0.2773  0.3820
 3806TIP3    H111340   3.880   3.247   2.515 -0.0683  1.6325  0.2398
 3806TIP3    H211341   3.784   3.135   2.482  1.4512 -0.1482  1.8191
 3807TIP3   OH211342   1.279   4.583   4.201  0.5875  0.0035 -0.1718
 3807TIP3    H111343   1.364   4.621   4.179 -0.4587  1.4048 -1.9232
 3807TIP3    H211344   1.275   4.502   4.151  1.2883 -0.5559  0.6709
 3808TIP3   OH211345   2.405   4.153   3.402  0.1303  0.0311  0.5600
 3808TIP3    H111346   2.408   4.242   3.366  1.6792  0.6824  2.2141
 3808TIP3    H211347   2.312   4.136   3.417 -0.4278  0.3436 -2.1586
 3809TIP3   OH211348   7.428   1.628   1.200  0.0113 -0.3931 -0.8753
 3809TIP3    H111349   7.410   1.693   1.132  0.8629 -1.2877 -1.9630
 3809TIP3    H211350   7.365   1.648   1.269  0.9186  2.2563 -0.7280
 3810TIP3   OH211351   4.134   1.966   3.942 -0.3853  0.0693 -0.0856
 3810TIP3    H111352   4.123   2.040   4.003 -0.2949 -0.1583  0.2051
 3810TIP3    H211353   4.229   1.961   3.927 -0.5169  1.0767 -1.4204
 3811TIP3   OH211354   1.842   3.673   3.234 -0.1844  0.3443  0.5658
 3811TIP3    H111355   1.776   3.691   3.302 -0.4152  0.2082  0.3808
 3811TIP3    H211356   1.913   3.629   3.280 -1.1230 -1.3729  0.4050
 3812TIP3   OH211357   4.485   3.001   4.869  0.3645 -0.6117  0.7980
 3812TIP3    H111358   4.487   2.950   4.789  1.4977 -0.0386  0.4496
 3812TIP3    H211359   4.461   3.089   4.841 -0.7732 -0.7638  1.2895
 3813TIP3   OH211360   2.091   3.429   3.972 -0.2895 -0.2869  0.1466
 3813TIP3    H111361   2.091   3.524   3.978  0.2543 -0.1413 -1.9830
 3813TIP3    H211362   2.183   3.404   3.979 -0.2755 -0.5386 -0.8527
 3814TIP3   OH211363   4.259   1.307   3.578 -0.0818  0.0636  0.0988
 3814TIP3    H111364   4.298   1.386   3.540  0.5454  0.5824  1.7557
 3814TIP3    H211365   4.333   1.247   3.588 -0.4319 -0.4723 -0.4677
 3815TIP3   OH211366   1.339   6.010   3.150 -0.5250  0.0900  0.0611
 3815TIP3    H111367   1.435   6.005   3.147 -0.4559  1.5529 -0.6469
 3815TIP3    H211368   1.320   6.104   3.147 -1.9758 -0.1858  0.3665
 3816TIP3   OH211369   5.605   2.201   3.579 -0.3314  0.3129  0.1143
 3816TIP3    H111370   5.697   2.218   3.596 -0.1911 -0.1569 -0.1566
 3816TIP3    H211371   5.582   2.132   3.642 -0.4364  0.2699  0.0284
 3817TIP3   OH211372   5.252   3.190   3.195  0.7305 -0.1880 -0.2508
 3817TIP3    H111373   5.179   3.176   3.256 -0.7441  1.9396 -1.4692
 3817TIP3    H211374   5.317   3.239   3.247  1.3684 -2.1349  0.8497
 3818TIP3   OH211375   4.111   5.143   2.425 -0.8271  0.2245 -0.2660
 3818TIP3    H111376   4.188   5.098   2.392 -0.6279 -0.7121  1.4168
 3818TIP3    H211377   4.038   5.088   2.397 -0.8032  0.4233 -0.7307
 3819TIP3   OH211378   3.993   3.486   3.052 -0.2588  0.6114 -0.4034
 3819TIP3    H111379   3.939   3.510   3.127 -1.8007 -0.1981 -1.2200
 3819TIP3    H211380   3.937   3.503   2.976  0.4225 -0.7676 -1.2326
 3820TIP3   OH211381   1.675   4.429   2.390  0.2592  0.4294 -0.3545
 3820TIP3    H111382   1.769   4.412   2.395  0.5368  1.6979 -0.8982
 3820TIP3    H211383   1.637   4.349   2.354  0.9988 -0.4723  0.8290
 3821TIP3   OH211384   3.452   4.064   2.193  0.4046 -0.5972  0.5251
 3821TIP3    H111385   3.512   4.037   2.123  0.7512  0.6901  0.3119
 3821TIP3    H211386   3.417   4.147   2.163 -0.2058 -0.5179  1.4420
 3822TIP3   OH211387   4.705   1.910   3.648 -0.1857  0.3893 -0.3118
 3822TIP3    H111388   4.612   1.904   3.625 -0.2195  1.2105 -0.4051
 3822TIP3    H211389   4.714   1.853   3.725 -1.5669  3.2140  2.0381
 3823TIP3   OH211390   3.381   4.359   3.970  0.0288 -0.0060  0.3774
 3823TIP3    H111391   3.410   4.357   3.879  3.1666 -0.9376  1.3041
 3823TIP3    H211392   3.343   4.273   3.986  1.1426 -0.5026  0.4115
 3824TIP3   OH211393   2.205   2.848   5.568  0.0503 -0.1270  0.2377
 3824TIP3    H111394   2.116   2.844   5.603 -0.1292  0.7420 -0.1068
 3824TIP3    H211395   2.194   2.867   5.475  0.5681 -1.1232 -0.0430
 3825TIP3   OH211396   3.038   4.716   3.553  0.1433  0.4161  0.6883
 3825TIP3    H111397   3.123   4.686   3.586  0.5449 -0.2428 -0.9004
 3825TIP3    H211398   3.012   4.648   3.490 -0.2643  1.9750 -0.8618
 3826TIP3   OH211399   1.277   5.177   2.149 -0.0481  0.3214 -0.5480
 3826TIP3    H111400   1.250   5.085   2.141 -0.2656  0.1160  2.0988
 3826TIP3    H211401   1.349   5.186   2.087 -0.0241 -1.6499 -0.8372
 3827TIP3   OH211402   7.030   4.460   3.259  0.3978  0.3925  0.1499
 3827TIP3    H111403   7.043   4.441   3.352  2.4555  1.5755  0.1423
 3827TIP3    H211404   7.045   4.376   3.215 -0.5080 -0.1518  0.8654
 3828TIP3   OH211405   3.419   3.837   1.325  0.0406 -0.3137  0.5084
 3828TIP3    H111406   3.328   3.817   1.302  0.9652 -1.6135 -2.1917
 3828TIP3    H211407   3.460   3.751   1.338  1.5635  0.1305 -1.1286
 3829TIP3   OH211408   0.960   4.231   3.664 -0.4441 -0.0248 -0.8771
 3829TIP3    H111409   1.048   4.193   3.672  0.2570  1.7068 -0.1101
 3829TIP3    H211410   0.963   4.310   3.718 -2.4280  0.1576 -0.9957
 3830TIP3   OH211411   3.296   1.724   1.707 -0.3039  0.2391  0.5134
 3830TIP3    H111412   3.337   1.807   1.730  0.4859  0.5420 -1.8598
 3830TIP3    H211413   3.369   1.668   1.679 -1.0695 -0.5388  0.0487
 3831TIP3   OH211414   3.214   4.682   4.634 -0.9715 -0.2138  0.3351
 3831TIP3    H111415   3.142   4.683   4.697  1.0033  1.4245  2.6653
 3831TIP3    H211416   3.245   4.772   4.632  4.3886 -1.8127  3.4592
 3832TIP3   OH211417   0.862   5.389   1.070  0.3846  0.2420  0.3864
 3832TIP3    H111418   0.852   5.298   1.040 -0.7771  1.5796 -3.5504
 3832TIP3    H211419   0.775   5.427   1.061  0.6642  1.5388  2.8824
 3833TIP3   OH211420   2.833   6.575   1.516  0.2772  0.0202 -0.0940
 3833TIP3    H111421   2.801   6.527   1.593  1.1336 -0.6286 -0.1381
 3833TIP3    H211422   2.753   6.605   1.472 -0.2762 -1.2573  0.0079
 3834TIP3   OH211423   3.429   4.595   2.392  0.1821  0.4901  0.2656
 3834TIP3    H111424   3.430   4.634   2.305 -0.1183  2.2316  1.0211
 3834TIP3    H211425   3.519   4.565   2.406  0.7926  2.2632  0.2529
 3835TIP3   OH211426   4.475   2.746   2.894  0.2080 -0.6162 -0.2208
 3835TIP3    H111427   4.384   2.767   2.915  0.2403  0.3991 -1.0580
 3835TIP3    H211428   4.527   2.794   2.958  0.2129  0.2570 -0.8768
 3836TIP3   OH211429   3.728   2.049   4.138 -0.0350  0.0516  0.0666
 3836TIP3    H111430   3.792   2.052   4.210  0.2855 -0.0838 -0.2116
 3836TIP3    H211431   3.643   2.053   4.182  0.1141 -1.6475  0.5619
 3837TIP3   OH211432   6.179   2.696   3.044  0.5069 -0.2715 -0.3732
 3837TIP3    H111433   6.128   2.715   3.123  0.3613  1.7263 -0.9299
 3837TIP3    H211434   6.117   2.709   2.972  1.5432  1.3080 -0.9981
 3838TIP3   OH211435   2.879   4.821   2.673 -0.4544  0.5429 -0.3176
 3838TIP3    H111436   2.955   4.766   2.654 -0.5564  0.7917 -1.4730
 3838TIP3    H211437   2.807   4.759   2.684 -0.1889  0.3364  0.3017
 3839TIP3   OH211438   3.303   2.933   1.034  0.7695 -0.1695  0.2332
 3839TIP3    H111439   3.310   2.948   0.939  1.0105 -0.3195  0.2266
 3839TIP3    H211440   3.391   2.907   1.060  0.8013  0.2851  0.5746
 3840TIP3   OH211441   1.827   4.165   3.721  0.1766  0.4460 -0.3212
 3840TIP3    H111442   1.919   4.181   3.741 -0.1164  2.4046 -0.4749
 3840TIP3    H211443   1.787   4.149   3.807  0.3409  1.3618 -0.0651
 3841TIP3   OH211444   5.043   3.596   1.713  0.7129  0.2515 -0.0301
 3841TIP3    H111445   4.965   3.543   1.730  0.8478  0.5355  1.5571
 3841TIP3    H211446   5.100   3.539   1.661  0.4590 -0.8404  0.8654
 3842TIP3   OH211447   3.044   3.567   4.151 -0.0101  0.0739  0.4098
 3842TIP3    H111448   2.973   3.628   4.131  0.8954  1.5280  1.5009
 3842TIP3    H211449   3.120   3.605   4.108  0.8808  0.5775  2.3410
 3843TIP3   OH211450   2.260   5.092   3.351  0.1434 -0.2133 -0.6667
 3843TIP3    H111451   2.174   5.061   3.376  0.5579 -0.9890 -0.1953
 3843TIP3    H211452   2.274   5.169   3.407  0.7289 -1.4631  0.9600
 3844TIP3   OH211453   3.748   4.229   3.872  0.5993  0.4416  0.0191
 3844TIP3    H111454   3.717   4.177   3.946  2.2564 -1.1444 -0.3393
 3844TIP3    H211455   3.841   4.207   3.865  0.5419  0.7646 -2.3589
 3845TIP3   OH211456   3.861   3.294   4.061  0.2129 -0.2020  0.0365
 3845TIP3    H111457   3.806   3.222   4.030  0.7923 -0.1978 -1.0057
 3845TIP3    H211458   3.895   3.264   4.145 -0.7240 -0.5405  0.2959
 3846TIP3   OH211459   6.148   2.600   2.388 -0.0814  0.6067  0.0055
 3846TIP3    H111460   6.116   2.644   2.310  0.3776  0.4917 -0.2498
 3846TIP3    H211461   6.116   2.510   2.380  2.7122 -0.3084 -1.7147
 3847TIP3   OH211462   5.581   3.013   5.141 -0.1160 -0.6529 -0.5740
 3847TIP3    H111463   5.598   3.029   5.048 -0.4303 -0.6476 -0.6307
 3847TIP3    H211464   5.652   3.058   5.186 -0.2370 -0.2436 -0.7930
 3848TIP3   OH211465   3.537   4.750   4.331  0.3930  0.1043  0.1855
 3848TIP3    H111466   3.630   4.729   4.333  0.3678  0.0750  1.2991
 3848TIP3    H211467   3.493   4.665   4.329  0.3614  0.0866  1.3419
 3849TIP3   OH211468   5.759   3.607   4.445 -0.9288  0.1859  0.5527
 3849TIP3    H111469   5.829   3.542   4.453 -1.9478 -0.8943  0.8473
 3849TIP3    H211470   5.700   3.588   4.519 -1.8568  0.6712 -0.0506
 3850TIP3   OH211471   3.888   4.459   0.727 -0.0984 -0.3607  0.6339
 3850TIP3    H111472   3.924   4.413   0.651 -3.0485 -0.6789 -0.6225
 3850TIP3    H211473   3.890   4.551   0.702 -0.8564 -0.4455  0.2530
 3851TIP3   OH211474   3.429   3.956   1.600 -0.0389 -0.0855  0.1889
 3851TIP3    H111475   3.336   3.974   1.586 -0.1223  1.4008  2.3384
 3851TIP3    H211476   3.464   3.939   1.513 -1.8803  1.5386 -0.9063
 3852TIP3   OH211477   3.596   5.580   3.801  0.0045  0.3752  0.1656
 3852TIP3    H111478   3.684   5.599   3.835  0.6908 -0.2570 -1.1840
 3852TIP3    H211479   3.609   5.503   3.746 -1.3725  0.4104 -0.2048
 3853TIP3   OH211480   1.122   4.216   4.463  0.2385 -0.0049  0.0098
 3853TIP3    H111481   1.086   4.185   4.380  0.5490  0.0225 -0.1352
 3853TIP3    H211482   1.161   4.300   4.443 -1.0287  0.7210  0.5106
 3854TIP3   OH211483   6.806   4.686   2.843  0.0703 -0.4433 -0.1813
 3854TIP3    H111484   6.814   4.780   2.859  0.5526 -0.4928 -0.1032
 3854TIP3    H211485   6.771   4.650   2.925 -2.2615 -0.0457 -0.9854
 3855TIP3   OH211486   4.735   2.102   2.103  0.3680 -0.1494  0.0200
 3855TIP3    H111487   4.736   2.194   2.130  1.0354 -0.1175 -0.1059
 3855TIP3    H211488   4.680   2.101   2.025  0.1803  0.1068  0.1474
 3856TIP3   OH211489   5.408   4.626   3.785 -0.2929 -0.3083 -0.0764
 3856TIP3    H111490   5.445   4.625   3.874 -1.1879  0.9625  0.3256
 3856TIP3    H211491   5.317   4.655   3.797 -0.6346 -0.8094 -1.3422
 3857TIP3   OH211492   3.604   4.395   2.196 -0.1443 -0.1013  0.0063
 3857TIP3    H111493   3.605   4.413   2.290 -0.5864  1.1970 -0.2243
 3857TIP3    H211494   3.679   4.337   2.182  1.6635  2.0091  0.7273
 3858TIP3   OH211495   7.698   0.971   1.701  0.1886 -0.6615 -0.2966
 3858TIP3    H111496   7.689   1.021   1.619 -1.9340 -0.7016 -0.1111
 3858TIP3    H211497   7.703   1.037   1.769 -1.9220 -0.6747 -0.1152
 3859TIP3   OH211498   6.664   3.101   3.625  0.1980  0.1471 -0.2374
 3859TIP3    H111499   6.717   3.022   3.614  1.4494  0.8163  0.8763
 3859TIP3    H211500   6.714   3.155   3.686 -2.1615  0.4213  1.5182
 3860TIP3   OH211501   1.956   4.533   2.417 -0.4746 -0.6783  0.3157
 3860TIP3    H111502   1.871   4.566   2.449 -0.8190 -1.4564  0.2219
 3860TIP3    H211503   1.982   4.468   2.482 -0.0513 -0.5909  0.2320
 3861TIP3   OH211504   3.144   4.222   0.122 -0.5585 -0.2138  0.5033
 3861TIP3    H111505   3.208   4.219   0.051  0.8696  0.7974  1.7116
 3861TIP3    H211506   3.135   4.131   0.151  0.6610 -0.3100  0.5950
 3862TIP3   OH211507   4.204   2.142   2.749  0.4824  0.0291  0.7417
 3862TIP3    H111508   4.248   2.188   2.820  1.0804  0.5764  0.0296
 3862TIP3    H211509   4.111   2.148   2.770  0.6805 -0.2432  1.7255
 3863TIP3   OH211510   7.087   4.654   0.804  0.2482 -0.1901  0.5316
 3863TIP3    H111511   7.132   4.629   0.885  1.2535  1.2489  0.4395
 3863TIP3    H211512   7.081   4.749   0.808 -0.7570 -0.1952 -0.5430
 3864TIP3   OH211513   2.767   4.226   3.414  0.0141  0.3627  0.0640
 3864TIP3    H111514   2.768   4.247   3.321 -0.5907  0.4595  0.0786
 3864TIP3    H211515   2.822   4.147   3.422 -0.0055  0.3054 -0.3806
 3865TIP3   OH211516   3.964   2.554   0.683  0.4842  0.4011 -0.2996
 3865TIP3    H111517   4.003   2.468   0.700 -0.8791 -0.0553  0.5316
 3865TIP3    H211518   4.029   2.616   0.716  1.3512 -0.2965 -0.6529
 3866TIP3   OH211519   2.706   3.534   3.430 -0.2084  0.5506  0.4652
 3866TIP3    H111520   2.771   3.598   3.403  0.8928 -0.4476  0.7222
 3866TIP3    H211521   2.687   3.484   3.350  0.1987  0.0917  0.6551
 3867TIP3   OH211522   4.206   2.167   1.847  0.1631  0.4213  0.4844
 3867TIP3    H111523   4.201   2.259   1.820  1.0699  1.2565  3.0693
 3867TIP3    H211524   4.186   2.168   1.940  0.0427 -2.0423  0.5124
 3868TIP3   OH211525   4.695   3.519   2.274 -0.0162 -0.3056 -0.7065
 3868TIP3    H111526   4.696   3.450   2.341 -0.1607  0.2064 -0.1650
 3868TIP3    H211527   4.669   3.597   2.322  0.9087  0.2881 -1.1595
 3869TIP3   OH211528   4.993   5.381   1.799  0.0677 -0.0360 -0.4298
 3869TIP3    H111529   4.954   5.340   1.876  2.4174 -2.8053 -0.6022
 3869TIP3    H211530   4.919   5.398   1.740 -1.6089  1.0593  1.9148
 3870TIP3   OH211531   5.994   4.345   2.652  0.3350  0.6241  0.6841
 3870TIP3    H111532   5.974   4.371   2.562 -1.9558 -0.0433  0.9657
 3870TIP3    H211533   5.909   4.324   2.690  1.4164 -0.4410  2.5941
 3871TIP3   OH211534   4.529   4.569   3.855 -0.1669 -0.2991 -0.0132
 3871TIP3    H111535   4.589   4.496   3.842 -0.4676 -0.4287 -0.6892
 3871TIP3    H211536   4.484   4.548   3.937  1.5052  0.3635  1.0904
 3872TIP3   OH211537   7.821   3.635   2.251 -0.6748 -0.1874 -0.4761
 3872TIP3    H111538   7.896   3.638   2.191 -0.4602 -2.4298 -0.3532
 3872TIP3    H211539   7.773   3.716   2.232  0.4837  0.1258 -2.2479
 3873TIP3   OH211540   4.071   3.855   4.300 -0.5144  0.0431 -0.0570
 3873TIP3    H111541   4.031   3.832   4.216 -0.1506 -1.6531  0.2175
 3873TIP3    H211542   4.000   3.896   4.349 -1.7790 -2.3539  0.1813
 3874TIP3   OH211543   5.899   2.170   4.072  0.4834 -0.6350  0.6209
 3874TIP3    H111544   5.889   2.082   4.034 -1.4357  0.4698 -1.5947
 3874TIP3    H211545   5.983   2.201   4.038 -0.6333 -0.1523 -1.8233
 3875TIP3   OH211546   5.747   7.826   6.897 -0.0118 -0.4785  0.4218
 3875TIP3    H111547   5.743   7.900   6.957 -0.3759  0.9019 -1.2729
 3875TIP3    H211548   5.776   7.753   6.952 -2.3892  0.2381  2.7274
 3876TIP3   OH211549   6.017   6.049   4.618 -0.4162 -0.1838 -0.4937
 3876TIP3    H111550   6.047   6.127   4.570 -0.7876  1.5454  2.0033
 3876TIP3    H211551   6.097   6.010   4.652 -0.5483  2.2186  2.8286
 3877TIP3   OH211552   5.281   2.776   3.129 -0.3904  0.2577 -0.5158
 3877TIP3    H111553   5.354   2.755   3.189 -0.7184  1.7110  0.4091
 3877TIP3    H211554   5.322   2.825   3.058  0.3399 -3.2003 -2.5654
 3878TIP3   OH211555   5.069   2.265   0.783  0.2764  0.0244  0.3165
 3878TIP3    H111556   5.025   2.251   0.866  0.8005 -1.9218  0.2772
 3878TIP3    H211557   5.151   2.217   0.790  1.5686  2.0359 -0.3371
 3879TIP3   OH211558   4.043   5.873   0.867 -0.0663  0.0088 -0.1870
 3879TIP3    H111559   4.114   5.918   0.821  0.6587 -1.3866 -0.4494
 3879TIP3    H211560   3.963   5.913   0.832  0.5768  1.8470  0.3719
 3880TIP3   OH211561   2.697   3.173   3.282  0.1412 -0.3394  0.6431
 3880TIP3    H111562   2.737   3.189   3.196 -1.4222 -0.3645 -0.1068
 3880TIP3    H211563   2.629   3.240   3.289 -0.9859 -1.5196  1.0496
 3881TIP3   OH211564   2.995   2.995   3.814  0.6301 -0.4285  0.1094
 3881TIP3    H111565   2.938   2.937   3.764 -0.8291  0.8342  0.2583
 3881TIP3    H211566   3.005   2.952   3.899 -0.7553 -0.2969  0.3548
 3882TIP3   OH211567   1.687   2.925   3.236  0.4807  0.2027 -0.4693
 3882TIP3    H111568   1.646   2.952   3.319  0.5588  2.2448 -1.0826
 3882TIP3    H211569   1.623   2.948   3.169  1.4694  0.8611 -1.1957
 3883TIP3   OH211570   3.878   5.103   3.608  0.1481  0.2571 -0.2760
 3883TIP3    H111571   3.787   5.111   3.580 -0.4618 -1.5465  1.0942
 3883TIP3    H211572   3.907   5.193   3.622 -1.7327  0.8036  0.2132
 3884TIP3   OH211573   3.605   3.594   3.645 -0.3124  0.1814  0.0341
 3884TIP3    H111574   3.523   3.601   3.693  1.4711  4.3207  2.7450
 3884TIP3    H211575   3.665   3.551   3.706  0.4063  0.1164 -0.7039
 3885TIP3   OH211576   3.315   2.734   3.118 -0.4338  0.7327 -0.3164
 3885TIP3    H111577   3.268   2.750   3.200 -0.6073  0.0913 -0.2863
 3885TIP3    H211578   3.390   2.793   3.122 -0.3162  0.5441  0.4137
 3886TIP3   OH211579   4.784   5.163   1.130 -0.9095  0.4073 -0.7909
 3886TIP3    H111580   4.723   5.212   1.076 -1.7286  0.1001 -0.1482
 3886TIP3    H211581   4.729   5.109   1.186 -0.0582  0.2688 -0.0765
 3887TIP3   OH211582   3.017   4.613   1.341  0.4590  0.3327  0.2874
 3887TIP3    H111583   2.960   4.553   1.293 -1.2655 -0.1950  2.9313
 3887TIP3    H211584   3.057   4.667   1.273 -1.3956 -0.8333 -1.7918
 3888TIP3   OH211585   2.570   4.410   2.318  1.0513  0.3048  0.6348
 3888TIP3    H111586   2.505   4.444   2.256  0.6431 -0.4072  0.6630
 3888TIP3    H211587   2.595   4.324   2.283  0.0958 -0.5350  1.9401
 3889TIP3   OH211588   2.019   5.101   2.810 -0.4543  0.2634  0.0289
 3889TIP3    H111589   2.045   5.189   2.835  0.6576  0.2678 -1.0585
 3889TIP3    H211590   2.022   5.051   2.891 -0.0850  0.9968  0.4748
 3890TIP3   OH211591   6.046   3.183   4.194 -0.3765 -0.4716 -0.0140
 3890TIP3    H111592   5.959   3.156   4.163 -0.4968  0.4798 -0.5139
 3890TIP3    H211593   6.096   3.198   4.114  0.3143 -1.2185  0.2752
 3891TIP3   OH211594   2.463   4.656   1.995 -0.1594  0.2400  0.7274
 3891TIP3    H111595   2.415   4.690   2.071 -0.3249 -0.2766  0.8525
 3891TIP3    H211596   2.451   4.561   1.999  2.3211 -0.0597  1.7514
 3892TIP3   OH211597   4.481   3.164   3.627 -0.0329 -0.3683 -0.4164
 3892TIP3    H111598   4.452   3.218   3.553 -0.1522 -0.7988 -0.6847
 3892TIP3    H211599   4.408   3.106   3.645  0.2296 -0.6822 -0.3561
 3893TIP3   OH211600   2.195   6.974   0.532 -0.1562  0.3474  0.1012
 3893TIP3    H111601   2.151   6.962   0.448 -0.6962  0.2799  0.3970
 3893TIP3    H211602   2.145   6.921   0.594  0.8456 -0.4310  0.2688
 3894TIP3   OH211603   6.134   2.303   2.520  0.2768  0.4535  0.1370
 3894TIP3    H111604   6.194   2.242   2.478 -0.4129 -0.2081  0.0953
 3894TIP3    H211605   6.048   2.283   2.482  0.1588  1.9678 -0.4540
 3895TIP3   OH211606   7.291   1.787   2.197 -0.5348  0.7499  0.0015
 3895TIP3    H111607   7.206   1.763   2.159  0.3375  0.5789 -1.8910
 3895TIP3    H211608   7.305   1.723   2.266 -1.0798 -0.4106 -0.9432
 3896TIP3   OH211609   6.237   5.687   0.869  0.3567  0.1862  0.6635
 3896TIP3    H111610   6.247   5.603   0.826 -0.3689  0.0855  0.6745
 3896TIP3    H211611   6.286   5.748   0.814 -2.1156  0.4075 -1.4173
 3897TIP3   OH211612   2.731   4.112   2.943 -0.0843  0.5152 -0.2340
 3897TIP3    H111613   2.759   4.200   2.917  2.1240 -0.0259  0.1541
 3897TIP3    H211614   2.762   4.103   3.034  1.6490 -1.3949 -0.9598
 3898TIP3   OH211615   4.194   2.894   1.687 -0.2989 -0.0264  0.2061
 3898TIP3    H111616   4.253   2.914   1.615  0.0224 -0.0424  0.4656
 3898TIP3    H211617   4.193   2.973   1.740 -3.4263  1.3648 -1.7945
 3899TIP3   OH211618   4.490   3.914   4.105 -0.3852  0.6112 -0.4804
 3899TIP3    H111619   4.475   3.885   4.016  1.5683  1.7156 -1.1959
 3899TIP3    H211620   4.447   4.000   4.111 -0.6371  0.4746 -0.3139
 3900TIP3   OH211621   4.207   3.604   4.224  0.4995  0.3482 -0.6235
 3900TIP3    H111622   4.164   3.545   4.162 -0.3431  0.3751 -0.0823
 3900TIP3    H211623   4.145   3.676   4.234  0.1916 -0.1190  0.9607
 3901TIP3   OH211624   5.815   1.556   2.233  0.3222 -0.3003  0.6081
 3901TIP3    H111625   5.805   1.642   2.190 -1.1195 -1.0141 -0.5201
 3901TIP3    H211626   5.768   1.565   2.316 -0.0032 -0.0596  0.3986
 3902TIP3   OH211627   2.801   3.505   2.027  0.0435 -0.4420  0.0178
 3902TIP3    H111628   2.770   3.575   2.085 -4.5620 -0.1434 -2.5095
 3902TIP3    H211629   2.813   3.430   2.084 -2.2263  0.4163  1.7092
 3903TIP3   OH211630   3.441   2.841   1.662 -0.1299 -0.4772 -0.0521
 3903TIP3    H111631   3.401   2.754   1.669  0.5757 -0.7361  0.8512
 3903TIP3    H211632   3.368   2.902   1.675 -0.3374 -0.9425  1.0253
 3904TIP3   OH211633   5.144   2.205   3.361 -0.8670 -0.2356  0.2249
 3904TIP3    H111634   5.122   2.209   3.267  2.2997  2.9208 -0.4734
 3904TIP3    H211635   5.070   2.248   3.404 -1.7999 -0.6698 -0.9015
 3905TIP3   OH211636   5.574   5.784   1.314  0.2106  0.9019  0.1873
 3905TIP3    H111637   5.529   5.820   1.391  0.5112 -0.0476  0.8114
 3905TIP3    H211638   5.603   5.861   1.265 -0.5535  1.5164  0.6826
 3906TIP3   OH211639   2.707   4.064   4.218  0.0802 -0.5861 -0.0046
 3906TIP3    H111640   2.665   4.030   4.139  0.0623  0.0839 -0.2800
 3906TIP3    H211641   2.798   4.079   4.194  0.8455 -3.3319  0.9673
 3907TIP3   OH211642   3.515   2.960   3.136 -0.4630  0.7654  0.4822
 3907TIP3    H111643   3.604   2.985   3.161 -1.2723  0.6148  3.6691
 3907TIP3    H211644   3.472   3.043   3.115 -0.0010  0.9859  0.4033
 3908TIP3   OH211645   3.730   1.852   4.686  0.1832 -0.1103 -0.3991
 3908TIP3    H111646   3.753   1.759   4.676 -2.2449 -0.7485 -0.3541
 3908TIP3    H211647   3.757   1.874   4.775 -0.2717 -1.1192  0.0011
 3909TIP3   OH211648   5.791   3.685   1.324  0.3336  0.2550 -0.0537
 3909TIP3    H111649   5.764   3.625   1.254  0.5520  0.2746 -0.1543
 3909TIP3    H211650   5.799   3.628   1.401 -1.8509  0.5520  0.4329
 3910TIP3   OH211651   2.835   1.628   5.807  0.1600 -0.3522  0.0773
 3910TIP3    H111652   2.898   1.583   5.751  2.5879  2.7985  0.1275
 3910TIP3    H211653   2.888   1.666   5.877 -1.8021  2.1303  0.2940
 3911TIP3   OH211654   5.620   4.521   3.640  0.1379  0.1516 -0.9008
 3911TIP3    H111655   5.557   4.584   3.676 -0.2811  0.0221 -1.3899
 3911TIP3    H211656   5.641   4.463   3.713 -0.5222  0.0342 -0.7998
 3912TIP3   OH211657   6.523   3.035   0.749 -0.8973  0.0346  0.0412
 3912TIP3    H111658   6.440   3.014   0.705 -0.3805  3.1045 -2.6086
 3912TIP3    H211659   6.497   3.062   0.837 -2.4992 -1.0165 -0.0818
 3913TIP3   OH211660   4.114   2.253   1.518  0.4085  0.0957  0.3995
 3913TIP3    H111661   4.148   2.301   1.594 -0.6454  0.4120  0.6814
 3913TIP3    H211662   4.151   2.300   1.443  0.9865  0.1383  0.7047
 3914TIP3   OH211663   3.777   5.276   3.879 -0.0330 -0.4795  0.4564
 3914TIP3    H111664   3.854   5.254   3.827 -0.4690  1.1335 -0.8947
 3914TIP3    H211665   3.710   5.215   3.848 -0.0253 -0.1461 -0.2445
 3915TIP3   OH211666   8.053   3.408   1.579 -0.2474 -0.7770 -0.0489
 3915TIP3    H111667   8.045   3.462   1.500  2.7928  0.6368  0.5500
 3915TIP3    H211668   8.126   3.349   1.561 -0.9097 -1.9124  0.9100
 3916TIP3   OH211669   4.383   4.962   3.501  0.1210  0.4596 -0.1205
 3916TIP3    H111670   4.297   4.992   3.474 -0.9230 -0.0508  2.5012
 3916TIP3    H211671   4.403   5.012   3.580  1.9168  0.0788 -0.3031
 3917TIP3   OH211672   4.175   3.018   0.999 -0.3746  0.5244 -0.8204
 3917TIP3    H111673   4.154   2.984   1.086  2.7648 -0.9865 -0.6140
 3917TIP3    H211674   4.093   3.059   0.969 -2.2510 -1.2219  1.7418
 3918TIP3   OH211675   4.808   5.590   3.731 -0.0426  0.0313  0.1251
 3918TIP3    H111676   4.831   5.650   3.661 -0.9695 -0.5441 -0.6761
 3918TIP3    H211677   4.743   5.638   3.784 -0.3969 -0.0698 -0.2181
 3919TIP3   OH211678   5.274   2.837   2.257 -0.2703  0.1222 -0.3223
 3919TIP3    H111679   5.318   2.911   2.298 -0.9188  0.7717 -0.7781
 3919TIP3    H211680   5.233   2.790   2.329  0.0703  0.2526 -0.0431
 3920TIP3   OH211681   7.361   1.317   0.327  0.1112  0.1059  0.2166
 3920TIP3    H111682   7.404   1.239   0.291 -1.4658 -1.6051  1.9339
 3920TIP3    H211683   7.433   1.378   0.343  1.2908 -0.6612 -1.9349
 3921TIP3   OH211684   4.807   1.031   2.157 -0.1428  0.0405  0.3601
 3921TIP3    H111685   4.730   1.000   2.108 -0.6510  1.8442 -0.0120
 3921TIP3    H211686   4.837   1.108   2.108  1.1736  0.0614  1.1935
 3922TIP3   OH211687   5.697   3.639   2.885  0.1505  0.2104 -0.0465
 3922TIP3    H111688   5.659   3.554   2.903 -1.8992  1.1016 -0.0587
 3922TIP3    H211689   5.665   3.695   2.956 -0.3155  1.4846 -1.2398
 3923TIP3   OH211690   4.982   2.044   1.659 -0.5565 -0.3558 -0.4664
 3923TIP3    H111691   4.972   2.085   1.745 -0.7232  0.5718 -0.9203
 3923TIP3    H211692   5.016   1.957   1.678  3.0433  1.1263  0.3963
 3924TIP3   OH211693   7.412   3.712   2.095 -0.0521  0.1348 -0.1838
 3924TIP3    H111694   7.362   3.752   2.166  0.6678  1.8455 -0.6182
 3924TIP3    H211695   7.393   3.618   2.101 -0.6826  0.3802  1.7064
 3925TIP3   OH211696   6.750   4.533   3.235  0.3675 -0.1706  0.3181
 3925TIP3    H111697   6.745   4.445   3.198 -3.0452  0.1767 -0.2300
 3925TIP3    H211698   6.843   4.545   3.257  1.1799 -3.2176 -1.1883
 3926TIP3   OH211699   5.872   3.146   1.495  0.3450  0.7477  0.2421
 3926TIP3    H111700   5.890   3.053   1.509 -0.1627  0.4655 -0.8863
 3926TIP3    H211701   5.878   3.185   1.582 -1.0226 -0.6165  0.9810
 3927TIP3   OH211702   8.461   5.648   3.947  0.0787  0.2058  0.3929
 3927TIP3    H111703   8.374   5.626   3.980  0.4013  0.0973  1.1756
 3927TIP3    H211704   8.494   5.714   4.009  0.3303  0.6631 -0.2202
 3928TIP3   OH211705   6.228   2.210   5.048 -0.1103 -0.0089  0.7369
 3928TIP3    H111706   6.148   2.223   5.098 -0.7186 -0.6345 -0.0549
 3928TIP3    H211707   6.290   2.172   5.110 -0.4563  0.3887  1.3294
 3929TIP3   OH211708   7.513   3.490   3.380  0.3258  1.0243  0.4126
 3929TIP3    H111709   7.434   3.463   3.333 -0.0358  0.2642  1.4313
 3929TIP3    H211710   7.571   3.525   3.313 -0.2730  0.1708 -0.5568
 3930TIP3   OH211711   4.672   3.764   1.425  0.5750 -0.0309 -0.4224
 3930TIP3    H111712   4.739   3.714   1.379 -0.0744 -1.6025  0.2910
 3930TIP3    H211713   4.599   3.703   1.434 -1.5033  2.0447 -2.3770
 3931TIP3   OH211714   7.157   1.524   1.149 -0.1953  0.5078 -0.6476
 3931TIP3    H111715   7.112   1.514   1.233 -0.9228  0.5993 -1.0210
 3931TIP3    H211716   7.210   1.445   1.140 -0.4324  0.3071 -0.2908
 3932TIP3   OH211717   4.893   4.101   1.432  0.0879 -0.0013  0.3380
 3932TIP3    H111718   4.909   4.010   1.458 -0.4505  0.3957  2.1543
 3932TIP3    H211719   4.913   4.152   1.511 -0.3560  1.3863 -0.4289
 3933TIP3   OH211720   6.363   6.141   2.693  0.4936  0.5212 -0.1419
 3933TIP3    H111721   6.402   6.228   2.701  1.2711  0.2956 -1.2744
 3933TIP3    H211722   6.321   6.141   2.607  0.9293 -0.3796 -0.3632
 3934TIP3   OH211723   2.189   4.247   2.112  0.2160 -0.5065  0.1270
 3934TIP3    H111724   2.101   4.284   2.124 -0.1879 -1.2881 -0.3500
 3934TIP3    H211725   2.185   4.162   2.157  1.3543  0.3216  1.8567
 3935TIP3   OH211726   5.953   3.582   3.216 -0.2509 -0.3977  0.3931
 3935TIP3    H111727   5.941   3.516   3.149 -1.7917  0.8350 -0.5947
 3935TIP3    H211728   5.864   3.605   3.244  0.1677  2.1144 -0.1684
 3936TIP3   OH211729   7.547   2.382   2.548 -0.1104 -0.5485  0.0899
 3936TIP3    H111730   7.497   2.453   2.588  1.1825  0.5952 -0.3221
 3936TIP3    H211731   7.614   2.425   2.495  1.1981 -2.0674  0.4673
 3937TIP3   OH211732   4.699   2.660   2.065 -0.0039  0.1169  0.3403
 3937TIP3    H111733   4.651   2.678   1.984  0.4031  0.1179  0.0983
 3937TIP3    H211734   4.732   2.745   2.093 -0.7712  0.2354  0.9127
 3938TIP3   OH211735   7.619   3.631   2.907 -0.3316 -0.4073  0.8826
 3938TIP3    H111736   7.696   3.681   2.936  1.3058 -2.4310  0.1532
 3938TIP3    H211737   7.620   3.640   2.812 -0.8610 -0.6590  0.8565
 3939TIP3   OH211738   4.962   0.345   6.973 -0.3488  0.3285  0.1302
 3939TIP3    H111739   4.989   0.274   6.914  0.0899  0.8921 -0.3598
 3939TIP3    H211740   5.042   0.396   6.986 -0.1619 -0.4298  2.1218
 3940TIP3   OH211741   7.327   1.950   1.957 -0.4421 -0.1083 -0.0776
 3940TIP3    H111742   7.323   1.879   1.893 -4.6373  0.2617 -0.3683
 3940TIP3    H211743   7.344   1.906   2.040 -0.6478 -1.1702 -0.5840
 3941TIP3   OH211744   5.222   3.490   2.043  0.5248 -0.3146  0.1082
 3941TIP3    H111745   5.137   3.515   2.078 -0.4057 -2.3188 -0.6505
 3941TIP3    H211746   5.231   3.540   1.962  0.1786  0.0478  0.2923
 3942TIP3   OH211747   1.689   7.461   6.534 -0.7473 -0.0093 -0.1670
 3942TIP3    H111748   1.762   7.506   6.575 -0.2241 -2.7254  2.0716
 3942TIP3    H211749   1.613   7.486   6.587 -0.8787  0.3099 -0.5129
 3943TIP3   OH211750   6.882   2.014   2.170 -0.4129  0.3583  0.4118
 3943TIP3    H111751   6.824   1.952   2.124  0.5571 -0.1421 -0.1479
 3943TIP3    H211752   6.965   1.967   2.178  0.8473  2.2008 -1.4821
 3944TIP3   OH211753   6.025   3.513   3.503  0.2968  0.4571  0.2354
 3944TIP3    H111754   6.116   3.485   3.498  0.2108  0.3322 -0.7605
 3944TIP3    H211755   5.984   3.475   3.425 -1.1220 -1.3853  1.8147
 3945TIP3   OH211756   5.346   3.886   2.026 -0.4033  0.5487 -0.2279
 3945TIP3    H111757   5.358   3.916   1.936 -0.5874  0.3565 -0.3189
 3945TIP3    H211758   5.282   3.815   2.018 -0.1952  0.3351  0.0184
 3946TIP3   OH211759   2.315   5.882   2.092 -0.5324 -0.0641  0.4947
 3946TIP3    H111760   2.392   5.894   2.035 -1.0841 -0.2922 -0.3110
 3946TIP3    H211761   2.311   5.787   2.105  1.0088  0.1746  2.9105
 3947TIP3   OH211762   7.987   6.083   2.156  0.5504 -0.0631  0.0598
 3947TIP3    H111763   7.985   6.148   2.085 -1.5755 -0.2511 -0.0769
 3947TIP3    H211764   7.981   6.135   2.236 -1.3677 -0.0825 -0.0568
 3948TIP3   OH211765   5.473   4.848   2.731  0.2332  0.6740  0.6059
 3948TIP3    H111766   5.415   4.900   2.675 -0.2257 -1.5002 -1.0123
 3948TIP3    H211767   5.415   4.810   2.797 -0.3870 -2.0546 -1.4197
 3949TIP3   OH211768   7.211   3.091   3.314 -0.1794 -0.3098  0.7760
 3949TIP3    H111769   7.238   3.157   3.378 -0.4461  0.4355  0.1152
 3949TIP3    H211770   7.293   3.047   3.290 -0.1073 -0.7560  1.8013
 3950TIP3   OH211771   5.717   4.913   2.660 -0.2246 -0.2736 -0.1885
 3950TIP3    H111772   5.720   4.836   2.602  0.2614 -0.4020  0.0006
 3950TIP3    H211773   5.633   4.906   2.705 -0.9698  0.2559 -1.4626
 3951TIP3   OH211774   6.955   5.795   3.026  0.6079 -0.4478 -0.5058
 3951TIP3    H111775   6.917   5.831   2.945 -0.3770  2.0070  0.9817
 3951TIP3    H211776   7.049   5.800   3.013  0.5059  2.7401 -0.3781
 3952TIP3   OH211777   6.683   2.694   4.890 -0.1805 -0.0717  0.5734
 3952TIP3    H111778   6.671   2.613   4.841 -1.8888  0.4987  0.0110
 3952TIP3    H211779   6.616   2.691   4.958 -1.4967  1.6723 -0.5791
 3953TIP3   OH211780   5.118   5.075   2.067 -0.0161 -0.2681  0.0286
 3953TIP3    H111781   5.042   5.128   2.042 -0.8348 -0.6275  1.7569
 3953TIP3    H211782   5.096   4.987   2.038  1.0079  0.1373 -2.1138
 3954TIP3   OH211783   5.765   5.763   3.036  0.0519  0.2804 -0.9542
 3954TIP3    H111784   5.816   5.694   3.079 -0.1619  1.0773  0.5929
 3954TIP3    H211785   5.674   5.732   3.041 -0.1009  0.8517  0.1521
 3955TIP3   OH211786   8.066   4.822   1.048  0.0113  0.1989 -0.6153
 3955TIP3    H111787   8.046   4.849   0.958  2.9223 -0.4214 -1.5111
 3955TIP3    H211788   8.076   4.904   1.096  1.9015  0.6173 -1.6943
 3956TIP3   OH211789   3.971   4.743   3.300  0.5036 -0.2481 -0.3468
 3956TIP3    H111790   3.906   4.751   3.370  0.1895 -0.5889 -0.5952
 3956TIP3    H211791   3.980   4.832   3.265 -0.9240 -0.4516 -1.2789
 3957TIP3   OH211792   6.106   4.315   3.318 -0.0208  0.0163  0.4048
 3957TIP3    H111793   6.049   4.297   3.243 -0.8244  1.0645  0.7675
 3957TIP3    H211794   6.156   4.392   3.292 -0.1151  0.2263  0.8516
 3958TIP3   OH211795   3.616   4.687   2.142 -0.0110  0.1422  0.2410
 3958TIP3    H111796   3.668   4.707   2.065  2.9342  0.7399  2.2811
 3958TIP3    H211797   3.593   4.594   2.133  1.7767 -0.2378 -0.5054
 3959TIP3   OH211798   0.275   0.574   7.094 -0.3663  0.5999  0.6314
 3959TIP3    H111799   0.231   0.522   7.161 -1.9817 -0.6626 -1.3684
 3959TIP3    H211800   0.357   0.601   7.135 -1.4311  0.0729  3.2046
 3960TIP3   OH211801   7.113   5.310   4.494  0.7385 -0.3144 -0.2166
 3960TIP3    H111802   7.191   5.304   4.440 -0.8294 -1.1493 -2.4301
 3960TIP3    H211803   7.042   5.332   4.433 -1.0725 -1.2695  1.4653
 3961TIP3   OH211804   6.345   3.703   2.174  0.1615 -0.7006 -0.4021
 3961TIP3    H111805   6.357   3.741   2.261  0.7430 -2.5226  0.3463
 3961TIP3    H211806   6.430   3.713   2.131 -0.0231 -0.1127 -0.6261
 3962TIP3   OH211807   4.292   5.510   2.429 -0.0069  0.0057 -0.0499
 3962TIP3    H111808   4.239   5.436   2.459  0.1968 -0.2205 -0.2450
 3962TIP3    H211809   4.319   5.555   2.509  1.8620 -1.5125  0.2038
 3963TIP3   OH211810   3.838   3.175   3.385 -0.5542 -0.1409 -0.0990
 3963TIP3    H111811   3.817   3.092   3.342 -0.7807  1.0183 -2.3148
 3963TIP3    H211812   3.928   3.194   3.358 -0.9464  0.9616 -0.6470
 3964TIP3   OH211813   5.393   6.269   4.814  0.2661  0.2550 -0.1017
 3964TIP3    H111814   5.410   6.174   4.813  0.8358  0.3072  1.7426
 3964TIP3    H211815   5.315   6.280   4.760 -0.2325 -1.3747  0.2415
 3965TIP3   OH211816   5.479   4.307   1.848 -0.7132  0.4460 -0.0070
 3965TIP3    H111817   5.383   4.309   1.849 -0.7436 -0.8092 -0.0340
 3965TIP3    H211818   5.501   4.215   1.861  0.5149  0.9655  1.7215
 3966TIP3   OH211819   6.801   3.479   4.468  0.0907  0.5329 -0.0896
 3966TIP3    H111820   6.819   3.518   4.554 -0.1419  1.8671 -0.6327
 3966TIP3    H211821   6.711   3.505   4.448 -0.3944 -1.1000 -0.0442
 3967TIP3   OH211822   6.321   3.408   4.198  0.3193 -0.2585  0.5498
 3967TIP3    H111823   6.389   3.343   4.181 -0.0726 -0.7478  0.8401
 3967TIP3    H211824   6.366   3.492   4.191  0.4613 -0.4862 -1.5492
 3968TIP3   OH211825   7.932   3.781   2.002  0.0630 -0.2052  0.4741
 3968TIP3    H111826   7.961   3.834   1.928  1.2195 -2.3810 -0.6715
 3968TIP3    H211827   7.836   3.791   2.003  0.2769  2.2897  0.6375
 3969TIP3   OH211828   6.354   3.791   2.432 -0.3018 -0.0451 -0.4048
 3969TIP3    H111829   6.302   3.870   2.446 -0.4822 -0.2037 -0.1684
 3969TIP3    H211830   6.422   3.795   2.500 -0.1871  0.0085 -0.5215
 3970TIP3   OH211831   5.445   3.572   1.694  0.0030  0.0246  0.0577
 3970TIP3    H111832   5.470   3.585   1.603  1.1051 -0.9356  0.2201
 3970TIP3    H211833   5.372   3.510   1.691  0.4218 -0.4598 -0.1322
 3971TIP3   OH211834   6.345   5.269   1.049  0.1828 -0.0647 -0.1086
 3971TIP3    H111835   6.255   5.289   1.072  0.0926 -2.8015  2.1803
 3971TIP3    H211836   6.339   5.223   0.965 -0.4623  0.5203 -0.3867
 3972TIP3   OH211837   6.240   5.475   1.412  0.6084 -0.6225 -0.0168
 3972TIP3    H111838   6.276   5.390   1.385 -2.4688 -2.7350  2.2358
 3972TIP3    H211839   6.223   5.466   1.506 -1.8093  1.7105 -0.1620
 3973TIP3   OH211840   3.700   4.571   0.165 -0.1919  0.5397 -0.6381
 3973TIP3    H111841   3.781   4.600   0.207 -1.2616  1.7500  0.6357
 3973TIP3    H211842   3.678   4.641   0.104 -2.2553  2.0441  1.7339
 3974TIP3   OH211843   3.545   4.863   0.193 -0.3904  0.2965 -0.4727
 3974TIP3    H111844   3.483   4.812   0.140  1.2970  0.1307 -2.3435
 3974TIP3    H211845   3.512   4.952   0.188  0.0278  0.3622 -2.2499
 3975TIP3   OH211846   6.778   2.503   2.213 -0.4437 -0.0535 -0.9258
 3975TIP3    H111847   6.839   2.505   2.139 -0.1688  1.4190 -0.6812
 3975TIP3    H211848   6.825   2.458   2.282 -0.8681 -1.8503 -1.7765
 3976TIP3   OH211849   7.275   3.541   3.260 -0.6875  0.5439 -0.3705
 3976TIP3    H111850   7.302   3.630   3.284 -0.6722  0.6222 -0.6737
 3976TIP3    H211851   7.188   3.553   3.219 -0.1244  0.5726 -1.5878
 3977TIP3   OH211852   5.654   3.023   3.097  0.1285  0.0154  0.3083
 3977TIP3    H111853   5.721   3.024   3.165  1.3139 -0.4250 -0.8450
 3977TIP3    H211854   5.701   3.004   3.016 -1.4231 -0.6277 -0.4724
 3978TIP3   OH211855   4.395   4.163   4.075 -0.2790  0.4037 -0.4289
 3978TIP3    H111856   4.308   4.149   4.038  0.4168  0.3269 -2.0733
 3978TIP3    H211857   4.402   4.258   4.085 -0.5184  0.4175 -0.4014
 3979TIP3   OH211858   3.955   4.490   1.916 -0.6016 -0.0238 -0.5284
 3979TIP3    H111859   4.009   4.410   1.914 -0.2621  0.1610  0.7164
 3979TIP3    H211860   4.019   4.561   1.916 -0.8539  0.2031  0.5196
 3980TIP3   OH211861   5.094   4.936   1.340 -0.0368  0.1303  0.4064
 3980TIP3    H111862   5.174   4.886   1.355  0.4337  0.3549 -1.2350
 3980TIP3    H211863   5.065   4.908   1.253  0.5056  3.0398 -0.7666
 3981TIP3   OH211864   6.347   0.053   3.677 -0.6097  0.1386 -0.4870
 3981TIP3    H111865   6.293   0.059   3.598 -1.4579 -1.0457 -0.0091
 3981TIP3    H211866   6.437   0.062   3.646 -0.9079 -0.8610 -1.6588
 3982TIP3   OH211867   6.569   2.106   2.415  0.3144  0.1340  0.2378
 3982TIP3    H111868   6.547   2.089   2.506  0.3459  1.1275  0.4435
 3982TIP3    H211869   6.499   2.164   2.384 -1.2560 -2.4239 -1.2055
 3983TIP3   OH211870   4.453   2.532   1.194  0.1377  0.1034 -0.0458
 3983TIP3    H111871   4.450   2.623   1.224 -0.3845  0.2697 -0.6007
 3983TIP3    H211872   4.508   2.487   1.258  2.4990  1.3262 -1.1609
 3984TIP3   OH211873   5.322   4.796   2.345  0.2253 -0.1266  0.0154
 3984TIP3    H111874   5.416   4.785   2.362  0.7397  0.6856 -2.2142
 3984TIP3    H211875   5.293   4.710   2.314  0.7103  0.2359 -1.4480
 3985TIP3   OH211876   6.149   4.513   2.109 -0.0752  0.1111 -0.3216
 3985TIP3    H111877   6.210   4.513   2.183 -0.3195  1.5506 -0.1122
 3985TIP3    H211878   6.166   4.595   2.063 -2.1224  0.7517 -0.0093
 3986TIP3   OH211879   3.351   1.410   1.854 -0.0952 -0.6376  0.1038
 3986TIP3    H111880   3.420   1.472   1.878 -0.7731  0.3797 -0.5161
 3986TIP3    H211881   3.381   1.371   1.772  0.1504 -0.8546  0.2939
 3987TIP3   OH211882   0.089   1.312   7.128  0.4862  0.8415  0.9078
 3987TIP3    H111883   0.111   1.306   7.035  0.3596 -1.2005  0.9873
 3987TIP3    H211884   0.076   1.406   7.143 -1.8338  1.0193 -1.6629
 3988TIP3   OH211885   6.599   6.266   2.417 -0.2627  0.2239  0.2509
 3988TIP3    H111886   6.691   6.267   2.392  0.0732 -0.2556  1.4066
 3988TIP3    H211887   6.554   6.219   2.346  0.5591 -0.5463  0.2321
 3989TIP3   OH211888   5.929   4.158   5.165 -0.2103 -0.4902 -0.1958
 3989TIP3    H111889   5.861   4.174   5.230  0.9693  1.6090  0.5730
 3989TIP3    H211890   5.996   4.223   5.184  1.2248 -1.3797 -2.0432
 3990TIP3   OH211891   6.469   4.018   3.355  0.2069  0.6589 -0.2103
 3990TIP3    H111892   6.559   4.039   3.381 -0.0088  0.3786  0.7822
 3990TIP3    H211893   6.448   4.081   3.286  1.2071  0.6501 -0.5292
 3991TIP3   OH211894   6.167   3.290   1.694 -0.5305  0.2789 -0.6444
 3991TIP3    H111895   6.191   3.217   1.750 -3.0300  0.4791  0.7522
 3991TIP3    H211896   6.133   3.250   1.614 -1.7453 -0.0728  0.0526
 3992TIP3   OH211897   5.939   4.451   2.373 -0.5937 -0.4360  0.3987
 3992TIP3    H111898   5.965   4.398   2.298 -0.9616  1.0311 -0.7877
 3992TIP3    H211899   5.853   4.416   2.398 -1.3950  0.3663 -1.1511
 3993TIP3   OH211900   6.262   2.436   2.736  0.3773  0.2158 -0.1405
 3993TIP3    H111901   6.234   2.397   2.653  0.5814  0.4525 -0.3205
 3993TIP3    H211902   6.303   2.518   2.711  2.4951 -0.7792  0.0082
 3994TIP3   OH211903   7.174   4.905   2.651  0.1085 -0.0383  0.4021
 3994TIP3    H111904   7.186   4.827   2.598 -1.3804  0.5771 -0.9121
 3994TIP3    H211905   7.174   4.874   2.742 -1.1181 -1.6497 -0.1367
 3995TIP3   OH211906   6.146   5.222   2.733  0.1124 -0.2782 -0.4977
 3995TIP3    H111907   6.058   5.215   2.771  0.8214  1.4574  1.5137
 3995TIP3    H211908   6.192   5.145   2.766 -0.3067 -0.6174 -0.6870
 3996TIP3   OH211909   6.211   4.116   1.963 -0.3353 -0.0134 -0.2566
 3996TIP3    H111910   6.172   4.055   1.901 -0.8553  0.4399 -0.3822
 3996TIP3    H211911   6.305   4.099   1.959 -0.6034 -1.9304  0.8987
 3997TIP3   OH211912   7.611   5.408   2.098 -0.0925 -0.0660 -0.3221
 3997TIP3    H111913   7.675   5.345   2.130 -0.0952 -0.1089 -0.4008
 3997TIP3    H211914   7.526   5.372   2.125 -0.0318  0.4511  0.5712
 3998TIP3   OH211915   4.306   5.325   2.788 -0.6939  0.2927  0.7061
 3998TIP3    H111916   4.317   5.404   2.735  0.2324 -0.5563 -0.3984
 3998TIP3    H211917   4.395   5.294   2.803 -1.0755 -0.9219  0.5226
 3999TIP3   OH211918   6.664   4.714   1.583  0.6381  0.2815  0.3828
 3999TIP3    H111919   6.573   4.743   1.584  0.2980 -0.7304  1.9703
 3999TIP3    H211920   6.701   4.750   1.663  1.6368  0.6914 -0.2630
 4000TIP3   OH211921   6.736   3.582   3.810  0.6770 -0.8052  0.0321
 4000TIP3    H111922   6.655   3.628   3.789  0.5663 -0.9728  0.0891
 4000TIP3    H211923   6.790   3.647   3.855  0.4856 -0.7598  0.1945
 4001TIP3   OH211924   5.541   3.765   3.057  0.2079  0.2339  1.0053
 4001TIP3    H111925   5.506   3.854   3.068  0.3107  0.3989  0.0976
 4001TIP3    H211926   5.477   3.721   3.001 -0.3511 -0.5859  2.2712
 4002TIP3   OH211927   5.850   5.520   2.236 -0.1512 -0.0040  0.0266
 4002TIP3    H111928   5.854   5.425   2.243 -0.6288  0.0080  0.4680
 4002TIP3    H211929   5.852   5.538   2.142 -0.0053 -0.4466 -0.0527
 4003TIP3   OH211930   5.510   3.704   1.462 -0.4209 -0.0946  0.6269
 4003TIP3    H111931   5.449   3.768   1.499 -1.4014 -0.6058 -0.0751
 4003TIP3    H211932   5.596   3.745   1.471 -0.8377  0.5635  1.7999
 4004TIP3   OH211933   6.241   4.003   2.542 -0.1785 -0.7757 -0.7844
 4004TIP3    H111934   6.277   4.091   2.527 -0.9501 -0.0399  1.5004
 4004TIP3    H211935   6.152   4.008   2.507 -0.6484 -0.2481  0.4583
 4005TIP3   OH211936   8.545   1.038   0.904 -0.2004  0.3942 -0.5898
 4005TIP3    H111937   8.455   1.063   0.927 -0.7195 -1.6982 -0.2373
 4005TIP3    H211938   8.585   1.015   0.988  0.2460  0.0069 -0.9062
 4006TIP3   OH211939   5.680   3.206   2.283 -0.5399 -0.2508  0.1893
 4006TIP3    H111940   5.658   3.247   2.367  0.2861  1.0674 -0.2217
 4006TIP3    H211941   5.776   3.214   2.277 -0.3977 -1.9692 -0.0459
 4007TIP3   OH211942   4.166   5.769   1.453  0.4271 -0.2886 -0.2566
 4007TIP3    H111943   4.178   5.864   1.454 -0.7878 -0.1253 -0.3420
 4007TIP3    H211944   4.252   5.734   1.478  0.7666  0.8418  0.2153
 4008TIP3   OH211945   4.027   5.196   2.094 -0.1973  0.5537 -0.4142
 4008TIP3    H111946   4.073   5.279   2.088  1.7160 -0.5173 -0.9651
 4008TIP3    H211947   4.036   5.170   2.186 -2.8754  2.0757  0.3318
 4009TIP3   OH211948   4.992   2.557   0.182  0.3945  0.0160 -0.1473
 4009TIP3    H111949   4.925   2.515   0.127  1.3457  0.3900 -1.6013
 4009TIP3    H211950   4.944   2.585   0.260 -1.2483  0.6871 -1.3634
 4010TIP3   OH211951   7.645   4.704   2.048 -0.4646  0.6397 -0.2442
 4010TIP3    H111952   7.581   4.688   1.978 -0.2759 -0.3853 -0.1918
 4010TIP3    H211953   7.607   4.662   2.125  0.5928 -0.6285 -0.3809
 4011TIP3   OH211954   4.760   4.927   2.162  0.0285 -0.5454  0.2781
 4011TIP3    H111955   4.848   4.925   2.199  0.2026  1.0959  0.0143
 4011TIP3    H211956   4.733   5.019   2.170 -0.4679 -0.4094 -2.4166
 4012TIP3   OH211957   7.596   5.600   0.587  0.0008  0.4937  0.6404
 4012TIP3    H111958   7.617   5.679   0.537 -0.2979 -1.2657 -2.3432
 4012TIP3    H211959   7.679   5.552   0.591 -0.8532 -1.2791 -1.7337
 4013TIP3   OH211960   5.546   2.786   3.184  0.4366  0.0012 -0.3602
 4013TIP3    H111961   5.600   2.739   3.248  0.0113  0.7737  0.5942
 4013TIP3    H211962   5.584   2.874   3.180  0.8199 -0.2193 -1.6176
 4014TIP3   OH211963   8.532   5.843   2.895 -0.3735 -0.5659  0.7081
 4014TIP3    H111964   8.448   5.853   2.940 -1.0438 -2.9045  0.0752
 4014TIP3    H211965   8.591   5.808   2.962 -0.2055  0.0545  0.8806
 4015TIP3   OH211966   5.633   6.067   0.821  0.5792 -0.1320 -0.1170
 4015TIP3    H111967   5.578   6.088   0.896  1.1630  2.3834 -0.3503
 4015TIP3    H211968   5.711   6.121   0.834  1.1090 -0.4268 -2.0263
 4016TIP3   OH211969   5.569   5.205   2.302 -0.0391  0.6137  0.3391
 4016TIP3    H111970   5.516   5.250   2.237  0.9795  1.0563 -0.1941
 4016TIP3    H211971   5.515   5.131   2.329 -0.6458  0.6645 -0.6960
 4017TIP3   OH211972   6.390   2.755   0.959 -0.5207  0.0118 -0.3248
 4017TIP3    H111973   6.441   2.819   1.009 -1.6716  0.2030  0.6032
 4017TIP3    H211974   6.305   2.796   0.946 -0.6104 -0.5124 -1.4563
 4018TIP3   OH211975   5.540   5.550   4.104  0.4619  0.1678 -0.8503
 4018TIP3    H111976   5.583   5.608   4.167 -1.6487 -0.3099  1.1089
 4018TIP3    H211977   5.497   5.609   4.042 -1.3846  0.7725  0.9312
 4019TIP3   OH211978   6.651   2.732   2.296 -0.2563 -0.3887  0.0179
 4019TIP3    H111979   6.667   2.705   2.387  0.9817 -0.0223 -0.0870
 4019TIP3    H211980   6.666   2.653   2.245 -0.8757 -0.5755  0.1176
 4020TIP3   OH211981   6.774   3.402   1.471 -0.6458 -0.4668 -0.1436
 4020TIP3    H111982   6.753   3.484   1.427 -1.9810  0.1253  1.5634
 4020TIP3    H211983   6.801   3.343   1.400  1.3135  1.7194 -1.2598
 4021TIP3   OH211984   3.780   2.356   1.195 -0.1814  0.3146 -0.0186
 4021TIP3    H111985   3.826   2.407   1.262  0.5945 -0.4476  0.0423
 4021TIP3    H211986   3.847   2.296   1.162 -1.0171 -0.4683 -0.2807
 4022TIP3   OH211987   6.195   3.954   4.019  0.0095 -0.1034 -0.2360
 4022TIP3    H111988   6.197   3.859   4.015  0.1639 -0.0720 -1.0993
 4022TIP3    H211989   6.183   3.975   4.111 -0.7296 -0.9739 -0.1341
 4023TIP3   OH211990   6.981   3.681   2.327 -0.0317 -0.2699 -0.2099
 4023TIP3    H111991   7.017   3.644   2.408 -1.1651 -2.3801 -0.6374
 4023TIP3    H211992   6.897   3.718   2.353  0.2991  0.4280 -0.1287
 4024TIP3   OH211993   5.939   3.889   1.451 -0.0058 -0.1859 -0.5477
 4024TIP3    H111994   5.927   3.812   1.396  1.4665  1.0535 -2.6875
 4024TIP3    H211995   6.034   3.904   1.452 -0.1376  0.7180  1.0883
 4025TIP3   OH211996   3.972   1.560   2.659  0.1753  0.1903  0.1845
 4025TIP3    H111997   3.970   1.465   2.668  1.8817  0.1086 -0.2358
 4025TIP3    H211998   3.914   1.578   2.585 -1.5873 -0.3612  1.3884
 4026TIP3   OH211999   8.663   4.798   1.458  0.2570 -0.1809 -0.3048
 4026TIP3    H112000   8.631   4.860   1.393  0.5820  1.6767  1.2545
 4026TIP3    H212001   8.592   4.733   1.467 -0.1611  0.0613 -1.8110
 4027TIP3   OH212002   6.253   3.669   3.995  0.0096 -0.1423 -0.1107
 4027TIP3    H112003   6.330   3.641   4.043 -0.4576  1.8066  1.8630
 4027TIP3    H212004   6.181   3.616   4.030  0.2410 -1.1526 -1.1392
 4028TIP3   OH212005   4.971   3.255   2.147 -0.1646 -0.5440 -0.3344
 4028TIP3    H112006   5.012   3.168   2.143  4.5711  1.6003 -1.2731
 4028TIP3    H212007   5.002   3.293   2.228 -0.8417  0.9563 -0.7603
 4029TIP3   OH212008   5.178   5.155   1.716  0.1522 -0.3192  0.2440
 4029TIP3    H112009   5.236   5.156   1.792  1.1410 -1.6873 -0.4658
 4029TIP3    H212010   5.141   5.243   1.713  1.7127  0.3954  1.0910
 4030TIP3   OH212011   6.813   6.027   5.432  0.2835 -0.5331  0.3822
 4030TIP3    H112012   6.798   6.066   5.518 -1.1256 -0.7094  0.2160
 4030TIP3    H212013   6.894   6.067   5.401  0.8456 -0.5328  1.8258
 4031TIP3   OH212014   5.132   3.056   2.491 -0.1477  0.4120 -0.3505
 4031TIP3    H112015   5.100   3.110   2.564  0.7735  3.1329 -1.9295
 4031TIP3    H212016   5.052   3.022   2.450 -0.7090 -0.0246  1.0594
 4032TIP3   OH212017   5.153   3.060   1.023  0.4086  0.2534 -0.2319
 4032TIP3    H112018   5.193   3.060   0.936  1.6989 -0.6957  0.3465
 4032TIP3    H212019   5.226   3.070   1.083 -0.5433  1.5177  0.7357
 4033TIP3   OH212020   1.129   4.720   1.626  0.1516  1.0710  0.0423
 4033TIP3    H112021   1.058   4.752   1.571 -1.1753 -0.7733  0.6407
 4033TIP3    H212022   1.126   4.625   1.617  3.0541  0.9912 -0.5389
 4034TIP3   OH212023   4.895   3.981   1.967  0.0031  0.3552 -0.4978
 4034TIP3    H112024   4.894   3.909   2.029 -2.0549 -0.8739 -1.8977
 4034TIP3    H212025   4.976   3.970   1.917  1.4681  1.1305  1.6764
 4035TIP3   OH212026   5.613   3.335   3.711  0.3082 -0.4952  0.2392
 4035TIP3    H112027   5.616   3.337   3.615 -1.7517  0.6526  0.1616
 4035TIP3    H212028   5.651   3.419   3.738  0.6190 -0.6902  0.4015
 4036TIP3   OH212029   3.809   4.221   2.091 -0.2299 -0.4654 -0.2131
 4036TIP3    H112030   3.884   4.182   2.135  1.2348  1.3258 -1.0180
 4036TIP3    H212031   3.820   4.196   1.999 -0.6600 -0.2670 -0.3189
 4037TIP3   OH212032   6.605   3.087   2.489 -0.1675 -0.1402  0.0600
 4037TIP3    H112033   6.587   3.140   2.411 -1.2643  0.5120  0.7445
 4037TIP3    H212034   6.531   3.104   2.547  1.4747  0.7093  1.9455
 4038TIP3   OH212035   7.133   5.741   1.717 -0.2524  0.2896 -0.1261
 4038TIP3    H112036   7.148   5.753   1.623  0.0882  1.4841  0.0675
 4038TIP3    H212037   7.182   5.662   1.739 -1.1357 -0.5515 -1.1433
 4039TIP3   OH212038   4.759   3.902   1.729  0.0294  0.1410  0.6435
 4039TIP3    H112039   4.671   3.937   1.715 -0.0605 -0.1514  0.4606
 4039TIP3    H212040   4.788   3.941   1.811 -0.1165  0.5471  0.5018
 4040TIP3   OH212041   6.908   4.216   2.247 -0.7513 -0.7384 -0.2029
 4040TIP3    H112042   6.836   4.279   2.257  0.5756  0.8191 -0.1359
 4040TIP3    H212043   6.870   4.144   2.197 -2.3462  0.0827 -0.2118
 4041TIP3   OH212044   6.138   5.399   2.255 -0.4085  0.3753  0.0615
 4041TIP3    H112045   6.207   5.367   2.312 -2.0663 -2.1609  0.7546
 4041TIP3    H212046   6.066   5.422   2.314 -0.4949  2.1407 -0.6942
 4042TIP3   OH212047   5.954   3.680   3.698 -0.4475 -0.2005  0.3402
 4042TIP3    H112048   5.862   3.666   3.723 -0.3963 -0.7571  0.2242
 4042TIP3    H212049   5.965   3.629   3.617  0.1171 -0.5965  0.6636
 4043TIP3   OH212050   6.681   2.390   2.541 -0.3259  0.1094  0.4170
 4043TIP3    H112051   6.644   2.374   2.628 -0.0189  0.1358  0.5553
 4043TIP3    H212052   6.611   2.369   2.480 -0.8011  0.8622  0.7046
 4044TIP3   OH212053   6.126   4.152   1.546  0.4299 -0.4398 -0.1390
 4044TIP3    H112054   6.039   4.192   1.547  0.7661  0.2889  0.2009
 4044TIP3    H212055   6.182   4.217   1.505  1.0733 -0.3767  0.8181
 4045TIP3   OH212056   6.622   3.727   2.075 -0.3567  0.2783  0.2899
 4045TIP3    H112057   6.683   3.680   2.018 -0.5030 -0.5998  0.8447
 4045TIP3    H212058   6.674   3.748   2.153 -0.7773 -0.5201  0.7857
 4046TIP3   OH212059   7.256   3.950   1.825  0.2662  0.4604  0.5603
 4046TIP3    H112060   7.316   3.908   1.763 -0.0576 -0.0080  0.5651
 4046TIP3    H212061   7.222   3.879   1.879 -0.4778  0.6903  0.4031
 4047TIP3   OH212062   5.991   4.950   3.366  0.0726  0.5471  0.4251
 4047TIP3    H112063   5.972   4.897   3.288 -2.9313  0.1934  1.3366
 4047TIP3    H212064   6.016   4.887   3.433 -0.4420  0.5464  0.6218
 4048TIP3   OH212065   3.678   3.868   4.235  0.5190  0.1412  0.2693
 4048TIP3    H112066   3.735   3.886   4.310  0.9969  0.1109 -0.0801
 4048TIP3    H212067   3.648   3.778   4.249 -0.3965  0.5703  1.0665
 4049TIP3   OH212068   6.132   6.689   2.889 -0.3107 -0.0697 -0.2611
 4049TIP3    H112069   6.072   6.635   2.838  0.3748  0.8137 -2.0295
 4049TIP3    H212070   6.075   6.748   2.939 -0.9374  0.8698 -2.0394
 4050TIP3   OH212071   5.579   3.047   4.854 -0.1331  0.8500  0.6801
 4050TIP3    H112072   5.492   3.082   4.875 -0.9073 -0.8712  0.4438
 4050TIP3    H212073   5.614   3.108   4.790 -0.4755  2.4935  2.0156
 4051TIP3   OH212074   6.406   3.105   3.560  0.2210  0.8846 -0.0890
 4051TIP3    H112075   6.500   3.099   3.576  0.7173  3.9432 -1.5320
 4051TIP3    H212076   6.369   3.140   3.641  0.0911 -1.4682  0.9239
 4052TIP3   OH212077   6.805   3.137   0.805 -0.1889 -0.4861  0.7992
 4052TIP3    H112078   6.760   3.054   0.790 -1.0330 -0.1324  1.2759
 4052TIP3    H212079   6.770   3.196   0.739  1.3161 -0.8288 -0.3248
 4053TIP3   OH212080   5.159   4.179   2.623  0.0713  0.2484 -0.5536
 4053TIP3    H112081   5.214   4.156   2.548 -0.2890 -1.2547 -0.3721
 4053TIP3    H212082   5.098   4.106   2.631  0.5914  0.0237  1.6689
 4054TIP3   OH212083   4.858   2.923   2.446 -0.3030  0.3103 -0.2893
 4054TIP3    H112084   4.792   2.935   2.378 -0.8648 -0.9211  0.0176
 4054TIP3    H212085   4.846   2.832   2.475  0.6104  0.5029  0.7314
 4055TIP3   OH212086   5.264   4.563   2.841 -0.0202  0.1034 -0.2737
 4055TIP3    H112087   5.325   4.508   2.890 -0.6997 -0.5426 -0.1504
 4055TIP3    H212088   5.224   4.620   2.907  0.6451  0.7248 -0.3940
 4056TIP3   OH212089   7.674   3.887   2.545  0.4363  0.6272 -0.3790
 4056TIP3    H112090   7.679   3.878   2.450  1.2134 -1.3819 -0.1748
 4056TIP3    H212091   7.736   3.957   2.566 -1.2584  2.5335 -1.5002
 4057TIP3   OH212092   4.232   4.405   3.594 -0.2794  0.5594 -0.1400
 4057TIP3    H112093   4.163   4.366   3.540  0.6767 -1.0567 -0.2481
 4057TIP3    H212094   4.212   4.498   3.595 -2.2632  0.1676 -0.4502
 4058TIP3   OH212095   6.211   2.965   1.055 -0.4092  0.5456  0.3029
 4058TIP3    H112096   6.117   2.968   1.074 -0.6116 -1.6551 -0.2046
 4058TIP3    H212097   6.250   2.927   1.133 -0.2589 -0.8535 -0.4324
 4059TIP3   OH212098   6.275   4.304   2.439 -0.5960 -0.3283  0.0325
 4059TIP3    H112099   6.276   4.259   2.355  2.9914 -4.0294  1.8841
 4059TIP3    H212100   6.339   4.375   2.430  0.1826 -1.0568 -0.1949
 4060TIP3   OH212101   5.749   2.852   1.744  0.4475 -0.3499 -0.4685
 4060TIP3    H112102   5.735   2.763   1.711  1.1016 -0.7699  0.3642
 4060TIP3    H212103   5.695   2.857   1.822  0.8733 -0.2155 -0.1815
 4061TIP3   OH212104   6.537   4.275   2.685  0.2199  0.0077 -0.1951
 4061TIP3    H112105   6.540   4.370   2.698  0.1914  0.1509 -1.2495
 4061TIP3    H212106   6.449   4.250   2.714  0.2397  0.2894  0.1165
 4062TIP3   OH212107   6.922   5.460   1.866 -0.7323 -0.1327  0.5088
 4062TIP3    H112108   6.917   5.556   1.866  1.2063  0.0107 -1.4344
 4062TIP3    H212109   7.000   5.440   1.814 -0.9477 -2.7677  1.1299
 4063TIP3   OH212110   5.691   4.425   2.526  0.0199  0.4409  0.7717
 4063TIP3    H112111   5.676   4.391   2.614  1.0361 -0.9005  0.4600
 4063TIP3    H212112   5.620   4.387   2.473  1.1652 -1.2964  0.4200
 4064TIP3   OH212113   5.092   4.289   4.794 -0.2322  0.0800  0.3850
 4064TIP3    H112114   5.169   4.278   4.849 -0.5969 -0.9002  0.7147
 4064TIP3    H212115   5.122   4.341   4.720  1.2170 -1.9900 -0.4882
 4065TIP3   OH212116   5.333   3.287   2.402  0.1972  0.2457  0.3924
 4065TIP3    H112117   5.296   3.205   2.370  0.2339  0.8460 -1.2780
 4065TIP3    H212118   5.412   3.260   2.450 -0.4736 -0.7727  0.9412
 4066TIP3   OH212119   4.722   4.646   2.249 -0.2012  0.1889  0.1922
 4066TIP3    H112120   4.644   4.600   2.281 -0.4257 -0.1331 -0.7968
 4066TIP3    H212121   4.687   4.725   2.208  0.0439  0.3117  0.2212
 4067TIP3   OH212122   3.122   3.931   0.107 -0.6534  0.2782 -0.4477
 4067TIP3    H112123   3.182   3.893   0.171 -0.1765  1.3592 -0.2449
 4067TIP3    H212124   3.128   3.873   0.030 -1.9685 -1.5903  0.8176
 4068TIP3   OH212125   3.233   5.257   0.884  0.1271  0.4061  0.2030
 4068TIP3    H112126   3.282   5.304   0.952  0.5602 -0.5691  0.5766
 4068TIP3    H212127   3.246   5.164   0.905 -1.6437  0.1307  0.1240
 4069TIP3   OH212128   5.122   5.728   1.119  0.3675 -0.1727  0.4380
 4069TIP3    H112129   5.035   5.724   1.079  1.0950 -0.2079 -1.1288
 4069TIP3    H212130   5.139   5.639   1.148 -0.3151 -0.0700  1.1845
 4070TIP3   OH212131   6.446   4.391   3.491 -0.5876 -0.1835  0.4448
 4070TIP3    H112132   6.505   4.361   3.561 -0.5758 -1.4854 -0.1116
 4070TIP3    H212133   6.391   4.316   3.473 -2.0068  0.8288  0.5080
 4071TIP3   OH212134   6.517   6.074   1.160 -0.5735 -0.2976 -0.7337
 4071TIP3    H112135   6.488   6.108   1.076  0.2921  0.9558 -0.5249
 4071TIP3    H212136   6.531   6.151   1.215  1.0039 -0.9828 -0.1276
 4072TIP3   OH212137   6.569   5.715   2.773 -0.2781 -0.1746 -0.5225
 4072TIP3    H112138   6.598   5.796   2.732 -2.3582  0.6139 -0.5041
 4072TIP3    H212139   6.646   5.658   2.772  1.0501  1.6008 -1.0212
 4073TIP3   OH212140   6.721   3.943   3.078 -0.0124  0.1303 -0.1386
 4073TIP3    H112141   6.736   3.876   3.012  2.6386  0.2195  0.3108
 4073TIP3    H212142   6.710   4.024   3.028  1.2441  0.0723 -0.5433
 4074TIP3   OH212143   5.551   4.043   1.816  0.1684 -0.7628 -0.6910
 4074TIP3    H112144   5.615   3.994   1.867  1.1123  0.0865 -1.0493
 4074TIP3    H212145   5.480   3.981   1.800 -0.5551 -0.8421  2.3692
 4075TIP3   OH212146   6.349   5.764   3.098 -0.7533  0.1523  0.2149
 4075TIP3    H112147   6.323   5.833   3.037 -0.8486 -0.3935 -0.3604
 4075TIP3    H212148   6.330   5.800   3.184 -0.1669  1.1194 -0.0484
 4076TIP3   OH212149   7.453   4.660   2.789  0.0713 -0.1769  0.0523
 4076TIP3    H112150   7.410   4.593   2.842 -3.1472  2.0943  0.4758
 4076TIP3    H212151   7.421   4.646   2.700  0.2360  0.1209 -0.0564
 4077TIP3   OH212152   4.471   4.619   2.171  0.4351  0.1596  0.1016
 4077TIP3    H112153   4.473   4.692   2.109 -2.0143 -1.1483 -1.5785
 4077TIP3    H212154   4.471   4.541   2.116 -1.2290 -1.0394  1.7493
 4078TIP3   OH212155   7.952   2.853   1.250 -0.3304 -0.0055 -0.2546
 4078TIP3    H112156   7.954   2.757   1.246  0.6348  0.0082 -0.3846
 4078TIP3    H212157   7.863   2.875   1.276  0.6793 -1.1630  4.7401
 4079TIP3   OH212158   7.417   3.619   4.591 -0.0586  0.4065 -0.1259
 4079TIP3    H112159   7.324   3.595   4.599  0.2413 -1.1433 -1.0927
 4079TIP3    H212160   7.416   3.709   4.559 -1.2203  1.2734  2.1785
 4080TIP3   OH212161   5.774   5.272   1.409  0.3144  0.0417  0.1399
 4080TIP3    H112162   5.792   5.366   1.412 -0.4606  0.2835 -1.9775
 4080TIP3    H212163   5.679   5.266   1.416  0.2930 -0.5380 -0.6536
 4081TIP3   OH212164   5.064   6.078   3.850  0.3212  0.1068 -0.2199
 4081TIP3    H112165   5.117   5.998   3.841 -1.6884 -1.2821  0.0192
 4081TIP3    H212166   5.102   6.123   3.925  1.7247 -0.4256 -0.5906
 4082TIP3   OH212167   6.519   2.448   3.389 -0.4093 -0.1210 -0.4924
 4082TIP3    H112168   6.480   2.361   3.390 -0.7328  0.0267  1.4118
 4082TIP3    H212169   6.459   2.501   3.336 -0.3440 -0.9785 -1.4417
 4083TIP3   OH212170   8.081   3.936   1.391 -0.0197  0.1655 -0.2728
 4083TIP3    H112171   8.064   3.928   1.485  0.0193  0.3520 -0.2500
 4083TIP3    H212172   8.123   4.021   1.381 -0.6061  0.4241 -0.5421
 4084TIP3   OH212173   6.426   2.674   3.545 -0.1229 -0.3087  0.1499
 4084TIP3    H112174   6.475   2.739   3.493  0.4023  0.6261  1.7752
 4084TIP3    H212175   6.468   2.591   3.524  0.3744  0.1129 -0.5772
 4085TIP3   OH212176   4.520   3.662   2.640 -0.0601  0.1401 -0.4079
 4085TIP3    H112177   4.519   3.613   2.722 -1.7802  2.9093  1.2970
 4085TIP3    H212178   4.591   3.726   2.651 -0.9894  1.2293 -0.6035
 4086TIP3   OH212179   7.530   5.463   1.433 -0.1657 -0.0932  0.5156
 4086TIP3    H112180   7.495   5.543   1.471 -0.5242  0.5764 -1.1850
 4086TIP3    H212181   7.521   5.398   1.502 -2.1708  0.7351  1.0556
 4087TIP3   OH212182   6.670   4.195   3.395  0.5072 -0.4863  0.1204
 4087TIP3    H112183   6.667   4.291   3.401  1.3575 -0.5394  1.7815
 4087TIP3    H212184   6.740   4.177   3.332  0.9763 -0.0134  0.4917
 4088TIP3   OH212185   7.698   2.542   2.362  0.0461  0.5958 -0.8058
 4088TIP3    H112186   7.706   2.570   2.271 -2.1980  0.2364 -1.1384
 4088TIP3    H212187   7.704   2.622   2.413 -0.7103  1.0323 -1.4009
 4089TIP3   OH212188   6.815   3.059   1.750 -0.3363 -0.0104  0.1568
 4089TIP3    H112189   6.783   3.038   1.663  1.6389 -0.5654 -0.4643
 4089TIP3    H212190   6.901   3.098   1.736 -0.7929  1.6454  1.7567
 4090TIP3   OH212191   4.484   4.885   1.553  0.1426  0.2496  0.3207
 4090TIP3    H112192   4.420   4.936   1.602  0.9650  1.5036  0.0983
 4090TIP3    H212193   4.519   4.823   1.617  0.2442  0.9860  0.9831
 4091TIP3   OH212194   4.194   4.467   2.490 -0.0615 -0.5688  0.2524
 4091TIP3    H112195   4.182   4.417   2.409  0.5211 -1.9551  0.9988
 4091TIP3    H212196   4.280   4.507   2.481 -1.4571  2.1690 -1.3134
 4092TIP3   OH212197   6.544   4.772   3.578 -0.2587 -0.0091  0.3664
 4092TIP3    H112198   6.494   4.849   3.549  0.9523  0.2398 -1.1609
 4092TIP3    H212199   6.479   4.702   3.585 -0.9016  0.4243 -1.1155
 4093TIP3   OH212200   7.540   0.694   2.967 -0.0701  0.6324 -0.2071
 4093TIP3    H112201   7.461   0.647   2.940  1.1259 -1.3311 -0.4122
 4093TIP3    H212202   7.580   0.637   3.033  1.0549  1.7065  0.0608
 4094TIP3   OH212203   3.809   2.402   2.759 -0.7246  0.6775  0.0011
 4094TIP3    H112204   3.748   2.452   2.813  0.2226  1.0655  0.7419
 4094TIP3    H212205   3.832   2.461   2.688  0.7304  1.4843  1.1149
 4095TIP3   OH212206   5.363   4.606   1.514  0.4387  0.0854 -0.5426
 4095TIP3    H112207   5.359   4.682   1.457  0.4677  0.2597 -0.3094
 4095TIP3    H212208   5.407   4.539   1.461  0.1890  0.1517 -0.8345
 4096TIP3   OH212209   5.981   1.132   2.946 -0.3235  0.8024 -0.3228
 4096TIP3    H112210   6.003   1.059   2.887  0.0825  1.0949 -0.5372
 4096TIP3    H212211   6.034   1.205   2.915 -1.5722  1.5104 -0.7948
 4097TIP3   OH212212   3.548   4.600   3.770 -0.2746  0.1623 -0.1436
 4097TIP3    H112213   3.552   4.505   3.759  0.3859  0.1453  0.2233
 4097TIP3    H212214   3.551   4.614   3.864 -2.4639  0.4694 -0.1002
 4098TIP3   OH212215   5.613   4.960   2.097  0.2569  0.8969  0.4101
 4098TIP3    H112216   5.553   4.959   2.022  1.5724  2.9834 -0.7235
 4098TIP3    H212217   5.623   5.052   2.119  1.3077  0.4280  2.0129
 4099TIP3   OH212218   7.483   5.275   3.240  0.4352  0.3092  0.0412
 4099TIP3    H112219   7.441   5.202   3.287  0.7150 -0.7547 -1.3476
 4099TIP3    H212220   7.481   5.347   3.303 -0.2115 -0.7715  1.2979
 4100TIP3   OH212221   5.841   5.977   4.179 -0.4798 -0.0717 -0.0795
 4100TIP3    H112222   5.801   6.065   4.180 -0.8695 -0.2438  0.9937
 4100TIP3    H212223   5.774   5.921   4.219 -0.1828 -0.8345 -0.6609
 4101TIP3   OH212224   7.894   2.770   2.111  0.3981 -0.2735 -0.4303
 4101TIP3    H112225   7.801   2.758   2.090  0.3201 -1.4653  0.5525
 4101TIP3    H212226   7.939   2.700   2.064  1.0541  1.4673 -2.5088
 4102TIP3   OH212227   3.174   4.381   0.377 -0.4652 -0.4773 -0.2476
 4102TIP3    H112228   3.144   4.336   0.298  0.0299  0.8211 -1.1936
 4102TIP3    H212229   3.264   4.352   0.389  0.0925  0.7890 -1.2711
 4103TIP3   OH212230   4.796   4.023   4.365  0.2197  0.7491 -0.0254
 4103TIP3    H112231   4.762   4.112   4.348  0.3141  0.8693  0.4123
 4103TIP3    H212232   4.863   4.036   4.432 -0.5832  0.2036  0.9078
 4104TIP3   OH212233   7.238   5.781   1.985  0.1109  0.3479 -0.1682
 4104TIP3    H112234   7.156   5.788   1.936 -0.2507 -0.0509  0.3692
 4104TIP3    H212235   7.305   5.808   1.923 -0.5097  1.4987 -0.3500
 4105TIP3   OH212236   1.279   2.956   5.832  0.0833  0.0806 -0.0212
 4105TIP3    H112237   1.277   3.036   5.885 -1.9622 -0.6142  1.0019
 4105TIP3    H212238   1.228   2.978   5.755  1.2379  0.3895 -0.7143
 4106TIP3   OH212239   7.423   5.933   2.764  0.3016  0.3408 -0.1534
 4106TIP3    H112240   7.412   5.941   2.669  0.3978  1.4706 -0.0686
 4106TIP3    H212241   7.433   5.839   2.778  1.0640  0.2274 -1.3477
 4107TIP3   OH212242   5.134   4.478   3.478  0.2341 -0.2543  0.1349
 4107TIP3    H112243   5.056   4.423   3.479 -0.6899  0.9713 -1.8663
 4107TIP3    H212244   5.170   4.469   3.390  1.9999 -0.2813  0.8183
 4108TIP3   OH212245   6.849   6.171   4.134 -0.5834 -0.1241 -0.9105
 4108TIP3    H112246   6.921   6.170   4.198 -2.2211 -3.4911  1.0364
 4108TIP3    H212247   6.782   6.226   4.175 -1.4831 -1.9740  0.1630
 4109TIP3   OH212248   6.824   4.026   2.648 -0.0439  0.0638  0.1583
 4109TIP3    H112249   6.893   4.092   2.635 -0.2871  0.4756  0.8769
 4109TIP3    H212250   6.871   3.946   2.671  0.2770 -0.1450 -1.2056
 4110TIP3   OH212251   7.851   5.950   0.324  0.5261  0.0014 -0.1546
 4110TIP3    H112252   7.828   5.895   0.399  0.9700  1.7964  1.3409
 4110TIP3    H212253   7.773   6.002   0.307  0.4698 -0.3104 -0.8854
 4111TIP3   OH212254   5.306   2.710   2.007  0.0471 -0.2821  0.5666
 4111TIP3    H112255   5.294   2.746   2.095 -0.9871  1.8922 -0.4343
 4111TIP3    H212256   5.221   2.671   1.986 -0.7843  2.1505 -0.7503
 4112TIP3   OH212257   7.399   4.137   1.626 -0.0625 -0.0769  0.1970
 4112TIP3    H112258   7.409   4.042   1.619 -1.2586 -0.2121  0.1804
 4112TIP3    H212259   7.382   4.152   1.719  0.4447  0.1506  0.2515
 4113TIP3   OH212260   3.976   3.195   0.936  0.9183  0.1622  0.0045
 4113TIP3    H112261   3.899   3.218   0.885 -0.2006 -0.1535  1.5348
 4113TIP3    H212262   3.963   3.237   1.021  2.3687  0.0009  0.3301
 4114TIP3   OH212263   4.471   1.669   0.409 -0.5880  0.4169  0.1268
 4114TIP3    H112264   4.542   1.631   0.462 -0.0337  0.8622 -0.2954
 4114TIP3    H212265   4.417   1.594   0.385  0.1742 -0.0309 -0.2056
 4115TIP3   OH212266   5.947   1.336   1.011 -0.0478  0.6023  0.1494
 4115TIP3    H112267   5.923   1.246   1.034 -0.0169  0.3133 -0.9211
 4115TIP3    H212268   5.969   1.377   1.094  0.6551 -0.6030  0.5710
 4116TIP3   OH212269   5.767   3.166   1.222 -0.6542  0.4884  0.6041
 4116TIP3    H112270   5.761   3.164   1.318  1.3299 -0.1583  0.7213
 4116TIP3    H212271   5.681   3.134   1.192 -1.4335  1.0772  2.1464
 4117TIP3   OH212272   7.091   2.884   1.645 -0.3944  0.1959  0.5554
 4117TIP3    H112273   7.012   2.929   1.614 -1.1272  0.1431  2.2789
 4117TIP3    H212274   7.123   2.939   1.716  1.2500  0.3174 -0.2730
 4118TIP3   OH212275   2.175   3.746   0.940  0.1329 -0.2117  0.1291
 4118TIP3    H112276   2.179   3.711   0.851  0.9238 -1.0899  0.4954
 4118TIP3    H212277   2.118   3.685   0.988 -1.6460  1.1766 -0.1624
 4119TIP3   OH212278   3.794   4.409   1.400  0.7506 -0.1352 -0.4733
 4119TIP3    H112279   3.852   4.336   1.379  2.7056  1.5219 -0.8647
 4119TIP3    H212280   3.799   4.467   1.324 -1.1648  0.2191 -0.3758
 4120TIP3   OH212281   6.272   2.223   1.059 -0.2067 -0.4099 -0.1769
 4120TIP3    H112282   6.263   2.183   0.973  0.0536 -0.9520  0.0409
 4120TIP3    H212283   6.326   2.301   1.044 -0.5016 -0.2813 -0.5645
 4121TIP3   OH212284   6.644   3.699   2.984 -0.8750  0.1697 -0.6952
 4121TIP3    H112285   6.650   3.613   2.943  2.5537  0.2379 -0.4903
 4121TIP3    H212286   6.636   3.681   3.077 -1.2943  0.0824 -0.7461
 4122TIP3   OH212287   7.348   5.391   2.616 -0.2353  0.1191  0.7155
 4122TIP3    H112288   7.337   5.297   2.602  1.0635  0.0453  0.1329
 4122TIP3    H212289   7.438   5.409   2.589  0.0145  1.2665  2.2212
 4123TIP3   OH212290   5.428   3.508   3.909 -0.3187  0.0426  0.1933
 4123TIP3    H112291   5.515   3.535   3.940 -0.1260 -0.6165  0.2308
 4123TIP3    H212292   5.446   3.447   3.837 -0.7510  0.0982  0.0355
 4124TIP3   OH212293   5.680   3.629   1.833  0.3793  0.5903 -0.6077
 4124TIP3    H112294   5.606   3.639   1.773 -0.7299  0.5683  0.7367
 4124TIP3    H212295   5.667   3.543   1.873  0.2401  1.2450  0.7981
 4125TIP3   OH212296   4.023   3.445   2.289  0.2035 -0.4580  0.7080
 4125TIP3    H112297   4.048   3.522   2.340  1.0015  0.2911 -0.7792
 4125TIP3    H212298   3.935   3.464   2.258  0.1880 -0.3908  0.7921
 4126TIP3   OH212299   6.002   4.253   4.656 -0.1596  0.4568  0.0768
 4126TIP3    H112300   6.010   4.158   4.651 -2.0341  0.2701  0.3633
 4126TIP3    H212301   6.042   4.277   4.739  1.9135  0.1247 -0.7983
 4127TIP3   OH212302   5.994   5.697   1.912  0.2602 -0.0587 -0.1789
 4127TIP3    H112303   5.981   5.604   1.894  1.5738 -0.3100  0.1204
 4127TIP3    H212304   5.919   5.721   1.967 -1.2864 -0.3809 -2.0766
 4128TIP3   OH212305   7.759   5.126   1.318 -0.7535 -0.4296 -0.7061
 4128TIP3    H112306   7.705   5.076   1.257 -0.1300 -0.5376 -1.1746
 4128TIP3    H212307   7.759   5.215   1.283  0.2130 -0.6477 -1.2909
 4129TIP3   OH212308   6.576   5.113   3.181 -0.3384 -0.0369 -0.2309
 4129TIP3    H112309   6.522   5.035   3.169  0.2740 -0.6017  0.5848
 4129TIP3    H212310   6.656   5.080   3.223 -0.9415  1.3421  2.0439
 4130TIP3   OH212311   6.535   4.945   2.630  0.6440 -0.0799 -0.9287
 4130TIP3    H112312   6.489   4.888   2.691  1.7346  2.1788  2.1230
 4130TIP3    H212313   6.468   4.972   2.567 -1.1751 -0.3023  0.8691
 4131TIP3   OH212314   7.600   6.431   2.393  0.1159 -0.0279 -0.9047
 4131TIP3    H112315   7.559   6.362   2.444 -1.0271  0.8700 -0.5914
 4131TIP3    H212316   7.662   6.472   2.453 -2.1222  1.8450  0.2061
 4132TIP3   OH212317   8.499   2.626   1.873 -0.1085  0.0910 -0.4972
 4132TIP3    H112318   8.468   2.715   1.891 -0.2475 -0.2948  1.3259
 4132TIP3    H212319   8.582   2.638   1.827 -0.5583  1.1586 -1.0406
 4133TIP3   OH212320   7.563   3.995   3.752 -0.2863 -0.0120  0.5434
 4133TIP3    H112321   7.523   4.060   3.696  0.0510 -0.2027  0.0758
 4133TIP3    H212322   7.652   4.028   3.769  0.8433 -1.6298 -1.9062
 4134TIP3   OH212323   6.282   5.758   2.209  0.3301  0.5803  0.0240
 4134TIP3    H112324   6.313   5.673   2.240 -1.3339  0.3500  1.1266
 4134TIP3    H212325   6.359   5.815   2.211  0.4183  0.4159  4.1188
 4135TIP3   OH212326   5.118   1.212   6.677  0.4106 -0.0649 -0.1126
 4135TIP3    H112327   5.123   1.116   6.673  0.4117 -0.0864  0.4255
 4135TIP3    H212328   5.176   1.236   6.749 -1.4040  0.1954  1.2926
 4136TIP3   OH212329   7.678   4.621   4.039  0.1123 -0.4873  0.1674
 4136TIP3    H112330   7.765   4.592   4.066  0.4095 -0.5514 -0.8374
 4136TIP3    H212331   7.683   4.628   3.943 -1.4566 -2.1022 -0.0666
 4137TIP3   OH212332   8.106   3.163   1.291 -0.0573 -0.7756 -0.3304
 4137TIP3    H112333   8.123   3.120   1.375 -1.8733 -2.6310 -0.8714
 4137TIP3    H212334   8.016   3.138   1.270 -0.0570  0.7433 -2.2038
 4138TIP3   OH212335   7.210   3.797   2.254  0.1574 -0.1691 -0.0562
 4138TIP3    H112336   7.141   3.731   2.261  0.1116 -0.1364 -0.2172
 4138TIP3    H212337   7.181   3.868   2.311  0.1842 -0.2664  0.0802
 4139TIP3   OH212338   7.542   4.871   1.664  0.3706  0.3011 -0.2623
 4139TIP3    H112339   7.503   4.890   1.578  1.3291  0.3781 -0.6865
 4139TIP3    H212340   7.603   4.943   1.678  1.7596 -0.8204 -0.4717
 4140TIP3   OH212341   0.831   4.665   0.595  0.0127  0.1627 -0.5079
 4140TIP3    H112342   0.918   4.624   0.599  0.7060  1.7098  0.8804
 4140TIP3    H212343   0.842   4.736   0.531  0.3229  1.5299  1.0085
 4141TIP3   OH212344   8.008   3.531   1.347 -0.4702  0.0607  0.0521
 4141TIP3    H112345   8.043   3.614   1.315  0.0523 -0.2273 -0.1199
 4141TIP3    H212346   7.937   3.510   1.286  1.2515 -1.0595 -1.6287
 4142TIP3   OH212347   8.083   1.828   2.033 -0.1684  0.2098  0.4917
 4142TIP3    H112348   8.058   1.801   2.121  0.3481  2.0922  1.2285
 4142TIP3    H212349   8.176   1.849   2.039  0.1008 -0.5351 -0.7386
 4143TIP3   OH212350   8.454   2.489   1.645  0.6766  0.3391 -0.0443
 4143TIP3    H112351   8.363   2.461   1.636  1.2010 -1.1431 -0.8426
 4143TIP3    H212352   8.463   2.511   1.737 -0.3237 -0.0805  0.1593
 4144TIP3   OH212353   8.047   5.222   2.040 -0.4876 -0.0618 -0.2832
 4144TIP3    H112354   8.109   5.288   2.072 -0.9415  0.3330 -0.2106
 4144TIP3    H212355   8.087   5.138   2.062  0.1931  0.1890 -0.5582
 4145TIP3   OH212356   7.702   6.234   1.871  0.2933 -0.1192 -0.5710
 4145TIP3    H112357   7.677   6.300   1.807  0.0569  0.6196  0.2612
 4145TIP3    H212358   7.658   6.262   1.952  1.6257 -0.3080  0.2349
 4146TIP3   OH212359   6.570   5.619   2.313  0.4564 -0.0358 -0.0715
 4146TIP3    H112360   6.661   5.620   2.283 -0.4897  2.5510 -3.1508
 4146TIP3    H212361   6.526   5.555   2.256 -0.0442  0.0833  0.1750
 4147TIP3   OH212362   7.882   4.838   1.445  0.1150 -0.4121  0.2250
 4147TIP3    H112363   7.827   4.914   1.428  0.7282  0.0814  0.4329
 4147TIP3    H212364   7.897   4.799   1.359  3.9458  2.5811 -0.6183
 4148TIP3   OH212365   7.519   3.165   1.228  0.2408  0.3211 -0.0896
 4148TIP3    H112366   7.459   3.196   1.296 -0.6426 -1.1237 -0.1962
 4148TIP3    H212367   7.579   3.106   1.274  0.5148  0.4412 -0.2941
 4149TIP3   OH212368   6.499   4.281   1.399 -0.3696 -0.4087  0.0597
 4149TIP3    H112369   6.469   4.317   1.315  2.5924 -1.4478 -1.5535
 4149TIP3    H212370   6.512   4.357   1.455  0.5439  0.6026 -1.4765
 4150TIP3   OH212371   4.495   3.477   2.867 -0.1415 -0.2598 -0.0883
 4150TIP3    H112372   4.407   3.501   2.895 -0.0618 -0.8191  0.6544
 4150TIP3    H212373   4.549   3.489   2.945  0.2135 -1.1517 -0.1997
 4151TIP3   OH212374   0.684   6.252   0.440  0.2073  0.1952  0.2056
 4151TIP3    H112375   0.617   6.210   0.387 -0.8220  1.4847  0.4435
 4151TIP3    H212376   0.652   6.244   0.530  0.9291 -0.1767  0.4309
 4152TIP3   OH212377   7.100   4.824   1.269  0.7224 -0.6366  0.2962
 4152TIP3    H112378   7.174   4.818   1.329  1.7056  1.5430 -0.6279
 4152TIP3    H212379   7.027   4.852   1.324  1.5050  0.8822  0.5913
 4153TIP3   OH212380   8.299   3.042   2.670 -0.1665  0.0540  0.1022
 4153TIP3    H112381   8.270   2.978   2.735 -0.2909 -0.8354 -0.8043
 4153TIP3    H212382   8.393   3.047   2.681 -0.0707 -0.7991 -0.2565
 4154TIP3   OH212383   4.988   0.897   7.114 -0.1949 -0.3823  0.2046
 4154TIP3    H112384   5.023   0.856   7.193 -0.3477 -2.0515 -0.5697
 4154TIP3    H212385   4.919   0.955   7.145 -0.8217 -1.6664  1.2384
 4155TIP3   OH212386   8.566   5.279   2.302  0.1003 -0.5209  0.4792
 4155TIP3    H112387   8.608   5.200   2.336  1.4202  0.2698  0.7047
 4155TIP3    H212388   8.609   5.294   2.218 -0.7833 -0.5490  0.0195
 4156TIP3   OH212389   4.565   0.061   7.228 -0.1010 -0.2025 -0.5798
 4156TIP3    H112390   4.648   0.072   7.181  0.0332  3.6463  0.3657
 4156TIP3    H212391   4.508   0.016   7.166  1.8782 -0.4733 -2.2661
 4157TIP3   OH212392   8.273   4.336   3.569 -0.0052 -0.5572  0.2331
 4157TIP3    H112393   8.303   4.283   3.644 -0.5416 -0.0739  0.7939
 4157TIP3    H212394   8.181   4.313   3.559  0.0311 -0.5143 -0.1933
 4158TIP3   OH212395   7.075   4.241   2.713 -0.3639  0.3168 -0.2673
 4158TIP3    H112396   7.042   4.230   2.802  1.7862  0.2182  0.5610
 4158TIP3    H212397   7.097   4.334   2.707  2.6364 -0.3004  0.4854
 4159TIP3   OH212398   0.728   3.503   3.007  0.4585 -0.0931  0.4322
 4159TIP3    H112399   0.694   3.418   2.980 -1.2100  0.8729 -0.6467
 4159TIP3    H212400   0.745   3.549   2.925  2.0300  0.3526  1.0057
 4160TIP3   OH212401   8.564   4.095   0.030  0.0124 -0.2823 -0.0158
 4160TIP3    H112402   8.502   4.136   0.090 -2.5461  0.3343 -2.9666
 4160TIP3    H212403   8.646   4.143   0.044 -1.0504  1.1258  1.5425
 4161TIP3   OH212404   8.842   4.671   3.744  0.1492 -0.2685 -0.1814
 4161TIP3    H112405   8.929   4.685   3.708 -0.8251 -0.2994 -2.6364
 4161TIP3    H212406   8.839   4.578   3.767  0.9531 -0.1338  0.4761
 4162TIP3   OH212407   6.013   3.374   1.368  0.5773 -0.2156 -0.0393
 4162TIP3    H112408   5.974   3.288   1.382 -0.6579  0.3575  0.0580
 4162TIP3    H212409   5.939   3.435   1.366  1.4687  0.9133  0.3762
 4163TIP3   OH212410   5.541   2.804   1.928  0.0280 -0.0215  0.1152
 4163TIP3    H112411   5.460   2.758   1.947 -0.3871 -0.1868 -1.9688
 4163TIP3    H212412   5.558   2.856   2.007 -0.9362 -1.6305  1.4135
 4164TIP3   OH212413   6.993   1.477   3.217 -0.0765  0.0936  0.3817
 4164TIP3    H112414   7.065   1.533   3.188  0.2020  0.3303  1.4986
 4164TIP3    H212415   7.032   1.390   3.224  0.4076  0.4282  2.0796
 4165TIP3   OH212416   8.371   5.536   1.063 -0.2122 -0.1922 -0.3144
 4165TIP3    H112417   8.372   5.554   1.157  0.7122 -2.0119  0.0528
 4165TIP3    H212418   8.453   5.488   1.047 -1.2715 -1.5770 -1.7113
 4166TIP3   OH212419   7.504   4.467   1.525 -0.3761 -0.5628 -0.1403
 4166TIP3    H112420   7.472   4.431   1.608  0.0090 -0.6347 -0.0225
 4166TIP3    H212421   7.426   4.502   1.483 -0.9010 -2.2423 -0.6106
 4167TIP3   OH212422   6.345   4.041   2.912 -0.0209  0.0591  0.1680
 4167TIP3    H112423   6.318   4.103   2.845  0.8220 -0.5412 -0.7461
 4167TIP3    H212424   6.325   3.955   2.874 -1.1229 -0.2471  1.3888
 4168TIP3   OH212425   7.798   2.935   3.545  0.2389  0.8985  0.0374
 4168TIP3    H112426   7.801   2.904   3.635 -1.2654 -2.7940 -1.0872
 4168TIP3    H212427   7.727   2.999   3.544 -0.0597  0.6026  1.3804
 4169TIP3   OH212428   8.316   3.134   0.581  0.0068  0.1270  0.9558
 4169TIP3    H112429   8.362   3.051   0.573 -0.0727  0.2339 -0.9607
 4169TIP3    H212430   8.228   3.110   0.610 -0.0984 -0.5030  0.1483
 4170TIP3   OH212431   5.749   4.520   3.128 -0.2996 -0.5824 -0.5795
 4170TIP3    H112432   5.708   4.600   3.095 -0.5342 -0.0879  0.8676
 4170TIP3    H212433   5.727   4.519   3.221  0.3758 -1.9269 -0.4249
 4171TIP3   OH212434   8.737   6.324   0.066  0.3457  0.0160  0.5734
 4171TIP3    H112435   8.683   6.342  -0.010  0.3772 -0.8084  0.3523
 4171TIP3    H212436   8.756   6.230   0.061  0.6714  0.0304  1.3790
 4172TIP3   OH212437   5.986   3.570   1.954 -0.2712  0.6950 -0.3094
 4172TIP3    H112438   6.075   3.565   1.989 -0.1950 -1.4331 -0.6785
 4172TIP3    H212439   5.998   3.595   1.862 -0.1057  1.1150 -0.1741
 4173TIP3   OH212440   6.612   6.688   4.375 -0.3207 -0.3266 -0.0953
 4173TIP3    H112441   6.679   6.729   4.320  0.2080 -0.8286  0.1631
 4173TIP3    H212442   6.563   6.761   4.413 -1.8094  0.0234 -2.5707
 4174TIP3   OH212443   7.582   4.246   3.600  0.0499 -0.3854  0.0095
 4174TIP3    H112444   7.533   4.328   3.592 -0.0799 -0.3587  1.0406
 4174TIP3    H212445   7.672   4.274   3.615  0.0757 -0.4351 -0.0510
 4175TIP3   OH212446   0.455   3.711   2.332  0.5402  0.2826 -0.2592
 4175TIP3    H112447   0.465   3.635   2.389  2.0695  1.1158  0.6301
 4175TIP3    H212448   0.374   3.694   2.283 -0.4231 -0.7759  1.6408
 4176TIP3   OH212449   6.309   5.715   2.719 -0.7591  0.2516 -0.9842
 4176TIP3    H112450   6.279   5.639   2.669 -0.3308 -0.1692 -0.6136
 4176TIP3    H212451   6.405   5.706   2.721 -0.6147  1.4371 -1.9338
 4177TIP3   OH212452   8.799   4.696   2.534  0.1477 -0.0542 -0.0198
 4177TIP3    H112453   8.734   4.724   2.598  0.3415  0.6831 -0.1346
 4177TIP3    H212454   8.882   4.699   2.582  0.5468  2.2694 -0.7715
 4178TIP3   OH212455   7.196   5.494   0.540  0.9673  0.1759 -0.6215
 4178TIP3    H112456   7.132   5.520   0.474  1.9472  1.9873 -0.9073
 4178TIP3    H212457   7.281   5.511   0.499  1.6000  0.7506  0.8832
 4179TIP3   OH212458   7.194   4.631   3.512 -0.1226  0.4928  0.2908
 4179TIP3    H112459   7.205   4.640   3.607 -0.4815 -2.5540  0.6693
 4179TIP3    H212460   7.118   4.573   3.503  0.5484 -0.0681 -1.8657
 4180TIP3   OH212461   6.003   5.024   1.840 -0.0657 -0.0857  0.1208
 4180TIP3    H112462   6.075   5.077   1.873 -0.6898  0.8263  0.0327
 4180TIP3    H212463   5.988   5.055   1.751  1.0648 -1.9781 -0.7629
 4181TIP3   OH212464   7.071   3.533   1.959 -0.4332 -0.2080 -0.6153
 4181TIP3    H112465   7.010   3.460   1.975  1.0388 -1.0331  1.5359
 4181TIP3    H212466   7.156   3.498   1.984  0.3186  2.2243  0.3104
 4182TIP3   OH212467   8.410   3.475   2.321 -0.1062 -0.3756  0.5005
 4182TIP3    H112468   8.334   3.456   2.376  0.0996  0.9147  1.2560
 4182TIP3    H212469   8.372   3.500   2.237 -0.4229 -2.2633  0.0498
 4183TIP3   OH212470   7.816   4.441   0.122 -0.2771  0.1691 -0.2464
 4183TIP3    H112471   7.850   4.476   0.204 -0.6893  0.3539 -0.1544
 4183TIP3    H212472   7.721   4.449   0.130 -0.5453 -3.0706  0.7779
 4184TIP3   OH212473   1.326   2.886   0.232 -0.6482  0.4174 -0.5517
 4184TIP3    H112474   1.330   2.792   0.212 -0.7045  0.5791 -1.3253
 4184TIP3    H212475   1.280   2.890   0.316  0.1150 -0.3044 -0.0784
 4185TIP3   OH212476   8.188   3.144   2.111 -0.2663 -0.1486 -0.1884
 4185TIP3    H112477   8.163   3.057   2.080 -0.1298 -0.3943  0.3930
 4185TIP3    H212478   8.249   3.176   2.044  0.1299 -0.7337 -0.1053
 4186TIP3   OH212479   1.604   8.043   6.089  0.1463  0.2936  0.0631
 4186TIP3    H112480   1.663   7.975   6.054  0.7536  0.4064  0.8540
 4186TIP3    H212481   1.662   8.102   6.137 -0.7979 -0.3249  1.9690
 4187TIP3   OH212482   7.348   4.897   1.045 -0.0749  0.2544  0.4729
 4187TIP3    H112483   7.362   4.989   1.068  1.1913  0.1677  0.0458
 4187TIP3    H212484   7.379   4.890   0.954 -0.2266 -0.5801  0.4828
 4188TIP3   OH212485   8.468   3.734   3.104  0.2693  0.4966 -0.2828
 4188TIP3    H112486   8.522   3.810   3.083  0.6259  0.6762  1.2105
 4188TIP3    H212487   8.481   3.674   3.031  1.2748  1.1936 -0.6790
 4189TIP3   OH212488   8.399   4.598   7.029  0.3327  0.4226 -0.3864
 4189TIP3    H112489   8.352   4.681   7.042 -0.2231 -0.2276  1.9454
 4189TIP3    H212490   8.341   4.546   6.973  0.6557  1.5761 -1.8136
 4190TIP3   OH212491   0.521   5.023   0.928  0.1144  0.5102  0.1015
 4190TIP3    H112492   0.569   4.960   0.876 -1.4797 -0.4121 -0.2819
 4190TIP3    H212493   0.572   5.032   1.009  0.4846 -1.0765  0.0493
 4191TIP3   OH212494   8.582   4.499   6.515 -0.1252  0.3718  0.0106
 4191TIP3    H112495   8.548   4.413   6.489  0.3208  0.0456  0.5201
 4191TIP3    H212496   8.675   4.485   6.531 -0.2298  0.7689  0.9498
 4192TIP3   OH212497   8.065   2.086   2.210  0.2617  0.1113  0.4219
 4192TIP3    H112498   8.021   2.008   2.245  1.0234 -0.0403  1.0407
 4192TIP3    H212499   8.047   2.083   2.116 -0.8480 -0.0827  0.6250
 4193TIP3   OH212500   7.078   2.779   0.908  0.1862 -0.3083  0.0287
 4193TIP3    H112501   7.149   2.755   0.968  1.3334  0.0975 -1.1143
 4193TIP3    H212502   7.056   2.698   0.862  1.0822 -0.1200 -0.7778
 4194TIP3   OH212503   7.448   4.034   2.883 -0.6476  1.0219 -0.2471
 4194TIP3    H112504   7.542   4.029   2.865 -0.8291 -1.9641 -0.6023
 4194TIP3    H212505   7.442   4.041   2.978 -0.0840 -2.5486  0.1284
 4195TIP3   OH212506   8.269   2.502   2.278  0.1572 -0.1729 -0.0863
 4195TIP3    H112507   8.346   2.539   2.235  1.3653 -0.9258  1.3781
 4195TIP3    H212508   8.241   2.430   2.220  2.3927 -1.8658  0.8555
 4196TIP3   OH212509   2.519   8.356   7.038  0.4486  0.0733  0.2710
 4196TIP3    H112510   2.428   8.326   7.046  0.1117  1.1475  0.5252
 4196TIP3    H212511   2.558   8.341   7.124  0.5525 -0.4931  0.1297
 4197TIP3   OH212512   0.478   6.097   2.068  0.2229 -0.2507  0.3925
 4197TIP3    H112513   0.569   6.100   2.038 -0.1801 -0.7440 -0.9334
 4197TIP3    H212514   0.449   6.007   2.049 -0.7134  0.0668  0.2807
 4198TIP3   OH212515   6.305   5.213   1.345 -0.3319 -0.2428  0.2038
 4198TIP3    H112516   6.304   5.132   1.397  0.3339  0.1349  0.8259
 4198TIP3    H212517   6.334   5.185   1.258  1.1696 -0.5012  0.7555
 4199TIP3   OH212518   5.302   2.865   2.619  0.1835 -0.0656  0.0459
 4199TIP3    H112519   5.251   2.849   2.698 -0.3983  3.3045  0.4152
 4199TIP3    H212520   5.254   2.933   2.572  2.9311  1.2926 -0.9129
 4200TIP3   OH212521   8.814   1.993   1.762 -0.0572  0.1985  0.4962
 4200TIP3    H112522   8.869   1.943   1.702  0.5484  0.4510  0.8345
 4200TIP3    H212523   8.822   2.083   1.733  1.8309  0.6118  2.1282
 4201TIP3   OH212524   8.274   5.878   3.027 -0.2487  0.5552  0.2846
 4201TIP3    H112525   8.264   5.920   2.941  1.5871  0.1940 -0.1225
 4201TIP3    H212526   8.184   5.863   3.057 -0.9329 -0.8818 -2.3538
 4202TIP3   OH212527   6.763   7.951   4.766 -0.2146  0.2308  0.2299
 4202TIP3    H112528   6.798   8.032   4.730  0.8866 -0.8337 -1.1780
 4202TIP3    H212529   6.827   7.924   4.831  0.1098 -0.2040 -0.2658
 4203TIP3   OH212530   8.475   3.590   2.784  0.1250  0.4294 -0.3399
 4203TIP3    H112531   8.506   3.542   2.707  0.4057  0.0399  0.0128
 4203TIP3    H212532   8.554   3.616   2.831 -0.0331  0.9986 -0.3832
 4204TIP3   OH212533   8.444   5.328   3.997 -0.0828 -0.3992 -0.1152
 4204TIP3    H112534   8.388   5.402   3.971  4.0064  1.9846 -2.7301
 4204TIP3    H212535   8.444   5.331   4.092 -2.4827  1.0023 -0.1046
 4205TIP3   OH212536   6.816   5.071   0.744  0.2994  0.3833 -0.2793
 4205TIP3    H112537   6.737   5.019   0.727  0.7484 -0.2717 -0.3583
 4205TIP3    H212538   6.888   5.014   0.719  0.8832  0.2143  1.7033
 4206TIP3   OH212539   8.234   4.378   1.272 -0.1394  0.0776  0.4295
 4206TIP3    H112540   8.309   4.407   1.220 -0.3704  0.5741  0.3678
 4206TIP3    H212541   8.240   4.429   1.353  0.5658 -1.1348  1.1507
 4207TIP3   OH212542   8.070   4.736   1.966 -0.3998  0.1703  0.1193
 4207TIP3    H112543   8.048   4.793   1.892  0.1367 -1.4832 -1.3510
 4207TIP3    H212544   8.011   4.764   2.036 -0.3325  2.3420 -0.6420
 4208TIP3   OH212545   7.116   3.256   0.975 -0.0235  0.1106 -0.1900
 4208TIP3    H112546   7.072   3.208   0.905  0.0267 -0.7814  0.3882
 4208TIP3    H212547   7.195   3.206   0.993 -0.4599 -0.1406  1.0993
 4209TIP3   OH212548   8.632   3.952   0.587 -0.6181 -0.3412 -0.7894
 4209TIP3    H112549   8.606   3.896   0.660  0.1310 -3.0099 -2.5253
 4209TIP3    H212550   8.557   3.952   0.528 -0.2515 -0.3150 -1.2619
 4210TIP3   OH212551   7.925   2.572   1.315  0.7156  0.3899  0.5025
 4210TIP3    H112552   7.888   2.523   1.389 -0.9570  1.6256  0.5270
 4210TIP3    H212553   7.997   2.518   1.284 -0.3512 -1.5199  1.2515
 4211TIP3   OH212554   8.343   4.232   4.017 -0.6600  0.5083  0.4171
 4211TIP3    H112555   8.398   4.277   4.080  3.2400 -0.7868 -1.9276
 4211TIP3    H212556   8.355   4.139   4.037 -1.1947  0.1781 -0.7642
 4212TIP3   OH212557   3.362   1.575   4.890  0.0669  0.6513  0.4730
 4212TIP3    H112558   3.300   1.512   4.853  0.3312  0.7828 -0.1841
 4212TIP3    H212559   3.320   1.660   4.876 -0.2318  0.6402  1.2468
 4213TIP3   OH212560   8.690   2.516   3.019 -0.3377  0.8901  0.3648
 4213TIP3    H112561   8.752   2.501   2.947 -0.1723 -0.3246  0.7467
 4213TIP3    H212562   8.611   2.550   2.977  0.3739  1.8876 -0.1886
 4214TIP3   OH212563   8.492   4.504   2.622  0.4267  0.5304 -0.0240
 4214TIP3    H112564   8.432   4.574   2.599 -1.0527 -0.2592  1.3186
 4214TIP3    H212565   8.460   4.427   2.575  1.2245  0.4351 -0.4188
 4215TIP3   OH212566   7.919   2.173   5.370 -0.7588  0.5119  0.1434
 4215TIP3    H112567   7.885   2.136   5.289  1.8623  1.3528 -1.3878
 4215TIP3    H212568   7.952   2.098   5.419  0.3857  0.3297 -0.9069
 4216TIP3   OH212569   7.924   3.576   2.536 -0.0438  0.5987 -0.4113
 4216TIP3    H112570   7.843   3.604   2.577 -0.3727 -0.0365 -0.6214
 4216TIP3    H212571   7.900   3.557   2.446  0.1239 -0.5503 -0.2228
 4217TIP3   OH212572   7.871   5.050   1.826  0.0958  0.3091 -0.2439
 4217TIP3    H112573   7.859   4.955   1.823  2.2080  0.0239 -0.5163
 4217TIP3    H212574   7.800   5.085   1.772 -1.3952 -1.0316  0.7892
 4218TIP3   OH212575   8.413   4.390   0.921 -0.4156 -0.2346 -0.2076
 4218TIP3    H112576   8.335   4.409   0.868  0.0379  0.5782 -0.5925
 4218TIP3    H212577   8.412   4.456   0.990 -1.0321 -1.3281  0.8405
 4219TIP3   OH212578   0.558   3.891   2.525  0.7327  0.3402 -0.2944
 4219TIP3    H112579   0.517   3.823   2.471 -0.0064  0.5960 -0.0678
 4219TIP3    H212580   0.645   3.857   2.544 -0.2698 -1.4236  1.3748
 4220TIP3   OH212581   7.299   7.290  -0.005 -1.0240  0.2112  0.5273
 4220TIP3    H112582   7.326   7.291   0.086 -1.4798  2.3445  0.6757
 4220TIP3    H212583   7.289   7.382  -0.028  1.1047 -0.1968 -2.2986
 4221TIP3   OH212584   0.273   5.327   1.776  0.8309 -1.1417 -0.4806
 4221TIP3    H112585   0.277   5.370   1.690  1.0487  0.5966  0.3685
 4221TIP3    H212586   0.198   5.369   1.819  1.0255 -1.6619  0.3640
 4222TIP3   OH212587   6.250   6.000   1.570  0.2861 -0.2348 -0.4224
 4222TIP3    H112588   6.231   6.055   1.495  0.1713  0.9380  0.4597
 4222TIP3    H212589   6.170   5.949   1.584  0.0467  0.0785 -0.6428
 4223TIP3   OH212590   3.958   0.811   6.773 -0.4566  0.3153  0.2136
 4223TIP3    H112591   4.001   0.728   6.793 -1.7970 -0.3467  0.3806
 4223TIP3    H212592   3.920   0.798   6.686  2.6820  2.1202 -1.5173
 4224TIP3   OH212593   8.671   2.131   0.920 -0.3858  0.3526  0.1393
 4224TIP3    H112594   8.742   2.088   0.873  0.1440  1.2974  0.0418
 4224TIP3    H212595   8.705   2.219   0.937 -0.9999  0.3663  1.3181
 4225TIP3   OH212596   4.860   6.295   1.269  0.3588 -0.0401 -0.7655
 4225TIP3    H112597   4.934   6.286   1.329  0.0475  0.7495 -0.2647
 4225TIP3    H212598   4.873   6.224   1.205  0.0324 -1.6493  0.9018
 4226TIP3   OH212599   6.416   4.886   3.142 -0.2421 -0.0032 -0.4457
 4226TIP3    H112600   6.338   4.894   3.087 -0.9044 -1.0261  0.3217
 4226TIP3    H212601   6.407   4.800   3.184 -0.2589  1.1330  1.9902
 4227TIP3   OH212602   7.428   4.046   2.585  0.1455  0.3811  0.2901
 4227TIP3    H112603   7.424   4.062   2.679 -1.7736  0.8088  0.1643
 4227TIP3    H212604   7.502   3.985   2.574  0.5151  0.4802  2.0320
 4228TIP3   OH212605   7.535   7.067   0.032 -0.1463  0.5825  0.0509
 4228TIP3    H112606   7.442   7.046   0.031 -0.2137  0.8848 -0.2195
 4228TIP3    H212607   7.557   7.072   0.125 -0.1217 -0.6821  0.1236
 4229TIP3   OH212608   1.342   3.908   2.699 -0.2505  0.1285  0.4102
 4229TIP3    H112609   1.433   3.877   2.700 -0.9422 -2.0611 -0.7895
 4229TIP3    H212610   1.318   3.916   2.791  0.2751 -2.0292  0.7538
 4230TIP3   OH212611   0.007   3.056   0.773  0.0673  0.5495 -0.2271
 4230TIP3    H112612   0.013   2.982   0.833 -0.7884  0.3843 -0.3330
 4230TIP3    H212613   0.075   3.117   0.802  2.2507 -1.2198 -1.4493
 4231TIP3   OH212614   8.213   5.016   2.661  0.4427 -0.3664 -0.4611
 4231TIP3    H112615   8.161   5.082   2.617  0.5314 -0.9100 -1.3952
 4231TIP3    H212616   8.153   4.976   2.724  0.2518  0.2629 -0.2428
 4232TIP3   OH212617   4.839   5.895   2.435 -0.0320 -0.5145 -0.1123
 4232TIP3    H112618   4.871   5.983   2.455  0.8816 -0.2353 -2.6912
 4232TIP3    H212619   4.749   5.908   2.407  0.0017 -0.4268 -0.1816
 4233TIP3   OH212620   8.353   4.130   1.835 -0.3417  0.6313  0.5615
 4233TIP3    H112621   8.416   4.138   1.907 -0.2417 -1.1103  0.6809
 4233TIP3    H212622   8.359   4.214   1.789  0.8739  1.1012  1.5474
 4234TIP3   OH212623   7.212   5.316   0.068  0.1857 -0.6273  0.6926
 4234TIP3    H112624   7.160   5.300   0.147 -1.2092 -1.6205 -0.3962
 4234TIP3    H212625   7.223   5.229   0.029  1.1202 -0.1797 -0.0508
 4235TIP3   OH212626   1.171   7.099   6.278 -0.3040 -0.1820 -0.2486
 4235TIP3    H112627   1.247   7.154   6.257  1.3096 -1.8653  1.0019
 4235TIP3    H212628   1.131   7.141   6.354 -0.5100  0.5845 -0.7707
 4236TIP3   OH212629   7.136   4.580   3.045  0.0239 -0.3369 -0.4266
 4236TIP3    H112630   7.202   4.521   3.009  1.3323  0.5615  0.4435
 4236TIP3    H212631   7.117   4.545   3.132  1.7018  1.1808  0.5757
 4237TIP3   OH212632   7.955   2.059   1.927  0.1070 -0.1367  0.2824
 4237TIP3    H112633   8.006   2.009   1.863  1.2343  1.8551 -0.3896
 4237TIP3    H212634   7.921   1.992   1.987 -0.9558 -2.0723 -2.3284
 4238TIP3   OH212635   8.328   4.992   1.588 -0.0682 -0.0858 -0.3066
 4238TIP3    H112636   8.263   5.039   1.536 -0.3873 -0.1384  0.0466
 4238TIP3    H212637   8.391   5.058   1.614  0.3917 -0.1556 -1.2286
 4239TIP3   OH212638   8.358   3.390   0.444  0.2928 -0.1343  0.0106
 4239TIP3    H112639   8.451   3.411   0.434  0.6727 -1.2176  1.0934
 4239TIP3    H212640   8.358   3.306   0.490 -1.2085  1.1551  2.4885
 4240TIP3   OH212641   8.125   3.711   2.179 -0.0374  0.1783 -0.0748
 4240TIP3    H112642   8.173   3.636   2.146 -1.1964 -0.5953 -0.0280
 4240TIP3    H212643   8.072   3.740   2.105  0.1580  0.7514  0.0056
 4241TIP3   OH212644   6.849   3.406   2.239 -0.3473  0.3030 -0.2658
 4241TIP3    H112645   6.851   3.411   2.335 -0.4787 -1.1456 -0.1731
 4241TIP3    H212646   6.894   3.485   2.210  1.6213 -0.2790  1.0244
 4242TIP3   OH212647   5.450   3.424   2.177  0.0508 -0.2491 -0.0813
 4242TIP3    H112648   5.420   3.381   2.257 -2.0663  0.3993 -0.4996
 4242TIP3    H212649   5.370   3.441   2.128  1.1292  1.5181 -1.2553
 4243TIP3   OH212650   3.912   7.242   0.318 -0.2573 -0.2965 -0.1133
 4243TIP3    H112651   3.938   7.150   0.306 -0.2562 -0.4967  1.2980
 4243TIP3    H212652   3.937   7.262   0.408 -1.3417  0.7362 -0.0330
 4244TIP3   OH212653   1.036   3.529   2.068 -0.2054 -0.3503 -0.4593
 4244TIP3    H112654   1.029   3.499   2.159  0.0207 -2.8135 -1.2161
 4244TIP3    H212655   1.054   3.623   2.075 -3.0761  0.1053  1.9926
 4245TIP3   OH212656   8.585   4.149   3.628  0.3354  0.4341  0.2261
 4245TIP3    H112657   8.554   4.088   3.562  1.1276 -1.1238  1.2624
 4245TIP3    H212658   8.512   4.157   3.690  0.9298 -0.9920  1.1278
 4246TIP3   OH212659   7.016   5.984   0.236 -0.3885  0.6988 -0.0443
 4246TIP3    H112660   7.024   5.913   0.301 -0.6509 -0.0128 -0.7761
 4246TIP3    H212661   6.928   6.017   0.248 -0.8627 -0.2475 -0.8530
 4247TIP3   OH212662   8.451   2.605   0.556  0.6811 -0.0031 -0.3408
 4247TIP3    H112663   8.506   2.677   0.586 -0.1907  0.7827 -0.6083
 4247TIP3    H212664   8.457   2.608   0.461 -1.4805  1.4129 -0.4512
 4248TIP3   OH212665   8.021   2.644   2.689 -0.4572 -0.3040 -0.3150
 4248TIP3    H112666   7.967   2.722   2.704 -0.3276 -0.5260  1.4860
 4248TIP3    H212667   8.066   2.662   2.607  2.4276  3.2134  1.8770
 4249TIP3   OH212668   7.483   5.158   2.239 -0.5069  0.5541 -0.1556
 4249TIP3    H112669   7.532   5.100   2.182  0.4173  1.6832 -0.5371
 4249TIP3    H212670   7.406   5.108   2.266  2.0914 -2.2312  2.4973
 4250TIP3   OH212671   5.947   6.566   2.727 -0.4765  0.1379  0.1354
 4250TIP3    H112672   5.875   6.503   2.734  0.3302 -0.8454 -0.4284
 4250TIP3    H212673   5.974   6.563   2.636 -0.2034  1.0536  0.1806
 4251TIP3   OH212674   7.722   5.457   3.838 -0.1681  0.4915 -0.2176
 4251TIP3    H112675   7.633   5.430   3.857  0.0269  1.1226  1.7166
 4251TIP3    H212676   7.765   5.458   3.923  1.4395  1.0925 -1.0169
 4252TIP3   OH212677   7.544   3.068   1.683 -0.0790 -0.1544  0.2005
 4252TIP3    H112678   7.567   2.981   1.716 -2.6098 -0.4368  1.3215
 4252TIP3    H212679   7.601   3.080   1.607  2.0047 -1.7747  1.4393
 4253TIP3   OH212680   5.374   0.464   6.755  0.2658  0.4010 -0.2939
 4253TIP3    H112681   5.410   0.383   6.719 -1.2744 -0.8669  0.9856
 4253TIP3    H212682   5.313   0.495   6.689  0.8256  0.5112 -0.7648
 4254TIP3   OH212683   6.839   5.829   1.015  0.4220  0.2737  0.1953
 4254TIP3    H112684   6.814   5.875   0.936  1.3592 -0.4647 -0.5427
 4254TIP3    H212685   6.787   5.749   1.015  2.3147 -0.9987 -1.0582
 4255TIP3   OH212686   8.424   2.954   2.439  0.2941  0.0907  0.6958
 4255TIP3    H112687   8.377   2.901   2.375 -1.4416  2.7660 -0.3498
 4255TIP3    H212688   8.380   2.935   2.522 -0.4476  0.0306  0.2925
 4256TIP3   OH212689   7.118   5.301   2.858  0.0936  0.0261 -0.2967
 4256TIP3    H112690   7.120   5.326   2.766  0.5000  1.8397  0.1849
 4256TIP3    H212691   7.066   5.369   2.901  1.6015  0.3428  1.1122
 4257TIP3   OH212692   8.719   4.556   0.266  0.0780 -0.9081 -0.4245
 4257TIP3    H112693   8.749   4.640   0.300  0.4981 -0.7832 -1.1007
 4257TIP3    H212694   8.765   4.545   0.183 -2.1273 -0.4587 -1.7671
 4258TIP3   OH212695   7.109   4.245   2.424 -0.0533  0.3869  0.1985
 4258TIP3    H112696   7.046   4.223   2.355  0.3612 -1.7637  0.4692
 4258TIP3    H212697   7.057   4.246   2.504 -0.3840  2.1151 -0.0117
 4259TIP3   OH212698   6.747   4.170   2.880 -0.0515  0.1655 -0.1173
 4259TIP3    H112699   6.693   4.243   2.848  0.9617  0.9272 -0.1198
 4259TIP3    H212700   6.754   4.111   2.805 -1.0995 -0.0810 -0.0376
 4260TIP3   OH212701   8.073   3.847   3.900  0.0233 -0.1700 -0.2749
 4260TIP3    H112702   8.154   3.818   3.859  0.8725  1.4563  0.1917
 4260TIP3    H212703   8.097   3.861   3.992 -0.3137  2.0425 -0.5034
 4261TIP3   OH212704   7.584   4.978   0.815  0.5767 -0.4022 -0.0965
 4261TIP3    H112705   7.641   4.953   0.742 -1.7369 -0.6778 -1.9020
 4261TIP3    H212706   7.531   5.049   0.780  0.3004  0.3288  1.7665
 4262TIP3   OH212707   6.093   5.730   1.557 -0.2613  0.2457  0.5100
 4262TIP3    H112708   6.012   5.681   1.573 -0.1419 -0.0815  0.1425
 4262TIP3    H212709   6.161   5.681   1.603 -0.2351  0.3973  0.6344
 4263TIP3   OH212710   0.555   5.996   1.295  0.4145 -0.5346  0.0297
 4263TIP3    H112711   0.590   5.907   1.298  0.4611 -0.5281 -0.3304
 4263TIP3    H212712   0.571   6.031   1.383  1.5506 -0.4356 -0.2078
 4264TIP3   OH212713   8.455   6.003   2.602  0.4769 -0.2260  0.1188
 4264TIP3    H112714   8.435   6.089   2.637 -1.4458 -0.3227 -0.6461
 4264TIP3    H212715   8.396   5.943   2.648  0.4293 -0.8524 -0.7277
 4265TIP3   OH212716   7.528   3.149   3.171 -0.5992  0.0881  0.1249
 4265TIP3    H112717   7.527   3.112   3.260 -1.6408  1.2565  0.6052
 4265TIP3    H212718   7.612   3.120   3.135  1.6447  2.7941  2.8747
 4266TIP3   OH212719   0.079   2.494   4.388 -0.1540  0.3285 -0.0186
 4266TIP3    H112720   0.061   2.476   4.481 -0.4616  0.3665 -0.0706
 4266TIP3    H212721   0.171   2.471   4.377 -0.1278  0.2827  0.2882
 4267TIP3   OH212722   8.200   2.888   2.903  0.4428  0.4663  0.1442
 4267TIP3    H112723   8.132   2.947   2.937  0.9379  0.8658  0.4544
 4267TIP3    H212724   8.172   2.801   2.931 -0.0605  0.6030  0.0741
 4268TIP3   OH212725   8.255   4.380   2.228 -0.1347 -0.2571 -0.4833
 4268TIP3    H112726   8.174   4.368   2.179 -0.4001 -0.4482 -0.0083
 4268TIP3    H212727   8.321   4.333   2.178 -0.4239 -0.5380 -0.5999
 4269TIP3   OH212728   7.123   0.755   0.853  0.0988 -0.2702  0.0341
 4269TIP3    H112729   7.201   0.783   0.902  1.1104 -2.6485 -0.1515
 4269TIP3    H212730   7.069   0.834   0.848  2.1497  1.2499  0.8089
 4270TIP3   OH212731   6.518   5.155   1.860 -0.1191 -0.3493 -0.0168
 4270TIP3    H112732   6.604   5.175   1.898 -0.5663 -0.0790  0.8550
 4270TIP3    H212733   6.531   5.167   1.766  0.4489  1.0144  0.2155
 4271TIP3   OH212734   7.439   4.732   1.881  1.0717 -0.1904  0.5744
 4271TIP3    H112735   7.466   4.781   1.804  3.0874 -1.2034  0.6125
 4271TIP3    H212736   7.433   4.642   1.851 -0.8512 -0.2066  0.9457
 4272TIP3   OH212737   0.728   4.123   3.805 -0.4918  0.5627 -0.1884
 4272TIP3    H112738   0.781   4.153   3.731 -0.8962 -0.4722 -0.9187
 4272TIP3    H212739   0.780   4.054   3.846 -0.6370  0.5524 -0.0215
 4273TIP3   OH212740   8.558   2.364   3.270  0.1652 -0.1202 -0.3593
 4273TIP3    H112741   8.538   2.285   3.219  2.6469 -0.9933 -0.0659
 4273TIP3    H212742   8.504   2.356   3.348  0.3373 -1.5095 -0.3687
 4274TIP3   OH212743   0.739   2.980   1.885  0.5268  0.2285  0.4647
 4274TIP3    H112744   0.662   2.997   1.939  0.7932 -1.6483  1.4995
 4274TIP3    H212745   0.791   2.918   1.937  2.6366  1.2872 -0.3113
 4275TIP3   OH212746   7.668   3.178   2.377  0.0819  0.3891  0.4252
 4275TIP3    H112747   7.728   3.148   2.309  1.2961  3.3986  0.0631
 4275TIP3    H212748   7.638   3.264   2.347 -1.4666  0.6089  2.4264
 4276TIP3   OH212749   0.916   5.309   1.863  0.2789 -0.0930 -0.4572
 4276TIP3    H112750   0.851   5.251   1.823  0.3328 -0.9991  0.7381
 4276TIP3    H212751   0.924   5.278   1.953  1.5572  0.7085 -0.2762
 4277TIP3   OH212752   7.076   1.415   0.345  0.5993  0.0336 -0.1381
 4277TIP3    H112753   7.099   1.436   0.435  1.2051 -1.7945  0.1459
 4277TIP3    H212754   7.158   1.389   0.304  0.0373 -0.7926 -0.7564
 4278TIP3   OH212755   6.605   5.350   1.416  0.1376 -0.0089 -0.3149
 4278TIP3    H112756   6.576   5.403   1.490  1.3406 -1.4349  1.2019
 4278TIP3    H212757   6.578   5.261   1.438 -0.1888 -0.3354 -1.9692
 4279TIP3   OH212758   5.285   2.161   1.002 -0.4459 -0.4168  0.4829
 4279TIP3    H112759   5.335   2.181   0.923 -0.5540  1.0595  0.7656
 4279TIP3    H212760   5.315   2.074   1.029  1.1868  0.0126  0.0596
 4280TIP3   OH212761   5.072   6.967   0.428  0.2640 -0.0435  0.0115
 4280TIP3    H112762   5.093   6.906   0.499  0.6545  1.9125  1.5987
 4280TIP3    H212763   5.146   7.029   0.427 -0.5857  0.9722 -0.9546
 4281TIP3   OH212764   7.865   4.239   2.339 -0.4064  0.2486 -0.1300
 4281TIP3    H112765   7.941   4.234   2.281 -0.6554 -1.3595 -0.3535
 4281TIP3    H212766   7.824   4.322   2.317  1.3398  1.2007  0.0750
 4282TIP3   OH212767   1.029   3.207   2.517 -0.7969 -0.1513 -0.4781
 4282TIP3    H112768   1.103   3.152   2.546  1.1111  1.2484 -2.5665
 4282TIP3    H212769   1.035   3.285   2.572 -1.1295 -0.3082 -0.2146
 4283TIP3   OH212770   0.371   4.636   4.072 -0.2933 -0.2042  0.2241
 4283TIP3    H112771   0.322   4.719   4.070  0.5451  0.2997  0.1635
 4283TIP3    H212772   0.306   4.570   4.048 -0.9318  0.4536  0.0854
 4284TIP3   OH212773   7.575   5.149   3.713  0.3487  0.1198 -0.5041
 4284TIP3    H112774   7.638   5.096   3.760  1.6129  1.3258 -0.7962
 4284TIP3    H212775   7.628   5.202   3.653 -0.9307  1.1362 -0.7608
 4285TIP3   OH212776   0.336   1.987   2.274 -0.6473 -0.2948 -0.3754
 4285TIP3    H112777   0.280   1.916   2.242 -1.9521  1.3471 -1.8719
 4285TIP3    H212778   0.358   2.037   2.195 -1.3591  2.0616  0.8720
 4286TIP3   OH212779   7.871   3.565   0.955  0.0347  0.7034 -0.6365
 4286TIP3    H112780   7.889   3.654   0.985  0.7114  0.6889 -0.9692
 4286TIP3    H212781   7.932   3.510   1.005  0.2320  0.5305 -1.0605
 4287TIP3   OH212782   8.410   5.517   0.246  0.0476 -0.1243 -0.1898
 4287TIP3    H112783   8.413   5.602   0.202 -0.6561  0.3427  0.6451
 4287TIP3    H212784   8.502   5.491   0.254  0.4330  1.5572  1.4405
 4288TIP3   OH212785   6.823   4.412   3.700  0.2989  0.5521 -0.5107
 4288TIP3    H112786   6.880   4.381   3.771 -0.4624  0.1013 -0.0821
 4288TIP3    H212787   6.758   4.341   3.689  0.7127  0.3866 -2.0019
 4289TIP3   OH212788   7.584   2.811   1.771  0.0937  0.1030 -0.1596
 4289TIP3    H112789   7.521   2.764   1.826  1.6140 -0.5779  1.0535
 4289TIP3    H212790   7.644   2.743   1.740  1.3251  0.9841  0.2337
 4290TIP3   OH212791   8.862   3.551   1.564 -0.3849 -0.0110  0.4172
 4290TIP3    H112792   8.812   3.478   1.528 -1.5088  0.3033  1.3137
 4290TIP3    H212793   8.889   3.601   1.487 -0.6610 -0.6923 -0.1319
 4291TIP3   OH212794   1.068   2.031   2.410  0.0580  0.2165  0.0475
 4291TIP3    H112795   1.157   2.042   2.445 -1.6471 -0.5217  5.1583
 4291TIP3    H212796   1.066   1.941   2.378  0.9058 -0.1001  0.8319
 4292TIP3   OH212797   5.530   2.001   2.057  0.0808 -0.3685 -0.3475
 4292TIP3    H112798   5.566   1.937   2.119  0.5812  1.4364  1.2740
 4292TIP3    H212799   5.446   2.027   2.095 -0.0335  0.0802 -0.8929
 4293TIP3   OH212800   6.958   5.467   1.533 -0.1700 -0.3497  0.1520
 4293TIP3    H112801   6.906   5.537   1.573 -0.1108 -0.2954  0.1332
 4293TIP3    H212802   6.968   5.493   1.442 -0.6039 -0.6474  0.0157
 4294TIP3   OH212803   8.694   6.681   2.924 -0.3772  0.1388  0.3995
 4294TIP3    H112804   8.684   6.590   2.950 -0.9994  0.0762 -0.0532
 4294TIP3    H212805   8.769   6.681   2.865 -1.1771 -0.2881 -0.6231
 4295TIP3   OH212806   0.257   3.883   0.155 -0.5679 -0.0980 -0.4739
 4295TIP3    H112807   0.333   3.936   0.177 -1.5004  0.4125  1.7034
 4295TIP3    H212808   0.221   3.923   0.076  0.9721  0.1081 -1.0870
 4296TIP3   OH212809   8.307   1.199   0.890 -0.4706  0.0903  0.1865
 4296TIP3    H112810   8.264   1.203   0.975 -3.0687  1.8451 -1.1154
 4296TIP3    H212811   8.235   1.205   0.827  1.5940  1.5907 -2.1171
 4297TIP3   OH212812   7.611   3.510   2.376  0.3618  0.4925 -0.1136
 4297TIP3    H112813   7.534   3.496   2.321 -0.1426  0.7474  0.5281
 4297TIP3    H212814   7.673   3.554   2.319 -0.6323  1.9191 -0.1115
 4298TIP3   OH212815   0.697   4.878   2.307  0.5411 -0.2175 -0.3928
 4298TIP3    H112816   0.768   4.882   2.242 -1.5029 -0.3135 -2.7177
 4298TIP3    H212817   0.655   4.793   2.289 -1.0533  0.4943 -0.0434
 4299TIP3   OH212818   7.763   3.030   3.066  0.1813 -0.1707  0.0508
 4299TIP3    H112819   7.777   3.069   2.980 -0.0739  1.0528  0.5519
 4299TIP3    H212820   7.846   2.986   3.086  0.8446  0.9940 -0.0823
 4300TIP3   OH212821   5.734   3.417   1.252 -0.1557  0.6004 -0.0979
 4300TIP3    H112822   5.647   3.421   1.292  0.3834  0.2606  1.1449
 4300TIP3    H212823   5.756   3.324   1.253  0.8087  0.8311  0.9050
 4301TIP3   OH212824   8.673   4.067   2.004  0.2610  0.1193  0.0458
 4301TIP3    H112825   8.731   4.132   2.043  1.5258 -1.1675  0.3435
 4301TIP3    H212826   8.729   4.018   1.944 -1.6164  2.0665 -3.4855
 4302TIP3   OH212827   6.130   2.210   3.059  0.1293  0.0944  0.0749
 4302TIP3    H112828   6.070   2.217   3.134 -1.0332 -0.3305 -0.7889
 4302TIP3    H212829   6.185   2.135   3.079 -0.7230 -0.5209  0.1285
 4303TIP3   OH212830   8.665   4.388   2.333  0.2716 -0.1884  0.2027
 4303TIP3    H112831   8.625   4.423   2.412  0.9766  0.1628  0.4078
 4303TIP3    H212832   8.644   4.453   2.265  0.2891 -0.1265  0.2559
 4304TIP3   OH212833   3.105   7.869   3.302  0.1228  0.0713 -0.4781
 4304TIP3    H112834   3.128   7.961   3.293 -0.4162  0.3255  0.6060
 4304TIP3    H212835   3.143   7.842   3.386 -1.0131 -0.2660 -0.0545
 4305TIP3   OH212836   7.479   4.938   0.130 -0.0258  0.1605 -0.1499
 4305TIP3    H112837   7.545   4.987   0.179  0.9922 -0.1105 -1.2189
 4305TIP3    H212838   7.487   4.848   0.163 -0.3263  0.2593  0.1955
 4306TIP3   OH212839   0.049   3.447   2.126 -0.0612  0.2570  0.5228
 4306TIP3    H112840  -0.036   3.487   2.105 -0.5179 -1.0865 -0.2767
 4306TIP3    H212841   0.026   3.363   2.166  0.8893 -0.0699  0.3956
 4307TIP3   OH212842   7.927   5.643   2.170  0.2128  0.0616 -0.5140
 4307TIP3    H112843   8.017   5.661   2.201 -0.5179  1.4757  0.8707
 4307TIP3    H212844   7.905   5.559   2.209  0.4437  0.3817  0.3350
 4308TIP3   OH212845   5.356   4.041   2.431 -0.1654  0.4745 -0.1696
 4308TIP3    H112846   5.440   4.065   2.469 -0.6512  0.3058  1.0173
 4308TIP3    H212847   5.364   3.948   2.410 -0.2026  0.3603  0.3305
 4309TIP3   OH212848   8.751   4.400   3.621 -0.0187 -0.2087  0.4444
 4309TIP3    H112849   8.834   4.362   3.649  0.0537 -0.4045 -0.0248
 4309TIP3    H212850   8.690   4.326   3.621  0.0351 -0.2562 -0.1182
 4310TIP3   OH212851   6.047   4.241   2.147 -0.1791 -0.2760  0.6472
 4310TIP3    H112852   6.095   4.179   2.093 -0.0802  0.4368 -0.0898
 4310TIP3    H212853   6.100   4.321   2.146  0.3548 -0.5815  2.6484
 4311TIP3   OH212854   0.647   3.642   2.787  0.2547  0.7009 -0.3586
 4311TIP3    H112855   0.675   3.727   2.820  1.2957 -0.6826  2.5367
 4311TIP3    H212856   0.563   3.626   2.830  0.2677  0.0941 -0.5497
 4312TIP3   OH212857   7.418   4.084   5.286 -0.1685 -0.9566 -0.2199
 4312TIP3    H112858   7.421   4.020   5.215 -2.1238 -0.9581 -0.3342
 4312TIP3    H212859   7.487   4.146   5.265  1.4699 -2.7806 -0.3444
 4313TIP3   OH212860   6.625   4.881   0.914  0.1715 -0.0939  0.7039
 4313TIP3    H112861   6.717   4.856   0.907  0.5777  1.6163 -0.5834
 4313TIP3    H212862   6.625   4.955   0.975 -0.6207 -1.3215  2.2211
 4314TIP3   OH212863   5.397   4.034   3.064  0.4392  0.6459 -0.3605
 4314TIP3    H112864   5.346   4.082   3.129 -0.2348  0.0284 -0.4308
 4314TIP3    H212865   5.334   4.009   2.997  0.7261 -0.5490 -0.2005
 4315TIP3   OH212866   0.077   5.148   3.503  0.1960 -0.1492  0.2040
 4315TIP3    H112867   0.048   5.216   3.564  0.6981 -0.9163  1.3148
 4315TIP3    H212868   0.010   5.146   3.436 -1.1699 -0.3530  1.5454
 4316TIP3   OH212869   7.225   5.891   2.996  0.0797  0.1760 -0.0333
 4316TIP3    H112870   7.280   5.909   2.920  0.0367  0.5802  0.0315
 4316TIP3    H212871   7.249   5.802   3.022 -0.6719 -0.3571 -1.1670
 4317TIP3   OH212872   6.867   6.375   3.301 -0.0129  0.3645  0.8486
 4317TIP3    H112873   6.786   6.325   3.315 -0.5627  0.6244 -1.2650
 4317TIP3    H212874   6.933   6.308   3.281 -0.6083  0.3972 -1.3515
 4318TIP3   OH212875   7.276   5.529   1.761 -0.0005 -0.8244  0.0416
 4318TIP3    H112876   7.225   5.456   1.725 -0.6884 -0.4580  0.2594
 4318TIP3    H212877   7.304   5.497   1.847 -0.8249 -0.6145  0.4007
 4319TIP3   OH212878   5.453   7.335   1.141 -0.2490  0.3621 -0.4313
 4319TIP3    H112879   5.441   7.293   1.226  0.5890  1.3576  0.1857
 4319TIP3    H212880   5.364   7.349   1.108 -0.5801  0.1298  0.3565
 4320TIP3   OH212881   8.056   1.495   1.610  0.6612 -0.5455 -0.7604
 4320TIP3    H112882   8.026   1.482   1.520 -0.3108 -0.6501 -0.4292
 4320TIP3    H212883   8.085   1.586   1.613  1.3739 -0.7470 -1.3647
 4321TIP3   OH212884   8.023   2.540   0.442 -0.3982  0.0563 -0.0726
 4321TIP3    H112885   7.982   2.471   0.389  0.4104 -0.3517 -0.1758
 4321TIP3    H212886   8.083   2.493   0.500 -1.0054  0.5343  0.9581
 4322TIP3   OH212887   6.733   2.854   0.869 -0.0756  0.0696  0.5872
 4322TIP3    H112888   6.746   2.764   0.899 -1.8801  0.3798  2.3894
 4322TIP3    H212889   6.671   2.846   0.797  2.0848 -0.3992 -1.2624
 4323TIP3   OH212890   4.658   0.548   1.072 -0.0099 -0.1560 -0.4837
 4323TIP3    H112891   4.708   0.497   1.135  0.0782  0.4574 -0.0568
 4323TIP3    H212892   4.724   0.594   1.020 -0.0916 -0.3693 -0.7743
 4324TIP3   OH212893   0.647   5.281   1.841  0.5732  0.0469  0.8447
 4324TIP3    H112894   0.655   5.360   1.788  0.0603 -1.5094 -1.6074
 4324TIP3    H212895   0.587   5.306   1.912  0.8663  2.0062  0.4215
 4325TIP3   OH212896   0.358   3.512   1.887 -0.0803 -0.2932  0.4105
 4325TIP3    H112897   0.270   3.546   1.868  0.0072  0.3774  1.1423
 4325TIP3    H212898   0.417   3.581   1.854  0.2091 -1.1491 -0.9012
 4326TIP3   OH212899   7.119   4.354   1.766 -0.1359 -0.3638  0.5985
 4326TIP3    H112900   7.098   4.389   1.853  0.9739  1.8136  0.0218
 4326TIP3    H212901   7.117   4.259   1.778  2.0861 -0.1186  3.5707
 4327TIP3   OH212902   6.866   3.705   3.360  0.7214 -0.6700  0.4637
 4327TIP3    H112903   6.889   3.633   3.301  0.5825  0.1567 -0.6221
 4327TIP3    H212904   6.830   3.662   3.437 -0.5821 -1.7277 -0.7102
 4328TIP3   OH212905   7.320   3.589   3.771  0.0123  0.7472 -0.1266
 4328TIP3    H112906   7.374   3.645   3.715 -0.1770  2.2406  1.1417
 4328TIP3    H212907   7.381   3.558   3.838 -0.2641  0.8405  0.1679
 4329TIP3   OH212908   6.889   4.466   0.732 -0.2945  0.1521  0.0912
 4329TIP3    H112909   6.942   4.541   0.759  0.5048 -0.6374  0.8027
 4329TIP3    H212910   6.945   4.390   0.750 -0.9401 -0.5932 -0.9583
 4330TIP3   OH212911   5.988   0.067   6.779  0.6305 -0.0123 -0.3785
 4330TIP3    H112912   5.990   0.159   6.754  1.0674 -0.4468 -1.9821
 4330TIP3    H212913   5.897   0.051   6.807  0.2333  0.5893 -1.3131
 4331TIP3   OH212914   8.701   6.579   2.100 -0.2318 -0.0395  0.1322
 4331TIP3    H112915   8.716   6.567   2.194  1.5882  0.6216 -0.0561
 4331TIP3    H212916   8.659   6.665   2.093  1.0454  0.6032  0.2305
 4332TIP3   OH212917   8.149   1.974   4.972 -0.0418 -0.1902 -0.4632
 4332TIP3    H112918   8.180   2.064   4.982  0.6455 -0.4457 -0.2680
 4332TIP3    H212919   8.168   1.932   5.056  0.4246 -0.7454 -0.8390
 4333TIP3   OH212920   6.795   8.302   2.148  0.1359  0.1577 -0.2238
 4333TIP3    H112921   6.851   8.228   2.121 -0.4200  0.4797 -2.4112
 4333TIP3    H212922   6.706   8.268   2.139 -0.0706  0.1686  1.6635
 4334TIP3   OH212923   5.347   3.279   1.120 -0.1807 -0.2286 -0.3920
 4334TIP3    H112924   5.409   3.216   1.085 -0.7695 -0.1628 -1.6104
 4334TIP3    H212925   5.401   3.348   1.159  0.4586 -1.3587  0.7177
 4335TIP3   OH212926   1.148   3.293   0.567  0.4393  0.5925  0.1723
 4335TIP3    H112927   1.217   3.336   0.516  0.3070 -0.0253 -0.5335
 4335TIP3    H212928   1.190   3.268   0.649  0.7186  1.3749  0.2699
 4336TIP3   OH212929   0.324   6.697   1.425 -0.3442 -0.4821 -0.2702
 4336TIP3    H112930   0.301   6.616   1.380 -1.2195 -0.8241  0.7644
 4336TIP3    H212931   0.285   6.766   1.372 -0.0068 -0.7713 -0.8953
 4337TIP3   OH212932   8.339   3.640   0.340 -0.5049 -0.3559 -0.3026
 4337TIP3    H112933   8.335   3.715   0.399  0.0779  0.4564 -1.2812
 4337TIP3    H212934   8.336   3.564   0.398 -0.3235  0.4264  0.7487
 4338TIP3   OH212935   7.108   6.406   0.275  0.1758 -0.3515 -0.3453
 4338TIP3    H112936   7.186   6.376   0.227  1.1087  1.0628  0.2576
 4338TIP3    H212937   7.142   6.439   0.358 -0.9325  1.3404 -0.5435
 4339TIP3   OH212938   8.569   5.037   2.498  0.3293  0.0142  0.2925
 4339TIP3    H112939   8.552   4.993   2.581  2.3367  2.4872  2.0991
 4339TIP3    H212940   8.664   5.047   2.495  0.0291  3.1069 -0.5973
 4340TIP3   OH212941   8.272   5.485   1.734 -0.6793  0.3286 -0.0369
 4340TIP3    H112942   8.328   5.533   1.794 -2.1378  1.6161  0.3414
 4340TIP3    H212943   8.242   5.551   1.671 -0.1423 -0.7555 -1.4427
 4341TIP3   OH212944   8.045   4.947   3.735 -0.5616 -0.4329  0.2193
 4341TIP3    H112945   8.012   4.872   3.784 -3.1226  1.7541  1.9793
 4341TIP3    H212946   8.108   4.988   3.794  0.5259 -0.9396 -0.5735
 4342TIP3   OH212947   0.632   4.552   2.582 -0.4615 -0.4491 -0.0867
 4342TIP3    H112948   0.544   4.551   2.544  0.1853  1.1774 -1.7361
 4342TIP3    H212949   0.622   4.598   2.665 -1.0616  0.3538 -0.5926
 4343TIP3   OH212950   6.445   6.215   2.081 -0.1080  0.4972 -0.1229
 4343TIP3    H112951   6.519   6.223   2.020  1.0988  1.3496  1.4227
 4343TIP3    H212952   6.375   6.266   2.039  0.7212  1.1363 -0.7811
 4344TIP3   OH212953   7.948   5.674   1.551 -0.3675 -0.6738 -0.0283
 4344TIP3    H112954   7.881   5.731   1.588 -0.2007 -0.7266  0.3487
 4344TIP3    H212955   8.007   5.655   1.624  0.1227 -0.5335 -0.3830
 4345TIP3   OH212956   8.398   3.313   3.474 -0.6068  0.6975 -0.0307
 4345TIP3    H112957   8.332   3.321   3.543 -0.5817  1.1259 -0.0519
 4345TIP3    H212958   8.479   3.296   3.522 -1.0876 -1.9529 -0.1298
 4346TIP3   OH212959   8.857   2.487   2.819 -0.3061 -0.0380 -0.8810
 4346TIP3    H112960   8.823   2.571   2.788 -0.0114  0.8887  1.2142
 4346TIP3    H212961   8.949   2.488   2.794 -0.0414  0.7592  0.0504
 4347TIP3   OH212962   7.108   3.426   1.212  0.4201 -0.2357 -0.3191
 4347TIP3    H112963   7.165   3.368   1.161  1.2844  0.6686 -0.4068
 4347TIP3    H212964   7.113   3.510   1.166 -0.4525  0.0290  0.0704
 4348TIP3   OH212965   0.064   3.349   1.812  0.0174 -0.1984  0.2549
 4348TIP3    H112966   0.055   3.398   1.894  0.8815  0.3109  0.0428
 4348TIP3    H212967   0.060   3.415   1.743 -0.5309 -0.6116 -0.1182
 4349TIP3   OH212968   1.044   1.910   3.557 -0.1249 -0.0425 -0.1968
 4349TIP3    H112969   0.967   1.899   3.501 -0.1430  0.1379 -0.2078
 4349TIP3    H212970   1.106   1.844   3.526 -0.5907 -0.7470  0.3491
 4350TIP3   OH212971   8.604   5.393   1.005 -0.0553  0.0764 -0.0803
 4350TIP3    H112972   8.687   5.442   1.001 -0.5453  0.8428 -0.8559
 4350TIP3    H212973   8.598   5.348   0.921  0.3693 -1.2986  0.6129
 4351TIP3   OH212974   0.301   3.642   0.821 -0.0872  0.5425  0.4166
 4351TIP3    H112975   0.332   3.696   0.748 -2.6045  0.6149 -0.6523
 4351TIP3    H212976   0.252   3.704   0.877 -0.5836 -0.0756  0.6684
 4352TIP3   OH212977   0.163   3.173   4.170  0.0808 -0.3914 -0.2412
 4352TIP3    H112978   0.154   3.080   4.145 -0.6558 -0.5731  0.6897
 4352TIP3    H212979   0.257   3.186   4.178  0.0850 -2.2348  3.9612
 4353TIP3   OH212980   8.848   5.751   2.706 -0.1239  0.5119 -0.1252
 4353TIP3    H112981   8.757   5.737   2.731  0.4338 -0.0468  1.6588
 4353TIP3    H212982   8.875   5.670   2.664 -0.6859  1.0027 -1.4937
 4354TIP3   OH212983   8.832   7.068   2.976  0.0452  0.2527  0.4164
 4354TIP3    H112984   8.900   7.086   3.041 -0.4282 -0.0604  1.0063
 4354TIP3    H212985   8.877   7.075   2.892  0.9210 -0.4706  0.8183
 4355TIP3   OH212986   2.716   6.997   0.796  0.2643 -1.0291 -0.3142
 4355TIP3    H112987   2.673   7.005   0.881 -1.2005  1.7906 -1.2568
 4355TIP3    H212988   2.808   7.015   0.814 -0.1948  0.5784  0.5438
 4356TIP3   OH212989   8.472   7.882   2.276  0.1657  0.4009  0.2573
 4356TIP3    H112990   8.439   7.792   2.288  0.1002  0.4347  0.3273
 4356TIP3    H212991   8.468   7.895   2.181  0.0628  0.3724  0.2573
 4357TIP3   OH212992   0.174   5.228   4.682 -0.0563  0.1883  0.0857
 4357TIP3    H112993   0.144   5.306   4.635  0.6429  1.1411  1.1947
 4357TIP3    H212994   0.107   5.212   4.748  0.4858  0.6764  0.7604
 4358TIP3   OH212995   1.293   8.055   4.253 -0.1951 -0.0776  0.4875
 4358TIP3    H112996   1.314   7.979   4.307  2.4797  0.2141 -0.0847
 4358TIP3    H212997   1.286   8.128   4.314  0.5423 -0.1778  0.6900
 4359TIP3   OH212998   2.253   6.555   2.073  0.5609  0.4012 -0.2192
 4359TIP3    H112999   2.185   6.499   2.035  0.3946  0.3661  0.1214
 4359TIP3    H213000   2.207   6.636   2.094  0.6907  0.4848 -0.2600
 4360TIP3   OH213001   1.432   5.128   3.589  0.6721 -0.0898  0.2006
 4360TIP3    H113002   1.403   5.219   3.585  0.3300 -0.1190  1.6132
 4360TIP3    H213003   1.398   5.087   3.510 -0.3217  0.6914  0.2257
 4361TIP3   OH213004   1.001   4.348   2.552  0.1003  0.2142  0.1056
 4361TIP3    H113005   0.989   4.302   2.635  0.2748  1.8866  1.0712
 4361TIP3    H213006   1.027   4.437   2.577 -1.6034  1.2618 -1.7096
 4362TIP3   OH213007   8.762   3.740   2.186 -0.1165 -0.3522  0.1404
 4362TIP3    H113008   8.702   3.813   2.200  1.4076  0.6641  1.4553
 4362TIP3    H213009   8.776   3.703   2.274  0.2512 -1.3286 -0.3214
 4363TIP3   OH213010   2.008   5.813   3.463 -0.4503  0.0820  0.4018
 4363TIP3    H113011   2.092   5.770   3.447 -0.6490 -0.0322 -0.3195
 4363TIP3    H213012   2.008   5.829   3.558  0.2025 -0.2902  0.4711
 4364TIP3   OH213013   0.721   4.885   3.537  0.4004 -0.3871  0.3110
 4364TIP3    H113014   0.633   4.868   3.571  0.1805 -0.0996 -0.1171
 4364TIP3    H213015   0.738   4.976   3.560  0.5779 -0.4368  0.3758
 4365TIP3   OH213016   1.071   3.031   3.074 -0.1820 -0.6195 -0.2302
 4365TIP3    H113017   1.143   3.045   3.013  0.0397 -2.2508 -0.3789
 4365TIP3    H213018   1.113   3.027   3.160 -0.0100 -1.9657 -0.3543
 4366TIP3   OH213019   7.771   5.935   4.165 -0.0775 -0.0750  0.1892
 4366TIP3    H113020   7.702   5.877   4.199  1.2042 -1.8016 -0.0918
 4366TIP3    H213021   7.746   6.022   4.196 -1.8594 -0.8196  0.9277
 4367TIP3   OH213022   8.721   7.390   2.887  0.0923 -0.2125  0.4553
 4367TIP3    H113023   8.811   7.392   2.855 -0.7888 -0.7288 -2.1587
 4367TIP3    H213024   8.680   7.319   2.839 -2.1431  1.0475  0.4197
 4368TIP3   OH213025   0.684   5.218   2.731 -0.1349 -0.0700 -0.3934
 4368TIP3    H113026   0.759   5.197   2.785 -0.0872  1.3389  0.1120
 4368TIP3    H213027   0.695   5.166   2.652  0.9642 -0.4506  0.0130
 4369TIP3   OH213028   2.309   6.689   3.105  0.0484 -0.2259  0.0388
 4369TIP3    H113029   2.278   6.653   3.022 -0.6894  0.8435 -0.1620
 4369TIP3    H213030   2.231   6.728   3.144  0.8288  1.1212  0.2580
 4370TIP3   OH213031   8.329   5.658   3.253  0.5983 -0.4300  0.0291
 4370TIP3    H113032   8.371   5.586   3.299  1.9308  1.4565  1.8563
 4370TIP3    H213033   8.348   5.643   3.160 -2.4534 -4.5148 -0.0974
 4371TIP3   OH213034   8.112   5.300   2.841  0.7983 -0.1735  0.0049
 4371TIP3    H113035   8.038   5.361   2.840  0.4391 -0.6222 -2.2328
 4371TIP3    H213036   8.072   5.214   2.851  0.9852 -0.4429 -1.4988
 4372TIP3   OH213037   8.846   5.078   4.413 -0.1416  0.7357 -0.6779
 4372TIP3    H113038   8.832   4.999   4.360 -0.5484  0.2092  0.1987
 4372TIP3    H213039   8.931   5.065   4.454 -1.6285 -0.8115  2.0853
 4373TIP3   OH213040   8.814   4.472   4.188 -0.4510  0.0599  0.1872
 4373TIP3    H113041   8.859   4.444   4.267 -0.4217  0.4403  0.3047
 4373TIP3    H213042   8.766   4.550   4.214  0.4404  0.8312 -0.4391
 4374TIP3   OH213043   1.523   6.307   3.661  0.0830  0.0030 -0.2521
 4374TIP3    H113044   1.452   6.278   3.604  0.2387 -1.5841  0.3557
 4374TIP3    H213045   1.528   6.241   3.730  0.9366  1.0747  0.7378
 4375TIP3   OH213046   1.564   5.466   1.038 -0.0357  0.4503 -0.2194
 4375TIP3    H113047   1.556   5.467   0.943  0.7786 -1.3910 -0.3312
 4375TIP3    H213048   1.506   5.395   1.066  1.9257 -0.9746  0.3947
 4376TIP3   OH213049   0.173   4.065   3.817 -0.1610 -0.8865  0.1440
 4376TIP3    H113050   0.155   3.984   3.769  0.9003 -1.3062  0.4552
 4376TIP3    H213051   0.267   4.063   3.835  0.2390  1.2516 -1.3965
 4377TIP3   OH213052   7.621   5.814   4.695  0.2607  0.4054  0.1476
 4377TIP3    H113053   7.713   5.814   4.670  0.1707  0.3292 -0.1896
 4377TIP3    H213054   7.605   5.903   4.726  0.6161  0.2268  0.8430
 4378TIP3   OH213055   8.387   5.464   5.275 -0.2228 -0.1268 -0.0898
 4378TIP3    H113056   8.325   5.488   5.345  1.5670  2.2704  0.7373
 4378TIP3    H213057   8.464   5.433   5.322  1.2062  2.0293 -0.9874
 4379TIP3   OH213058   1.071   5.394   3.522  0.2791  0.2913  0.1613
 4379TIP3    H113059   1.019   5.474   3.524  0.2824  0.3093 -0.3800
 4379TIP3    H213060   1.148   5.414   3.575 -0.1358  0.3537  0.7482
 4380TIP3   OH213061   0.898   6.197   5.090  0.1647 -0.5306 -0.0018
 4380TIP3    H113062   0.932   6.171   5.004 -1.3980 -0.5164 -0.6361
 4380TIP3    H213063   0.858   6.283   5.075  0.2163 -0.3673  0.8169
 4381TIP3   OH213064   8.860   5.870   3.798  0.2070  0.2959  0.4963
 4381TIP3    H113065   8.936   5.910   3.839  0.5938  0.5727 -0.4707
 4381TIP3    H213066   8.785   5.916   3.835  0.5932  1.1647  0.2116
 4382TIP3   OH213067   8.148   5.980   2.780 -0.2392  0.1821  0.5874
 4382TIP3    H113068   8.057   5.999   2.757 -0.4801 -1.4449  0.0815
 4382TIP3    H213069   8.163   5.892   2.744  1.2642  0.0954  1.4078
 4383TIP3   OH213070   1.178   5.956   5.217  0.6748 -0.7911  0.6178
 4383TIP3    H113071   1.226   5.877   5.241 -0.7755 -1.7546  0.3847
 4383TIP3    H213072   1.094   5.948   5.262  0.6759  0.8398  0.9485
 4384TIP3   OH213073   8.836   7.090   4.516  0.6190 -0.7561  0.0128
 4384TIP3    H113074   8.866   7.000   4.517  2.4138 -0.1903  2.1268
 4384TIP3    H213075   8.885   7.132   4.445  3.0150 -0.4653  1.7725
 4385TIP3   OH213076   0.555   5.596   6.103 -0.2430  0.2559  0.4455
 4385TIP3    H113077   0.541   5.509   6.141  3.6886 -0.8376 -0.4550
 4385TIP3    H213078   0.508   5.593   6.019 -1.0436 -0.5932  0.9194
 4386TIP3   OH213079   0.725   6.003   1.981 -0.0768  0.0475 -0.6558
 4386TIP3    H113080   0.694   5.947   1.910 -0.2289  0.5436 -0.9847
 4386TIP3    H213081   0.816   5.977   1.995 -0.4793 -1.0921 -0.0092
 4387TIP3   OH213082   0.644   3.105   3.312  0.0466  0.3367 -0.6364
 4387TIP3    H113083   0.596   3.023   3.296  1.2220 -0.2470 -1.1750
 4387TIP3    H213084   0.736   3.080   3.311  0.3421  1.1346  2.1542
 4388TIP3   OH213085   1.711   4.376   4.102  0.0780  0.0476  0.2136
 4388TIP3    H113086   1.776   4.425   4.153 -0.0001 -0.0445  0.4045
 4388TIP3    H213087   1.631   4.427   4.110  0.4324  0.7950 -1.0327
 4389TIP3   OH213088   8.534   8.143   3.576 -0.1567 -0.2022 -0.2948
 4389TIP3    H113089   8.605   8.079   3.582 -0.5333 -0.5690  0.2782
 4389TIP3    H213090   8.525   8.177   3.665 -0.0198  0.5777 -0.5830
 4390TIP3   OH213091   0.157   6.670   4.776 -0.7470 -0.0812 -0.1234
 4390TIP3    H113092   0.214   6.593   4.775 -1.6336 -0.7361 -0.7929
 4390TIP3    H213093   0.185   6.719   4.854 -0.0836 -1.0038  0.2316
 4391TIP3   OH213094   8.359   3.123   4.346  0.0319  0.0430  0.0812
 4391TIP3    H113095   8.427   3.093   4.406  2.5620  1.1271 -2.1356
 4391TIP3    H213096   8.306   3.045   4.328  0.5691 -0.7817  1.9638
 4392TIP3   OH213097   0.090   3.784   3.736  0.5599  0.5310  0.0398
 4392TIP3    H113098   0.045   3.744   3.810  1.8868 -0.5668  0.2558
 4392TIP3    H213099   0.019   3.807   3.675 -0.6205  2.0830  1.9116
 4393TIP3   OH213100   0.878   4.751   2.864 -0.5282 -0.0790 -0.3820
 4393TIP3    H113101   0.902   4.837   2.829  0.9278 -0.6924 -0.9337
 4393TIP3    H213102   0.795   4.730   2.821  0.4744 -0.1386 -2.3247
 4394TIP3   OH213103   7.723   5.226   3.491  0.0910 -0.0813 -0.5765
 4394TIP3    H113104   7.717   5.226   3.395  0.9838 -1.0660 -0.6423
 4394TIP3    H213105   7.786   5.156   3.511  0.6024  0.7270  0.6882
 4395TIP3   OH213106   0.985   7.122   3.260 -0.3359 -0.0054 -0.1237
 4395TIP3    H113107   1.061   7.099   3.313  0.3249  0.2846 -0.9326
 4395TIP3    H213108   1.015   7.113   3.170 -1.1781  0.3904 -0.4524
 4396TIP3   OH213109   1.482   7.666   4.326 -0.2892 -0.0572  0.3239
 4396TIP3    H113110   1.562   7.711   4.299  0.0566 -0.9539 -0.1637
 4396TIP3    H213111   1.475   7.683   4.420  0.3158  0.2761  0.3084
 4397TIP3   OH213112   8.090   5.648   3.459 -0.5738  0.0428  0.9475
 4397TIP3    H113113   8.142   5.644   3.378 -0.0305  1.7715  1.1839
 4397TIP3    H213114   8.017   5.706   3.437 -0.4586  0.4689  1.6840
 4398TIP3   OH213115   8.380   4.712   4.557 -0.5703  0.3952 -0.8770
 4398TIP3    H113116   8.453   4.771   4.539  1.0251 -1.6269 -1.2465
 4398TIP3    H213117   8.359   4.727   4.649  2.4078 -1.1796  0.1342
 4399TIP3   OH213118   0.730   5.168   4.687  0.3175  0.3589 -0.2185
 4399TIP3    H113119   0.636   5.166   4.672  0.2866 -0.6895  0.0364
 4399TIP3    H213120   0.741   5.210   4.772  0.2276  2.5079 -1.2564
 4400TIP3   OH213121   8.690   6.152   2.803  0.2854  0.0569  0.6708
 4400TIP3    H113122   8.754   6.111   2.745  0.0786 -0.4026  0.7712
 4400TIP3    H213123   8.640   6.079   2.841 -0.9051  0.4579 -0.1025
 4401TIP3   OH213124   0.383   5.837   3.880 -0.8008  0.1316 -0.1959
 4401TIP3    H113125   0.405   5.892   3.955  1.1603 -0.5156 -0.2803
 4401TIP3    H213126   0.328   5.893   3.825  1.3796  2.1367 -0.4283
 4402TIP3   OH213127   0.601   5.342   2.379  0.0316 -0.1407 -0.2008
 4402TIP3    H113128   0.562   5.404   2.440 -0.8512  1.2355 -2.1115
 4402TIP3    H213129   0.682   5.385   2.350  0.5268 -0.8562  0.1052
 4403TIP3   OH213130   0.562   4.616   2.269 -0.1190 -0.0130  0.1638
 4403TIP3    H113131   0.475   4.644   2.241 -0.3813  0.9523  1.8822
 4403TIP3    H213132   0.558   4.520   2.269 -1.0703  0.0257 -0.0839
 4404TIP3   OH213133   7.963   5.409   5.152 -0.2507 -0.3221  0.3780
 4404TIP3    H113134   7.966   5.498   5.189 -0.3385  1.1175 -2.9052
 4404TIP3    H213135   8.052   5.375   5.167  0.5137  1.2384 -0.4163
 4405TIP3   OH213136   8.185   6.479   3.529 -0.3089  0.5004  0.0164
 4405TIP3    H113137   8.132   6.496   3.451  1.1896 -1.0515 -1.3655
 4405TIP3    H213138   8.260   6.429   3.497  1.9576  2.5326  1.9589
 4406TIP3   OH213139   0.003   2.047   4.677 -0.4718 -0.3237  0.7625
 4406TIP3    H113140   0.025   2.052   4.770  2.5907 -1.4661  0.1668
 4406TIP3    H213141   0.033   2.130   4.640 -0.4990 -0.4049  0.5562
 4407TIP3   OH213142   0.158   8.056   3.611 -0.4273 -0.2489  0.5293
 4407TIP3    H113143   0.150   8.114   3.687  0.2092 -0.7751  1.0003
 4407TIP3    H213144   0.116   7.975   3.638  0.9044 -0.8589  0.7547
 4408TIP3   OH213145   8.498   4.331   1.224 -0.0007 -0.0377 -0.0722
 4408TIP3    H113146   8.580   4.287   1.246  1.7156  0.4220 -4.7776
 4408TIP3    H213147   8.484   4.310   1.131 -2.0912  4.6826 -0.9783
 4409TIP3   OH213148   1.620   7.751   1.950  0.4588  0.1560  0.4623
 4409TIP3    H113149   1.655   7.695   1.881  0.6801 -0.0306  0.7281
 4409TIP3    H213150   1.686   7.750   2.019  0.3614  0.5577  0.5668
 4410TIP3   OH213151   0.786   7.179   4.779 -0.1436  0.1509 -0.4989
 4410TIP3    H113152   0.732   7.118   4.829 -0.5470  0.3284 -0.7151
 4410TIP3    H213153   0.734   7.259   4.774  0.3211  0.4671 -0.3463
 4411TIP3   OH213154   7.649   3.712   1.326  0.1684  0.2899 -0.4823
 4411TIP3    H113155   7.565   3.746   1.294  1.2089  4.3591  0.7361
 4411TIP3    H213156   7.646   3.726   1.421  1.7553 -0.6485 -0.2808
 4412TIP3   OH213157   1.878   5.345   3.830 -0.4006 -0.2343 -0.6143
 4412TIP3    H113158   1.794   5.323   3.790 -0.2958  0.2856 -1.1350
 4412TIP3    H213159   1.889   5.439   3.813 -0.3003 -0.0274  0.5475
 4413TIP3   OH213160   1.760   3.898   3.102  0.3205 -0.2765 -0.5198
 4413TIP3    H113161   1.816   3.840   3.154  0.8549  1.1423  0.5216
 4413TIP3    H213162   1.795   3.894   3.013  1.2484 -0.4307 -0.1452
 4414TIP3   OH213163   8.555   7.054   0.794  0.3345 -0.1220 -0.2516
 4414TIP3    H113164   8.481   7.105   0.828 -0.7673 -1.8318  0.0010
 4414TIP3    H213165   8.631   7.112   0.804 -0.9021  1.5189 -0.1407
 4415TIP3   OH213166   8.713   4.794   4.305 -0.0045 -0.2670 -0.4397
 4415TIP3    H113167   8.652   4.844   4.359  0.2511 -0.4062 -0.0125
 4415TIP3    H213168   8.750   4.729   4.366 -1.2442 -1.7816 -1.2735
 4416TIP3   OH213169   1.046   5.689   3.248  0.1051  0.2306  0.0306
 4416TIP3    H113170   1.114   5.655   3.191  0.5714  0.4973  0.4259
 4416TIP3    H213171   1.079   5.774   3.276 -0.5369  0.5055 -0.0357
 4417TIP3   OH213172   1.068   8.135   4.087  0.2737  0.1595  0.7507
 4417TIP3    H113173   1.077   8.121   3.993 -1.3172  1.7902  0.3338
 4417TIP3    H213174   1.138   8.082   4.126  1.2358 -0.1621 -1.3583
 4418TIP3   OH213175   1.036   4.904   3.362 -0.4196  0.0814  0.4574
 4418TIP3    H113176   0.949   4.881   3.330 -0.6596 -0.1211  1.2670
 4418TIP3    H213177   1.073   4.822   3.394  0.8399 -0.2325 -1.6969
 4419TIP3   OH213178   8.880   6.375   5.029  0.0969  0.2731 -0.3892
 4419TIP3    H113179   8.817   6.318   4.985 -0.3314  0.9861 -0.7007
 4419TIP3    H213180   8.965   6.345   4.997 -0.0329 -1.0484  0.4495
 4420TIP3   OH213181   8.862   5.315   3.962 -0.1546 -0.8570  0.1393
 4420TIP3    H113182   8.795   5.258   3.925 -0.8435  0.4071 -0.5964
 4420TIP3    H213183   8.855   5.396   3.912  2.0136 -0.7528 -0.0440
 4421TIP3   OH213184   0.845   5.447   2.260  0.2772  0.8176 -0.3566
 4421TIP3    H113185   0.808   5.499   2.188  0.1046 -0.5997 -1.3107
 4421TIP3    H213186   0.896   5.379   2.216  2.3202  1.4793  0.9164
 4422TIP3   OH213187   0.313   6.298   2.786 -0.0724 -0.1346  0.3379
 4422TIP3    H113188   0.367   6.229   2.747 -0.2125  0.2551 -0.5765
 4422TIP3    H213189   0.370   6.375   2.786  0.0563 -0.2259  1.2820
 4423TIP3   OH213190   7.832   8.378   3.050 -0.0673 -0.3169 -0.1745
 4423TIP3    H113191   7.873   8.429   2.980 -1.3818 -2.4876 -2.6114
 4423TIP3    H213192   7.881   8.295   3.050  0.8496  0.1948  2.4752
 4424TIP3   OH213193   0.747   6.804   0.296  0.3473 -0.1811  0.1813
 4424TIP3    H113194   0.697   6.882   0.272 -2.6864 -2.3313 -0.7450
 4424TIP3    H213195   0.744   6.748   0.218  0.6584 -2.1122  1.5120
 4425TIP3   OH213196   0.205   6.519   3.654  0.5067  0.5420 -0.1999
 4425TIP3    H113197   0.142   6.487   3.719  0.7134  0.0273 -0.2498
 4425TIP3    H213198   0.182   6.612   3.643  0.3393  0.5844  0.4518
 4426TIP3   OH213199   8.388   5.005   3.149  0.7080  0.3008  0.1324
 4426TIP3    H113200   8.354   5.086   3.110 -1.9905 -0.1933  1.2962
 4426TIP3    H213201   8.396   5.025   3.242 -3.3533 -1.6939  1.0538
 4427TIP3   OH213202   0.347   7.403   1.902  0.0647  0.0076 -0.0184
 4427TIP3    H113203   0.343   7.455   1.821 -0.6491 -1.0873 -0.7009
 4427TIP3    H213204   0.395   7.458   1.963  0.9921  0.6827 -1.3280
 4428TIP3   OH213205   0.155   6.443   3.337 -0.0281 -0.1051 -0.1620
 4428TIP3    H113206   0.085   6.399   3.385  0.3279  0.1034  0.5566
 4428TIP3    H213207   0.115   6.467   3.253 -1.1364  0.9593  0.6538
 4429TIP3   OH213208   6.989   6.071   3.835  0.5947  0.5301 -0.0593
 4429TIP3    H113209   6.995   5.984   3.795  0.5718  1.1325 -1.4003
 4429TIP3    H213210   6.913   6.065   3.893  0.4328 -0.2694 -0.3497
 4430TIP3   OH213211   7.198   7.365   3.677  0.3317  0.2481 -0.0988
 4430TIP3    H113212   7.237   7.451   3.660  0.5388  0.2665  0.4803
 4430TIP3    H213213   7.124   7.361   3.616 -0.1315  1.1437  0.3882
 4431TIP3   OH213214   0.460   4.999   4.047 -0.2874 -0.0119  0.0424
 4431TIP3    H113215   0.535   4.947   4.021 -0.6202 -1.2060  1.4217
 4431TIP3    H213216   0.384   4.947   4.022 -0.6409  0.5232 -0.0076
 4432TIP3   OH213217   7.634   4.644   3.764  0.2796 -0.7600 -0.5437
 4432TIP3    H113218   7.651   4.696   3.686 -2.7463 -0.6987 -1.2089
 4432TIP3    H213219   7.650   4.554   3.737  0.1660 -0.6595 -0.9408
 4433TIP3   OH213220   6.575   6.114   4.777  0.8150  0.0318  0.0424
 4433TIP3    H113221   6.510   6.069   4.831  0.1141  0.8716 -0.1022
 4433TIP3    H213222   6.613   6.180   4.836 -0.5871  1.5613 -0.7300
 4434TIP3   OH213223   1.197   6.389   3.885  0.2056  0.1463  0.4137
 4434TIP3    H113224   1.168   6.407   3.974 -1.8731  1.3622 -0.4759
 4434TIP3    H213225   1.233   6.472   3.854  0.4431 -0.1290 -0.0595
 4435TIP3   OH213226   0.370   5.476   5.918 -0.4364  0.5652  0.3167
 4435TIP3    H113227   0.309   5.549   5.921 -0.3640  0.5815  4.5025
 4435TIP3    H213228   0.319   5.401   5.951  0.4636 -0.5183 -0.6936
 4436TIP3   OH213229   2.185   8.117   1.911  0.0722 -0.0701 -0.0105
 4436TIP3    H113230   2.262   8.064   1.890 -1.0622 -1.4966 -0.6324
 4436TIP3    H213231   2.138   8.125   1.828 -1.7727 -1.3746  0.8716
 4437TIP3   OH213232   8.854   4.703   5.075 -0.2326 -0.3268  0.1745
 4437TIP3    H113233   8.931   4.647   5.060  0.0985  0.2114 -0.1317
 4437TIP3    H213234   8.858   4.769   5.007 -2.4839 -1.8869 -1.5573
 4438TIP3   OH213235   0.529   5.527   4.707  0.0618 -0.5622 -0.6506
 4438TIP3    H113236   0.436   5.510   4.688 -0.0965 -2.1368  1.4365
 4438TIP3    H213237   0.534   5.622   4.715 -1.0994 -0.3489 -2.0760
 4439TIP3   OH213238   2.160   5.797   2.774 -0.3899  0.3075 -0.0478
 4439TIP3    H113239   2.197   5.868   2.722  0.0304  1.0492  1.2229
 4439TIP3    H213240   2.225   5.781   2.843 -1.7755  0.6812  1.3897
 4440TIP3   OH213241   0.002   4.860   4.808  0.3887 -0.0905 -0.2889
 4440TIP3    H113242  -0.033   4.924   4.745  1.9387 -0.5754 -1.6580
 4440TIP3    H213243   0.094   4.850   4.784  1.0422 -0.2406  2.1117
 4441TIP3   OH213244   8.386   4.924   5.298  0.3046  0.1255  0.1903
 4441TIP3    H113245   8.426   4.882   5.374  2.6010  1.3901 -0.2741
 4441TIP3    H213246   8.459   4.938   5.237 -1.3483 -0.1285 -1.9075
 4442TIP3   OH213247   6.978   7.009   4.286  0.1793 -0.5522  0.1215
 4442TIP3    H113248   6.948   7.019   4.377  0.7890  2.8276  0.0431
 4442TIP3    H213249   6.922   6.942   4.249 -1.5030 -0.4786  2.4284
 4443TIP3   OH213250   3.551   0.012   2.681 -0.5066 -0.1332  0.8057
 4443TIP3    H113251   3.592  -0.072   2.705 -2.5436 -1.5964 -0.6478
 4443TIP3    H213252   3.587   0.075   2.743  2.3935 -1.7475  0.8396
 4444TIP3   OH213253   4.196   0.863   1.264  0.2464  0.7795  0.2617
 4444TIP3    H113254   4.210   0.809   1.186 -0.9945  1.2104 -0.2887
 4444TIP3    H213255   4.206   0.953   1.232  1.5527  0.8988  1.0055
 4445TIP3   OH213256   0.353   5.016   7.155 -0.1186 -0.4971  0.1767
 4445TIP3    H113257   0.445   4.991   7.166  0.1661  0.1434 -0.7465
 4445TIP3    H213258   0.343   5.029   7.061 -1.3513 -1.3149  0.1943
 4446TIP3   OH213259   2.576   4.250   1.945 -0.0135  0.0657  0.0992
 4446TIP3    H113260   2.518   4.317   1.910 -0.5589 -0.3080  0.2901
 4446TIP3    H213261   2.578   4.183   1.876  1.4506  0.8016 -0.6052
 4447TIP3   OH213262   4.121   0.476   2.074  0.0181  0.1739 -0.3164
 4447TIP3    H113263   4.185   0.431   2.019 -0.8710 -1.9203  0.2956
 4447TIP3    H213264   4.120   0.566   2.042  2.9227  0.1538 -0.6434
 4448TIP3   OH213265   0.834   6.451   1.588 -0.3719  0.5159 -0.2313
 4448TIP3    H113266   0.789   6.529   1.621 -0.0017  1.0741 -1.0215
 4448TIP3    H213267   0.833   6.462   1.493  2.3424  1.0675 -0.2289
 4449TIP3   OH213268   8.240   6.488   3.798  0.2451 -0.0004 -0.1662
 4449TIP3    H113269   8.148   6.503   3.820 -0.2477 -2.1368 -0.7063
 4449TIP3    H213270   8.240   6.479   3.702  1.0242 -0.0398 -0.1609
 4450TIP3   OH213271   0.455   5.361   4.155  0.4177  0.3385 -0.0769
 4450TIP3    H113272   0.528   5.390   4.100  0.5469  1.4610  0.6556
 4450TIP3    H213273   0.483   5.382   4.244 -1.0018  1.2684  0.1707
 4451TIP3   OH213274   1.676   6.327   1.037  0.0464 -0.5052  0.6609
 4451TIP3    H113275   1.768   6.309   1.017 -0.5091  0.1624 -2.7747
 4451TIP3    H213276   1.633   6.242   1.027 -0.0208 -0.4134  0.1128
 4452TIP3   OH213277   2.084   3.189   1.681 -0.4160  0.4214 -0.5490
 4452TIP3    H113278   2.002   3.220   1.642 -0.9571 -0.4219 -0.0849
 4452TIP3    H213279   2.079   3.094   1.675  1.1749  0.3997 -1.8277
 4453TIP3   OH213280   1.610   3.702   5.242 -0.4498  0.2206  0.6457
 4453TIP3    H113281   1.687   3.717   5.296  1.3350 -1.1535 -1.4582
 4453TIP3    H213282   1.636   3.728   5.153 -2.1268 -1.0262 -0.2562
 4454TIP3   OH213283   2.580   6.044   4.039 -0.0182  0.2965  0.3203
 4454TIP3    H113284   2.504   6.092   4.072 -0.2930 -0.3025  0.5622
 4454TIP3    H213285   2.623   6.105   3.979  0.2063  1.2241  1.4062
 4455TIP3   OH213286   0.254   3.918   3.426 -0.1649 -0.2817  0.1778
 4455TIP3    H113287   0.307   3.995   3.447  1.2410 -1.0065 -0.5883
 4455TIP3    H213288   0.202   3.902   3.504 -0.1762  1.2061  0.4902
 4456TIP3   OH213289   8.672   4.067   3.287  0.0333  0.4632 -0.0129
 4456TIP3    H113290   8.600   4.127   3.305 -0.0237 -0.2054  2.1761
 4456TIP3    H213291   8.745   4.124   3.263  0.1347  1.5224  2.5340
 4457TIP3   OH213292   0.280   4.853   4.802  0.4221 -1.0505 -0.6100
 4457TIP3    H113293   0.349   4.874   4.739 -0.3315  1.4347 -0.6706
 4457TIP3    H213294   0.320   4.866   4.887  0.4899 -1.2112 -0.6164
 4458TIP3   OH213295   2.888   5.193   3.669  0.3960  0.1901  0.4493
 4458TIP3    H113296   2.940   5.165   3.745  0.9627  0.3907  0.1441
 4458TIP3    H213297   2.903   5.288   3.664  0.6275  0.1260 -0.1113
 4459TIP3   OH213298   0.390   5.315   2.827  0.2767 -0.7363 -0.6436
 4459TIP3    H113299   0.467   5.266   2.799  0.6529 -0.9537  0.7357
 4459TIP3    H213300   0.396   5.316   2.923  0.0539  1.6155 -0.6162
 4460TIP3   OH213301   8.195   4.930   5.073 -0.0919 -0.2966  0.3830
 4460TIP3    H113302   8.110   4.956   5.108 -0.4591 -0.0131 -0.7117
 4460TIP3    H213303   8.253   4.928   5.150 -0.9986 -0.1537  1.0759
 4461TIP3   OH213304   0.709   3.128   4.787  0.1672  0.0197 -0.0748
 4461TIP3    H113305   0.681   3.197   4.847 -0.4108 -0.8584  0.6681
 4461TIP3    H213306   0.779   3.169   4.735  0.3664  0.9176  0.8871
 4462TIP3   OH213307   0.170   4.783   3.415  0.5125 -0.3851 -0.6448
 4462TIP3    H113308   0.145   4.697   3.379  0.4321 -0.0142 -1.4948
 4462TIP3    H213309   0.087   4.822   3.442  0.7496 -1.3901  1.6131
 4463TIP3   OH213310   3.685   0.306   2.357 -0.1721 -0.5132  0.7019
 4463TIP3    H113311   3.635   0.381   2.324  1.2072  0.4025  0.5961
 4463TIP3    H213312   3.620   0.241   2.382 -1.4104  0.8859  1.1488
 4464TIP3   OH213313   1.283   6.573   1.266  0.0159  0.4603 -0.0430
 4464TIP3    H113314   1.258   6.597   1.355 -2.8769  2.6441 -1.3595
 4464TIP3    H213315   1.358   6.630   1.247 -0.4120  1.2060  0.4393
 4465TIP3   OH213316   1.230   5.460   5.520 -0.9593 -0.2026 -0.0324
 4465TIP3    H113317   1.213   5.481   5.612 -1.1460  3.3847 -0.8275
 4465TIP3    H213318   1.323   5.477   5.508 -0.7230 -1.6221 -0.2950
 4466TIP3   OH213319   0.330   5.894   5.499  0.7508  0.0322  0.1212
 4466TIP3    H113320   0.374   5.809   5.491  1.4767  0.4911 -0.9295
 4466TIP3    H213321   0.362   5.930   5.582  0.7545 -0.5440  0.3716
 4467TIP3   OH213322   3.285   0.196   0.822 -0.3619  0.2209 -0.4307
 4467TIP3    H113323   3.338   0.118   0.836  0.4914  0.7932 -0.4352
 4467TIP3    H213324   3.249   0.186   0.734 -1.8487 -1.0947  0.3083
 4468TIP3   OH213325   8.735   4.633   4.530  0.2734  0.4725  0.4636
 4468TIP3    H113326   8.715   4.686   4.607  0.1829 -0.5883  1.1884
 4468TIP3    H213327   8.674   4.559   4.535  0.3508  0.3294 -0.5641
 4469TIP3   OH213328   1.443   5.417   3.558 -0.0792 -0.0309 -0.2897
 4469TIP3    H113329   1.382   5.474   3.604  0.7116  1.3804 -0.9744
 4469TIP3    H213330   1.446   5.452   3.469  1.3038 -0.4384 -0.4168
 4470TIP3   OH213331   1.316   5.053   3.850 -0.2692  0.6763 -0.2431
 4470TIP3    H113332   1.234   5.021   3.814  0.5945 -0.3979 -1.3022
 4470TIP3    H213333   1.376   5.056   3.775  1.7309 -2.1495  1.1148
 4471TIP3   OH213334   1.428   2.884   2.587  0.3517  0.5799 -0.0020
 4471TIP3    H113335   1.414   2.840   2.503 -1.8057  2.3094 -0.6008
 4471TIP3    H213336   1.450   2.974   2.562  0.8986  0.8059  1.2739
 4472TIP3   OH213337   0.070   5.545   4.753  0.5006 -0.1214  0.1419
 4472TIP3    H113338  -0.005   5.492   4.779  0.3354  0.7422  1.5126
 4472TIP3    H213339   0.101   5.583   4.835  1.4395  0.8049 -0.6345
 4473TIP3   OH213340   2.872   2.782   1.650  0.4282  0.5636 -0.5485
 4473TIP3    H113341   2.819   2.836   1.591  0.8717  0.6551 -0.8578
 4473TIP3    H213342   2.961   2.789   1.617  0.6017  0.2137 -0.1643
 4474TIP3   OH213343   0.949   5.196   3.351  0.1243 -0.8241 -0.2170
 4474TIP3    H113344   0.975   5.107   3.375 -0.6730 -0.7358  1.0431
 4474TIP3    H213345   0.934   5.240   3.435 -0.7620  0.1046 -0.8472
 4475TIP3   OH213346   8.771   4.569   1.594 -0.1411  0.0504 -0.6171
 4475TIP3    H113347   8.712   4.550   1.521 -0.9185 -2.1913  0.5352
 4475TIP3    H213348   8.713   4.586   1.669  0.6516 -0.4748  0.1284
 4476TIP3   OH213349   1.233   5.194   4.972 -0.3363 -0.1537  0.1011
 4476TIP3    H113350   1.139   5.211   4.986 -0.1529  0.7175  0.3231
 4476TIP3    H213351   1.277   5.260   5.026  0.4126 -0.8373  0.3385
 4477TIP3   OH213352   3.096   0.202   4.380 -0.3908  0.2719 -0.0800
 4477TIP3    H113353   3.147   0.280   4.401 -0.4378  0.5527 -0.9847
 4477TIP3    H213354   3.006   0.234   4.370 -0.4617  0.0544 -0.1464
 4478TIP3   OH213355   1.136   5.861   2.833 -0.1627  0.3230  0.5774
 4478TIP3    H113356   1.065   5.807   2.798  0.0544  0.2977  0.1809
 4478TIP3    H213357   1.169   5.910   2.758  1.6229 -1.1942  0.3245
 4479TIP3   OH213358   0.937   8.009   1.005  0.1579 -0.2494  0.2230
 4479TIP3    H113359   0.974   7.923   1.025  1.3532  0.3018  0.3923
 4479TIP3    H213360   0.997   8.047   0.941  1.2193  1.6431  2.2825
 4480TIP3   OH213361   0.579   4.641   3.366  0.3393  0.3953 -0.8113
 4480TIP3    H113362   0.600   4.734   3.359 -0.2778  0.6798  0.7460
 4480TIP3    H213363   0.581   4.624   3.461 -0.3997 -0.9658 -1.0331
 4481TIP3   OH213364   1.260   4.189   6.844 -0.4089 -0.2868 -0.3763
 4481TIP3    H113365   1.331   4.198   6.780 -0.1887 -2.2858 -0.4504
 4481TIP3    H213366   1.240   4.279   6.870 -0.4939  0.5833 -3.2448
 4482TIP3   OH213367   1.559   5.567   2.513  0.2639  0.2016 -0.2528
 4482TIP3    H113368   1.493   5.498   2.518  0.9792 -0.5310 -0.6296
 4482TIP3    H213369   1.547   5.606   2.427 -1.6366  2.1057  0.8276
 4483TIP3   OH213370   2.315   6.213   2.045  0.2845  0.4064  0.7222
 4483TIP3    H113371   2.291   6.138   2.100 -0.8490 -0.6731 -1.1715
 4483TIP3    H213372   2.233   6.261   2.032  0.2576 -0.0773 -1.0442
 4484TIP3   OH213373   0.772   4.546   3.746 -0.6344  0.5517 -0.4411
 4484TIP3    H113374   0.726   4.465   3.767  0.8145 -0.2303 -0.2155
 4484TIP3    H213375   0.703   4.611   3.738 -1.8076 -0.6698 -0.4731
 4485TIP3   OH213376   0.465   4.890   4.598  0.7076  0.5240  0.1063
 4485TIP3    H113377   0.519   4.970   4.598  3.8201 -1.4851 -0.9590
 4485TIP3    H213378   0.509   4.831   4.537 -0.8775 -2.4352  1.6949
 4486TIP3   OH213379   2.777   6.190   2.948 -0.1940  0.0148  0.0349
 4486TIP3    H113380   2.765   6.096   2.937  1.6592 -0.5782  2.5420
 4486TIP3    H213381   2.699   6.219   2.994 -0.9022 -0.2283 -0.9944
 4487TIP3   OH213382   0.693   5.234   3.985  0.0014  0.2392 -0.2293
 4487TIP3    H113383   0.673   5.143   3.962  0.5890 -0.1091  0.6152
 4487TIP3    H213384   0.772   5.228   4.039 -0.6627  1.1477  0.8618
 4488TIP3   OH213385   2.360   1.718   2.346 -0.1716  0.1120  0.5481
 4488TIP3    H113386   2.302   1.756   2.412 -1.1035 -0.9036  0.3321
 4488TIP3    H213387   2.444   1.762   2.360 -0.8817  1.3240  1.1166
 4489TIP3   OH213388   2.211   5.479   2.426 -0.2408  0.0788  0.4219
 4489TIP3    H113389   2.140   5.513   2.481 -0.1117 -0.4650  0.9238
 4489TIP3    H213390   2.188   5.388   2.410 -0.9356  0.5816 -1.5075
 4490TIP3   OH213391   8.766   2.421   3.790  0.2661  0.0366  0.0926
 4490TIP3    H113392   8.715   2.501   3.773  0.8479  0.0938 -1.4021
 4490TIP3    H213393   8.807   2.438   3.875 -1.5223  0.3350  0.9302
 4491TIP3   OH213394   2.436   4.153   2.929  0.2371 -0.2381  0.2300
 4491TIP3    H113395   2.441   4.244   2.902  0.1595 -0.8369 -1.9231
 4491TIP3    H213396   2.524   4.133   2.963  0.9406  0.0361 -1.3803
 4492TIP3   OH213397   7.920   4.035   2.524  0.2025  0.0769  0.5176
 4492TIP3    H113398   7.897   4.113   2.475 -0.6568  0.7105  1.8910
 4492TIP3    H213399   7.942   3.970   2.458 -1.3517  0.7748 -0.7142
 4493TIP3   OH213400   0.220   5.410   3.450 -0.3915 -0.0665 -0.4380
 4493TIP3    H113401   0.212   5.435   3.357  0.7736 -0.1141 -0.5562
 4493TIP3    H213402   0.218   5.314   3.449 -0.5056 -0.0651 -0.3968
 4494TIP3   OH213403   3.390   3.136   1.781  0.2933 -0.4402 -0.4092
 4494TIP3    H113404   3.423   3.076   1.849  0.7513 -1.0395 -1.1590
 4494TIP3    H213405   3.308   3.170   1.817  0.5375 -0.7484  0.4538
 4495TIP3   OH213406   0.595   3.807   3.183 -0.6365 -0.4524 -0.3072
 4495TIP3    H113407   0.647   3.767   3.252  1.1615  0.3721 -1.1450
 4495TIP3    H213408   0.653   3.872   3.143 -2.2841  0.4543 -1.3226
 4496TIP3   OH213409   0.871   8.316   2.140  0.6032 -0.1525 -0.4285
 4496TIP3    H113410   0.869   8.237   2.193 -0.0996  0.4936  0.5082
 4496TIP3    H213411   0.945   8.367   2.175  0.4907  0.0207 -0.4420
 4497TIP3   OH213412   1.071   6.655   2.251  0.3593  0.1902  0.3105
 4497TIP3    H113413   1.144   6.714   2.271  1.8956 -1.4421 -0.3266
 4497TIP3    H213414   1.056   6.668   2.157 -0.8662  1.2558  0.6376
 4498TIP3   OH213415   0.627   5.855   3.030  0.1493 -0.4989  0.4478
 4498TIP3    H113416   0.686   5.800   3.083  2.5088 -0.4460 -2.0150
 4498TIP3    H213417   0.685   5.919   2.988 -2.0658  1.4100  0.1710
 4499TIP3   OH213418   1.660   4.595   0.649  0.5322  0.4333 -0.0196
 4499TIP3    H113419   1.569   4.590   0.622  0.5423  1.4934 -0.2773
 4499TIP3    H213420   1.690   4.504   0.652 -0.0685  0.1885 -1.5047
 4500TIP3   OH213421   0.489   5.273   3.071 -0.6904 -0.3028 -0.0527
 4500TIP3    H113422   0.547   5.272   3.148  1.8897 -1.1762 -1.9089
 4500TIP3    H213423   0.422   5.207   3.091 -1.1673  0.8092  2.2127
 4501TIP3   OH213424   7.955   6.875   2.430  0.0220 -0.6194 -0.1506
 4501TIP3    H113425   7.983   6.940   2.365 -0.3683 -0.0724  0.2296
 4501TIP3    H213426   7.917   6.804   2.377 -0.0810 -0.2819 -0.5356
 4502TIP3   OH213427   3.612   0.371   1.620  0.3141 -0.3900  0.4328
 4502TIP3    H113428   3.668   0.385   1.696  0.3408 -0.9335  0.5153
 4502TIP3    H213429   3.654   0.299   1.572 -0.4415 -0.9699  0.6219
 4503TIP3   OH213430   2.788   4.813   5.684 -0.0608  0.3375  0.0722
 4503TIP3    H113431   2.721   4.782   5.623  1.0742 -1.2026 -0.4264
 4503TIP3    H213432   2.841   4.874   5.633 -1.4946  2.1177  0.6726
 4504TIP3   OH213433   1.561   6.547   3.543 -0.3650 -0.5684  0.1663
 4504TIP3    H113434   1.529   6.472   3.593  0.2191 -0.7114  0.3362
 4504TIP3    H213435   1.557   6.519   3.451 -2.1326 -0.0382  0.0789
 4505TIP3   OH213436   0.794   6.884   1.343  0.0841 -0.0323 -0.3891
 4505TIP3    H113437   0.740   6.949   1.297 -1.1189  0.2182  1.3398
 4505TIP3    H213438   0.799   6.916   1.433  0.1013 -1.9567  0.3069
 4506TIP3   OH213439   2.790   4.374   2.965 -0.4395 -0.1255  0.1949
 4506TIP3    H113440   2.870   4.371   3.017 -0.4889 -2.1898  0.1868
 4506TIP3    H213441   2.762   4.465   2.968  2.9455  1.0412 -1.3803
 4507TIP3   OH213442   0.972   7.569   3.456 -0.0860  0.9930  0.7581
 4507TIP3    H113443   1.018   7.485   3.446  1.4944  2.1130 -2.0858
 4507TIP3    H213444   0.884   7.552   3.421 -0.0186  0.3390  0.8901
 4508TIP3   OH213445   2.211   3.981   2.203 -0.4411 -0.0159 -0.2042
 4508TIP3    H113446   2.307   3.987   2.201 -0.5173  1.4805 -0.0634
 4508TIP3    H213447   2.193   3.906   2.260  0.6373 -0.1249  0.0107
 4509TIP3   OH213448   0.737   6.473   0.308 -0.1548 -0.0161  0.4118
 4509TIP3    H113449   0.803   6.531   0.345  2.0786 -0.3501 -2.9400
 4509TIP3    H213450   0.739   6.396   0.365  1.5998  0.3994  0.9364
 4510TIP3   OH213451   2.771   5.823   0.917  0.5958  0.3031 -0.0307
 4510TIP3    H113452   2.710   5.826   0.844 -1.1346  0.2310  1.3909
 4510TIP3    H213453   2.847   5.873   0.886 -0.1756  0.4181 -1.8000
 4511TIP3   OH213454   3.815   5.586   2.044  0.3311 -0.0486 -0.1158
 4511TIP3    H113455   3.875   5.629   1.983 -1.0793  0.4607 -1.1645
 4511TIP3    H213456   3.844   5.614   2.131  1.0501  0.9057 -0.6580
 4512TIP3   OH213457   1.535   5.930   1.912  0.1642 -0.3301 -0.1390
 4512TIP3    H113458   1.598   5.858   1.921 -0.9080 -1.1872  0.6798
 4512TIP3    H213459   1.491   5.912   1.829  0.3730 -0.2454 -0.2670
 4513TIP3   OH213460   1.820   5.369   1.886  0.8118  0.3469  0.3406
 4513TIP3    H113461   1.850   5.303   1.949  0.6432 -0.7105 -0.6690
 4513TIP3    H213462   1.815   5.322   1.803  0.7888  1.6689 -0.4163
 4514TIP3   OH213463   0.392   5.772   2.647 -0.5473  0.0708  0.1916
 4514TIP3    H113464   0.330   5.839   2.674 -1.5134 -0.0964 -1.5666
 4514TIP3    H213465   0.477   5.804   2.678 -1.0050  2.0548 -0.5362
 4515TIP3   OH213466   0.172   4.565   2.730  0.5745  0.0407  0.2538
 4515TIP3    H113467   0.216   4.546   2.813  0.3305 -0.6220  0.2300
 4515TIP3    H213468   0.241   4.563   2.664  0.5960 -0.4319  0.2954
 4516TIP3   OH213469   8.372   7.632   2.014 -0.2537 -0.3131  0.1452
 4516TIP3    H113470   8.356   7.706   1.955 -0.8063 -0.5207  0.0366
 4516TIP3    H213471   8.293   7.628   2.069  1.0451  1.0864  2.1975
 4517TIP3   OH213472   1.442   4.212   3.874 -0.2492  0.2348 -0.5470
 4517TIP3    H113473   1.420   4.305   3.866 -0.7233  0.3434  1.6180
 4517TIP3    H213474   1.534   4.211   3.897 -0.6322  0.2606  1.0435
 4518TIP3   OH213475   0.965   7.875   3.549  0.2884 -0.8772  0.1268
 4518TIP3    H113476   0.998   7.931   3.479  0.8168  0.5791  1.5318
 4518TIP3    H213477   0.970   7.786   3.513  2.3191 -0.3330 -0.9904
 4519TIP3   OH213478   1.036   6.939   2.382  0.4959  0.0735  0.0321
 4519TIP3    H113479   1.059   7.015   2.435 -2.9499 -0.6576  2.7546
 4519TIP3    H213480   0.947   6.957   2.353  0.1285 -2.3227 -0.3862
 4520TIP3   OH213481   2.656   6.822   0.591 -0.0179  0.3976  0.0364
 4520TIP3    H113482   2.735   6.781   0.626 -0.1749 -0.0055 -0.0851
 4520TIP3    H213483   2.626   6.879   0.662  2.1632  3.0154 -1.0717
 4521TIP3   OH213484   0.105   5.971   2.616  0.1026  0.3041  0.0158
 4521TIP3    H113485   0.071   5.893   2.659  0.9944 -0.7461 -1.1464
 4521TIP3    H213486   0.155   6.017   2.683 -0.1899 -0.2643  0.6194
 4522TIP3   OH213487   1.411   5.638   2.277 -0.3824 -0.0236 -0.6990
 4522TIP3    H113488   1.354   5.714   2.263  1.4235  1.6601  0.9135
 4522TIP3    H213489   1.351   5.569   2.307 -1.9250  0.9826 -1.3727
 4523TIP3   OH213490   8.260   4.035   2.500  0.2225 -0.5883 -0.5334
 4523TIP3    H113491   8.311   3.971   2.550  1.0999 -1.5878 -2.6081
 4523TIP3    H213492   8.169   4.020   2.527  0.6922 -0.9469  0.8854
 4524TIP3   OH213493   0.916   7.497   0.776 -0.2923 -0.0230 -0.4989
 4524TIP3    H113494   0.931   7.503   0.682  2.7868 -1.9204 -0.1952
 4524TIP3    H213495   1.004   7.497   0.814 -1.4867  1.0032  2.4221
 4525TIP3   OH213496   8.317   4.501   3.832 -0.4901 -0.3134 -0.8568
 4525TIP3    H113497   8.311   4.594   3.853  0.9442 -0.1599 -1.0725
 4525TIP3    H213498   8.360   4.498   3.747 -1.5316 -1.1397 -1.3587
 4526TIP3   OH213499   2.785   4.999   2.388  0.1560  0.5681  0.6841
 4526TIP3    H113500   2.712   5.058   2.406  0.7933  0.4624  3.8549
 4526TIP3    H213501   2.804   4.958   2.472 -0.4212 -4.4292 -1.4627
 4527TIP3   OH213502   2.558   5.672   2.338 -0.1343  0.8127  0.3619
 4527TIP3    H113503   2.561   5.660   2.243 -1.6501  0.8567  0.3039
 4527TIP3    H213504   2.626   5.738   2.356 -0.3783  1.3833 -0.7746
 4528TIP3   OH213505   2.251   7.480   3.990  0.6415  0.0126  0.1270
 4528TIP3    H113506   2.320   7.417   3.969 -0.4911 -1.1027 -0.2924
 4528TIP3    H213507   2.170   7.433   3.975 -0.2615  0.3519  3.4170
 4529TIP3   OH213508   0.735   6.507   2.284 -0.1524 -0.0776  0.6953
 4529TIP3    H113509   0.742   6.438   2.350 -2.7302 -1.0587  0.0260
 4529TIP3    H213510   0.671   6.473   2.221 -1.6991  3.0344  0.4943
 4530TIP3   OH213511   1.351   8.219   1.728  0.3648 -0.1387  0.4104
 4530TIP3    H113512   1.369   8.186   1.816  0.4057 -2.2461 -0.3508
 4530TIP3    H213513   1.383   8.309   1.729  0.6339 -0.2321  2.4535
 4531TIP3   OH213514   0.838   5.121   3.700 -0.0779 -0.1571  0.3200
 4531TIP3    H113515   0.824   5.215   3.703 -1.4591 -0.3247 -0.5746
 4531TIP3    H213516   0.772   5.084   3.759 -1.1188 -0.7079 -1.1578
 4532TIP3   OH213517   1.055   5.876   2.296  0.5360  0.2694 -0.0905
 4532TIP3    H113518   1.103   5.833   2.225  1.1034 -1.2084  1.1513
 4532TIP3    H213519   1.111   5.865   2.372 -0.8750  0.2533  0.9645
 4533TIP3   OH213520   4.135   6.156   2.491 -0.0882 -0.4303 -1.0385
 4533TIP3    H113521   4.115   6.112   2.573  0.3414 -1.9818 -1.7502
 4533TIP3    H213522   4.226   6.185   2.500 -0.5157  0.7520 -0.3911
 4534TIP3   OH213523   8.715   4.016   6.019 -0.5060 -0.0479  0.0891
 4534TIP3    H113524   8.679   3.992   5.934  0.0658 -0.9386  0.0959
 4534TIP3    H213525   8.696   4.110   6.027 -1.1259 -0.0958 -0.7332
 4535TIP3   OH213526   0.103   2.682   3.325  0.0391 -0.6840  0.0573
 4535TIP3    H113527   0.073   2.661   3.237 -0.8449 -1.6390  0.5741
 4535TIP3    H213528   0.065   2.768   3.344  0.7809 -0.1805 -0.7447
 4536TIP3   OH213529   1.328   2.582   2.693  0.5023 -0.4132 -0.7751
 4536TIP3    H113530   1.293   2.671   2.699 -0.1122 -0.8125  2.9331
 4536TIP3    H213531   1.250   2.527   2.688  0.8764 -0.7702 -2.7620
 4537TIP3   OH213532   3.374   5.230   3.476 -0.0955  0.2751 -0.0693
 4537TIP3    H113533   3.325   5.148   3.479  0.9728 -0.4097 -0.9102
 4537TIP3    H213534   3.330   5.287   3.539 -0.6882 -1.0341  0.7145
 4538TIP3   OH213535   0.530   7.069   0.937 -0.1600  0.2856  1.0458
 4538TIP3    H113536   0.535   7.164   0.946  0.3060  0.3146  0.4919
 4538TIP3    H213537   0.615   7.043   0.901 -0.3149 -0.3319  1.1095
 4539TIP3   OH213538   2.753   2.916   1.867 -1.3305  0.0240  0.3459
 4539TIP3    H113539   2.812   2.876   1.803 -0.6128 -0.4753  1.3095
 4539TIP3    H213540   2.676   2.942   1.816 -1.5667 -2.0639 -0.4032
 4540TIP3   OH213541   0.724   5.826   3.544 -0.3944  0.2040 -0.4506
 4540TIP3    H113542   0.657   5.891   3.522 -0.5669 -0.8936 -3.4929
 4540TIP3    H213543   0.684   5.773   3.613 -1.7987  0.9214 -0.7005
 4541TIP3   OH213544   7.114   0.253   6.265 -0.6908  0.6911  0.1497
 4541TIP3    H113545   7.032   0.205   6.260 -0.2492 -0.1632  0.8648
 4541TIP3    H213546   7.105   0.324   6.201 -1.5953  0.0246 -0.4663
 4542TIP3   OH213547   1.260   5.836   2.454  0.4888 -0.4363 -0.3175
 4542TIP3    H113548   1.252   5.749   2.493 -0.6865 -0.8629 -1.4850
 4542TIP3    H213549   1.352   5.860   2.468  0.7156 -1.6799  0.3814
 4543TIP3   OH213550   4.307   2.608   4.589  0.0657 -0.1000  0.2905
 4543TIP3    H113551   4.259   2.691   4.581 -0.0208 -0.1931 -0.1760
 4543TIP3    H213552   4.240   2.545   4.616  0.1604  0.0106  0.7837
 4544TIP3   OH213553   1.411   5.332   2.567 -0.0011 -0.6908  0.3887
 4544TIP3    H113554   1.467   5.262   2.534  0.1042 -0.1659 -0.5705
 4544TIP3    H213555   1.323   5.294   2.569  0.1730 -1.0815  0.5650
 4545TIP3   OH213556   3.966   6.262   5.786  0.0007  0.5265  0.0824
 4545TIP3    H113557   3.992   6.186   5.734 -0.6769  1.0464 -1.0186
 4545TIP3    H213558   3.871   6.267   5.776 -0.2559  0.0887  2.1105
 4546TIP3   OH213559   2.322   6.224   1.307 -0.0190  0.1651 -0.2159
 4546TIP3    H113560   2.366   6.190   1.385  0.8589 -0.5578 -1.0297
 4546TIP3    H213561   2.230   6.233   1.334  0.5594  1.4415  1.4009
 4547TIP3   OH213562   7.813   4.416   3.727 -0.5493  0.3907  0.3458
 4547TIP3    H113563   7.878   4.473   3.686 -0.5225 -0.6259 -1.0598
 4547TIP3    H213564   7.863   4.356   3.781 -0.3583 -0.0406 -0.3068
 4548TIP3   OH213565   2.794   3.961   2.161 -0.1389  0.4455  0.4156
 4548TIP3    H113566   2.768   3.888   2.217  0.3966  0.4698  0.6992
 4548TIP3    H213567   2.786   3.926   2.072  1.4605 -0.4311  0.5873
 4549TIP3   OH213568   1.431   6.709   2.012 -0.2102 -0.4009  0.4622
 4549TIP3    H113569   1.451   6.755   2.094 -1.1746 -0.3306  0.6695
 4549TIP3    H213570   1.443   6.617   2.033 -0.7470 -0.4034  0.7791
 4550TIP3   OH213571   0.787   3.012   3.056  0.3237 -0.0098  0.0691
 4550TIP3    H113572   0.877   3.041   3.074  0.4931 -0.7770  0.4471
 4550TIP3    H213573   0.785   2.920   3.081 -0.4252 -0.1443 -0.4493
 4551TIP3   OH213574   0.414   7.200   3.579 -0.2909 -0.2342  0.1464
 4551TIP3    H113575   0.487   7.207   3.519 -0.9126  0.0637 -0.5778
 4551TIP3    H213576   0.451   7.157   3.657  1.3762  2.6006  1.0003
 4552TIP3   OH213577   0.914   5.527   3.918  0.1054 -0.3767  0.2188
 4552TIP3    H113578   0.951   5.597   3.864 -2.1743  0.8281  0.1512
 4552TIP3    H213579   0.858   5.573   3.981 -1.2304 -2.1355  0.3250
 4553TIP3   OH213580   2.546   3.621   3.071 -0.7364  0.4311  0.6206
 4553TIP3    H113581   2.626   3.650   3.028 -0.2098 -0.2211  1.1449
 4553TIP3    H213582   2.516   3.698   3.120 -0.9526  0.9578 -0.3390
 4554TIP3   OH213583   1.821   6.050   0.881 -0.2314 -0.0295  0.0600
 4554TIP3    H113584   1.819   5.955   0.881 -0.5964 -0.0369 -1.0267
 4554TIP3    H213585   1.729   6.077   0.881 -0.1833  0.2660 -2.5008
 4555TIP3   OH213586   1.079   7.114   3.003 -0.3683 -0.3514  0.2318
 4555TIP3    H113587   1.020   7.073   2.939 -1.8687  0.0476  1.3480
 4555TIP3    H213588   1.159   7.131   2.953 -1.6298  0.2719 -1.6348
 4556TIP3   OH213589   1.034   6.892   1.756 -0.2410 -0.2215 -0.5993
 4556TIP3    H113590   1.127   6.915   1.758 -0.6444  1.2930  1.0293
 4556TIP3    H213591   1.023   6.848   1.671  1.1917  2.7522 -2.4044
 4557TIP3   OH213592   2.043   5.814   2.366 -0.5262  0.1186 -0.0023
 4557TIP3    H113593   2.134   5.831   2.393 -0.1857 -0.2416 -0.9300
 4557TIP3    H213594   2.020   5.733   2.411 -0.4812  0.3405  0.4317
 4558TIP3   OH213595   8.807   3.090   2.725 -0.2356 -0.3081 -1.1406
 4558TIP3    H113596   8.849   3.042   2.654  1.0332 -0.0615 -0.5594
 4558TIP3    H213597   8.864   3.165   2.742 -0.5456 -0.3430  0.1197
 4559TIP3   OH213598   1.183   7.487   2.688 -0.1813  0.0050 -0.4597
 4559TIP3    H113599   1.126   7.476   2.612 -1.5266  2.1290  0.2097
 4559TIP3    H213600   1.250   7.418   2.678 -0.3803  0.2003 -3.5013
 4560TIP3   OH213601   1.833   5.167   2.074  0.7810  0.2806 -0.4836
 4560TIP3    H113602   1.813   5.170   2.168 -2.9624 -0.0483 -1.1692
 4560TIP3    H213603   1.881   5.085   2.063  0.6934 -0.0041  1.0645
 4561TIP3   OH213604   1.843   3.975   2.847 -0.1023 -0.0462 -0.5284
 4561TIP3    H113605   1.824   4.068   2.862  0.2169  0.0752 -0.8962
 4561TIP3    H213606   1.926   3.974   2.800 -0.8409 -0.4587 -1.8475
 4562TIP3   OH213607   1.340   3.606   3.356 -0.3896 -0.7893 -0.3217
 4562TIP3    H113608   1.323   3.694   3.324  2.0986 -0.9910 -2.3611
 4562TIP3    H213609   1.255   3.575   3.387 -2.0035  1.0693 -2.7508
 4563TIP3   OH213610   3.448   4.922   2.538  0.3112  0.4617  0.4689
 4563TIP3    H113611   3.478   4.879   2.458 -0.3175 -0.6380  0.8198
 4563TIP3    H213612   3.524   4.918   2.597  0.9063  1.6382 -0.2099
 4564TIP3   OH213613   1.924   4.923   1.978 -0.1040 -0.2705  0.1549
 4564TIP3    H113614   1.906   4.891   2.066 -4.1354  0.2168 -0.4135
 4564TIP3    H213615   1.946   4.844   1.928 -1.9129 -1.1467  0.6769
 4565TIP3   OH213616   3.289   5.009   0.939  0.1288 -0.0115  0.3375
 4565TIP3    H113617   3.317   4.958   1.016 -2.5241 -2.4415 -0.2203
 4565TIP3    H213618   3.366   5.008   0.882  1.0256 -1.0906  1.5117
 4566TIP3   OH213619   1.235   5.834   1.204 -0.1568  0.0428 -0.1045
 4566TIP3    H113620   1.214   5.742   1.221  1.3933  0.1287  2.4279
 4566TIP3    H213621   1.151   5.873   1.178 -1.3032 -1.5611  1.1229
 4567TIP3   OH213622   3.004   2.909   4.778  0.2564  0.5585 -0.5170
 4567TIP3    H113623   3.012   2.895   4.872 -1.3725 -0.2098 -0.4690
 4567TIP3    H213624   2.920   2.956   4.769  0.2419  0.3247 -1.6051
 4568TIP3   OH213625   1.118   8.087   2.187  0.0701  1.0530  0.0857
 4568TIP3    H113626   1.107   7.996   2.162 -1.7683  1.3661 -0.3192
 4568TIP3    H213627   1.042   8.107   2.241  1.1557  1.9713  1.2910
 4569TIP3   OH213628   1.427   6.336   1.788 -0.1710  0.3211  0.7278
 4569TIP3    H113629   1.356   6.336   1.853 -1.3700 -0.9446 -0.5510
 4569TIP3    H213630   1.389   6.294   1.711  1.9296 -0.2073 -0.0463
 4570TIP3   OH213631   1.373   7.389   2.321 -0.2392 -0.2199 -0.4607
 4570TIP3    H113632   1.415   7.354   2.243  1.1878 -1.0322  0.6433
 4570TIP3    H213633   1.437   7.450   2.357 -0.6927 -0.2099  0.3368
 4571TIP3   OH213634   0.621   5.725   3.789 -0.1101 -0.1676 -0.1679
 4571TIP3    H113635   0.532   5.754   3.810  0.0654 -0.5491  1.1340
 4571TIP3    H213636   0.625   5.635   3.820  0.5500 -0.3489 -0.7653
 4572TIP3   OH213637   0.871   6.322   2.952  0.1812  0.2767  0.0509
 4572TIP3    H113638   0.880   6.409   2.913  1.5061 -0.8998 -2.3789
 4572TIP3    H213639   0.954   6.279   2.932 -0.2984 -1.3993  1.6138
 4573TIP3   OH213640   1.533   6.231   4.345  0.1986  0.0502  0.2964
 4573TIP3    H113641   1.576   6.180   4.414  0.4744 -1.1951 -0.7994
 4573TIP3    H213642   1.587   6.218   4.268  0.0341  1.6706 -0.1134
 4574TIP3   OH213643   0.567   4.763   3.814 -0.4940 -0.1591 -0.1860
 4574TIP3    H113644   0.505   4.770   3.742 -0.4810  1.0551 -0.0934
 4574TIP3    H213645   0.522   4.710   3.880 -1.3358  0.5037 -0.2211
 4575TIP3   OH213646   0.112   6.349  -0.018  0.1176 -0.1373 -0.1959
 4575TIP3    H113647   0.152   6.263  -0.003  0.1540  0.3428  2.6587
 4575TIP3    H213648   0.026   6.344   0.024  0.0081  1.1242 -0.2495
 4576TIP3   OH213649   0.811   7.292   2.300  0.3251 -0.1689 -0.7323
 4576TIP3    H113650   0.781   7.202   2.284 -2.4662  0.7308 -0.9512
 4576TIP3    H213651   0.771   7.315   2.384  0.5441  1.0512 -0.9633
 4577TIP3   OH213652   8.557   6.104   3.143 -0.1617 -0.5636  0.1327
 4577TIP3    H113653   8.597   6.029   3.099  0.3183  0.9473 -2.1153
 4577TIP3    H213654   8.631   6.157   3.173 -0.4173  0.8559 -1.6194
 4578TIP3   OH213655   0.339   5.702   1.509 -0.4208 -0.4473  0.8361
 4578TIP3    H113656   0.366   5.772   1.568  2.2187 -0.0771 -0.7161
 4578TIP3    H213657   0.287   5.746   1.441 -0.5401 -0.3297  1.0035
 4579TIP3   OH213658   0.995   6.400   2.203  0.4319 -0.3977  0.7787
 4579TIP3    H113659   0.901   6.384   2.212  0.4011 -0.3321  0.5773
 4579TIP3    H213660   1.007   6.490   2.234  0.6081 -0.7994  1.9280
 4580TIP3   OH213661   1.869   4.757   2.950  0.2720 -0.8783 -0.2315
 4580TIP3    H113662   1.950   4.799   2.978  0.4996 -1.6918  0.3601
 4580TIP3    H213663   1.835   4.716   3.029 -1.2824  0.3648 -0.2478
 4581TIP3   OH213664   2.435   6.215   2.428  0.3532 -0.4892 -0.3895
 4581TIP3    H113665   2.486   6.278   2.378 -1.5803  0.2267 -1.5171
 4581TIP3    H213666   2.458   6.130   2.390  1.3209 -0.2546 -0.3267
 4582TIP3   OH213667   1.835   6.023   1.742  0.0850  0.0547  0.0379
 4582TIP3    H113668   1.825   5.955   1.809 -2.0874 -1.1785 -1.4611
 4582TIP3    H213669   1.752   6.071   1.744  0.8540  1.4089 -0.2690
 4583TIP3   OH213670   3.447   5.014   1.740 -0.4147 -0.2710  0.1138
 4583TIP3    H113671   3.363   5.052   1.765 -0.7747 -0.8946 -0.1352
 4583TIP3    H213672   3.495   5.006   1.823 -0.9831 -0.8275  0.3994
 4584TIP3   OH213673   0.948   4.040   2.386  0.3119 -0.1492  0.5693
 4584TIP3    H113674   0.870   3.989   2.362 -0.2007  1.5111 -1.4871
 4584TIP3    H213675   0.993   3.986   2.450 -0.3434 -3.0676 -1.3083
 4585TIP3   OH213676   1.278   6.163   1.623  0.1097 -0.4464  0.2814
 4585TIP3    H113677   1.209   6.098   1.608  0.4393 -0.6461 -0.4021
 4585TIP3    H213678   1.234   6.248   1.611 -0.2358 -0.5504  0.8081
 4586TIP3   OH213679   2.600   4.992   2.746 -0.0521 -0.3070 -0.2004
 4586TIP3    H113680   2.505   5.004   2.741  0.0604  1.4620  1.2400
 4586TIP3    H213681   2.615   4.904   2.712 -2.2167 -0.6193 -0.4167
 4587TIP3   OH213682   8.873   6.893   1.809  0.3543  0.0009 -0.2575
 4587TIP3    H113683   8.887   6.986   1.823 -0.5969  0.2287 -0.7733
 4587TIP3    H213684   8.939   6.868   1.744  0.3419  0.4045 -0.4258
 4588TIP3   OH213685   0.103   6.156   3.147 -0.2541  0.0098  0.1165
 4588TIP3    H113686   0.022   6.141   3.195 -1.2611 -0.7070 -1.7453
 4588TIP3    H213687   0.085   6.123   3.059  1.9062  0.2680 -0.4526
 4589TIP3   OH213688   1.074   6.151   2.859 -0.2250 -0.2947 -0.8392
 4589TIP3    H113689   1.096   6.061   2.878  0.2282  0.1773  0.8982
 4589TIP3    H213690   1.153   6.188   2.819  0.1344 -0.2210 -0.0575
 4590TIP3   OH213691   2.410   6.619   1.159  0.9888  0.2859 -0.9021
 4590TIP3    H113692   2.414   6.553   1.228 -0.5066  1.6455  0.5129
 4590TIP3    H213693   2.495   6.614   1.116  1.3667 -1.6684 -0.0057
 4591TIP3   OH213694   8.095   7.247   0.344 -0.1350 -0.4999 -0.7831
 4591TIP3    H113695   8.114   7.234   0.251 -1.0000  0.3868 -1.0858
 4591TIP3    H213696   8.002   7.226   0.353 -0.2193  0.0894 -0.2478
 4592TIP3   OH213697   1.026   6.741   1.538  0.2595 -0.0679 -0.4870
 4592TIP3    H113698   1.072   6.657   1.542  2.9017  1.3575 -0.1152
 4592TIP3    H213699   1.007   6.754   1.445  0.0886 -0.9565 -0.5760
 4593TIP3   OH213700   8.898   4.945   4.143 -0.5683  0.1614  0.0627
 4593TIP3    H113701   8.885   4.953   4.049 -0.0976  0.1685 -0.0062
 4593TIP3    H213702   8.851   4.866   4.168  0.7041 -0.7891 -0.4702
 4594TIP3   OH213703   2.420   5.405   3.761  0.1770 -0.7024  0.3575
 4594TIP3    H113704   2.509   5.405   3.796  0.7173 -0.8605 -0.9852
 4594TIP3    H213705   2.408   5.318   3.724 -0.3986 -0.5575  0.1909
 4595TIP3   OH213706   2.119   7.278   1.985 -0.6025  0.0077  0.3029
 4595TIP3    H113707   2.114   7.372   2.003  0.7115 -0.0917  1.2748
 4595TIP3    H213708   2.113   7.271   1.890  1.2585  1.2510  0.0655
 4596TIP3   OH213709   2.632   4.217   4.646  0.0485 -0.5659 -0.0954
 4596TIP3    H113710   2.597   4.306   4.653 -2.4933 -1.5788  0.6681
 4596TIP3    H213711   2.677   4.201   4.728 -0.4897 -0.3708  0.2402
 4597TIP3   OH213712   3.420   3.624   3.864 -0.3206  0.7622 -0.0166
 4597TIP3    H113713   3.350   3.660   3.919 -0.3574  2.0603 -0.8755
 4597TIP3    H213714   3.485   3.590   3.926 -0.8389  1.2679  0.8109
 4598TIP3   OH213715   0.224   7.060   2.002  0.4431 -0.7560  0.2456
 4598TIP3    H113716   0.183   7.107   1.929  0.4740 -0.5005  0.3927
 4598TIP3    H213717   0.286   7.000   1.961  1.4943  0.3905  0.1282
 4599TIP3   OH213718   1.448   4.892   1.198  0.1802 -0.0549  0.2803
 4599TIP3    H113719   1.454   4.868   1.291 -0.4434  1.3430  0.6908
 4599TIP3    H213720   1.422   4.811   1.154  1.8472 -1.0888  1.1275
 4600TIP3   OH213721   2.226   4.307   4.019 -0.3076  0.0759  0.3031
 4600TIP3    H113722   2.226   4.228   3.965  0.9083 -0.0932  0.5505
 4600TIP3    H213723   2.246   4.277   4.107  1.0309  0.7603  0.2450
 4601TIP3   OH213724   2.239   6.654   2.806 -0.1696  0.2219  0.6400
 4601TIP3    H113725   2.166   6.595   2.789  1.1205 -1.1397 -0.2098
 4601TIP3    H213726   2.315   6.597   2.817  0.9617  1.6724  0.5107
 4602TIP3   OH213727   1.721   5.281   3.154 -0.5906  0.5356 -0.9829
 4602TIP3    H113728   1.674   5.223   3.214  0.6398  1.4407  0.9139
 4602TIP3    H213729   1.673   5.364   3.158 -0.4564  0.6222 -1.1532
 4603TIP3   OH213730   3.388   0.144   3.158  0.0373 -0.2301 -0.6749
 4603TIP3    H113731   3.361   0.122   3.247 -1.0930  1.9332 -0.4443
 4603TIP3    H213732   3.465   0.200   3.170  0.3569 -0.5788 -1.0885
 4604TIP3   OH213733   0.330   7.559   3.008 -0.4786  0.1776 -0.2167
 4604TIP3    H113734   0.416   7.517   3.003 -0.5179  0.1123 -0.3759
 4604TIP3    H213735   0.308   7.577   2.916 -0.5181  0.4294 -0.1573
 4605TIP3   OH213736   0.563   5.757   4.279  0.1358  0.1448  0.3596
 4605TIP3    H113737   0.479   5.794   4.304 -0.2437 -1.6316  1.7963
 4605TIP3    H213738   0.623   5.832   4.275 -1.3524  1.3277 -0.0665
 4606TIP3   OH213739   7.788   5.891   2.233 -0.4532 -0.1376  0.0503
 4606TIP3    H113740   7.839   5.952   2.180 -0.7206  0.8204  0.8596
 4606TIP3    H213741   7.826   5.805   2.215  0.5533  0.3912 -0.3941
 4607TIP3   OH213742   2.038   8.036   4.084  0.1397  0.7920  0.1657
 4607TIP3    H113743   1.964   7.976   4.076  1.4677 -0.9465  0.4725
 4607TIP3    H213744   2.016   8.091   4.159 -1.6241  1.4660 -0.8252
 4608TIP3   OH213745   2.270   5.603   2.159  0.0740 -0.5175 -0.0248
 4608TIP3    H113746   2.261   5.579   2.251 -1.2948 -2.6775 -0.6917
 4608TIP3    H213747   2.322   5.532   2.121  1.4882  0.8703 -0.7322
 4609TIP3   OH213748   1.292   6.507   3.082 -0.7119 -0.0949  0.1333
 4609TIP3    H113749   1.257   6.418   3.076  2.0144 -1.1572 -0.7728
 4609TIP3    H213750   1.340   6.508   3.165  1.6021 -0.3874 -1.1641
 4610TIP3   OH213751   0.328   7.573   1.689  0.1041 -0.0173 -0.4792
 4610TIP3    H113752   0.295   7.606   1.605 -0.7542 -0.0276 -0.1508
 4610TIP3    H213753   0.373   7.649   1.727  1.1506 -0.2170 -1.2671
 4611TIP3   OH213754   0.985   7.450   2.490 -0.5351 -0.1778 -0.6852
 4611TIP3    H113755   0.890   7.452   2.479 -0.5011  0.3307 -0.8858
 4611TIP3    H213756   1.018   7.426   2.404 -0.5100 -0.9627 -0.4607
 4612TIP3   OH213757   7.630   5.272   2.948 -0.0342  0.7662 -0.3210
 4612TIP3    H113758   7.615   5.228   3.032  0.9863  1.1359  0.0646
 4612TIP3    H213759   7.545   5.270   2.905 -0.6831  0.9960  0.9193
 4613TIP3   OH213760   1.597   7.009   3.103 -0.3594  0.9032  0.4890
 4613TIP3    H113761   1.680   7.049   3.077 -0.3021  1.0185  0.8512
 4613TIP3    H213762   1.570   6.958   3.027  0.5864 -0.0101  0.7554
 4614TIP3   OH213763   2.658   6.329   5.169 -0.5332 -0.2976 -0.4656
 4614TIP3    H113764   2.625   6.310   5.082  0.7066 -0.6923 -0.8638
 4614TIP3    H213765   2.600   6.398   5.202 -1.1886 -0.3494 -1.4785
 4615TIP3   OH213766   0.440   6.099   3.186 -0.8587 -0.3935 -0.8142
 4615TIP3    H113767   0.350   6.132   3.185 -0.0857  1.8037 -3.0822
 4615TIP3    H213768   0.431   6.006   3.163 -2.4596  0.1284 -2.4345
 4616TIP3   OH213769   1.128   5.956   3.332 -0.2223  0.0553 -0.3285
 4616TIP3    H113770   1.037   5.983   3.320  0.4035  1.7301 -1.3391
 4616TIP3    H213771   1.175   5.992   3.258  1.2011 -1.2564 -0.1045
 4617TIP3   OH213772   1.097   7.861   2.972  0.2036 -0.9920  0.3059
 4617TIP3    H113773   1.080   7.836   2.881 -1.4361 -0.7380  0.5373
 4617TIP3    H213774   1.122   7.953   2.967  0.9723 -1.2065  0.0329
 4618TIP3   OH213775   1.978   4.891   2.312  0.5513  0.1263  0.3314
 4618TIP3    H113776   1.990   4.837   2.390 -0.8326 -0.5462  0.1072
 4618TIP3    H213777   1.907   4.951   2.334  1.4114  1.1949  0.2279
 4619TIP3   OH213778   1.542   6.071   1.537 -0.8630 -0.1421 -0.3669
 4619TIP3    H113779   1.459   6.078   1.583 -1.0121  0.3465 -0.7144
 4619TIP3    H213780   1.598   6.137   1.578 -0.9952  0.2904 -0.8849
 4620TIP3   OH213781   1.527   7.172   3.352 -0.0302  0.4757  0.1523
 4620TIP3    H113782   1.598   7.140   3.297 -1.1072 -1.7089 -0.0473
 4620TIP3    H213783   1.530   7.267   3.343  0.3744  0.2325 -2.9935
 4621TIP3   OH213784   1.246   4.301   4.150  0.3999  0.3368 -0.1220
 4621TIP3    H113785   1.165   4.262   4.182  0.3156  0.8511  0.3107
 4621TIP3    H213786   1.311   4.279   4.216  0.7383 -0.5341 -0.7379
 4622TIP3   OH213787   0.969   5.797   4.155 -0.0531  0.3682 -0.3564
 4622TIP3    H113788   0.995   5.868   4.097  1.3391 -0.3890 -0.6930
 4622TIP3    H213789   1.018   5.813   4.236 -1.5023  1.0701  0.3900
 4623TIP3   OH213790   4.263   4.463   1.783  1.0436  0.0974  0.1174
 4623TIP3    H113791   4.186   4.485   1.730  0.3921 -2.4224 -0.0596
 4623TIP3    H213792   4.330   4.438   1.719  1.2165 -0.0466  0.3525
 4624TIP3   OH213793   3.304   3.997   1.887  0.1736 -0.2356  0.1890
 4624TIP3    H113794   3.308   4.082   1.930 -2.4049 -0.7474  1.5319
 4624TIP3    H213795   3.376   3.947   1.925 -1.0698 -0.1327  2.7899
 4625TIP3   OH213796   1.443   3.826   4.362 -0.2295  0.1804  0.0075
 4625TIP3    H113797   1.383   3.818   4.436 -0.1031 -0.3124  0.0537
 4625TIP3    H213798   1.404   3.771   4.294  0.3440 -0.3946  0.1455
 4626TIP3   OH213799   2.314   2.293   4.666 -0.0041 -0.3132 -0.0400
 4626TIP3    H113800   2.288   2.248   4.586  1.9040 -0.3782 -0.6350
 4626TIP3    H213801   2.291   2.384   4.651 -0.8725 -0.5455 -0.1256
 4627TIP3   OH213802   2.768   6.448   3.492  0.8890  0.1266  0.5598
 4627TIP3    H113803   2.772   6.390   3.568  1.5729  1.7901  1.8334
 4627TIP3    H213804   2.684   6.493   3.500  0.8221  0.0752  0.1560
 4628TIP3   OH213805   1.411   6.658   2.427  0.2269  0.1311  0.0492
 4628TIP3    H113806   1.371   6.732   2.381  0.9844  0.1601 -0.5864
 4628TIP3    H213807   1.504   6.679   2.429  0.2082  0.1026  1.5821
 4629TIP3   OH213808   1.309   6.022   4.170  0.4512  0.1605 -0.0716
 4629TIP3    H113809   1.396   5.995   4.202  0.9605 -0.2489 -1.7538
 4629TIP3    H213810   1.255   5.943   4.180  0.3261  0.3578  0.7996
 4630TIP3   OH213811   1.996   6.019   2.818  0.2702  0.0968 -0.0032
 4630TIP3    H113812   1.997   6.068   2.900 -0.8070  0.6627 -0.3164
 4630TIP3    H213813   2.045   5.939   2.838  0.4241  0.4386  1.0578
 4631TIP3   OH213814   0.217   4.200   4.089  0.7993 -0.3464  0.0927
 4631TIP3    H113815   0.214   4.211   3.994 -0.1715 -2.0832 -0.0987
 4631TIP3    H213816   0.174   4.116   4.105  1.6858 -0.4706  2.0035
 4632TIP3   OH213817   1.713   5.545   4.123 -0.0506  0.2708 -0.8107
 4632TIP3    H113818   1.674   5.458   4.118  0.8405 -0.2680  0.9945
 4632TIP3    H213819   1.807   5.530   4.110 -0.0923  1.1775 -2.2007
 4633TIP3   OH213820   0.656   7.940   1.353  0.0148  0.4615  0.6572
 4633TIP3    H113821   0.591   7.984   1.408 -1.6569  0.7422 -1.4972
 4633TIP3    H213822   0.676   8.003   1.284  1.4281 -0.2453  0.3995
 4634TIP3   OH213823   0.837   7.670   2.789 -0.5106 -0.0194  0.3940
 4634TIP3    H113824   0.877   7.707   2.710  2.7927  0.8626  2.4021
 4634TIP3    H213825   0.757   7.722   2.802 -0.1061  1.0606 -1.2714
 4635TIP3   OH213826   3.813   0.119   2.858  0.2060  0.3954 -0.9147
 4635TIP3    H113827   3.850   0.183   2.797 -1.9557  1.1335 -1.5112
 4635TIP3    H213828   3.732   0.160   2.890 -0.7680 -1.6740 -0.6347
 4636TIP3   OH213829   4.768   1.667   3.435  0.5764 -0.7007  0.0110
 4636TIP3    H113830   4.826   1.744   3.435 -0.9605  0.4866 -1.0057
 4636TIP3    H213831   4.792   1.619   3.357 -0.7735  0.5683 -1.2178
 4637TIP3   OH213832   0.966   7.257   1.294  0.1227  0.0242  0.0024
 4637TIP3    H113833   1.035   7.292   1.238 -1.9033  0.5958 -2.2249
 4637TIP3    H213834   0.953   7.168   1.264  0.2620 -0.2797  0.8170
 4638TIP3   OH213835   1.306   6.375   4.404 -0.2276 -0.0180  0.2573
 4638TIP3    H113836   1.313   6.463   4.367 -0.6395 -0.1083 -0.0480
 4638TIP3    H213837   1.383   6.328   4.370  0.1503  0.3098  0.6633
 4639TIP3   OH213838   4.280   0.272   1.919 -0.6470  0.2701 -0.3162
 4639TIP3    H113839   4.249   0.205   1.858 -0.1738  0.0774 -0.3494
 4639TIP3    H213840   4.276   0.230   2.005 -2.8930  1.0878  0.0113
 4640TIP3   OH213841   0.693   7.763   1.921  0.5520  0.0564 -0.2818
 4640TIP3    H113842   0.754   7.778   1.848  0.2221 -0.4749 -0.6671
 4640TIP3    H213843   0.709   7.673   1.948  1.0742  0.4272  0.6914
 4641TIP3   OH213844   0.753   5.562   0.751  0.3052  0.3291  0.2477
 4641TIP3    H113845   0.701   5.569   0.671  0.2593 -0.3198  0.2160
 4641TIP3    H213846   0.831   5.512   0.725  0.1846 -0.0776  0.6546
 4642TIP3   OH213847   0.784   7.508   2.095 -0.5536  0.4970 -0.6124
 4642TIP3    H113848   0.689   7.516   2.094 -0.7143 -0.5252  2.0444
 4642TIP3    H213849   0.801   7.423   2.135  1.4771  1.0462 -0.2238
 4643TIP3   OH213850   1.947   6.768   0.568 -0.2518  0.0963  0.2055
 4643TIP3    H113851   1.877   6.828   0.541 -2.7233 -0.7006  4.4500
 4643TIP3    H213852   1.959   6.710   0.493 -0.3550  3.5081 -2.6071
 4644TIP3   OH213853   2.591   6.439   0.857 -0.3470 -0.0788  0.0733
 4644TIP3    H113854   2.617   6.395   0.939  1.8232  2.3100  0.7240
 4644TIP3    H213855   2.596   6.532   0.877 -2.9819  0.5191 -1.8728
 4645TIP3   OH213856   1.187   5.561   4.062 -0.0653  0.4709 -0.5031
 4645TIP3    H113857   1.223   5.485   4.015 -0.3726 -1.1271  1.7684
 4645TIP3    H213858   1.105   5.581   4.016  0.0404 -0.5377 -1.1485
 4646TIP3   OH213859   1.580   4.054   4.312 -0.0876 -0.3128  0.2070
 4646TIP3    H113860   1.669   4.030   4.285 -0.3282  0.7631 -1.6677
 4646TIP3    H213861   1.534   3.970   4.321  0.6335 -0.8047 -0.6099
 4647TIP3   OH213862   5.433   5.594   2.473  0.1972 -0.2949 -0.0613
 4647TIP3    H113863   5.375   5.531   2.430 -0.6248  0.8749 -0.7198
 4647TIP3    H213864   5.439   5.667   2.411  2.4887 -0.4421 -0.0383
 4648TIP3   OH213865   3.922   4.200   3.179  0.4491 -0.5553  0.0121
 4648TIP3    H113866   3.875   4.205   3.096  0.1840 -0.5811  0.1599
 4648TIP3    H213867   3.944   4.291   3.200  0.6076 -0.5595 -0.1398
 4649TIP3   OH213868   0.459   5.273   0.824 -0.0858 -0.4821  0.2977
 4649TIP3    H113869   0.446   5.195   0.876 -1.4005 -0.4694  0.0018
 4649TIP3    H213870   0.459   5.242   0.733 -1.6850 -0.0096  0.1288
 4650TIP3   OH213871   1.224   4.908   2.150 -0.7147 -0.5832  0.0573
 4650TIP3    H113872   1.213   4.871   2.238  0.1225 -1.2068 -0.0854
 4650TIP3    H213873   1.275   4.842   2.103 -0.2879  0.2010 -0.5946
 4651TIP3   OH213874   1.706   6.590   3.022  0.1839  0.5776 -0.5023
 4651TIP3    H113875   1.683   6.529   3.091 -1.6768  1.9334  0.1203
 4651TIP3    H213876   1.647   6.568   2.950 -0.1008  1.2524 -0.4787
 4652TIP3   OH213877   1.177   4.289   1.980 -0.7268  0.0504  0.1500
 4652TIP3    H113878   1.109   4.307   1.914 -2.3856 -0.6088  1.6442
 4652TIP3    H213879   1.168   4.361   2.043 -1.0387 -0.8258  1.1270
 4653TIP3   OH213880   0.415   6.463   5.948  0.2298 -0.2505  0.3261
 4653TIP3    H113881   0.486   6.432   5.892 -0.0346  0.6918 -0.5583
 4653TIP3    H213882   0.354   6.506   5.887 -1.6768 -2.0622  0.8935
 4654TIP3   OH213883   2.497   4.608   3.081  0.0242 -0.0319  0.3082
 4654TIP3    H113884   2.486   4.702   3.091 -0.0808 -0.0177  0.0814
 4654TIP3    H213885   2.587   4.590   3.108 -0.1407  0.0511  0.9033
 4655TIP3   OH213886   3.525   4.371   2.953  0.2765  0.1864  0.0100
 4655TIP3    H113887   3.592   4.428   2.915  0.4942 -0.4256 -0.5514
 4655TIP3    H213888   3.532   4.385   3.048 -0.8745  2.3745 -0.2229
 4656TIP3   OH213889   1.611   5.357   4.741  0.8696 -0.0678  0.4082
 4656TIP3    H113890   1.563   5.365   4.658  3.1964  1.2810 -0.8797
 4656TIP3    H213891   1.661   5.276   4.731 -0.8666 -1.3278  1.6388
 4657TIP3   OH213892   1.070   7.741   2.671  0.5833 -0.2281  0.1294
 4657TIP3    H113893   1.119   7.662   2.647  0.7863  0.4148 -1.6713
 4657TIP3    H213894   1.086   7.802   2.598 -1.3758  0.6614  0.4170
 4658TIP3   OH213895   2.762   3.842   3.013 -0.2488  0.4179  0.0827
 4658TIP3    H113896   2.713   3.924   3.020  0.7562  1.0092  0.3163
 4658TIP3    H213897   2.801   3.845   2.926 -0.4482  0.0493 -0.0192
 4659TIP3   OH213898   2.859   4.936   1.090  0.2309 -0.4735  0.1596
 4659TIP3    H113899   2.764   4.951   1.087  0.3148  0.0454  0.1076
 4659TIP3    H213900   2.890   4.967   1.005  0.7752  1.6179  1.0787
 4660TIP3   OH213901   8.809   4.401   4.871 -0.0628 -0.1861 -0.1643
 4660TIP3    H113902   8.837   4.472   4.813 -1.0478  0.3632  0.0307
 4660TIP3    H213903   8.886   4.382   4.924  0.2868  0.5483 -0.4007
 4661TIP3   OH213904   1.065   7.007   3.810  0.1280 -0.1751  0.0263
 4661TIP3    H113905   1.095   6.968   3.728 -2.7528  1.2535 -1.7808
 4661TIP3    H213906   0.982   6.964   3.828 -0.3430  1.1345  1.0210
 4662TIP3   OH213907   2.201   5.464   4.634 -0.1609  0.1645 -0.5128
 4662TIP3    H113908   2.228   5.516   4.709 -0.3123  0.8720 -0.9511
 4662TIP3    H213909   2.208   5.523   4.559 -0.1431 -0.4950 -1.0405
 4663TIP3   OH213910   8.821   7.469   3.321  0.5251 -0.1090  0.4723
 4663TIP3    H113911   8.880   7.427   3.258  0.2803  1.3316 -0.7464
 4663TIP3    H213912   8.870   7.545   3.353 -0.2302  0.4623  0.2904
 4664TIP3   OH213913   1.707   6.541   4.306 -0.7690  0.2976 -0.2583
 4664TIP3    H113914   1.650   6.564   4.380 -0.8239  1.2740 -0.5862
 4664TIP3    H213915   1.763   6.472   4.339 -1.0911  0.4227  0.5640
 4665TIP3   OH213916   3.480   6.549   3.424  0.3500  0.3208  0.2068
 4665TIP3    H113917   3.398   6.598   3.413  0.8604  0.8307 -1.4470
 4665TIP3    H213918   3.475   6.480   3.358 -0.0811 -1.4986  2.1158
 4666TIP3   OH213919   0.612   6.428   5.761  0.0173  0.0517  0.2345
 4666TIP3    H113920   0.561   6.473   5.694  2.5934  2.7446 -0.0271
 4666TIP3    H213921   0.645   6.350   5.718 -0.2901  0.5555 -0.9345
 4667TIP3   OH213922   0.330   7.624   3.286 -0.4421 -0.3853 -0.2638
 4667TIP3    H113923   0.365   7.541   3.320  1.5495  0.4656 -0.1280
 4667TIP3    H213924   0.357   7.626   3.195  0.5347  0.6231  0.0348
 4668TIP3   OH213925   0.275   6.598   2.925  0.1605 -0.6242  0.5700
 4668TIP3    H113926   0.354   6.556   2.890 -0.3337 -0.4219 -0.8051
 4668TIP3    H213927   0.217   6.524   2.946  1.2944 -0.8691  3.1109
 4669TIP3   OH213928   0.257   7.422   3.668 -0.0105  0.4249  0.2286
 4669TIP3    H113929   0.322   7.381   3.610  0.0466  0.7540  0.0557
 4669TIP3    H213930   0.175   7.379   3.646  0.0882  0.2467  0.2053
 4670TIP3   OH213931   0.992   6.762   1.990 -0.1212  0.4466  0.1251
 4670TIP3    H113932   1.024   6.802   1.909  0.1795 -0.7829 -0.3774
 4670TIP3    H213933   0.936   6.690   1.961 -1.8883  1.4298  1.0143
 4671TIP3   OH213934   0.097   7.666   2.059 -0.0736 -0.0471  0.5201
 4671TIP3    H113935   0.024   7.604   2.061 -0.3542  0.2944  0.7733
 4671TIP3    H213936   0.110   7.685   1.966 -0.6762  0.3313  0.5108
 4672TIP3   OH213937   2.007   7.467   2.667  0.0208  0.0013 -0.3775
 4672TIP3    H113938   2.079   7.446   2.728  0.0278 -0.1079 -0.4228
 4672TIP3    H213939   1.945   7.517   2.720 -0.4736 -0.9996  0.0081
 4673TIP3   OH213940   7.605   6.594   0.788  0.4523  0.0023 -0.1746
 4673TIP3    H113941   7.535   6.636   0.838  0.1019 -0.2225 -0.4758
 4673TIP3    H213942   7.650   6.539   0.852 -0.9009 -1.4303 -0.3955
 4674TIP3   OH213943   0.680   7.619   3.377  0.2928  0.6059 -0.3418
 4674TIP3    H113944   0.609   7.562   3.346 -0.7387 -0.0074  2.9490
 4674TIP3    H213945   0.726   7.645   3.297 -2.2516 -0.8121 -2.3635
 4675TIP3   OH213946   1.985   7.544   3.264  0.2555 -0.4386  0.1676
 4675TIP3    H113947   1.899   7.502   3.272 -0.2952  0.3192 -1.4675
 4675TIP3    H213948   2.010   7.564   3.354  0.2263 -3.5701  0.9278
 4676TIP3   OH213949   1.616   5.065   3.294  0.0948 -0.0883 -0.3987
 4676TIP3    H113950   1.559   5.014   3.236 -0.1400 -0.1509 -0.1147
 4676TIP3    H213951   1.628   5.009   3.371 -0.1804  0.2938 -0.0770
 4677TIP3   OH213952   0.925   7.188   1.864  0.2120  0.1933 -0.6747
 4677TIP3    H113953   0.921   7.093   1.874  2.3289 -0.0570 -1.8872
 4677TIP3    H213954   0.834   7.215   1.848 -0.1390 -1.8831 -2.3814
 4678TIP3   OH213955   2.026   5.911   2.101 -0.2332  0.1116  0.1489
 4678TIP3    H113956   2.120   5.891   2.100 -0.3729 -0.4564 -1.1406
 4678TIP3    H213957   2.001   5.902   2.193  0.3269 -2.7247  0.0600
 4679TIP3   OH213958   8.422   2.568   2.934  0.0719  0.1171 -0.0478
 4679TIP3    H113959   8.336   2.609   2.921 -0.8180 -1.6740  0.0579
 4679TIP3    H213960   8.402   2.479   2.961  1.9566 -0.7921 -1.5185
 4680TIP3   OH213961   2.461   3.881   2.163  0.2817 -0.1723 -0.2111
 4680TIP3    H113962   2.473   3.898   2.069  0.6040 -1.4414 -0.4165
 4680TIP3    H213963   2.549   3.860   2.194  0.4758  1.9550  0.7618
 4681TIP3   OH213964   2.241   5.331   3.539  0.2194 -0.3454 -0.4127
 4681TIP3    H113965   2.319   5.282   3.567  0.2301  0.2118  0.5141
 4681TIP3    H213966   2.175   5.312   3.605  0.2351  0.9427 -0.0254
 4682TIP3   OH213967   0.504   2.804   4.464  0.4422  0.1750 -0.1318
 4682TIP3    H113968   0.461   2.872   4.516 -0.1295 -1.7162  1.9254
 4682TIP3    H213969   0.466   2.814   4.377 -1.1714  1.1657  0.6558
 4683TIP3   OH213970   1.562   6.660   0.630 -0.1988  0.0122  0.1468
 4683TIP3    H113971   1.564   6.624   0.719  2.5588 -0.0253  0.1245
 4683TIP3    H213972   1.640   6.715   0.626 -0.5008  0.2952 -2.1420
 4684TIP3   OH213973   8.644   8.055   2.441  0.0460 -0.4523 -0.2028
 4684TIP3    H113974   8.620   7.979   2.388 -0.4810 -0.0959 -0.4783
 4684TIP3    H213975   8.592   8.127   2.405 -0.4610 -0.2409  0.9254
 4685TIP3   OH213976   1.048   4.139   4.217  0.2164  0.0595  0.1405
 4685TIP3    H113977   0.963   4.161   4.179 -0.0549 -0.3578  0.5014
 4685TIP3    H213978   1.049   4.043   4.220  0.9053  0.0425 -0.3307
 4686TIP3   OH213979   0.244   5.608   4.529  0.1037  0.1306  0.3090
 4686TIP3    H113980   0.252   5.518   4.497  1.1873 -0.3049  1.7383
 4686TIP3    H213981   0.172   5.604   4.593 -0.4560  0.4739 -0.3004
 4687TIP3   OH213982   2.131   5.422   1.844  0.1971 -0.3646 -0.2112
 4687TIP3    H113983   2.049   5.468   1.863 -0.4301 -1.0190 -1.3170
 4687TIP3    H213984   2.141   5.360   1.915  0.8292  1.1693  1.0706
 4688TIP3   OH213985   2.103   5.890   1.011  0.1509 -0.5562  0.3660
 4688TIP3    H113986   2.190   5.876   1.046  0.4514  0.2054 -0.0527
 4688TIP3    H213987   2.047   5.829   1.059  0.8989 -0.9995  0.6808
 4689TIP3   OH213988   7.677   5.648   6.040 -0.2711  0.3593 -0.0496
 4689TIP3    H113989   7.753   5.590   6.032 -1.4486 -1.4215  1.2797
 4689TIP3    H213990   7.679   5.678   6.130 -0.8131  0.7767 -0.1754
 4690TIP3   OH213991   1.076   4.945   3.752  0.1529  0.1867 -0.3140
 4690TIP3    H113992   0.999   4.990   3.717 -0.1821 -0.1605 -0.0222
 4690TIP3    H213993   1.048   4.910   3.836  0.0826 -1.4841 -0.9990
 4691TIP3   OH213994   0.480   7.303   2.700 -0.1096  0.5292  0.0660
 4691TIP3    H113995   0.566   7.317   2.740  0.5428  0.8209 -1.3980
 4691TIP3    H213996   0.499   7.259   2.617 -1.2247  2.0149 -1.0169
 4692TIP3   OH213997   1.851   1.082   4.373 -0.3884  0.3313 -0.0022
 4692TIP3    H113998   1.769   1.032   4.366 -0.5691  0.7782 -1.2353
 4692TIP3    H213999   1.865   1.092   4.467  0.2733 -3.0572  0.3220
 4693TIP3   OH214000   2.774   7.183   3.272 -0.0947  0.2370 -0.0178
 4693TIP3    H114001   2.741   7.227   3.350  1.7583  1.5509  0.0677
 4693TIP3    H214002   2.782   7.254   3.207 -2.9256 -1.0457 -1.8891
 4694TIP3   OH214003   1.089   5.192   1.393  0.5127  0.3003 -0.3909
 4694TIP3    H114004   1.146   5.153   1.327  0.9112  1.1197 -0.5434
 4694TIP3    H214005   1.136   5.271   1.421 -0.8950  1.3927 -1.0593
 4695TIP3   OH214006   1.571   6.559   2.787 -0.3748 -0.2778  0.4642
 4695TIP3    H114007   1.545   6.467   2.779 -0.7828 -0.1375  0.1627
 4695TIP3    H214008   1.615   6.578   2.704 -1.9567  0.3274 -0.2570
 4696TIP3   OH214009   1.962   5.434   1.305  0.5839  0.1451 -0.5571
 4696TIP3    H114010   1.891   5.469   1.360 -1.1166 -1.7795 -1.4382
 4696TIP3    H214011   1.997   5.361   1.356 -0.5540 -1.2281 -1.6970
 4697TIP3   OH214012   2.102   6.860   3.197 -0.1294  0.0755 -0.1388
 4697TIP3    H114013   2.041   6.851   3.124 -1.5208 -0.7198  1.0925
 4697TIP3    H214014   2.051   6.903   3.265  0.7595 -0.3981  0.8293
 4698TIP3   OH214015   0.218   7.311   2.686  0.2654  0.2343  0.2061
 4698TIP3    H114016   0.176   7.290   2.603  0.0580  2.4748 -0.2817
 4698TIP3    H214017   0.312   7.309   2.666  0.2535 -0.3969  0.2106
 4699TIP3   OH214018   0.666   5.636   0.499 -0.3576 -0.2769  0.1895
 4699TIP3    H114019   0.758   5.659   0.517  0.2998 -1.8992 -0.9917
 4699TIP3    H214020   0.633   5.709   0.447  0.6419 -0.2602 -0.4396
 4700TIP3   OH214021   0.393   5.599   2.872  0.2097  0.2903 -0.1208
 4700TIP3    H114022   0.401   5.645   2.789 -1.3843  0.9785  0.1029
 4700TIP3    H214023   0.375   5.508   2.847 -1.3086  0.6970 -0.5239
 4701TIP3   OH214024   1.723   5.044   1.814 -0.0608  0.6082 -0.2806
 4701TIP3    H114025   1.749   5.075   1.727  0.6330 -0.0156 -0.2999
 4701TIP3    H214026   1.805   5.023   1.858 -0.5254 -3.4806 -1.1053
 4702TIP3   OH214027   3.065   6.614   1.710 -1.0282 -0.0429 -0.1034
 4702TIP3    H114028   3.154   6.642   1.690 -0.0031 -1.4726  2.2504
 4702TIP3    H214029   3.042   6.553   1.639  0.0350 -0.0296 -0.4654
 4703TIP3   OH214030   5.348   5.424   1.662 -0.0956 -0.4131  0.8147
 4703TIP3    H114031   5.260   5.463   1.662  0.3218  0.5502  1.7592
 4703TIP3    H214032   5.394   5.468   1.733  1.0814 -1.0999  0.4958
 4704TIP3   OH214033   1.988   4.685   1.898 -0.3521  0.8483 -0.1499
 4704TIP3    H114034   2.054   4.616   1.906 -0.8756  0.3248 -0.3445
 4704TIP3    H214035   1.941   4.663   1.817 -0.6930  1.2816 -0.0651
 4705TIP3   OH214036   2.658   8.385   1.506  0.0482  0.4014 -0.5403
 4705TIP3    H114037   2.609   8.382   1.424  0.6744 -1.3201 -0.8825
 4705TIP3    H214038   2.591   8.378   1.574 -0.4038  1.0012 -0.9218
 4706TIP3   OH214039   2.312   6.307   1.036 -0.4389  0.1807  0.3625
 4706TIP3    H114040   2.269   6.272   1.114 -1.9441 -0.5233 -0.7804
 4706TIP3    H214041   2.405   6.306   1.059 -0.7028 -1.7216  1.4961
 4707TIP3   OH214042   1.566   5.304   2.282  0.6201 -0.2954  0.3182
 4707TIP3    H114043   1.511   5.373   2.319  1.6192  0.8622 -0.3375
 4707TIP3    H214044   1.518   5.274   2.205  0.3752 -0.0465  0.3726
 4708TIP3   OH214045   1.964   5.461   4.098  0.0176  0.1552 -0.5687
 4708TIP3    H114046   1.949   5.383   4.151  1.7452  0.9199  1.0897
 4708TIP3    H214047   2.026   5.434   4.031  1.9254  0.4991  1.0254
 4709TIP3   OH214048   4.214   3.956   2.301  0.2913 -0.0008  0.1760
 4709TIP3    H114049   4.307   3.974   2.320  0.5333 -0.7923 -0.2445
 4709TIP3    H214050   4.211   3.944   2.206  0.1466 -2.1716  0.4415
 4710TIP3   OH214051   3.497   5.723   6.352  0.9161  0.0693  0.0155
 4710TIP3    H114052   3.532   5.639   6.323  0.9351 -0.7463  2.2957
 4710TIP3    H214053   3.572   5.766   6.394  0.4799  0.5460  0.3018
 4711TIP3   OH214054   0.549   4.995   2.921 -0.0047 -0.2809 -0.6399
 4711TIP3    H114055   0.635   5.025   2.892  1.6924 -2.1420  2.2695
 4711TIP3    H214056   0.530   5.048   2.999  0.3282 -2.4930  1.0095
 4712TIP3   OH214057   2.909   5.411   0.868 -0.0531 -0.2035  0.3132
 4712TIP3    H114058   2.877   5.456   0.790  0.6637  0.6170  0.4852
 4712TIP3    H214059   2.887   5.319   0.854  0.2345 -0.0864 -0.9325
 4713TIP3   OH214060   3.259   3.744   2.423 -0.0808  0.3126 -0.3456
 4713TIP3    H114061   3.258   3.722   2.330 -1.0776  0.1315 -0.3067
 4713TIP3    H214062   3.198   3.818   2.430 -1.1934 -0.6659  0.3897
 4714TIP3   OH214063   0.568   5.971   0.679  0.0617 -0.7150 -0.1836
 4714TIP3    H114064   0.615   5.947   0.600  2.2462 -0.7052  1.0805
 4714TIP3    H214065   0.525   6.054   0.657  1.8595  0.0422 -0.8828
 4715TIP3   OH214066   3.828   6.813   1.729 -0.5540 -0.6771  0.0258
 4715TIP3    H114067   3.883   6.738   1.750  0.3532  0.0875  0.4403
 4715TIP3    H214068   3.798   6.846   1.814  2.3491  1.8448  0.1695
 4716TIP3   OH214069   3.084   6.617   2.823 -0.0525  0.3697  0.0882
 4716TIP3    H114070   3.060   6.526   2.809  1.5722  0.2492 -2.3422
 4716TIP3    H214071   3.014   6.667   2.781 -0.4750  0.2306  0.6210
 4717TIP3   OH214072   4.005   5.711   2.707 -0.2442  0.6007 -0.4651
 4717TIP3    H114073   3.928   5.723   2.652  0.5577  0.1868 -1.7047
 4717TIP3    H214074   3.976   5.652   2.776 -1.7091  2.3926  0.4998
 4718TIP3   OH214075   2.248   4.510   3.794 -0.1728  0.1369  0.1731
 4718TIP3    H114076   2.285   4.537   3.878 -0.9510  2.0784 -0.0736
 4718TIP3    H214077   2.247   4.414   3.798  2.1923  0.1217  1.3104
 4719TIP3   OH214078   1.266   5.443   1.438 -0.3612 -0.5491  0.2662
 4719TIP3    H114079   1.209   5.505   1.392 -0.7980 -0.6298  0.6991
 4719TIP3    H214080   1.239   5.449   1.530 -1.3190 -2.3445  0.1359
 4720TIP3   OH214081   2.432   6.351   0.575 -0.6215  0.0824 -0.7469
 4720TIP3    H114082   2.417   6.296   0.652 -2.5353  0.5932 -0.7279
 4720TIP3    H214083   2.524   6.335   0.551  0.1524  0.2937  1.9198
 4721TIP3   OH214084   1.111   0.503   7.221 -0.0464 -0.0331  0.2653
 4721TIP3    H114085   1.112   0.518   7.126 -1.2451 -1.8181 -0.0588
 4721TIP3    H214086   1.140   0.586   7.259  0.6936  0.6203 -1.6700
 4722TIP3   OH214087   4.430   4.393   1.998  0.4464 -0.0981 -0.1653
 4722TIP3    H114088   4.468   4.309   1.972 -0.0091 -0.2416 -0.3705
 4722TIP3    H214089   4.348   4.399   1.948 -1.5699 -1.3833  2.8148
 4723TIP3   OH214090   2.481   4.494   0.500  0.0912 -0.1782  0.0644
 4723TIP3    H114091   2.542   4.533   0.562  0.5309 -1.3811  0.4119
 4723TIP3    H214092   2.459   4.409   0.539  1.0812 -1.3500 -1.8666
 4724TIP3   OH214093   1.683   5.031   0.288 -0.0289 -0.2925  0.1100
 4724TIP3    H114094   1.683   5.122   0.320  0.0394 -0.5166  0.7533
 4724TIP3    H214095   1.714   4.980   0.363  0.3880 -0.7915 -0.4041
 4725TIP3   OH214096   4.440   5.719   1.461 -0.0606  0.4315  0.2330
 4725TIP3    H114097   4.461   5.725   1.368  1.4313 -0.3983  0.4884
 4725TIP3    H214098   4.524   5.700   1.503 -0.9585 -0.7107  1.5766
 4726TIP3   OH214099   3.985   4.641   2.401  0.0275 -0.3075  0.4576
 4726TIP3    H114100   4.038   4.582   2.454  0.5959 -1.7321 -1.6671
 4726TIP3    H214101   3.950   4.587   2.331  0.3057  1.7969 -1.3679
 4727TIP3   OH214102   3.481   5.463   1.816 -0.5748  0.0108 -0.5086
 4727TIP3    H114103   3.396   5.451   1.772 -0.1787 -1.2758 -0.9425
 4727TIP3    H214104   3.467   5.431   1.905 -0.7748  0.6017 -0.3228
 4728TIP3   OH214105   1.232   4.912   0.305 -0.3189  0.2245  0.1548
 4728TIP3    H114106   1.200   4.997   0.273 -0.1859 -0.1249 -0.9204
 4728TIP3    H214107   1.309   4.893   0.251 -0.0393 -0.3366  0.7459
 4729TIP3   OH214108   2.643   3.236   1.252  0.4350 -0.1153 -0.2963
 4729TIP3    H114109   2.601   3.162   1.295  0.6087  0.4244  0.8055
 4729TIP3    H214110   2.575   3.303   1.246  0.1388 -0.5188 -1.7306
 4730TIP3   OH214111   2.531   6.251   0.122  0.3241 -0.5822  0.1387
 4730TIP3    H114112   2.533   6.337   0.163  1.0670 -0.1243 -0.8477
 4730TIP3    H214113   2.600   6.202   0.166  0.5891 -0.3494 -0.0219
 4731TIP3   OH214114   2.811   5.495   1.576  0.1527  0.4464  0.1504
 4731TIP3    H114115   2.798   5.402   1.591 -1.5826  0.1489 -2.8424
 4731TIP3    H214116   2.886   5.500   1.516 -1.0697  0.8240 -1.3712
 4732TIP3   OH214117   2.550   5.753   1.100  0.0567 -0.0680 -0.4098
 4732TIP3    H114118   2.493   5.829   1.114  1.1965  0.5506  1.0106
 4732TIP3    H214119   2.628   5.788   1.057  1.8722  0.1442  2.8707
 4733TIP3   OH214120   2.222   4.775   2.413  0.4198  0.0567  0.1383
 4733TIP3    H114121   2.176   4.708   2.464  2.9153 -1.2639  0.7365
 4733TIP3    H214122   2.223   4.851   2.470  0.8523 -0.5966  1.0267
 4734TIP3   OH214123   0.404   7.251   4.549  0.0943 -0.4757  0.2241
 4734TIP3    H114124   0.442   7.186   4.608 -0.7266 -0.9620  0.2115
 4734TIP3    H214125   0.411   7.213   4.462 -2.1913 -1.4128  0.4286
 4735TIP3   OH214126   3.240   5.490   1.577  0.2132 -0.2167  0.2765
 4735TIP3    H114127   3.217   5.579   1.603 -1.1612 -0.2489 -0.7491
 4735TIP3    H214128   3.169   5.463   1.520  0.3952 -2.1429  0.9226
 4736TIP3   OH214129   1.833   6.532   2.271 -0.1632  0.1392  0.0331
 4736TIP3    H114130   1.863   6.442   2.288  0.5332  0.4394  0.4205
 4736TIP3    H214131   1.843   6.542   2.176  0.1813 -0.0433  0.0491
 4737TIP3   OH214132   5.924   4.917   2.847 -0.2501 -0.0420 -0.3190
 4737TIP3    H114133   5.906   5.008   2.870 -1.0564 -0.2165 -0.2116
 4737TIP3    H214134   5.854   4.894   2.786  0.4239 -0.3438 -0.9834
 4738TIP3   OH214135   3.643   7.563   1.248  0.3044 -0.0191  0.3167
 4738TIP3    H114136   3.736   7.569   1.223  0.1711 -0.0014 -0.1740
 4738TIP3    H214137   3.595   7.591   1.170 -0.1110  0.1603  0.6382
 4739TIP3   OH214138   5.077   6.005   0.223 -0.5230  0.5652 -0.2661
 4739TIP3    H114139   5.065   6.016   0.317 -1.4054  0.2491 -0.3340
 4739TIP3    H214140   5.160   5.958   0.214  0.6180  2.4126  0.2522
 4740TIP3   OH214141   1.700   5.448   2.731  0.3293 -0.4306 -0.1737
 4740TIP3    H114142   1.663   5.507   2.665  1.3593 -0.5601 -0.8717
 4740TIP3    H214143   1.625   5.425   2.786 -0.6261 -0.5869 -1.5032
 4741TIP3   OH214144   2.147   6.741   0.753 -0.4841 -0.2223  0.3752
 4741TIP3    H114145   2.209   6.670   0.738 -0.0594  0.3800 -0.7213
 4741TIP3    H214146   2.074   6.722   0.694  1.0284  1.9477 -2.2731
 4742TIP3   OH214147   1.835   5.112   1.084  0.6314 -0.8606  0.1001
 4742TIP3    H114148   1.850   5.103   1.178 -0.4498 -0.4989  0.3208
 4742TIP3    H214149   1.833   5.023   1.051 -1.9453 -1.1484  0.9208
 4743TIP3   OH214150   3.169   5.100   1.526 -0.3889 -0.0426 -0.4543
 4743TIP3    H114151   3.259   5.087   1.497 -0.7122 -1.0143 -1.0570
 4743TIP3    H214152   3.119   5.113   1.446 -0.7814  0.4973 -0.1249
 4744TIP3   OH214153   3.027   5.429   2.928 -0.6764  0.0630 -0.0412
 4744TIP3    H114154   3.001   5.455   3.017  0.9517 -3.0487  1.4342
 4744TIP3    H214155   2.969   5.356   2.906 -0.0200 -0.2137 -0.8823
 4745TIP3   OH214156   3.075   5.777  -0.002 -0.0529 -0.0691  0.3039
 4745TIP3    H114157   3.037   5.740   0.078 -0.5423  1.6459  0.8851
 4745TIP3    H214158   3.000   5.788  -0.060 -0.0139  0.5654  0.3657
 4746TIP3   OH214159   1.255   5.893   3.572  0.2718  0.6571  0.0288
 4746TIP3    H114160   1.220   5.930   3.491 -1.3262  1.4121  1.0340
 4746TIP3    H214161   1.263   5.969   3.631  1.6115  0.1541  0.5154
 4747TIP3   OH214162   3.946   4.460   3.281 -0.3331 -0.0192  0.3993
 4747TIP3    H114163   3.961   4.411   3.362 -0.3365 -1.6173 -0.5491
 4747TIP3    H214164   3.970   4.550   3.303  0.2665 -0.5515  1.9943
 4748TIP3   OH214165   3.341   6.376   2.670 -0.3972 -0.8644 -0.2620
 4748TIP3    H114166   3.395   6.340   2.741  0.4175 -0.6865 -0.7890
 4748TIP3    H214167   3.285   6.303   2.644  0.1212 -1.2727 -0.2343
 4749TIP3   OH214168   2.150   2.838   3.397 -0.0189 -0.8621 -0.4775
 4749TIP3    H114169   2.148   2.853   3.302 -1.2870 -0.1062 -0.3352
 4749TIP3    H214170   2.090   2.764   3.410  0.7528 -1.4670 -0.3521
 4750TIP3   OH214171   3.065   4.595   0.473  0.2620 -0.2072 -0.4043
 4750TIP3    H114172   3.104   4.512   0.447 -1.5640 -1.0239 -0.6372
 4750TIP3    H214173   3.024   4.576   0.557  0.5992  0.7095 -0.0274
 4751TIP3   OH214174   1.869   3.240   1.519 -0.0047  0.1447  0.0788
 4751TIP3    H114175   1.849   3.333   1.529  0.3241  0.1042  1.1841
 4751TIP3    H214176   1.865   3.225   1.424  0.4984  1.4083 -0.1617
 4752TIP3   OH214177   1.059   2.776   6.410 -0.4999  0.0715  0.2697
 4752TIP3    H114178   1.151   2.781   6.435 -0.3932  0.2803 -0.1766
 4752TIP3    H214179   1.020   2.720   6.477  0.3819 -1.8458 -0.7669
 4753TIP3   OH214180   1.899   5.626   2.492 -0.4467  0.7960  0.1205
 4753TIP3    H114181   1.926   5.576   2.569 -0.2880 -0.5004 -0.7588
 4753TIP3    H214182   1.839   5.692   2.526 -1.2011 -0.4283  1.2298
 4754TIP3   OH214183   2.309   6.915   2.872 -0.6108 -0.5324 -0.3677
 4754TIP3    H114184   2.287   6.822   2.871  3.7834 -1.7044 -0.0360
 4754TIP3    H214185   2.301   6.941   2.964 -3.5023 -0.0978 -0.7159
 4755TIP3   OH214186   1.208   5.766   2.096 -0.0339  0.0676  0.2614
 4755TIP3    H114187   1.242   5.801   2.013  0.9929  0.0090  0.6463
 4755TIP3    H214188   1.185   5.675   2.075 -0.4431  0.2623 -0.1381
 4756TIP3   OH214189   4.007   3.020   2.061 -0.4312  0.3398  0.1992
 4756TIP3    H114190   3.924   3.056   2.092 -1.1117 -0.6231 -0.4639
 4756TIP3    H214191   4.055   2.998   2.141 -0.6231  1.2943  0.5877
 4757TIP3   OH214192   4.918   3.431   1.908  0.1839 -0.0769 -0.3528
 4757TIP3    H114193   4.847   3.493   1.928  0.3164  0.2835 -0.9700
 4757TIP3    H214194   4.954   3.407   1.994  0.0118  0.5673 -0.0945
 4758TIP3   OH214195   4.157   3.028   0.075 -0.4114 -0.2544  0.2843
 4758TIP3    H114196   4.076   3.016   0.024 -1.8575  2.4566  1.8044
 4758TIP3    H214197   4.139   2.985   0.158 -0.2621  0.2679  0.5883
 4759TIP3   OH214198   2.870   4.498   2.259  0.4772 -0.5720  0.6757
 4759TIP3    H114199   2.910   4.566   2.313 -0.6514  0.5282  0.1525
 4759TIP3    H214200   2.783   4.532   2.236  0.7604 -1.1779 -1.4739
 4760TIP3   OH214201   2.797   5.807   1.278 -0.0618  0.1200 -0.2560
 4760TIP3    H114202   2.861   5.762   1.223 -2.3649 -2.0296 -1.2645
 4760TIP3    H214203   2.758   5.872   1.220 -0.0834  0.1948 -0.1575
 4761TIP3   OH214204   1.853   7.983   1.736  0.4763  0.1415  0.0035
 4761TIP3    H114205   1.919   8.051   1.723  2.2930 -1.4805  0.4910
 4761TIP3    H214206   1.872   7.947   1.823 -0.3905 -1.0520 -0.2879
 4762TIP3   OH214207   1.795   4.513   3.119  0.6488  0.2330 -0.7348
 4762TIP3    H114208   1.719   4.467   3.153  1.0492  0.4126  0.4216
 4762TIP3    H214209   1.868   4.453   3.132  0.6159 -0.2193 -2.4786
 4763TIP3   OH214210   4.241   4.838   3.006 -0.2369  0.2973 -0.3425
 4763TIP3    H114211   4.249   4.760   2.950 -1.3105  0.8284 -1.2482
 4763TIP3    H214212   4.327   4.880   3.001  0.2196 -0.5917 -0.1830
 4764TIP3   OH214213   0.899   6.495   2.734 -0.0484  0.3663 -0.1333
 4764TIP3    H114214   0.839   6.492   2.659 -1.3002  0.2648  0.8425
 4764TIP3    H214215   0.984   6.515   2.696 -0.7787  0.9391 -1.5168
 4765TIP3   OH214216   2.311   4.435   0.992 -0.4644  0.3469  0.2844
 4765TIP3    H114217   2.335   4.515   1.038  1.2002  1.1261 -1.8838
 4765TIP3    H214218   2.389   4.412   0.941 -1.0078 -2.4855  0.6152
 4766TIP3   OH214219   0.257   1.807   6.898 -0.0062 -0.3543 -0.0706
 4766TIP3    H114220   0.275   1.752   6.975  1.6903 -0.8316 -0.7645
 4766TIP3    H214221   0.310   1.885   6.912 -0.9030  0.2452 -0.0209
 4767TIP3   OH214222   3.111   4.108   4.029  0.2893 -0.8337  0.0028
 4767TIP3    H114223   3.106   4.126   3.935 -1.7089 -0.7618  0.1025
 4767TIP3    H214224   3.204   4.095   4.046  0.9992  1.9563 -1.4644
 4768TIP3   OH214225   4.581   3.181   1.006  0.2832 -0.9233 -0.4410
 4768TIP3    H114226   4.668   3.143   1.001 -0.6511 -3.2118 -0.2316
 4768TIP3    H214227   4.592   3.261   1.057  2.0745 -1.7139  0.4478
 4769TIP3   OH214228   7.501   3.253   6.546 -0.1376  0.3481 -0.6081
 4769TIP3    H114229   7.484   3.347   6.539 -2.6055 -0.1821 -2.5093
 4769TIP3    H214230   7.457   3.226   6.627 -3.1072  0.1517 -2.1971
 4770TIP3   OH214231   1.313   3.315   3.113  0.1988 -0.9601  0.1587
 4770TIP3    H114232   1.363   3.280   3.187 -0.7312 -2.4427  0.1054
 4770TIP3    H214233   1.282   3.401   3.143  2.2838 -0.2532  0.3862
 4771TIP3   OH214234   2.816   4.219   0.547 -0.2140 -0.2385  0.0077
 4771TIP3    H114235   2.815   4.216   0.451 -1.7511 -0.0882  0.0007
 4771TIP3    H214236   2.734   4.263   0.570  1.7735  2.9297  1.3038
 4772TIP3   OH214237   2.079   3.735   2.282 -0.5102  0.5033  0.2254
 4772TIP3    H114238   2.034   3.679   2.345 -1.8551 -0.3824 -1.4875
 4772TIP3    H214239   2.168   3.700   2.278 -0.5711  0.2199  1.2043
 4773TIP3   OH214240   4.945   6.770   3.272  0.0578  0.5506  0.2936
 4773TIP3    H114241   4.852   6.752   3.275  0.5503 -1.9828  1.6179
 4773TIP3    H214242   4.966   6.804   3.359  0.1372  2.4863 -0.4546
 4774TIP3   OH214243   2.425   3.009   0.752 -0.5740 -0.3529  0.2639
 4774TIP3    H114244   2.457   3.023   0.841  1.5409 -0.2871 -0.4773
 4774TIP3    H214245   2.439   2.915   0.737  0.4063 -0.0983 -0.4786
 4775TIP3   OH214246   1.678   0.948   6.159 -0.1995 -0.4291 -0.7584
 4775TIP3    H114247   1.689   0.862   6.200 -0.8033  0.0799  0.4805
 4775TIP3    H214248   1.766   0.972   6.129  0.2741 -0.7571  0.3459
 4776TIP3   OH214249   2.087   6.666   2.421  0.1751 -0.8759  0.5315
 4776TIP3    H114250   2.132   6.698   2.343 -2.2241  1.6439  0.0810
 4776TIP3    H214251   2.013   6.615   2.386  0.4357 -1.7282  1.2095
 4777TIP3   OH214252   2.563   3.887   2.451  0.7070  0.5980 -0.1541
 4777TIP3    H114253   2.622   3.814   2.433  1.4275  1.2340 -0.4100
 4777TIP3    H214254   2.496   3.851   2.509 -0.1805 -0.8389 -2.0077
 4778TIP3   OH214255   6.784   8.237   6.069 -0.1382  0.0910 -0.7516
 4778TIP3    H114256   6.800   8.276   5.984  2.6260  1.4966  0.3713
 4778TIP3    H214257   6.859   8.180   6.085 -1.3830 -1.3775  0.0947
 4779TIP3   OH214258   3.227   5.930   3.352  0.4645  0.6935 -0.6201
 4779TIP3    H114259   3.296   5.885   3.400 -0.2671 -1.2446 -1.3101
 4779TIP3    H214260   3.176   5.976   3.419  0.3455 -0.7386  0.2885
 4780TIP3   OH214261   2.438   6.832   0.372  0.1256  0.2306  0.1814
 4780TIP3    H114262   2.371   6.864   0.432  0.2368  2.6713 -0.9545
 4780TIP3    H214263   2.513   6.812   0.427 -1.0314 -1.1639  1.2910
 4781TIP3   OH214264   3.256   5.327   4.376 -0.5640 -0.6218  0.2866
 4781TIP3    H114265   3.258   5.419   4.347  0.0183 -0.8104 -0.3036
 4781TIP3    H214266   3.163   5.305   4.380 -0.7045 -0.0197  0.3807
 4782TIP3   OH214267   3.390   7.401   1.586  0.7181 -0.0836  0.5686
 4782TIP3    H114268   3.420   7.447   1.665  1.4611 -2.1891  1.5405
 4782TIP3    H214269   3.443   7.322   1.583  2.0340  0.8265 -3.1141
 4783TIP3   OH214270   3.122   4.327   3.364  0.2749  0.2150  0.4858
 4783TIP3    H114271   3.135   4.244   3.409 -0.6714 -0.0418  0.2967
 4783TIP3    H214272   3.116   4.304   3.272  0.9965  0.6090  0.3347
 4784TIP3   OH214273   6.362   5.857   0.694 -0.4313 -0.1543 -0.1523
 4784TIP3    H114274   6.361   5.781   0.635 -1.1668  0.0829 -0.4512
 4784TIP3    H214275   6.406   5.926   0.644 -1.4640  0.1829 -0.5935
 4785TIP3   OH214276   3.041   5.081   3.460  0.0201  0.0042 -0.4639
 4785TIP3    H114277   2.998   5.123   3.534 -0.4651  0.9872 -1.2970
 4785TIP3    H214278   2.996   5.115   3.383  0.1741 -1.4018 -1.1990
 4786TIP3   OH214279   4.453   4.695   2.607  0.0005 -0.6883  0.3117
 4786TIP3    H114280   4.480   4.631   2.541  1.6897 -0.1077  0.4372
 4786TIP3    H214281   4.524   4.758   2.611  0.0316 -0.8226  2.8481
 4787TIP3   OH214282   5.082   5.750   2.442 -0.3334  0.0983  0.3107
 4787TIP3    H114283   4.993   5.773   2.417 -0.8521  0.4493  2.3713
 4787TIP3    H214284   5.131   5.747   2.360 -2.3480 -0.5893 -0.8913
 4788TIP3   OH214285   2.583   7.209   1.865  0.2862  0.5268 -0.0520
 4788TIP3    H114286   2.509   7.199   1.925  1.9479  0.0403  1.9809
 4788TIP3    H214287   2.546   7.193   1.778 -1.7750 -0.8013  1.0304
 4789TIP3   OH214288  -0.009   1.806   6.948  0.1511 -0.1970 -0.6694
 4789TIP3    H114289  -0.025   1.720   6.988 -0.1565 -0.5165 -1.4553
 4789TIP3    H214290   0.080   1.800   6.914  0.3936  0.0553 -0.0780
 4790TIP3   OH214291   0.455   7.509   4.477  0.2369  0.4409  0.1137
 4790TIP3    H114292   0.442   7.508   4.382 -0.5355 -0.1888  0.2215
 4790TIP3    H214293   0.450   7.417   4.502 -0.7416  0.7162  0.9297
 4791TIP3   OH214294   1.783   5.917   1.233  0.2304  0.0290 -0.9631
 4791TIP3    H114295   1.829   5.884   1.310  1.7147  1.5228 -1.1812
 4791TIP3    H214296   1.690   5.903   1.253  0.4370  2.6255  2.2104
 4792TIP3   OH214297   1.902   7.678   1.061  0.4618 -0.4456  1.0328
 4792TIP3    H114298   1.933   7.587   1.062  2.0959  0.0709 -1.1467
 4792TIP3    H214299   1.962   7.723   1.002 -2.0862  1.4440 -0.1659
 4793TIP3   OH214300   3.734   5.003   1.601  0.2521 -0.3884 -0.0202
 4793TIP3    H114301   3.779   5.013   1.685  0.9690  0.5599 -0.5113
 4793TIP3    H214302   3.646   4.972   1.624 -0.3359  2.1298  1.2480
 4794TIP3   OH214303   4.813   4.701   1.380 -0.3256  0.0905  0.0591
 4794TIP3    H114304   4.842   4.613   1.358  2.2835  1.1700 -1.0128
 4794TIP3    H214305   4.856   4.721   1.463 -0.8109  0.4131  0.2369
 4795TIP3   OH214306   4.440   4.006   1.682 -0.3136  0.4812  0.3419
 4795TIP3    H114307   4.368   4.019   1.621 -1.9046  2.4337  2.5253
 4795TIP3    H214308   4.422   3.922   1.724  0.3338 -0.4556 -1.2182
 4796TIP3   OH214309   3.695   5.934   1.549 -0.4983  0.2141  0.0446
 4796TIP3    H114310   3.788   5.931   1.572  0.1216 -0.9312 -2.3580
 4796TIP3    H214311   3.684   6.018   1.505 -0.3134 -0.1497 -0.7097
 4797TIP3   OH214312   3.139   6.158   2.624  0.3577 -0.5379  0.0323
 4797TIP3    H114313   3.116   6.082   2.570 -2.0768  0.4768 -0.4349
 4797TIP3    H214314   3.121   6.131   2.714  2.2985 -1.4842  0.1514
 4798TIP3   OH214315   4.168   6.180   0.297  0.3939 -0.6778 -0.2223
 4798TIP3    H114316   4.217   6.133   0.366  0.1427  0.2924  0.6192
 4798TIP3    H214317   4.191   6.272   0.310 -2.6397 -0.0475  0.9938
 4799TIP3   OH214318   2.115   6.617   1.156  0.0647 -0.0724 -0.2441
 4799TIP3    H114319   2.202   6.631   1.120  0.1244 -0.6434 -0.3220
 4799TIP3    H214320   2.130   6.595   1.248 -0.0170  0.2186 -0.1627
 4800TIP3   OH214321   2.145   7.288   0.950 -0.3221  0.5270 -0.1852
 4800TIP3    H114322   2.141   7.193   0.936  0.0699  0.5447 -0.4314
 4800TIP3    H214323   2.202   7.298   1.027 -0.3854  0.5635 -0.1425
 4801TIP3   OH214324   3.769   6.205   0.083  0.2728  0.8291 -0.5338
 4801TIP3    H114325   3.746   6.287   0.127  0.8038  1.5668 -1.5851
 4801TIP3    H214326   3.783   6.231  -0.009  0.2918 -0.4672 -0.9037
 4802TIP3   OH214327   2.285   5.839   3.745  0.3111 -0.0100 -0.2272
 4802TIP3    H114328   2.199   5.804   3.766 -0.5408  1.5276 -1.0814
 4802TIP3    H214329   2.316   5.786   3.671 -0.0718 -0.3079 -0.1716
 4803TIP3   OH214330   4.346   3.411   5.515  0.5570 -0.3523 -0.2192
 4803TIP3    H114331   4.330   3.504   5.500  1.0973 -0.4825 -1.7200
 4803TIP3    H214332   4.274   3.383   5.572  1.1307  1.2639  1.3317
 4804TIP3   OH214333   0.848   1.806   6.826 -0.4029 -0.2217  0.0428
 4804TIP3    H114334   0.788   1.733   6.809  0.4507 -1.2941  1.5819
 4804TIP3    H214335   0.796   1.868   6.876 -1.3321  0.5672 -1.8268
 4805TIP3   OH214336   1.896   4.769   3.319  0.1983  0.2469 -0.6162
 4805TIP3    H114337   1.856   4.689   3.283  2.0698 -1.1890  0.4307
 4805TIP3    H214338   1.969   4.786   3.260  1.6205 -0.5542  0.8845
 4806TIP3   OH214339   2.228   5.502   1.149  0.0859  0.7561  0.2109
 4806TIP3    H114340   2.167   5.575   1.160  0.4154  1.2285 -1.1077
 4806TIP3    H214341   2.303   5.524   1.204  0.0758  1.2860  0.0073
 4807TIP3   OH214342   2.667   5.816   0.677  0.4346 -0.2666 -0.4226
 4807TIP3    H114343   2.751   5.843   0.640  1.1986  0.4855  1.7729
 4807TIP3    H214344   2.602   5.841   0.611  1.6003  2.4835 -0.5865
 4808TIP3   OH214345   2.075   4.916   1.147  0.3589  0.2917  0.1601
 4808TIP3    H114346   2.017   4.915   1.071 -0.2077  2.0559  0.5524
 4808TIP3    H214347   2.132   4.840   1.135 -1.6276 -1.1243 -0.5350
 4809TIP3   OH214348   0.623   7.264   0.020 -0.0079 -0.1450  0.5066
 4809TIP3    H114349   0.629   7.220   0.104 -0.9915 -0.4952  0.4038
 4809TIP3    H214350   0.543   7.317   0.026 -0.2443 -0.4048 -0.3140
 4810TIP3   OH214351   3.273   3.527   3.625 -0.1439 -0.5268 -0.6864
 4810TIP3    H114352   3.312   3.442   3.606  0.4431 -0.0120 -1.8392
 4810TIP3    H214353   3.297   3.546   3.715 -0.3447 -1.6165 -0.4021
 4811TIP3   OH214354   3.461   4.777   0.642 -0.0865  0.8690  0.6997
 4811TIP3    H114355   3.512   4.716   0.588 -0.7404 -1.0792  2.2158
 4811TIP3    H214356   3.527   4.827   0.690  0.4645  0.1346  0.7305
 4812TIP3   OH214357   2.016   5.112   1.314 -0.8182  0.2241 -0.0914
 4812TIP3    H114358   2.098   5.158   1.296 -0.3162 -0.7455 -0.2876
 4812TIP3    H214359   2.025   5.028   1.269 -1.9202  0.1094 -0.1101
 4813TIP3   OH214360   1.128   5.407   1.719 -0.0916  0.1683  0.2430
 4813TIP3    H114361   1.193   5.337   1.727 -2.8697 -2.6078 -0.7947
 4813TIP3    H214362   1.051   5.373   1.764 -1.1709  3.0387  0.6576
 4814TIP3   OH214363   1.462   6.369   2.373 -0.5778  0.5483  0.0009
 4814TIP3    H114364   1.383   6.422   2.380 -0.8719  0.1277 -0.0848
 4814TIP3    H214365   1.430   6.279   2.375 -0.1980  0.3797 -1.1658
 4815TIP3   OH214366   3.234   5.412   3.665  0.1667  0.1782  0.2787
 4815TIP3    H114367   3.144   5.444   3.662  0.7629  1.9076 -0.3632
 4815TIP3    H214368   3.264   5.433   3.753  0.0852  0.0790  0.3287
 4816TIP3   OH214369   2.317   7.603   0.384 -0.2455  0.7081 -0.3986
 4816TIP3    H114370   2.393   7.656   0.364 -0.3579  1.3086  0.7168
 4816TIP3    H214371   2.313   7.601   0.480  0.0255 -1.6796 -0.3965
 4817TIP3   OH214372   2.494   6.513   3.536 -0.8646 -0.0811  0.3526
 4817TIP3    H114373   2.461   6.453   3.468 -1.8376 -0.9730  1.5887
 4817TIP3    H214374   2.476   6.468   3.618  0.1246  1.0846  1.2233
 4818TIP3   OH214375   1.048   7.161   2.573 -0.1600  0.1471 -0.3678
 4818TIP3    H114376   1.022   7.249   2.545  0.3015  0.6169  0.6691
 4818TIP3    H214377   1.143   7.164   2.578 -0.1909 -0.1991  0.4066
 4819TIP3   OH214378   5.156   4.164   1.010 -0.2923 -0.7112 -0.2812
 4819TIP3    H114379   5.249   4.142   1.018 -0.4906 -0.8528  1.9287
 4819TIP3    H214380   5.111   4.080   1.008 -0.4361 -0.6286 -0.5303
 4820TIP3   OH214381   4.232   6.772   0.650 -0.2727 -0.2797 -0.0280
 4820TIP3    H114382   4.151   6.760   0.600 -0.1950  1.2376 -0.5395
 4820TIP3    H214383   4.259   6.862   0.631  0.7693 -0.3052  1.2744
 4821TIP3   OH214384   5.500   4.943   1.476 -0.5796  0.2765 -1.1756
 4821TIP3    H114385   5.468   4.933   1.566  1.0482 -0.2044 -0.6291
 4821TIP3    H214386   5.514   5.037   1.466  0.9541  0.1700 -0.2830
 4822TIP3   OH214387   0.082   6.408   3.013 -0.0911 -0.0724 -0.0127
 4822TIP3    H114388   0.122   6.336   3.061  0.5190  0.3796  0.1615
 4822TIP3    H214389  -0.010   6.383   3.004  0.3415 -1.3866 -0.9279
 4823TIP3   OH214390   0.012   1.029   6.649 -0.1618 -0.7443 -0.5923
 4823TIP3    H114391   0.016   1.108   6.595 -1.2477 -0.9976 -1.0596
 4823TIP3    H214392   0.059   0.963   6.598 -0.4890 -0.7741 -0.8554
 4824TIP3   OH214393   2.751   6.782   2.138 -0.2459  0.2493 -0.6876
 4824TIP3    H114394   2.717   6.715   2.197 -1.6463  1.2908 -0.2734
 4824TIP3    H214395   2.759   6.738   2.053  1.7916 -1.2654  0.2369
 4825TIP3   OH214396   2.784   5.129   0.567 -0.1360 -0.0626  0.5043
 4825TIP3    H114397   2.797   5.037   0.547 -1.1545 -0.4016  1.3649
 4825TIP3    H214398   2.781   5.133   0.662  0.4280  0.9364  0.4924
 4826TIP3   OH214399   3.036   4.916   2.235  0.1028 -0.5504  0.2077
 4826TIP3    H114400   2.944   4.939   2.249  0.5281  0.5713  1.3485
 4826TIP3    H214401   3.045   4.828   2.271 -0.0588  0.1982  2.1764
 4827TIP3   OH214402   2.363   5.882   2.373 -0.1954 -0.4716  0.1422
 4827TIP3    H114403   2.437   5.822   2.385 -0.0592 -0.2490  0.4367
 4827TIP3    H214404   2.356   5.893   2.279 -0.5939 -1.4169  0.0576
 4828TIP3   OH214405   1.718   3.789   0.710  0.3543  0.1116 -0.3387
 4828TIP3    H114406   1.696   3.774   0.618 -2.2794 -2.1082  0.5729
 4828TIP3    H214407   1.671   3.869   0.733  0.8398  0.5500 -0.8619
 4829TIP3   OH214408   4.232   5.023   1.636 -0.1266 -0.5884  0.3262
 4829TIP3    H114409   4.183   4.991   1.560 -0.7352 -0.1298  0.5251
 4829TIP3    H214410   4.169   5.022   1.707 -0.2449  1.4088  0.2523
 4830TIP3   OH214411   3.602   7.811   7.156  0.5403 -0.0015 -0.3777
 4830TIP3    H114412   3.599   7.903   7.183  1.5714 -0.3790  1.1098
 4830TIP3    H214413   3.522   7.773   7.193  0.3974  0.1754 -0.5037
 4831TIP3   OH214414   3.033   3.545   4.405 -0.2864  0.4934 -0.0088
 4831TIP3    H114415   3.117   3.515   4.439 -0.5737  1.1047  1.2442
 4831TIP3    H214416   3.043   3.540   4.310  0.4618 -1.3608  0.1439
 4832TIP3   OH214417   3.033   5.479   1.417  0.1566 -0.2523  0.0538
 4832TIP3    H114418   3.051   5.498   1.325  0.4650  0.4234  0.2513
 4832TIP3    H214419   2.997   5.390   1.416 -2.1471  0.6544 -0.9500
 4833TIP3   OH214420   2.294   6.936   3.689  0.2946 -0.1451  0.9104
 4833TIP3    H114421   2.330   6.883   3.618  0.3931  0.0939  0.7803
 4833TIP3    H214422   2.368   6.988   3.720  0.3468 -0.5269  1.4473
 4834TIP3   OH214423   1.632   7.395   0.624  0.2223 -0.4178 -0.5589
 4834TIP3    H114424   1.662   7.474   0.579 -0.4362 -0.1936 -0.6046
 4834TIP3    H214425   1.552   7.422   0.669  0.9887 -0.5677  0.9580
 4835TIP3   OH214426   0.652   4.986   1.926 -0.2153  0.5540  0.0276
 4835TIP3    H114427   0.605   5.067   1.905 -0.2205  0.2360 -1.2416
 4835TIP3    H214428   0.704   5.007   2.003 -0.0105  1.8447 -0.4540
 4836TIP3   OH214429   3.850   5.563   1.662  0.1138  0.4878  0.1163
 4836TIP3    H114430   3.894   5.480   1.678  0.0914  0.2544 -0.9753
 4836TIP3    H214431   3.789   5.573   1.735 -0.5845 -0.9220 -0.2658
 4837TIP3   OH214432   3.866   3.838   3.239  0.4383  0.1017  0.5560
 4837TIP3    H114433   3.960   3.850   3.227  0.1100  0.9941 -1.1236
 4837TIP3    H214434   3.855   3.836   3.334  2.3511 -1.6254  0.7810
 4838TIP3   OH214435   3.071   5.336   2.129  0.1567  0.7114  0.3701
 4838TIP3    H114436   3.089   5.328   2.035  2.1902  0.2922  0.7790
 4838TIP3    H214437   3.003   5.404   2.134 -1.5688 -0.7907 -1.5365
 4839TIP3   OH214438   2.289   5.989   1.771 -0.2949  0.0696  0.2776
 4839TIP3    H114439   2.243   5.908   1.794  1.3366 -0.8609  0.4410
 4839TIP3    H214440   2.225   6.058   1.783 -1.5149 -1.1349  0.8562
 4840TIP3   OH214441   2.991   5.228   5.209 -0.5047 -0.3101 -0.1342
 4840TIP3    H114442   2.949   5.141   5.212 -2.5465  0.6113 -0.8769
 4840TIP3    H214443   3.032   5.237   5.295 -0.1132 -2.0936 -0.1087
 4841TIP3   OH214444   4.412   3.596   1.255  0.2494 -0.0378  0.3643
 4841TIP3    H114445   4.434   3.595   1.348 -0.7608  0.3350  0.6151
 4841TIP3    H214446   4.454   3.517   1.220 -0.8095 -1.1118  1.4808
 4842TIP3   OH214447   1.809   5.731   2.891  0.3091  0.1624 -0.0060
 4842TIP3    H114448   1.812   5.716   2.796  2.9407 -1.3629  0.2728
 4842TIP3    H214449   1.718   5.755   2.909 -0.1142  0.9778 -2.9891
 4843TIP3   OH214450   0.293   7.163   2.917  0.1288  0.0393  0.3514
 4843TIP3    H114451   0.378   7.172   2.960  0.4876  0.6686 -0.4616
 4843TIP3    H214452   0.285   7.243   2.865 -0.3080 -0.6955 -0.7240
 4844TIP3   OH214453   4.254   3.970   2.658 -0.5154 -0.0658  0.2635
 4844TIP3    H114454   4.205   4.035   2.607 -0.1332 -0.6994 -0.9189
 4844TIP3    H214455   4.189   3.906   2.685 -0.7417  0.3396  0.6860
 4845TIP3   OH214456   5.545   2.552   4.703  0.0156  0.3054 -0.5043
 4845TIP3    H114457   5.605   2.626   4.701  0.0232  0.4271  2.0570
 4845TIP3    H214458   5.602   2.476   4.688  0.5111  0.5832 -0.0842
 4846TIP3   OH214459   1.429   5.981   0.725 -0.1480 -0.1339 -0.0770
 4846TIP3    H114460   1.519   5.998   0.698 -0.4820  2.2427  0.2631
 4846TIP3    H214461   1.437   5.924   0.802  1.0768  0.3651  0.1730
 4847TIP3   OH214462   0.809   5.967   2.394 -0.4166 -0.8075  0.1580
 4847TIP3    H114463   0.880   5.936   2.339 -0.9438 -0.9266 -0.4614
 4847TIP3    H214464   0.852   6.008   2.469  0.3159 -3.1240  1.0646
 4848TIP3   OH214465   1.135   4.934   4.451  0.1524 -0.1035  0.5155
 4848TIP3    H114466   1.140   5.001   4.519 -1.3238  1.0366 -0.4752
 4848TIP3    H214467   1.094   4.978   4.376  0.3940 -1.7381 -0.6155
 4849TIP3   OH214468   0.757   5.701   2.482 -0.3994 -0.3619 -0.3088
 4849TIP3    H114469   0.723   5.618   2.514  0.2833  0.3675  2.5027
 4849TIP3    H214470   0.842   5.709   2.524  1.1548  0.0733 -3.4607
 4850TIP3   OH214471   2.720   4.044   1.746  0.3508 -0.4217  0.7243
 4850TIP3    H114472   2.780   4.111   1.780 -0.2614  0.2742  0.4445
 4850TIP3    H214473   2.721   4.056   1.651  1.0660 -1.5231  0.5816
 4851TIP3   OH214474   3.597   7.029   4.685  0.2666 -0.6894 -0.1174
 4851TIP3    H114475   3.562   7.078   4.611 -0.0316  1.0517  1.1450
 4851TIP3    H214476   3.526   7.026   4.748  1.3806  0.2300  1.2147
 4852TIP3   OH214477   3.448   6.552   2.091 -0.2603 -0.2267  1.1526
 4852TIP3    H114478   3.411   6.512   2.169  1.7992 -2.6917  0.9267
 4852TIP3    H214479   3.452   6.481   2.027 -2.8890  1.9669 -1.6319
 4853TIP3   OH214480   3.251   5.089   0.088  0.1145 -0.1513 -0.0444
 4853TIP3    H114481   3.214   5.144   0.019  0.2647 -1.8385 -1.5057
 4853TIP3    H214482   3.180   5.029   0.111  1.6134 -2.9097 -2.3241
 4854TIP3   OH214483   2.584   6.321   1.152 -0.1300  0.5913 -0.2928
 4854TIP3    H114484   2.630   6.364   1.224  0.4231 -0.4754 -0.0008
 4854TIP3    H214485   2.590   6.228   1.173 -1.7684  0.4042 -0.6517
 4855TIP3   OH214486   3.118   6.237   1.549  0.0461  0.0021 -0.0062
 4855TIP3    H114487   3.153   6.173   1.487 -1.9151  0.5344 -1.7348
 4855TIP3    H214488   3.173   6.314   1.537 -1.6063  0.8472 -2.7231
 4856TIP3   OH214489   2.594   5.035   0.987  0.0390 -0.3460  0.6943
 4856TIP3    H114490   2.558   5.116   1.023  1.7678  0.5408  0.4750
 4856TIP3    H214491   2.566   4.967   1.048 -2.6209  0.1932  0.1209
 4857TIP3   OH214492   1.737   4.426   1.528  0.1679 -0.2051  0.0469
 4857TIP3    H114493   1.822   4.382   1.522  1.3296  2.0132 -0.3613
 4857TIP3    H214494   1.733   4.480   1.449 -0.7287  1.2512  1.0805
 4858TIP3   OH214495   1.222   4.377   1.406  0.0184 -0.0849 -0.3174
 4858TIP3    H114496   1.153   4.393   1.471  2.0713  2.0506  1.3768
 4858TIP3    H214497   1.288   4.325   1.453  1.7310  1.8553 -0.5274
 4859TIP3   OH214498   1.139   6.222   4.207  0.2250  0.4707  0.2278
 4859TIP3    H114499   1.190   6.149   4.171 -0.8145 -0.3746  0.4457
 4859TIP3    H214500   1.204   6.274   4.255  1.3463  0.7860 -1.5576
 4860TIP3   OH214501   6.847   5.390   2.382  0.7145 -0.1151  0.5516
 4860TIP3    H114502   6.796   5.321   2.339  0.7985 -0.5401  1.1256
 4860TIP3    H214503   6.908   5.342   2.439  0.8185  0.4321  0.8968
 4861TIP3   OH214504   1.538   2.956   6.446  0.3029  0.0872 -0.0406
 4861TIP3    H114505   1.593   2.908   6.508  0.1204  0.3203  0.3047
 4861TIP3    H214506   1.561   3.048   6.460  0.2667  0.1401 -0.3256
 4862TIP3   OH214507   1.209   0.348   6.503 -0.1642 -0.2787 -0.0918
 4862TIP3    H114508   1.125   0.374   6.543 -0.4606  1.8434 -1.9707
 4862TIP3    H214509   1.254   0.431   6.488  0.9982 -1.1962 -1.8263
 4863TIP3   OH214510   2.796   5.923   2.649 -0.2079  0.5072 -0.2070
 4863TIP3    H114511   2.772   5.895   2.561 -3.4110  1.0090  0.4436
 4863TIP3    H214512   2.881   5.882   2.665 -0.1669 -0.6284 -3.0143
 4864TIP3   OH214513   3.337   4.513   3.321  0.4622 -0.1611  0.4908
 4864TIP3    H114514   3.290   4.444   3.369 -0.0942  0.1163  0.3530
 4864TIP3    H214515   3.410   4.467   3.279 -0.5294 -0.8784 -0.5037
 4865TIP3   OH214516   5.839   4.680   2.181 -0.0563 -0.0072  0.3052
 4865TIP3    H114517   5.852   4.600   2.232 -0.5857 -0.6893 -0.5952
 4865TIP3    H214518   5.784   4.652   2.108 -2.3008  1.7225  1.2982
 4866TIP3   OH214519   3.005   5.121   3.104 -0.7533  0.0645  0.6175
 4866TIP3    H114520   2.939   5.120   3.035  0.4629 -0.0878 -0.5589
 4866TIP3    H214521   3.052   5.038   3.094 -0.2865  0.2311  1.3597
 4867TIP3   OH214522   4.882   6.303   3.366  0.5234  0.6948 -0.0938
 4867TIP3    H114523   4.962   6.355   3.372  1.1156 -0.0549 -1.3723
 4867TIP3    H214524   4.898   6.243   3.294 -0.1775 -1.2132  1.3063
 4868TIP3   OH214525   1.541   4.039   1.590  0.2243 -0.6387 -0.3914
 4868TIP3    H114526   1.637   4.045   1.590  0.2367 -0.7091  0.5614
 4868TIP3    H214527   1.521   3.975   1.659 -0.5165 -0.4308 -0.4087
 4869TIP3   OH214528   1.872   5.524   4.757  0.1600 -0.2085 -0.3519
 4869TIP3    H114529   1.816   5.586   4.803  0.7159  1.4575 -1.8251
 4869TIP3    H214530   1.814   5.452   4.733 -1.7412  2.0449 -2.9328
 4870TIP3   OH214531   4.099   3.218   3.148  0.4221 -0.0756 -0.2235
 4870TIP3    H114532   4.097   3.313   3.143 -1.3520 -0.0487  0.7660
 4870TIP3    H214533   4.035   3.189   3.083  1.7612 -0.6468 -1.3250
 4871TIP3   OH214534   6.314   5.862   3.392 -0.7403  0.3933  0.1705
 4871TIP3    H114535   6.385   5.895   3.448  1.8418 -3.0474 -0.9111
 4871TIP3    H214536   6.279   5.787   3.440 -0.6159 -0.6791 -1.4183
 4872TIP3   OH214537   5.719   3.998   2.249  0.5505  0.2183  0.0474
 4872TIP3    H114538   5.791   4.015   2.189  0.1189 -0.9768 -0.8433
 4872TIP3    H214539   5.641   3.995   2.193  0.0057  0.0608  0.7998
 4873TIP3   OH214540   7.072   1.115   7.008 -0.3797  0.0799  0.5316
 4873TIP3    H114541   7.011   1.043   7.026 -0.8681 -0.1474 -1.8765
 4873TIP3    H214542   7.025   1.194   7.036 -0.5629 -0.3477  1.4694
 4874TIP3   OH214543   3.159   7.133   2.031  0.0140  0.1784  0.1121
 4874TIP3    H114544   3.209   7.087   1.963 -0.5126 -0.1942 -0.0246
 4874TIP3    H214545   3.087   7.074   2.052  2.6062 -1.6781  4.1704
 4875TIP3   OH214546   1.439   4.825   3.985  0.4040  0.0004  0.5881
 4875TIP3    H114547   1.381   4.816   4.061  1.4607 -0.1191  1.3839
 4875TIP3    H214548   1.415   4.910   3.947  1.3697  1.0691  2.3193
 4876TIP3   OH214549   1.973   6.482   3.027  0.3464  0.0317  0.0919
 4876TIP3    H114550   1.895   6.531   3.003 -0.6600 -1.5705  0.0150
 4876TIP3    H214551   2.023   6.475   2.945 -0.3603 -0.5780 -0.2958
 4877TIP3   OH214552   2.831   6.366   2.071  0.2527 -0.1605 -0.7867
 4877TIP3    H114553   2.779   6.422   2.129  0.1774 -1.8240  0.7763
 4877TIP3    H214554   2.882   6.427   2.018  0.4913  1.3853  1.1770
 4878TIP3   OH214555   4.016   0.145   2.211  0.1138 -0.2166 -0.1618
 4878TIP3    H114556   3.968   0.173   2.133 -0.3682  1.6378  0.7679
 4878TIP3    H214557   4.108   0.164   2.191 -0.2557  2.5592  0.6397
 4879TIP3   OH214558   4.102   0.079   3.047  0.0941  0.2601 -0.3645
 4879TIP3    H114559   4.150   0.002   3.079 -1.6413 -0.9729 -0.6855
 4879TIP3    H214560   4.077   0.056   2.958 -1.2794  0.8065 -0.1221
 4880TIP3   OH214561   4.594   5.020   3.715 -0.0072 -0.3434  0.1937
 4880TIP3    H114562   4.612   5.084   3.784  0.4471 -1.8811  1.5364
 4880TIP3    H214563   4.560   4.943   3.762 -0.0632 -1.2705 -1.3377
 4881TIP3   OH214564   5.419   1.639   1.323 -0.0254  0.2191 -0.0680
 4881TIP3    H114565   5.456   1.638   1.411 -0.6099  0.7286  0.1875
 4881TIP3    H214566   5.378   1.553   1.313  1.1568 -0.3260 -0.3301
 4882TIP3   OH214567   0.179   7.653   1.465  0.3113  0.6916  0.4865
 4882TIP3    H114568   0.140   7.738   1.444  0.8243  1.5197  2.7777
 4882TIP3    H214569   0.231   7.632   1.388 -1.3127  1.5379 -0.8983
 4883TIP3   OH214570   2.057   6.906   1.386 -0.0626 -0.5223  0.4616
 4883TIP3    H114571   2.020   6.918   1.298  2.7137  0.7497 -0.5912
 4883TIP3    H214572   2.150   6.890   1.371  0.3412 -0.9752  3.1626
 4884TIP3   OH214573   1.625   5.560   0.604 -0.1437  0.5627  0.0643
 4884TIP3    H114574   1.690   5.525   0.543  0.9431  0.8304  1.0488
 4884TIP3    H214575   1.615   5.652   0.579  0.9761  0.9046  0.8533
 4885TIP3   OH214576   2.098   8.067   3.499 -0.0486  0.2426 -0.0097
 4885TIP3    H114577   2.172   8.012   3.474 -0.8523 -0.6393 -0.4967
 4885TIP3    H214578   2.032   8.006   3.531 -1.3528  0.7963 -1.5383
 4886TIP3   OH214579   1.330   7.945   2.384  0.3071  0.5595  0.2731
 4886TIP3    H114580   1.425   7.953   2.388  0.3488  0.8997 -1.1015
 4886TIP3    H214581   1.300   8.029   2.350 -0.2371 -0.5459 -2.1294
 4887TIP3   OH214582   0.134   3.377   2.525  0.2975 -0.0234  0.1513
 4887TIP3    H114583   0.039   3.379   2.518  0.3636 -0.9249 -1.1281
 4887TIP3    H214584   0.157   3.463   2.559 -1.0525 -0.2142  1.5934
 4888TIP3   OH214585   3.066   5.952   3.067  0.3817 -0.3091 -0.1457
 4888TIP3    H114586   3.134   5.987   3.123  2.1251 -0.2969 -2.2128
 4888TIP3    H214587   3.107   5.877   3.023 -1.4537 -1.3393 -0.1679
 4889TIP3   OH214588   2.796   4.131   0.907 -0.0101 -0.6743  0.1889
 4889TIP3    H114589   2.863   4.094   0.964 -0.0788  1.0134  1.4197
 4889TIP3    H214590   2.714   4.117   0.953 -0.3854 -1.7083 -0.7768
 4890TIP3   OH214591   2.090   4.918   3.049 -0.4391 -0.8959  0.2528
 4890TIP3    H114592   2.073   5.006   3.083 -1.0097 -0.7100 -0.4975
 4890TIP3    H214593   2.174   4.893   3.088  0.3141  0.4581 -0.4859
 4891TIP3   OH214594   5.429   4.625   2.021 -0.2138  0.3103 -0.3004
 4891TIP3    H114595   5.416   4.709   1.977 -0.9084  0.3319 -0.0616
 4891TIP3    H214596   5.456   4.566   1.951 -0.5450  0.5303 -0.6169
 4892TIP3   OH214597   1.595   5.212   1.402  0.1186  0.2645  0.0193
 4892TIP3    H114598   1.569   5.304   1.396 -0.2041  0.3616  2.2873
 4892TIP3    H214599   1.515   5.165   1.425  0.4398 -0.4693 -0.3412
 4893TIP3   OH214600   3.840   4.747   1.499 -0.1411 -0.1043  0.2754
 4893TIP3    H114601   3.771   4.685   1.474 -0.2369  1.1306 -2.7515
 4893TIP3    H214602   3.794   4.813   1.551 -0.9825 -0.0140 -0.5689
 4894TIP3   OH214603   2.899   5.281   2.496  0.0952 -0.1405 -0.2902
 4894TIP3    H114604   2.961   5.208   2.505 -0.3032 -0.4163  0.3361
 4894TIP3    H214605   2.819   5.240   2.465  0.2588  0.2303 -1.2017
 4895TIP3   OH214606   1.552   5.140   1.092  0.3704 -0.2306  0.4874
 4895TIP3    H114607   1.551   5.056   1.137  0.3557 -0.0345  0.8544
 4895TIP3    H214608   1.645   5.162   1.084  0.3712 -0.2432  0.4631
 4896TIP3   OH214609   3.553   4.776   1.645  0.3579  0.5274  0.0232
 4896TIP3    H114610   3.490   4.711   1.616  0.9509 -0.0799  0.0599
 4896TIP3    H214611   3.502   4.855   1.663 -0.3260  0.1533 -0.2996
 4897TIP3   OH214612   2.236   6.507   0.244  0.4885  0.9650  0.5326
 4897TIP3    H114613   2.237   6.517   0.340  1.8408  0.3369  0.6010
 4897TIP3    H214614   2.329   6.508   0.220  0.1584  0.7946 -0.7405
 4898TIP3   OH214615   8.542   1.234   7.259 -0.0419  0.1175  0.0493
 4898TIP3    H114616   8.538   1.305   7.194 -0.2587  0.4123  0.3789
 4898TIP3    H214617   8.551   1.154   7.207  1.8772  0.5276 -0.2698
 4899TIP3   OH214618   2.139   4.873   0.808 -0.3888  0.3229  0.0150
 4899TIP3    H114619   2.078   4.871   0.735  0.1127 -1.4780 -0.3851
 4899TIP3    H214620   2.116   4.952   0.857 -1.6957  0.7435 -1.2519
 4900TIP3   OH214621   2.013   5.544   2.723  0.3919  0.5436  0.0816
 4900TIP3    H114622   2.034   5.629   2.761 -1.0831 -0.1366  2.5282
 4900TIP3    H214623   2.015   5.483   2.797 -2.0757 -0.9150 -0.9887
 4901TIP3   OH214624   5.520   6.641   0.423 -0.5607 -0.5497  0.4523
 4901TIP3    H114625   5.574   6.631   0.502  0.7446  0.9645 -0.2182
 4901TIP3    H214626   5.581   6.633   0.351 -1.2408  1.0415 -0.3284
 4902TIP3   OH214627   3.923   5.313   4.877  0.1677  0.6222  0.3671
 4902TIP3    H114628   3.850   5.328   4.936  0.7594 -2.5628  1.9786
 4902TIP3    H214629   4.001   5.339   4.927  0.3992  1.3731 -0.3569
 4903TIP3   OH214630   3.437   4.161   3.549  0.0030 -0.1259  0.4021
 4903TIP3    H114631   3.455   4.185   3.458 -0.3107 -0.3643  0.2779
 4903TIP3    H214632   3.482   4.078   3.562  2.1004  1.0713  1.1847
 4904TIP3   OH214633   2.851   7.290   1.609  0.3110  0.3211 -0.2950
 4904TIP3    H114634   2.933   7.255   1.575 -0.8924 -1.3078 -1.6459
 4904TIP3    H214635   2.852   7.268   1.702  1.6956  0.9007 -0.1723
 4905TIP3   OH214636   2.645   5.592   1.796 -0.1168  0.4378 -0.0965
 4905TIP3    H114637   2.636   5.557   1.708 -0.2879 -3.6259  1.4421
 4905TIP3    H214638   2.568   5.560   1.843  1.1046  0.6228  2.1194
 4906TIP3   OH214639   6.098   1.138   1.532  0.0242  0.1274 -0.0508
 4906TIP3    H114640   6.018   1.112   1.486 -1.9141  1.9543  2.1828
 4906TIP3    H214641   6.165   1.079   1.498 -2.4045 -1.9087 -1.4879
 4907TIP3   OH214642   5.939   4.743   3.199  0.2137  0.4457 -0.9410
 4907TIP3    H114643   5.961   4.665   3.148  2.2461 -0.4680  1.2391
 4907TIP3    H214644   5.843   4.743   3.202  0.1781 -1.8416 -1.1931
 4908TIP3   OH214645   5.245   7.741   1.128  0.2352 -0.3221 -0.2816
 4908TIP3    H114646   5.241   7.683   1.205 -0.7771  0.9628  0.6633
 4908TIP3    H214647   5.172   7.801   1.140  1.0693  0.9452 -1.4286
 4909TIP3   OH214648   5.130   6.509   1.811  0.0967 -0.1162  0.0412
 4909TIP3    H114649   5.050   6.560   1.813  0.6623  0.7508  1.3284
 4909TIP3    H214650   5.167   6.524   1.724  0.0413  1.3107  0.2636
 4910TIP3   OH214651   4.550   6.362   1.265 -0.0969  0.6370 -0.6829
 4910TIP3    H114652   4.558   6.448   1.224  0.9712  0.4231 -0.9592
 4910TIP3    H214653   4.479   6.319   1.218  0.1049  0.9621 -1.2880
 4911TIP3   OH214654   4.743   6.475   1.493  0.2738  0.2931  0.2345
 4911TIP3    H114655   4.775   6.444   1.578  1.4687  1.5928  0.2875
 4911TIP3    H214656   4.728   6.569   1.507  0.6031  0.5368 -1.0337
 4912TIP3   OH214657   3.072   4.732   1.105 -1.0155 -0.4012  0.2493
 4912TIP3    H114658   3.003   4.795   1.086 -0.2936  0.5104  0.6106
 4912TIP3    H214659   3.086   4.686   1.022 -2.3944 -0.9469  0.3031
 4913TIP3   OH214660   3.184   6.616   1.087  0.1325 -0.3506  0.1014
 4913TIP3    H114661   3.108   6.673   1.102 -0.3492 -0.7984 -0.5885
 4913TIP3    H214662   3.163   6.535   1.134 -0.6304 -1.1343 -1.5302
 4914TIP3   OH214663   3.318   5.252   3.081  1.0510  0.3243 -0.0373
 4914TIP3    H114664   3.354   5.221   2.998 -0.9041 -0.3982 -0.6451
 4914TIP3    H214665   3.270   5.177   3.117 -0.3911  1.4228  0.4099
 4915TIP3   OH214666   6.294   6.358   2.400 -0.0203  0.2116  0.4114
 4915TIP3    H114667   6.367   6.400   2.353  0.9147 -0.5759  1.1393
 4915TIP3    H214668   6.320   6.266   2.406 -0.9615 -0.0180  0.9171
 4916TIP3   OH214669   8.602   4.382   0.692 -0.4162  0.3014  0.6478
 4916TIP3    H114670   8.566   4.358   0.778 -0.2885 -1.5051  0.2127
 4916TIP3    H214671   8.632   4.472   0.703 -1.3340  0.4361  2.2039
 4917TIP3   OH214672   4.810   0.131   7.100 -0.4532 -0.2602 -0.4689
 4917TIP3    H114673   4.816   0.185   7.179 -1.3025 -0.6835 -0.1032
 4917TIP3    H214674   4.825   0.192   7.028  0.9879  0.0112  0.0394
 4918TIP3   OH214675   3.946   5.434   2.302 -0.0433  0.1971  0.6074
 4918TIP3    H114676   3.871   5.377   2.285  1.0010 -1.6787  2.1390
 4918TIP3    H214677   3.946   5.445   2.397  1.7613  0.0231  0.6296
 4919TIP3   OH214678   5.634   6.465   2.487  0.3630 -0.1292  0.1271
 4919TIP3    H114679   5.673   6.396   2.541  2.6634  0.9449 -0.1103
 4919TIP3    H214680   5.614   6.535   2.549 -1.3706 -0.7257  0.2685
 4920TIP3   OH214681   2.904   4.483   0.669 -0.0492 -0.0917  0.1231
 4920TIP3    H114682   2.845   4.421   0.626  0.0060  0.7838 -1.2573
 4920TIP3    H214683   2.847   4.540   0.720 -0.2604 -0.2426  0.0539
 4921TIP3   OH214684   6.351   4.803   2.796 -0.5004 -0.2344  0.2487
 4921TIP3    H114685   6.293   4.740   2.752 -0.6165 -0.2088  0.3673
 4921TIP3    H214686   6.296   4.847   2.860 -0.2347 -0.5549  0.7049
 4922TIP3   OH214687   4.741   7.191   2.485  0.1695  0.7788  0.4318
 4922TIP3    H114688   4.774   7.156   2.568 -0.0542  0.4279  0.3754
 4922TIP3    H214689   4.722   7.113   2.432  0.6433  1.0085 -0.0780
 4923TIP3   OH214690   4.029   5.260   1.686 -0.5516  0.1385  0.6402
 4923TIP3    H114691   4.060   5.221   1.768  0.3093  0.8116  0.6481
 4923TIP3    H214692   3.951   5.210   1.663  1.4218 -2.6391 -0.2141
 4924TIP3   OH214693   6.826   6.712   1.138 -0.0995 -0.2966  0.6492
 4924TIP3    H114694   6.775   6.776   1.189 -1.3996 -1.5361  0.9310
 4924TIP3    H214695   6.906   6.700   1.189 -0.0313  0.7773  0.8196
 4925TIP3   OH214696   3.619   6.497   1.784  0.5067 -0.3130  0.1005
 4925TIP3    H114697   3.701   6.486   1.831  0.7247  0.2135 -0.1571
 4925TIP3    H214698   3.565   6.423   1.812  0.7842 -0.2265  0.8621
 4926TIP3   OH214699   3.871   3.690   3.819  0.3347 -0.4155  0.2858
 4926TIP3    H114700   3.884   3.693   3.724 -1.4398 -0.0894  0.0362
 4926TIP3    H214701   3.814   3.614   3.832  1.4430 -1.1013  1.2116
 4927TIP3   OH214702   4.397   6.683   2.022  0.1890 -0.0670  0.2278
 4927TIP3    H114703   4.364   6.675   1.932  0.5501 -0.4630  0.1251
 4927TIP3    H214704   4.483   6.641   2.019 -0.1812 -0.8832  0.9720
 4928TIP3   OH214705   0.756   2.640   7.102 -0.3034  0.5446 -0.4599
 4928TIP3    H114706   0.823   2.675   7.044 -0.3959  0.5025 -0.5914
 4928TIP3    H214707   0.682   2.620   7.045 -0.8754  1.7340 -0.1374
 4929TIP3   OH214708   4.177   8.222   2.128 -0.6102  0.6550  0.0453
 4929TIP3    H114709   4.250   8.282   2.116 -0.1316  0.1524  0.4030
 4929TIP3    H214710   4.171   8.211   2.223 -0.9222  0.4219 -0.0006
 4930TIP3   OH214711   7.037   5.665   2.676  0.0878  0.5043  0.0576
 4930TIP3    H114712   7.011   5.586   2.629  3.3843 -0.7406  0.1411
 4930TIP3    H214713   7.011   5.648   2.767 -0.6161  0.1610 -0.2068
 4931TIP3   OH214714   3.546   5.772   2.122 -0.5433  0.1532 -0.0063
 4931TIP3    H114715   3.561   5.721   2.043 -0.2146 -0.2423  0.3111
 4931TIP3    H214716   3.604   5.733   2.187 -3.3739 -1.8311  1.4141
 4932TIP3   OH214717   3.759   4.682   1.903 -0.6516  0.2966 -0.0013
 4932TIP3    H114718   3.814   4.605   1.919 -1.7100  0.1033  2.9308
 4932TIP3    H214719   3.699   4.655   1.833 -0.2506 -1.1528  0.2069
 4933TIP3   OH214720   2.077   1.435   6.660 -1.0037 -0.8012  0.0724
 4933TIP3    H114721   2.155   1.461   6.611 -0.7551 -1.1560  0.2664
 4933TIP3    H214722   2.099   1.454   6.751 -2.6391  2.7532 -0.1928
 4934TIP3   OH214723   4.645   5.260   0.452 -0.1836  0.0722 -0.4955
 4934TIP3    H114724   4.712   5.283   0.517  0.9171 -1.7878 -0.9261
 4934TIP3    H214725   4.689   5.272   0.368 -0.3035 -1.3838 -0.7760
 4935TIP3   OH214726   3.712   4.403   0.942  0.4060  0.5581  0.0843
 4935TIP3    H114727   3.790   4.406   0.885  2.1869  0.8242  2.4654
 4935TIP3    H214728   3.672   4.318   0.924  2.0749 -0.1983 -0.1144
 4936TIP3   OH214729   5.888   3.610   2.205  0.1309  0.5988  0.1460
 4936TIP3    H114730   5.920   3.587   2.118  0.3897 -0.8437  0.5928
 4936TIP3    H214731   5.794   3.622   2.195 -0.0036 -0.6011 -0.1555
 4937TIP3   OH214732   7.398   5.341   0.420 -0.4230 -0.3377  0.0681
 4937TIP3    H114733   7.471   5.367   0.364 -0.2695 -0.8496  0.0230
 4937TIP3    H214734   7.335   5.300   0.361  0.8875 -3.2973  0.5719
 4938TIP3   OH214735   6.315   6.796   2.338 -0.0577 -0.1638 -0.1198
 4938TIP3    H114736   6.228   6.762   2.360  0.0719 -0.3686  0.0729
 4938TIP3    H214737   6.314   6.887   2.369  0.1934 -0.5096  0.9021
 4939TIP3   OH214738   5.314   6.256   1.107 -0.5620  0.4816 -0.7020
 4939TIP3    H114739   5.276   6.297   1.184 -0.1722 -3.0270  1.4942
 4939TIP3    H214740   5.256   6.280   1.035 -1.7141  2.6926  0.9268
 4940TIP3   OH214741   6.260   5.578   1.704 -0.0654 -0.0383  0.2925
 4940TIP3    H114742   6.236   5.538   1.788 -1.6410 -0.8289 -0.5092
 4940TIP3    H214743   6.350   5.609   1.717  0.1859 -1.3402  1.8484
 4941TIP3   OH214744   5.766   6.604   1.277 -0.4739  0.3155 -0.1348
 4941TIP3    H114745   5.765   6.662   1.200  0.2927  0.7324  0.1526
 4941TIP3    H214746   5.814   6.527   1.248 -0.5793  0.2780 -0.2097
 4942TIP3   OH214747   3.711   3.904   3.801 -0.3538  0.3112  0.8509
 4942TIP3    H114748   3.792   3.853   3.799  0.0561  0.9906 -0.5768
 4942TIP3    H214749   3.691   3.914   3.894 -0.2111 -2.0714  1.1588
 4943TIP3   OH214750   8.142   5.807   2.492 -0.3212 -0.4448  0.1258
 4943TIP3    H114751   8.174   5.751   2.563  0.5114 -1.7026 -1.2168
 4943TIP3    H214752   8.162   5.758   2.412 -0.3903  1.3835 -1.0319
 4944TIP3   OH214753   0.978   6.348   1.928 -0.2107  0.1464 -0.0675
 4944TIP3    H114754   0.987   6.324   2.020  0.5654  0.4319 -0.0643
 4944TIP3    H214755   0.909   6.414   1.927 -0.7280 -0.3877  0.2130
 4945TIP3   OH214756   4.398   7.137   1.691  0.3426  0.4285 -0.6902
 4945TIP3    H114757   4.431   7.214   1.738 -1.1253  0.6622 -0.0077
 4945TIP3    H214758   4.465   7.118   1.626  2.2474  0.3492  1.2519
 4946TIP3   OH214759   3.046   6.886   3.113  0.1523 -0.0223  0.1272
 4946TIP3    H114760   3.062   6.948   3.184 -0.5972 -0.0991  0.3636
 4946TIP3    H214761   3.035   6.941   3.035 -3.1144  0.3358  0.7722
 4947TIP3   OH214762   5.348   7.868   3.502  0.3254  0.0205 -0.2750
 4947TIP3    H114763   5.332   7.962   3.494  0.4028 -0.1626 -2.8478
 4947TIP3    H214764   5.378   7.841   3.416 -0.2441 -2.4844  0.2683
 4948TIP3   OH214765   4.054   6.862   1.374 -0.2230 -0.3096 -0.4237
 4948TIP3    H114766   4.148   6.862   1.357 -0.0481  1.3196  0.4001
 4948TIP3    H214767   4.038   6.943   1.423 -2.1793 -0.1380 -1.2663
 4949TIP3   OH214768   2.188   2.890   6.503  0.1724 -0.2373  0.0987
 4949TIP3    H114769   2.122   2.901   6.572 -0.6806  1.5425 -0.9700
 4949TIP3    H214770   2.269   2.925   6.541 -0.4332  1.3020 -0.0237
 4950TIP3   OH214771   4.112   6.095   0.030 -0.0327  0.3406 -0.1144
 4950TIP3    H114772   4.132   6.152   0.104  4.4907 -1.0461 -0.0993
 4950TIP3    H214773   4.094   6.155  -0.042  1.3837  1.7811  0.6936
 4951TIP3   OH214774   6.203   5.833   1.331  0.1841  0.2388 -0.0489
 4951TIP3    H114775   6.167   5.798   1.411 -1.2243  0.6562 -0.4940
 4951TIP3    H214776   6.285   5.785   1.318 -0.7633 -1.5245  0.3508
 4952TIP3   OH214777   1.827   5.233   2.629  0.2040  0.3529 -0.1110
 4952TIP3    H114778   1.887   5.194   2.693 -0.9652 -0.9697  0.1979
 4952TIP3    H214779   1.781   5.301   2.678 -0.6076 -0.5815  0.4308
 4953TIP3   OH214780   3.786   3.812   2.154 -0.0224 -0.2745 -0.1599
 4953TIP3    H114781   3.787   3.885   2.216 -0.5520  0.2892 -0.8052
 4953TIP3    H214782   3.872   3.813   2.114 -0.1320  0.1814 -0.3825
 4954TIP3   OH214783   6.194   6.122   1.316 -0.5103  0.4541 -0.7798
 4954TIP3    H114784   6.127   6.149   1.253 -3.9008 -0.1700  2.3437
 4954TIP3    H214785   6.195   6.026   1.311  2.4901  0.5407 -3.0088
 4955TIP3   OH214786   5.195   4.831   3.086  0.3875 -0.2154  0.1744
 4955TIP3    H114787   5.136   4.899   3.053 -0.0769  0.4827  2.3392
 4955TIP3    H214788   5.143   4.784   3.152  1.1409 -1.8190 -0.3584
 4956TIP3   OH214789   6.452   6.820   1.061 -0.0137  0.2629  0.0012
 4956TIP3    H114790   6.447   6.850   1.152  0.7923 -0.9318  0.4634
 4956TIP3    H214791   6.449   6.724   1.068 -1.9466  0.2004 -1.3733
 4957TIP3   OH214792   3.781   5.228   1.469  0.3921  0.0008  0.5352
 4957TIP3    H114793   3.770   5.136   1.494  1.0178 -0.3223 -0.3376
 4957TIP3    H214794   3.724   5.276   1.529 -0.8423 -1.0502  0.2265
 4958TIP3   OH214795   6.355   6.246   0.205 -0.1134 -0.2204  0.1548
 4958TIP3    H114796   6.266   6.221   0.180  0.4176 -1.6884 -0.3007
 4958TIP3    H214797   6.389   6.293   0.128 -0.4179  0.1700  0.2563
 4959TIP3   OH214798   3.882   6.807   2.695  0.2469 -0.4234 -0.0856
 4959TIP3    H114799   3.946   6.860   2.647 -0.9910 -0.0825 -1.4082
 4959TIP3    H214800   3.906   6.717   2.674 -0.2374 -0.2766 -1.2946
 4960TIP3   OH214801   7.811   7.260   3.266  0.2104  1.1710  0.1982
 4960TIP3    H114802   7.819   7.179   3.215 -2.0351  0.6732  0.6021
 4960TIP3    H214803   7.901   7.292   3.273  1.0614 -0.9395 -0.5319
 4961TIP3   OH214804   4.772   5.896   0.880  1.0162  0.5094  0.3988
 4961TIP3    H114805   4.723   5.965   0.834  1.4342  0.2207 -0.4978
 4961TIP3    H214806   4.831   5.861   0.813  2.7854  1.1741  1.6053
 4962TIP3   OH214807   3.879   3.036   0.379 -0.0481 -0.1853  0.1127
 4962TIP3    H114808   3.961   2.987   0.386 -0.5050 -1.5268 -2.8963
 4962TIP3    H214809   3.901   3.113   0.327 -0.7560 -0.8166 -1.1603
 4963TIP3   OH214810   5.775   4.747   3.623 -0.2937 -0.2079  0.2612
 4963TIP3    H114811   5.862   4.736   3.586 -0.8266  0.9234 -1.4002
 4963TIP3    H214812   5.738   4.659   3.624  0.4980 -0.5509  0.0434
 4964TIP3   OH214813   4.554   5.908   2.415  0.9640  0.6655 -0.0584
 4964TIP3    H114814   4.501   5.929   2.338  1.0717 -0.3454 -0.4199
 4964TIP3    H214815   4.498   5.926   2.489  0.5841  0.9090 -0.4047
 4965TIP3   OH214816   5.141   5.401   0.034 -0.6080 -0.1556 -0.1867
 4965TIP3    H114817   5.176   5.406  -0.055 -1.7004 -0.0280 -0.6233
 4965TIP3    H214818   5.057   5.448   0.029 -0.0050  1.0874  1.2539
 4966TIP3   OH214819   2.567   2.056   7.126  0.1206  0.2914 -0.1304
 4966TIP3    H114820   2.553   2.151   7.118 -0.3757  0.2268 -0.0455
 4966TIP3    H214821   2.568   2.025   7.035  0.5859  0.4208 -0.1699
 4967TIP3   OH214822   4.930   4.496   3.819 -0.5764 -0.2691 -0.5772
 4967TIP3    H114823   4.946   4.402   3.819  2.0372  0.1222 -1.9181
 4967TIP3    H214824   4.913   4.518   3.727 -1.6313  0.5197 -0.2084
 4968TIP3   OH214825   6.538   4.526   2.066 -0.4857 -0.4100  0.3509
 4968TIP3    H114826   6.465   4.521   2.127 -1.7289  1.9773 -0.8502
 4968TIP3    H214827   6.509   4.477   1.989 -0.8207  0.4348 -0.0775
 4969TIP3   OH214828   5.161   6.531   3.226 -0.5594 -0.1270 -0.2860
 4969TIP3    H114829   5.111   6.610   3.207  0.2168  0.6330  0.7729
 4969TIP3    H214830   5.123   6.497   3.307  1.4080  1.1501  1.2287
 4970TIP3   OH214831   3.943   5.905   3.262  0.2034  0.7579  0.4607
 4970TIP3    H114832   4.034   5.923   3.236 -0.7254  3.4220 -1.1205
 4970TIP3    H214833   3.916   5.984   3.308 -1.5673  0.2377  0.3320
 4971TIP3   OH214834   4.298   4.168   3.298  0.7408 -0.1594  0.0410
 4971TIP3    H114835   4.297   4.236   3.366 -1.7100 -1.0856  0.9870
 4971TIP3    H214836   4.380   4.122   3.312  0.0060 -0.7214  2.8216
 4972TIP3   OH214837   2.497   6.373   2.176 -0.3956 -0.2240  0.2012
 4972TIP3    H114838   2.457   6.329   2.101 -0.0144  0.8242 -0.6184
 4972TIP3    H214839   2.444   6.451   2.189 -0.6111 -0.5266  1.1894
 4973TIP3   OH214840   1.886   7.524   7.159 -0.0936 -0.0789  0.6175
 4973TIP3    H114841   1.890   7.430   7.172 -1.0279 -0.1968  0.0676
 4973TIP3    H214842   1.893   7.536   7.064 -0.0344  0.3954  0.6806
 4974TIP3   OH214843   3.303   5.880   2.168 -0.2703  0.0222  0.4746
 4974TIP3    H114844   3.255   5.811   2.214 -0.5203 -1.4870 -1.9506
 4974TIP3    H214845   3.374   5.833   2.123 -0.3758  1.3553 -1.1233
 4975TIP3   OH214846   4.105   5.620   0.662  0.0605  0.0631 -0.2502
 4975TIP3    H114847   4.132   5.621   0.570  2.0947  0.5915  0.3221
 4975TIP3    H214848   4.129   5.708   0.694 -1.5121  0.2109  0.5325
 4976TIP3   OH214849   6.064   4.134   3.835  0.1215  0.2274 -0.4014
 4976TIP3    H114850   6.009   4.196   3.883 -0.6563 -1.1197  0.4899
 4976TIP3    H214851   6.104   4.080   3.904  0.2290 -0.7148 -1.1941
 4977TIP3   OH214852   1.540   3.806   0.965  0.5790 -0.0348  0.1592
 4977TIP3    H114853   1.572   3.767   1.047  2.2418  1.4443  0.2456
 4977TIP3    H214854   1.516   3.731   0.911  0.8821 -1.0820  1.4468
 4978TIP3   OH214855   0.972   4.797   1.432 -0.3564 -0.2852  0.4698
 4978TIP3    H114856   0.888   4.764   1.402 -0.9563  2.0509 -0.4906
 4978TIP3    H214857   1.036   4.763   1.369 -1.0490  0.8976 -0.8959
 4979TIP3   OH214858   4.522   5.085   1.893 -0.6508  0.2057 -0.3521
 4979TIP3    H114859   4.480   5.147   1.833 -2.0494 -0.7262 -0.3444
 4979TIP3    H214860   4.596   5.050   1.844  1.1202  3.0263  0.1818
 4980TIP3   OH214861   5.965   4.351   1.471  0.6055  0.7994 -0.2296
 4980TIP3    H114862   5.987   4.408   1.397  0.1945  1.1244 -0.1056
 4980TIP3    H214863   5.888   4.392   1.510  0.5478  0.3748  0.1036
 4981TIP3   OH214864   8.791   6.719   0.730 -0.4432 -0.1280 -0.0319
 4981TIP3    H114865   8.869   6.738   0.783 -2.0355 -1.5122  2.9834
 4981TIP3    H214866   8.824   6.703   0.642  2.5720  0.1949  0.9976
 4982TIP3   OH214867   4.106   4.620   1.110 -0.4991 -0.1768  0.0753
 4982TIP3    H114868   4.134   4.711   1.123 -2.4448  0.4131  0.3921
 4982TIP3    H214869   4.074   4.593   1.196 -1.3184 -0.6576 -0.3775
 4983TIP3   OH214870   6.030   5.547   3.747 -0.1566  0.1656 -0.0088
 4983TIP3    H114871   5.941   5.580   3.759 -0.7491 -1.0394 -1.0492
 4983TIP3    H214872   6.035   5.523   3.654  0.8537 -0.9542  0.3250
 4984TIP3   OH214873   3.464   3.598   2.550  0.2785  0.0779 -0.3554
 4984TIP3    H114874   3.501   3.543   2.481 -0.4723  0.1473 -0.8188
 4984TIP3    H214875   3.392   3.645   2.507 -1.3204 -1.1773  0.8856
 4985TIP3   OH214876   4.170   5.627   1.213 -0.0794 -0.6787  0.3090
 4985TIP3    H114877   4.144   5.664   1.297  0.1902  0.5803 -0.1498
 4985TIP3    H214878   4.260   5.657   1.201  0.6137 -2.6048  0.5398
 4986TIP3   OH214879   4.438   5.277   0.756 -0.0292  0.4531 -0.8424
 4986TIP3    H114880   4.402   5.189   0.740  0.6490  0.3843 -2.1093
 4986TIP3    H214881   4.436   5.319   0.670 -3.6032  2.9597  0.3541
 4987TIP3   OH214882   6.135   0.079   0.897  0.0030 -0.4181  0.0152
 4987TIP3    H114883   6.059   0.133   0.875 -0.0912 -1.2099 -1.6642
 4987TIP3    H214884   6.120  -0.004   0.852  1.5518 -0.8156  0.1915
 4988TIP3   OH214885   2.612   1.007   6.939 -0.4599 -0.2908 -0.6208
 4988TIP3    H114886   2.666   1.078   6.973 -0.2212 -0.4752 -0.6115
 4988TIP3    H214887   2.589   1.035   6.850 -1.7025  0.5293 -0.0415
 4989TIP3   OH214888   2.272   6.200   1.579 -0.3268  0.0796  0.1520
 4989TIP3    H114889   2.334   6.141   1.621 -0.0959  2.4777  3.4098
 4989TIP3    H214890   2.190   6.151   1.575  0.7226 -1.6517 -0.4361
 4990TIP3   OH214891   4.612   7.841   1.448 -0.5236  0.2766 -0.5673
 4990TIP3    H114892   4.575   7.844   1.360 -1.3079  1.2738 -0.2026
 4990TIP3    H214893   4.612   7.931   1.478  1.1832  0.1459 -0.1283
 4991TIP3   OH214894   7.324   6.151   1.160  0.2790  0.0905 -0.0693
 4991TIP3    H114895   7.243   6.153   1.110 -0.5841  3.5807  1.3370
 4991TIP3    H214896   7.386   6.202   1.106 -0.9054  4.6522  2.6111
 4992TIP3   OH214897   3.513   4.397   1.636  0.4931 -0.2499  0.3558
 4992TIP3    H114898   3.528   4.319   1.583 -1.8604  0.4649 -1.4266
 4992TIP3    H214899   3.545   4.373   1.723 -0.0166 -3.1263 -0.1998
 4993TIP3   OH214900   4.039   4.035   3.363 -0.3976  0.0151 -0.2101
 4993TIP3    H114901   4.129   4.062   3.379 -0.1949 -0.8783  0.1512
 4993TIP3    H214902   4.005   4.101   3.302  0.5761  0.2056 -0.5555
 4994TIP3   OH214903   3.695   7.681   1.499  0.1847 -0.0139 -0.1727
 4994TIP3    H114904   3.659   7.642   1.419 -2.6792 -3.1495  2.5052
 4994TIP3    H214905   3.635   7.752   1.520 -0.8735 -1.1787  0.8272
 4995TIP3   OH214906   3.930   4.476   2.196  0.5086 -0.1105 -0.5509
 4995TIP3    H114907   4.015   4.434   2.210  0.1826 -0.7651 -0.5386
 4995TIP3    H214908   3.886   4.422   2.131 -0.0494  0.0142 -0.2846
 4996TIP3   OH214909   4.065   2.045   7.214  0.4392  0.2507 -0.0356
 4996TIP3    H114910   4.100   2.117   7.161 -0.3204  0.1546 -0.6669
 4996TIP3    H214911   4.021   2.089   7.287 -1.5181  0.4945 -1.3294
 4997TIP3   OH214912   8.354   6.616   1.849  0.7139 -0.5806 -1.0400
 4997TIP3    H114913   8.336   6.565   1.928 -1.6230  2.3440  0.3935
 4997TIP3    H214914   8.285   6.592   1.788 -0.4567  0.8906 -0.3219
 4998TIP3   OH214915   6.704   5.479   3.386  0.1892 -0.1742 -0.1210
 4998TIP3    H114916   6.676   5.558   3.340  0.2933  1.2656  2.2004
 4998TIP3    H214917   6.627   5.451   3.435  0.7266 -0.3835  0.6086
 4999TIP3   OH214918   4.778   5.510   2.253 -0.2971  0.1569  0.0163
 4999TIP3    H114919   4.723   5.433   2.241 -0.3886  0.1335  0.5983
 4999TIP3    H214920   4.863   5.476   2.278 -0.2052  0.2237 -0.2060
 5000TIP3   OH214921   3.815   2.239   1.523  0.5120  0.2779  0.9299
 5000TIP3    H114922   3.871   2.168   1.492 -1.3673 -0.7806 -0.1435
 5000TIP3    H214923   3.772   2.271   1.443 -0.1111  1.3310  1.6856
 5001TIP3   OH214924   4.150   6.435   1.617 -0.0796 -0.3714  0.4008
 5001TIP3    H114925   4.221   6.377   1.644 -0.0149 -0.9303 -0.9670
 5001TIP3    H214926   4.081   6.376   1.588 -0.7733  0.1921  0.8872
 5002TIP3   OH214927   5.218   5.354   2.818 -0.1328 -0.5423 -0.1598
 5002TIP3    H114928   5.238   5.344   2.911 -1.3636  0.7613  0.2591
 5002TIP3    H214929   5.139   5.408   2.816  0.3787  0.1558 -1.9972
 5003TIP3   OH214930   4.215   3.953   2.011 -0.4520 -0.6201  0.4563
 5003TIP3    H114931   4.303   3.948   1.973 -0.8014  1.4293 -0.7449
 5003TIP3    H214932   4.165   3.885   1.966 -0.7237  1.4309 -2.5163
 5004TIP3   OH214933   3.829   4.022   2.332 -0.0303  0.1990 -0.0260
 5004TIP3    H114934   3.742   4.061   2.323 -1.2569 -2.2691  0.8417
 5004TIP3    H214935   3.855   4.043   2.423  0.2761  0.8647 -0.2596
 5005TIP3   OH214936   5.976   6.228   3.527 -0.0727  0.3688 -0.2730
 5005TIP3    H114937   6.043   6.279   3.573  1.1303 -1.1089 -0.3396
 5005TIP3    H214938   6.025   6.176   3.463 -1.3478 -0.3023 -0.7311
 5006TIP3   OH214939   0.800   3.636   6.735  0.4810 -0.4272  0.0568
 5006TIP3    H114940   0.829   3.571   6.799 -2.0526  0.9669  2.7790
 5006TIP3    H214941   0.705   3.624   6.731  0.0184  2.7844  0.2925
 5007TIP3   OH214942   5.826   5.999   1.900  0.1135  0.1788  0.0950
 5007TIP3    H114943   5.829   5.927   1.963 -2.3360 -2.4120 -2.5738
 5007TIP3    H214944   5.817   6.078   1.953  1.6236 -1.5467  3.0559
 5008TIP3   OH214945   3.651   5.266   0.399 -0.6171 -0.0411 -0.4219
 5008TIP3    H114946   3.583   5.213   0.358 -0.4870  1.4021 -2.6097
 5008TIP3    H214947   3.624   5.357   0.383 -0.2159  0.5729  2.1774
 5009TIP3   OH214948   0.673   1.589   6.342  0.0650 -0.3665 -0.4553
 5009TIP3    H114949   0.593   1.594   6.290  1.6339  0.4371 -2.8689
 5009TIP3    H214950   0.686   1.677   6.376 -0.3777 -0.6335  0.4149
 5010TIP3   OH214951   3.887   5.091   0.846 -0.2357 -0.0355  0.3821
 5010TIP3    H114952   3.868   5.112   0.937 -0.2180 -1.1527  0.6526
 5010TIP3    H214953   3.878   5.174   0.799  1.6435  0.9448  1.6933
 5011TIP3   OH214954   6.116   5.163  -0.005 -0.8481  0.2877  0.6548
 5011TIP3    H114955   6.111   5.244   0.047 -1.8414  0.2232  0.6796
 5011TIP3    H214956   6.169   5.104   0.048  1.4003  1.5047 -0.1714
 5012TIP3   OH214957   0.025   0.247   6.037 -0.1476  0.0779  0.3864
 5012TIP3    H114958   0.026   0.343   6.037 -1.4272  0.0992 -0.4622
 5012TIP3    H214959   0.117   0.222   6.024 -0.1056  1.1966 -1.6068
 5013TIP3   OH214960   8.679   5.052   1.976  0.4018  0.6398  0.7815
 5013TIP3    H114961   8.660   5.009   2.059  0.3505  2.3578  1.6753
 5013TIP3    H214962   8.771   5.032   1.958  0.3059 -0.0485  1.0506
 5014TIP3   OH214963   5.146   4.271   2.228 -0.2524  0.1251  0.5140
 5014TIP3    H114964   5.175   4.363   2.231  1.4447 -0.2727 -2.4043
 5014TIP3    H214965   5.216   4.225   2.183 -1.0539 -2.6658  2.0110
 5015TIP3   OH214966   6.291   7.155   1.254  0.0619  0.4607  0.0273
 5015TIP3    H114967   6.210   7.120   1.218  0.8109 -0.8738 -0.4103
 5015TIP3    H214968   6.290   7.130   1.347 -0.4667  1.2817  0.2468
 5016TIP3   OH214969   3.750   5.228   2.307 -0.3229  0.0532 -0.3811
 5016TIP3    H114970   3.674   5.179   2.277  0.3001 -0.2999 -1.3781
 5016TIP3    H214971   3.726   5.257   2.395 -0.2215 -3.0668  0.7379
 5017TIP3   OH214972   6.205   6.567   1.092 -0.8422  0.2164  0.0819
 5017TIP3    H114973   6.166   6.613   1.018 -1.0198 -0.4273 -0.2280
 5017TIP3    H214974   6.258   6.499   1.052  0.4650  0.9681  0.5059
 5018TIP3   OH214975   5.920   5.217   2.881  0.2907  0.5651 -0.7056
 5018TIP3    H114976   5.950   5.299   2.919 -2.6390  0.1597  2.7919
 5018TIP3    H214977   5.833   5.237   2.847 -0.7770 -1.1942  0.8625
 5019TIP3   OH214978   4.776   6.360   0.963 -0.2673  0.2669 -0.2807
 5019TIP3    H114979   4.683   6.339   0.965 -0.6657  1.9216 -0.6887
 5019TIP3    H214980   4.800   6.354   0.870 -0.1728  0.6545 -0.2847
 5020TIP3   OH214981   4.818   6.293   2.349  0.0754 -0.1414  0.0090
 5020TIP3    H114982   4.850   6.381   2.365 -0.8199  0.0873  0.5995
 5020TIP3    H214983   4.861   6.239   2.415 -0.7917  0.1790  0.8549
 5021TIP3   OH214984   4.959   5.852   1.587 -0.4548 -0.1095 -0.0704
 5021TIP3    H114985   5.045   5.821   1.560 -1.0442 -0.7450 -1.2877
 5021TIP3    H214986   4.969   5.947   1.597  0.2167 -0.0838 -0.8871
 5022TIP3   OH214987   4.863   6.606   0.186  0.0028  0.1019  0.0988
 5022TIP3    H114988   4.773   6.630   0.211  0.4756  2.2630 -0.2002
 5022TIP3    H214989   4.857   6.587   0.092  0.2409  2.3213 -0.3878
 5023TIP3   OH214990   3.309   6.433   0.432 -0.2107 -0.3174  0.0820
 5023TIP3    H114991   3.340   6.380   0.505  1.2415  1.0775  0.5180
 5023TIP3    H214992   3.215   6.438   0.444 -0.2051 -1.7251  0.7610
 5024TIP3   OH214993   8.571   1.031   7.076 -0.0087 -0.3787  0.0675
 5024TIP3    H114994   8.630   0.956   7.076  0.5706  0.0697 -1.3008
 5024TIP3    H214995   8.488   0.997   7.045  0.2505 -0.4726 -0.5300
 5025TIP3   OH214996   6.305   7.097   1.569 -0.1209 -0.3526  0.1952
 5025TIP3    H114997   6.212   7.113   1.579 -0.0412 -0.2631  0.8290
 5025TIP3    H214998   6.346   7.182   1.583  0.1997 -0.7883  2.0834
 5026TIP3   OH214999   4.395   4.845   1.972 -0.3042  0.4986  0.3719
 5026TIP3    H115000   4.420   4.932   1.943 -2.0583  0.5191 -1.1356
 5026TIP3    H215001   4.436   4.786   1.908  0.6653  0.2216  1.2383
 5027TIP3   OH215002   4.666   7.388   0.338 -0.3407  0.0544 -0.1168
 5027TIP3    H115003   4.730   7.459   0.345  0.1738 -0.3770 -0.3567
 5027TIP3    H215004   4.633   7.394   0.248 -0.9802  0.5650  0.1510
 5028TIP3   OH215005   2.950   6.137   2.210 -0.5512  0.7161 -0.3993
 5028TIP3    H115006   3.023   6.188   2.245 -1.0752  1.5747 -0.5264
 5028TIP3    H215007   2.918   6.189   2.136 -0.9344  0.0688 -0.6912
 5029TIP3   OH215008   1.328   7.309   1.437  0.0678  0.0228  0.3203
 5029TIP3    H115009   1.255   7.296   1.497 -1.0035 -1.0500 -1.1700
 5029TIP3    H215010   1.351   7.221   1.408  1.2069  0.4480 -0.0902
 5030TIP3   OH215011   3.362   2.311   6.585 -0.0287 -0.1559  0.4507
 5030TIP3    H115012   3.420   2.240   6.558  1.4480  1.0760  0.3325
 5030TIP3    H215013   3.373   2.318   6.679 -0.8233 -0.6335  0.5861
 5031TIP3   OH215014   3.711   4.847   1.119  0.0673  0.2495 -0.0258
 5031TIP3    H115015   3.632   4.866   1.169  0.3873  0.3249  0.4561
 5031TIP3    H215016   3.751   4.933   1.104 -0.2372  0.2667 -0.7653
 5032TIP3   OH215017   2.536   0.877   7.163  0.2425 -0.1047  0.5139
 5032TIP3    H115018   2.444   0.853   7.152  0.8781 -3.3233  1.6193
 5032TIP3    H215019   2.562   0.908   7.076 -1.3509 -1.1215 -0.3677
 5033TIP3   OH215020   3.060   6.793   2.530  0.0898  0.2501  0.2781
 5033TIP3    H115021   2.998   6.721   2.531  0.4283 -0.0246  1.7674
 5033TIP3    H215022   3.142   6.755   2.562  0.1386  1.3988  1.5429
 5034TIP3   OH215023   4.935   4.350   2.607  0.2373  0.4419  0.3891
 5034TIP3    H115024   5.010   4.290   2.601 -0.6797 -0.6946  0.1511
 5034TIP3    H215025   4.917   4.356   2.701 -1.0501 -1.4180  0.2886
 5035TIP3   OH215026   6.760   7.916   1.998 -0.3994  0.0548  0.5010
 5035TIP3    H115027   6.711   7.868   2.065  0.1765 -1.6612 -0.2770
 5035TIP3    H215028   6.777   7.851   1.930  1.3984  1.0933 -0.0597
 5036TIP3   OH215029   4.267   3.592   1.734  0.6246 -0.7920  0.5382
 5036TIP3    H115030   4.205   3.624   1.669  1.9565  0.9498  0.0995
 5036TIP3    H215031   4.213   3.549   1.800 -1.0520  0.8243  0.2423
 5037TIP3   OH215032   5.785   6.148   2.371  0.3667 -0.1227 -0.1926
 5037TIP3    H115033   5.847   6.161   2.299  0.5716  1.2455  0.2258
 5037TIP3    H215034   5.699   6.162   2.331  0.2565 -2.5232 -0.8927
 5038TIP3   OH215035   3.261   4.607   3.669  0.1744 -0.1970 -0.2195
 5038TIP3    H115036   3.350   4.578   3.687 -0.0934 -2.7074 -2.5475
 5038TIP3    H215037   3.214   4.594   3.751  1.6149 -0.2220  0.6168
 5039TIP3   OH215038   5.463   7.626   6.324  0.1076  0.0538  0.1431
 5039TIP3    H115039   5.455   7.675   6.242 -0.5728  1.0752  0.8071
 5039TIP3    H215040   5.541   7.661   6.365 -0.2657  0.4421  0.5237
 5040TIP3   OH215041   5.136   6.923   1.061  0.5229 -0.0287 -0.4962
 5040TIP3    H115042   5.114   7.016   1.060 -0.1669 -0.1738  0.4424
 5040TIP3    H215043   5.197   6.913   1.133  3.3605  0.2789 -2.7676
 5041TIP3   OH215044   2.869   5.248   1.435  0.2552  0.1512  0.0663
 5041TIP3    H115045   2.917   5.182   1.385 -0.3043  0.6578 -1.1662
 5041TIP3    H215046   2.780   5.245   1.400 -0.0076  0.9077  0.6448
 5042TIP3   OH215047   5.383   7.509   0.471  0.3732 -0.5365 -0.5165
 5042TIP3    H115048   5.407   7.574   0.405 -1.5558 -0.0429 -0.7733
 5042TIP3    H215049   5.422   7.427   0.440 -0.0286 -0.1880 -2.0001
 5043TIP3   OH215050   4.008   5.404   2.577 -0.2823  0.1081  0.5396
 5043TIP3    H115051   4.020   5.390   2.671  2.0289 -0.1888  0.2227
 5043TIP3    H215052   4.061   5.336   2.535  2.1321  2.7963 -0.9720
 5044TIP3   OH215053   5.274   3.994   5.236  0.2112  0.0901 -0.0793
 5044TIP3    H115054   5.184   3.965   5.248 -0.2911  0.3493 -2.9678
 5044TIP3    H215055   5.275   4.084   5.266 -1.0315  0.7743 -1.9954
 5045TIP3   OH215056   4.648   5.681   3.157 -0.4893 -0.4456 -0.2829
 5045TIP3    H115057   4.578   5.653   3.216  0.6393 -0.5405  1.0527
 5045TIP3    H215058   4.605   5.696   3.073 -2.4534  1.4344  1.0204
 5046TIP3   OH215059   4.246   5.353   3.294  0.4427  0.0886  0.5042
 5046TIP3    H115060   4.295   5.275   3.265  1.4270  0.7271  0.4286
 5046TIP3    H215061   4.269   5.421   3.231 -1.5438  0.0800 -0.2823
 5047TIP3   OH215062   6.597   6.767   2.460 -0.2340  0.9772 -0.1399
 5047TIP3    H115063   6.562   6.691   2.414  0.4351  1.2856 -1.1731
 5047TIP3    H215064   6.675   6.791   2.410 -0.7689  2.7105 -0.1712
 5048TIP3   OH215065   5.851   6.554   2.350 -0.1170 -0.1450  0.0594
 5048TIP3    H115066   5.883   6.507   2.273  0.3372 -0.5833  0.5057
 5048TIP3    H215067   5.772   6.507   2.375  1.1846 -1.6730  1.4337
 5049TIP3   OH215068   0.412   7.086   3.868 -0.0462  0.4238 -0.4971
 5049TIP3    H115069   0.432   7.004   3.822  1.3342 -1.1220  2.6444
 5049TIP3    H215070   0.318   7.080   3.888  0.4509 -1.4113  1.4855
 5050TIP3   OH215071   6.930   6.091   3.339  0.3161  0.3482  0.3206
 5050TIP3    H115072   7.023   6.071   3.330 -0.0847 -1.3205 -0.2802
 5050TIP3    H215073   6.886   6.010   3.312 -1.2871  0.9290  1.1962
 5051TIP3   OH215074   5.834   7.161   3.979  0.1301  0.1720  0.6250
 5051TIP3    H115075   5.918   7.116   3.973  0.7592  1.3917  0.0549
 5051TIP3    H215076   5.834   7.200   4.066  0.3346  0.5162  0.4713
 5052TIP3   OH215077   6.377   5.148   0.817  0.0084 -0.2861  0.5047
 5052TIP3    H115078   6.379   5.057   0.786  0.2103 -0.2758  0.4883
 5052TIP3    H215079   6.469   5.173   0.824 -0.0595  0.3267 -0.7143
 5053TIP3   OH215080   6.560   5.091   1.563  0.0347  0.0639 -0.1332
 5053TIP3    H115081   6.639   5.065   1.610 -0.9347  1.0790  2.1307
 5053TIP3    H215082   6.498   5.020   1.579  0.8061 -1.2924 -2.8695
 5054TIP3   OH215083   6.116   6.071   2.339 -0.0508 -0.3860 -0.4707
 5054TIP3    H115084   6.212   6.064   2.339 -0.1027 -1.4766  1.5602
 5054TIP3    H215085   6.086   5.980   2.332 -0.9304 -0.1020 -0.3406
 5055TIP3   OH215086   7.292   6.032   3.953 -0.2142  0.0307  0.3235
 5055TIP3    H115087   7.338   6.088   4.015  0.7115  1.8203 -1.9126
 5055TIP3    H215088   7.262   6.091   3.884 -1.5741 -1.8417 -0.7531
 5056TIP3   OH215089   4.904   6.908   2.289  0.5189  0.4148  0.3868
 5056TIP3    H115090   4.887   6.866   2.374  2.1339 -0.9826  0.0697
 5056TIP3    H215091   4.980   6.860   2.255  1.3427  2.5123 -0.7937
 5057TIP3   OH215092   0.202   0.829   6.617 -0.1901  0.3841  0.2102
 5057TIP3    H115093   0.255   0.797   6.691  0.1076  1.3033  0.4039
 5057TIP3    H215094   0.176   0.750   6.571  0.8256 -0.1257  0.4866
 5058TIP3   OH215095   2.639   6.953   1.478 -0.1483 -0.0540  0.4111
 5058TIP3    H115096   2.573   7.021   1.465  0.8002  0.6946 -0.6405
 5058TIP3    H215097   2.718   7.001   1.502 -0.0746 -0.9662  2.0930
 5059TIP3   OH215098   4.208   5.243   0.142 -0.2862 -0.0611  0.1283
 5059TIP3    H115099   4.203   5.304   0.217  1.0522 -1.2624  1.2245
 5059TIP3    H215100   4.270   5.176   0.170  0.3743 -0.4352 -2.1653
 5060TIP3   OH215101   6.651   5.773   0.597 -0.1742  0.7485 -0.3139
 5060TIP3    H115102   6.589   5.708   0.629  1.0764 -0.9126 -1.1637
 5060TIP3    H215103   6.629   5.785   0.505  0.7993  0.0937 -0.6389
 5061TIP3   OH215104   3.937   7.861   0.681  0.2128  0.0001  0.4321
 5061TIP3    H115105   4.024   7.823   0.676 -0.1340 -0.7773  0.2418
 5061TIP3    H215106   3.894   7.815   0.753 -0.4447 -0.4669 -0.2526
 5062TIP3   OH215107   6.385   6.513   2.640  0.1819 -0.2313 -0.4335
 5062TIP3    H115108   6.317   6.538   2.578 -1.3000 -0.2896  1.1372
 5062TIP3    H215109   6.463   6.558   2.608 -0.8126  0.6662 -1.6778
 5063TIP3   OH215110   5.035   6.541   0.855  0.4389  0.3327  0.0193
 5063TIP3    H115111   5.030   6.564   0.762 -1.5885  2.0779  0.5378
 5063TIP3    H215112   4.980   6.605   0.899 -1.4982 -2.6512  2.0843
 5064TIP3   OH215113   5.061   6.167   1.646  0.1363  0.2922 -0.1080
 5064TIP3    H115114   5.131   6.136   1.703  1.8906 -0.7846 -2.7573
 5064TIP3    H215115   4.984   6.174   1.704  1.2363 -3.0338  1.8980
 5065TIP3   OH215116   5.670   5.335   2.793  0.8001  0.0719  0.6066
 5065TIP3    H115117   5.593   5.305   2.744  0.0308  2.0844  0.5072
 5065TIP3    H215118   5.687   5.423   2.757  4.7332 -1.3309 -1.2176
 5066TIP3   OH215119   6.173   6.042   0.155 -0.3696 -0.1158  0.4298
 5066TIP3    H115120   6.255   6.002   0.183 -0.7538 -0.4030  1.1445
 5066TIP3    H215121   6.140   6.087   0.233 -1.3340 -0.7494  0.3873
 5067TIP3   OH215122   3.666   4.276   0.502  0.6586 -0.1647  0.2204
 5067TIP3    H115123   3.745   4.303   0.454 -0.1039 -0.7767 -1.4186
 5067TIP3    H215124   3.687   4.190   0.538  0.3758 -0.8123 -1.1333
 5068TIP3   OH215125   6.073   4.482   1.212  0.2249  0.4424  0.2020
 5068TIP3    H115126   6.168   4.477   1.202  0.3287  2.5364 -0.2302
 5068TIP3    H215127   6.040   4.480   1.122 -0.0749  0.6529  0.3096
 5069TIP3   OH215128   7.043   6.199   0.480  0.0536  0.3953 -0.4292
 5069TIP3    H115129   7.011   6.279   0.437 -1.0891 -0.7904 -1.8480
 5069TIP3    H215130   6.970   6.137   0.472  0.2649 -0.2535  2.2027
 5070TIP3   OH215131   4.202   6.121   0.768  0.0108  0.3186 -0.1760
 5070TIP3    H115132   4.180   6.211   0.787 -0.2889  0.4622 -1.1648
 5070TIP3    H215133   4.287   6.126   0.723 -0.8716  0.2790 -1.9052
 5071TIP3   OH215134   4.819   4.939   3.363  0.0102  0.0403  0.0370
 5071TIP3    H115135   4.862   4.990   3.432 -2.1344  0.9930  0.7345
 5071TIP3    H215136   4.859   4.853   3.369  2.0054  0.9667  0.4547
 5072TIP3   OH215137   6.003   5.794   2.821 -0.9405 -0.6087  0.0102
 5072TIP3    H115138   5.982   5.750   2.738 -1.8557  0.6564 -0.4523
 5072TIP3    H215139   6.087   5.837   2.805 -0.8086 -0.8908 -0.0551
 5073TIP3   OH215140   5.346   5.547   1.369 -0.1636  0.1897  0.1163
 5073TIP3    H115141   5.335   5.470   1.425  2.4775 -0.2914  0.0109
 5073TIP3    H215142   5.293   5.527   1.292  0.9326 -1.8073 -0.1710
 5074TIP3   OH215143   5.313   4.900   3.643  0.2509 -0.1539 -0.4715
 5074TIP3    H115144   5.243   4.848   3.681  0.2465  0.4277  0.3154
 5074TIP3    H215145   5.393   4.851   3.664  0.2121 -0.0525 -0.0864
 5075TIP3   OH215146   5.543   5.611   1.011  0.3869 -0.1080  0.0556
 5075TIP3    H115147   5.499   5.680   1.061 -0.9677 -1.0111  0.1254
 5075TIP3    H215148   5.567   5.546   1.077  1.2419  0.0612 -0.0785
 5076TIP3   OH215149   5.842   5.464   1.926 -0.2271  0.4308 -0.4791
 5076TIP3    H115150   5.820   5.379   1.965  2.0051 -1.0373 -2.2989
 5076TIP3    H215151   5.759   5.496   1.891 -1.3740 -0.3064  1.4512
 5077TIP3   OH215152   3.136   4.682   2.657  0.3653 -0.5489  0.1883
 5077TIP3    H115153   3.150   4.610   2.718  0.9496 -0.3760  0.2622
 5077TIP3    H215154   3.187   4.755   2.693 -0.8646  0.1490  0.5471
 5078TIP3   OH215155   8.076   5.028   3.215  0.2761  0.6138  0.0392
 5078TIP3    H115156   8.162   5.055   3.182  1.5346 -2.0626  0.9688
 5078TIP3    H215157   8.075   5.057   3.306 -0.0726  1.1980 -0.1477
 5079TIP3   OH215158   2.460   7.191   1.600  0.1518  0.1237  0.8591
 5079TIP3    H115159   2.369   7.218   1.586 -0.0125 -1.4966 -1.4777
 5079TIP3    H215160   2.510   7.240   1.536  0.2551 -2.5701 -1.2144
 5080TIP3   OH215161   3.917   4.780   0.895  0.2364  0.0177 -0.3817
 5080TIP3    H115162   3.964   4.704   0.929  1.7900  1.0246 -0.2557
 5080TIP3    H215163   3.904   4.836   0.971 -1.3407 -0.3303 -0.3799
 5081TIP3   OH215164   4.657   4.130   2.679 -0.0863  0.1066  0.2351
 5081TIP3    H115165   4.579   4.140   2.734 -0.9458 -0.0495 -0.9468
 5081TIP3    H215166   4.667   4.215   2.637 -0.8731 -0.5222 -1.2499
 5082TIP3   OH215167   6.207   5.476   1.967  0.2646  0.1545 -0.5849
 5082TIP3    H115168   6.213   5.525   2.049  1.6196 -0.8178 -0.0830
 5082TIP3    H215169   6.232   5.386   1.990  1.8752  0.1235 -2.2788
 5083TIP3   OH215170   4.748   4.244   1.233  0.8599 -0.3076 -0.3765
 5083TIP3    H115171   4.692   4.169   1.213 -0.7338  0.2329  1.8452
 5083TIP3    H215172   4.802   4.215   1.307  0.9397  0.4158 -0.1483
 5084TIP3   OH215173   4.011   4.924   0.094  0.4770  0.5588 -0.5841
 5084TIP3    H115174   4.024   4.957   0.182  0.1448 -1.0427  0.0759
 5084TIP3    H215175   3.988   5.002   0.042 -1.4486  1.1854  1.1648
 5085TIP3   OH215176   3.581   4.977   3.598  0.3623  0.5268 -0.5119
 5085TIP3    H115177   3.606   5.021   3.517  0.4114  0.4470 -0.5409
 5085TIP3    H215178   3.553   4.889   3.569 -0.8649  0.9286 -0.5986
 5086TIP3   OH215179   4.723   4.646   3.043  0.0547  0.0788  0.3643
 5086TIP3    H115180   4.752   4.738   3.041  0.1740  0.0362 -2.6002
 5086TIP3    H215181   4.707   4.625   2.951 -0.3091 -2.7878  1.0583
 5087TIP3   OH215182   1.631   7.818   1.198 -0.4508  0.8763 -0.2047
 5087TIP3    H115183   1.711   7.860   1.167  0.5273  0.2976  1.4600
 5087TIP3    H215184   1.643   7.809   1.292 -2.0412 -0.1750 -0.0710
 5088TIP3   OH215185   7.568   1.810   5.544 -0.2727  0.2050  0.0861
 5088TIP3    H115186   7.598   1.769   5.463 -0.0971  1.5715 -0.5351
 5088TIP3    H215187   7.590   1.746   5.612 -2.3165 -1.8840 -1.1452
 5089TIP3   OH215188   4.895   6.645   1.889 -0.4946 -0.5836 -0.2697
 5089TIP3    H115189   4.925   6.715   1.831  0.0145  0.1348  0.8360
 5089TIP3    H215190   4.823   6.684   1.939  0.5837 -0.4373  1.2123
 5090TIP3   OH215191   5.573   6.099   2.699  0.4964  0.0568 -0.5584
 5090TIP3    H115192   5.624   6.021   2.721 -0.6434  0.1033  2.4803
 5090TIP3    H215193   5.638   6.168   2.685  1.3909 -0.6661 -0.0292
 5091TIP3   OH215194   6.938   4.495   1.941  0.6497  0.1920 -0.3085
 5091TIP3    H115195   6.865   4.434   1.951  1.2873 -0.5755 -0.2696
 5091TIP3    H215196   7.010   4.454   1.990  1.1769  0.8196 -0.5572
 5092TIP3   OH215197   4.530   7.266   1.025 -0.4780  0.3984 -0.4509
 5092TIP3    H115198   4.551   7.268   1.118  0.4297  0.0935 -0.6459
 5092TIP3    H215199   4.614   7.253   0.981 -1.0731 -0.8018 -1.2470
 5093TIP3   OH215200   4.030   7.512   0.094  0.2495 -0.5809  0.2297
 5093TIP3    H115201   4.052   7.422   0.068  1.2001 -0.8733  1.9757
 5093TIP3    H215202   3.993   7.504   0.181  0.3566  0.7382  0.4094
 5094TIP3   OH215203   5.154   5.604   1.807  0.3469  0.2271 -0.2611
 5094TIP3    H115204   5.116   5.656   1.877 -2.0878  0.2006 -1.5366
 5094TIP3    H215205   5.098   5.527   1.800  2.3503 -1.2967 -0.1933
 5095TIP3   OH215206   6.174   7.212   3.460  0.3648  0.4343  0.3847
 5095TIP3    H115207   6.184   7.307   3.453  0.4405  0.3105 -1.7840
 5095TIP3    H215208   6.081   7.196   3.441  0.5587  0.0162 -0.2439
 5096TIP3   OH215209   6.017   7.377   3.725  0.4792 -0.2658  0.5614
 5096TIP3    H115210   5.953   7.313   3.696  0.0326 -0.5784  2.2523
 5096TIP3    H215211   6.083   7.327   3.773  0.6150  0.4103  1.0978
 5097TIP3   OH215212   3.915   5.414   0.451  0.1473  0.1012  0.8311
 5097TIP3    H115213   3.871   5.494   0.482 -0.4000 -0.2802  1.0440
 5097TIP3    H215214   3.847   5.347   0.453 -0.3069  0.3765 -2.5655
 5098TIP3   OH215215   6.280   6.449   1.636  0.5547 -0.2788 -0.2213
 5098TIP3    H115216   6.244   6.529   1.676  1.3937 -0.2940  0.5760
 5098TIP3    H215217   6.233   6.441   1.553 -0.7941  0.0796  0.4920
 5099TIP3   OH215218   8.163   5.234   1.695 -0.2086 -0.5249  0.4578
 5099TIP3    H115219   8.202   5.320   1.713  0.2963 -0.7649  0.5313
 5099TIP3    H215220   8.190   5.214   1.606 -1.5416  0.0361 -0.0826
 5100TIP3   OH215221   3.610   4.046   3.018  0.3148  0.1296 -0.0123
 5100TIP3    H115222   3.680   4.079   2.962  0.4315 -1.2707 -0.7006
 5100TIP3    H215223   3.581   3.965   2.976 -1.5624  0.5604  0.3851
 5101TIP3   OH215224   2.400   6.475   1.844 -0.3413  0.2854 -0.1375
 5101TIP3    H115225   2.354   6.483   1.760  0.4911  3.9368 -0.3244
 5101TIP3    H215226   2.330   6.471   1.909 -0.9792 -1.0407 -0.8825
 5102TIP3   OH215227   3.776   5.240   2.806 -0.8479  0.0723  0.7522
 5102TIP3    H115228   3.796   5.162   2.857 -2.5923  0.3296  1.8620
 5102TIP3    H215229   3.743   5.303   2.870 -1.8655  0.8335 -0.4991
 5103TIP3   OH215230   1.504   5.893   1.341  0.2911  0.2066  0.4768
 5103TIP3    H115231   1.525   5.972   1.391  0.0149 -0.7663  2.1757
 5103TIP3    H215232   1.415   5.908   1.309  0.6731  1.0691 -0.2051
 5104TIP3   OH215233   6.903   5.754   1.862 -0.2693  0.2692 -0.2719
 5104TIP3    H115234   6.985   5.768   1.815  0.0146  2.7282  0.8724
 5104TIP3    H215235   6.843   5.820   1.827 -0.1824  1.8610  2.4011
 5105TIP3   OH215236   4.826   4.648   0.992  0.8392 -0.2728 -0.3589
 5105TIP3    H115237   4.731   4.658   0.997  0.8678 -0.0222 -0.2908
 5105TIP3    H215238   4.840   4.555   0.977  0.5604 -0.2178 -0.9735
 5106TIP3   OH215239   2.716   6.211   0.311  0.1974  0.1722  0.0106
 5106TIP3    H115240   2.762   6.131   0.335  1.1941  0.6498 -0.2836
 5106TIP3    H215241   2.704   6.258   0.394  0.3005  0.0818  0.0769
 5107TIP3   OH215242   5.072   5.223   1.179  0.1412  0.0213 -0.1451
 5107TIP3    H115243   4.981   5.202   1.158 -0.1000  0.6539  0.2647
 5107TIP3    H215244   5.124   5.171   1.117 -0.5099  0.2095 -0.8535
 5108TIP3   OH215245   7.436   4.278   1.071  0.3769  0.1301  0.1537
 5108TIP3    H115246   7.495   4.345   1.105  0.8257 -0.3818  0.4062
 5108TIP3    H215247   7.353   4.323   1.058 -0.0885  0.1448  2.8053
 5109TIP3   OH215248   3.949   7.543   2.179  0.1037  0.7388 -0.9668
 5109TIP3    H115249   3.981   7.602   2.110  3.9882  0.8511  0.8367
 5109TIP3    H215250   3.933   7.460   2.134  2.6933  0.7795 -2.0422
 5110TIP3   OH215251   5.027   6.051   1.987 -0.2342 -0.5039  0.5374
 5110TIP3    H115252   4.943   6.048   1.940  1.1336  3.5213 -2.4289
 5110TIP3    H215253   5.020   6.129   2.043  1.6843  0.2163 -0.1820
 5111TIP3   OH215254   6.858   5.371   3.945 -0.3790 -0.2726 -0.4881
 5111TIP3    H115255   6.764   5.369   3.964 -0.1393  0.1841  0.8221
 5111TIP3    H215256   6.875   5.460   3.914  0.2204  0.8046  2.7065
 5112TIP3   OH215257   6.114   7.414   1.046 -0.3986 -0.6600 -0.5850
 5112TIP3    H115258   6.046   7.364   1.002 -0.3633 -0.4456 -0.8838
 5112TIP3    H215259   6.076   7.501   1.058 -0.5091 -0.7942  0.0523
 5113TIP3   OH215260   1.877   6.165   1.999  0.4091  0.4796 -0.1201
 5113TIP3    H115261   1.895   6.080   1.960  0.8340  1.0739 -1.2444
 5113TIP3    H215262   1.782   6.169   2.006  0.4377 -0.7793  1.5534
 5114TIP3   OH215263   6.595   5.302   2.720  0.0125 -0.2246 -0.0290
 5114TIP3    H115264   6.633   5.218   2.694  0.9250  0.0414  0.4399
 5114TIP3    H215265   6.550   5.333   2.642  0.3742 -0.7521 -0.4558
 5115TIP3   OH215266   5.502   6.502   1.337  0.0963 -0.4164 -0.2176
 5115TIP3    H115267   5.490   6.540   1.424 -0.6007  0.4335 -0.6790
 5115TIP3    H215268   5.591   6.527   1.312  0.0677 -0.1187 -0.0214
 5116TIP3   OH215269   7.950   5.975   0.934 -0.2394 -0.1588  0.3685
 5116TIP3    H115270   8.027   5.930   0.970 -0.4411 -0.0561  0.9388
 5116TIP3    H215271   7.983   6.062   0.910 -0.0951 -0.2360  0.2880
 5117TIP3   OH215272   3.947   1.200   7.098  0.0734  0.0694 -0.2915
 5117TIP3    H115273   3.996   1.118   7.089 -0.1489 -0.2472  1.1313
 5117TIP3    H215274   3.988   1.261   7.037  0.8231 -0.8388 -0.7003
 5118TIP3   OH215275   6.546   6.714   2.805 -0.3387 -0.7287  0.3663
 5118TIP3    H115276   6.506   6.730   2.891 -3.1279 -0.4879 -0.9058
 5118TIP3    H215277   6.507   6.632   2.775  1.6832 -1.5460 -0.0868
 5119TIP3   OH215278   7.802   5.632   0.845  0.2895  0.5858 -0.0584
 5119TIP3    H115279   7.756   5.706   0.805  0.5191  0.6870 -0.1412
 5119TIP3    H215280   7.874   5.614   0.784 -1.1501 -1.2543 -1.2937
 5120TIP3   OH215281   7.141   6.318   1.402 -0.6502  0.1778 -0.3241
 5120TIP3    H115282   7.192   6.256   1.349 -1.5714 -0.3942 -0.5557
 5120TIP3    H215283   7.202   6.346   1.471 -0.6375 -2.0715  0.6258
 5121TIP3   OH215284   4.314   1.207   6.446 -0.5911  0.4256  0.1319
 5121TIP3    H115285   4.281   1.172   6.363  0.1559 -0.0530  0.0369
 5121TIP3    H215286   4.273   1.152   6.513  0.5392 -0.6099 -0.0153
 5122TIP3   OH215287   3.759   5.654   1.422 -0.1530 -0.0291 -0.1858
 5122TIP3    H115288   3.693   5.712   1.460  0.3064  1.4717 -1.6435
 5122TIP3    H215289   3.807   5.619   1.497  0.1761  2.2111  0.6745
 5123TIP3   OH215290   6.265   6.354   1.915 -0.1303  0.8260  0.3338
 5123TIP3    H115291   6.279   6.275   1.862 -2.1047 -1.1836  2.6823
 5123TIP3    H215292   6.171   6.369   1.910 -0.1458  1.4078  2.1071
 5124TIP3   OH215293   6.413   6.639   0.255  0.2647 -0.7145 -0.0968
 5124TIP3    H115294   6.425   6.595   0.171  0.1364  1.3136 -1.2068
 5124TIP3    H215295   6.465   6.719   0.248  1.5443 -1.2738  2.3716
 5125TIP3   OH215296   8.642   6.212   0.674  0.3823 -0.1077  0.1839
 5125TIP3    H115297   8.708   6.182   0.612 -0.9934 -2.9639  0.0514
 5125TIP3    H215298   8.660   6.162   0.754 -1.4686 -0.7505  0.2166
 5126TIP3   OH215299   7.133   4.653   1.797 -0.6824 -0.5157 -0.1515
 5126TIP3    H115300   7.150   4.693   1.883 -0.9185  1.2871 -0.9183
 5126TIP3    H215301   7.079   4.577   1.817 -1.4225  0.3487  1.2581
 5127TIP3   OH215302   6.750   5.171   2.214  0.4332 -0.1542  0.3941
 5127TIP3    H115303   6.654   5.166   2.220  0.2467  1.9322 -0.2414
 5127TIP3    H215304   6.768   5.176   2.120  1.0977  0.5065  0.5531
 5128TIP3   OH215305   7.748   5.386   4.138 -0.0412  0.0888 -0.0630
 5128TIP3    H115306   7.792   5.351   4.215  0.2770 -1.2605 -0.8307
 5128TIP3    H215307   7.701   5.463   4.169 -0.4030 -0.7866  1.6098
 5129TIP3   OH215308   5.161   6.682   0.571 -0.1175  0.2052  0.2592
 5129TIP3    H115309   5.164   6.622   0.496 -0.5039  2.0224 -1.2494
 5129TIP3    H215310   5.252   6.692   0.597  0.0656 -0.1379 -0.2175
 5130TIP3   OH215311   6.670   5.889   1.769 -0.1488  0.0888 -0.3609
 5130TIP3    H115312   6.618   5.903   1.690  0.3164  0.0687 -0.6693
 5130TIP3    H215313   6.683   5.976   1.805 -0.0245  0.1351 -0.5193
 5131TIP3   OH215314   0.048   7.080   2.734  0.2557 -0.2501 -0.0395
 5131TIP3    H115315   0.070   7.006   2.678 -0.2629  0.5019 -1.2500
 5131TIP3    H215316   0.129   7.130   2.741 -0.0417  0.4209 -1.2948
 5132TIP3   OH215317   6.360   6.114   1.793 -0.2912  0.3411 -0.8968
 5132TIP3    H115318   6.356   6.044   1.858  1.0475  1.1120  0.0587
 5132TIP3    H215319   6.344   6.071   1.710  0.8330 -1.1550 -0.3510
 5133TIP3   OH215320   5.231   1.191   6.965  0.2161 -0.5933 -0.2464
 5133TIP3    H115321   5.268   1.107   6.993 -0.5207 -1.2416 -1.1825
 5133TIP3    H215322   5.302   1.234   6.918  0.2453 -1.2042 -0.7761
 5134TIP3   OH215323   8.328   6.616   0.737 -0.0845  0.0424 -0.4342
 5134TIP3    H115324   8.352   6.702   0.702  0.6359 -0.5711 -1.4514
 5134TIP3    H215325   8.253   6.589   0.684 -0.7574  0.3454  0.3502
 5135TIP3   OH215326   4.582   5.144   2.454  0.7446 -0.1131  0.3408
 5135TIP3    H115327   4.641   5.122   2.382  2.0494  0.5619  1.1908
 5135TIP3    H215328   4.506   5.087   2.440  0.5905  0.6024 -2.0471
 5136TIP3   OH215329   7.484   5.285   1.667  0.4402  0.1566  0.2005
 5136TIP3    H115330   7.515   5.366   1.708 -0.1587  0.5766 -0.1686
 5136TIP3    H215331   7.443   5.236   1.738  0.9217  0.1103  0.4530
 5137TIP3   OH215332   4.938   8.202   0.264 -0.5576 -0.3689  0.4939
 5137TIP3    H115333   4.873   8.167   0.326 -1.4775  0.2418 -0.1069
 5137TIP3    H215334   4.885   8.239   0.193  0.4346  1.0135  0.4554
 5138TIP3   OH215335   5.953   8.114   0.444 -0.5650 -0.0870  0.1946
 5138TIP3    H115336   5.938   8.136   0.536  1.6712 -1.0454  0.8285
 5138TIP3    H215337   5.984   8.024   0.445 -1.0426 -0.2906 -1.5572
 5139TIP3   OH215338   0.041   6.234   2.046  0.7416 -0.1092  0.0779
 5139TIP3    H115339   0.018   6.169   1.980 -0.2530  1.4541 -1.1394
 5139TIP3    H215340  -0.034   6.236   2.105  0.3285  0.6536 -0.4654
 5140TIP3   OH215341   7.436   5.900   1.852 -0.3858  0.2182 -0.1055
 5140TIP3    H115342   7.504   5.858   1.905 -1.3168  0.8516  1.6377
 5140TIP3    H215343   7.482   5.969   1.804  0.3126  0.2598  0.6148
 5141TIP3   OH215344   7.990   6.656   1.581 -0.1279  0.3219 -0.2956
 5141TIP3    H115345   7.939   6.736   1.600 -1.3198 -0.5100  0.0807
 5141TIP3    H215346   8.059   6.685   1.521 -0.3072  1.7146  0.1589
 5142TIP3   OH215347   1.261   4.994   0.562 -0.6263 -0.4975  0.0379
 5142TIP3    H115348   1.265   5.003   0.466 -2.0107  0.2621  0.0375
 5142TIP3    H215349   1.344   4.952   0.585  0.3243  0.5528 -1.3511
 5143TIP3   OH215350   8.817   6.081   0.496  0.0043 -0.0106 -0.2593
 5143TIP3    H115351   8.828   6.011   0.432 -0.2435 -1.4918  1.2796
 5143TIP3    H215352   8.899   6.079   0.547 -0.2572  0.4003  0.1790
 5144TIP3   OH215353   1.796   2.457   6.011 -0.2452 -0.3101 -0.2050
 5144TIP3    H115354   1.793   2.365   6.038  1.3275 -0.2087  0.3350
 5144TIP3    H215355   1.878   2.467   5.964 -0.0589  0.9818  0.3530
 5145TIP3   OH215356   2.270   8.240   7.128 -0.6773 -0.2919 -0.1884
 5145TIP3    H115357   2.177   8.236   7.106 -1.0597  1.8624  0.9147
 5145TIP3    H215358   2.286   8.161   7.179 -1.5250 -1.4629 -1.6878
 5146TIP3   OH215359   5.716   5.589   2.725  0.0526 -0.2828  0.0578
 5146TIP3    H115360   5.704   5.683   2.741  0.6282 -0.1180 -0.4564
 5146TIP3    H215361   5.703   5.580   2.630  0.0070 -0.7254  0.1060
 5147TIP3   OH215362   7.744   6.023   1.124 -0.0214  0.2041  0.1151
 5147TIP3    H115363   7.826   5.998   1.082 -0.3448 -1.7307  0.5901
 5147TIP3    H215364   7.751   5.986   1.212 -1.5339 -0.2684  0.0454
 5148TIP3   OH215365   8.484   7.633   1.666  0.4150  0.7079  0.8549
 5148TIP3    H115366   8.533   7.713   1.682  0.0257  1.1845 -0.2459
 5148TIP3    H215367   8.513   7.572   1.733  1.9943  1.2081  0.6328
 5149TIP3   OH215368   7.675   5.812   1.598 -0.6548 -0.2988 -0.1342
 5149TIP3    H115369   7.592   5.763   1.600 -1.5563  1.2353  1.4184
 5149TIP3    H215370   7.652   5.898   1.631  1.4442  0.3837 -0.4092
 5150TIP3   OH215371   7.063   6.486   2.690  0.7948 -0.2917  0.1023
 5150TIP3    H115372   7.053   6.535   2.772 -0.6294  0.7383 -0.6551
 5150TIP3    H215373   7.019   6.403   2.706 -1.5485  0.8194 -0.3446
 5151TIP3   OH215374   7.748   7.319   1.577  0.4238  0.3133  0.5628
 5151TIP3    H115375   7.654   7.318   1.595  0.3359 -1.2870  0.1329
 5151TIP3    H215376   7.755   7.337   1.483  0.4424 -1.3432  0.2190
 5152TIP3   OH215377   6.407   5.692   1.403  0.4784 -0.1139  0.0566
 5152TIP3    H115378   6.467   5.639   1.349  1.4473 -1.4833  2.4253
 5152TIP3    H215379   6.340   5.630   1.432  0.4047  0.4325  1.0752
 5153TIP3   OH215380   7.240   5.012   2.231 -0.1196  0.1602  0.0056
 5153TIP3    H115381   7.204   4.928   2.202 -1.0181  1.1674 -1.8862
 5153TIP3    H215382   7.163   5.066   2.250  0.4246  1.1101 -0.4447
 5154TIP3   OH215383   4.209   7.116   1.441 -0.4325 -0.5680  0.7691
 5154TIP3    H115384   4.283   7.164   1.479 -0.4606 -1.2925  1.7559
 5154TIP3    H215385   4.145   7.183   1.420  0.8051  0.1615 -0.8153
 5155TIP3   OH215386   2.156   0.490   2.345  0.7461 -0.4636  0.1110
 5155TIP3    H115387   2.097   0.474   2.271 -0.9394  1.2894  1.0179
 5155TIP3    H215388   2.163   0.586   2.350  0.7100 -0.5366  2.2709
 5156TIP3   OH215389   5.752   4.682   1.479  0.4647  0.1972 -0.4500
 5156TIP3    H115390   5.676   4.733   1.453  0.1749 -0.9958 -2.0202
 5156TIP3    H215391   5.741   4.669   1.573 -0.3962  1.4462 -0.3623
 5157TIP3   OH215392   7.012   6.160   1.588 -0.5306 -0.4472  0.2507
 5157TIP3    H115393   7.060   6.225   1.536  0.0688 -2.2417 -1.4993
 5157TIP3    H215394   6.932   6.145   1.539  0.2139 -2.4405 -0.4000
 5158TIP3   OH215395   0.468   8.011   1.687 -0.4570 -0.0002  0.2294
 5158TIP3    H115396   0.485   7.956   1.763  0.3808 -2.6649 -1.8267
 5158TIP3    H215397   0.383   7.982   1.655 -0.4134  0.5127 -0.3612
 5159TIP3   OH215398   7.077   7.057   3.821  0.2860  0.1157  0.1135
 5159TIP3    H115399   7.135   7.131   3.805  1.1496 -0.4072  0.7978
 5159TIP3    H215400   7.023   7.084   3.895 -0.1466  0.4717 -0.3192
 5160TIP3   OH215401   6.948   4.882   1.959 -0.4123 -0.2388 -0.0866
 5160TIP3    H115402   6.925   4.952   2.020 -0.3281  0.4222 -0.8074
 5160TIP3    H215403   7.033   4.851   1.989 -0.9094 -0.7314  0.8459
 5161TIP3   OH215404   7.744   5.411   1.278  0.4484 -0.4559 -0.3014
 5161TIP3    H115405   7.675   5.426   1.342  2.1424 -1.5924  1.8846
 5161TIP3    H215406   7.756   5.496   1.234 -0.5524  0.4167  1.0896
 5162TIP3   OH215407   7.885   6.463   2.225  0.0565  0.7086  0.4752
 5162TIP3    H115408   7.903   6.419   2.308 -1.9086  1.7890  1.4987
 5162TIP3    H215409   7.852   6.549   2.250 -1.1194  0.8279 -1.4250
 5163TIP3   OH215410   4.617   1.118   6.937  0.2842  0.2608 -0.3857
 5163TIP3    H115411   4.524   1.099   6.925 -0.9644  4.3328  1.8416
 5163TIP3    H215412   4.648   1.054   7.001 -1.2060 -0.4829 -0.4045
 5164TIP3   OH215413   6.722   7.206   1.024 -0.0428 -0.0896 -0.3083
 5164TIP3    H115414   6.771   7.131   0.988 -0.1328  0.6976 -2.1226
 5164TIP3    H215415   6.630   7.183   1.011 -0.0683  0.4172 -1.0639
 5165TIP3   OH215416   7.427   5.001   0.502 -0.0160 -0.7408  0.0653
 5165TIP3    H115417   7.376   5.049   0.437 -0.7343  0.4929  1.5173
 5165TIP3    H215418   7.443   4.915   0.461  1.1054  0.6152 -2.4745
 5166TIP3   OH215419   5.651   8.151   1.206  0.1681 -0.4338 -0.4842
 5166TIP3    H115420   5.654   8.171   1.300 -0.2383  0.8649 -0.7418
 5166TIP3    H215421   5.558   8.140   1.186  0.1022  1.1746 -1.1124
 5167TIP3   OH215422   6.642   5.632   0.965  0.4575  0.4706  0.2279
 5167TIP3    H115423   6.622   5.577   1.041  0.7938 -1.7596 -1.2666
 5167TIP3    H215424   6.567   5.691   0.958 -1.3624 -1.8068  0.0637
 5168TIP3   OH215425   0.446   5.486   2.562 -0.4402  0.0187  0.6392
 5168TIP3    H115426   0.386   5.560   2.554 -1.1147 -0.5239  0.5916
 5168TIP3    H215427   0.389   5.409   2.559  0.2498 -0.4990  0.7254
 5169TIP3   OH215428   7.669   6.240   3.073  0.1445  0.7330  0.2470
 5169TIP3    H115429   7.625   6.325   3.069  1.8210  1.5990 -0.5782
 5169TIP3    H215430   7.731   6.242   3.000  1.1806 -0.6463  1.0628
 5170TIP3   OH215431   4.673   0.718   6.983 -0.0338  0.2629  0.3940
 5170TIP3    H115432   4.673   0.803   7.027 -1.9929  0.1703  0.6276
 5170TIP3    H215433   4.612   0.665   7.033 -0.9328 -0.4113 -1.3622
 5171TIP3   OH215434   7.134   5.272   0.997 -0.2466  0.0845 -0.3986
 5171TIP3    H115435   7.142   5.363   1.025  0.1744  0.4832 -1.8222
 5171TIP3    H215436   7.117   5.276   0.903 -1.6888 -1.2531 -0.2240
 5172TIP3   OH215437   4.955   5.452   0.382  0.4497 -0.2122 -0.1002
 5172TIP3    H115438   4.936   5.474   0.473  1.0611 -2.1280  0.5134
 5172TIP3    H215439   5.025   5.511   0.356  0.5086  0.1041  0.7836
 5173TIP3   OH215440   7.594   5.219   4.349 -0.4375 -0.0273  0.3939
 5173TIP3    H115441   7.594   5.228   4.445 -1.2384 -0.6284  0.4557
 5173TIP3    H215442   7.574   5.307   4.317  2.6635  0.8453  0.6848
 5174TIP3   OH215443   5.364   6.084   0.459 -0.9808  0.1550 -0.8095
 5174TIP3    H115444   5.268   6.088   0.462 -0.9530  1.0165 -1.0524
 5174TIP3    H215445   5.392   6.175   0.467 -0.1673 -0.1310 -0.3849
 5175TIP3   OH215446   6.725   5.365   0.225 -0.1038  0.3992 -0.0082
 5175TIP3    H115447   6.675   5.312   0.287  0.1704  0.2195  0.0602
 5175TIP3    H215448   6.685   5.451   0.230 -1.5943 -0.1887 -1.2983
 5176TIP3   OH215449   4.419   0.529   6.719 -0.2133  0.5041 -0.6799
 5176TIP3    H115450   4.350   0.593   6.702 -0.2333  0.2970 -1.3900
 5176TIP3    H215451   4.405   0.460   6.654  0.0914  0.0037 -0.2223
 5177TIP3   OH215452   8.045   5.154   0.260  0.4765 -0.2402 -0.2835
 5177TIP3    H115453   8.082   5.238   0.234  2.5290 -1.1263 -0.2814
 5177TIP3    H215454   8.101   5.124   0.332 -1.3101 -0.8010  0.9250
 5178TIP3   OH215455   5.845   0.329   6.723 -0.0939 -0.1173  0.4999
 5178TIP3    H115456   5.893   0.408   6.748  0.8842 -0.8281  0.8643
 5178TIP3    H215457   5.833   0.337   6.628 -2.3108  1.7370  0.8851
 5179TIP3   OH215458   7.951   6.312   1.561  0.7050  0.6837 -0.8855
 5179TIP3    H115459   8.010   6.364   1.507  1.3639  1.4564  0.5493
 5179TIP3    H215460   7.941   6.363   1.641 -1.2108  0.1202 -0.7546
 5180TIP3   OH215461   6.749   5.839   2.080 -0.2948  0.0961  0.7043
 5180TIP3    H115462   6.769   5.750   2.111 -0.6880 -0.2791 -0.1009
 5180TIP3    H215463   6.800   5.848   2.000  0.6401  1.0299  1.3986
 5181TIP3   OH215464   7.931   6.512   1.270 -0.0025  0.2359  0.3893
 5181TIP3    H115465   7.927   6.607   1.272  2.1260  0.3839 -0.6994
 5181TIP3    H215466   7.853   6.483   1.317 -0.4455  2.5123  1.0966
 5182TIP3   OH215467   6.683   3.666   1.395 -0.3169  0.1960 -0.3044
 5182TIP3    H115468   6.730   3.746   1.371  0.4587 -0.9195 -2.6417
 5182TIP3    H215469   6.598   3.674   1.353 -0.4684  0.0464 -0.0314
 5183TIP3   OH215470   4.874   4.994   0.318 -0.1027  0.2177  0.1790
 5183TIP3    H115471   4.872   4.969   0.226  0.4090 -1.4746  0.6081
 5183TIP3    H215472   4.815   4.933   0.361  1.2972 -0.3755  1.2908
 5184TIP3   OH215473   4.886   6.054   1.109  0.0508 -0.0922  0.2595
 5184TIP3    H115474   4.919   5.968   1.138 -1.3877 -0.3393  1.1944
 5184TIP3    H215475   4.810   6.033   1.054 -0.9378  0.6191  1.3466
 5185TIP3   OH215476   0.395   0.955   2.921 -0.8668  0.1501  0.2881
 5185TIP3    H115477   0.385   1.014   2.995 -0.1521 -0.6457  1.0282
 5185TIP3    H215478   0.488   0.962   2.897 -1.1671  0.6724 -0.7622
 5186TIP3   OH215479   6.749   6.919   1.306  0.4748 -0.1027 -0.1021
 5186TIP3    H115480   6.692   6.981   1.351  1.3660  0.0083  0.9230
 5186TIP3    H215481   6.768   6.852   1.372  0.4285 -0.8615 -0.8493
 5187TIP3   OH215482   5.552   5.889   2.484 -0.6716 -0.0277 -0.6142
 5187TIP3    H115483   5.472   5.912   2.531 -0.8752 -2.0336  0.0788
 5187TIP3    H215484   5.619   5.948   2.520 -1.3492  0.0932  0.4719
 5188TIP3   OH215485   5.975   7.099   1.694 -0.3603  0.6037 -0.3448
 5188TIP3    H115486   6.010   7.143   1.771 -1.5402  0.7863  0.0982
 5188TIP3    H215487   5.886   7.074   1.719  0.5139 -2.6953 -0.3037
 5189TIP3   OH215488   8.779   6.335   2.540  0.1185  0.1932  0.4758
 5189TIP3    H115489   8.716   6.276   2.499  1.3691 -1.8229  1.3747
 5189TIP3    H215490   8.865   6.299   2.516  0.9067  1.8000  0.8337
 5190TIP3   OH215491   8.203   6.229   2.459  0.3511 -0.1414  0.2829
 5190TIP3    H115492   8.257   6.244   2.381  0.7733 -0.4540  0.5119
 5190TIP3    H215493   8.266   6.216   2.530 -0.0249 -0.5949  0.5374
 5191TIP3   OH215494   7.471   7.416   1.834 -0.5163  0.1774  0.7156
 5191TIP3    H115495   7.427   7.488   1.789 -0.0580 -0.1548 -0.2827
 5191TIP3    H215496   7.546   7.458   1.878  1.4826 -0.0705 -2.2702
 5192TIP3   OH215497   8.592   4.694   3.005 -0.4693 -0.8500 -0.1342
 5192TIP3    H115498   8.634   4.613   3.034 -0.8881 -2.1830 -3.1661
 5192TIP3    H215499   8.508   4.666   2.969 -0.9810  1.0411 -0.4459
 5193TIP3   OH215500   6.114   6.224   0.865 -0.5001  0.4803 -0.4134
 5193TIP3    H115501   6.206   6.245   0.850 -0.9156  1.8146 -1.2532
 5193TIP3    H215502   6.114   6.132   0.891  0.9080 -0.0435 -2.1450
 5194TIP3   OH215503   5.011   6.771   1.653 -0.0756 -0.0651 -0.3447
 5194TIP3    H115504   4.979   6.843   1.598  0.6520 -0.2045 -0.9526
 5194TIP3    H215505   5.091   6.743   1.611 -1.2435 -2.3912 -1.0907
 5195TIP3   OH215506   6.823   5.598   2.198  0.3408 -0.0912 -0.1306
 5195TIP3    H115507   6.873   5.672   2.232 -0.6684  1.4525 -1.8656
 5195TIP3    H215508   6.834   5.529   2.263  2.2044  1.2219  0.9920
 5196TIP3   OH215509   6.199   8.308   1.352  0.1516 -0.1289 -0.1995
 5196TIP3    H115510   6.137   8.367   1.395  0.8116  0.4694 -0.0532
 5196TIP3    H215511   6.224   8.354   1.272 -0.2373 -0.7514 -0.6835
 5197TIP3   OH215512   6.892   6.452   0.784  0.3927 -0.9328 -0.3476
 5197TIP3    H115513   6.827   6.429   0.719  0.3073  1.4006 -1.1443
 5197TIP3    H215514   6.963   6.389   0.770  0.2321 -0.6851 -2.4819
 5198TIP3   OH215515   7.414   5.474   0.760 -0.1115 -0.1267 -0.5888
 5198TIP3    H115516   7.477   5.511   0.698  1.1513  1.5318  1.6051
 5198TIP3    H215517   7.329   5.505   0.729  0.5973  1.5014 -0.9418
 5199TIP3   OH215518   6.482   6.601   3.731  0.2135  0.0399  0.0624
 5199TIP3    H115519   6.476   6.623   3.824 -2.5660 -1.1016  0.1852
 5199TIP3    H215520   6.403   6.639   3.692  0.1868 -1.4922 -1.4111
 5200TIP3   OH215521   0.340   6.254   3.512  0.2457  0.1281  0.0120
 5200TIP3    H115522   0.297   6.258   3.597  1.9937 -0.0314  0.9337
 5200TIP3    H215523   0.282   6.302   3.453 -1.6724 -0.9344  0.9863
 5201TIP3   OH215524   6.237   7.199   2.184 -0.2357  0.6738 -0.0850
 5201TIP3    H115525   6.152   7.236   2.204 -1.3302 -1.9018  0.2266
 5201TIP3    H215526   6.266   7.158   2.265  1.3199  1.5246 -0.1864
 5202TIP3   OH215527   6.379   7.758   1.100 -0.1704  0.1784 -0.1497
 5202TIP3    H115528   6.421   7.701   1.165 -1.4457 -0.4228  0.1723
 5202TIP3    H215529   6.410   7.846   1.122  0.1633 -0.1379  0.6870
 5203TIP3   OH215530   6.971   4.353   1.517  0.1693 -0.3922  0.1835
 5203TIP3    H115531   7.027   4.427   1.493  0.7285 -0.8591  0.0652
 5203TIP3    H215532   7.000   4.329   1.605 -1.4202  0.8785  1.0903
 5204TIP3   OH215533   5.393   3.187   3.853 -0.0506 -0.0522 -0.0149
 5204TIP3    H115534   5.443   3.128   3.910  0.4109  1.2641  0.9568
 5204TIP3    H215535   5.456   3.211   3.784  0.6893  1.6170  1.2174
 5205TIP3   OH215536   7.081   3.394   1.512  0.1972 -0.1950 -0.7722
 5205TIP3    H115537   6.997   3.348   1.515  0.6357 -0.9508 -0.0980
 5205TIP3    H215538   7.082   3.435   1.425 -1.1410  0.3495 -0.5546
 5206TIP3   OH215539   0.090   5.892   0.139  0.0319 -0.1702  0.1825
 5206TIP3    H115540   0.015   5.918   0.086  0.4168  0.0159 -0.2745
 5206TIP3    H215541   0.053   5.870   0.224 -0.6257 -0.7169 -0.2425
 5207TIP3   OH215542   6.697   4.752   1.908 -0.4823 -0.2466 -0.3872
 5207TIP3    H115543   6.789   4.776   1.914  0.1028 -2.5393  0.1691
 5207TIP3    H215544   6.691   4.666   1.949 -2.7725 -0.3944 -0.9290
 5208TIP3   OH215545   8.341   2.332   0.313  0.1170 -0.3949 -0.6668
 5208TIP3    H115546   8.436   2.322   0.304  0.1767 -0.2729 -0.2044
 5208TIP3    H215547   8.313   2.379   0.235  0.5196  0.0979 -0.5119
 5209TIP3   OH215548   7.360   5.690   3.691  0.2004  0.0215  0.0742
 5209TIP3    H115549   7.349   5.757   3.624 -3.0527 -1.5748 -1.0939
 5209TIP3    H215550   7.329   5.610   3.649  1.2008 -1.6489  2.4422
 5210TIP3   OH215551   7.832   3.321   0.534  0.4376 -0.1896 -0.7020
 5210TIP3    H115552   7.857   3.254   0.598 -0.3625 -0.1572 -0.3568
 5210TIP3    H215553   7.852   3.404   0.577 -1.2107 -0.1335 -0.0166
 5211TIP3   OH215554   5.633   3.345   1.970 -0.0361 -0.1762  0.4229
 5211TIP3    H115555   5.573   3.353   2.044 -1.3311 -0.6523 -0.5745
 5211TIP3    H215556   5.714   3.312   2.009 -0.7832 -0.6514  1.5981
 5212TIP3   OH215557   8.415   5.920   1.156 -0.2743  0.5537  0.1148
 5212TIP3    H115558   8.493   5.864   1.156  0.2705  1.3000 -1.1372
 5212TIP3    H215559   8.396   5.933   1.249 -0.0904 -1.2532  0.4264
 5213TIP3   OH215560   5.573   2.539   0.661  0.3961 -0.2662  0.1482
 5213TIP3    H115561   5.638   2.476   0.691  0.2045 -0.4386  0.2043
 5213TIP3    H215562   5.573   2.607   0.728  2.2812  0.9835 -1.0766
 5214TIP3   OH215563   8.134   7.487   0.042  0.2592  0.2682 -0.3854
 5214TIP3    H115564   8.216   7.437   0.042  0.5870  0.8090 -0.9450
 5214TIP3    H215565   8.139   7.542  -0.036  0.3260  1.8970  0.7488
 5215TIP3   OH215566   6.258   8.380   3.494  0.2724  0.2490  0.0766
 5215TIP3    H115567   6.347   8.414   3.484  0.8111 -2.0441 -4.4696
 5215TIP3    H215568   6.271   8.289   3.522 -0.6728  0.0268 -0.2200
 5216TIP3   OH215569   6.392   7.630   2.612  0.3020 -0.2619 -0.6260
 5216TIP3    H115570   6.460   7.653   2.548  0.8657 -0.3247 -0.0514
 5216TIP3    H215571   6.440   7.599   2.688 -0.3730 -0.2220 -0.1791
 5217TIP3   OH215572   7.652   7.362   3.473 -0.4132  0.1412  0.2493
 5217TIP3    H115573   7.722   7.331   3.415 -0.1625 -1.9176  1.5911
 5217TIP3    H215574   7.677   7.452   3.495  0.6860  0.1498 -0.9921
 5218TIP3   OH215575   7.206   4.991   1.718  0.2284  0.3869  0.1915
 5218TIP3    H115576   7.266   5.026   1.652  0.8983 -1.4443 -0.1982
 5218TIP3    H215577   7.196   4.899   1.694 -1.8703  0.4173  0.9148
 5219TIP3   OH215578   6.765   5.266   1.970  0.4481 -0.1393  0.6189
 5219TIP3    H115579   6.838   5.319   1.939  0.1954  0.7779  1.5818
 5219TIP3    H215580   6.687   5.313   1.940  0.2326 -1.3679 -0.8335
 5220TIP3   OH215581   7.693   6.184   4.258 -0.6979 -0.7562 -0.6649
 5220TIP3    H115582   7.692   6.164   4.352 -1.4153 -0.0306 -0.5063
 5220TIP3    H215583   7.631   6.256   4.249 -2.3915 -2.3376 -2.0340
 5221TIP3   OH215584   8.587   6.714   2.618 -0.8304  0.3088  0.1320
 5221TIP3    H115585   8.518   6.667   2.665  0.4870 -2.0803 -0.2270
 5221TIP3    H215586   8.656   6.727   2.684  0.1611 -1.2142 -0.5735
 5222TIP3   OH215587   5.476   6.043   1.033  0.0672  0.3363 -0.7557
 5222TIP3    H115588   5.410   5.990   0.989 -1.5374  0.7618  1.0334
 5222TIP3    H215589   5.429   6.123   1.057  1.8597  1.6220 -1.4766
 5223TIP3   OH215590   6.844   4.794   1.398  0.4144 -0.5233  0.7944
 5223TIP3    H115591   6.784   4.763   1.467  0.5383 -0.0512  1.1123
 5223TIP3    H215592   6.826   4.736   1.324  0.9376 -1.6458  1.5194
 5224TIP3   OH215593   8.328   6.698   2.207 -0.1775 -0.0030 -0.4328
 5224TIP3    H115594   8.301   6.614   2.170 -1.6438  0.8519 -1.3281
 5224TIP3    H215595   8.320   6.686   2.302 -2.9047 -0.0736 -0.6302
 5225TIP3   OH215596   8.118   6.380   1.089 -0.1111 -0.1986  0.0133
 5225TIP3    H115597   8.201   6.356   1.131 -1.4214 -2.1812  1.5345
 5225TIP3    H215598   8.069   6.427   1.156 -0.9776 -0.6985 -0.2619
 5226TIP3   OH215599   6.840   5.826   1.433 -0.7327  0.1662  0.2816
 5226TIP3    H115600   6.858   5.895   1.369 -0.0600 -0.5365 -0.2902
 5226TIP3    H215601   6.925   5.809   1.474 -0.8948 -0.3217  0.4221
 5227TIP3   OH215602   6.508   5.922   1.525 -0.1606  0.2548 -0.2722
 5227TIP3    H115603   6.420   5.956   1.542  0.2485  0.8587  0.6524
 5227TIP3    H215604   6.492   5.837   1.483 -1.1945  0.1412  0.3187
 5228TIP3   OH215605   4.257   5.468   1.705 -0.6497  0.4988  0.1772
 5228TIP3    H115606   4.176   5.418   1.701 -0.2090 -0.1840 -0.3415
 5228TIP3    H215607   4.327   5.402   1.704 -0.0951  1.0598  1.1286
 5229TIP3   OH215608   6.550   7.080   1.387  0.0124 -0.1273  0.0896
 5229TIP3    H115609   6.520   7.139   1.456  0.1527 -1.8280  1.6610
 5229TIP3    H215610   6.499   7.000   1.399  1.9852 -1.4566 -0.0048
 5230TIP3   OH215611   6.951   6.236   1.964  0.3539  0.1876  0.2271
 5230TIP3    H115612   6.961   6.142   1.946  1.3830  0.6752 -1.9182
 5230TIP3    H215613   7.038   6.266   1.988 -0.0756  0.5177  1.4175
 5231TIP3   OH215614   7.092   6.088   1.024 -0.2231  0.1452  0.1313
 5231TIP3    H115615   7.108   5.993   1.018 -0.3425  0.1606 -0.4310
 5231TIP3    H215616   7.016   6.096   1.081 -0.6717 -0.1387 -0.4235
 5232TIP3   OH215617   6.709   4.724   2.581 -0.3915 -0.2413 -0.5679
 5232TIP3    H115618   6.666   4.809   2.591 -3.1422 -1.6357 -0.1115
 5232TIP3    H215619   6.753   4.710   2.665 -2.6099 -0.6597  0.5754
 5233TIP3   OH215620   6.813   6.014   0.523 -0.2012 -0.1137  0.4407
 5233TIP3    H115621   6.731   6.015   0.473 -0.0746 -0.5469  0.2225
 5233TIP3    H215622   6.807   5.935   0.577 -0.1032  0.0697  0.7213
 5234TIP3   OH215623   7.631   7.157   1.989  0.2325  0.1252  0.0209
 5234TIP3    H115624   7.603   7.201   2.069 -0.2116 -0.6247  0.2815
 5234TIP3    H215625   7.649   7.228   1.927 -1.0669  0.6468  0.2395
 5235TIP3   OH215626   5.973   6.828   1.782 -0.2337 -0.0557  0.4137
 5235TIP3    H115627   5.909   6.850   1.714 -0.5927 -0.7949  0.5112
 5235TIP3    H215628   6.038   6.897   1.776 -0.0764 -0.3091 -0.9292
 5236TIP3   OH215629   8.403   6.314   1.644 -0.0243 -0.0161 -0.0500
 5236TIP3    H115630   8.330   6.376   1.635  0.2474  0.2039 -0.8037
 5236TIP3    H215631   8.423   6.289   1.554  0.1817 -0.8374  0.2217
 5237TIP3   OH215632   7.905   3.409   2.965  0.2325 -0.0845 -0.0204
 5237TIP3    H115633   7.979   3.458   2.928 -0.0389 -1.6270 -2.7877
 5237TIP3    H215634   7.888   3.451   3.049  2.4818  2.0567 -0.5604
 5238TIP3   OH215635   6.928   6.468   1.750  0.1817  0.1917  0.2712
 5238TIP3    H115636   6.997   6.534   1.758  0.5107 -0.1310  0.1112
 5238TIP3    H215637   6.970   6.386   1.775 -1.0462  0.4944  3.5525
 5239TIP3   OH215638   6.001   7.325   1.980  0.1261 -0.4437 -0.4177
 5239TIP3    H115639   6.000   7.322   2.076  0.9214  0.6501 -0.3594
 5239TIP3    H215640   6.054   7.249   1.955  1.5113  0.3355  0.0910
 5240TIP3   OH215641   5.737   7.259   2.184  0.3569 -0.2275 -0.1729
 5240TIP3    H115642   5.713   7.314   2.109  0.5658  1.3711  0.9062
 5240TIP3    H215643   5.684   7.180   2.173 -1.8073  1.2016 -0.4606
 5241TIP3   OH215644   7.789   6.741   2.238 -0.3630 -0.1508  0.0692
 5241TIP3    H115645   7.856   6.786   2.187 -0.1027 -2.7720 -2.0434
 5241TIP3    H215646   7.707   6.781   2.211 -0.2005 -1.2956 -2.3022
 5242TIP3   OH215647   0.320   6.532   2.436  0.6114 -0.4966 -0.1890
 5242TIP3    H115648   0.233   6.526   2.476 -0.2909  0.8576 -1.8376
 5242TIP3    H215649   0.370   6.589   2.495 -0.1069 -0.0613  0.0100
 5243TIP3   OH215650   2.740   2.345   6.565 -0.1646  0.4007  0.0662
 5243TIP3    H115651   2.713   2.270   6.513 -1.2379  0.5601  0.3769
 5243TIP3    H215652   2.674   2.351   6.635  0.3863  1.1121  0.5393
 5244TIP3   OH215653   1.548   1.179   3.215 -0.1237  0.2216  0.1374
 5244TIP3    H115654   1.479   1.241   3.191  0.4480  0.8259  0.0287
 5244TIP3    H215655   1.551   1.182   3.311  1.6447  2.3306  0.0681
 5245TIP3   OH215656   7.600   6.227   1.010  0.2904 -0.2033 -0.2914
 5245TIP3    H115657   7.657   6.156   1.041 -0.0229 -0.5234 -0.4499
 5245TIP3    H215658   7.644   6.260   0.932 -1.2494 -2.4460 -2.1690
 5246TIP3   OH215659   7.187   6.327   3.330  0.1672 -0.4459 -0.4236
 5246TIP3    H115660   7.196   6.422   3.317  1.0562 -0.3810  0.5635
 5246TIP3    H215661   7.191   6.290   3.242 -0.1203  0.4332 -0.8101
 5247TIP3   OH215662   0.299   4.966   2.095  0.3495 -0.2305  0.0406
 5247TIP3    H115663   0.308   5.023   2.172 -1.0960 -0.1850  0.1822
 5247TIP3    H215664   0.354   5.008   2.029  0.5925  0.4415  0.6536
 5248TIP3   OH215665   7.545   6.035   2.245  0.1748 -0.2639 -0.1871
 5248TIP3    H115666   7.563   6.123   2.213 -0.5841 -0.1226 -0.2460
 5248TIP3    H215667   7.628   5.988   2.237 -0.3440 -0.6884 -3.8303
 5249TIP3   OH215668   5.823   6.063   2.969 -0.0521 -0.1727 -0.6572
 5249TIP3    H115669   5.849   5.971   2.967 -0.2841 -0.2716  0.6192
 5249TIP3    H215670   5.839   6.091   3.059 -2.8206  0.1992 -0.2159
 5250TIP3   OH215671   5.451   5.261   1.136 -0.2332 -0.2213  0.0192
 5250TIP3    H115672   5.480   5.221   1.219  2.8589 -0.1647 -0.9650
 5250TIP3    H215673   5.357   5.277   1.149  0.0571 -0.7135  3.3021
 5251TIP3   OH215674   7.462   5.420   3.917  0.2070  0.9378  0.2308
 5251TIP3    H115675   7.376   5.379   3.905  0.4401  0.0866  1.3646
 5251TIP3    H215676   7.455   5.465   4.001  1.1340  0.1847  0.7172
 5252TIP3   OH215677   7.057   7.148   2.461  0.3425  0.2032 -0.3876
 5252TIP3    H115678   7.054   7.211   2.533  1.1336  0.4515 -0.5625
 5252TIP3    H215679   7.040   7.064   2.502 -0.5020  0.5001 -0.1152
 5253TIP3   OH215680   0.921   7.452   3.920  0.4983  0.1712 -0.2853
 5253TIP3    H115681   0.885   7.409   3.997  0.1585  1.1154  0.0859
 5253TIP3    H215682   0.943   7.381   3.860 -0.3635 -0.4917  0.1934
 5254TIP3   OH215683   4.834   3.358   2.854  0.0004  0.3258  0.1621
 5254TIP3    H115684   4.739   3.369   2.858 -0.1612 -1.3694  1.8325
 5254TIP3    H215685   4.864   3.378   2.943  1.4889  2.9793 -0.8830
 5255TIP3   OH215686   1.167   2.570   6.597  0.0417 -0.1757  0.3729
 5255TIP3    H115687   1.207   2.484   6.581 -1.3617 -0.5334 -1.2242
 5255TIP3    H215688   1.230   2.632   6.561  1.4253 -0.4496  2.2059
 5256TIP3   OH215689   0.036   5.871   2.981  0.2156  0.2317 -0.0746
 5256TIP3    H115690   0.015   5.835   2.895 -0.3775  1.9822 -0.7000
 5256TIP3    H215691   0.085   5.952   2.960  1.0046  0.1025  1.2478
 5257TIP3   OH215692   6.237   4.608   2.638  0.3343  0.3204 -0.2112
 5257TIP3    H115693   6.270   4.585   2.552  1.5361  1.8932 -0.2019
 5257TIP3    H215694   6.164   4.548   2.654  1.4813 -1.4071 -1.3974
 5258TIP3   OH215695   7.311   6.261   2.724  0.1468 -0.0150 -0.6068
 5258TIP3    H115696   7.374   6.281   2.794  0.2574 -0.9425 -0.4395
 5258TIP3    H215697   7.241   6.212   2.768 -0.8279  1.2159 -0.7382
 5259TIP3   OH215698   8.540   4.156   0.977 -0.2871  0.5279  0.7768
 5259TIP3    H115699   8.469   4.092   0.983 -0.5188  0.5442 -1.4478
 5259TIP3    H215700   8.502   4.231   0.932  0.8197  1.0117  0.6256
 5260TIP3   OH215701   4.142   5.685   3.362  0.1927  0.0834  0.2133
 5260TIP3    H115702   4.188   5.678   3.279  1.1047  0.0191  0.7223
 5260TIP3    H215703   4.049   5.685   3.338  0.4525  0.1305 -0.8043
 5261TIP3   OH215704   1.616   1.483   0.306  0.3914  0.0046  0.1983
 5261TIP3    H115705   1.691   1.425   0.300 -1.4460 -2.2512 -4.3220
 5261TIP3    H215706   1.561   1.446   0.375  0.5884 -2.0110 -0.7086
 5262TIP3   OH215707   6.956   6.631   2.489 -0.2952  0.1025 -0.4896
 5262TIP3    H115708   6.927   6.717   2.519  0.9669  0.4081 -0.1325
 5262TIP3    H215709   6.998   6.591   2.565  2.1548  0.5393 -1.5534
 5263TIP3   OH215710   6.370   4.840   1.321 -0.1700  0.3773 -0.3768
 5263TIP3    H115711   6.444   4.811   1.375  1.6088  1.4685 -2.1783
 5263TIP3    H215712   6.399   4.827   1.231 -1.0210  3.5819 -1.1725
 5264TIP3   OH215713   7.296   7.121   0.939  0.1856  0.8081  0.0618
 5264TIP3    H115714   7.333   7.040   0.905  0.8494  1.5510 -1.0117
 5264TIP3    H215715   7.316   7.119   1.033 -1.1043 -0.9497  0.3137
 5265TIP3   OH215716   6.979   6.773   2.946 -0.1778  0.1302  0.5696
 5265TIP3    H115717   6.995   6.827   3.024  0.9010 -0.4155  0.7345
 5265TIP3    H215718   6.989   6.683   2.977 -0.1994 -0.0988 -0.0975
 5266TIP3   OH215719   7.570   7.329   0.300  0.1005 -0.7326 -0.2600
 5266TIP3    H115720   7.481   7.294   0.302 -0.0180 -0.3567  0.9729
 5266TIP3    H215721   7.576   7.372   0.214 -0.6993 -1.2600 -0.5944
 5267TIP3   OH215722   8.038   6.913   2.771 -0.4128  0.6479 -0.2870
 5267TIP3    H115723   7.986   6.991   2.750  0.1859  1.1860  0.2304
 5267TIP3    H215724   8.107   6.945   2.829 -1.3524 -0.6105  1.5638
 5268TIP3   OH215725   7.938   6.032   1.772  0.1630  0.3195 -0.0707
 5268TIP3    H115726   7.875   6.096   1.805  0.2973  1.9822 -2.8047
 5268TIP3    H215727   8.024   6.073   1.787  0.2475  0.8825 -1.9345
 5269TIP3   OH215728   6.194   6.470   1.365 -0.1898 -0.0165  0.3602
 5269TIP3    H115729   6.206   6.528   1.289  1.0678  0.0011  0.5569
 5269TIP3    H215730   6.110   6.426   1.349  0.3319 -0.4432 -1.3411
 5270TIP3   OH215731   5.838   6.623   1.553  0.3953 -0.3156  0.6852
 5270TIP3    H115732   5.832   6.643   1.460 -2.6472  2.1185  1.2917
 5270TIP3    H215733   5.817   6.529   1.559  0.4447 -0.4516 -1.0326
 5271TIP3   OH215734   6.486   6.869   0.138  0.0185 -0.3164  0.1477
 5271TIP3    H115735   6.487   6.812   0.062  1.1345 -0.8289  0.5260
 5271TIP3    H215736   6.466   6.956   0.104  1.4817 -0.3611 -0.8738
 5272TIP3   OH215737   5.982   5.345   3.427  0.0730  0.1727  0.0610
 5272TIP3    H115738   6.068   5.324   3.391 -0.6336 -2.1531 -0.3519
 5272TIP3    H215739   5.934   5.262   3.423 -1.9441  1.2789  0.9538
 5273TIP3   OH215740   7.102   4.357   2.088  0.6761 -0.4692  0.4556
 5273TIP3    H115741   7.183   4.323   2.126 -0.2738 -1.5955  1.5576
 5273TIP3    H215742   7.035   4.296   2.120 -0.8782  1.6205  1.2509
 5274TIP3   OH215743   6.835   6.044   1.207 -0.5933  0.2324  0.4917
 5274TIP3    H115744   6.814   5.970   1.149 -0.0306 -0.2791  0.9366
 5274TIP3    H215745   6.766   6.108   1.189 -1.3373 -0.5753  0.4161
 5275TIP3   OH215746   6.015   4.556   3.018  0.2435 -0.2571  0.1371
 5275TIP3    H115747   5.967   4.485   2.975  0.5532 -1.0347  1.0718
 5275TIP3    H215748   6.017   4.626   2.953 -2.5508 -0.0462  0.2188
 5276TIP3   OH215749   5.962   3.229   2.309 -0.0340  0.0859 -0.2636
 5276TIP3    H115750   6.054   3.227   2.282  0.4027  0.3899  1.1541
 5276TIP3    H215751   5.956   3.302   2.371 -0.9402 -0.7364  0.6438
 5277TIP3   OH215752   8.254   4.760   0.155 -0.2860  0.6459  0.4573
 5277TIP3    H115753   8.343   4.740   0.127 -0.4248  0.7278 -0.0455
 5277TIP3    H215754   8.201   4.689   0.119 -0.8079  1.9604 -1.4712
 5278TIP3   OH215755   8.000   4.141   2.970  0.4280  0.1636  0.1016
 5278TIP3    H115756   7.994   4.232   2.942 -1.6630 -0.0341 -0.1907
 5278TIP3    H215757   8.033   4.145   3.060 -1.6605  1.3501  0.8432
 5279TIP3   OH215758   4.196   1.377   5.430  0.3220  0.7407 -0.0129
 5279TIP3    H115759   4.139   1.354   5.357 -0.4323 -0.5418  0.9489
 5279TIP3    H215760   4.220   1.293   5.469 -1.9427  1.4429  3.1682
 5280TIP3   OH215761   4.609   7.451   0.037  0.4875 -0.8179 -0.3026
 5280TIP3    H115762   4.631   7.540   0.013  0.2186 -1.1751 -1.8852
 5280TIP3    H215763   4.514   7.452   0.051  0.8751 -0.1572  2.8135
 5281TIP3   OH215764   6.876   4.877   0.332  0.2011 -0.0369  0.0124
 5281TIP3    H115765   6.935   4.810   0.298 -0.0470  0.6397 -1.7936
 5281TIP3    H215766   6.934   4.940   0.374  0.5942 -0.3866  0.0024
 5282TIP3   OH215767   5.666   5.273   0.958 -0.2583  0.2161  0.4499
 5282TIP3    H115768   5.584   5.260   1.005 -0.0485 -2.4131  0.1953
 5282TIP3    H215769   5.640   5.287   0.867 -0.4858  1.0257  0.6386
 5283TIP3   OH215770   6.171   5.709   4.140 -0.6342 -0.2602  0.2588
 5283TIP3    H115771   6.224   5.785   4.115 -1.2109 -0.0811 -0.4589
 5283TIP3    H215772   6.193   5.642   4.075  0.4057 -0.9508  1.3203
 5284TIP3   OH215773   6.734   6.522   2.629  0.3491  0.3336 -0.0758
 5284TIP3    H115774   6.787   6.522   2.550  1.2110  1.5083  0.4876
 5284TIP3    H215775   6.735   6.613   2.659  0.1207 -0.1090  1.3276
 5285TIP3   OH215776   1.086   5.724   3.804 -0.4880 -0.4727  0.2559
 5285TIP3    H115777   1.137   5.749   3.882  0.3777 -0.9073 -0.1721
 5285TIP3    H215778   1.074   5.806   3.756 -1.6533 -0.0668  1.2060
 5286TIP3   OH215779   6.470   7.761   3.381  0.4943 -0.3993 -0.2577
 5286TIP3    H115780   6.451   7.790   3.470  1.7773 -0.3140 -0.0026
 5286TIP3    H215781   6.396   7.705   3.357  0.2011 -0.5133  0.8988
 5287TIP3   OH215782   0.258   5.301   2.589  0.1613  0.2522 -0.4616
 5287TIP3    H115783   0.286   5.292   2.680 -2.2562 -0.5166  0.2486
 5287TIP3    H215784   0.230   5.213   2.563  0.4589  0.5431 -1.8355
 5288TIP3   OH215785   8.015   5.187   0.846  0.3067 -0.1814  0.5359
 5288TIP3    H115786   7.931   5.224   0.871  0.3127  0.5165 -0.4353
 5288TIP3    H215787   8.079   5.250   0.877  0.3320  0.5057 -0.8933
 5289TIP3   OH215788   3.309   0.730   7.063 -0.0042 -0.5745  0.0210
 5289TIP3    H115789   3.230   0.746   7.113  0.7727 -0.1516  1.1232
 5289TIP3    H215790   3.279   0.722   6.972 -0.9682  2.5540 -0.0008
 5290TIP3   OH215791   5.880   5.983   0.114  0.2772 -0.5654  0.3398
 5290TIP3    H115792   5.828   6.039   0.056  0.5965 -0.4121  0.2048
 5290TIP3    H215793   5.931   6.044   0.167  0.0738 -0.7078  0.7031
 5291TIP3   OH215794   7.845   3.190   1.592 -0.4816  0.4997 -0.3167
 5291TIP3    H115795   7.878   3.262   1.539 -0.5037 -0.3854 -1.5474
 5291TIP3    H215796   7.820   3.231   1.675  0.5263  1.7216 -0.6015
 5292TIP3   OH215797   0.199   5.347   4.430  0.0240 -0.2812  0.0659
 5292TIP3    H115798   0.141   5.292   4.377 -0.4910 -0.9326  1.2806
 5292TIP3    H215799   0.282   5.301   4.430  0.1430 -0.0714 -0.5043
 5293TIP3   OH215800   0.789   7.228   1.499  0.0270 -0.5524  0.2081
 5293TIP3    H115801   0.833   7.264   1.422 -1.6583  0.1341 -0.4560
 5293TIP3    H215802   0.791   7.299   1.563 -2.4194  0.4637 -0.7580
 5294TIP3   OH215803   0.058   4.999   1.939  0.3971 -0.2005  0.3465
 5294TIP3    H115804   0.143   4.999   1.982 -0.7525 -1.4149  2.7607
 5294TIP3    H215805   0.042   4.907   1.918 -0.6868 -0.1266  0.7736
 5295TIP3   OH215806   6.667   6.579   1.818  0.1250  0.6266 -0.1839
 5295TIP3    H115807   6.760   6.600   1.825  0.1727  0.8415 -1.2885
 5295TIP3    H215808   6.657   6.544   1.729 -0.4842 -1.3239  0.6427
 5296TIP3   OH215809   8.514   8.339   1.733  0.4812 -0.2730  0.1517
 5296TIP3    H115810   8.457   8.382   1.670  0.3339 -2.2363 -1.0927
 5296TIP3    H215811   8.487   8.375   1.818 -0.9685  0.5777 -0.6476
 5297TIP3   OH215812   6.052   1.939   6.388  0.4232 -0.4729  0.5048
 5297TIP3    H115813   6.120   2.003   6.413  1.5895 -1.0436 -1.1274
 5297TIP3    H215814   6.101   1.865   6.353 -1.0115 -1.5148  0.6694
 5298TIP3   OH215815   0.523   5.789   2.389 -0.9408 -0.2510  0.4335
 5298TIP3    H115816   0.508   5.746   2.474  0.4527 -0.0904  0.7719
 5298TIP3    H215817   0.615   5.817   2.392 -1.1376  0.5588 -0.7751
 5299TIP3   OH215818   8.750   7.239   0.758 -0.6185 -0.0882 -0.2943
 5299TIP3    H115819   8.842   7.212   0.753 -1.1996 -1.8475 -1.7966
 5299TIP3    H215820   8.724   7.251   0.667 -1.6240  1.3974  0.1687
 5300TIP3   OH215821   6.184   6.791   2.650  0.1947  0.0795  0.2508
 5300TIP3    H115822   6.187   6.771   2.744  0.5226 -0.1623  0.1889
 5300TIP3    H215823   6.150   6.710   2.610 -4.2519  1.6319  0.6003
 5301TIP3   OH215824   8.401   3.827   2.651  0.0819  0.6629 -0.4026
 5301TIP3    H115825   8.452   3.885   2.708 -0.8941  0.8575  0.2826
 5301TIP3    H215826   8.392   3.746   2.700 -2.4153  1.4909  0.5702
 5302TIP3   OH215827   7.957   6.205   2.388  0.9188 -0.3307  0.6329
 5302TIP3    H115828   8.043   6.217   2.428  1.0226  0.7143  0.1015
 5302TIP3    H215829   7.915   6.138   2.442  0.9490  1.2490  2.6623
 5303TIP3   OH215830   8.223   6.051   1.843  0.0529 -0.3595  0.5979
 5303TIP3    H115831   8.192   6.139   1.865 -1.3146  0.0479 -2.6856
 5303TIP3    H215832   8.299   6.038   1.900 -0.3809  2.4860  1.9480
 5304TIP3   OH215833   0.719   3.650   0.737  0.4948 -0.3510  0.2233
 5304TIP3    H115834   0.650   3.645   0.670  2.5101 -0.3975 -1.8968
 5304TIP3    H215835   0.706   3.735   0.778  0.2160  0.3991 -1.3562
 5305TIP3   OH215836   0.387   6.757   0.643  0.3643  0.1367 -0.5451
 5305TIP3    H115837   0.325   6.780   0.573 -1.6599 -1.5065  0.6493
 5305TIP3    H215838   0.359   6.811   0.717  0.1811 -0.7951  0.0731
 5306TIP3   OH215839   7.975   5.601   1.905  0.2072 -0.1564 -0.3661
 5306TIP3    H115840   8.036   5.666   1.870 -2.2454  1.5036 -1.7237
 5306TIP3    H215841   7.974   5.617   1.999  2.5634 -0.8637 -0.1899
 5307TIP3   OH215842   8.676   5.673   2.362  0.0061 -0.2250 -0.2399
 5307TIP3    H115843   8.700   5.630   2.444 -3.3274 -2.2076 -0.2105
 5307TIP3    H215844   8.671   5.766   2.384  1.4924 -0.4480  1.1742
 5308TIP3   OH215845   7.982   7.887   1.516  0.3162 -0.2269 -0.4529
 5308TIP3    H115846   7.941   7.804   1.541 -0.7401 -0.0773 -1.6515
 5308TIP3    H215847   8.076   7.871   1.523  0.1026 -1.2832  0.0724
 5309TIP3   OH215848   8.336   6.546   2.699 -0.4425 -0.2860 -0.0504
 5309TIP3    H115849   8.262   6.571   2.754  0.3775 -0.5560  1.1888
 5309TIP3    H215850   8.304   6.558   2.609 -1.4585  1.1068  0.4786
 5310TIP3   OH215851   4.524   1.646   3.592 -0.3837  0.1086 -0.2983
 5310TIP3    H115852   4.497   1.557   3.572 -1.6385  0.5339 -0.5751
 5310TIP3    H215853   4.550   1.683   3.508  1.3685 -0.3747  0.0018
 5311TIP3   OH215854   8.671   7.307   1.343  0.2563  0.4521 -0.8535
 5311TIP3    H115855   8.696   7.377   1.283  2.2504  1.3464  0.9347
 5311TIP3    H215856   8.719   7.326   1.423 -2.0545 -0.9151  0.9276
 5312TIP3   OH215857   8.252   5.711   2.756  0.6297 -0.4455  0.3960
 5312TIP3    H115858   8.291   5.625   2.739  1.4863 -0.3227  1.6817
 5312TIP3    H215859   8.209   5.702   2.841 -0.4023  0.0270 -0.0642
 5313TIP3   OH215860   8.778   5.480   0.633 -0.2756 -0.1839  0.0658
 5313TIP3    H115861   8.793   5.487   0.727 -0.0227 -0.2075  0.0260
 5313TIP3    H215862   8.688   5.511   0.621 -0.0509  0.5281  0.2225
 5314TIP3   OH215863   0.551   8.391   3.996 -0.3467  0.7246 -0.3636
 5314TIP3    H115864   0.480   8.328   3.984 -0.9838  1.3066  0.2749
 5314TIP3    H215865   0.541   8.421   4.087  2.4494 -1.3034  0.6589
 5315TIP3   OH215866   8.033   8.029   2.519  0.3715  0.5052 -0.3702
 5315TIP3    H115867   8.102   8.016   2.454  0.2398  3.5997 -1.2160
 5315TIP3    H215868   7.955   8.050   2.468 -0.5373 -0.1940  0.6912
 5316TIP3   OH215869   0.338   7.751   2.136  0.3218 -0.4924 -0.5226
 5316TIP3    H115870   0.320   7.783   2.224  0.7406 -0.5424 -0.4155
 5316TIP3    H215871   0.253   7.721   2.103  0.6167 -3.1563  0.9519
 5317TIP3   OH215872   3.302   1.219   0.976 -0.6634 -0.2813 -0.7431
 5317TIP3    H115873   3.216   1.259   0.964 -0.4644 -0.0687 -1.4999
 5317TIP3    H215874   3.364   1.289   0.958 -0.3372 -0.3674  0.0626
 5318TIP3   OH215875   3.240   1.216   5.233  0.6289  0.2857  0.3415
 5318TIP3    H115876   3.269   1.226   5.324  1.0394 -0.9812  0.3597
 5318TIP3    H215877   3.193   1.297   5.214 -2.7900 -0.9322  2.9275
 5319TIP3   OH215878   0.257   7.900   3.312 -0.2218 -0.0789  0.1266
 5319TIP3    H115879   0.332   7.958   3.321  0.4092 -0.8284 -0.1830
 5319TIP3    H215880   0.295   7.812   3.312 -0.9461 -0.4193 -1.5370
 5320TIP3   OH215881   7.276   7.239   1.970 -0.2799 -0.0460  0.4109
 5320TIP3    H115882   7.217   7.194   1.909 -0.2748 -0.5429  0.7656
 5320TIP3    H215883   7.338   7.286   1.913 -2.0366  1.8771  0.0310
 5321TIP3   OH215884   4.296   0.667   4.352  0.3093 -0.3819 -0.2563
 5321TIP3    H115885   4.205   0.657   4.324 -0.3841  0.0490  1.7641
 5321TIP3    H215886   4.315   0.760   4.339  0.2966 -0.3720 -0.2035
 5322TIP3   OH215887   8.497   7.539   0.218  0.4076  0.1257  0.2668
 5322TIP3    H115888   8.501   7.590   0.137  1.4966 -0.4202 -0.0344
 5322TIP3    H215889   8.438   7.466   0.198 -0.6963  0.9486  0.5153
 5323TIP3   OH215890   7.298   6.433   2.277  0.0352 -0.9607 -0.1338
 5323TIP3    H115891   7.343   6.420   2.361 -1.1118 -0.4841  0.5625
 5323TIP3    H215892   7.314   6.524   2.255 -1.5867 -0.4402  0.7311
 5324TIP3   OH215893   4.080   0.684   3.986  0.1805 -0.3030 -0.0292
 5324TIP3    H115894   4.068   0.596   4.022  1.9490  0.1468  1.7386
 5324TIP3    H215895   3.993   0.709   3.954 -0.2871 -2.7686 -0.7862
 5325TIP3   OH215896   0.786   7.717   4.915  0.5552  0.0612 -0.1810
 5325TIP3    H115897   0.795   7.760   5.000  2.2627  0.4205 -0.5169
 5325TIP3    H215898   0.813   7.626   4.931  1.6380  0.3152 -0.4747
 5326TIP3   OH215899   0.760   8.392   1.031  0.0210  0.2508  0.2237
 5326TIP3    H115900   0.841   8.352   1.061 -1.4086 -2.6915  0.2947
 5326TIP3    H215901   0.769   8.398   0.936  0.0082 -0.8249  0.1509
 5327TIP3   OH215902   8.440   6.859   1.794  0.1141 -0.2200  0.1349
 5327TIP3    H115903   8.405   6.917   1.862  0.9587 -1.8724  2.0629
 5327TIP3    H215904   8.429   6.771   1.831  2.8944 -1.0026 -0.7760
 5328TIP3   OH215905   4.788   0.603   3.764  0.1287 -0.1813  0.1458
 5328TIP3    H115906   4.805   0.510   3.748  0.0036 -0.3808  1.1510
 5328TIP3    H215907   4.731   0.629   3.692 -0.1416 -0.9825  0.0649
 5329TIP3   OH215908   2.278   8.051   2.286  0.2093 -0.4976  0.2011
 5329TIP3    H115909   2.223   8.127   2.306  2.3005  0.7797  1.3499
 5329TIP3    H215910   2.331   8.078   2.211 -0.0169 -1.3366 -0.2672
 5330TIP3   OH215911   7.572   6.511   4.104  0.3247 -0.8036  0.2937
 5330TIP3    H115912   7.476   6.507   4.111  0.1958  0.1173 -0.8424
 5330TIP3    H215913   7.594   6.448   4.035  0.4538 -0.3211 -0.1064
 5331TIP3   OH215914   2.014   1.370   2.110  0.2028 -0.3990 -0.2625
 5331TIP3    H115915   2.040   1.359   2.019  1.9926 -0.5619  0.2438
 5331TIP3    H215916   2.063   1.446   2.140 -1.9050  0.8924  0.0283
 5332TIP3   OH215917   7.714   7.565   2.685  0.0241 -0.1420 -0.0360
 5332TIP3    H115918   7.801   7.605   2.689 -0.4784  0.7556  2.8765
 5332TIP3    H215919   7.654   7.639   2.687 -0.8596 -0.8392 -0.3470
 5333TIP3   OH215920   1.616   7.152   4.035 -0.2256 -0.5064 -0.7312
 5333TIP3    H115921   1.537   7.106   4.064  0.4529 -0.7853  0.7271
 5333TIP3    H215922   1.613   7.236   4.081  0.5490 -0.7029 -0.3086
 5334TIP3   OH215923   8.082   6.791   4.538  0.3319  0.3665  0.3023
 5334TIP3    H115924   7.997   6.805   4.495  0.8192 -0.6853 -1.0348
 5334TIP3    H215925   8.066   6.720   4.601  0.2154  0.1873  0.0701
 5335TIP3   OH215926   0.869   6.780   4.725 -0.7966 -0.0949 -0.1127
 5335TIP3    H115927   0.867   6.853   4.663  1.4205 -0.2352 -0.4078
 5335TIP3    H215928   0.835   6.706   4.674 -0.3418  0.1055 -0.7180
 5336TIP3   OH215929   8.374   4.801   2.585  0.1661 -0.4039 -0.4539
 5336TIP3    H115930   8.313   4.736   2.550 -2.4842  0.1377  2.8869
 5336TIP3    H215931   8.318   4.876   2.608  2.3099  0.7212  1.2506
 5337TIP3   OH215932   0.757   7.279   2.837 -0.8128 -0.1343  0.4151
 5337TIP3    H115933   0.809   7.336   2.780  0.5420 -0.8159  0.9404
 5337TIP3    H215934   0.790   7.296   2.925 -0.4773 -1.6171  0.5967
 5338TIP3   OH215935   1.642   8.175   3.324  0.4714  0.6752  0.5329
 5338TIP3    H115936   1.618   8.145   3.411  2.6150  1.2864  1.3579
 5338TIP3    H215937   1.725   8.132   3.305 -0.7317 -0.6610 -1.8725
 5339TIP3   OH215938   8.712   7.945   3.539 -0.8964 -0.0722 -0.2338
 5339TIP3    H115939   8.742   7.978   3.454  3.8739 -2.3273  0.3642
 5339TIP3    H215940   8.705   7.850   3.527 -0.6228 -0.3774  1.7383
 5340TIP3   OH215941   8.500   5.445   3.751 -0.0543  0.5396  0.1491
 5340TIP3    H115942   8.526   5.517   3.809  0.4998  0.3100  0.1900
 5340TIP3    H215943   8.508   5.366   3.805 -1.3996  0.5149  0.3362
 5341TIP3   OH215944   0.237   6.506   4.381 -0.0880 -0.1944 -0.3322
 5341TIP3    H115945   0.155   6.513   4.332  0.2692 -0.9957 -1.0536
 5341TIP3    H215946   0.305   6.525   4.316  0.3836 -1.1708 -0.1226
 5342TIP3   OH215947   3.301   0.602   2.526 -0.1776  0.0145 -0.0763
 5342TIP3    H115948   3.295   0.603   2.430  2.5999 -1.4731 -0.3374
 5342TIP3    H215949   3.333   0.514   2.547 -1.6193  0.0017  2.3158
 5343TIP3   OH215950   5.356   0.264   3.545 -0.0386  0.4546 -0.3531
 5343TIP3    H115951   5.311   0.243   3.463 -0.2688 -1.0971  0.1405
 5343TIP3    H215952   5.420   0.193   3.555  1.6931  1.9808 -0.4300
 5344TIP3   OH215953   1.639   8.057   2.451 -0.0134  0.2097 -0.9410
 5344TIP3    H115954   1.662   8.049   2.543  1.5275 -0.0164 -1.3340
 5344TIP3    H215955   1.631   7.967   2.420  1.3701  0.2646 -1.4814
 5345TIP3   OH215956   4.595   0.335   3.011 -0.0387 -0.1102 -0.2702
 5345TIP3    H115957   4.666   0.294   3.059  0.1234  0.7004  0.2016
 5345TIP3    H215958   4.520   0.277   3.025 -0.1479  0.4127  1.4701
 5346TIP3   OH215959   4.441   2.240   2.176 -0.6709 -0.2329 -0.0265
 5346TIP3    H115960   4.364   2.295   2.168 -0.8700 -0.3553  0.9432
 5346TIP3    H215961   4.514   2.301   2.189 -0.3784 -0.0456 -2.3190
 5347TIP3   OH215962   3.280   0.226   3.945  0.5985  0.3123  0.3673
 5347TIP3    H115963   3.209   0.288   3.957  0.6303  0.2014  1.1906
 5347TIP3    H215964   3.260   0.155   4.006 -0.7088 -1.6437 -2.2835
 5348TIP3   OH215965   8.025   7.102   1.478  0.2864  0.7531  0.3820
 5348TIP3    H115966   7.963   7.106   1.405  0.9812  0.7005 -0.2139
 5348TIP3    H215967   8.018   7.187   1.521 -0.7820  0.4667  0.8099
 5349TIP3   OH215968   1.719   7.598   1.748  0.0159 -0.1848 -0.4429
 5349TIP3    H115969   1.811   7.621   1.734 -0.2081  0.2630 -1.2125
 5349TIP3    H215970   1.696   7.544   1.673 -0.0829 -1.0975  0.2390
 5350TIP3   OH215971   3.593   7.406   0.075  0.1404 -0.2018  0.4610
 5350TIP3    H115972   3.606   7.401  -0.020 -0.9672  1.5654  0.2008
 5350TIP3    H215973   3.525   7.341   0.094 -1.6400  1.3812 -0.3668
 5351TIP3   OH215974   1.857   8.229   2.820 -0.0614 -0.1528  0.1551
 5351TIP3    H115975   1.888   8.318   2.802 -1.4587  0.5751  1.2505
 5351TIP3    H215976   1.931   8.188   2.866  2.3166 -1.0408 -4.1940
 5352TIP3   OH215977   8.844   7.354   3.898 -0.2982  0.0888 -0.1736
 5352TIP3    H115978   8.784   7.380   3.969  1.8215  0.3834  1.5606
 5352TIP3    H215979   8.849   7.259   3.904 -0.5361  0.0701 -0.2709
 5353TIP3   OH215980   0.517   6.500   2.825  0.3626  0.0952  0.5326
 5353TIP3    H115981   0.561   6.417   2.845  0.7345  0.2569  0.3895
 5353TIP3    H215982   0.588   6.560   2.802  0.0031  0.1397 -0.4670
 5354TIP3   OH215983   3.242   0.100   0.363  0.1090 -0.3592  0.3990
 5354TIP3    H115984   3.287   0.032   0.413  0.4614 -1.4592 -1.3298
 5354TIP3    H215985   3.306   0.128   0.298 -0.5030  0.6468  0.2186
 5355TIP3   OH215986   0.036   5.505   2.609  0.7270 -0.1484  0.1284
 5355TIP3    H115987   0.101   5.435   2.614  0.6380 -0.4175 -1.8506
 5355TIP3    H215988  -0.047   5.460   2.591  0.2010  0.2799  1.4168
 5356TIP3   OH215989   1.281   7.332   0.480 -0.2661 -0.3119  0.6517
 5356TIP3    H115990   1.343   7.275   0.526 -3.4436 -2.4409  2.4424
 5356TIP3    H215991   1.265   7.288   0.396  0.9717  0.4883 -0.0165
 5357TIP3   OH215992   4.158   0.765   2.052  0.1387 -0.1496  0.3522
 5357TIP3    H115993   4.199   0.851   2.045  0.8914 -0.4212  1.1613
 5357TIP3    H215994   4.137   0.756   2.145 -0.9910 -0.3670  0.0791
 5358TIP3   OH215995   7.653   2.250   5.989  0.0056  0.3008 -0.4588
 5358TIP3    H115996   7.570   2.204   5.982  0.0345  0.3704 -1.3303
 5358TIP3    H215997   7.692   2.244   5.902  0.8485  0.3971 -0.1025
 5359TIP3   OH215998   5.351   0.788   2.951  0.6895  0.4804  0.3507
 5359TIP3    H115999   5.345   0.794   3.047  1.1744 -2.0167  0.5635
 5359TIP3    H216000   5.260   0.793   2.922  0.3513 -0.9762  1.1102
 5360TIP3   OH216001   7.916   5.575   3.236  0.3037 -0.0722  0.5976
 5360TIP3    H116002   7.902   5.669   3.252  1.6554  0.1731  0.3564
 5360TIP3    H216003   7.846   5.552   3.174  1.1722  1.2535 -0.9438
 5361TIP3   OH216004   3.741   1.653   2.908 -0.6817 -0.5115 -0.2254
 5361TIP3    H116005   3.761   1.587   2.973  0.4494  0.2304  0.2080
 5361TIP3    H216006   3.661   1.695   2.939 -0.5920 -0.7028  0.2644
 5362TIP3   OH216007   2.529   7.783   1.542 -0.3871  0.2897  0.1732
 5362TIP3    H116008   2.549   7.872   1.513  1.8676  0.0992  1.0998
 5362TIP3    H216009   2.433   7.779   1.542 -0.4920  2.2294 -1.3167
 5363TIP3   OH216010   0.836   7.328   5.130  0.1050  0.3473  0.2116
 5363TIP3    H116011   0.839   7.343   5.035 -0.7049  1.1610  0.3132
 5363TIP3    H216012   0.795   7.243   5.139 -1.2301  0.9382 -0.1215
 5364TIP3   OH216013   4.151   5.945   2.745  0.2574 -0.1696 -0.3942
 5364TIP3    H116014   4.122   5.977   2.830  1.1829  0.4530 -0.3074
 5364TIP3    H216015   4.095   5.870   2.727  0.2623 -0.4949  0.9058
 5365TIP3   OH216016   1.010   7.156   0.868 -0.5681  0.2826 -0.0412
 5365TIP3    H116017   0.949   7.123   0.802 -1.3867 -1.0989  1.3735
 5365TIP3    H216018   1.067   7.216   0.820 -2.5033  0.9488 -1.5622
 5366TIP3   OH216019   6.330   5.072   6.963 -0.2918  0.0211  0.1997
 5366TIP3    H116020   6.329   5.022   6.881 -1.9063 -0.1949  0.3232
 5366TIP3    H216021   6.339   5.005   7.031  1.6447  0.2509  0.1765
 5367TIP3   OH216022   2.621   8.063   4.639  0.7330 -0.0857 -0.4494
 5367TIP3    H116023   2.681   8.137   4.634  1.6928 -0.8660 -0.5528
 5367TIP3    H216024   2.547   8.089   4.585 -0.0702  1.8204  1.4991
 5368TIP3   OH216025   8.784   7.674   3.583 -0.3181 -0.1256  0.9465
 5368TIP3    H116026   8.834   7.634   3.654  0.7748 -1.0430 -0.3069
 5368TIP3    H216027   8.850   7.698   3.518 -1.0627  2.7225  1.1633
 5369TIP3   OH216028   7.717   6.842   2.599 -0.4406 -0.2787 -0.0954
 5369TIP3    H116029   7.784   6.889   2.551 -0.0129 -1.9117 -1.1398
 5369TIP3    H216030   7.696   6.899   2.673 -0.2616  1.7314 -1.5500
 5370TIP3   OH216031   1.749   7.936   1.462 -0.4134 -0.4689  0.3165
 5370TIP3    H116032   1.824   7.934   1.402 -0.5412  1.0171  0.0991
 5370TIP3    H216033   1.789   7.934   1.549 -0.0313  1.6455  0.2266
 5371TIP3   OH216034   2.285   7.267   1.212 -0.0790 -0.1388  0.4287
 5371TIP3    H116035   2.253   7.193   1.264  0.0603 -0.6113 -0.1609
 5371TIP3    H216036   2.372   7.241   1.184  0.0673  0.3554  0.4310
 5372TIP3   OH216037   8.097   7.341   2.010  0.2242  0.3964 -0.1398
 5372TIP3    H116038   8.163   7.297   1.958  1.2505 -0.2761  1.6895
 5372TIP3    H216039   8.017   7.337   1.957  0.9124 -1.4475 -1.0601
 5373TIP3   OH216040   1.856   8.031   3.254 -0.0373 -0.2913  0.5141
 5373TIP3    H116041   1.830   8.059   3.166  0.2943  0.7667  0.7529
 5373TIP3    H216042   1.920   7.962   3.238  0.2919  0.1435 -0.0781
 5374TIP3   OH216043   8.066   8.086   1.987 -0.1103 -0.1256  0.5964
 5374TIP3    H116044   8.124   8.145   2.035 -0.1528 -0.0079  0.5043
 5374TIP3    H216045   7.987   8.137   1.972 -0.0972 -0.1622  0.4040
 5375TIP3   OH216046   6.093   0.287   3.740 -0.1479 -0.1642  0.5301
 5375TIP3    H116047   6.037   0.212   3.721 -2.3815  1.4131  0.7577
 5375TIP3    H216048   6.062   0.321   3.824  0.6081  1.2044  0.2800
 5376TIP3   OH216049   3.893   0.357   1.021  0.0370  0.6455 -0.2729
 5376TIP3    H116050   3.924   0.320   0.939  2.9670  2.0024  0.1490
 5376TIP3    H216051   3.801   0.379   1.005 -0.1698 -1.5238 -2.2915
 5377TIP3   OH216052   2.337   7.869   2.517  0.2872  0.0056 -0.3637
 5377TIP3    H116053   2.278   7.901   2.449 -0.3117  1.1833  0.6767
 5377TIP3    H216054   2.294   7.790   2.550 -1.7712  1.9112  1.7151
 5378TIP3   OH216055   8.916   7.743   0.933 -0.3332 -0.1992 -0.2888
 5378TIP3    H116056   8.859   7.679   0.976  0.0630  0.2626  0.9374
 5378TIP3    H216057   8.880   7.828   0.958  0.3511  0.0836 -0.2603
 5379TIP3   OH216058   5.324   2.166   4.101  0.1361  0.2218 -0.1312
 5379TIP3    H116059   5.305   2.201   4.014 -1.2342  0.0903  0.1031
 5379TIP3    H216060   5.389   2.226   4.137  1.5164 -0.3258 -1.6485
 5380TIP3   OH216061   8.703   7.743   2.011  0.5734  0.5143 -0.2372
 5380TIP3    H116062   8.615   7.752   2.048  0.3600  1.7159 -1.0031
 5380TIP3    H216063   8.690   7.695   1.930  0.6574  0.4868 -0.2340
 5381TIP3   OH216064   2.150   7.829   2.180  0.0780 -0.1143  0.1620
 5381TIP3    H116065   2.181   7.903   2.233 -0.8210  0.5232 -0.1929
 5381TIP3    H216066   2.230   7.786   2.150  0.6070 -0.5813  2.1560
 5382TIP3   OH216067   7.236   7.550   2.665 -0.8713 -0.0990  0.3521
 5382TIP3    H116068   7.327   7.563   2.639 -1.4344  0.0031 -1.7065
 5382TIP3    H216069   7.213   7.463   2.631 -1.1563 -0.6909  2.0261
 5383TIP3   OH216070   8.854   7.962   2.592  0.4175  0.1809  0.3624
 5383TIP3    H116071   8.782   7.989   2.535  0.1311 -0.6566  0.3300
 5383TIP3    H216072   8.867   8.037   2.651 -0.8371  0.1212  0.7162
 5384TIP3   OH216073   2.727   5.373   0.460 -0.2417 -0.4042  0.1201
 5384TIP3    H116074   2.710   5.356   0.367  0.0350 -1.2206  0.2122
 5384TIP3    H216075   2.709   5.290   0.503 -1.1310  0.1929  0.9129
 5385TIP3   OH216076   3.209   1.274   1.351 -0.5191 -0.0199 -0.6084
 5385TIP3    H116077   3.246   1.186   1.348  1.5438  0.7407  0.9431
 5385TIP3    H216078   3.278   1.330   1.316 -0.6717  1.2963  1.1112
 5386TIP3   OH216079   3.817   0.422   3.364  0.1979  0.4616  0.1467
 5386TIP3    H116080   3.816   0.341   3.415  0.3504  1.2538  1.4278
 5386TIP3    H216081   3.898   0.417   3.312  1.2634  0.7239  1.7590
 5387TIP3   OH216082   2.250   8.302   3.757  0.3671  0.5584 -0.7330
 5387TIP3    H116083   2.325   8.354   3.728  1.2876  0.8155  2.0242
 5387TIP3    H216084   2.285   8.215   3.772 -0.3337  0.1561 -1.3574
 5388TIP3   OH216085   2.830   7.605   3.504  0.2477  0.4324 -0.0010
 5388TIP3    H116086   2.838   7.671   3.435 -0.8539 -0.1082 -0.6551
 5388TIP3    H216087   2.917   7.564   3.509  0.6830  1.3175 -0.1989
 5389TIP3   OH216088   1.996   7.012   2.000  0.1050 -0.1615  0.5355
 5389TIP3    H116089   2.024   7.100   1.978 -1.1739  0.4519  1.2906
 5389TIP3    H216090   1.904   7.009   1.975 -0.0772 -1.0025  1.2745
 5390TIP3   OH216091   2.455   7.425   2.288  0.6489 -0.3770 -0.4900
 5390TIP3    H116092   2.431   7.385   2.372  1.0456  0.1384 -0.1237
 5390TIP3    H216093   2.546   7.453   2.300  0.5824  0.0466 -0.9541
 5391TIP3   OH216094   3.048   2.074   2.585 -0.1304  0.3923 -0.6168
 5391TIP3    H116095   2.972   2.080   2.528  0.7653 -0.7690 -1.9736
 5391TIP3    H216096   3.026   2.130   2.660 -2.8306 -0.9346 -0.3588
 5392TIP3   OH216097   0.677   7.426   1.833  0.2242 -0.0105 -0.2018
 5392TIP3    H116098   0.594   7.458   1.799  0.4654 -1.0586 -1.8430
 5392TIP3    H216099   0.656   7.341   1.872  0.8175 -1.2016 -2.3664
 5393TIP3   OH216100   8.397   6.319   3.411  0.1044 -0.3956 -0.1488
 5393TIP3    H116101   8.377   6.282   3.325  0.9130 -0.9484 -0.1063
 5393TIP3    H216102   8.449   6.252   3.455  1.4382  0.7104 -0.0075
 5394TIP3   OH216103   2.936   8.305   2.436 -0.0652  0.0368  0.1721
 5394TIP3    H116104   2.996   8.233   2.459  0.2655  0.3239  0.2148
 5394TIP3    H216105   2.850   8.263   2.430  0.1363 -0.3805  0.1232
 5395TIP3   OH216106   5.362   3.972   6.700 -0.1804  0.2771 -0.0750
 5395TIP3    H116107   5.397   4.031   6.633 -0.8919 -1.1125 -1.7121
 5395TIP3    H216108   5.300   4.025   6.750  0.7665  1.4781 -0.1421
 5396TIP3   OH216109   2.706   0.355   4.595  0.0949  0.0297  0.4745
 5396TIP3    H116110   2.621   0.398   4.581  0.3181  0.0764 -0.8213
 5396TIP3    H216111   2.684   0.266   4.623 -0.3756  0.0526  0.1761
 5397TIP3   OH216112   1.435   8.305   3.190 -0.0231  0.1265 -0.2954
 5397TIP3    H116113   1.354   8.334   3.232 -0.6982 -0.2788 -1.2984
 5397TIP3    H216114   1.484   8.263   3.260 -0.6397  0.4597  0.3489
 5398TIP3   OH216115   1.324   6.989   2.037  0.7884  0.4817  0.0244
 5398TIP3    H116116   1.330   6.961   1.946 -1.1085 -0.7199  0.2335
 5398TIP3    H216117   1.271   7.069   2.034  0.8297  0.5105  0.0662
 5399TIP3   OH216118   1.328   6.975   0.948  0.4429 -0.3009 -0.1734
 5399TIP3    H116119   1.391   6.903   0.940 -0.0829 -0.9420  1.3320
 5399TIP3    H216120   1.263   6.943   1.010 -0.7482  0.8091 -0.8444
 5400TIP3   OH216121   3.546   5.002   6.817 -0.1180 -0.1033 -0.6299
 5400TIP3    H116122   3.581   5.089   6.803 -0.5619  0.3545  0.9702
 5400TIP3    H216123   3.524   4.970   6.730 -0.4521  1.6026 -1.1805
 5401TIP3   OH216124   0.468   7.381   3.238  0.1295 -0.5581  0.2866
 5401TIP3    H116125   0.508   7.343   3.160 -0.2596  1.4131 -0.9004
 5401TIP3    H216126   0.509   7.334   3.311  1.7453 -1.2466 -1.0263
 5402TIP3   OH216127   1.167   7.061   5.406  0.1235 -0.3636  0.9766
 5402TIP3    H116128   1.133   7.076   5.494 -0.0116  0.5673  0.7766
 5402TIP3    H216129   1.137   7.138   5.356  1.1747 -0.3163  0.4151
 5403TIP3   OH216130   8.564   6.816   2.158  0.4714 -0.1200  0.2728
 5403TIP3    H116131   8.477   6.777   2.170  1.1325 -1.6635  0.1764
 5403TIP3    H216132   8.589   6.844   2.246 -0.0259  0.1353  0.3386
 5404TIP3   OH216133   6.814   3.949   7.243  0.2125  0.0942  0.3563
 5404TIP3    H116134   6.792   4.029   7.290 -0.5900 -0.1731  0.4466
 5404TIP3    H216135   6.894   3.970   7.195  0.8600  0.4839  1.5754
 5405TIP3   OH216136   0.527   4.106   0.692  0.2147 -0.1298  0.0485
 5405TIP3    H116137   0.579   4.143   0.622 -2.5746  1.8069 -1.0808
 5405TIP3    H216138   0.462   4.051   0.648 -1.0178  0.4140  1.1278
 5406TIP3   OH216139   2.788   8.099   2.982  0.5522  0.8939 -0.3071
 5406TIP3    H116140   2.708   8.118   3.032  0.4677  1.0676 -0.5051
 5406TIP3    H216141   2.790   8.003   2.975  0.0204  0.9168 -0.8468
 5407TIP3   OH216142   3.930   0.216   3.518  0.2886 -0.4158 -0.3291
 5407TIP3    H116143   3.880   0.219   3.600 -0.4238 -0.2537 -0.7659
 5407TIP3    H216144   3.929   0.124   3.492  0.0791 -0.3878 -0.4207
 5408TIP3   OH216145   8.385   7.698   1.213 -0.7884  0.1443  0.0797
 5408TIP3    H116146   8.381   7.790   1.187 -0.8344 -0.0433 -0.5822
 5408TIP3    H216147   8.353   7.649   1.137 -0.8995 -0.4134  0.4744
 5409TIP3   OH216148   1.744   5.119   2.333 -0.0153  0.5477 -0.1123
 5409TIP3    H116149   1.763   5.102   2.425 -1.2612 -0.6647 -0.0552
 5409TIP3    H216150   1.672   5.182   2.334 -1.7763 -1.4220 -0.2043
 5410TIP3   OH216151   3.268   5.905   2.567  0.1760  0.4623  0.3599
 5410TIP3    H116152   3.193   5.846   2.560 -1.2521  2.0657  1.5198
 5410TIP3    H216153   3.295   5.898   2.659 -1.4519  3.2243  1.1209
 5411TIP3   OH216154   3.584   0.271   0.907 -0.2469 -0.2509 -0.3389
 5411TIP3    H116155   3.529   0.331   0.857  0.7534  0.0792 -1.0652
 5411TIP3    H216156   3.604   0.200   0.846  0.1348 -0.3649 -0.0821
 5412TIP3   OH216157   0.674   7.888   2.169  0.3405  0.4151 -0.3603
 5412TIP3    H116158   0.673   7.850   2.081  0.0114 -0.8010  0.1530
 5412TIP3    H216159   0.583   7.913   2.186  0.2870  0.0794 -0.1356
 5413TIP3   OH216160   8.358   6.925   2.512  0.5163 -0.3728 -0.2964
 5413TIP3    H116161   8.315   6.852   2.555 -1.7572  0.2109 -1.5175
 5413TIP3    H216162   8.423   6.956   2.576 -0.8073 -1.3192  1.5447
 5414TIP3   OH216163   6.526   4.550   2.779 -0.5259  0.2294 -0.1997
 5414TIP3    H116164   6.579   4.589   2.710 -0.8472 -2.1111 -1.8283
 5414TIP3    H216165   6.440   4.591   2.771 -0.8763 -0.8156 -1.9162
 5415TIP3   OH216166   1.638   6.726   3.278  0.4679  0.0109 -0.1588
 5415TIP3    H116167   1.640   6.638   3.241  2.5815 -0.4180  0.8896
 5415TIP3    H216168   1.548   6.736   3.309 -0.3342 -1.0053 -2.0451
 5416TIP3   OH216169   0.460   7.329   0.967 -0.7292 -0.4324  0.5915
 5416TIP3    H116170   0.545   7.358   0.933 -0.5638  0.4311  1.6937
 5416TIP3    H216171   0.398   7.348   0.897 -0.0208 -1.0216 -0.2018
 5417TIP3   OH216172   4.639   1.222   3.318 -0.2923  0.6285  0.1281
 5417TIP3    H116173   4.696   1.255   3.387  1.1995 -0.4791 -0.5637
 5417TIP3    H216174   4.697   1.209   3.243 -1.4185 -0.6997 -0.5278
 5418TIP3   OH216175   5.601   1.796   5.806 -0.0944 -0.7032  0.0011
 5418TIP3    H116176   5.581   1.873   5.860  0.2869 -1.4636  1.2391
 5418TIP3    H216177   5.516   1.770   5.770 -0.3388 -0.1513  0.1719
 5419TIP3   OH216178   4.335   0.970   3.165 -0.0226  0.3275  0.0060
 5419TIP3    H116179   4.318   1.061   3.141  0.0946  0.3909  0.1619
 5419TIP3    H216180   4.385   0.976   3.246 -0.4748  0.1148  0.3034
 5420TIP3   OH216181   1.361   0.435   1.310  0.0077 -0.0025 -0.5923
 5420TIP3    H116182   1.274   0.457   1.343 -0.1737 -2.3066  0.5343
 5420TIP3    H216183   1.413   0.421   1.388  1.1046  0.2517 -1.2706
 5421TIP3   OH216184   2.979   0.952   2.571  0.0332  0.4941  0.3443
 5421TIP3    H116185   3.052   0.892   2.590  0.4056  0.9579  0.3728
 5421TIP3    H216186   2.979   0.961   2.476 -1.1593 -0.9765  0.1754
 5422TIP3   OH216187   5.212   0.167   2.263 -0.2851 -0.2772  0.0204
 5422TIP3    H116188   5.249   0.254   2.273 -2.5539  0.6884  0.2062
 5422TIP3    H216189   5.201   0.156   2.168 -0.5807 -0.1058  0.0339
 5423TIP3   OH216190   0.270   7.765   0.563  0.0772 -0.3026 -0.0440
 5423TIP3    H116191   0.358   7.801   0.580 -0.4379  0.3966  1.2126
 5423TIP3    H216192   0.218   7.793   0.639 -1.0759 -1.2476 -0.4794
 5424TIP3   OH216193   1.700   6.031   4.520  0.0320 -0.6229 -0.2118
 5424TIP3    H116194   1.728   6.012   4.431  2.1764  0.4160  0.2126
 5424TIP3    H216195   1.777   6.014   4.574 -1.4336 -1.8696  1.5275
 5425TIP3   OH216196   3.098   7.388   1.880 -0.4068 -0.1897 -0.3518
 5425TIP3    H116197   3.138   7.371   1.965  0.7677  0.5938 -0.7314
 5425TIP3    H216198   3.029   7.323   1.872  2.5426 -3.3772 -0.8589
 5426TIP3   OH216199   3.436   7.401   0.435 -0.5442  0.0329  0.3641
 5426TIP3    H116200   3.474   7.316   0.413 -0.2862  0.0472  0.7686
 5426TIP3    H216201   3.510   7.455   0.462 -0.7076  0.3881  0.1139
 5427TIP3   OH216202   4.493   1.168   1.942 -0.6351  0.1881  0.4726
 5427TIP3    H116203   4.531   1.232   2.002 -0.6369  1.5694 -0.9671
 5427TIP3    H216204   4.568   1.124   1.902 -0.5433  1.5997 -0.9647
 5428TIP3   OH216205   4.027   0.502   1.419  0.8819 -0.1773 -0.4197
 5428TIP3    H116206   4.114   0.508   1.380  1.3922  1.0528  0.8745
 5428TIP3    H216207   4.034   0.549   1.502 -0.7070 -1.0890  0.2570
 5429TIP3   OH216208   0.809   8.300   3.923  0.1300  0.2712 -0.2765
 5429TIP3    H116209   0.727   8.349   3.919  0.3457  0.5374 -1.8356
 5429TIP3    H216210   0.782   8.210   3.941 -0.4926  0.4048 -0.5234
 5430TIP3   OH216211   2.025   0.171   2.396 -0.2894 -0.6940  0.1645
 5430TIP3    H116212   2.001   0.154   2.487 -0.9880  1.0783  0.3347
 5430TIP3    H216213   2.068   0.257   2.399 -0.5131 -0.5331 -1.1973
 5431TIP3   OH216214   0.087   6.831   2.266  0.7396  0.4417  0.0460
 5431TIP3    H116215  -0.007   6.848   2.260  0.2969 -2.3877 -1.8549
 5431TIP3    H216216   0.127   6.917   2.251 -1.5067  1.3476 -1.1349
 5432TIP3   OH216217   1.604   0.473   3.185  0.0706  0.0531 -0.3618
 5432TIP3    H116218   1.600   0.552   3.238 -0.3259  1.0837 -1.8950
 5432TIP3    H216219   1.558   0.407   3.237 -1.1972  1.3019  0.1388
 5433TIP3   OH216220   3.489   6.206   1.250  0.0809  0.2685 -0.2906
 5433TIP3    H116221   3.470   6.129   1.196  2.2481 -0.6456  0.2033
 5433TIP3    H216222   3.475   6.280   1.192 -4.0270 -0.3450 -0.2062
 5434TIP3   OH216223   4.826   0.513   3.483 -0.6248  0.2309  0.3689
 5434TIP3    H116224   4.848   0.603   3.460 -0.6859  0.6107  1.7477
 5434TIP3    H216225   4.793   0.475   3.402 -0.2158  1.3296 -0.3213
 5435TIP3   OH216226   1.659   0.182   1.672 -0.0934 -0.5227 -0.2606
 5435TIP3    H116227   1.691   0.178   1.582  1.3121 -1.3937  0.2588
 5435TIP3    H216228   1.571   0.220   1.665  0.3070  0.1291 -1.9129
 5436TIP3   OH216229   3.234   0.093   2.171  0.4153 -0.1000  0.5850
 5436TIP3    H116230   3.203   0.003   2.185  0.0755  0.2644  2.2273
 5436TIP3    H216231   3.323   0.094   2.207  0.0845  0.4489  1.4130
 5437TIP3   OH216232   1.077   6.568   0.275  0.0865  0.0802  0.6472
 5437TIP3    H116233   1.069   6.481   0.238  2.5306 -0.1771  0.5932
 5437TIP3    H216234   1.053   6.627   0.204 -0.3872 -0.5341  0.2966
 5438TIP3   OH216235   1.762   7.787   0.353 -0.5826  0.5978  0.3849
 5438TIP3    H116236   1.764   7.819   0.443  0.3196 -1.8081  1.2526
 5438TIP3    H216237   1.727   7.699   0.360  0.8113 -0.1248 -1.4598
 5439TIP3   OH216238   8.539   8.345   3.146  0.1943 -0.6613  0.0965
 5439TIP3    H116239   8.483   8.423   3.156  0.5130 -0.5864  1.4664
 5439TIP3    H216240   8.587   8.360   3.065  0.4861  0.7479  0.5062
 5440TIP3   OH216241   0.911   4.682   3.496 -0.5271 -0.4787  0.7354
 5440TIP3    H116242   0.857   4.761   3.496 -1.7931 -1.3419  0.9879
 5440TIP3    H216243   0.896   4.643   3.582  0.2989 -0.8697  0.7063
 5441TIP3   OH216244   4.554   0.780   2.649  0.4760  0.1202 -0.7396
 5441TIP3    H116245   4.573   0.698   2.602  1.8141  0.3636 -0.6278
 5441TIP3    H216246   4.492   0.754   2.718  1.5505 -0.9622 -0.1686
 5442TIP3   OH216247   1.479   5.986   2.190 -0.0331 -0.3273  0.1419
 5442TIP3    H116248   1.561   5.950   2.224 -0.2899 -0.0991  1.0026
 5442TIP3    H216249   1.477   5.957   2.098  1.0316 -0.2984  0.0983
 5443TIP3   OH216250   1.232   5.768   3.073  0.3100 -0.0753  0.5520
 5443TIP3    H116251   1.199   5.806   2.991  1.6123 -1.6018 -0.7235
 5443TIP3    H216252   1.267   5.842   3.122 -1.1251  0.9568  0.0351
 5444TIP3   OH216253   0.997   8.237   1.153 -0.3382 -0.4418 -0.2737
 5444TIP3    H116254   0.977   8.163   1.095  0.9748 -0.4275 -0.7862
 5444TIP3    H216255   0.993   8.200   1.241  1.3033 -1.4027 -0.5731
 5445TIP3   OH216256   0.810   7.747   2.391  0.2271  0.1231  0.2374
 5445TIP3    H116257   0.903   7.741   2.413  0.1771  2.6258  1.3168
 5445TIP3    H216258   0.809   7.763   2.297  0.7331 -2.9014 -0.3354
 5446TIP3   OH216259   1.924   6.274   2.283 -0.1999 -0.0171 -0.1015
 5446TIP3    H116260   1.941   6.270   2.189  0.1051 -0.9703 -0.0111
 5446TIP3    H216261   1.872   6.195   2.301  0.3200 -0.1961  0.6425
 5447TIP3   OH216262   7.089   5.283   1.733 -0.3510  0.2877  0.0731
 5447TIP3    H116263   7.057   5.315   1.649 -0.4716  0.2055  0.0867
 5447TIP3    H216264   7.109   5.191   1.717 -2.4773 -0.3314  0.6851
 5448TIP3   OH216265   8.747   8.265   1.262 -0.1169 -0.0850 -0.3870
 5448TIP3    H116266   8.659   8.268   1.299 -0.4510  0.7131 -1.2253
 5448TIP3    H216267   8.784   8.352   1.277  1.5325 -1.1967  2.3090
 5449TIP3   OH216268   2.467   6.596   2.523  0.1345 -0.8255 -0.5720
 5449TIP3    H116269   2.397   6.660   2.532  1.4860  0.5358  0.5566
 5449TIP3    H216270   2.429   6.514   2.556 -1.1061 -0.2533 -0.5499
 5450TIP3   OH216271   6.637   1.055   3.802 -0.6091  0.2558  0.0880
 5450TIP3    H116272   6.692   0.991   3.757 -0.3721  0.6678 -0.2100
 5450TIP3    H216273   6.690   1.086   3.875 -1.1965 -0.8153  0.9868
 5451TIP3   OH216274   0.805   6.493   3.310 -0.2268 -0.3911  0.4726
 5451TIP3    H116275   0.777   6.402   3.310  0.7751 -0.7059  0.9077
 5451TIP3    H216276   0.876   6.497   3.245 -0.5606  0.1707  0.1334
 5452TIP3   OH216277   5.436   0.904   5.526 -0.0507 -0.5370 -0.2814
 5452TIP3    H116278   5.434   0.919   5.432  0.2754  1.1145 -0.0455
 5452TIP3    H216279   5.344   0.889   5.550 -0.1349 -0.9369 -0.8586
 5453TIP3   OH216280   8.843   7.083   5.462 -0.2090  0.3652  0.3455
 5453TIP3    H116281   8.912   7.052   5.403 -0.6234  0.2949 -0.1085
 5453TIP3    H216282   8.890   7.118   5.537  0.2746 -1.4301  0.9163
 5454TIP3   OH216283   4.193   6.383   3.492  0.1844 -0.7596  0.2520
 5454TIP3    H116284   4.239   6.299   3.491  0.9168 -0.3680  0.6940
 5454TIP3    H216285   4.256   6.445   3.455 -0.4743 -0.4666 -0.3808
 5455TIP3   OH216286   7.127   1.052   2.586 -0.0402 -0.1398  0.2778
 5455TIP3    H116287   7.032   1.052   2.579 -0.0102  0.1361 -0.1640
 5455TIP3    H216288   7.151   0.959   2.585 -0.3741 -0.2476  1.4832
 5456TIP3   OH216289   0.576   7.768   2.757  0.3378 -0.0701  0.0898
 5456TIP3    H116290   0.519   7.815   2.696  2.2383  0.2627 -1.4629
 5456TIP3    H216291   0.610   7.836   2.815  0.7643  0.0471 -0.2924
 5457TIP3   OH216292   0.471   7.525   2.124 -0.4273 -0.6788 -0.5643
 5457TIP3    H116293   0.423   7.607   2.113 -0.5506 -0.6060  0.4179
 5457TIP3    H216294   0.442   7.492   2.209 -1.0693 -2.2132 -1.3539
 5458TIP3   OH216295   7.992   6.524   3.325  0.6054 -0.4303 -0.0734
 5458TIP3    H116296   7.925   6.456   3.313  0.8289 -1.1123  2.2725
 5458TIP3    H216297   7.949   6.605   3.298 -0.8674 -0.9921  0.5140
 5459TIP3   OH216298   6.417   4.862   7.114 -0.0066  0.0618  0.6792
 5459TIP3    H116299   6.424   4.770   7.136 -1.9107 -0.1853  0.4115
 5459TIP3    H216300   6.456   4.909   7.188  0.6309 -0.9410  0.9809
 5460TIP3   OH216301   1.527   8.130   1.501 -0.2490  0.1775 -0.2402
 5460TIP3    H116302   1.487   8.196   1.445 -1.7609 -0.2487  0.3144
 5460TIP3    H216303   1.606   8.104   1.454 -0.5195  1.1726 -1.2720
 5461TIP3   OH216304   7.868   0.435   6.078  0.2830 -0.3665  0.2135
 5461TIP3    H116305   7.876   0.485   5.997 -0.1236 -0.0082  0.3888
 5461TIP3    H216306   7.777   0.446   6.104  0.5078 -0.1377  0.9311
 5462TIP3   OH216307   0.259   6.938   3.028  0.2981  0.0602  0.3654
 5462TIP3    H116308   0.178   6.941   3.078 -0.0300 -1.7789  0.0154
 5462TIP3    H216309   0.263   7.022   2.983 -0.4566  0.9013  1.8379
 5463TIP3   OH216310   2.126   5.835   4.831 -0.3644  0.2589 -0.1773
 5463TIP3    H116311   2.073   5.757   4.842 -1.5332  0.8771 -1.3436
 5463TIP3    H216312   2.131   5.873   4.919  1.1497 -1.6859  0.6196
 5464TIP3   OH216313   3.696   0.281   5.213 -0.1685  0.1195 -0.4000
 5464TIP3    H116314   3.780   0.275   5.258 -1.1899 -1.6554  1.3765
 5464TIP3    H216315   3.708   0.232   5.132 -0.0038 -1.7532  0.7227
 5465TIP3   OH216316   2.591   7.707   2.807  0.2139  0.4392  0.4614
 5465TIP3    H116317   2.638   7.661   2.737  1.5545  0.8650  1.0669
 5465TIP3    H216318   2.566   7.638   2.868 -0.5905  0.1176 -0.2272
 5466TIP3   OH216319   2.866   6.441   1.766  0.5999 -0.0795  0.2637
 5466TIP3    H116320   2.941   6.500   1.775 -0.3235  0.9740  1.1913
 5466TIP3    H216321   2.906   6.355   1.749  1.9876  0.6079 -0.0470
 5467TIP3   OH216322   5.277   1.075   1.932  0.4178  0.6209 -0.0497
 5467TIP3    H116323   5.262   1.134   2.007  1.3068  1.8831 -0.8485
 5467TIP3    H216324   5.306   1.133   1.861 -1.3160 -0.4302 -1.6635
 5468TIP3   OH216325   3.609   1.051   1.910  0.0103  0.2160  0.0581
 5468TIP3    H116326   3.704   1.039   1.902  0.0401 -0.1336  0.8596
 5468TIP3    H216327   3.600   1.124   1.972 -0.2538 -0.9113  1.3767
 5469TIP3   OH216328   7.988   7.396   3.009 -0.1674  0.0319  0.4323
 5469TIP3    H116329   8.074   7.437   3.024 -0.8772  1.8611 -0.4213
 5469TIP3    H216330   7.925   7.463   3.033 -1.3680 -0.4849 -1.2375
 5470TIP3   OH216331   4.624   0.788   4.560  0.5538 -0.5415 -0.4626
 5470TIP3    H116332   4.574   0.706   4.559  2.1112 -1.5393  0.1918
 5470TIP3    H216333   4.644   0.803   4.652  1.4922 -0.2015 -0.7160
 5471TIP3   OH216334   1.342   7.600   4.581  0.8611  0.6790 -0.3405
 5471TIP3    H116335   1.341   7.628   4.672  1.1688  2.4737 -0.8806
 5471TIP3    H216336   1.259   7.631   4.545  1.1315  0.7567 -0.9058
 5472TIP3   OH216337   1.485   5.391   2.916  0.2923 -1.0607  0.0165
 5472TIP3    H116338   1.480   5.387   3.011 -0.4409 -3.4581 -0.0737
 5472TIP3    H216339   1.401   5.429   2.889 -0.5968 -2.7791  0.2571
 5473TIP3   OH216340   1.935   6.493   1.405  0.1295  0.4813 -0.2489
 5473TIP3    H116341   1.968   6.404   1.398 -1.5675 -0.2226  0.3983
 5473TIP3    H216342   1.842   6.486   1.382 -0.4784  1.7399  1.6872
 5474TIP3   OH216343   1.156   7.936   4.560  0.1366 -0.2490  0.2816
 5474TIP3    H116344   1.071   7.972   4.535 -0.3903 -2.1187 -0.7252
 5474TIP3    H216345   1.139   7.843   4.575  2.2176 -0.8493 -0.9380
 5475TIP3   OH216346   3.291   8.199   1.888 -0.2252  0.5055 -0.9534
 5475TIP3    H116347   3.212   8.178   1.838 -0.4705 -1.3750  0.1986
 5475TIP3    H216348   3.355   8.133   1.861  0.3819  0.9185 -0.5401
 5476TIP3   OH216349   2.036   7.807   1.533  0.5348  0.3051  0.2944
 5476TIP3    H116350   2.119   7.854   1.547  0.0870  1.0577  0.4303
 5476TIP3    H216351   2.013   7.826   1.442  0.6348 -0.1007  0.1846
 5477TIP3   OH216352   0.358   6.498   4.840 -0.0104 -0.7447  0.5588
 5477TIP3    H116353   0.452   6.480   4.849  0.2369  0.2214  0.0501
 5477TIP3    H216354   0.338   6.557   4.913  0.3557  1.0972 -0.7811
 5478TIP3   OH216355   1.552   6.819   0.951  0.2475 -0.6249  0.5015
 5478TIP3    H116356   1.589   6.735   0.923  2.3866  0.3569  0.3064
 5478TIP3    H216357   1.620   6.883   0.932  0.0612  0.6974  3.8863
 5479TIP3   OH216358   0.084   7.735   1.788 -0.2496  1.0787 -0.3577
 5479TIP3    H116359   0.162   7.759   1.737 -0.6386  0.3276 -1.3118
 5479TIP3    H216360   0.015   7.725   1.722 -1.8656  4.4366  0.6937
 5480TIP3   OH216361   2.313   4.780   0.117 -0.3082  0.5644  0.5393
 5480TIP3    H116362   2.363   4.860   0.103 -0.9627  0.7429 -0.8109
 5480TIP3    H216363   2.230   4.809   0.155 -0.2971  0.4649  0.6403
 5481TIP3   OH216364   6.315   0.644   1.509 -0.6242  0.2721 -0.0935
 5481TIP3    H116365   6.406   0.619   1.522 -1.4033 -2.3328  0.6220
 5481TIP3    H216366   6.272   0.624   1.592 -2.0952  0.2411 -0.8448
 5482TIP3   OH216367   6.141   2.725   6.981 -0.1273 -0.7037  0.4148
 5482TIP3    H116368   6.212   2.677   7.025  1.7497  0.3963 -1.3010
 5482TIP3    H216369   6.072   2.661   6.969  1.0317 -2.1090  1.1375
 5483TIP3   OH216370   1.965   6.738   1.732 -0.4231  0.4095  0.0266
 5483TIP3    H116371   1.890   6.748   1.673 -1.3075  0.4046  1.1353
 5483TIP3    H216372   2.012   6.821   1.725  0.5905 -0.3153 -2.1790
 5484TIP3   OH216373   3.579   0.284   3.932  0.4199  0.4068  0.0492
 5484TIP3    H116374   3.631   0.275   4.012 -1.2538 -0.9846  0.9987
 5484TIP3    H216375   3.508   0.221   3.942 -0.0986  0.5801 -2.3195
 5485TIP3   OH216376   2.359   0.451   5.513 -0.1542 -0.2079 -0.0695
 5485TIP3    H116377   2.296   0.504   5.561 -0.4716  0.7724 -1.5261
 5485TIP3    H216378   2.420   0.514   5.475  0.0603 -0.9425 -0.9759
 5486TIP3   OH216379   0.482   8.375   0.916 -0.4531 -0.1423 -0.1430
 5486TIP3    H116380   0.571   8.389   0.884 -0.9937  1.8633 -0.7972
 5486TIP3    H216381   0.489   8.384   1.011 -0.2794  1.8863 -0.3358
 5487TIP3   OH216382   1.075   8.075   2.604  0.0848  0.3853 -0.2474
 5487TIP3    H116383   1.141   8.040   2.664  0.0807  2.1582  0.8104
 5487TIP3    H216384   1.124   8.108   2.530  0.1440 -1.0916 -0.8950
 5488TIP3   OH216385   2.840   1.005   1.833  0.4282  0.2794 -0.3005
 5488TIP3    H116386   2.769   1.037   1.778  0.9509 -0.1196 -1.2397
 5488TIP3    H216387   2.918   1.015   1.778  0.5585 -2.9282 -0.7974
 5489TIP3   OH216388   0.636   7.154   1.877 -0.4862 -0.1374 -0.6942
 5489TIP3    H116389   0.554   7.141   1.829 -0.8187  3.0356 -1.1393
 5489TIP3    H216390   0.653   7.071   1.920 -3.3924 -1.1780 -1.4605
 5490TIP3   OH216391   1.110   5.733   0.747 -0.3042  0.2044  0.0699
 5490TIP3    H116392   1.124   5.807   0.687  1.8993 -0.9597 -0.8677
 5490TIP3    H216393   1.089   5.659   0.690 -2.5245  0.0496  1.0114
 5491TIP3   OH216394   1.159   7.203   2.036 -0.2824 -0.1318  0.4569
 5491TIP3    H116395   1.213   7.264   1.986  0.0529 -0.7237  0.0820
 5491TIP3    H216396   1.077   7.198   1.988 -0.1012 -0.4082  0.1757
 5492TIP3   OH216397   0.393   6.864   1.109 -0.0834  0.2008  0.4864
 5492TIP3    H116398   0.450   6.912   1.050  1.0231 -2.1874 -0.4266
 5492TIP3    H216399   0.309   6.859   1.063  0.3727 -0.4569 -0.2739
 5493TIP3   OH216400   1.373   7.481   3.436 -0.2613  0.0454 -0.1109
 5493TIP3    H116401   1.439   7.499   3.504 -1.3993  0.8853  0.8061
 5493TIP3    H216402   1.401   7.534   3.361  0.9367 -0.7817 -0.2469
 5494TIP3   OH216403   8.850   2.885   7.233 -0.1357  0.3465 -0.2998
 5494TIP3    H116404   8.777   2.938   7.204 -0.5278  0.7621  1.3792
 5494TIP3    H216405   8.815   2.834   7.306  0.8967 -0.4000 -0.3143
 5495TIP3   OH216406   8.726   5.937   2.470 -0.8112  0.3114 -1.0032
 5495TIP3    H116407   8.793   5.990   2.512 -0.7824 -0.2637 -0.3190
 5495TIP3    H216408   8.653   5.937   2.532 -1.1419  0.2655 -1.3858
 5496TIP3   OH216409   0.209   7.876   3.830  0.5297 -0.5673  0.3997
 5496TIP3    H116410   0.144   7.810   3.852 -0.1591 -0.2889 -0.7409
 5496TIP3    H216411   0.229   7.919   3.913 -0.9606 -0.4745  0.7263
 5497TIP3   OH216412   1.536   5.740   2.986  0.1048 -0.3569  0.1258
 5497TIP3    H116413   1.535   5.651   3.022  0.5691 -0.8871 -1.1369
 5497TIP3    H216414   1.446   5.772   2.998 -0.9976 -2.2570 -2.4344
 5498TIP3   OH216415   0.611   6.779   2.297 -0.8249 -0.2120  0.1445
 5498TIP3    H116416   0.660   6.698   2.283  1.1400  0.9970 -0.1830
 5498TIP3    H216417   0.561   6.791   2.216  1.1134  0.3767 -1.0066
 5499TIP3   OH216418   6.405   1.399   6.528 -0.2521 -0.4430  0.0065
 5499TIP3    H116419   6.371   1.352   6.604 -0.0387 -1.9341 -0.7910
 5499TIP3    H216420   6.486   1.439   6.558 -0.3439 -0.7411  0.6562
 5500TIP3   OH216421   3.849   0.150   3.141  0.4490 -0.2803 -0.1609
 5500TIP3    H116422   3.934   0.131   3.101  0.6030 -0.6039  0.3101
 5500TIP3    H216423   3.791   0.170   3.068  0.9877  0.1536 -0.4689
 5501TIP3   OH216424   0.737   7.442   3.658 -0.0352 -0.0994  0.1740
 5501TIP3    H116425   0.795   7.373   3.690  2.2344  1.8351  0.4468
 5501TIP3    H216426   0.715   7.493   3.736  0.1595  0.7897 -0.3359
 5502TIP3   OH216427   4.562   0.546   2.436 -0.2501 -0.3944 -0.1150
 5502TIP3    H116428   4.556   0.500   2.519  1.4117  1.7741  1.2748
 5502TIP3    H216429   4.630   0.499   2.387  3.2137  1.8830  2.2690
 5503TIP3   OH216430   6.618   4.977   6.754  0.3083  0.1042  0.0052
 5503TIP3    H116431   6.536   4.934   6.778  1.2209 -0.6299  1.8447
 5503TIP3    H216432   6.591   5.047   6.693 -1.7590  0.3538  1.1642
 5504TIP3   OH216433   3.174   6.822   2.167  0.0516  0.2031  0.2458
 5504TIP3    H116434   3.167   6.733   2.202 -0.5904  0.0560 -0.2373
 5504TIP3    H216435   3.084   6.846   2.143  0.1709  1.1021  0.6603
 5505TIP3   OH216436   5.612   0.074   2.791 -0.2651 -0.8385 -0.1922
 5505TIP3    H116437   5.587   0.086   2.699 -1.0653  2.6002  0.4092
 5505TIP3    H216438   5.533   0.040   2.833 -0.6006 -0.3038 -0.3809
 5506TIP3   OH216439   0.384   8.234   2.618  0.4529  0.2761  0.4747
 5506TIP3    H116440   0.449   8.297   2.647  0.8889  1.0258 -2.0278
 5506TIP3    H216441   0.302   8.285   2.615  0.4980  0.3141 -0.0517
 5507TIP3   OH216442   8.879   6.592   1.895 -0.4658 -0.0248  0.6796
 5507TIP3    H116443   8.840   6.669   1.855  1.3456  0.2388 -0.6345
 5507TIP3    H216444   8.825   6.575   1.972 -3.0299  0.4497 -0.9392
 5508TIP3   OH216445   0.536   8.358   1.200 -0.4172  0.2024  0.2829
 5508TIP3    H116446   0.596   8.324   1.134 -1.4091 -0.6334 -0.2087
 5508TIP3    H216447   0.568   8.323   1.283 -0.5080 -0.6498 -0.0349
 5509TIP3   OH216448   2.748   0.400   1.183 -0.4230 -0.1789  0.4200
 5509TIP3    H116449   2.825   0.347   1.166  1.1699  1.4228  2.3306
 5509TIP3    H216450   2.686   0.341   1.226  0.3936 -1.0567  0.3766
 5510TIP3   OH216451   1.576   5.108   2.609  0.2210 -0.0096  0.7425
 5510TIP3    H116452   1.665   5.140   2.624  0.9706 -1.6497  0.0103
 5510TIP3    H216453   1.550   5.068   2.692  0.4285 -0.0858  0.7720
 5511TIP3   OH216454   7.428   5.677   1.561  0.6706  0.6519  0.2861
 5511TIP3    H116455   7.355   5.720   1.517 -0.1136 -1.0031 -0.0581
 5511TIP3    H216456   7.388   5.621   1.627  1.5015 -1.4542 -0.9352
 5512TIP3   OH216457   1.303   7.243   2.533 -0.2058  0.3231 -0.2415
 5512TIP3    H116458   1.383   7.191   2.542 -1.8607 -2.5835 -1.8942
 5512TIP3    H216459   1.306   7.277   2.444  0.2787  2.1380  0.4443
 5513TIP3   OH216460   2.977   0.626   2.746 -0.2327 -0.0623 -0.1395
 5513TIP3    H116461   3.041   0.606   2.814 -1.9012 -1.3860  1.0769
 5513TIP3    H216462   2.986   0.556   2.682  0.7195  0.7058 -0.8764
 5514TIP3   OH216463   1.283   6.855   2.272 -0.2721  0.2178  0.1644
 5514TIP3    H116464   1.210   6.898   2.318  0.2173  0.9738  0.2430
 5514TIP3    H216465   1.291   6.905   2.191 -0.6581 -0.6585 -0.4140
 5515TIP3   OH216466   1.513   5.859   3.457  0.1179  0.2785  0.2285
 5515TIP3    H116467   1.574   5.830   3.525  0.0694 -0.6539 -0.1255
 5515TIP3    H216468   1.435   5.888   3.506  0.0456 -0.4875  0.5670
 5516TIP3   OH216469   3.175   5.509   2.694 -0.1175 -0.0850  0.1745
 5516TIP3    H116470   3.138   5.522   2.607 -0.2922 -1.3855  0.0380
 5516TIP3    H216471   3.107   5.461   2.741  0.3545 -0.1939  0.7405
 5517TIP3   OH216472   0.015   6.579   1.190 -0.4273  0.4102  0.0471
 5517TIP3    H116473   0.098   6.532   1.199 -0.1899  0.4181 -1.8535
 5517TIP3    H216474  -0.042   6.540   1.256  0.2572 -1.4474 -0.4391
 5518TIP3   OH216475   8.825   6.914   3.264 -0.5422  0.7657 -0.9134
 5518TIP3    H116476   8.755   6.973   3.237 -0.1072  1.3807 -0.7196
 5518TIP3    H216477   8.895   6.973   3.293 -0.9031  0.1179  1.3247
 5519TIP3   OH216478   1.419   7.476   5.134 -0.5911 -0.4368  0.0741
 5519TIP3    H116479   1.336   7.484   5.086 -1.0821  0.3141  1.0303
 5519TIP3    H216480   1.459   7.563   5.129  1.1506 -1.3059 -2.1289
 5520TIP3   OH216481   4.972   1.489   2.175  0.1416  0.1529  0.2052
 5520TIP3    H116482   4.913   1.431   2.223  0.1444  0.5989  0.7521
 5520TIP3    H216483   4.931   1.499   2.089 -1.5323  1.8790  1.1462
 5521TIP3   OH216484   0.948   8.275   2.832  0.1663  0.2305 -0.0062
 5521TIP3    H116485   0.905   8.360   2.841  1.0546  0.7019 -0.0616
 5521TIP3    H216486   0.976   8.272   2.740  0.4370  0.0247  0.0811
 5522TIP3   OH216487   1.031   7.546   2.924 -0.0065 -0.2993  0.6794
 5522TIP3    H116488   1.078   7.497   2.857  0.4593  0.1051  0.7059
 5522TIP3    H216489   0.974   7.605   2.875  1.3047  0.9415  0.6086
 5523TIP3   OH216490   1.254   8.401   4.027  0.0139  0.0431  0.4795
 5523TIP3    H116491   1.253   8.316   3.983 -0.0194  0.0944  0.3809
 5523TIP3    H216492   1.340   8.437   4.006 -0.5873  0.7435 -0.8139
 5524TIP3   OH216493   2.827   8.194   2.151 -0.4885  0.4249 -0.1924
 5524TIP3    H116494   2.807   8.288   2.144  1.5914  0.9811  0.8367
 5524TIP3    H216495   2.921   8.189   2.133  0.0014 -1.0936  2.5155
 5525TIP3   OH216496   2.353   6.882   2.304 -0.0351 -0.0818 -0.0905
 5525TIP3    H116497   2.295   6.958   2.306 -0.7358 -0.6091 -0.2213
 5525TIP3    H216498   2.326   6.833   2.227  0.3870 -0.4853  0.0161
 5526TIP3   OH216499   7.872   3.203   7.239  0.2980  0.1200  0.2413
 5526TIP3    H116500   7.832   3.281   7.201  0.3321  0.0062 -0.0366
 5526TIP3    H216501   7.805   3.167   7.297 -0.1894 -0.3427 -0.6002
 5527TIP3   OH216502   1.872   8.223   2.342 -0.2144 -0.0295 -0.3596
 5527TIP3    H116503   1.814   8.183   2.408  0.6996 -0.4693  0.1780
 5527TIP3    H216504   1.822   8.297   2.309 -0.0482  1.1726  1.9874
 5528TIP3   OH216505   6.019   0.497   0.233 -0.5074 -0.4020 -0.9243
 5528TIP3    H116506   5.940   0.471   0.186 -0.5423 -0.4924 -0.8172
 5528TIP3    H216507   6.053   0.571   0.184 -1.1255  0.1812 -0.4850
 5529TIP3   OH216508   3.033   6.324   0.797  0.0613  0.1366  0.3012
 5529TIP3    H116509   3.081   6.407   0.796  0.1418  0.0966  0.7268
 5529TIP3    H216510   2.987   6.325   0.881 -2.2889  1.0960 -0.9486
 5530TIP3   OH216511   3.702   0.036   0.763 -0.2244 -0.1375  0.2751
 5530TIP3    H116512   3.757   0.091   0.706 -0.2751 -0.3740 -0.0027
 5530TIP3    H216513   3.698  -0.049   0.718 -3.0089  0.6401 -1.0845
 5531TIP3   OH216514   4.775   0.049   4.286 -0.4712 -0.4210 -0.4279
 5531TIP3    H116515   4.759   0.054   4.192  0.9371  0.1902 -0.6402
 5531TIP3    H216516   4.868   0.032   4.295 -0.4397  0.3143  0.8729
 5532TIP3   OH216517   0.924   6.733   2.500  0.1639  0.8010 -0.4309
 5532TIP3    H116518   0.980   6.794   2.451 -0.6007  0.4424 -1.7678
 5532TIP3    H216519   0.895   6.669   2.435 -0.1231 -0.2274  0.6841
 5533TIP3   OH216520   3.773   6.714   1.461  0.2582  0.9122  0.1081
 5533TIP3    H116521   3.862   6.745   1.443  1.3099 -1.0115  1.7565
 5533TIP3    H216522   3.758   6.734   1.553 -0.3631 -0.2727  0.2815
 5534TIP3   OH216523   6.739   6.307   0.621  0.0532 -0.3980  0.5853
 5534TIP3    H116524   6.732   6.232   0.563  1.0521  0.0735 -0.1614
 5534TIP3    H216525   6.673   6.369   0.589  0.0782 -0.4507  0.4298
 5535TIP3   OH216526   7.767   3.263   6.550  0.4819  0.0880 -0.2743
 5535TIP3    H116527   7.677   3.229   6.559  0.5151 -0.6833 -2.5961
 5535TIP3    H216528   7.759   3.357   6.566 -0.8761  0.1542 -1.2660
 5536TIP3   OH216529   6.669   1.001   6.163  0.3131 -0.1835 -0.1254
 5536TIP3    H116530   6.711   1.086   6.146  1.3510  0.2825  4.0966
 5536TIP3    H216531   6.742   0.939   6.164 -0.2617 -0.8982 -1.7091
 5537TIP3   OH216532   3.933   8.421   2.164 -0.1062  0.5759  0.1664
 5537TIP3    H116533   3.972   8.343   2.126 -0.8127  1.4401 -2.4951
 5537TIP3    H216534   3.843   8.396   2.184  0.1978  0.1900  1.0852
 5538TIP3   OH216535   3.243   6.392   0.133 -0.0929 -0.1377 -0.5540
 5538TIP3    H116536   3.199   6.382   0.217 -0.9549  2.0416 -0.7129
 5538TIP3    H216537   3.331   6.359   0.147 -0.4781 -0.5484  0.9557
 5539TIP3   OH216538   1.680   7.208   1.652 -0.4786  0.4589  0.3699
 5539TIP3    H116539   1.684   7.292   1.606  1.3704 -0.6395 -1.5071
 5539TIP3    H216540   1.765   7.167   1.636 -1.3561 -1.7811  1.2629
 5540TIP3   OH216541   3.524   7.532   2.913  0.0502 -0.4215  0.4686
 5540TIP3    H116542   3.541   7.449   2.956  1.1592 -0.5346 -0.1698
 5540TIP3    H216543   3.597   7.543   2.851 -1.7408 -0.4866 -1.7041
 5541TIP3   OH216544   0.827   5.679   2.110 -0.1123 -0.1576  0.7388
 5541TIP3    H116545   0.873   5.718   2.036  1.3069 -1.2853  1.0107
 5541TIP3    H216546   0.858   5.727   2.186 -1.2964  0.7572  0.6518
 5542TIP3   OH216547   7.423   3.258   5.606  0.2196 -0.2432  0.4824
 5542TIP3    H116548   7.498   3.297   5.651  1.1642 -0.4746 -0.8388
 5542TIP3    H216549   7.448   3.166   5.594 -0.4535 -0.4174  0.4048
 5543TIP3   OH216550   1.273   6.983   1.706 -0.7089 -0.7067 -0.0195
 5543TIP3    H116551   1.246   7.028   1.626 -1.7928  2.4493  2.0163
 5543TIP3    H216552   1.349   7.031   1.737 -1.1480 -1.0090  1.5853
 5544TIP3   OH216553   4.269   6.490   1.370 -0.6004 -0.0878 -0.3234
 5544TIP3    H116554   4.273   6.585   1.381  0.6378 -0.1335 -0.2923
 5544TIP3    H216555   4.211   6.459   1.440  1.4472  0.3467  1.6178
 5545TIP3   OH216556   2.949   7.057   1.381  0.0938  0.0787  0.2499
 5545TIP3    H116557   3.039   7.067   1.349  0.5222 -0.1839  1.3466
 5545TIP3    H216558   2.955   6.988   1.448 -1.0957 -0.6145 -0.3419
 5546TIP3   OH216559   2.767   8.161   0.081  0.0589 -0.5766 -0.0056
 5546TIP3    H116560   2.759   8.253   0.054  0.8052 -0.5473 -0.1364
 5546TIP3    H216561   2.782   8.166   0.176  0.0069 -0.5629  0.0018
 5547TIP3   OH216562   1.625   1.482   7.039 -0.2654  0.5510  0.7094
 5547TIP3    H116563   1.530   1.474   7.036 -0.1046 -1.2972  0.2372
 5547TIP3    H216564   1.650   1.505   6.950 -0.2738  1.2319  0.8783
 5548TIP3   OH216565   0.017   3.184   6.996 -0.1349 -0.2567  0.4293
 5548TIP3    H116566   0.111   3.171   7.007 -0.2508 -0.9526  0.6422
 5548TIP3    H216567  -0.016   3.203   7.083  0.3287  3.6421 -0.1630
 5549TIP3   OH216568   3.593   5.639   3.378 -0.1191 -0.4115  0.0834
 5549TIP3    H116569   3.592   5.732   3.402  1.1745 -0.5421  0.7385
 5549TIP3    H216570   3.527   5.599   3.435  0.8598 -0.2340  1.3744
 5550TIP3   OH216571   0.664   4.791   1.144 -0.7189 -0.1960 -0.0668
 5550TIP3    H116572   0.737   4.839   1.104  0.7734 -1.3773  1.1932
 5550TIP3    H216573   0.621   4.856   1.199  0.6444  0.0019  0.8012
 5551TIP3   OH216574   8.223   3.491   6.852 -0.6272 -0.0386  0.1934
 5551TIP3    H116575   8.233   3.511   6.945 -1.5004 -0.4688  0.3775
 5551TIP3    H216576   8.246   3.573   6.807  1.2684 -0.2617  0.7124
 5552TIP3   OH216577   3.040   7.053   2.888 -0.0405 -0.5112  0.5492
 5552TIP3    H116578   3.077   7.133   2.852  1.2156  0.2065  3.3348
 5552TIP3    H216579   2.947   7.057   2.864 -0.0689  1.9454  0.9431
 5553TIP3   OH216580   0.874   3.772   5.344 -0.5318  0.0921  0.0524
 5553TIP3    H116581   0.944   3.814   5.293  0.6792  2.6625  3.5682
 5553TIP3    H216582   0.793   3.808   5.308  0.2784  1.5280 -0.3977
 5554TIP3   OH216583   2.098   4.944   0.190  0.1061 -0.6006 -0.4877
 5554TIP3    H116584   2.101   4.991   0.106  0.9413 -1.0222 -0.6964
 5554TIP3    H216585   2.126   5.009   0.255 -0.4848 -0.2895 -0.5398
 5555TIP3   OH216586   4.644   6.159   1.475 -0.1046 -0.0881 -0.3548
 5555TIP3    H116587   4.556   6.126   1.454 -0.9222  0.1495  2.4424
 5555TIP3    H216588   4.683   6.090   1.528  0.5678  0.7190  0.2136
 5556TIP3   OH216589   4.858   1.124   0.075  0.7086  0.3762  0.1436
 5556TIP3    H116590   4.785   1.164   0.121  1.2408  0.5745  0.8288
 5556TIP3    H216591   4.921   1.104   0.143  1.4093  0.4594 -0.4672
 5557TIP3   OH216592   4.702   5.418   1.631 -0.1252  0.3584 -0.1691
 5557TIP3    H116593   4.713   5.400   1.538 -0.8708 -0.7223 -0.0579
 5557TIP3    H216594   4.613   5.455   1.638  0.2593  1.2626  0.0008
 5558TIP3   OH216595   2.038   7.005   0.289  0.2583 -0.0805 -0.2431
 5558TIP3    H116596   2.059   6.911   0.296 -0.5227 -0.2114  0.3169
 5558TIP3    H216597   1.943   7.008   0.287  0.2789  0.7369  0.1250
 5559TIP3   OH216598   3.203   8.202   0.454 -0.9730 -0.3228 -0.1380
 5559TIP3    H116599   3.210   8.241   0.367  0.9159  0.1975  0.2235
 5559TIP3    H216600   3.116   8.227   0.485 -1.1946  0.4898 -1.3896
 5560TIP3   OH216601   2.545   7.634   0.779  0.2616  0.4108  0.6312
 5560TIP3    H116602   2.621   7.606   0.729  0.4867  0.2275  1.0706
 5560TIP3    H216603   2.534   7.566   0.846  0.5169  1.1212  1.3956
 5561TIP3   OH216604   2.696   6.404   0.491 -0.1236 -0.0007 -0.3588
 5561TIP3    H116605   2.724   6.439   0.406  1.7168 -2.0845 -0.6326
 5561TIP3    H216606   2.758   6.440   0.554 -0.4951  0.2068 -0.1061
 5562TIP3   OH216607   1.725   8.305   1.694  0.2779 -0.1171 -0.1718
 5562TIP3    H116608   1.797   8.243   1.677  1.3892  1.3212 -0.8116
 5562TIP3    H216609   1.683   8.271   1.773  1.3009 -1.3172 -0.1207
 5563TIP3   OH216610   7.990   2.950   6.265 -0.2890  0.7522  0.1440
 5563TIP3    H116611   8.036   3.034   6.260  0.9827 -0.0264 -1.7554
 5563TIP3    H216612   8.050   2.888   6.224 -2.3618 -0.5867 -0.9033
 5564TIP3   OH216613   5.312   1.389   1.260  0.0985  0.1132  0.4089
 5564TIP3    H116614   5.217   1.401   1.259  0.2181  1.0866 -0.1403
 5564TIP3    H216615   5.330   1.332   1.185  0.1519  1.5857 -0.6978
 5565TIP3   OH216616   2.914   5.227   0.042  0.2178  0.3138  0.2238
 5565TIP3    H116617   2.995   5.235  -0.010  0.6819  0.0421  0.8995
 5565TIP3    H216618   2.895   5.134   0.041 -1.5733  0.6616 -2.1637
 5566TIP3   OH216619   5.507   7.857   1.963 -0.1137  0.2128  0.3157
 5566TIP3    H116620   5.529   7.831   2.052 -0.5900 -0.0933  0.3445
 5566TIP3    H216621   5.591   7.861   1.917  0.3658  2.3868  1.3048
 5567TIP3   OH216622   3.480   5.358   1.472 -0.0211 -0.1657  0.5853
 5567TIP3    H116623   3.439   5.273   1.457 -0.2449  0.0790 -0.2481
 5567TIP3    H216624   3.422   5.402   1.535 -0.2501 -0.3802  0.5227
 5568TIP3   OH216625   1.173   5.101   1.709  0.0462  0.4867  0.2165
 5568TIP3    H116626   1.080   5.093   1.688  0.1419 -1.3194  0.4539
 5568TIP3    H216627   1.205   5.011   1.712  1.6220  1.0585  0.9433
 5569TIP3   OH216628   8.480   3.212   6.869 -0.2943 -0.4911 -0.3198
 5569TIP3    H116629   8.476   3.271   6.945  1.1842  1.3329 -1.6131
 5569TIP3    H216630   8.552   3.152   6.889 -0.1817 -0.2866 -0.1088
 5570TIP3   OH216631   3.064   7.529   0.826  0.3338 -0.1374  0.0718
 5570TIP3    H116632   2.974   7.502   0.810  0.7976 -1.0059 -1.1970
 5570TIP3    H216633   3.060   7.624   0.833 -0.7389 -0.2064  0.4321
 5571TIP3   OH216634   1.145   7.103   1.487  0.2968  0.2581 -0.4973
 5571TIP3    H116635   1.132   7.137   1.398 -2.6169 -1.8248 -0.9613
 5571TIP3    H216636   1.068   7.133   1.536  0.2454 -1.2970  0.4195
 5572TIP3   OH216637   2.679   7.738   1.793  0.3438  0.3742  0.0821
 5572TIP3    H116638   2.629   7.662   1.823  1.4692 -0.8308 -0.9965
 5572TIP3    H216639   2.638   7.763   1.711  0.4915  0.4080  0.0190
 5573TIP3   OH216640   5.390   0.665   1.592  0.6769  0.8433 -0.0125
 5573TIP3    H116641   5.483   0.684   1.610  0.6554 -2.3631  4.2061
 5573TIP3    H216642   5.343   0.707   1.664 -0.8302 -0.3782 -0.2617
 5574TIP3   OH216643   2.889   7.534   1.209 -0.3286  0.0460  0.1019
 5574TIP3    H116644   2.845   7.580   1.281  0.1682  0.8068 -0.0686
 5574TIP3    H216645   2.977   7.517   1.243 -0.2248  0.0337 -0.1761
 5575TIP3   OH216646   6.638   1.086   0.828  0.0930  0.4652 -0.0931
 5575TIP3    H116647   6.586   1.131   0.761 -0.4373 -0.7023 -0.4728
 5575TIP3    H216648   6.714   1.143   0.841 -1.2951  2.1989  0.5165
 5576TIP3   OH216649   5.893   0.762   1.506  0.0117 -0.3888  0.5448
 5576TIP3    H116650   5.953   0.691   1.533 -1.7799 -1.6925  1.2104
 5576TIP3    H216651   5.814   0.747   1.558 -1.4364  0.4548 -1.3601
 5577TIP3   OH216652   4.464   5.694   1.109 -0.0959 -0.0281  0.1343
 5577TIP3    H116653   4.457   5.651   1.024  0.4822 -0.4037  0.2741
 5577TIP3    H216654   4.546   5.662   1.146  1.0141  2.2204 -0.3100
 5578TIP3   OH216655   2.964   6.836   1.054  0.1792  0.1008 -0.7021
 5578TIP3    H116656   2.931   6.776   0.987  2.4140  0.7756 -2.4966
 5578TIP3    H216657   2.949   6.923   1.017 -1.7178  0.6386  1.2410
 5579TIP3   OH216658   3.487   0.469   2.228  0.3261  0.2117  0.2116
 5579TIP3    H116659   3.395   0.445   2.240  0.2254  0.4774 -0.0340
 5579TIP3    H216660   3.500   0.468   2.133  0.7135 -0.3381  0.2692
 5580TIP3   OH216661   2.983   5.995   0.898  0.2636  0.1928 -0.6839
 5580TIP3    H116662   2.980   6.041   0.982  0.5071 -1.3200  0.1623
 5580TIP3    H216663   3.076   5.979   0.883  0.2700  1.0554 -1.5774
 5581TIP3   OH216664   3.890   5.351   0.750 -0.4341 -0.0811  0.1587
 5581TIP3    H116665   3.976   5.379   0.718  0.3863 -1.0969  1.4476
 5581TIP3    H216666   3.840   5.432   0.758 -0.4475  0.2878 -2.9967
 5582TIP3   OH216667   2.284   5.995   2.614 -0.1900 -0.4914  0.0336
 5582TIP3    H116668   2.235   6.072   2.583 -0.0927  0.2354  1.6373
 5582TIP3    H216669   2.321   5.956   2.534 -1.3228  0.3747 -0.9294
 5583TIP3   OH216670   8.089   2.562   7.225  0.3763  0.1656  0.5705
 5583TIP3    H116671   8.115   2.558   7.133 -0.3377  1.9217  0.2850
 5583TIP3    H216672   8.082   2.470   7.251  0.0798 -0.3582 -1.2694
 5584TIP3   OH216673   2.597   7.240   0.136 -0.6629  0.1227 -0.4793
 5584TIP3    H116674   2.524   7.282   0.182 -0.0780  1.1038 -0.4390
 5584TIP3    H216675   2.555   7.175   0.078 -1.5001  0.0604  0.1971
 5585TIP3   OH216676   7.680   1.978   5.772 -0.5341  0.3233 -0.5431
 5585TIP3    H116677   7.608   1.928   5.811  1.0861 -1.2399  0.4798
 5585TIP3    H216678   7.665   1.971   5.678  0.2757 -3.1254 -0.5015
 5586TIP3   OH216679   1.325   8.130   1.185  0.3363 -0.6906 -0.3920
 5586TIP3    H116680   1.244   8.166   1.222  1.5002 -0.1116  1.6460
 5586TIP3    H216681   1.295   8.058   1.129 -1.5989 -0.4196  0.2433
 5587TIP3   OH216682   1.102   2.974   6.235 -0.0800  0.1343  0.0322
 5587TIP3    H116683   1.084   2.922   6.313  1.4114  0.1187  0.3791
 5587TIP3    H216684   1.196   2.991   6.238 -0.3746  1.9873 -0.6210
 5588TIP3   OH216685   4.436   3.177   2.412 -0.8048 -0.0320  0.2334
 5588TIP3    H116686   4.341   3.192   2.404 -0.9913  0.3487  2.6771
 5588TIP3    H216687   4.460   3.223   2.493  1.5464  0.1869 -0.5741
 5589TIP3   OH216688   3.697   5.308   1.735  0.3086  0.2350 -0.0292
 5589TIP3    H116689   3.703   5.300   1.830 -1.2168  0.6871  0.1179
 5589TIP3    H216690   3.624   5.368   1.721 -0.4571 -1.0039 -1.5155
 5590TIP3   OH216691   1.337   7.446   1.896 -0.6832  0.2658 -0.3356
 5590TIP3    H116692   1.382   7.406   1.970  0.1993 -0.5467 -1.2892
 5590TIP3    H216693   1.339   7.540   1.914  1.3035  0.2350 -0.2941
 5591TIP3   OH216694   0.771   6.974   0.875 -0.4809  0.2183  0.4057
 5591TIP3    H116695   0.774   6.998   0.782 -0.7035  1.2154  0.6456
 5591TIP3    H216696   0.834   6.903   0.883  0.9839  1.4229 -0.1568
 5592TIP3   OH216697   2.116   5.270   2.121  0.6996 -0.1369 -0.7002
 5592TIP3    H116698   2.050   5.310   2.178  0.5733 -1.0967 -0.1584
 5592TIP3    H216699   2.189   5.250   2.180  0.8989 -0.3938 -1.0304
 5593TIP3   OH216700   3.386   7.785   1.815  0.4881 -0.1779  0.3056
 5593TIP3    H116701   3.474   7.747   1.813  0.5246 -0.2220  2.0427
 5593TIP3    H216702   3.401   7.879   1.807  0.6883 -0.2067  0.3371
 5594TIP3   OH216703   7.140   0.190   2.227 -0.1490  0.2066  0.7349
 5594TIP3    H116704   7.060   0.144   2.200  0.0024  1.1108 -1.4032
 5594TIP3    H216705   7.211   0.140   2.188  0.1077  1.3201 -0.2681
 5595TIP3   OH216706   2.913   8.126   2.739 -0.4658  0.3498  0.1165
 5595TIP3    H116707   2.871   8.111   2.824  1.2053 -0.0855  0.8998
 5595TIP3    H216708   2.841   8.145   2.679 -1.6790  0.5563  1.6118
 5596TIP3   OH216709   4.032   4.944   1.467 -0.5438  0.2429 -0.3631
 5596TIP3    H116710   3.964   4.878   1.451 -0.6029 -0.0140  0.8961
 5596TIP3    H216711   4.012   5.014   1.404 -1.9762  0.1732 -0.0072
 5597TIP3   OH216712   2.219   6.459   1.636  0.4717  0.2110 -0.3850
 5597TIP3    H116713   2.230   6.371   1.600  1.1400 -0.8385  2.2548
 5597TIP3    H216714   2.132   6.459   1.675  0.4747  0.7163 -0.3732
 5598TIP3   OH216715   1.582   5.499   0.003 -0.6278  0.5833  0.0505
 5598TIP3    H116716   1.490   5.525   0.006 -0.9623 -0.3659 -1.2169
 5598TIP3    H216717   1.579   5.403   0.003  0.4018  0.5450  0.8945
 5599TIP3   OH216718   5.164   0.226   2.990  0.0639  0.0428  0.3732
 5599TIP3    H116719   5.199   0.191   2.908  3.4348  3.0908  0.4011
 5599TIP3    H216720   5.072   0.246   2.970  0.8974  1.0441 -2.7903
 5600TIP3   OH216721   3.293   4.602   2.137  0.2161  0.7533 -0.6581
 5600TIP3    H116722   3.257   4.614   2.050  0.4821  2.8490 -0.5147
 5600TIP3    H216723   3.366   4.541   2.125  0.8207  1.7311 -2.0625
 5601TIP3   OH216724   3.351   0.915   0.223  0.0565 -0.5419 -0.1186
 5601TIP3    H116725   3.306   0.833   0.202  1.3380 -0.8557 -1.7154
 5601TIP3    H216726   3.405   0.893   0.299 -0.0064 -1.0240 -0.2106
 5602TIP3   OH216727   1.473   7.017   2.561 -0.0947 -0.0380 -0.7814
 5602TIP3    H116728   1.562   7.052   2.567 -0.2493  0.0476  1.0846
 5602TIP3    H216729   1.485   6.923   2.546  0.3168 -0.1236  0.0390
 5603TIP3   OH216730   1.702   7.518   0.337 -0.0290  0.4629 -0.1388
 5603TIP3    H116731   1.645   7.456   0.291 -0.8467  1.8567 -1.0749
 5603TIP3    H216732   1.790   7.485   0.323 -0.4382 -0.3610 -0.8151
 5604TIP3   OH216733   0.986   2.885   7.085 -0.2045 -0.1205 -0.1612
 5604TIP3    H116734   1.031   2.843   7.011 -0.5279 -0.7263 -0.0202
 5604TIP3    H216735   0.986   2.978   7.064 -0.4840 -0.3113 -1.0364
 5605TIP3   OH216736   2.288   6.121   0.458 -0.3561  0.6429  0.1645
 5605TIP3    H116737   2.335   6.198   0.490  0.7751 -0.2596  0.6738
 5605TIP3    H216738   2.201   6.128   0.497  0.2048  0.8831  1.3708
 5606TIP3   OH216739   7.520   3.220   6.897 -0.3012  0.1464 -0.7239
 5606TIP3    H116740   7.452   3.171   6.850 -1.3470  0.0552  0.8459
 5606TIP3    H216741   7.480   3.306   6.912  0.5900  0.6612 -1.3136
 5607TIP3   OH216742   1.754   7.102   0.258  0.0560 -0.5781 -0.2385
 5607TIP3    H116743   1.735   7.189   0.223 -0.3667 -0.7348 -0.4109
 5607TIP3    H216744   1.716   7.042   0.193  1.6066 -0.9161 -0.8417
 5608TIP3   OH216745   2.455   7.070   0.718  0.2011  0.0702 -0.3803
 5608TIP3    H116746   2.546   7.083   0.693  0.3798 -0.4186  0.0211
 5608TIP3    H216747   2.411   7.046   0.636  0.4522  0.2076 -0.5552
 5609TIP3   OH216748   7.634   4.164   5.109  0.2913  0.0540  0.1318
 5609TIP3    H116749   7.636   4.231   5.041 -0.0363 -0.7729 -0.7034
 5609TIP3    H216750   7.713   4.113   5.095  1.3484  1.2043  1.7477
 5610TIP3   OH216751   3.563   6.038   2.097  0.2895 -0.2903  0.3274
 5610TIP3    H116752   3.540   5.946   2.113 -1.8478  0.2096  0.3151
 5610TIP3    H216753   3.597   6.039   2.008  1.2446 -1.2266  0.6741
 5611TIP3   OH216754   4.575   0.467   1.439  0.1354  0.2284 -0.4284
 5611TIP3    H116755   4.521   0.546   1.430  0.7891  0.7355  0.0533
 5611TIP3    H216756   4.651   0.484   1.383 -0.5466 -0.7952 -1.6906
 5612TIP3   OH216757   8.007   0.556   3.579 -0.4960 -0.8731  0.1778
 5612TIP3    H116758   8.012   0.487   3.512 -0.2860  1.2919 -2.1095
 5612TIP3    H216759   7.945   0.619   3.544 -1.2425 -0.2104  2.5826
 5613TIP3   OH216760   3.035   4.979   0.839 -0.1450  0.0341  0.3289
 5613TIP3    H116761   3.111   5.011   0.887  0.7268 -0.5977 -0.5890
 5613TIP3    H216762   3.072   4.927   0.768 -1.4768 -1.1915  0.5112
 5614TIP3   OH216763   6.269   0.850   0.687 -0.1287  0.7252 -0.6631
 5614TIP3    H116764   6.227   0.833   0.771 -1.4373 -1.5228 -1.7285
 5614TIP3    H216765   6.279   0.945   0.685 -0.3065  0.8331  1.9118
 5615TIP3   OH216766   3.013   7.885   1.382 -0.4459 -0.7139  0.5139
 5615TIP3    H116767   3.008   7.800   1.426  0.0815 -0.6557  0.6851
 5615TIP3    H216768   2.922   7.904   1.358 -0.4489 -1.7481 -0.3221
 5616TIP3   OH216769   2.779   6.765  -0.006 -0.3263  0.0484 -0.1781
 5616TIP3    H116770   2.756   6.824   0.066 -1.7707 -0.6965 -0.0057
 5616TIP3    H216771   2.699   6.716  -0.023  0.2966 -0.4894 -1.6317
 5617TIP3   OH216772   3.460   6.159   0.153  0.1215  0.3613 -0.1535
 5617TIP3    H116773   3.533   6.125   0.101 -0.4521  0.4065 -1.0020
 5617TIP3    H216774   3.501   6.206   0.225  0.9707 -3.2047  1.8190
 5618TIP3   OH216775   1.955   6.101   1.117 -0.4474 -0.5966  0.2839
 5618TIP3    H116776   1.879   6.044   1.105 -0.4180 -0.5306 -0.2530
 5618TIP3    H216777   2.030   6.045   1.094 -0.2942 -0.8083  1.2881
 5619TIP3   OH216778   3.333   8.343   0.653 -0.1985 -0.1028 -0.2246
 5619TIP3    H116779   3.278   8.282   0.603  3.1812 -2.3657 -1.3722
 5619TIP3    H216780   3.387   8.286   0.708  1.9025  1.9564 -0.0889
 5620TIP3   OH216781   3.298   0.449   1.611  0.2544 -0.1789  0.3154
 5620TIP3    H116782   3.327   0.533   1.648  0.2839 -0.5848  1.2197
 5620TIP3    H216783   3.380   0.406   1.584  0.4560 -0.9976  2.1736
 5621TIP3   OH216784   2.063   6.044   1.564  0.4599 -0.9133 -0.3777
 5621TIP3    H116785   2.039   5.964   1.517 -1.7571  0.5547 -1.8953
 5621TIP3    H216786   1.983   6.067   1.612  1.0784  0.3857  0.0246
 5622TIP3   OH216787   5.037   1.385   1.884 -0.2824  0.5430  0.2641
 5622TIP3    H116788   5.089   1.427   1.815  0.2498  2.4749  1.8119
 5622TIP3    H216789   5.101   1.358   1.950 -0.7219 -1.8855 -0.2447
 5623TIP3   OH216790   1.206   5.389   6.379 -0.3183  0.3598  0.3384
 5623TIP3    H116791   1.160   5.351   6.305  1.4894 -1.8552  0.3052
 5623TIP3    H216792   1.295   5.403   6.347 -0.1622  1.6943  1.3391
 5624TIP3   OH216793   1.991   8.212   1.694 -0.1573 -0.2230  0.4319
 5624TIP3    H116794   2.049   8.234   1.621  0.4056  0.2103  0.9972
 5624TIP3    H216795   1.979   8.295   1.740  0.0741 -0.6320  1.2393
 5625TIP3   OH216796   4.420   0.421   1.110 -0.2408 -0.1547 -0.0749
 5625TIP3    H116797   4.510   0.449   1.093 -0.3730  0.9500  1.0190
 5625TIP3    H216798   4.380   0.418   1.023  0.5907  0.2509 -0.4797
 5626TIP3   OH216799   7.717   3.826   6.864 -0.2459  0.5261  0.2064
 5626TIP3    H116800   7.670   3.766   6.922  0.7287 -0.5468 -0.0954
 5626TIP3    H216801   7.684   3.913   6.888 -2.2727 -0.1795  0.0880
 5627TIP3   OH216802   1.980   7.607   0.772  0.9132 -0.2231  0.1671
 5627TIP3    H116803   2.030   7.672   0.822 -0.2648  0.3413  0.6522
 5627TIP3    H216804   1.932   7.558   0.839 -0.2287  0.1566 -0.3552
 5628TIP3   OH216805   2.234   7.481   1.598  0.1772 -0.3501  0.3174
 5628TIP3    H116806   2.264   7.529   1.675  0.6377 -1.5550  0.9050
 5628TIP3    H216807   2.285   7.518   1.525  0.2958  0.2608  0.7122
 5629TIP3   OH216808   1.353   6.706   2.903  0.1024 -0.4086 -0.5571
 5629TIP3    H116809   1.394   6.642   2.844 -0.0152  0.2997 -1.4199
 5629TIP3    H216810   1.348   6.661   2.988  4.6191  0.1549  0.1475
 5630TIP3   OH216811   2.889   4.774   1.957 -0.1924  0.3002 -0.1496
 5630TIP3    H116812   2.981   4.803   1.957 -0.9830  2.9514  0.7901
 5630TIP3    H216813   2.874   4.741   2.045 -0.6950  1.8525  0.3698
 5631TIP3   OH216814   3.475   6.782   2.227 -0.0679 -0.3884 -0.0026
 5631TIP3    H116815   3.389   6.822   2.237 -0.0548 -0.8959  2.4709
 5631TIP3    H216816   3.459   6.705   2.172 -1.5622 -1.4994  1.8992
 5632TIP3   OH216817   2.323   5.359   0.069 -0.4879 -0.4862 -0.1969
 5632TIP3    H116818   2.418   5.343   0.066 -0.3151  0.4339  0.2690
 5632TIP3    H216819   2.290   5.296   0.133 -0.1334 -0.5345 -0.0599
 5633TIP3   OH216820   2.384   7.875   0.042 -0.2276  0.1771 -0.5920
 5633TIP3    H116821   2.351   7.957   0.078  0.2187 -0.2799  0.8919
 5633TIP3    H216822   2.473   7.868   0.076 -0.7300 -1.5868  0.4289
 5634TIP3   OH216823   0.447   7.462   2.428  0.5641 -0.6326 -0.4277
 5634TIP3    H116824   0.379   7.510   2.475 -0.4570 -0.2332 -2.2495
 5634TIP3    H216825   0.418   7.370   2.431  0.5609 -0.6224 -0.1693
 5635TIP3   OH216826   6.845   2.246   7.243  0.1005  0.2393 -0.4731
 5635TIP3    H116827   6.890   2.188   7.305 -0.2831  1.0329  0.5734
 5635TIP3    H216828   6.760   2.204   7.229 -0.4095  0.8287  0.7483
 5636TIP3   OH216829   5.355   0.809   3.227 -0.5399  0.1139 -0.3690
 5636TIP3    H116830   5.353   0.742   3.296 -0.9383  1.3508  0.8326
 5636TIP3    H216831   5.291   0.875   3.255  1.4414  2.1019 -0.3915
 5637TIP3   OH216832   3.693   7.480   0.593  0.6693 -0.3616 -0.4060
 5637TIP3    H116833   3.734   7.447   0.513 -0.1240 -0.1792 -0.8835
 5637TIP3    H216834   3.677   7.402   0.646 -2.1305 -0.8985 -1.9524
 5638TIP3   OH216835   0.702   7.469   2.529 -0.5449  0.2329  0.1984
 5638TIP3    H116836   0.721   7.561   2.545  1.3751 -0.3259  1.3970
 5638TIP3    H216837   0.610   7.467   2.502 -0.1528  2.6526 -1.4700
 5639TIP3   OH216838   4.768   0.111   1.505 -0.4562 -1.1088 -0.5766
 5639TIP3    H116839   4.734   0.190   1.545  1.6248 -0.8219  0.6946
 5639TIP3    H216840   4.747   0.041   1.567  1.3669 -0.8967  0.3357
 5640TIP3   OH216841   1.691   6.148   2.537  0.1344  0.1771 -0.5703
 5640TIP3    H116842   1.741   6.107   2.466 -0.7753 -0.0528 -1.0947
 5640TIP3    H216843   1.614   6.184   2.493  0.1457  1.0767  0.1288
 5641TIP3   OH216844   3.178   7.810   0.795  0.6400 -0.7314  0.4628
 5641TIP3    H116845   3.152   7.887   0.745  1.1834 -1.3676 -0.8367
 5641TIP3    H216846   3.235   7.843   0.864  0.8731  0.0110 -0.0875
 5642TIP3   OH216847   4.587   0.385   2.675  0.7822 -0.3825  0.4097
 5642TIP3    H116848   4.552   0.424   2.756  1.0554  0.1760  0.2616
 5642TIP3    H216849   4.681   0.382   2.689  0.9551  0.9534 -0.4214
 5643TIP3   OH216850   1.016   7.579   1.192  0.5692 -0.0574  0.4068
 5643TIP3    H116851   1.022   7.642   1.120  0.4968  0.3281  0.7397
 5643TIP3    H216852   1.103   7.539   1.195 -0.1652 -1.9362 -1.5790
 5644TIP3   OH216853   3.492   1.006   1.136 -0.4280  0.4647 -0.0766
 5644TIP3    H116854   3.485   1.048   1.222 -2.9262  0.4903 -0.2537
 5644TIP3    H216855   3.475   0.914   1.152  3.1071 -0.2286  0.0120
 5645TIP3   OH216856   2.149   7.081   2.273  0.1495  0.1291  0.6903
 5645TIP3    H116857   2.097   7.154   2.306 -0.7646  0.6855 -1.8456
 5645TIP3    H216858   2.126   7.076   2.180  1.4902 -2.3030  0.4597
 5646TIP3   OH216859   7.988   4.074   7.149 -0.0595  0.0661  0.4837
 5646TIP3    H116860   7.939   3.993   7.162  1.6603 -0.7212  2.3042
 5646TIP3    H216861   7.922   4.143   7.150 -1.4211 -1.2093  0.0070
 5647TIP3   OH216862   4.404   7.669   1.565 -0.0305  0.0580 -0.2380
 5647TIP3    H116863   4.481   7.702   1.518 -0.8363  0.7398 -1.1008
 5647TIP3    H216864   4.395   7.727   1.640 -0.8444  1.2211 -1.2021
 5648TIP3   OH216865   4.814   0.406   0.482  0.0084  0.5495  0.2586
 5648TIP3    H116866   4.733   0.449   0.454 -0.9287  0.0877  2.1701
 5648TIP3    H216867   4.791   0.361   0.563  1.6446 -1.3813 -0.2836
 5649TIP3   OH216868   7.113   1.381   2.788  0.0288  0.0210 -0.3358
 5649TIP3    H116869   7.101   1.302   2.840  1.6873 -1.3928 -2.0437
 5649TIP3    H216870   7.063   1.448   2.835 -0.9724 -1.8947  1.4165
 5650TIP3   OH216871   0.204   1.057   7.148  0.2039  0.4937 -0.3124
 5650TIP3    H116872   0.153   1.035   7.070 -2.4507  2.1566  0.8824
 5650TIP3    H216873   0.202   1.153   7.152  2.7151  0.5528  0.2685
 5651TIP3   OH216874   4.560   0.226   4.096 -0.3167 -0.3156  0.3599
 5651TIP3    H116875   4.560   0.235   4.001  0.6081 -1.6290  0.2265
 5651TIP3    H216876   4.471   0.252   4.122  0.4963  3.6692 -0.4536
 5652TIP3   OH216877   7.647   5.194   6.126  0.2538 -0.0311  0.3154
 5652TIP3    H116878   7.731   5.197   6.171  0.6135  0.1833 -0.3633
 5652TIP3    H216879   7.603   5.116   6.162  0.6317  0.0050  0.8555
 5653TIP3   OH216880   5.726   1.819   2.171  0.3101  0.2486  0.0608
 5653TIP3    H116881   5.712   1.835   2.078 -1.2672 -2.4951 -0.2284
 5653TIP3    H216882   5.786   1.889   2.199 -0.4761  2.0773 -2.6201
 5654TIP3   OH216883   1.008   2.698   7.288  0.1129  0.4517 -0.6636
 5654TIP3    H116884   1.010   2.766   7.221 -0.3019 -0.1757 -1.3269
 5654TIP3    H216885   1.066   2.630   7.254 -0.7785 -0.2514 -0.8233
 5655TIP3   OH216886   2.336   7.850   1.905 -0.0869  0.1279 -0.6470
 5655TIP3    H116887   2.366   7.885   1.821 -0.1804  1.8136  0.0034
 5655TIP3    H216888   2.414   7.810   1.944 -0.6953 -3.4792 -2.8632
 5656TIP3   OH216889   1.475   5.873   2.652 -0.0385 -0.6970 -0.7444
 5656TIP3    H116890   1.562   5.837   2.637  0.9413  0.5642  1.5621
 5656TIP3    H216891   1.444   5.830   2.732 -0.7710  0.1437 -0.5587
 5657TIP3   OH216892   2.300   6.202   0.758 -0.4259 -0.3349 -0.3918
 5657TIP3    H116893   2.308   6.109   0.780  0.1824  0.0265  0.9499
 5657TIP3    H216894   2.290   6.246   0.842 -2.3397  0.6747 -1.1154
 5658TIP3   OH216895   4.006   6.613   1.821 -0.1995 -0.7221 -0.4561
 5658TIP3    H116896   4.064   6.593   1.748  0.7561 -1.1419  0.4026
 5658TIP3    H216897   4.038   6.559   1.893 -0.5673  0.3414  0.5327
 5659TIP3   OH216898   0.441   4.592   6.873  0.4432  0.0492  0.0384
 5659TIP3    H116899   0.479   4.607   6.960  1.9438  2.2352 -0.9337
 5659TIP3    H216900   0.442   4.679   6.832 -0.8439 -0.8422 -1.9375
 5660TIP3   OH216901   3.344   7.060   2.933 -0.2425  0.4064  0.5987
 5660TIP3    H116902   3.273   7.123   2.924  0.1816  1.0804  1.8783
 5660TIP3    H216903   3.316   6.985   2.882 -1.0155  1.4074 -0.4635
 5661TIP3   OH216904   3.693   6.897   2.866 -0.1334 -0.2890 -0.6063
 5661TIP3    H116905   3.738   6.867   2.787  1.5587  0.7852 -0.0856
 5661TIP3    H216906   3.708   6.828   2.931  0.3417 -0.1768 -0.5939
 5662TIP3   OH216907   3.833   7.790   4.755 -0.4064 -0.2455  0.6661
 5662TIP3    H116908   3.835   7.773   4.849  0.5930  3.7750  1.4485
 5662TIP3    H216909   3.783   7.871   4.747  1.4004  0.6480 -2.0791
 5663TIP3   OH216910   2.688   6.793   1.259  0.1444 -0.6066  0.5995
 5663TIP3    H116911   2.633   6.727   1.301 -0.1184 -0.0589  1.1145
 5663TIP3    H216912   2.683   6.869   1.316 -0.1171  0.1070 -0.3708
 5664TIP3   OH216913   3.436   0.452   1.959 -0.1641  0.9705 -0.6141
 5664TIP3    H116914   3.409   0.536   1.921 -3.5918  1.0756  1.7978
 5664TIP3    H216915   3.361   0.394   1.943  0.3661 -0.3567  1.5716
 5665TIP3   OH216916   1.409   7.396   3.055 -0.3016  0.6484 -0.5254
 5665TIP3    H116917   1.348   7.327   3.079  0.7680 -0.2711 -0.4412
 5665TIP3    H216918   1.436   7.375   2.965 -0.7514  1.5291 -0.8804
 5666TIP3   OH216919   1.147   7.831   2.057 -0.0279 -0.7187  0.0037
 5666TIP3    H116920   1.098   7.753   2.084  0.0062 -0.0045  2.2096
 5666TIP3    H216921   1.229   7.796   2.021  1.0592 -1.6584  3.2183
 5667TIP3   OH216922   0.767   8.097   2.651 -0.1491  0.2774  0.4662
 5667TIP3    H116923   0.861   8.103   2.633  0.0564 -1.1580  1.0357
 5667TIP3    H216924   0.727   8.089   2.565 -0.0783  4.5784 -0.0676
 5668TIP3   OH216925   3.067   7.605   0.200  0.4658 -0.0035 -0.1918
 5668TIP3    H116926   3.146   7.558   0.174  1.2402  0.0590  1.9357
 5668TIP3    H216927   3.099   7.680   0.251 -0.9447  0.3117  0.2545
 5669TIP3   OH216928   3.328   7.868   2.640  0.0970 -0.5020 -0.3838
 5669TIP3    H116929   3.377   7.842   2.562  0.3372 -0.9205 -0.0978
 5669TIP3    H216930   3.248   7.814   2.637 -1.0912  1.2763 -1.6648
 5670TIP3   OH216931   1.899   5.848   1.464  0.2241  0.0906 -0.2184
 5670TIP3    H116932   1.853   5.825   1.546  0.5187 -1.1239 -0.3739
 5670TIP3    H216933   1.961   5.776   1.452  0.2516  0.3238 -1.4561
 5671TIP3   OH216934   0.160   7.577   2.494  0.4790  0.0988  0.2237
 5671TIP3    H116935   0.145   7.624   2.576 -0.1110  0.3717 -0.0392
 5671TIP3    H216936   0.184   7.645   2.431 -0.5106  0.0625 -0.1920
 5672TIP3   OH216937   3.465   5.607   0.867 -0.3092  0.3121  0.5298
 5672TIP3    H116938   3.538   5.650   0.911  0.0811 -2.1147  2.3476
 5672TIP3    H216939   3.505   5.563   0.792 -0.1583  0.3277  0.6012
 5673TIP3   OH216940   6.788   1.987   7.045 -0.4653 -0.7845 -0.3162
 5673TIP3    H116941   6.871   1.943   7.061 -0.4003 -0.8554 -0.8520
 5673TIP3    H216942   6.722   1.930   7.086 -0.3583 -1.2556 -0.8096
 5674TIP3   OH216943   0.748   8.120   1.620 -0.0771 -0.3087 -0.0506
 5674TIP3    H116944   0.718   8.039   1.662  0.4040 -0.3028  0.3118
 5674TIP3    H216945   0.839   8.102   1.595 -0.1770 -0.1103 -0.5749
 5675TIP3   OH216946   1.410   5.396   5.137 -0.1832  0.1265  0.6196
 5675TIP3    H116947   1.502   5.372   5.131 -0.6461 -1.4626 -0.4652
 5675TIP3    H216948   1.406   5.487   5.107  0.7992 -0.3123 -0.8595
 5676TIP3   OH216949   6.261   2.114   2.352  0.4967 -0.1715 -0.7909
 5676TIP3    H116950   6.232   2.173   2.282  0.3604 -0.1571 -0.7204
 5676TIP3    H216951   6.253   2.027   2.314 -1.0685 -0.2766 -0.2571
 5677TIP3   OH216952   4.598   8.212   2.794  0.4108  0.1906  0.5949
 5677TIP3    H116953   4.612   8.293   2.743  0.0041  0.0171  0.2015
 5677TIP3    H216954   4.635   8.231   2.880  0.0312  0.9124  0.6022
 5678TIP3   OH216955   5.235   5.768   1.608  0.1582 -0.5594  0.3316
 5678TIP3    H116956   5.217   5.703   1.677 -1.0426 -0.8309 -0.2227
 5678TIP3    H216957   5.266   5.716   1.534  1.4119 -0.2704  0.6410
 5679TIP3   OH216958   2.795   7.997   0.570 -0.1967  0.6220 -0.1815
 5679TIP3    H116959   2.817   8.076   0.521 -0.5775  1.0118  0.2711
 5679TIP3    H216960   2.768   7.934   0.503  1.4754  0.3964 -0.6827
 5680TIP3   OH216961   1.080   6.351   1.685  0.0480 -0.7592 -0.1921
 5680TIP3    H116962   0.994   6.361   1.645  0.4109 -0.4253 -0.8889
 5680TIP3    H216963   1.062   6.337   1.778 -0.7316 -0.1157 -0.2487
 5681TIP3   OH216964   6.001   1.257   2.421 -0.1816  0.1303 -0.1662
 5681TIP3    H116965   5.993   1.336   2.368 -0.6097 -0.4118 -0.9112
 5681TIP3    H216966   6.045   1.194   2.365 -0.2978 -0.3256  0.2502
 5682TIP3   OH216967   4.573   7.629   0.767 -0.1029  0.2901 -0.4320
 5682TIP3    H116968   4.642   7.680   0.810  0.3366 -0.3786 -0.3398
 5682TIP3    H216969   4.528   7.584   0.839  0.7195 -0.9382 -0.6680
 5683TIP3   OH216970   8.526   2.543   6.061 -0.3851  0.0422  0.0902
 5683TIP3    H116971   8.478   2.577   6.136 -0.0700 -0.2236  0.4175
 5683TIP3    H216972   8.617   2.540   6.091 -0.2095  0.2705 -0.4245
 5684TIP3   OH216973   4.578   0.240   1.302  0.6010 -0.3500  0.0671
 5684TIP3    H116974   4.562   0.327   1.339 -1.0939 -1.0307  0.9939
 5684TIP3    H216975   4.535   0.180   1.362 -0.9074 -1.6095 -2.1694
 5685TIP3   OH216976   3.336   6.462   1.539 -0.1381 -0.4382 -0.0717
 5685TIP3    H116977   3.364   6.554   1.543  0.1831 -0.5411  0.0657
 5685TIP3    H216978   3.279   6.457   1.462 -2.6655  0.5750  1.6707
 5686TIP3   OH216979   6.606   0.375   0.599  0.4652 -0.0565 -0.8147
 5686TIP3    H116980   6.637   0.335   0.518  1.0954  0.7498 -0.9718
 5686TIP3    H216981   6.668   0.347   0.665  0.4480  0.0073 -0.7718
 5687TIP3   OH216982   3.369   6.824   3.628  0.0827 -0.7135  0.3013
 5687TIP3    H116983   3.323   6.766   3.567 -1.6378 -0.4063  1.2616
 5687TIP3    H216984   3.432   6.768   3.672  0.8124 -1.1005 -1.2078
 5688TIP3   OH216985   7.009   1.250   5.528  0.1763 -0.6845  0.6929
 5688TIP3    H116986   6.954   1.194   5.475 -0.8750 -0.5250  1.5953
 5688TIP3    H216987   7.016   1.332   5.479 -2.5402  0.2416  1.7271
 5689TIP3   OH216988   4.033   7.328   1.362 -0.5558  0.2637 -0.0492
 5689TIP3    H116989   4.083   7.403   1.395  0.0991 -0.1950  0.0170
 5689TIP3    H216990   3.957   7.321   1.419  0.3847 -0.3142  1.1513
 5690TIP3   OH216991   2.731   4.861   0.221  0.0417 -0.4879  0.3442
 5690TIP3    H116992   2.737   4.929   0.153  0.4975  1.9019  2.6946
 5690TIP3    H216993   2.644   4.873   0.258 -0.2651 -1.9011  0.1143
 5691TIP3   OH216994   4.904   5.994   3.434  0.3298 -0.0883 -0.2750
 5691TIP3    H116995   4.963   6.067   3.418 -1.1431  1.1842 -0.0843
 5691TIP3    H216996   4.881   5.961   3.347  0.7450 -0.1162 -0.3727
 5692TIP3   OH216997   4.020   0.259   1.568 -0.1538 -0.6296  0.3383
 5692TIP3    H116998   4.006   0.290   1.658  1.3814 -0.4396  0.5343
 5692TIP3    H216999   4.006   0.336   1.514  1.4308 -0.0921  0.6453
 5693TIP3   OH217000   1.992   7.145   1.512  0.3771 -0.2728  0.0437
 5693TIP3    H117001   2.006   7.052   1.497  0.7267 -0.2002 -0.0912
 5693TIP3    H217002   1.979   7.182   1.424 -1.2625 -0.4336  0.2159
 5694TIP3   OH217003   3.503   8.401   2.028  0.0860 -0.2822  0.4319
 5694TIP3    H117004   3.440   8.337   1.996 -1.1243  1.1479 -0.1346
 5694TIP3    H217005   3.522   8.374   2.118  1.2050 -2.6050 -0.4602
 5695TIP3   OH217006   0.793   6.541   0.964  0.6304  0.4038 -0.4070
 5695TIP3    H117007   0.843   6.591   0.899 -0.3401  2.2847  0.2700
 5695TIP3    H217008   0.760   6.607   1.025 -0.7107 -1.0676  0.4879
 5696TIP3   OH217009   1.586   8.028   1.774  0.2931  0.5590  0.3911
 5696TIP3    H117010   1.670   7.992   1.744 -1.2323 -2.0542 -0.8913
 5696TIP3    H217011   1.578   7.999   1.865 -0.3994 -1.3935 -0.2854
 5697TIP3   OH217012   4.074   5.235   1.417 -0.2053  0.3482 -0.2275
 5697TIP3    H117013   4.085   5.234   1.512  2.9463  0.3044 -0.5574
 5697TIP3    H217014   3.980   5.250   1.405 -0.7658 -0.1638  2.8783
 5698TIP3   OH217015   4.855   4.529   2.062 -0.1413 -0.1960 -0.2606
 5698TIP3    H117016   4.846   4.434   2.050 -1.2905 -0.2345  0.7689
 5698TIP3    H217017   4.810   4.546   2.145  2.0126  0.9228  0.7106
 5699TIP3   OH217018   2.581   6.018   1.395  0.0190 -0.1117 -0.8243
 5699TIP3    H117019   2.616   6.050   1.478  1.1372 -2.0288 -0.5316
 5699TIP3    H217020   2.554   5.928   1.413 -1.3544  0.0189 -2.0959
 5700TIP3   OH217021   6.770   4.298   6.471  0.6344 -0.1650 -0.1498
 5700TIP3    H117022   6.766   4.372   6.532 -0.8458 -0.7961  0.5446
 5700TIP3    H217023   6.684   4.257   6.477  1.1033 -1.3657 -1.2756
 5701TIP3   OH217024   4.383   0.165   1.467  0.0631  0.0704 -0.2041
 5701TIP3    H117025   4.361   0.236   1.527 -1.7525 -1.0331  0.5004
 5701TIP3    H217026   4.403   0.090   1.524 -0.3932 -0.6333 -0.9506
 5702TIP3   OH217027   7.992   4.583   5.709 -0.4475 -0.2867  0.1197
 5702TIP3    H117028   7.904   4.551   5.689  0.0295 -2.4784  1.3414
 5702TIP3    H217029   8.048   4.506   5.704  1.3922  1.0390 -0.4461
 5703TIP3   OH217030   3.960   5.891   2.263 -0.2246  0.3138 -0.8266
 5703TIP3    H117031   3.882   5.836   2.270  0.2585 -0.4017 -1.0184
 5703TIP3    H217032   3.934   5.974   2.302 -0.7278 -0.2928  0.1470
 5704TIP3   OH217033   8.072   3.908   6.816  0.3010 -0.4270  0.4469
 5704TIP3    H117034   8.052   3.900   6.723  1.9939 -0.5253  0.0756
 5704TIP3    H217035   8.012   3.975   6.848 -0.0609 -0.1520 -0.7898
 5705TIP3   OH217036   3.752   0.547   3.632 -0.6779 -0.6591 -0.3590
 5705TIP3    H117037   3.785   0.532   3.543 -0.4558 -1.4096 -0.1582
 5705TIP3    H217038   3.659   0.567   3.620 -0.4717  0.0351 -0.8194
 5706TIP3   OH217039   2.360   7.741   1.030 -0.2881 -0.1541 -0.0840
 5706TIP3    H117040   2.443   7.788   1.018 -0.1982  0.4182  2.5032
 5706TIP3    H217041   2.375   7.655   0.991  1.5429 -0.0680  0.3932
 5707TIP3   OH217042   6.953   3.828   5.785  0.1996 -0.0791  0.3805
 5707TIP3    H117043   6.899   3.798   5.712  0.0492 -0.3198  0.5889
 5707TIP3    H217044   6.969   3.749   5.837  0.6084  0.0226  0.4136
 5708TIP3   OH217045   0.940   6.748   0.847 -0.4189  0.1275  0.0940
 5708TIP3    H117046   0.926   6.760   0.753 -0.7509  0.4157  0.1804
 5708TIP3    H217047   1.031   6.776   0.862 -0.0401 -0.8705 -0.3108
 5709TIP3   OH217048   6.656   0.006   1.620 -0.2198 -0.5202  0.3654
 5709TIP3    H117049   6.640   0.098   1.603  2.1850 -0.0454  0.4159
 5709TIP3    H217050   6.577  -0.026   1.663 -1.8894  0.9920 -1.5183
 5710TIP3   OH217051   2.976   6.234   0.152  0.1078 -0.0214 -0.3484
 5710TIP3    H117052   2.890   6.206   0.183  1.2308  1.3196  4.3574
 5710TIP3    H217053   2.957   6.308   0.095 -1.9269 -0.1850  0.0533
 5711TIP3   OH217054   2.156   5.962   0.756  0.0047  0.3277 -0.3902
 5711TIP3    H117055   2.095   6.026   0.719 -2.9754 -1.3968  1.2853
 5711TIP3    H217056   2.120   5.943   0.843  0.5063 -3.9138 -1.0151
 5712TIP3   OH217057   1.102   7.275   4.782  0.1107 -0.2786  0.6446
 5712TIP3    H117058   1.027   7.216   4.781  0.1854 -0.3698 -0.1641
 5712TIP3    H217059   1.174   7.221   4.816  0.5450 -1.1356 -1.5588
 5713TIP3   OH217060   2.534   5.121   1.927 -0.1649  0.0925  0.3532
 5713TIP3    H117061   2.501   5.112   2.017 -0.6708 -0.3548  0.1295
 5713TIP3    H217062   2.553   5.031   1.900 -0.6746  0.1531 -0.2267
 5714TIP3   OH217063   1.724   7.439   1.508 -0.0563  0.0801  0.1393
 5714TIP3    H117064   1.777   7.405   1.436 -0.3403 -0.5883  0.2467
 5714TIP3    H217065   1.655   7.490   1.464 -0.6727 -0.9538 -0.0918
 5715TIP3   OH217066   4.397   6.156   1.211  0.5220 -0.3101 -0.2827
 5715TIP3    H117067   4.328   6.139   1.147  1.3203  1.0574 -1.5482
 5715TIP3    H217068   4.462   6.087   1.196  0.5857 -0.1434 -0.7816
 5716TIP3   OH217069   2.027   6.246   1.356  0.0310  0.4278  0.0128
 5716TIP3    H117070   2.002   6.181   1.290  0.5654  0.9022 -0.6642
 5716TIP3    H217071   2.019   6.199   1.439 -1.0918 -0.0338 -0.3450
 5717TIP3   OH217072   8.351   7.350   2.174  0.1943  0.3367 -0.5216
 5717TIP3    H117073   8.309   7.299   2.243  0.0131 -0.3215 -1.1169
 5717TIP3    H217074   8.288   7.351   2.102  1.3525 -1.0626 -1.6072
 5718TIP3   OH217075   3.318   6.250   0.938 -0.4202  0.0581 -0.3387
 5718TIP3    H117076   3.302   6.318   0.873  1.8648  0.0534 -0.9486
 5718TIP3    H217077   3.345   6.297   1.016  0.1730 -0.0843 -0.4533
 5719TIP3   OH217078   3.128   5.329   0.623 -0.4437  0.1674 -0.0077
 5719TIP3    H117079   3.162   5.300   0.708  0.3973  1.8435  0.2523
 5719TIP3    H217080   3.123   5.249   0.571 -1.0769 -0.9054  1.6555
 5720TIP3   OH217081   2.333   6.919   1.256  0.2027  0.4543 -0.3062
 5720TIP3    H117082   2.345   6.826   1.276  0.1148  0.8341  1.5439
 5720TIP3    H217083   2.320   6.921   1.161 -0.3387 -1.4824 -0.2951
 5721TIP3   OH217084   7.297   0.938   0.952  0.6816  0.0192  0.4267
 5721TIP3    H117085   7.329   1.026   0.931 -0.2542  0.1958 -0.2740
 5721TIP3    H217086   7.370   0.880   0.930  1.7287  0.7191  1.9941
 5722TIP3   OH217087   3.622   5.379   1.223  0.5015  0.1468 -0.1288
 5722TIP3    H117088   3.715   5.387   1.246  0.2589  0.5429  0.7035
 5722TIP3    H217089   3.576   5.377   1.306 -0.2054 -0.5813 -0.5262
 5723TIP3   OH217090   3.605   6.651   2.431 -0.1646 -0.5234  0.2589
 5723TIP3    H117091   3.574   6.719   2.372  0.8642  0.3902  0.7709
 5723TIP3    H217092   3.699   6.663   2.435 -0.2259 -0.5507  2.1424
 5724TIP3   OH217093   7.883   1.481   5.921 -0.0967 -0.1604 -0.5765
 5724TIP3    H117094   7.925   1.553   5.872  1.3384 -2.2620 -2.5216
 5724TIP3    H217095   7.860   1.520   6.005  0.3402  2.6897 -1.7107
 5725TIP3   OH217096   4.499   5.908   3.435  0.0977 -0.7017 -0.0780
 5725TIP3    H117097   4.520   5.962   3.359 -1.3794 -0.7092 -0.5119
 5725TIP3    H217098   4.529   5.959   3.510  2.7827 -1.2717 -0.6940
 5726TIP3   OH217099   1.994   7.899   2.613  0.5208 -0.4343  0.2633
 5726TIP3    H117100   1.978   7.990   2.590  0.3452 -0.8726 -1.3754
 5726TIP3    H217101   1.940   7.885   2.691  1.1789  1.0763  1.0087
 5727TIP3   OH217102   3.458   5.171   0.239 -0.2568 -0.0251 -0.2680
 5727TIP3    H117103   3.521   5.226   0.192  1.3201 -1.0691  0.5710
 5727TIP3    H217104   3.395   5.144   0.172  0.2179  0.9722 -1.1398
 5728TIP3   OH217105   3.566   6.377   2.418  0.2134 -0.4319 -0.2016
 5728TIP3    H117106   3.494   6.408   2.472  1.6411  1.0712  0.9094
 5728TIP3    H217107   3.617   6.455   2.399  1.9778 -1.5783 -0.3178
 5729TIP3   OH217108   2.352   7.815   0.721  0.7264 -0.4444 -0.4552
 5729TIP3    H117109   2.434   7.767   0.729 -0.4080 -1.9898  3.1162
 5729TIP3    H217110   2.286   7.748   0.707 -0.3370  0.4788  0.0536
 5730TIP3   OH217111   4.269   5.976   1.827 -0.3922 -0.0929  0.1567
 5730TIP3    H117112   4.230   5.967   1.915 -1.2621  1.4943 -0.0411
 5730TIP3    H217113   4.300   5.888   1.806 -0.5745 -0.5992  1.8753
 5731TIP3   OH217114   7.772   3.712   6.227  0.8546  0.4876  0.0504
 5731TIP3    H117115   7.768   3.791   6.282  0.0304  0.9131 -0.6103
 5731TIP3    H217116   7.854   3.720   6.178  0.8239  0.8707  0.0661
 5732TIP3   OH217117   5.154   0.147   1.525  0.2112  0.9866  0.3129
 5732TIP3    H117118   5.129   0.161   1.617 -1.2021  1.7412 -0.1766
 5732TIP3    H217119   5.238   0.191   1.516 -0.7111  2.8976  0.6898
 5733TIP3   OH217120   0.939   2.340   6.119 -0.9049 -0.2021 -0.3343
 5733TIP3    H117121   0.889   2.400   6.174 -0.1073  0.7070 -0.5919
 5733TIP3    H217122   0.983   2.396   6.055  0.6254 -0.9498  0.0166
 5734TIP3   OH217123   4.179   7.450   3.604 -0.1149  0.0810 -0.1864
 5734TIP3    H117124   4.167   7.372   3.658  0.6799  0.6621  0.8459
 5734TIP3    H217125   4.195   7.521   3.666 -2.2949  1.3650 -1.0625
 5735TIP3   OH217126   3.552   7.174   1.581  0.1069 -0.3998 -0.0623
 5735TIP3    H117127   3.547   7.151   1.674 -0.3438 -0.4764 -0.1037
 5735TIP3    H217128   3.528   7.094   1.534  2.5017 -1.0121 -0.3133
 5736TIP3   OH217129   3.875   5.172   3.214  0.6307  0.0726  0.6094
 5736TIP3    H117130   3.952   5.125   3.181  1.7623  1.7304  0.8084
 5736TIP3    H217131   3.912   5.244   3.266 -1.0773  0.0876  1.8299
 5737TIP3   OH217132   5.487   7.481   0.156  0.2606  0.2366 -0.3820
 5737TIP3    H117133   5.496   7.558   0.213 -0.5994 -1.5311  2.2285
 5737TIP3    H217134   5.393   7.468   0.149  0.4202 -1.8074  0.9463
 5738TIP3   OH217135   2.798   7.651   0.202  0.1739 -0.0435  0.2552
 5738TIP3    H117136   2.889   7.639   0.228  0.3522 -0.2551 -0.4776
 5738TIP3    H217137   2.779   7.743   0.221  1.0961  0.4873 -1.3337
 5739TIP3   OH217138   0.283   0.451   2.163 -0.2750  0.7199  0.6609
 5739TIP3    H117139   0.239   0.404   2.234 -0.1193  1.5441  1.3019
 5739TIP3    H217140   0.217   0.457   2.094  0.3331 -2.3221 -0.3014
 5740TIP3   OH217141   3.423   5.955   1.582  0.0431 -0.1770  0.3038
 5740TIP3    H117142   3.498   5.904   1.553 -0.1032  0.1801 -0.7367
 5740TIP3    H217143   3.364   5.890   1.622  0.2235 -0.6966 -0.2605
 5741TIP3   OH217144   4.321   6.598   1.796  0.1520  0.5646  0.2431
 5741TIP3    H117145   4.311   6.533   1.726  0.3667  1.9397 -1.1124
 5741TIP3    H217146   4.360   6.674   1.752 -3.1107  2.8127  1.0533
 5742TIP3   OH217147   6.297   7.066   2.443  0.3606  0.1007 -0.3386
 5742TIP3    H117148   6.347   7.065   2.524  2.0166  1.4861 -1.2901
 5742TIP3    H217149   6.206   7.081   2.470  1.0797  1.8557  1.1957
 5743TIP3   OH217150   6.120   7.096   0.739 -0.3711 -0.6000 -0.1470
 5743TIP3    H117151   6.190   7.128   0.797 -1.3257 -1.2037  1.3529
 5743TIP3    H217152   6.164   7.081   0.655  1.4174 -1.4400  0.9061
 5744TIP3   OH217153   7.962   0.702   1.185 -0.5051  0.8274  0.1197
 5744TIP3    H117154   7.926   0.621   1.149  0.6882 -0.4022  1.6188
 5744TIP3    H217155   7.891   0.765   1.177 -1.7780 -0.6167 -0.1985
 5745TIP3   OH217156   3.157   6.577   2.287  0.3963 -0.5064 -0.1358
 5745TIP3    H117157   3.149   6.482   2.300  1.0435 -0.4373  0.9180
 5745TIP3    H217158   3.196   6.608   2.369 -1.3823  0.9076  0.2062
 5746TIP3   OH217159   4.011   5.306   1.049  0.1731 -0.1802 -0.5967
 5746TIP3    H117160   4.057   5.339   0.972  0.9328  0.0323 -0.0649
 5746TIP3    H217161   3.963   5.382   1.082  0.9666  0.1096 -0.0663
 5747TIP3   OH217162   2.551   1.770   7.178  0.1155 -0.1215 -0.0571
 5747TIP3    H117163   2.584   1.850   7.219 -0.3743 -0.1264  0.3464
 5747TIP3    H217164   2.472   1.748   7.227  0.0813 -0.6886 -0.3558
 5748TIP3   OH217165   2.599   6.948   2.340 -0.3061  0.4600  0.3492
 5748TIP3    H117166   2.504   6.950   2.328 -0.0702  0.6476 -1.8339
 5748TIP3    H217167   2.630   6.887   2.273  1.0552 -0.2265  1.5700
 5749TIP3   OH217168   4.893   5.742   0.316  0.4561 -0.2663 -0.5267
 5749TIP3    H117169   4.982   5.707   0.317  0.1774 -1.0229 -1.2320
 5749TIP3    H217170   4.893   5.806   0.246  0.5380 -0.0167 -0.2986
 5750TIP3   OH217171   8.866   0.439   2.493  0.1016  0.2884  0.2134
 5750TIP3    H117172   8.862   0.519   2.545  0.6883  0.6376 -0.2851
 5750TIP3    H217173   8.828   0.462   2.409 -0.3118 -0.1261  0.2813
 5751TIP3   OH217174   7.423   7.031   1.780 -0.3945  0.2589  0.5457
 5751TIP3    H117175   7.426   7.108   1.724 -2.8269  1.0160  1.3811
 5751TIP3    H217176   7.473   7.055   1.858 -0.6445  0.7790  0.5448
 5752TIP3   OH217177   3.832   6.040   2.781  0.5580 -0.5229 -0.1075
 5752TIP3    H117178   3.879   5.961   2.753 -1.7787 -1.4428 -1.6213
 5752TIP3    H217179   3.807   6.083   2.699 -2.3877 -0.8102  0.5828
 5753TIP3   OH217180   2.675   7.922   0.175  0.1253 -0.1698  0.0300
 5753TIP3    H117181   2.719   7.929   0.260 -0.5573  0.8586  0.3182
 5753TIP3    H217182   2.714   7.991   0.122 -0.9146  0.5641  0.1966
 5754TIP3   OH217183   8.232   0.326   0.320  0.8228  0.4913 -0.4761
 5754TIP3    H117184   8.285   0.402   0.296  0.1953  0.8442 -0.7706
 5754TIP3    H217185   8.261   0.304   0.409  1.2388  0.8733 -0.5151
 5755TIP3   OH217186   7.184   6.493   0.509  0.2341  0.0506 -0.6057
 5755TIP3    H117187   7.155   6.528   0.594  1.3305  0.4294 -0.3860
 5755TIP3    H217188   7.224   6.409   0.530 -2.0935 -1.2128 -1.0960
 5756TIP3   OH217189   4.488   6.369   0.909 -0.1286 -0.1895  0.4744
 5756TIP3    H117190   4.415   6.389   0.968  0.9914 -0.5372  1.9972
 5756TIP3    H217191   4.484   6.436   0.842 -1.0441  0.5848  1.2898
 5757TIP3   OH217192   5.421   0.605   0.985 -0.5126  0.4776  0.4818
 5757TIP3    H117193   5.443   0.616   0.892 -0.2055  0.7676  0.5829
 5757TIP3    H217194   5.412   0.511   0.997 -2.2321  0.5313 -0.2135
 5758TIP3   OH217195   3.276   7.314   0.856 -0.3127  0.0510 -0.2498
 5758TIP3    H117196   3.211   7.323   0.786  0.6114 -0.9330 -1.2702
 5758TIP3    H217197   3.225   7.288   0.933 -1.1069 -0.9852 -1.1039
 5759TIP3   OH217198   4.764   4.441   5.869  0.4422 -0.9007 -0.7276
 5759TIP3    H117199   4.681   4.436   5.916 -1.1896  2.2450 -3.0465
 5759TIP3    H217200   4.761   4.369   5.806 -0.5536 -0.7739 -0.8271
 5760TIP3   OH217201   3.389   5.739   0.569 -0.3756  0.1601  0.4217
 5760TIP3    H117202   3.319   5.785   0.522 -1.3036 -1.2731  0.3798
 5760TIP3    H217203   3.351   5.717   0.654  0.2431 -0.0393  0.6508
 5761TIP3   OH217204   2.615   7.893   2.508  0.0900 -0.0279 -0.1170
 5761TIP3    H117205   2.520   7.889   2.515  0.1783 -0.2729  1.1803
 5761TIP3    H217206   2.646   7.841   2.583  1.2351 -0.8192 -1.1276
 5762TIP3   OH217207   5.114   7.069   0.774  0.1542 -0.2263 -0.0147
 5762TIP3    H117208   5.173   7.144   0.764 -0.2606 -0.1620 -2.0679
 5762TIP3    H217209   5.039   7.090   0.719  0.6788 -2.8083 -1.7631
 5763TIP3   OH217210   4.449   6.408  -0.001  0.4497  0.0596  0.3714
 5763TIP3    H117211   4.398   6.487  -0.020  1.2441  0.6946  0.8417
 5763TIP3    H217212   4.384   6.344   0.026 -0.4235 -0.0502 -1.8683
 5764TIP3   OH217213   7.790   0.459   1.892 -0.2573 -0.0108 -0.1443
 5764TIP3    H117214   7.757   0.536   1.845  0.7252 -0.5401 -1.7441
 5764TIP3    H217215   7.712   0.406   1.909 -1.0849  1.7394  1.8074
 5765TIP3   OH217216   4.374   6.064   0.472  0.3378 -0.4873 -0.1244
 5765TIP3    H117217   4.428   6.026   0.402  2.2876 -0.2698  1.2272
 5765TIP3    H217218   4.421   6.143   0.497 -0.1365 -0.7759  1.7052
 5766TIP3   OH217219   6.153   8.119   1.621 -0.2194 -0.1302 -0.1415
 5766TIP3    H117220   6.188   8.031   1.634 -0.2387 -0.0324  0.6059
 5766TIP3    H217221   6.210   8.159   1.556  0.4695 -0.3008  0.3575
 5767TIP3   OH217222   3.252   4.794   0.380  0.0969  0.1077 -0.0095
 5767TIP3    H117223   3.184   4.728   0.378  1.3196 -1.1941  0.4727
 5767TIP3    H217224   3.334   4.745   0.369  1.2363  1.2240  2.9919
 5768TIP3   OH217225   5.393   7.206   1.382 -0.3554 -0.0482 -0.1221
 5768TIP3    H117226   5.483   7.205   1.415 -0.9148 -2.3568  1.4563
 5768TIP3    H217227   5.343   7.159   1.448 -2.5113  0.0213 -1.6491
 5769TIP3   OH217228   7.600   0.116   2.265 -0.0616 -0.2857 -0.0141
 5769TIP3    H117229   7.612   0.166   2.184 -0.9592  0.1587  0.1204
 5769TIP3    H217230   7.593   0.183   2.333  0.9325 -0.6647  0.4617
 5770TIP3   OH217231   5.375   6.768   2.035 -0.5195 -0.0389 -0.2467
 5770TIP3    H117232   5.348   6.677   2.020  0.6221 -0.0782 -2.1448
 5770TIP3    H217233   5.292   6.815   2.048 -1.2339 -0.9864 -1.2876
 5771TIP3   OH217234   3.086   8.000   0.636 -0.0865  0.5353 -0.3203
 5771TIP3    H117235   3.111   7.969   0.549 -2.8362  0.4041 -1.1021
 5771TIP3    H217236   3.059   8.091   0.623  0.8642  0.9622  0.6522
 5772TIP3   OH217237   5.303   7.104   1.633 -0.0130  0.5547 -0.0190
 5772TIP3    H117238   5.291   7.199   1.633  0.1952  0.6014  1.7661
 5772TIP3    H217239   5.349   7.086   1.715 -0.7865 -1.1766  0.0512
 5773TIP3   OH217240   6.540   0.666   3.813 -0.1547 -0.0151 -0.1261
 5773TIP3    H117241   6.624   0.711   3.825  0.6682 -1.2954 -0.9325
 5773TIP3    H217242   6.506   0.701   3.731 -0.6051  0.7987  0.4044
 5774TIP3   OH217243   3.644   3.555   6.558  0.2846 -0.2343 -0.1801
 5774TIP3    H117244   3.662   3.507   6.639  0.4663  0.5121  0.2317
 5774TIP3    H217245   3.677   3.498   6.488  0.9624 -0.4797  0.3334
 5775TIP3   OH217246   1.494   7.310   2.097  0.0056  0.3805  0.4186
 5775TIP3    H117247   1.515   7.225   2.135 -1.3124  0.1265  0.6028
 5775TIP3    H217248   1.575   7.338   2.054  0.6508 -0.6425  0.9542
 5776TIP3   OH217249   7.622   1.407   0.381 -0.4034  0.3941 -0.0301
 5776TIP3    H117250   7.708   1.441   0.355 -0.0589  0.0688  0.6586
 5776TIP3    H217251   7.642   1.326   0.428 -1.2537 -1.4492 -2.7064
 5777TIP3   OH217252   5.092   7.681   4.301 -0.0717 -0.5274 -0.3131
 5777TIP3    H117253   5.068   7.774   4.300 -1.4525 -0.8592  0.5609
 5777TIP3    H217254   5.111   7.661   4.209  2.6731  1.1974 -0.1859
 5778TIP3   OH217255   7.064   3.230   2.326 -0.2121  0.5122 -0.1621
 5778TIP3    H117256   7.138   3.171   2.339 -0.1382  0.7426  0.4596
 5778TIP3    H217257   7.094   3.313   2.362 -0.8253  0.5675  0.2186
 5779TIP3   OH217258   3.295   5.849   0.911 -0.0452 -0.4691 -0.0958
 5779TIP3    H117259   3.282   5.906   0.835  0.9368 -0.0226  0.0746
 5779TIP3    H217260   3.269   5.762   0.879  1.7809 -0.5661 -1.4066
 5780TIP3   OH217261   2.958   6.999   2.374 -0.4816  0.4552 -0.7951
 5780TIP3    H117262   2.864   6.989   2.391 -0.2314  0.2109  0.5016
 5780TIP3    H217263   2.999   6.932   2.428  0.3091 -0.9315 -3.0770
 5781TIP3   OH217264   3.805   7.218   2.432 -0.3720 -0.4702  0.3265
 5781TIP3    H117265   3.898   7.239   2.446 -0.9491  1.7717  0.9645
 5781TIP3    H217266   3.798   7.125   2.455  1.6929 -0.6486  0.3379
 5782TIP3   OH217267   3.317   4.401   6.717 -0.4921 -0.5706  0.0868
 5782TIP3    H117268   3.366   4.348   6.781 -2.3962 -1.2505  1.0011
 5782TIP3    H217269   3.262   4.338   6.671  0.8028 -0.0703 -2.2104
 5783TIP3   OH217270   4.209   7.805   2.196  0.0667 -0.2603 -0.4232
 5783TIP3    H117271   4.287   7.756   2.170  1.3157  0.3112  2.0332
 5783TIP3    H217272   4.205   7.794   2.291 -2.3050  0.5268 -0.4039
 5784TIP3   OH217273   5.553   1.610   1.580 -0.5669  0.3753  0.1529
 5784TIP3    H117274   5.576   1.640   1.668 -1.6064 -1.7431  1.1873
 5784TIP3    H217275   5.637   1.593   1.538 -0.0336  2.2928  0.3976
 5785TIP3   OH217276   6.659   0.849   0.432 -0.1680  0.2744  0.1133
 5785TIP3    H117277   6.708   0.854   0.514 -0.8532  0.8844  0.4899
 5785TIP3    H217278   6.677   0.761   0.399 -1.0163 -0.4917  1.6367
 5786TIP3   OH217279   2.461   5.403   0.349  0.2504 -0.0357 -0.0438
 5786TIP3    H117280   2.385   5.381   0.402  0.8778 -2.1844  0.0072
 5786TIP3    H217281   2.516   5.325   0.352  0.2010 -0.3350 -4.0442
 5787TIP3   OH217282   3.191   3.538   6.512  0.3594  0.4872  0.0015
 5787TIP3    H117283   3.222   3.624   6.485  3.1730 -0.3235  0.5276
 5787TIP3    H217284   3.122   3.517   6.449 -0.8095  3.3785  0.2721
 5788TIP3   OH217285   1.361   2.054   7.010  0.1544  0.1776 -0.0743
 5788TIP3    H117286   1.269   2.045   7.035 -0.1900 -0.0256 -1.3643
 5788TIP3    H217287   1.378   2.148   7.013 -0.1714  0.2372 -0.0589
 5789TIP3   OH217288   1.711   4.193   6.253 -0.4758 -0.0008 -0.7103
 5789TIP3    H117289   1.786   4.215   6.197 -1.1254 -0.4677 -1.7958
 5789TIP3    H217290   1.667   4.276   6.267  0.6589  0.4033  0.5712
 5790TIP3   OH217291   1.682   6.839   2.298 -0.2570  0.2857  0.2955
 5790TIP3    H117292   1.691   6.766   2.237  0.4564  1.8279 -1.4681
 5790TIP3    H217293   1.766   6.842   2.344 -0.6946 -0.6969  1.1896
 5791TIP3   OH217294   0.411   1.367   5.679  0.2891 -0.0571 -0.2535
 5791TIP3    H117295   0.447   1.456   5.679  0.4063 -0.0959  0.6568
 5791TIP3    H217296   0.487   1.310   5.687  0.2875 -0.2897 -1.7247
 5792TIP3   OH217297   5.176   5.474   1.168 -0.3987 -0.0655  0.0914
 5792TIP3    H117298   5.126   5.399   1.198 -0.7962  0.2324  0.1727
 5792TIP3    H217299   5.215   5.446   1.086  0.1525 -0.6578  0.5462
 5793TIP3   OH217300   4.977   7.114   1.993 -0.1708  0.1516  0.2730
 5793TIP3    H117301   4.953   7.203   2.020  0.7703  0.6520 -0.5339
 5793TIP3    H217302   4.974   7.116   1.898 -1.3893 -1.0403  0.2703
 5794TIP3   OH217303   8.213   1.733   7.100  0.2494  0.2236  0.2352
 5794TIP3    H117304   8.157   1.744   7.177  0.3177  0.8546  0.1914
 5794TIP3    H217305   8.156   1.755   7.026  0.0171 -0.9256  0.0594
 5795TIP3   OH217306   1.600   2.400   6.507  0.4315  0.1362  0.1578
 5795TIP3    H117307   1.588   2.421   6.600  1.8496  1.4041  0.0661
 5795TIP3    H217308   1.580   2.482   6.462 -0.8388 -0.6362 -0.7232
 5796TIP3   OH217309   5.294   8.276   2.543  0.4393  0.0202  0.7564
 5796TIP3    H117310   5.337   8.205   2.495 -1.4281 -0.2018 -0.6482
 5796TIP3    H217311   5.251   8.232   2.616 -0.4176 -0.2841  0.0884
 5797TIP3   OH217312   5.743   7.435   0.034 -0.1349 -0.0273 -0.3065
 5797TIP3    H117313   5.653   7.434   0.068 -0.6247  1.2916 -1.4892
 5797TIP3    H217314   5.776   7.522   0.055  0.7511 -0.3841 -0.1910
 5798TIP3   OH217315   5.486   0.554   0.098  0.1120  0.4319  0.1670
 5798TIP3    H117316   5.469   0.629   0.042 -0.9773  0.0415 -0.0466
 5798TIP3    H217317   5.399   0.517   0.116  0.5371 -0.0909  1.2089
 5799TIP3   OH217318   4.766   7.704   0.577  0.2558 -0.4356 -0.4749
 5799TIP3    H117319   4.689   7.664   0.616 -0.1251 -0.8622 -1.6390
 5799TIP3    H217320   4.829   7.713   0.649 -0.2956 -1.5388  0.1374
 5800TIP3   OH217321   3.769   5.532   2.571 -0.4733 -0.3227  0.2582
 5800TIP3    H117322   3.709   5.457   2.572 -0.2278 -0.5312  2.6084
 5800TIP3    H217323   3.856   5.492   2.578 -0.2194  0.0891 -0.5516
 5801TIP3   OH217324   4.168   6.067   1.425  0.4560  0.4893 -0.0590
 5801TIP3    H117325   4.078   6.099   1.422 -0.2081 -1.3486  0.0476
 5801TIP3    H217326   4.194   6.060   1.333 -0.0596 -0.5101 -0.1281
 5802TIP3   OH217327   5.758   0.223   1.349  0.2170 -0.5482 -0.3934
 5802TIP3    H117328   5.726   0.285   1.284 -0.0665 -0.8474 -0.5416
 5802TIP3    H217329   5.793   0.150   1.298  0.4968 -0.5376 -0.2186
 5803TIP3   OH217330   5.151   7.307   1.146  0.5642 -0.1247 -0.3031
 5803TIP3    H117331   5.177   7.365   1.075  0.1693  0.1488 -0.2280
 5803TIP3    H217332   5.170   7.356   1.226 -0.3560  0.1690 -0.2483
 5804TIP3   OH217333   5.994   7.699   0.704 -0.8153  0.2302  0.2231
 5804TIP3    H117334   6.078   7.709   0.748 -1.6742 -1.0949  2.2593
 5804TIP3    H217335   5.974   7.606   0.711 -1.8259  0.2901 -1.4619
 5805TIP3   OH217336   6.787   0.522   1.097 -0.3224 -0.0237 -0.0334
 5805TIP3    H117337   6.699   0.560   1.105 -0.2350 -0.3019  2.5693
 5805TIP3    H217338   6.844   0.583   1.143  0.1625 -1.9866  2.0964
 5806TIP3   OH217339   1.656   3.316   6.767 -0.2605  0.3153  0.1750
 5806TIP3    H117340   1.692   3.404   6.772  0.0314  0.2297 -0.4713
 5806TIP3    H217341   1.625   3.298   6.856 -0.6407  1.1992  0.2271
 5807TIP3   OH217342   4.203   8.314   0.618  0.6754  0.3303 -0.0054
 5807TIP3    H117343   4.156   8.355   0.690  0.2704  0.9926 -0.6362
 5807TIP3    H217344   4.142   8.317   0.544 -0.0496 -3.0312  0.3847
 5808TIP3   OH217345   2.959   7.463   0.011  0.0923  0.5956  0.1973
 5808TIP3    H117346   2.986   7.516   0.086  0.7281  1.2073 -0.4507
 5808TIP3    H217347   2.911   7.390   0.049 -1.2725  1.9304  1.0789
 5809TIP3   OH217348   4.002   7.547   0.383 -0.2016 -0.0906 -0.0950
 5809TIP3    H117349   4.047   7.502   0.454 -0.8307 -1.7301 -0.7184
 5809TIP3    H217350   3.936   7.601   0.428  1.2184  1.0017  0.7095
 5810TIP3   OH217351   3.824   7.274   2.787  0.3639 -0.1533  0.2653
 5810TIP3    H117352   3.908   7.314   2.763  0.9215 -0.1588  2.0781
 5810TIP3    H217353   3.758   7.326   2.741  1.4507 -1.6874 -3.1981
 5811TIP3   OH217354   3.714   7.656   0.785  0.2828 -0.6490  0.4159
 5811TIP3    H117355   3.703   7.579   0.729  0.4236  0.1988 -0.8009
 5811TIP3    H217356   3.626   7.676   0.816 -0.3139  0.6704 -1.9653
 5812TIP3   OH217357   2.946   7.879   1.831 -0.5918  0.1570  0.0764
 5812TIP3    H117358   3.025   7.826   1.820 -0.4265  0.2530  0.8152
 5812TIP3    H217359   2.877   7.827   1.788  0.1762  0.8677 -2.1210
 5813TIP3   OH217360   4.110   7.277   1.893 -0.1343  0.1235 -0.2607
 5813TIP3    H117361   4.165   7.322   1.957 -1.9231  1.6629  0.2488
 5813TIP3    H217362   4.089   7.193   1.934  0.1913  0.3678  0.4129
 5814TIP3   OH217363   3.914   6.943   0.971 -0.2662 -0.3166  0.0873
 5814TIP3    H117364   3.927   6.859   1.015  0.3243 -0.5303 -0.4829
 5814TIP3    H217365   3.936   7.009   1.037  0.1960 -0.6280  0.2421
 5815TIP3   OH217366   7.474   2.660   6.411 -0.4616  0.2187 -0.3884
 5815TIP3    H117367   7.528   2.696   6.481 -1.1482  0.9297 -0.2137
 5815TIP3    H217368   7.526   2.672   6.332 -0.3693  0.9113 -0.2249
 5816TIP3   OH217369   1.103   2.544   6.854 -0.7264  0.0621  0.0393
 5816TIP3    H117370   1.123   2.630   6.893 -0.0061 -0.3974  0.7184
 5816TIP3    H217371   1.131   2.552   6.763 -0.9378  0.6506  0.0235
 5817TIP3   OH217372   3.303   6.631   2.536 -0.0026 -0.4913  0.0653
 5817TIP3    H117373   3.395   6.654   2.546 -0.2251  0.3851  0.1618
 5817TIP3    H217374   3.295   6.545   2.577  1.0141 -1.1070 -1.0317
 5818TIP3   OH217375   5.742   1.341   2.841  0.1214  0.0638  0.4370
 5818TIP3    H117376   5.772   1.366   2.928 -1.0197 -1.7215  1.3679
 5818TIP3    H217377   5.658   1.298   2.856 -0.6376  0.7369 -1.6671
 5819TIP3   OH217378   4.937   6.169   2.982  0.6975  0.3595 -0.3817
 5819TIP3    H117379   4.939   6.080   2.948  0.3840  0.8296 -1.6585
 5819TIP3    H217380   5.002   6.169   3.053 -1.3599 -1.6208  1.5824
 5820TIP3   OH217381   7.594   0.546   3.177  0.3400  0.1378  0.3680
 5820TIP3    H117382   7.525   0.572   3.238 -0.1727  1.9799 -0.9607
 5820TIP3    H217383   7.637   0.472   3.220 -0.9883  0.4243  2.2565
 5821TIP3   OH217384   4.149   6.988   3.235  0.3875 -0.3676  0.3916
 5821TIP3    H117385   4.095   6.952   3.164  1.0550  0.3449 -0.4854
 5821TIP3    H217386   4.095   7.057   3.273  1.2341  1.4035 -1.4874
 5822TIP3   OH217387   7.002   1.544   1.924 -0.2990  0.1585 -0.2583
 5822TIP3    H117388   6.972   1.548   1.833 -4.7323 -0.4087  1.0886
 5822TIP3    H217389   7.044   1.458   1.931 -2.8735 -1.1985 -0.9764
 5823TIP3   OH217390   6.606   0.633   0.764  0.0009  0.7104 -0.7599
 5823TIP3    H117391   6.608   0.645   0.859  1.7493 -1.0449 -0.5210
 5823TIP3    H217392   6.652   0.709   0.729  2.4803 -0.3263  0.0732
 5824TIP3   OH217393   1.778   6.716   1.519 -0.8395 -0.2339 -0.3859
 5824TIP3    H117394   1.834   6.645   1.486 -2.0616 -0.5157 -1.9791
 5824TIP3    H217395   1.705   6.670   1.562 -0.2931  0.1055  0.8880
 5825TIP3   OH217396   3.409   7.137   1.174 -0.1657  0.3141  0.0187
 5825TIP3    H117397   3.494   7.093   1.171  0.7340  2.0779 -1.2170
 5825TIP3    H217398   3.423   7.213   1.230 -0.6494  1.1561 -0.9784
 5826TIP3   OH217399   3.440   5.953   1.136 -0.4763  0.0722 -0.0261
 5826TIP3    H117400   3.359   5.918   1.097 -0.2741 -1.5787  0.9623
 5826TIP3    H217401   3.490   5.875   1.160  0.1269  1.0667  2.0331
 5827TIP3   OH217402   2.363   4.776   6.659  0.2996 -0.0711 -0.3382
 5827TIP3    H117403   2.270   4.779   6.680  0.8491 -1.7270  2.4375
 5827TIP3    H217404   2.407   4.806   6.739  2.2715 -2.3656 -0.5317
 5828TIP3   OH217405   3.971   7.983   0.036 -0.1620  0.6044  0.2956
 5828TIP3    H117406   3.916   7.939   0.101  1.4914  0.0003  1.3387
 5828TIP3    H217407   4.050   7.929   0.032  1.3117  2.6695  0.5169
 5829TIP3   OH217408   4.893   0.112   2.046  0.0425 -0.4152 -0.1953
 5829TIP3    H117409   4.817   0.105   2.104 -1.0347  0.1355 -1.5234
 5829TIP3    H217410   4.924   0.022   2.036 -1.2771 -0.8208 -0.7448
 5830TIP3   OH217411   1.409   7.067   1.291  0.2663  0.0130 -0.2395
 5830TIP3    H117412   1.470   6.993   1.294  0.3024 -0.0670 -2.1213
 5830TIP3    H217413   1.401   7.087   1.198 -2.4383  0.1514 -0.0067
 5831TIP3   OH217414   0.901   3.308   6.382  0.0776 -0.2345 -0.7786
 5831TIP3    H117415   0.864   3.220   6.393 -2.9026  0.9642 -0.7111
 5831TIP3    H217416   0.888   3.328   6.289  1.2601 -0.0923 -0.9148
 5832TIP3   OH217417   4.496   5.563   0.871 -0.4407  0.2049  0.1581
 5832TIP3    H117418   4.543   5.603   0.798 -0.6568 -0.3266 -0.2793
 5832TIP3    H217419   4.466   5.479   0.836 -0.8573  0.1099  0.7474
 5833TIP3   OH217420   6.004   7.532   2.820  0.4450  0.0599  0.5485
 5833TIP3    H117421   6.019   7.623   2.794 -0.6338 -0.2160 -1.1292
 5833TIP3    H217422   6.069   7.482   2.770 -0.5622 -0.3189 -0.3959
 5834TIP3   OH217423   4.267   6.768   2.450 -0.0303  0.1169 -0.0607
 5834TIP3    H117424   4.238   6.754   2.540 -0.8755  1.5797 -0.0984
 5834TIP3    H217425   4.190   6.803   2.405 -0.1751 -2.3326 -1.8172
 5835TIP3   OH217426   5.801   1.172   0.199  0.3118  0.3624 -0.0865
 5835TIP3    H117427   5.739   1.226   0.151  1.3206  1.0681 -0.6135
 5835TIP3    H217428   5.818   1.221   0.279 -1.3080 -0.7735  0.9847
 5836TIP3   OH217429   3.173   4.822   0.659  0.0268 -0.5051 -0.8103
 5836TIP3    H117430   3.264   4.850   0.653 -0.4476  1.0038 -1.1735
 5836TIP3    H217431   3.161   4.765   0.583  1.6378 -3.6471  1.1986
 5837TIP3   OH217432   5.092   7.588   1.843 -0.6714  1.1921 -0.3035
 5837TIP3    H117433   5.000   7.560   1.846 -0.8146  1.6484 -0.4027
 5837TIP3    H217434   5.092   7.675   1.884 -0.3716  1.4205 -0.7793
 5838TIP3   OH217435   3.538   7.416   0.831 -0.1491 -0.5705  0.2829
 5838TIP3    H117436   3.455   7.368   0.832  0.9062 -2.4552  1.8478
 5838TIP3    H217437   3.597   7.363   0.885  1.9752  0.9238 -0.4954
 5839TIP3   OH217438   6.300   1.126   0.726 -0.0999 -0.0946  0.3066
 5839TIP3    H117439   6.228   1.190   0.725 -0.9648 -0.9934 -4.3083
 5839TIP3    H217440   6.372   1.171   0.680  1.3817 -0.2635  2.3944
 5840TIP3   OH217441   1.016   7.132   6.023  0.7945 -0.3428 -0.6722
 5840TIP3    H117442   1.074   7.069   6.066  0.2984 -0.9292 -0.8414
 5840TIP3    H217443   0.940   7.079   5.995  0.8651  0.1216 -1.7793
 5841TIP3   OH217444   4.830   7.756   2.680  0.1535  0.2862 -0.6680
 5841TIP3    H117445   4.818   7.837   2.730 -1.4252  1.8525 -3.4462
 5841TIP3    H217446   4.894   7.779   2.612  0.0628 -0.9399 -1.1829
 5842TIP3   OH217447   7.965   1.179   1.655  0.0040  0.2791 -0.3401
 5842TIP3    H117448   8.038   1.182   1.717  0.5960 -0.7055 -0.9666
 5842TIP3    H217449   7.888   1.204   1.706  0.4454 -0.7098  0.8334
 5843TIP3   OH217450   3.951   6.515   2.772  0.9148 -0.3057  0.5198
 5843TIP3    H117451   3.917   6.429   2.797  0.5486 -0.3949 -0.2461
 5843TIP3    H217452   4.000   6.498   2.692  0.7167  0.2200  0.2839
 5844TIP3   OH217453   0.127   2.853   6.834  0.2787 -0.0606 -0.4947
 5844TIP3    H117454   0.149   2.832   6.924 -1.3702  0.6088  0.0846
 5844TIP3    H217455   0.051   2.911   6.840  0.1974  0.0697 -2.3039
 5845TIP3   OH217456   6.280   0.929   1.483 -0.1059  0.1178 -0.0244
 5845TIP3    H117457   6.270   0.841   1.519 -0.1035  0.8019  1.6962
 5845TIP3    H217458   6.375   0.942   1.479 -0.1031  1.0796  2.3932
 5846TIP3   OH217459   0.676   4.466   6.773  0.1682  0.0590  0.2457
 5846TIP3    H117460   0.598   4.520   6.779  0.7253  0.7291  1.7741
 5846TIP3    H217461   0.647   4.387   6.729 -0.8160  1.3105 -1.4267
 5847TIP3   OH217462   5.874   6.329   1.503  0.2748 -0.1843  0.5194
 5847TIP3    H117463   5.897   6.306   1.413 -0.4502 -1.2618  0.5967
 5847TIP3    H217464   5.832   6.250   1.538  0.1022  0.3923  1.6427
 5848TIP3   OH217465   1.798   1.802   6.408  0.1296 -0.4250 -0.0719
 5848TIP3    H117466   1.773   1.858   6.482 -0.5690 -0.2909 -0.3996
 5848TIP3    H217467   1.823   1.864   6.339  1.0975 -0.5567  0.1614
 5849TIP3   OH217468   2.945   7.095   0.907  0.3081  0.0132  0.2461
 5849TIP3    H117469   2.933   7.154   0.981 -2.5832  0.7460 -0.7172
 5849TIP3    H217470   2.985   7.149   0.839 -1.8588  0.8060 -0.4567
 5850TIP3   OH217471   1.409   0.920   7.093 -0.1600 -0.0318 -0.5945
 5850TIP3    H117472   1.421   0.826   7.109  1.8121  0.1900 -0.6609
 5850TIP3    H217473   1.323   0.939   7.130 -0.1840 -1.6727  0.2665
 5851TIP3   OH217474   5.514   6.126   3.437  0.7177  0.6972 -0.3052
 5851TIP3    H117475   5.579   6.061   3.409  0.0841  0.3540 -0.9956
 5851TIP3    H217476   5.480   6.091   3.520  0.6559  0.3431 -0.4788
 5852TIP3   OH217477   2.462   5.268   1.038 -0.1768  0.1945 -0.4708
 5852TIP3    H117478   2.503   5.355   1.040 -1.2119  0.7205 -1.1276
 5852TIP3    H217479   2.394   5.276   0.970 -1.0164 -0.7890  0.2449
 5853TIP3   OH217480   1.800   2.079   6.539  0.7411  0.0930  0.0710
 5853TIP3    H117481   1.896   2.073   6.543  0.7579  0.3399  0.0125
 5853TIP3    H217482   1.775   2.120   6.621  0.6235 -0.7438  0.4590
 5854TIP3   OH217483   3.948   6.224   3.357 -0.2785  0.0509  0.0956
 5854TIP3    H117484   3.933   6.318   3.342  0.5860 -0.0541 -1.5054
 5854TIP3    H217485   4.042   6.219   3.378 -0.1421 -0.5626 -0.6761
 5855TIP3   OH217486   2.324   5.739   2.988 -0.2669 -0.6041  0.4303
 5855TIP3    H117487   2.256   5.781   3.041 -0.6751 -1.3342  0.4917
 5855TIP3    H217488   2.394   5.804   2.983 -0.6737 -0.1204  0.9660
 5856TIP3   OH217489   5.814   5.797   2.111 -0.0827 -0.4798  0.1070
 5856TIP3    H117490   5.880   5.807   2.180  0.9999  2.3939 -1.2494
 5856TIP3    H217491   5.731   5.789   2.157  1.0505 -2.9114  1.8126
 5857TIP3   OH217492   3.988   7.102   2.929  0.5807  0.0794  0.5943
 5857TIP3    H117493   3.907   7.094   2.877  0.4442  1.6221  0.5394
 5857TIP3    H217494   4.007   7.196   2.928  2.2506 -0.2542  0.8110
 5858TIP3   OH217495   3.258   6.293   3.040 -0.3762  0.2762  0.1021
 5858TIP3    H117496   3.279   6.370   2.987 -0.4555  0.5032  0.4044
 5858TIP3    H217497   3.200   6.241   2.984 -1.1950  0.9614  0.3146
 5859TIP3   OH217498   2.689   5.267   0.200  0.3414 -0.2556 -0.6346
 5859TIP3    H117499   2.652   5.327   0.134 -0.2509  0.9838  0.8090
 5859TIP3    H217500   2.773   5.241   0.163 -0.4544 -0.4646 -2.4097
 5860TIP3   OH217501   4.009   7.385   1.652  0.8573  0.0772  0.0153
 5860TIP3    H117502   4.045   7.333   1.724  0.6480 -0.1769 -0.0630
 5860TIP3    H217503   3.946   7.326   1.609  1.0836  0.1801 -0.4585
 5861TIP3   OH217504   2.433   7.856   0.347 -0.2046 -0.2916  0.5033
 5861TIP3    H117505   2.447   7.890   0.435  1.9068 -0.1874  0.1418
 5861TIP3    H217506   2.429   7.934   0.292  0.9008 -0.4606  0.1811
 5862TIP3   OH217507   3.715   4.954   2.700  0.7395  0.3303 -0.1192
 5862TIP3    H117508   3.796   4.910   2.675  1.6926  2.2079 -0.4128
 5862TIP3    H217509   3.742   5.019   2.765 -0.3965  1.4507 -0.7391
 5863TIP3   OH217510   3.929   6.528   2.176 -0.5052 -0.3460 -0.5266
 5863TIP3    H117511   3.925   6.442   2.219  1.7045 -1.1449 -1.8114
 5863TIP3    H217512   3.880   6.516   2.094  1.5612 -1.0575 -1.7080
 5864TIP3   OH217513   3.689   7.107   2.010  0.3009 -0.3138  0.0126
 5864TIP3    H117514   3.646   7.073   2.089 -2.0778  2.5682  0.0433
 5864TIP3    H217515   3.638   7.072   1.937  1.0882 -1.0930 -0.1710
 5865TIP3   OH217516   6.853   0.368   2.074  0.4089 -0.5001 -0.2877
 5865TIP3    H117517   6.885   0.312   2.003  1.3207  0.2059 -0.4459
 5865TIP3    H217518   6.768   0.331   2.098  1.0887 -2.0851 -0.2438
 5866TIP3   OH217519   3.340   7.563   0.229  0.1384 -0.2086 -0.1944
 5866TIP3    H117520   3.359   7.490   0.169 -0.1905 -0.7957  0.4019
 5866TIP3    H217521   3.378   7.535   0.313 -1.4860 -0.4603  0.4810
 5867TIP3   OH217522   1.920   3.904   6.512  0.7322 -0.4697  0.6829
 5867TIP3    H117523   2.008   3.917   6.477  0.2341  2.1564  0.2854
 5867TIP3    H217524   1.933   3.863   6.597  2.3561  0.3760  0.8506
 5868TIP3   OH217525   6.585   0.981   1.754 -0.4693  0.2724 -0.0875
 5868TIP3    H117526   6.669   0.983   1.800  0.5133 -1.1839 -1.7692
 5868TIP3    H217527   6.557   1.072   1.750 -0.0630  0.5261  2.4475
 5869TIP3   OH217528   0.038   0.211   2.142  0.8500 -0.0144 -0.0439
 5869TIP3    H117529   0.110   0.157   2.173 -0.4666 -1.6662  0.2315
 5869TIP3    H217530  -0.005   0.157   2.075 -0.6263  0.5703  0.4077
 5870TIP3   OH217531   7.942   7.610   0.539  0.4187 -0.6558  0.7845
 5870TIP3    H117532   7.982   7.692   0.570 -0.4399  0.2528 -0.4476
 5870TIP3    H217533   7.986   7.594   0.455  0.1099 -1.1114  0.7139
 5871TIP3   OH217534   0.765   2.751   6.560  0.9194  0.4209 -0.9912
 5871TIP3    H117535   0.789   2.660   6.578  0.0695 -0.0708 -2.2700
 5871TIP3    H217536   0.697   2.745   6.492  1.5027  2.0458 -1.7340
 5872TIP3   OH217537   4.061   7.255   2.473 -0.7634 -0.0335  0.0077
 5872TIP3    H117538   4.124   7.233   2.404  0.0598  0.8662  0.4562
 5872TIP3    H217539   4.093   7.339   2.507 -2.3598  0.5552  0.0613
 5873TIP3   OH217540   8.581   0.090   0.057  0.5007 -0.4861  0.1520
 5873TIP3    H117541   8.506   0.126   0.106  0.3244 -0.2817 -0.2696
 5873TIP3    H217542   8.645   0.161   0.057 -0.1008  0.0726 -1.2448
 5874TIP3   OH217543   3.112   7.174   3.581  0.0475 -0.5145 -0.2215
 5874TIP3    H117544   3.117   7.092   3.630 -0.6917 -0.0774  0.6048
 5874TIP3    H217545   3.177   7.230   3.622 -1.4286  0.2737  1.0975
 5875TIP3   OH217546   4.968   7.341   0.841  0.0735  0.1871 -0.1762
 5875TIP3    H117547   4.983   7.320   0.749 -1.9243 -1.0959 -0.2383
 5875TIP3    H217548   5.055   7.336   0.881  1.2728  2.6622 -2.3252
 5876TIP3   OH217549   7.860   0.376   0.649  0.3582 -0.1930 -0.3733
 5876TIP3    H117550   7.933   0.426   0.613  0.2530  0.7185  0.6779
 5876TIP3    H217551   7.858   0.399   0.742 -0.7989 -0.7912 -0.2412
 5877TIP3   OH217552   2.677   3.467   6.573  0.3155  0.0106  0.2505
 5877TIP3    H117553   2.716   3.543   6.618  0.7972  0.2800 -0.6147
 5877TIP3    H217554   2.682   3.489   6.480 -1.5650 -0.1241  0.0998
 5878TIP3   OH217555   6.407   7.967   2.701 -0.0512 -0.1768 -0.3115
 5878TIP3    H117556   6.318   7.987   2.730  0.9817  1.4256  1.9673
 5878TIP3    H217557   6.415   7.872   2.709 -2.2405 -0.6296 -2.7305
 5879TIP3   OH217558   3.705   7.714   2.216 -0.1908  0.0755 -0.2907
 5879TIP3    H117559   3.773   7.646   2.222  1.0809  1.4835  2.1506
 5879TIP3    H217560   3.753   7.793   2.190 -1.0822  0.8395  0.3707
 5880TIP3   OH217561   7.458   0.511   2.203  0.3804  0.1454  0.5951
 5880TIP3    H117562   7.471   0.436   2.145 -1.9656 -0.3164  0.6489
 5880TIP3    H217563   7.445   0.585   2.145 -0.8871 -0.1260  0.5310
 5881TIP3   OH217564   5.732   5.621   2.467 -0.7316  1.0491  0.1078
 5881TIP3    H117565   5.646   5.655   2.444 -0.5305  1.5655  0.1160
 5881TIP3    H217566   5.763   5.577   2.387 -1.0811  0.6903  0.1657
 5882TIP3   OH217567   4.909   6.803   1.011 -0.4957 -0.4608 -0.3412
 5882TIP3    H117568   4.881   6.850   0.932  1.8505  1.8486  0.1282
 5882TIP3    H217569   5.004   6.816   1.015 -0.1448 -3.1202  1.2406
 5883TIP3   OH217570   6.773   0.302   0.785 -0.4521 -0.5155  0.0115
 5883TIP3    H117571   6.726   0.293   0.868  0.5642 -1.5523  0.4962
 5883TIP3    H217572   6.862   0.328   0.810 -0.4912  0.4660 -0.8317
 5884TIP3   OH217573   2.928   2.533   6.523 -0.2307 -0.3083 -0.2062
 5884TIP3    H117574   2.883   2.553   6.441 -0.1612 -0.9045 -0.3968
 5884TIP3    H217575   2.865   2.482   6.574 -0.2640  0.0372  0.1027
 5885TIP3   OH217576   6.057   7.231   2.517  0.1523  0.4591 -0.3591
 5885TIP3    H117577   6.115   7.306   2.531  0.5143  0.3082 -1.0756
 5885TIP3    H217578   5.997   7.233   2.592  1.5483  0.1747  0.7863
 5886TIP3   OH217579   0.830   2.136   7.091  0.4811 -0.7540 -0.2590
 5886TIP3    H117580   0.812   2.140   6.997  1.0920  0.2529 -0.3459
 5886TIP3    H217581   0.850   2.227   7.115 -0.7105 -0.8266  1.0524
 5887TIP3   OH217582   3.111   0.143   1.505 -0.1610 -0.0349  0.0448
 5887TIP3    H117583   3.166   0.066   1.517 -0.4256 -0.0057  1.4891
 5887TIP3    H217584   3.139   0.204   1.573  0.2660  1.2859 -1.2918
 5888TIP3   OH217585   5.417   7.223   2.919  0.2412 -0.3967  0.4847
 5888TIP3    H117586   5.455   7.201   3.004  0.5600  0.2355  0.5098
 5888TIP3    H217587   5.454   7.309   2.898 -0.1157 -0.3912 -0.1259
 5889TIP3   OH217588   3.847   7.613   1.020  0.1318  0.5730 -0.3557
 5889TIP3    H117589   3.793   7.591   0.944  1.0618 -1.5546 -0.4121
 5889TIP3    H217590   3.935   7.585   0.997  0.6609  1.0367  1.0356
 5890TIP3   OH217591   3.040   6.480   4.681  0.2407 -0.2458 -0.1131
 5890TIP3    H117592   3.090   6.540   4.736  0.8879  0.1970 -1.1708
 5890TIP3    H217593   2.949   6.490   4.711  0.6431 -0.3526  1.1735
 5891TIP3   OH217594   5.287   6.705   5.870 -0.0304 -0.3787 -0.1202
 5891TIP3    H117595   5.364   6.660   5.835  0.3328 -1.4135  1.9570
 5891TIP3    H217596   5.285   6.789   5.824  1.2578 -1.1088 -1.5372
 5892TIP3   OH217597   5.518   7.529   2.671  0.0499 -0.0308  0.3785
 5892TIP3    H117598   5.547   7.593   2.606 -1.3391 -2.6946 -3.0265
 5892TIP3    H217599   5.598   7.491   2.705  0.7872  0.3060 -0.9556
 5893TIP3   OH217600   2.852   7.188   1.167  0.1261  0.2313  0.2765
 5893TIP3    H117601   2.855   7.284   1.171  1.5995  0.1823  0.7198
 5893TIP3    H217602   2.882   7.159   1.254  2.4416 -0.6356 -0.7667
 5894TIP3   OH217603   1.783   4.903   7.103 -0.2653 -0.1306  0.5222
 5894TIP3    H117604   1.747   4.846   7.171 -0.7570 -0.5294 -0.0712
 5894TIP3    H217605   1.802   4.844   7.030 -3.7785  0.9104 -1.3340
 5895TIP3   OH217606   4.880   6.791   2.902  0.4147 -0.1442 -0.6996
 5895TIP3    H117607   4.956   6.848   2.907  1.9915 -2.2506  0.3433
 5895TIP3    H217608   4.915   6.703   2.919 -2.3576 -1.0694  0.5306
 5896TIP3   OH217609   5.434   6.237   4.161 -0.1308 -0.0154  0.2418
 5896TIP3    H117610   5.496   6.201   4.225  0.3301 -1.1031 -0.8159
 5896TIP3    H217611   5.356   6.183   4.171  0.2308 -0.7233 -0.6807
 5897TIP3   OH217612   0.307   0.188   3.243  0.2610 -0.0790 -0.2854
 5897TIP3    H117613   0.306   0.279   3.273 -0.6855  0.0742 -0.7596
 5897TIP3    H217614   0.264   0.140   3.314  0.9688 -0.1858  0.0677
 5898TIP3   OH217615   3.420   4.246   0.379 -0.3846  0.0023  0.4473
 5898TIP3    H117616   3.467   4.200   0.310  0.1481 -0.3136  1.0159
 5898TIP3    H217617   3.486   4.267   0.445 -0.7652  0.9004  0.5560
 5899TIP3   OH217618   4.871   6.684   1.248  0.5171  0.0503 -0.6098
 5899TIP3    H117619   4.887   6.591   1.232  1.0566  0.2360 -1.1762
 5899TIP3    H217620   4.884   6.726   1.162 -0.5790  0.5356 -0.5617
 5900TIP3   OH217621   0.291   3.403   5.925 -0.1798  0.3099  0.2745
 5900TIP3    H117622   0.277   3.496   5.909 -0.2629  0.3063  0.3279
 5900TIP3    H217623   0.330   3.371   5.843  0.1123  0.4495  0.3554
 5901TIP3   OH217624   4.573   5.982   1.103  0.3879  0.1445  0.4871
 5901TIP3    H117625   4.539   5.893   1.093  0.7458  0.2265 -1.6225
 5901TIP3    H217626   4.578   6.016   1.014 -0.5271  2.5784  1.3275
 5902TIP3   OH217627   5.443   5.277   2.676 -0.1781  0.0615 -0.0382
 5902TIP3    H117628   5.356   5.263   2.712  0.6712 -1.4023  1.5363
 5902TIP3    H217629   5.428   5.312   2.588 -2.3306 -0.4173  0.1226
 5903TIP3   OH217630   3.720   5.570   1.001  0.1607 -0.4524 -0.5536
 5903TIP3    H117631   3.698   5.495   1.057 -0.8857  0.1139 -0.1717
 5903TIP3    H217632   3.815   5.576   1.003  0.1178 -0.1566  1.5798
 5904TIP3   OH217633   2.362   7.925   1.323 -0.7315 -0.2073 -0.0759
 5904TIP3    H117634   2.410   7.984   1.265 -0.0088 -0.1247  0.5979
 5904TIP3    H217635   2.332   7.855   1.265  0.5172 -0.4481 -0.4551
 5905TIP3   OH217636   3.659   6.742   1.121 -0.0500  0.1794 -0.5184
 5905TIP3    H117637   3.582   6.699   1.159 -0.0935  0.0707 -0.7327
 5905TIP3    H217638   3.665   6.708   1.032 -0.1825  0.7419 -0.7439
 5906TIP3   OH217639   3.521   7.010   1.795  0.1553  0.2620 -0.4229
 5906TIP3    H117640   3.426   7.022   1.801  0.2918  0.8362  0.9097
 5906TIP3    H217641   3.532   6.917   1.776 -0.6746  0.1746 -0.5205
 5907TIP3   OH217642   3.853   5.899   3.549 -0.3905 -0.1896 -0.0828
 5907TIP3    H117643   3.814   5.859   3.627 -0.7755 -1.7823 -1.0571
 5907TIP3    H217644   3.835   5.993   3.559 -2.4473 -0.6161  0.6253
 5908TIP3   OH217645   7.498   0.424   0.337  0.5102  0.2094  0.7251
 5908TIP3    H117646   7.528   0.382   0.418 -1.6582  0.2330  1.5713
 5908TIP3    H217647   7.435   0.490   0.366 -0.7195 -0.1742 -1.0076
 5909TIP3   OH217648   5.998   1.395   1.562  0.2665 -0.0267 -0.9664
 5909TIP3    H117649   6.041   1.314   1.535 -0.2681 -1.0546  1.1650
 5909TIP3    H217650   6.069   1.458   1.570  1.0971 -1.0684  0.1406
 5910TIP3   OH217651   5.950   7.189   2.778  0.2747 -0.3457  0.3231
 5910TIP3    H117652   5.968   7.200   2.871  0.9392 -0.3118  0.1934
 5910TIP3    H217653   5.858   7.165   2.774  0.0062  0.5426  0.9309
 5911TIP3   OH217654   0.724   1.138   4.047 -0.1891  0.3075  0.0171
 5911TIP3    H117655   0.692   1.174   4.130 -0.5439 -0.2623  0.1287
 5911TIP3    H217656   0.648   1.094   4.009 -0.0779  0.7243 -0.6996
 5912TIP3   OH217657   6.748   6.456   1.562 -0.4515 -0.5814  0.1826
 5912TIP3    H117658   6.814   6.464   1.630 -0.1431 -0.6525 -0.1111
 5912TIP3    H217659   6.707   6.371   1.578 -0.4132 -0.5756  0.3101
 5913TIP3   OH217660   5.481   8.283   0.290  0.0096  0.0947 -0.0285
 5913TIP3    H117661   5.569   8.271   0.257  1.0725  1.3297  2.2313
 5913TIP3    H217662   5.463   8.376   0.279 -1.2382 -0.2337 -0.9524
 5914TIP3   OH217663   3.515   3.164   7.130  0.2977  0.1446 -0.5377
 5914TIP3    H117664   3.561   3.188   7.211 -1.8992 -0.7633  1.0239
 5914TIP3    H217665   3.425   3.192   7.144 -0.7682 -2.6805 -1.4441
 5915TIP3   OH217666   6.596   1.045   1.136  0.4618  0.0368  0.1801
 5915TIP3    H117667   6.521   1.104   1.144  1.8320  1.8159  0.2999
 5915TIP3    H217668   6.603   1.028   1.042  0.2269  0.2866  0.1180
 5916TIP3   OH217669   6.930   8.312   0.648 -0.1436 -0.3385  0.0192
 5916TIP3    H117670   6.901   8.315   0.557 -0.9294 -0.3621  0.2660
 5916TIP3    H217671   6.921   8.220   0.673 -1.6715 -0.0421  0.6661
 5917TIP3   OH217672   8.415   6.602   2.434 -0.9652  0.6471  0.1439
 5917TIP3    H117673   8.482   6.544   2.398 -1.3252  0.1531  0.2749
 5917TIP3    H217674   8.464   6.667   2.484 -0.3820  1.7631 -1.7937
 5918TIP3   OH217675   3.464   7.107   3.501 -0.1671  0.1006  0.0099
 5918TIP3    H117676   3.397   7.106   3.432 -1.1118 -1.3643  0.9386
 5918TIP3    H217677   3.468   7.017   3.532 -0.2875  0.8909  2.3938
 5919TIP3   OH217678   7.589   8.072   0.405 -0.2663 -0.6023 -0.4483
 5919TIP3    H117679   7.619   8.074   0.314 -1.2069  1.3155 -0.7232
 5919TIP3    H217680   7.608   8.159   0.439  0.4237 -1.4187  1.3250
 5920TIP3   OH217681   3.789   5.848   4.004 -0.9073 -0.7363  0.0682
 5920TIP3    H117682   3.758   5.835   4.094 -3.4207 -0.8941 -0.7723
 5920TIP3    H217683   3.813   5.761   3.974  2.4760 -0.3409  1.4143
 5921TIP3   OH217684   4.279   2.593   6.586 -0.0144  0.1070 -0.5190
 5921TIP3    H117685   4.336   2.517   6.588 -0.3207 -0.1300 -0.7663
 5921TIP3    H217686   4.209   2.570   6.525  0.1096  0.7404 -0.9090
 5922TIP3   OH217687   7.137   7.866   2.117 -0.0134  0.2650 -0.3163
 5922TIP3    H117688   7.125   7.823   2.033  1.2146 -1.4019  0.3369
 5922TIP3    H217689   7.224   7.839   2.146  0.6125  2.8278  0.3406
 5923TIP3   OH217690   5.979   7.055   3.243 -0.1556  0.5408  0.4654
 5923TIP3    H117691   5.980   6.979   3.184  0.3801  0.7655  0.1878
 5923TIP3    H217692   5.908   7.036   3.305 -1.4075  0.7812 -0.8746
 5924TIP3   OH217693   8.359   6.239   2.236 -0.4006  0.2814 -0.0867
 5924TIP3    H117694   8.434   6.270   2.184  0.5710 -0.4961  0.8179
 5924TIP3    H217695   8.333   6.157   2.194  0.1502 -0.1573  0.4099
 5925TIP3   OH217696   1.022   0.628   1.702  0.5856 -0.4273  0.1499
 5925TIP3    H117697   0.961   0.587   1.763  0.7959 -1.7644 -0.5159
 5925TIP3    H217698   1.098   0.649   1.755  0.4587 -0.8710  0.5158
 5926TIP3   OH217699   6.724   6.966   0.677  0.2883  0.2432 -0.4684
 5926TIP3    H117700   6.779   6.889   0.692 -0.9476 -0.7693 -0.9537
 5926TIP3    H217701   6.719   6.974   0.582 -0.4288  0.2875 -0.4308
 5927TIP3   OH217702   6.921   7.037  -0.017  0.0712 -0.3607  0.8674
 5927TIP3    H117703   6.937   6.948  -0.049  1.8556 -0.2023  1.2796
 5927TIP3    H217704   6.888   7.024   0.072 -0.0091 -0.6154  0.8019
 5928TIP3   OH217705   6.995   8.270   1.274 -0.1584  0.3815  0.2692
 5928TIP3    H117706   7.018   8.177   1.276  0.1888  0.4844  1.7738
 5928TIP3    H217707   6.970   8.287   1.183  3.8286 -0.1718 -1.0228
 5929TIP3   OH217708   5.572   7.328   0.405  0.2121 -0.0255  0.5703
 5929TIP3    H117709   5.535   7.320   0.317  0.1045  0.0830  0.6070
 5929TIP3    H217710   5.664   7.350   0.390  0.2173 -0.1025  0.4841
 5930TIP3   OH217711   1.765   3.454   6.496  0.0784 -0.0980  0.5659
 5930TIP3    H117712   1.673   3.453   6.522 -0.2815 -0.3350 -0.7156
 5930TIP3    H217713   1.770   3.521   6.428  1.0113  0.4665  1.1795
 5931TIP3   OH217714   5.676   6.762   3.412  0.1875 -0.2040 -0.6464
 5931TIP3    H117715   5.674   6.779   3.506  0.5521  2.2034 -1.0331
 5931TIP3    H217716   5.593   6.716   3.394 -0.3348  0.1836  0.6851
 5932TIP3   OH217717   1.733   0.008   2.343 -0.5557  0.2369  0.4105
 5932TIP3    H117718   1.651   0.014   2.393  0.5708 -0.8268  2.4181
 5932TIP3    H217719   1.796   0.058   2.394  0.5899 -0.7998  0.0275
 5933TIP3   OH217720   7.271   6.086   0.273 -0.1622  0.3250 -0.3110
 5933TIP3    H117721   7.321   6.052   0.200 -0.0510  1.6193 -0.8559
 5933TIP3    H217722   7.183   6.050   0.260  0.6553 -2.1807  0.8107
 5934TIP3   OH217723   8.082   0.624   0.713 -0.0268 -0.5270 -0.1690
 5934TIP3    H117724   8.031   0.659   0.640  0.7912 -0.9827 -0.9641
 5934TIP3    H217725   8.141   0.696   0.738 -1.4364  0.2127  1.1421
 5935TIP3   OH217726   3.209   0.350   0.572  0.2852 -0.1054  0.3424
 5935TIP3    H117727   3.292   0.345   0.525  1.3407  0.0826  2.1267
 5935TIP3    H217728   3.200   0.442   0.597 -0.9911  0.0818 -0.7401
 5936TIP3   OH217729   6.170   8.070   2.412  0.2667 -0.1813 -0.1242
 5936TIP3    H117730   6.144   8.161   2.399  0.4873 -0.0265  0.4978
 5936TIP3    H217731   6.239   8.055   2.348  1.1960  0.5054  0.7080
 5937TIP3   OH217732   7.483   5.738   0.347  0.4111  0.5503  0.0236
 5937TIP3    H117733   7.512   5.647   0.345  0.9024  0.7176 -1.1786
 5937TIP3    H217734   7.418   5.743   0.278 -0.4977  0.8300  0.8967
 5938TIP3   OH217735   0.751   0.004   1.774 -0.4162  0.6261 -0.8051
 5938TIP3    H117736   0.717  -0.002   1.685 -0.5054  0.7113 -0.7774
 5938TIP3    H217737   0.673   0.017   1.828 -0.3874  0.3060 -0.6870
 5939TIP3   OH217738   4.011   4.591   6.445 -0.8535  0.5047 -0.0866
 5939TIP3    H117739   3.932   4.634   6.480  0.6821  1.4748  2.3308
 5939TIP3    H217740   4.056   4.557   6.522  1.1527  0.0482 -1.4222
 5940TIP3   OH217741   6.824   6.776   2.719 -0.1289  0.4040 -0.1779
 5940TIP3    H117742   6.901   6.791   2.775 -0.8017  0.9324  0.6182
 5940TIP3    H217743   6.752   6.765   2.780 -0.7772  0.3881 -0.9385
 5941TIP3   OH217744   6.257   6.722   0.651  0.4171  0.3355 -0.1317
 5941TIP3    H117745   6.341   6.766   0.658  1.2617 -1.0216 -1.3134
 5941TIP3    H217746   6.217   6.759   0.572 -1.1431  2.6560  1.7049
 5942TIP3   OH217747   7.637   7.782   1.366 -0.0918 -0.4014  0.2679
 5942TIP3    H117748   7.559   7.812   1.412 -0.1087  0.0497 -0.0506
 5942TIP3    H217749   7.685   7.730   1.431 -0.6545 -0.6831  0.4626
 5943TIP3   OH217750   1.273   0.145   1.268 -0.0865  0.1691 -0.1486
 5943TIP3    H117751   1.309   0.233   1.259 -0.1118  0.3096  1.1460
 5943TIP3    H217752   1.217   0.134   1.191  1.0882  0.7167 -1.1044
 5944TIP3   OH217753   5.824   7.483   0.840 -0.1502  0.2228 -0.4127
 5944TIP3    H117754   5.782   7.453   0.920  2.1063 -0.6082  0.5110
 5944TIP3    H217755   5.849   7.573   0.859  0.4367  0.0073 -0.1365
 5945TIP3   OH217756   0.263   0.726   5.076 -0.1602  0.1106  0.3307
 5945TIP3    H117757   0.249   0.812   5.036  1.7731 -0.8109 -2.4778
 5945TIP3    H217758   0.345   0.735   5.124 -0.3868  0.0730  0.7248
 5946TIP3   OH217759   5.830   5.993   1.388 -0.0074  0.2699 -0.1622
 5946TIP3    H117760   5.821   6.048   1.466  1.9335  1.4869 -0.7705
 5946TIP3    H217761   5.813   5.904   1.419 -2.8749  1.1097  0.9113
 5947TIP3   OH217762   5.932   7.171   1.221  0.1562 -0.6117  0.0826
 5947TIP3    H117763   5.966   7.192   1.134 -0.5590  0.1674 -0.0130
 5947TIP3    H217764   5.858   7.231   1.233 -1.7234 -2.8520 -0.0613
 5948TIP3   OH217765   3.977   8.370   1.456  0.1814  0.0823 -0.2484
 5948TIP3    H117766   3.929   8.381   1.374 -0.7592 -2.3698 -0.0615
 5948TIP3    H217767   3.909   8.361   1.523  0.9377  1.5751  0.7595
 5949TIP3   OH217768   8.084   5.004   2.263  0.0430 -0.2735  0.4818
 5949TIP3    H117769   8.065   4.922   2.307  3.8615 -1.7287 -0.4033
 5949TIP3    H217770   8.092   5.068   2.334 -0.0357 -1.2902  1.4143
 5950TIP3   OH217771   7.105   7.647   2.306  0.1363  0.0013  0.1654
 5950TIP3    H117772   7.083   7.719   2.246  2.6813  1.1072  0.4473
 5950TIP3    H217773   7.186   7.610   2.269  0.3802 -0.8976  1.5625
 5951TIP3   OH217774   2.468   2.980   6.953  0.1553  0.2152  0.0239
 5951TIP3    H117775   2.563   2.979   6.949  0.1825  1.0571  0.3836
 5951TIP3    H217776   2.443   3.068   6.924 -0.5831 -0.4919 -1.5726
 5952TIP3   OH217777   2.684   1.340   1.526 -0.3983  0.4260  0.2054
 5952TIP3    H117778   2.760   1.398   1.531 -0.2290  0.1295  1.1419
 5952TIP3    H217779   2.632   1.363   1.603 -2.3045  2.0688 -1.5051
 5953TIP3   OH217780   5.564   4.101   6.554 -0.0669  0.2194 -0.1657
 5953TIP3    H117781   5.527   4.188   6.567  0.7431  0.5256  0.1555
 5953TIP3    H217782   5.626   4.090   6.626  1.0125  0.0289 -1.0981
 5954TIP3   OH217783   5.637   7.870   1.509  0.3000  0.2578 -0.1242
 5954TIP3    H117784   5.704   7.911   1.563 -0.6987 -0.4886  1.7456
 5954TIP3    H217785   5.617   7.788   1.554  0.8461 -1.3763 -2.6994
 5955TIP3   OH217786   8.896   0.813   1.733 -0.2174  0.0320  0.0309
 5955TIP3    H117787   8.811   0.857   1.737 -0.5194 -0.4544 -0.9468
 5955TIP3    H217788   8.900   0.777   1.644  1.4130  0.8507 -0.2434
 5956TIP3   OH217789   8.245   0.481   1.590 -0.0886 -0.0109 -0.0640
 5956TIP3    H117790   8.224   0.496   1.682  1.4917  1.5433  0.0734
 5956TIP3    H217791   8.184   0.536   1.542 -0.2259 -0.0339  0.0825
 5957TIP3   OH217792   3.150   4.114   6.845  0.4630 -0.0055 -0.0297
 5957TIP3    H117793   3.086   4.170   6.889 -0.1444 -0.2271 -0.6228
 5957TIP3    H217794   3.138   4.028   6.885  0.6317  0.0330  0.1038
 5958TIP3   OH217795   8.095   8.287   3.407  0.1042 -0.2305  0.5851
 5958TIP3    H117796   8.023   8.229   3.381 -0.3864 -0.3636  2.1736
 5958TIP3    H217797   8.123   8.328   3.326 -0.9055 -1.1636 -0.2541
 5959TIP3   OH217798   7.412   5.909   2.493  0.1255 -0.4443 -0.3920
 5959TIP3    H117799   7.394   5.819   2.468 -0.4497 -0.5147  0.2611
 5959TIP3    H217800   7.453   5.948   2.415  0.1534 -1.1949 -0.7554
 5960TIP3   OH217801   3.290   1.109   1.809  0.3796 -0.0678 -0.1109
 5960TIP3    H117802   3.381   1.119   1.837  0.2725 -1.0490  0.6312
 5960TIP3    H217803   3.247   1.190   1.836  0.5630 -0.4763  1.4579
 5961TIP3   OH217804   4.044   7.943   1.319 -0.6305  0.0358 -0.8749
 5961TIP3    H117805   4.054   7.869   1.379 -1.4810  0.1652 -0.5522
 5961TIP3    H217806   3.961   7.926   1.274 -1.0730  1.0033 -0.4642
 5962TIP3   OH217807   1.410   0.218   2.837 -0.2118  0.2062  0.2591
 5962TIP3    H117808   1.350   0.257   2.901 -0.2483  2.1048 -0.9026
 5962TIP3    H217809   1.355   0.202   2.760 -0.1206 -1.8623  0.6111
 5963TIP3   OH217810   3.121   0.558   2.061  0.2811  0.0246  0.5264
 5963TIP3    H117811   3.127   0.637   2.115  0.1473 -1.1158  2.2536
 5963TIP3    H217812   3.144   0.587   1.973 -0.6190  2.1710  0.9667
 5964TIP3   OH217813   2.986   0.653   1.803 -0.4515  0.5113  0.0763
 5964TIP3    H117814   2.915   0.689   1.855  0.8843  0.5606  1.9130
 5964TIP3    H217815   2.950   0.573   1.765 -1.0548 -0.2313  2.1502
 5965TIP3   OH217816   7.098   6.896   1.997  0.3187 -0.7273  0.4490
 5965TIP3    H117817   7.104   6.979   1.950 -1.1442 -0.1434  1.2750
 5965TIP3    H217818   7.132   6.915   2.085 -2.0434 -0.4349  1.3267
 5966TIP3   OH217819   5.147   6.230   2.211 -0.4744 -0.1280  0.1241
 5966TIP3    H117820   5.219   6.275   2.256 -1.1636 -0.0102  1.1189
 5966TIP3    H217821   5.113   6.294   2.149 -0.1483  0.0408  0.1203
 5967TIP3   OH217822   8.156   6.757   2.596 -0.3825  0.7629 -0.0250
 5967TIP3    H117823   8.112   6.799   2.670 -1.0139 -0.7617  0.4804
 5967TIP3    H217824   8.108   6.788   2.519 -1.1478  0.6051  0.3806
 5968TIP3   OH217825   7.355   6.694   2.209  0.0073 -0.2214  0.1622
 5968TIP3    H117826   7.410   6.770   2.187  1.4588 -1.1019  0.6781
 5968TIP3    H217827   7.359   6.639   2.132 -0.3856 -0.1460  0.0909
 5969TIP3   OH217828   7.002   7.396   1.933 -0.0061 -0.4016 -0.0486
 5969TIP3    H117829   6.933   7.332   1.951 -1.1909  1.4337  2.0360
 5969TIP3    H217830   7.083   7.353   1.961 -0.4727 -1.9398 -1.0074
 5970TIP3   OH217831   4.328   4.740   1.375  0.0039 -0.5040 -0.1605
 5970TIP3    H117832   4.367   4.814   1.422  0.9485 -0.2550 -1.3127
 5970TIP3    H217833   4.293   4.779   1.295  0.1720 -1.2481 -0.5996
 5971TIP3   OH217834   4.213   6.266   2.841 -0.3665 -0.2117  0.2842
 5971TIP3    H117835   4.227   6.265   2.936 -0.1183  0.9526  0.2647
 5971TIP3    H217836   4.118   6.268   2.832 -0.3754  0.5681  0.5213
 5972TIP3   OH217837   5.574   6.103   2.039  0.4826  0.3151 -0.4191
 5972TIP3    H117838   5.643   6.166   2.019 -0.5595  1.2331 -1.2421
 5972TIP3    H217839   5.567   6.103   2.134  1.0755  0.8164 -0.3777
 5973TIP3   OH217840   1.869   2.344   7.191 -0.5488 -0.1780  0.1335
 5973TIP3    H117841   1.937   2.351   7.124  0.3881  0.0953  1.0803
 5973TIP3    H217842   1.808   2.415   7.171 -0.0368  0.1848 -0.1728
 5974TIP3   OH217843   4.951   6.431   2.059  0.4944  0.2810  0.0015
 5974TIP3    H117844   4.954   6.512   2.008  0.5563  0.8224  0.8598
 5974TIP3    H217845   4.871   6.388   2.030 -0.5921  1.6067  0.9860
 5975TIP3   OH217846   8.843   0.900   4.241  0.0327  0.5143  0.6136
 5975TIP3    H117847   8.852   0.926   4.149 -2.0426 -0.4986  0.0823
 5975TIP3    H217848   8.923   0.851   4.260  0.2910  0.3676 -0.7914
 5976TIP3   OH217849   1.165   1.526   1.854 -0.3784  0.8620  0.2755
 5976TIP3    H117850   1.213   1.456   1.898  0.3416  2.8086  2.6956
 5976TIP3    H217851   1.129   1.485   1.776  1.2966 -1.8143  0.8540
 5977TIP3   OH217852   6.956   7.077   2.806  0.2811 -0.8088 -0.3054
 5977TIP3    H117853   6.967   7.015   2.734  2.4334  2.0231 -2.5049
 5977TIP3    H217854   6.881   7.130   2.781  2.4798  1.7460 -1.7432
 5978TIP3   OH217855   3.083   2.497   6.998  0.3619  0.5278 -0.2819
 5978TIP3    H117856   2.999   2.534   7.025  0.5933  0.3516  0.7072
 5978TIP3    H217857   3.061   2.411   6.961  0.0685  0.6394 -0.3635
 5979TIP3   OH217858   6.885   6.484   2.082  0.0372 -0.5172 -0.2046
 5979TIP3    H117859   6.909   6.451   2.168 -1.4438 -0.7928  0.1210
 5979TIP3    H217860   6.899   6.410   2.023 -0.1568 -0.7214  0.0043
 5980TIP3   OH217861   5.027   7.919   1.493 -0.2294 -0.3306 -0.1328
 5980TIP3    H117862   5.095   7.935   1.559  0.7714  2.5456 -1.7280
 5980TIP3    H217863   4.958   7.873   1.539  1.5275 -0.6353  2.2794
 5981TIP3   OH217864   1.864   2.752   5.037 -0.2812 -0.4367 -0.4155
 5981TIP3    H117865   1.830   2.672   5.077  2.9375 -0.5026  2.3980
 5981TIP3    H217866   1.844   2.821   5.100  0.5587  0.3019 -0.9496
 5982TIP3   OH217867   1.475   0.062   2.489  0.4320 -0.4417 -0.1082
 5982TIP3    H117868   1.439  -0.025   2.468 -0.9000  0.2569 -0.7292
 5982TIP3    H217869   1.400   0.113   2.520  1.3121  0.3384  0.8037
 5983TIP3   OH217870   4.518   7.716   3.198 -0.3360 -0.3735 -0.1619
 5983TIP3    H117871   4.558   7.728   3.284 -1.1026  2.2930 -0.1137
 5983TIP3    H217872   4.478   7.629   3.201 -1.5347  0.2251  2.6809
 5984TIP3   OH217873   8.452   7.722   3.018  0.3363  0.1388  0.2489
 5984TIP3    H117874   8.474   7.643   2.968 -0.0384  0.7728 -0.9292
 5984TIP3    H217875   8.536   7.768   3.028  0.4110  0.0159  0.1890
 5985TIP3   OH217876   2.885   0.660   4.299  0.1705  0.3758  0.0317
 5985TIP3    H117877   2.893   0.597   4.227 -1.1014  0.2817 -0.0382
 5985TIP3    H217878   2.910   0.744   4.260 -0.4641  0.3163 -0.5056
 5986TIP3   OH217879   2.081   1.124   5.656 -0.1989 -0.0781 -0.4556
 5986TIP3    H117880   2.001   1.082   5.624 -0.3016 -0.2093 -0.0275
 5986TIP3    H217881   2.145   1.107   5.587 -0.7931  0.8603 -1.2524
 5987TIP3   OH217882   2.613   1.492   6.404 -0.2208  0.6723  0.2425
 5987TIP3    H117883   2.610   1.489   6.500 -0.2161 -0.1148  0.2234
 5987TIP3    H217884   2.692   1.443   6.381 -0.9259 -0.2629 -0.2094
 5988TIP3   OH217885   2.085   0.699   5.942 -1.4597 -0.0071 -0.0478
 5988TIP3    H117886   2.092   0.654   6.026 -1.1522 -1.1715 -0.7016
 5988TIP3    H217887   2.144   0.774   5.950  0.9322 -1.8158 -0.3267
 5989TIP3   OH217888   1.021   5.816   5.621 -0.1651 -0.2563  0.7878
 5989TIP3    H117889   1.003   5.722   5.620  2.0461 -0.7072 -0.2517
 5989TIP3    H217890   1.036   5.839   5.529  0.0750  0.9546  1.1175
 5990TIP3   OH217891   3.830   4.749   0.652  0.0473  0.5354 -0.3925
 5990TIP3    H117892   3.861   4.760   0.742 -0.6189  0.4389 -0.1433
 5990TIP3    H217893   3.768   4.821   0.639 -0.2319  0.2622 -0.6010
 5991TIP3   OH217894   3.524   0.896   5.453 -0.1441 -0.5230 -0.1004
 5991TIP3    H117895   3.611   0.936   5.459 -1.2238  2.2335 -1.7122
 5991TIP3    H217896   3.512   0.879   5.360 -2.4844  1.9325 -0.3127
 5992TIP3   OH217897   0.918   0.063   6.260 -0.3508 -0.1556  0.2043
 5992TIP3    H117898   0.890   0.007   6.188  2.1587 -1.4136  0.1602
 5992TIP3    H217899   0.970   0.131   6.219 -0.2716  0.0610  0.6604
 5993TIP3   OH217900   3.312   2.966   5.061  0.0610  0.0448 -0.3453
 5993TIP3    H117901   3.314   2.996   4.970  0.0647  0.1757 -0.3034
 5993TIP3    H217902   3.221   2.942   5.076 -0.8643  3.8440  0.8167
 5994TIP3   OH217903   1.049   1.229   6.919  0.2422 -0.5245  0.0768
 5994TIP3    H117904   0.961   1.192   6.920 -0.2597  0.5762 -1.6955
 5994TIP3    H217905   1.083   1.210   7.007 -1.9546 -0.4919  0.9897
 5995TIP3   OH217906   1.375   0.352   4.474  0.6643 -0.0252 -0.1638
 5995TIP3    H117907   1.285   0.377   4.455  1.0919  1.9027  0.2014
 5995TIP3    H217908   1.391   0.385   4.563  1.8863  0.1734 -0.4429
 5996TIP3   OH217909   6.471   7.899   5.435  0.3120  0.0566  0.2089
 5996TIP3    H117910   6.463   7.975   5.378  1.2604 -0.1774 -0.2543
 5996TIP3    H217911   6.458   7.934   5.524  1.1485  0.8323  0.0311
 5997TIP3   OH217912   4.445   5.434   0.540  0.0287  0.3683  0.4158
 5997TIP3    H117913   4.527   5.425   0.491 -0.5699 -1.7081 -0.2381
 5997TIP3    H217914   4.391   5.491   0.485 -0.0786 -0.7222 -0.6321
 5998TIP3   OH217915   5.809   7.236   0.655 -0.3370 -0.3623  0.1063
 5998TIP3    H117916   5.905   7.234   0.653 -0.3395  0.4887 -1.3416
 5998TIP3    H217917   5.786   7.322   0.620 -1.6217 -0.2439  1.2056
 5999TIP3   OH217918   4.446   1.324   5.144  0.0340  0.3581  0.2668
 5999TIP3    H117919   4.412   1.412   5.160 -0.9363  0.2974 -1.3340
 5999TIP3    H217920   4.540   1.336   5.136  0.2887  0.7485  3.3340
 6000TIP3   OH217921   8.811   1.487   6.517 -0.2119  0.0490 -0.5439
 6000TIP3    H117922   8.791   1.577   6.493  1.4444  0.4210 -0.5770
 6000TIP3    H217923   8.888   1.493   6.573  1.6936 -1.5754 -2.9016
 6001TIP3   OH217924   4.595   0.418   5.675 -0.0551 -0.4636  0.1166
 6001TIP3    H117925   4.509   0.379   5.689 -0.5868  0.3103 -0.9099
 6001TIP3    H217926   4.576   0.504   5.638  1.1728 -0.3719 -0.3068
 6002TIP3   OH217927   5.969   6.663   0.094 -0.1451 -0.1693  0.0887
 6002TIP3    H117928   5.957   6.640   0.186  0.1493 -2.5166 -0.4298
 6002TIP3    H217929   5.897   6.722   0.074 -0.7872 -0.4336  1.5542
 6003TIP3   OH217930   1.254   0.591   5.325  0.4962  0.0034  0.0206
 6003TIP3    H117931   1.278   0.682   5.308  1.5874 -0.1457  0.7345
 6003TIP3    H217932   1.286   0.543   5.249  0.1930  0.1678 -0.2122
 6004TIP3   OH217933   2.023   1.700   5.277 -0.4429  0.6155 -0.0169
 6004TIP3    H117934   2.007   1.729   5.367  1.1565 -0.0309  0.4927
 6004TIP3    H217935   2.062   1.777   5.235 -0.0846  0.5350  0.1689
 6005TIP3   OH217936   6.891   8.331   5.832 -0.1409 -0.6379 -0.3549
 6005TIP3    H117937   6.887   8.426   5.848  0.9256 -0.1375 -2.7864
 6005TIP3    H217938   6.811   8.311   5.785 -0.0756 -0.8276 -0.3870
 6006TIP3   OH217939   1.374   1.348   5.057 -0.2037  0.1051  0.3921
 6006TIP3    H117940   1.378   1.282   4.988  2.6939 -0.0215  0.6126
 6006TIP3    H217941   1.427   1.312   5.128  0.5929  2.2124  0.9094
 6007TIP3   OH217942   2.131   1.090   3.513  0.1034  0.1664 -0.1902
 6007TIP3    H117943   2.132   1.152   3.440  1.4441  0.4330  0.0434
 6007TIP3    H217944   2.193   1.022   3.488  0.6165  0.2931  0.7283
 6008TIP3   OH217945   4.313   0.739   3.838  0.2401  0.3810  0.3167
 6008TIP3    H117946   4.291   0.798   3.766 -1.5942  1.4475  1.7064
 6008TIP3    H217947   4.230   0.700   3.863  1.0414 -0.8248  1.1545
 6009TIP3   OH217948   3.279   2.277   5.086 -0.3109 -0.6328 -0.2138
 6009TIP3    H117949   3.261   2.314   5.000 -2.2880  0.1946  0.5079
 6009TIP3    H217950   3.254   2.185   5.078 -1.1900 -0.3940 -0.3530
 6010TIP3   OH217951   6.626   6.275   0.076  0.1651  0.2945  1.1165
 6010TIP3    H117952   6.706   6.296   0.124 -0.3598  0.6399  1.8506
 6010TIP3    H217953   6.621   6.342   0.008  0.1994  0.6108  1.4234
 6011TIP3   OH217954   3.305   1.251   3.520  0.2853 -0.0233  0.1351
 6011TIP3    H117955   3.308   1.157   3.506  1.0185  0.2759 -1.7992
 6011TIP3    H217956   3.340   1.263   3.609  0.2807 -1.5523  0.3487
 6012TIP3   OH217957   4.098   0.405   6.692 -0.5940  0.3165 -0.1568
 6012TIP3    H117958   4.062   0.345   6.757 -0.4396 -0.0642 -0.4207
 6012TIP3    H217959   4.136   0.348   6.625  1.2113  0.7148  0.5057
 6013TIP3   OH217960   7.633   8.005   5.423  0.1528  0.3156 -0.4651
 6013TIP3    H117961   7.668   8.088   5.456 -0.7390  1.2003 -1.7070
 6013TIP3    H217962   7.572   8.031   5.354  1.0830 -1.4653 -1.9874
 6014TIP3   OH217963   6.709   5.078   0.262  0.2089 -0.4087  0.1082
 6014TIP3    H117964   6.739   5.102   0.174 -0.4596 -1.2075 -0.3431
 6014TIP3    H217965   6.758   4.999   0.283  1.5760  0.6798  1.1344
 6015TIP3   OH217966   1.244   2.880   4.418 -0.3891  0.0724 -0.2158
 6015TIP3    H117967   1.156   2.843   4.405 -1.3601  1.9766  0.7699
 6015TIP3    H217968   1.288   2.867   4.334 -1.8352 -0.3106 -0.9327
 6016TIP3   OH217969   3.045   2.213   3.166 -1.0805 -0.0700  0.5010
 6016TIP3    H117970   3.059   2.120   3.147 -0.8345  0.0851 -0.1056
 6016TIP3    H217971   3.004   2.247   3.087 -0.7111  0.4422  0.5258
 6017TIP3   OH217972   4.034   1.530   4.716 -0.5892  0.3166 -0.0671
 6017TIP3    H117973   4.105   1.496   4.662 -1.5237 -0.4823 -0.8094
 6017TIP3    H217974   4.076   1.554   4.799  0.4022 -0.9176 -0.2060
 6018TIP3   OH217975   2.167   2.504   4.522  0.2937 -0.3989 -0.3892
 6018TIP3    H117976   2.122   2.467   4.445 -2.0658 -0.6142  1.0268
 6018TIP3    H217977   2.102   2.561   4.562  0.7970 -1.7588  2.4972
 6019TIP3   OH217978   2.952   1.196   5.044  0.0145  0.3834 -0.0813
 6019TIP3    H117979   2.994   1.167   4.963  0.0570  0.8207 -0.2224
 6019TIP3    H217980   2.868   1.233   5.016  0.0988  0.6796  0.0564
 6020TIP3   OH217981   8.274   7.902   4.522  0.5536  0.1966  0.0063
 6020TIP3    H117982   8.261   7.965   4.594 -2.2168 -0.4213  0.0931
 6020TIP3    H217983   8.270   7.816   4.564  2.3407 -0.1161 -0.4190
 6021TIP3   OH217984   2.416   1.592   5.165 -0.1539  0.8265 -0.0280
 6021TIP3    H117985   2.324   1.576   5.142 -0.1356 -0.1076  0.5341
 6021TIP3    H217986   2.446   1.655   5.099 -0.4024 -1.0217 -1.9465
 6022TIP3   OH217987   1.349   7.151   4.924  0.3259  0.6154 -0.3587
 6022TIP3    H117988   1.400   7.110   4.994  1.0067  0.6968 -0.8021
 6022TIP3    H217989   1.263   7.167   4.963  0.1731 -0.8591 -0.0472
 6023TIP3   OH217990   1.572   1.262   5.242  0.1208 -0.0264  0.3001
 6023TIP3    H117991   1.617   1.212   5.174 -1.7620 -2.4296  0.7537
 6023TIP3    H217992   1.638   1.323   5.275  1.5719 -0.0958 -2.4052
 6024TIP3   OH217993   3.054   0.926   6.640  0.2571 -0.0991 -0.7743
 6024TIP3    H117994   3.015   1.013   6.653  0.6024 -0.2405  1.4314
 6024TIP3    H217995   3.148   0.941   6.652  0.1389 -1.1148  1.6663
 6025TIP3   OH217996   6.098   5.778   0.056 -0.2251 -0.5754 -0.0369
 6025TIP3    H117997   6.114   5.729   0.137 -0.9027 -1.4728 -0.4380
 6025TIP3    H217998   6.062   5.862   0.085  1.7008  0.0394  0.7001
 6026TIP3   OH217999   7.362   5.851   0.869  0.4096 -0.4406  0.6020
 6026TIP3    H118000   7.268   5.846   0.886  0.3612 -2.6805 -0.2139
 6026TIP3    H218001   7.402   5.864   0.955 -0.5756 -0.3829  1.0516
 6027TIP3   OH218002   6.033   1.209   6.529  0.5941  0.1362 -0.1191
 6027TIP3    H118003   6.001   1.119   6.527 -0.3350  0.4586 -0.1984
 6027TIP3    H218004   6.027   1.235   6.621  2.6538 -0.4933  0.2257
 6028TIP3   OH218005   8.074   4.244   1.610  0.3330 -0.0565  0.2144
 6028TIP3    H118006   8.102   4.167   1.660  3.0237 -0.0449 -1.1755
 6028TIP3    H218007   8.039   4.207   1.528  0.2748  0.1351  0.1534
 6029TIP3   OH218008   7.088   2.498   0.866 -0.1246  0.0156 -0.3764
 6029TIP3    H118009   7.028   2.427   0.840  2.0408 -2.1266  0.2687
 6029TIP3    H218010   7.155   2.454   0.918 -0.2845  3.0197  2.5376
 6030TIP3   OH218011   2.518   1.247   4.550  1.4409  0.6986  0.3296
 6030TIP3    H118012   2.554   1.217   4.467 -0.3357 -0.6837  0.0275
 6030TIP3    H218013   2.484   1.335   4.530 -1.0573 -0.5129 -1.0660
 6031TIP3   OH218014   0.681   1.076   6.045  0.6137 -0.3135 -0.2471
 6031TIP3    H118015   0.586   1.078   6.030  0.6866 -0.6153 -0.7621
 6031TIP3    H218016   0.691   1.068   6.140  0.1247 -0.2626 -0.1917
 6032TIP3   OH218017   2.273   2.121   6.703  0.0258 -0.1024 -0.2743
 6032TIP3    H118018   2.337   2.065   6.659 -0.9202 -0.4774 -1.1980
 6032TIP3    H218019   2.199   2.124   6.643 -0.8264  0.3174  0.7830
 6033TIP3   OH218020   2.578   1.235   5.705  0.3421  0.4703  0.0431
 6033TIP3    H118021   2.556   1.328   5.715 -0.3659  0.2790  0.3056
 6033TIP3    H218022   2.498   1.189   5.730  0.6235 -0.2059 -0.2963
 6034TIP3   OH218023   0.111   1.835   6.396  0.0168 -0.5009 -0.2728
 6034TIP3    H118024   0.132   1.742   6.396 -2.5878 -1.1259 -1.5045
 6034TIP3    H218025   0.075   1.852   6.483 -2.3268 -1.3522 -1.0415
 6035TIP3   OH218026   4.892   6.332   0.442 -0.0118  0.1871  0.2449
 6035TIP3    H118027   4.809   6.378   0.452 -0.0850 -0.0037  0.5104
 6035TIP3    H218028   4.880   6.278   0.363 -0.1309  0.1790  0.2677
 6036TIP3   OH218029   1.080   0.105   4.923  0.1177  0.6550 -0.7453
 6036TIP3    H118030   1.141   0.160   4.972 -0.6954  1.9135 -1.1232
 6036TIP3    H218031   1.049   0.041   4.987  1.2075  0.5164 -0.3473
 6037TIP3   OH218032   3.489   1.321   5.963  0.1783  0.1854  0.8178
 6037TIP3    H118033   3.420   1.281   5.912  0.7787 -0.0749  0.2028
 6037TIP3    H218034   3.551   1.250   5.981  0.9075  0.6750  0.2932
 6038TIP3   OH218035   2.374   2.086   5.827 -0.3965 -0.3101 -0.1922
 6038TIP3    H118036   2.450   2.118   5.876 -1.2249  1.4421  0.0285
 6038TIP3    H218037   2.372   1.992   5.843 -0.0227  0.0671  2.2880
 6039TIP3   OH218038   3.369   0.478   3.967 -0.3429  0.0735  0.3529
 6039TIP3    H118039   3.412   0.399   3.932 -0.1375 -0.6074  2.0678
 6039TIP3    H218040   3.440   0.527   4.008 -0.5273  1.0175 -0.4465
 6040TIP3   OH218041   0.562   7.954   5.350  0.3504  0.0163  0.4057
 6040TIP3    H118042   0.512   7.974   5.271  0.9531 -0.1887 -0.0268
 6040TIP3    H218043   0.496   7.924   5.413  0.1194 -1.8608 -0.6933
 6041TIP3   OH218044   3.771   1.503   5.238  0.1964  0.7394  0.4530
 6041TIP3    H118045   3.745   1.576   5.294 -2.0163  0.2702  0.1231
 6041TIP3    H218046   3.692   1.485   5.185  1.4455 -0.3981 -1.0693
 6042TIP3   OH218047   1.059   6.776   4.453 -0.0817 -0.6365  0.6155
 6042TIP3    H118048   0.997   6.703   4.459 -0.8317 -0.0107  0.6228
 6042TIP3    H218049   1.018   6.836   4.391  0.2794  0.0129  1.0060
 6043TIP3   OH218050   4.230   0.137   2.662  0.2809 -0.1959  0.4911
 6043TIP3    H118051   4.166   0.066   2.651  0.3930  0.0049 -1.5990
 6043TIP3    H218052   4.177   0.214   2.684 -0.0682 -0.3669  0.2572
 6044TIP3   OH218053   0.859   7.334   3.067  0.1261 -0.1675 -0.0426
 6044TIP3    H118054   0.874   7.268   3.135  0.3936 -0.0882 -0.0238
 6044TIP3    H218055   0.935   7.391   3.072 -0.3742  0.4636  0.3012
 6045TIP3   OH218056   4.038   1.528   5.913 -0.2816 -0.1437 -0.0991
 6045TIP3    H118057   4.039   1.511   5.819 -1.5881  0.1661 -0.1894
 6045TIP3    H218058   3.964   1.476   5.946 -0.9558  1.1412  0.4658
 6046TIP3   OH218059   1.558   8.076   4.930  0.1864  0.2159  0.5284
 6046TIP3    H118060   1.530   8.038   4.846 -0.0953 -0.8370  1.0873
 6046TIP3    H218061   1.618   8.146   4.905  2.4497 -1.9986 -0.5070
 6047TIP3   OH218062   3.747   2.464   4.098 -0.4338 -0.4349  0.0307
 6047TIP3    H118063   3.813   2.452   4.166  1.1175 -1.1222 -1.5430
 6047TIP3    H218064   3.797   2.461   4.016 -2.3790 -0.6121 -1.1809
 6048TIP3   OH218065   5.576   0.407   6.391  0.4952  0.2730 -0.0030
 6048TIP3    H118066   5.549   0.335   6.447  0.7240  0.2469  0.0752
 6048TIP3    H218067   5.503   0.419   6.330 -0.3858  1.2646  1.2080
 6049TIP3   OH218068   1.102   4.961   6.440 -0.0615 -0.6890 -0.5001
 6049TIP3    H118069   1.140   4.966   6.352  0.8250 -1.8814 -0.2036
 6049TIP3    H218070   1.071   4.871   6.447 -1.1732 -0.2772 -0.0025
 6050TIP3   OH218071   6.992   6.999   1.178  0.2211 -0.2812 -0.1791
 6050TIP3    H118072   6.962   7.020   1.089  1.7735  2.4660 -0.1129
 6050TIP3    H218073   6.917   6.955   1.219 -1.6141  1.1799 -1.8866
 6051TIP3   OH218074   1.678   0.629   5.669  0.1402  0.0441  0.2373
 6051TIP3    H118075   1.708   0.601   5.583 -1.2695  0.1614 -0.2991
 6051TIP3    H218076   1.705   0.721   5.674 -0.0388  0.1250 -0.2108
 6052TIP3   OH218077   1.998   7.426   6.895 -0.1312 -0.2532  0.1905
 6052TIP3    H118078   2.072   7.376   6.860  0.9912  2.5295 -1.6833
 6052TIP3    H218079   1.932   7.422   6.826 -1.2987 -1.7849  1.3845
 6053TIP3   OH218080   2.869   1.741   3.834 -0.0495 -0.2439 -0.7444
 6053TIP3    H118081   2.889   1.828   3.870 -2.5668  0.2058 -0.3169
 6053TIP3    H218082   2.779   1.723   3.864 -0.1947 -2.2387 -2.2892
 6054TIP3   OH218083   3.068   1.721   6.335 -0.0840 -0.4116  0.4556
 6054TIP3    H118084   3.085   1.705   6.242  2.9560  0.8657  0.7293
 6054TIP3    H218085   3.094   1.639   6.378 -0.7689 -0.7327  0.2662
 6055TIP3   OH218086   3.588   1.473   5.036  0.2713 -0.2641 -0.3915
 6055TIP3    H118087   3.506   1.510   5.001  0.6716  1.1971  0.1676
 6055TIP3    H218088   3.623   1.421   4.964 -0.8489 -0.4095 -0.8470
 6056TIP3   OH218089   1.353   8.224   6.580  0.2323 -0.1935 -0.4250
 6056TIP3    H118090   1.448   8.213   6.573  0.0188 -2.4489 -0.1026
 6056TIP3    H218091   1.317   8.138   6.558 -1.6545  0.1220  1.2937
 6057TIP3   OH218092   5.021   1.502   5.326 -0.1344 -0.5771 -0.2922
 6057TIP3    H118093   5.057   1.578   5.281  0.2487  0.2723  1.4229
 6057TIP3    H218094   4.952   1.470   5.268 -1.0640  1.7525 -0.4940
 6058TIP3   OH218095   4.516   1.120   4.898  0.0291 -0.3858 -0.5568
 6058TIP3    H118096   4.427   1.105   4.930 -0.0653  0.4957 -0.4008
 6058TIP3    H218097   4.569   1.055   4.944 -0.4820 -0.6927 -0.3952
 6059TIP3   OH218098   4.974   2.588   4.186 -0.0048 -0.3748  0.2874
 6059TIP3    H118099   5.053   2.548   4.149 -0.3616  0.0453 -0.9370
 6059TIP3    H218100   4.957   2.537   4.265  1.2940 -0.6906  0.3813
 6060TIP3   OH218101   2.537   7.557   6.039  0.2036 -0.0828 -0.1656
 6060TIP3    H118102   2.608   7.551   6.104 -0.9379 -1.5781  0.9651
 6060TIP3    H218103   2.583   7.560   5.955  1.6758  1.0013  0.6416
 6061TIP3   OH218104   3.571   6.731   6.550  0.3964 -0.3710 -0.2850
 6061TIP3    H118105   3.639   6.773   6.498  1.2471 -0.6900  0.5559
 6061TIP3    H218106   3.579   6.638   6.530 -0.2238 -0.3455 -0.6750
 6062TIP3   OH218107   4.436   1.184   5.772  0.0430  0.1591  0.2907
 6062TIP3    H118108   4.379   1.212   5.843 -0.3462  1.7564 -0.6194
 6062TIP3    H218109   4.525   1.200   5.805 -0.1040 -0.2149  0.8645
 6063TIP3   OH218110   0.109   0.223   3.738  0.0345  0.2788  0.3185
 6063TIP3    H118111   0.036   0.281   3.761  0.1945  0.1816  1.0850
 6063TIP3    H218112   0.150   0.264   3.662  0.0978  1.1268  0.8110
 6064TIP3   OH218113   3.781   0.714   6.569 -0.1888  0.0278 -0.3727
 6064TIP3    H118114   3.771   0.652   6.642  2.0153  0.4818  0.3433
 6064TIP3    H218115   3.796   0.659   6.493  0.3608 -0.3758  0.0223
 6065TIP3   OH218116   5.098   0.442   4.503 -0.3489 -0.1979  0.0453
 6065TIP3    H118117   5.084   0.353   4.470 -2.5411  0.0691  0.1510
 6065TIP3    H218118   5.048   0.498   4.444  1.6941  1.0741 -0.5081
 6066TIP3   OH218119   0.744   8.265   4.599  0.0269  0.4151  0.2229
 6066TIP3    H118120   0.695   8.335   4.556  2.0272  1.3734 -0.6004
 6066TIP3    H218121   0.754   8.296   4.690 -0.3095  0.5245  0.2243
 6067TIP3   OH218122   5.856   2.264   3.659  0.7272 -0.2151 -0.1734
 6067TIP3    H118123   5.914   2.246   3.585  0.1547 -0.4914 -0.5622
 6067TIP3    H218124   5.909   2.242   3.736  0.0491 -3.7861 -0.6277
 6068TIP3   OH218125   4.043   2.454   4.674 -0.3913  0.1729 -0.3784
 6068TIP3    H118126   4.028   2.360   4.679  2.2263 -0.2253  1.0453
 6068TIP3    H218127   3.988   2.491   4.743 -0.7585 -0.4068 -0.3562
 6069TIP3   OH218128   5.151   1.645   4.709 -0.1479  0.1723 -0.5496
 6069TIP3    H118129   5.195   1.574   4.755 -0.2334 -0.9005 -2.0781
 6069TIP3    H218130   5.132   1.609   4.622  0.1981  2.2109 -1.5023
 6070TIP3   OH218131   1.662   7.980   5.431 -0.2249  0.1502 -0.1760
 6070TIP3    H118132   1.609   8.045   5.384 -0.4378 -0.1485 -0.3561
 6070TIP3    H218133   1.749   7.987   5.392 -0.6133 -0.7079 -1.2495
 6071TIP3   OH218134   5.122   3.261   4.956 -0.0920  0.5194  0.5791
 6071TIP3    H118135   5.069   3.301   4.887  1.9237  1.1822 -0.6290
 6071TIP3    H218136   5.155   3.336   5.007  2.6223  0.4186 -0.9027
 6072TIP3   OH218137   5.132   4.660   0.547 -0.0252 -0.3409 -0.1190
 6072TIP3    H118138   5.113   4.613   0.629 -0.9360 -0.1933 -0.2403
 6072TIP3    H218139   5.155   4.749   0.575  0.4015 -0.4920  0.0210
 6073TIP3   OH218140   3.703   0.412   4.624  0.0298 -0.1694  0.5704
 6073TIP3    H118141   3.637   0.426   4.691  0.1635 -1.0232  0.8840
 6073TIP3    H218142   3.725   0.319   4.630 -0.0767 -0.2995 -0.7569
 6074TIP3   OH218143   2.880   8.214   5.711  0.0491 -0.0330  0.4300
 6074TIP3    H118144   2.857   8.262   5.790 -0.0065 -1.1686  1.1018
 6074TIP3    H218145   2.888   8.282   5.644 -1.2145  0.7920  1.0953
 6075TIP3   OH218146   4.045   1.773   4.925 -0.3651  0.0074  0.8178
 6075TIP3    H118147   4.103   1.697   4.927 -0.5528 -0.1691  0.0602
 6075TIP3    H218148   3.959   1.736   4.903 -0.3561  0.4820 -0.0528
 6076TIP3   OH218149   5.925   4.958   1.024  0.4428  0.9171 -0.0252
 6076TIP3    H118150   5.851   4.959   0.965 -0.0740  1.5313  0.6248
 6076TIP3    H218151   5.993   4.909   0.978  0.2025  1.7771 -1.2945
 6077TIP3   OH218152   4.393   0.045   4.509 -0.1001 -0.0466  0.2237
 6077TIP3    H118153   4.375   0.030   4.416 -0.0027  1.3693 -0.0360
 6077TIP3    H218154   4.363   0.135   4.525  0.7478  0.0460  1.3299
 6078TIP3   OH218155   3.634   1.033   6.833  0.0569  0.0494  0.2431
 6078TIP3    H118156   3.604   1.065   6.919  0.5342  0.3521  0.3031
 6078TIP3    H218157   3.638   0.938   6.843  1.1983  0.1531  0.9248
 6079TIP3   OH218158   7.749   4.477   0.904  0.1940  0.2293 -0.2463
 6079TIP3    H118159   7.841   4.450   0.901 -0.0493 -0.5607 -0.7301
 6079TIP3    H218160   7.703   4.402   0.942  0.0015  1.3390  1.7988
 6080TIP3   OH218161   2.184   7.348   5.716  0.2543  0.6055  0.3164
 6080TIP3    H118162   2.190   7.255   5.738 -1.7460  0.6609  1.2155
 6080TIP3    H218163   2.217   7.394   5.794 -1.1536  0.6917  0.8657
 6081TIP3   OH218164   4.790   1.124   6.674  0.3244 -0.2237 -0.3986
 6081TIP3    H118165   4.703   1.121   6.713  0.3555 -0.1271 -0.3211
 6081TIP3    H218166   4.841   1.058   6.722  0.7216  0.7968  0.5966
 6082TIP3   OH218167   4.331   2.030   6.203 -0.6848 -0.0383 -0.4273
 6082TIP3    H118168   4.342   2.086   6.126 -0.8588 -0.4190 -0.7304
 6082TIP3    H218169   4.274   2.079   6.261 -0.8470  0.0943 -0.6991
 6083TIP3   OH218170   5.383   0.412   5.152  0.4262 -0.0588  0.3145
 6083TIP3    H118171   5.464   0.431   5.104  0.5185 -0.0375  0.4806
 6083TIP3    H218172   5.315   0.417   5.085  0.7084 -1.3373 -0.1026
 6084TIP3   OH218173   4.811   1.213   3.126  0.0838 -0.1770  0.0871
 6084TIP3    H118174   4.880   1.270   3.160 -2.5401  1.8541  2.1815
 6084TIP3    H218175   4.796   1.245   3.037  1.4064 -0.2417 -0.1679
 6085TIP3   OH218176   4.631   1.673   2.726  0.1430  0.4542  0.2306
 6085TIP3    H118177   4.562   1.610   2.747  1.3282 -0.9283  0.0230
 6085TIP3    H218178   4.588   1.759   2.733 -1.5335 -0.3749  0.3053
 6086TIP3   OH218179   3.838   1.386   4.816 -0.2367 -0.1203  0.4646
 6086TIP3    H118180   3.850   1.299   4.777  1.2645  0.6615 -0.8681
 6086TIP3    H218181   3.881   1.446   4.755  0.2917  1.3844  2.2716
 6087TIP3   OH218182   3.996   0.482   3.764 -0.1502  0.1060  0.2149
 6087TIP3    H118183   3.911   0.512   3.730 -0.3227  0.2322  0.7646
 6087TIP3    H218184   4.060   0.516   3.701 -0.3714  1.3267  0.6355
 6088TIP3   OH218185   2.185   6.980   7.146  0.2491 -0.2109  0.4737
 6088TIP3    H118186   2.235   6.899   7.143 -0.3421 -0.5708  0.2524
 6088TIP3    H218187   2.108   6.958   7.198 -0.7819 -0.2798 -1.0476
 6089TIP3   OH218188   3.046   1.593   3.145  0.6997  0.0049 -0.3965
 6089TIP3    H118189   3.053   1.687   3.160  0.4761 -0.2960  1.7547
 6089TIP3    H218190   3.137   1.562   3.147  0.6904  0.0082  0.0541
 6090TIP3   OH218191   2.334   0.831   6.001  0.2175  0.2137 -0.5800
 6090TIP3    H118192   2.406   0.775   6.030 -0.1366  0.2499  0.3902
 6090TIP3    H218193   2.335   0.904   6.063 -0.7708  0.1185 -0.4549
 6091TIP3   OH218194   8.748   8.120   4.875  0.7175  0.3854  0.3444
 6091TIP3    H118195   8.681   8.059   4.843  1.3902  0.5967 -1.5590
 6091TIP3    H218196   8.763   8.094   4.966 -1.0103 -0.4889  0.4031
 6092TIP3   OH218197   8.770   4.824   0.339 -0.0751  0.0674 -0.1472
 6092TIP3    H118198   8.827   4.853   0.410  0.5528 -1.8683  0.1589
 6092TIP3    H218199   8.779   4.892   0.272  0.2064  1.3233  1.1464
 6093TIP3   OH218200   7.615   3.179   0.090  0.3835  0.0087 -0.2151
 6093TIP3    H118201   7.622   3.269   0.057 -0.6516  0.6342  1.2236
 6093TIP3    H218202   7.699   3.164   0.134  1.6328 -0.7081 -2.7338
 6094TIP3   OH218203   2.622   1.501   6.665  0.0737  0.4269 -0.3595
 6094TIP3    H118204   2.685   1.466   6.729 -1.0372 -0.6351  0.1659
 6094TIP3    H218205   2.581   1.574   6.710 -0.6017 -0.2277  0.0908
 6095TIP3   OH218206   3.318   1.120   5.859 -0.1515 -0.0492  0.6490
 6095TIP3    H118207   3.289   1.167   5.780  0.2107 -1.6769 -0.4930
 6095TIP3    H218208   3.256   1.146   5.927 -2.2061 -0.7730 -0.8819
 6096TIP3   OH218209   5.572   1.167   4.421 -0.1825  0.6884 -0.1717
 6096TIP3    H118210   5.652   1.186   4.470  0.1669 -0.7954 -0.1238
 6096TIP3    H218211   5.571   1.071   4.414 -1.6181  0.7344 -0.7368
 6097TIP3   OH218212   4.147   0.191   5.554 -0.2927  0.3665 -0.2677
 6097TIP3    H118213   4.177   0.192   5.463 -1.7317  1.7180 -0.7476
 6097TIP3    H218214   4.057   0.158   5.549 -0.3552  0.3811  0.6631
 6098TIP3   OH218215   2.292   0.990   5.047 -0.8123 -0.2159  0.1278
 6098TIP3    H118216   2.329   1.078   5.056  0.9026 -0.6881 -1.9327
 6098TIP3    H218217   2.269   0.984   4.954 -0.3387 -2.1678  0.1283
 6099TIP3   OH218218   4.520   0.908   3.781 -0.4431 -0.4688 -0.2875
 6099TIP3    H118219   4.453   0.856   3.826  0.4399 -0.1417  1.4653
 6099TIP3    H218220   4.550   0.852   3.710 -4.3831  0.3837 -2.7379
 6100TIP3   OH218221   4.603   1.242   5.514 -0.5875  0.0523 -0.2253
 6100TIP3    H118222   4.653   1.318   5.483  1.1294 -0.7126  0.5575
 6100TIP3    H218223   4.577   1.265   5.603  0.9002 -0.6755  0.4294
 6101TIP3   OH218224   6.707   4.328   1.092  0.2714 -0.3155 -0.3641
 6101TIP3    H118225   6.742   4.279   1.166 -1.1898 -1.4683 -0.4175
 6101TIP3    H218226   6.755   4.293   1.016  1.3259  0.4309 -0.0504
 6102TIP3   OH218227   4.139   0.894   3.623  0.0385 -0.0757  0.4610
 6102TIP3    H118228   4.130   0.982   3.660  1.2397  0.6859 -0.9521
 6102TIP3    H218229   4.069   0.888   3.558 -0.5497 -0.4814  1.1267
 6103TIP3   OH218230   1.049   0.666   6.706  0.4717  0.1120  0.4425
 6103TIP3    H118231   1.072   0.735   6.644 -1.2144 -0.3767 -0.7557
 6103TIP3    H218232   1.020   0.593   6.651 -0.9975 -0.3452  1.7907
 6104TIP3   OH218233   2.750   1.708   5.091 -0.4768 -0.0192 -0.5709
 6104TIP3    H118234   2.721   1.776   5.151  1.0666 -0.1957  0.4093
 6104TIP3    H218235   2.694   1.718   5.014 -2.9636 -0.2519  1.1615
 6105TIP3   OH218236   0.646   7.240   3.925 -0.1835  0.0441 -0.2372
 6105TIP3    H118237   0.619   7.310   3.985 -0.1756  0.5146 -0.7856
 6105TIP3    H218238   0.566   7.190   3.909 -0.1892 -0.0747  0.1538
 6106TIP3   OH218239   8.068   4.137   1.060 -0.8740 -0.0288  0.1237
 6106TIP3    H118240   8.130   4.079   1.015 -1.2195 -0.2229 -0.1070
 6106TIP3    H218241   8.079   4.118   1.153  0.4796  1.0044  0.1853
 6107TIP3   OH218242   3.871   0.231   5.912  0.1439  0.1166  0.6333
 6107TIP3    H118243   3.953   0.245   5.959  0.8485 -0.2483 -0.4622
 6107TIP3    H218244   3.857   0.137   5.915 -0.6161  0.2593  1.4514
 6108TIP3   OH218245   2.960   1.899   5.719  0.3323 -0.3271 -0.0203
 6108TIP3    H118246   2.950   1.823   5.661  1.7346 -0.3146 -0.2824
 6108TIP3    H218247   3.054   1.907   5.733  0.1122  0.6367  0.9936
 6109TIP3   OH218248   4.755   2.196   5.228 -0.7122  0.3272 -0.3490
 6109TIP3    H118249   4.690   2.254   5.267 -1.0202 -1.0115  1.1645
 6109TIP3    H218250   4.809   2.167   5.301  0.2175 -0.3243 -1.2740
 6110TIP3   OH218251   2.270   1.823   5.996 -0.1652  0.4470  0.6782
 6110TIP3    H118252   2.187   1.849   5.957  0.2111  1.0183  0.2572
 6110TIP3    H218253   2.272   1.727   5.986 -0.7220  0.4404  0.6032
 6111TIP3   OH218254   2.750   6.822   6.013 -0.5240 -0.5131  0.3101
 6111TIP3    H118255   2.775   6.899   6.064 -0.8965 -2.2432  3.2177
 6111TIP3    H218256   2.656   6.813   6.029 -1.1332  0.1814 -2.5385
 6112TIP3   OH218257   7.866   3.184   0.273  0.0908  0.1564  0.0884
 6112TIP3    H118258   7.901   3.099   0.297 -1.1313 -0.3124  0.2502
 6112TIP3    H218259   7.830   3.219   0.354 -0.9647  0.0662 -0.3341
 6113TIP3   OH218260   1.096   7.797   5.609  0.8991 -0.3269  0.1835
 6113TIP3    H118261   1.051   7.882   5.611  0.5579 -0.4696 -1.1436
 6113TIP3    H218262   1.149   7.796   5.689 -1.3494 -0.1007  1.7385
 6114TIP3   OH218263   4.838   0.399   4.935  0.1980 -0.4554 -0.1022
 6114TIP3    H118264   4.785   0.445   4.869 -0.0184  1.5541  1.4356
 6114TIP3    H218265   4.928   0.426   4.915 -0.1390  2.8271  2.3772
 6115TIP3   OH218266   5.004   1.216   3.362  0.0324 -0.6338  0.4479
 6115TIP3    H118267   5.007   1.311   3.372  0.6806 -0.6430  0.3568
 6115TIP3    H218268   4.998   1.183   3.452  2.0256 -0.5773  0.6330
 6116TIP3   OH218269   3.692   1.955   2.964  0.4870  0.2716 -0.3429
 6116TIP3    H118270   3.751   1.950   2.889 -2.1391  0.8497 -2.5069
 6116TIP3    H218271   3.649   2.040   2.956 -0.8442 -0.2436  1.0367
 6117TIP3   OH218272   5.804   2.820   4.043  0.1353  0.4221 -0.0460
 6117TIP3    H118273   5.876   2.774   4.000 -1.3304 -0.5949 -1.5101
 6117TIP3    H218274   5.840   2.851   4.126  1.6886 -1.7675  0.1275
 6118TIP3   OH218275   4.083   0.250   4.654  0.2760 -0.2434  0.2671
 6118TIP3    H118276   4.155   0.257   4.717  1.6681  1.0941 -1.4186
 6118TIP3    H218277   4.065   0.156   4.649  1.4194 -0.5275  1.2718
 6119TIP3   OH218278   3.817   1.895   5.629 -0.1127 -0.0403 -0.0617
 6119TIP3    H118279   3.765   1.943   5.692  1.3278  1.6936 -0.1402
 6119TIP3    H218280   3.818   1.950   5.551  1.2307 -0.3701 -0.2979
 6120TIP3   OH218281   5.326   5.943   0.212  0.5717 -0.5295 -1.0865
 6120TIP3    H118282   5.398   5.968   0.269  1.8166 -0.2260 -2.7698
 6120TIP3    H218283   5.342   5.850   0.192  0.5520 -0.4435 -1.5143
 6121TIP3   OH218284   1.469   0.074   3.439 -0.3281  0.6537  0.0330
 6121TIP3    H118285   1.496   0.062   3.530  0.9882  1.0405 -0.2923
 6121TIP3    H218286   1.385   0.029   3.432 -0.1758  0.1718  1.3076
 6122TIP3   OH218287   5.467   2.914   4.294 -0.1265  0.3902  0.3241
 6122TIP3    H118288   5.377   2.881   4.294  0.3627 -1.0073  0.7480
 6122TIP3    H218289   5.520   2.839   4.268  1.0029  0.9387  0.9914
 6123TIP3   OH218290   0.701   7.924   3.570  0.3291  0.7236 -0.5108
 6123TIP3    H118291   0.788   7.898   3.541  1.0941  0.3894  2.0083
 6123TIP3    H218292   0.711   8.016   3.595  0.3359  0.2807  1.1596
 6124TIP3   OH218293   4.639   0.473   4.760  0.6334 -0.0509 -0.0720
 6124TIP3    H118294   4.603   0.495   4.674  2.1707 -0.0250 -0.7287
 6124TIP3    H218295   4.569   0.492   4.821 -0.3282  0.3514 -1.2844
 6125TIP3   OH218296   2.666   1.685   4.077 -0.1657 -0.6142  0.9912
 6125TIP3    H118297   2.649   1.757   4.137  0.4250 -0.5029  1.0318
 6125TIP3    H218298   2.627   1.712   3.994 -1.8094 -1.1740  1.5668
 6126TIP3   OH218299   3.771   1.224   3.789  0.1932  0.3406  0.5519
 6126TIP3    H118300   3.698   1.162   3.780 -0.3100  0.8502  1.0659
 6126TIP3    H218301   3.785   1.257   3.700  1.5908 -1.7548 -0.0247
 6127TIP3   OH218302   4.996   1.959   6.042  0.0549  0.0700 -0.1252
 6127TIP3    H118303   4.961   2.012   6.113 -1.6231  0.5516 -1.2679
 6127TIP3    H218304   4.920   1.911   6.008  1.3717 -2.3941  0.2998
 6128TIP3   OH218305   3.209   1.183   6.329 -0.1510  0.4646  0.0063
 6128TIP3    H118306   3.244   1.259   6.376 -2.8725  2.2011 -0.6275
 6128TIP3    H218307   3.128   1.162   6.375  1.2860 -3.0376  1.0542
 6129TIP3   OH218308   3.271   2.516   4.867  0.2582 -0.0408 -0.2513
 6129TIP3    H118309   3.355   2.549   4.901  0.0538  1.1573 -0.8761
 6129TIP3    H218310   3.273   2.538   4.773 -1.1697  0.8897 -0.0787
 6130TIP3   OH218311   4.591   5.852   2.019  0.3316 -0.2866  0.1293
 6130TIP3    H118312   4.539   5.772   2.030 -0.6238  0.6243  2.4905
 6130TIP3    H218313   4.679   5.828   2.047 -0.4979  0.0931  3.1894
 6131TIP3   OH218314   3.433   0.167   3.466  0.3041  0.4187 -0.0760
 6131TIP3    H118315   3.502   0.103   3.485 -1.3887 -1.0572  1.2914
 6131TIP3    H218316   3.409   0.202   3.552 -0.2493  1.3568 -0.6053
 6132TIP3   OH218317   3.558   1.110   5.710 -0.0850 -0.3540 -0.0307
 6132TIP3    H118318   3.475   1.125   5.756 -0.7073  1.3695 -1.6375
 6132TIP3    H218319   3.531   1.072   5.626  0.9424 -2.1876  0.4490
 6133TIP3   OH218320   7.030   7.135   5.022  0.1619 -0.0351  0.4803
 6133TIP3    H118321   6.952   7.097   4.982  0.5864 -1.2028  0.7550
 6133TIP3    H218322   7.088   7.061   5.038  0.6403  0.6019  1.8192
 6134TIP3   OH218323   3.709   1.664   5.535 -0.5401 -0.3393  0.3429
 6134TIP3    H118324   3.765   1.737   5.563  0.1510 -0.6259 -0.2523
 6134TIP3    H218325   3.634   1.667   5.594 -0.3345  0.6210  0.5683
 6135TIP3   OH218326   5.281   1.697   2.798 -0.7474 -0.6169 -0.6555
 6135TIP3    H118327   5.364   1.713   2.844 -0.4801 -0.3357 -1.2264
 6135TIP3    H218328   5.213   1.718   2.862 -0.3906  0.9397 -0.7726
 6136TIP3   OH218329   0.273   8.306   4.655 -0.0672 -0.2072 -0.0288
 6136TIP3    H118330   0.317   8.223   4.637 -1.8503 -1.0680 -0.5610
 6136TIP3    H218331   0.229   8.291   4.739 -0.4362  0.1816 -0.1541
 6137TIP3   OH218332   3.314   0.579   5.143  0.1839  0.3087 -0.4187
 6137TIP3    H118333   3.272   0.514   5.086  1.1878  0.0052 -0.8239
 6137TIP3    H218334   3.408   0.566   5.129  0.4043  1.7317 -0.3859
 6138TIP3   OH218335   2.927   0.711   4.601  0.3576  0.1582  0.1944
 6138TIP3    H118336   2.955   0.794   4.640 -1.2696  0.6833  0.2774
 6138TIP3    H218337   2.935   0.725   4.506  1.3908 -0.0590  0.2514
 6139TIP3   OH218338   8.218   8.247   4.485 -0.7006  0.4896 -0.4323
 6139TIP3    H118339   8.238   8.334   4.453 -1.4261  0.3072 -1.3809
 6139TIP3    H218340   8.278   8.234   4.559  1.5084  0.6029 -2.1654
 6140TIP3   OH218341   3.248   1.629   2.883 -0.1384 -0.4057  0.2738
 6140TIP3    H118342   3.212   1.691   2.820  0.4398 -1.6969 -1.3726
 6140TIP3    H218343   3.180   1.562   2.893 -0.4626  0.1029  1.4732
 6141TIP3   OH218344   3.014   1.515   7.091  0.5296  1.0298 -0.2534
 6141TIP3    H118345   3.030   1.496   7.183 -0.5221  2.1932  0.1791
 6141TIP3    H218346   2.986   1.607   7.089  0.6201  1.0508 -1.7384
 6142TIP3   OH218347   3.294   2.009   3.407 -0.0814  0.3301 -0.4305
 6142TIP3    H118348   3.382   1.996   3.441  0.0997 -1.6145 -1.5414
 6142TIP3    H218349   3.236   1.981   3.477  0.2696 -2.2223 -1.0923
 6143TIP3   OH218350   3.434   3.129   5.244 -0.3115  0.4454  0.0637
 6143TIP3    H118351   3.384   3.209   5.260 -1.8450  0.0069 -2.2222
 6143TIP3    H218352   3.375   3.074   5.192  1.5301 -1.2361 -0.3030
 6144TIP3   OH218353   3.375   3.471   3.117  0.5509 -0.9368 -0.4140
 6144TIP3    H118354   3.396   3.513   3.033  0.0728  0.4610  0.1515
 6144TIP3    H218355   3.450   3.489   3.172 -0.0066 -0.1352  0.0846
 6145TIP3   OH218356   6.362   3.814   1.496  0.2728  0.1920  0.1806
 6145TIP3    H118357   6.373   3.759   1.418  0.9248 -1.3345  1.3202
 6145TIP3    H218358   6.292   3.772   1.545  0.9685  0.1953  1.2000
 6146TIP3   OH218359   1.662   0.135   5.066 -0.1537  0.0080  0.6273
 6146TIP3    H118360   1.663   0.222   5.106  0.8373  1.1533 -1.7776
 6146TIP3    H218361   1.746   0.096   5.088 -0.9407 -0.7063  2.4292
 6147TIP3   OH218362   4.059   2.559   7.090 -0.3566 -0.1279 -0.3113
 6147TIP3    H118363   4.115   2.579   7.015  1.2790 -1.1836  0.5852
 6147TIP3    H218364   4.037   2.466   7.078 -1.0887  0.0244 -0.1262
 6148TIP3   OH218365   6.274   1.949   4.229 -0.1294 -0.6745  0.1806
 6148TIP3    H118366   6.286   1.980   4.139 -0.9374  0.8837  0.5929
 6148TIP3    H218367   6.229   1.865   4.220 -0.3919 -0.4258 -0.8629
 6149TIP3   OH218368   5.511   0.279   5.371  0.1319 -0.5420 -0.2479
 6149TIP3    H118369   5.461   0.313   5.297  0.3593  0.4337  0.0418
 6149TIP3    H218370   5.469   0.195   5.391 -1.7033  0.4765  0.3100
 6150TIP3   OH218371   6.827   5.607   1.271 -0.8217 -0.7266 -0.2017
 6150TIP3    H118372   6.746   5.559   1.253 -0.2326 -1.8221  0.0366
 6150TIP3    H218373   6.802   5.673   1.336 -1.4619 -1.2346  0.0786
 6151TIP3   OH218374   4.177   2.247   4.073  0.2330 -0.3793  0.7161
 6151TIP3    H118375   4.166   2.302   4.151 -2.3664 -0.0443  0.1530
 6151TIP3    H218376   4.238   2.296   4.018 -0.4033  0.9470  1.1528
 6152TIP3   OH218377   6.844   4.432   2.508 -0.2963  0.0580 -0.2146
 6152TIP3    H118378   6.863   4.448   2.416 -2.4894  2.5930 -0.2751
 6152TIP3    H218379   6.770   4.370   2.507  0.0892 -0.4100 -0.1291
 6153TIP3   OH218380   3.957   0.458   4.774  0.2463  0.6041 -0.2680
 6153TIP3    H118381   3.984   0.385   4.719  1.4584  2.1793 -1.8323
 6153TIP3    H218382   3.864   0.472   4.752 -0.4031 -1.3312  1.0973
 6154TIP3   OH218383   3.702   1.309   6.468  0.4753 -0.4979 -0.2281
 6154TIP3    H118384   3.792   1.312   6.499  0.9258  1.3762 -1.6660
 6154TIP3    H218385   3.651   1.347   6.539  1.1466  0.9935 -0.5273
 6155TIP3   OH218386   1.771   8.283   4.843  0.3753  0.0538  0.1425
 6155TIP3    H118387   1.796   8.310   4.931 -1.4696 -0.0827  0.7194
 6155TIP3    H218388   1.787   8.361   4.789  1.2043  0.2354  0.6353
 6156TIP3   OH218389   0.126   8.185   4.865  0.7416  0.3462  0.3454
 6156TIP3    H118390   0.036   8.161   4.844  1.0662  0.0848 -0.7511
 6156TIP3    H218391   0.169   8.102   4.884  0.6371  0.5127  1.3255
 6157TIP3   OH218392   2.572   1.068   6.675 -0.0741 -0.3243 -0.0760
 6157TIP3    H118393   2.646   1.010   6.659 -0.1532 -0.6344  0.6777
 6157TIP3    H218394   2.556   1.111   6.591  0.2060 -1.1319 -0.5405
 6158TIP3   OH218395   3.255   0.371   5.747 -0.0645  0.1165 -0.3843
 6158TIP3    H118396   3.195   0.320   5.692  0.2625  0.0500 -0.6839
 6158TIP3    H218397   3.198   0.428   5.798 -0.4164 -0.3621 -0.2395
 6159TIP3   OH218398   3.293   1.112   6.732  0.2051  0.4085 -0.6711
 6159TIP3    H118399   3.221   1.082   6.788  0.1414  0.7009 -0.5899
 6159TIP3    H218400   3.347   1.035   6.718  0.2613  0.3531 -0.1400
 6160TIP3   OH218401   4.781   5.380   0.177  0.1163 -0.1135 -0.3959
 6160TIP3    H118402   4.828   5.404   0.257 -2.5585 -0.0159  1.2297
 6160TIP3    H218403   4.738   5.461   0.150  0.2015 -0.3913 -1.3596
 6161TIP3   OH218404   5.431   1.294   3.653 -0.7181  1.0188  0.0366
 6161TIP3    H118405   5.403   1.238   3.580  0.1554  1.4700 -0.6553
 6161TIP3    H218406   5.522   1.317   3.632  0.0890 -0.1931  2.0945
 6162TIP3   OH218407   4.002   1.378   3.622  0.4113  0.1900 -0.1371
 6162TIP3    H118408   4.042   1.319   3.685  1.5145  0.4114 -0.6321
 6162TIP3    H218409   4.071   1.399   3.559 -0.4355  0.6461 -0.9455
 6163TIP3   OH218410   2.860   1.288   4.611  0.3596  0.0494 -0.3087
 6163TIP3    H118411   2.801   1.270   4.684  0.5658 -0.3733 -0.2417
 6163TIP3    H218412   2.802   1.311   4.538  0.1918  1.3294  0.2188
 6164TIP3   OH218413   2.293   1.002   6.204 -0.0484 -0.3973  0.1460
 6164TIP3    H118414   2.338   1.081   6.175  0.7150 -0.6633  0.5898
 6164TIP3    H218415   2.206   1.032   6.230 -1.7974 -0.5770 -5.1030
 6165TIP3   OH218416   8.311   8.019   3.941  0.3144 -0.2727  0.5383
 6165TIP3    H118417   8.316   8.090   3.878 -0.2519 -1.1691 -0.5170
 6165TIP3    H218418   8.226   8.030   3.984  0.5689  0.1532  0.9397
 6166TIP3   OH218419   1.582   8.161   5.236 -0.4744  0.5917  0.5726
 6166TIP3    H118420   1.493   8.149   5.203 -0.3068 -0.5712  0.5014
 6166TIP3    H218421   1.638   8.131   5.164  0.0173  2.7031  0.0576
 6167TIP3   OH218422   5.522   2.080   5.187 -0.8279  0.1749 -0.0763
 6167TIP3    H118423   5.455   2.059   5.252 -0.6217 -0.2441  0.0006
 6167TIP3    H218424   5.599   2.029   5.215 -0.1327  1.4946  0.4864
 6168TIP3   OH218425   5.355   1.683   6.644 -0.5940 -0.1223 -0.0182
 6168TIP3    H118426   5.376   1.727   6.727 -2.8287 -0.7852  0.9428
 6168TIP3    H218427   5.355   1.753   6.579  0.6800  0.4900  0.6165
 6169TIP3   OH218428   6.078   2.044   3.596 -0.5655 -0.0099 -0.0107
 6169TIP3    H118429   6.154   1.986   3.594 -1.3413 -1.0521  0.2263
 6169TIP3    H218430   6.108   2.121   3.646 -0.0977 -1.0252  1.3198
 6170TIP3   OH218431   3.881   0.838   5.881  0.1312 -0.1762  0.4960
 6170TIP3    H118432   3.976   0.831   5.896  0.2472 -0.9539 -0.5840
 6170TIP3    H218433   3.843   0.829   5.968  0.9763 -1.3107  0.7654
 6171TIP3   OH218434   7.092   4.617   1.520  0.3844  0.9236  0.0128
 6171TIP3    H118435   7.015   4.671   1.499 -0.3184  0.7371  2.0169
 6171TIP3    H218436   7.108   4.633   1.613 -1.4696 -4.2226  1.4386
 6172TIP3   OH218437   4.750   0.317   5.171  0.1993  0.5931 -0.1856
 6172TIP3    H118438   4.784   0.352   5.088 -0.0818  0.6169 -0.2890
 6172TIP3    H218439   4.797   0.234   5.182 -0.5463  0.0565 -0.9151
 6173TIP3   OH218440   4.004   0.802   4.387  0.1608 -0.0378 -0.0570
 6173TIP3    H118441   3.919   0.810   4.429  0.9496 -1.5822  1.9364
 6173TIP3    H218442   4.013   0.709   4.369  1.1450  0.2067 -0.8586
 6174TIP3   OH218443   1.059   8.092   5.216 -0.2146 -0.3604 -0.3053
 6174TIP3    H118444   0.995   8.031   5.253  1.5816 -2.2296 -0.1985
 6174TIP3    H218445   1.067   8.160   5.283  0.9937 -2.3027  1.5943
 6175TIP3   OH218446   4.568   0.718   3.594 -0.4675 -0.2500 -0.0953
 6175TIP3    H118447   4.623   0.749   3.522 -1.3541  1.6175 -0.0057
 6175TIP3    H218448   4.521   0.643   3.558  2.9314 -2.6325  0.1765
 6176TIP3   OH218449   2.868   0.879   6.311 -0.2041  0.2365  0.1170
 6176TIP3    H118450   2.931   0.865   6.240  1.0497 -1.6075  1.5193
 6176TIP3    H218451   2.915   0.933   6.375 -0.7570  0.5448  0.2664
 6177TIP3   OH218452   5.400   1.270   6.728 -0.0807  0.4262 -0.0764
 6177TIP3    H118453   5.451   1.351   6.740  0.9790 -0.3330  0.6827
 6177TIP3    H218454   5.466   1.201   6.723 -0.7769 -0.0781 -4.0284
 6178TIP3   OH218455   6.022   3.659   4.798  0.1198  0.9437 -0.0897
 6178TIP3    H118456   5.943   3.679   4.748  0.7060  1.5932 -0.7800
 6178TIP3    H218457   6.010   3.703   4.882 -0.4122  0.7447 -0.0647
 6179TIP3   OH218458   1.798   7.055   7.136 -0.1319 -0.1287  0.0312
 6179TIP3    H118459   1.729   7.007   7.182  0.0505 -0.9477 -0.5360
 6179TIP3    H218460   1.780   7.038   7.043 -0.2063  1.0985 -0.1836
 6180TIP3   OH218461   0.933   6.775   4.067  0.1799  0.1243 -0.9698
 6180TIP3    H118462   0.928   6.852   4.011 -0.2546  0.4548 -0.4744
 6180TIP3    H218463   0.951   6.810   4.154 -2.0987 -0.1822 -0.3438
 6181TIP3   OH218464   0.620   7.351   5.535  0.2172 -0.1961  0.5361
 6181TIP3    H118465   0.626   7.399   5.452  1.0477 -0.1215  0.6316
 6181TIP3    H218466   0.665   7.407   5.598  0.7607 -0.8768  0.7544
 6182TIP3   OH218467   3.269   1.593   5.515  0.2126  0.8466  0.7808
 6182TIP3    H118468   3.334   1.524   5.529 -0.1195  0.0360 -1.4133
 6182TIP3    H218469   3.314   1.659   5.463 -0.6997  0.2430 -0.8240
 6183TIP3   OH218470   5.215   0.206   6.209  0.0454  0.1234 -0.3100
 6183TIP3    H118471   5.123   0.229   6.196 -0.0081 -0.1920 -0.4829
 6183TIP3    H218472   5.260   0.291   6.219 -0.4803  0.2425  1.1870
 6184TIP3   OH218473   4.927   1.668   4.974  0.2098 -0.0084 -0.2401
 6184TIP3    H118474   4.844   1.700   5.010 -0.0767  2.3377 -2.8322
 6184TIP3    H218475   4.986   1.666   5.049 -1.1105  2.1478  0.9178
 6185TIP3   OH218476   1.980   1.423   5.932 -0.1296 -0.2215  0.0646
 6185TIP3    H118477   1.943   1.407   6.019  0.6537  0.1435  0.4715
 6185TIP3    H218478   1.915   1.479   5.889 -0.1941  0.1764  0.6723
 6186TIP3   OH218479   4.578   2.262   4.710 -0.1294 -0.1014 -0.1675
 6186TIP3    H118480   4.587   2.199   4.638  0.7143 -1.5868  1.1819
 6186TIP3    H218481   4.668   2.289   4.729 -0.1507 -0.9973  1.3809
 6187TIP3   OH218482   5.029   2.178   4.408 -0.1967  0.0364  0.1556
 6187TIP3    H118483   4.991   2.180   4.321  0.9327 -0.4836 -0.3601
 6187TIP3    H218484   5.110   2.128   4.398  0.5970  1.0791  1.2368
 6188TIP3   OH218485   4.282   3.207   6.413 -0.2511  0.4143  0.2017
 6188TIP3    H118486   4.375   3.228   6.422 -0.3833  0.9902  0.1874
 6188TIP3    H218487   4.255   3.179   6.501 -0.1770  0.6716  0.3050
 6189TIP3   OH218488   5.040   2.913   5.212 -0.2800  0.1559  0.2688
 6189TIP3    H118489   5.083   2.898   5.128 -1.6330 -0.7699 -0.2753
 6189TIP3    H218490   4.994   2.831   5.231 -1.9981  1.1959  0.7187
 6190TIP3   OH218491   2.373   1.553   6.329 -0.4749 -0.1171  0.1470
 6190TIP3    H118492   2.360   1.608   6.406 -0.7896  0.4033 -0.2799
 6190TIP3    H218493   2.466   1.532   6.331 -0.4621 -0.0267  0.6163
 6191TIP3   OH218494   2.144   2.895   6.226  0.1248  0.1732  0.0881
 6191TIP3    H118495   2.200   2.867   6.299 -0.6952 -0.8837  0.3335
 6191TIP3    H218496   2.076   2.948   6.268 -1.8824 -2.6064  0.5181
 6192TIP3   OH218497   5.663   0.522   5.525 -0.1415  0.1193 -0.1075
 6192TIP3    H118498   5.708   0.603   5.500  0.4185  0.1351  0.9106
 6192TIP3    H218499   5.682   0.461   5.454 -1.1048  1.0663 -1.2084
 6193TIP3   OH218500   2.173   8.336   5.342  0.2383  0.0626  0.3501
 6193TIP3    H118501   2.235   8.264   5.330  2.3050  1.6378  1.2573
 6193TIP3    H218502   2.177   8.356   5.435 -0.7565  0.9845  0.2010
 6194TIP3   OH218503   5.038   2.382   5.041  0.3759 -0.0427  0.0305
 6194TIP3    H118504   4.970   2.436   5.001 -0.7077 -0.9478  0.6378
 6194TIP3    H218505   5.034   2.404   5.134  1.7454  0.7979 -0.0924
 6195TIP3   OH218506   4.931   2.154   3.677  0.1271  0.3474 -0.1384
 6195TIP3    H118507   4.984   2.102   3.737  0.5018  0.4051 -0.4207
 6195TIP3    H218508   4.990   2.220   3.643 -0.1104  0.3759 -0.4994
 6196TIP3   OH218509   1.508   4.029   6.407 -0.1562  0.2523  0.1195
 6196TIP3    H118510   1.525   3.951   6.353 -3.0702  0.2324 -0.8721
 6196TIP3    H218511   1.555   4.099   6.363 -0.7645 -0.2009 -1.2984
 6197TIP3   OH218512   4.680   0.325   6.365 -0.1134  0.4278 -0.1402
 6197TIP3    H118513   4.664   0.317   6.459  0.3786  1.7378  0.0667
 6197TIP3    H218514   4.623   0.397   6.337  1.7001  1.8198 -0.3223
 6198TIP3   OH218515   4.162   2.080   3.304 -0.4394  0.6526  0.2014
 6198TIP3    H118516   4.219   2.068   3.380  0.0103  1.7672  0.0373
 6198TIP3    H218517   4.222   2.084   3.230 -0.7247  1.8515  0.0303
 6199TIP3   OH218518   4.455   0.348   6.966  0.2186 -0.1878 -0.0414
 6199TIP3    H118519   4.499   0.269   6.936 -0.1745 -0.3879 -0.0888
 6199TIP3    H218520   4.437   0.397   6.886 -0.9179 -0.7675 -0.1477
 6200TIP3   OH218521   1.503   0.485   2.614 -0.4904  0.9057  0.0623
 6200TIP3    H118522   1.424   0.497   2.561 -0.9025 -2.3530 -0.1620
 6200TIP3    H218523   1.559   0.430   2.560  0.0434 -0.5725  2.0683
 6201TIP3   OH218524   5.752   0.342   5.283 -0.2311  0.3476 -0.3282
 6201TIP3    H118525   5.808   0.289   5.226 -1.4258 -0.1622 -1.0561
 6201TIP3    H218526   5.663   0.322   5.253 -0.7916  1.1880  0.7696
 6202TIP3   OH218527   3.732   1.296   2.424 -0.3930  0.2370  0.3771
 6202TIP3    H118528   3.713   1.346   2.344 -0.5494  0.6560  0.6768
 6202TIP3    H218529   3.705   1.354   2.495 -0.5201 -0.2566  0.7255
 6203TIP3   OH218530   5.310   1.302   4.503 -0.0710 -0.2737 -0.3116
 6203TIP3    H118531   5.262   1.267   4.578  0.6009  0.7770  0.6424
 6203TIP3    H218532   5.355   1.227   4.466 -0.0028 -0.7240  0.6634
 6204TIP3   OH218533   1.523   7.696   6.284  0.6493  0.0497  0.5421
 6204TIP3    H118534   1.597   7.635   6.276  1.9768  1.7642 -0.5636
 6204TIP3    H218535   1.560   7.774   6.324 -0.3647  1.2344 -0.7680
 6205TIP3   OH218536   6.595   0.758   6.879  0.3538 -0.3533  0.1462
 6205TIP3    H118537   6.619   0.732   6.790  2.5813  0.2832  0.5328
 6205TIP3    H218538   6.586   0.854   6.875 -1.4190 -0.5071  0.1864
 6206TIP3   OH218539   3.600   0.519   4.167 -0.2676  0.1195 -0.2155
 6206TIP3    H118540   3.641   0.559   4.090 -1.8821 -0.0895 -1.1996
 6206TIP3    H218541   3.659   0.449   4.192  0.2143  0.1179 -1.3325
 6207TIP3   OH218542   6.349   0.523   5.149 -0.0849  0.2936  0.0426
 6207TIP3    H118543   6.432   0.503   5.191  0.7537  1.9094 -0.8122
 6207TIP3    H218544   6.357   0.484   5.062  0.5262  2.0436 -0.7005
 6208TIP3   OH218545   2.202   7.996   4.633  0.2408 -0.6339  0.1551
 6208TIP3    H118546   2.211   8.018   4.540 -1.2584  0.6997  0.2939
 6208TIP3    H218547   2.291   7.996   4.667  0.8467 -1.7538 -1.4232
 6209TIP3   OH218548   4.755   3.019   4.666  0.3184 -0.3889 -0.1074
 6209TIP3    H118549   4.831   2.974   4.629  0.6809  1.4388 -1.6204
 6209TIP3    H218550   4.792   3.074   4.735  0.2759  0.0466 -0.4373
 6210TIP3   OH218551   6.050   0.278   7.080 -0.3590  0.1011  0.5969
 6210TIP3    H118552   6.007   0.194   7.094 -0.1012 -0.1485 -0.1012
 6210TIP3    H218553   6.089   0.299   7.165 -2.3392  0.6182  1.3878
 6211TIP3   OH218554   4.127   2.150   3.607 -0.3203  0.5765  0.1195
 6211TIP3    H118555   4.104   2.061   3.581 -1.3009  0.8022  0.1778
 6211TIP3    H218556   4.062   2.173   3.673 -2.2432  2.5798 -2.3428
 6212TIP3   OH218557   3.613   8.165   3.902 -0.0053  0.0751 -0.1463
 6212TIP3    H118558   3.705   8.154   3.878  0.6514 -0.2285  2.4298
 6212TIP3    H218559   3.591   8.086   3.951 -1.6571  0.1336 -0.7710
 6213TIP3   OH218560   1.805   0.696   2.441 -0.1468 -0.2793  0.0610
 6213TIP3    H118561   1.798   0.604   2.466  0.3647 -0.4834 -0.5571
 6213TIP3    H218562   1.889   0.724   2.477  0.4199 -0.4743 -1.0956
 6214TIP3   OH218563   3.064   6.612   6.589 -0.2142 -0.0587 -0.0236
 6214TIP3    H118564   3.127   6.658   6.534 -1.7225  2.0075 -0.0819
 6214TIP3    H218565   3.099   6.618   6.678  1.0960 -1.4559 -0.4227
 6215TIP3   OH218566   3.899   6.794   5.216  0.2546 -0.2051 -0.0595
 6215TIP3    H118567   3.956   6.739   5.270 -0.1410  1.4266  2.0885
 6215TIP3    H218568   3.898   6.750   5.131  4.3424 -0.5276 -0.0722
 6216TIP3   OH218569   5.707   1.285   3.607  0.0325 -0.1023 -0.3024
 6216TIP3    H118570   5.743   1.208   3.650  0.1822 -0.6829 -1.4299
 6216TIP3    H218571   5.741   1.279   3.517  0.3919  1.4975 -0.2847
 6217TIP3   OH218572   6.226   0.089   4.266 -0.3048  0.0024  0.4245
 6217TIP3    H118573   6.301   0.031   4.272 -0.4491 -0.1597  0.6520
 6217TIP3    H218574   6.242   0.158   4.331 -1.2291 -1.0302  1.7716
 6218TIP3   OH218575   2.191   1.491   2.301 -0.7051  0.6416 -0.4084
 6218TIP3    H118576   2.102   1.513   2.327 -0.6635  0.6175 -0.2491
 6218TIP3    H218577   2.240   1.573   2.310 -0.6524  0.5924 -0.2480
 6219TIP3   OH218578   3.038   0.342   5.578 -0.3889  0.2230 -0.1800
 6219TIP3    H118579   3.044   0.407   5.507 -2.3303 -1.2236 -1.7376
 6219TIP3    H218580   2.992   0.388   5.648 -0.4066  0.9984 -0.6868
 6220TIP3   OH218581   4.568   0.185   6.062  0.3916 -0.0629 -0.7073
 6220TIP3    H118582   4.640   0.146   6.013  1.1380  1.6705 -1.0307
 6220TIP3    H218583   4.501   0.117   6.065  2.6188 -2.2694  0.9249
 6221TIP3   OH218584   4.740   1.912   4.514  0.5849 -0.3809 -0.1731
 6221TIP3    H118585   4.741   1.895   4.420  0.0031 -0.4801 -0.1584
 6221TIP3    H218586   4.699   1.997   4.524 -1.7233 -1.4971  0.1678
 6222TIP3   OH218587   7.014   2.138   4.031 -0.0426 -0.1715  0.0502
 6222TIP3    H118588   6.954   2.102   3.966  1.3716  0.4021 -1.6323
 6222TIP3    H218589   7.074   2.066   4.052  0.5056  0.1053 -0.5332
 6223TIP3   OH218590   3.991   0.408   4.088  0.0349 -0.1717 -0.2799
 6223TIP3    H118591   3.998   0.394   3.994  0.5099 -1.1435 -0.0987
 6223TIP3    H218592   3.905   0.374   4.112 -0.3004  0.5414 -0.4364
 6224TIP3   OH218593   7.819   5.260   0.028 -0.0617  0.0094 -0.1381
 6224TIP3    H118594   7.885   5.227   0.088  0.4446 -2.0357 -1.7809
 6224TIP3    H218595   7.805   5.351   0.055 -0.2732 -1.0125  3.4194
 6225TIP3   OH218596   5.423   0.110   4.923  0.6815 -0.8438  0.4369
 6225TIP3    H118597   5.450   0.099   5.014 -0.1177 -0.6168  0.7081
 6225TIP3    H218598   5.419   0.205   4.909  1.5701 -0.8761 -0.0708
 6226TIP3   OH218599   5.749   2.281   4.390 -0.0681  0.6346 -0.4359
 6226TIP3    H118600   5.797   2.232   4.323  1.4982 -0.3942  1.3820
 6226TIP3    H218601   5.695   2.214   4.433 -1.1660  1.3095 -0.7770
 6227TIP3   OH218602   5.981   2.314   5.198 -0.6147  0.4008 -0.3831
 6227TIP3    H118603   5.907   2.372   5.179 -2.6275 -2.5588 -2.0118
 6227TIP3    H218604   5.985   2.310   5.294 -1.2272  2.2012 -0.2704
 6228TIP3   OH218605   4.035   1.697   3.928  0.3256 -0.5756 -0.0950
 6228TIP3    H118606   4.033   1.793   3.931  1.5902 -0.5250 -0.6208
 6228TIP3    H218607   4.120   1.673   3.965 -0.1065 -1.5137  0.3042
 6229TIP3   OH218608   5.070   1.660   3.826 -0.7314  0.5084 -0.4740
 6229TIP3    H118609   5.003   1.606   3.869  0.1136  0.8108  1.2730
 6229TIP3    H218610   5.152   1.613   3.842 -0.5448 -0.1710 -3.1073
 6230TIP3   OH218611   6.485   1.111   4.940 -0.5449  0.7074  0.1665
 6230TIP3    H118612   6.573   1.080   4.959 -1.5320 -0.9243  2.2266
 6230TIP3    H218613   6.475   1.098   4.845  1.1868  0.2968  0.0280
 6231TIP3   OH218614   5.395   2.845   5.247  0.0315 -0.4158  0.1536
 6231TIP3    H118615   5.346   2.913   5.293  0.4812 -0.4437  0.6842
 6231TIP3    H218616   5.467   2.892   5.204 -0.3693 -0.3943 -0.4908
 6232TIP3   OH218617   3.165   8.376   5.854 -0.0435  0.0520 -0.1757
 6232TIP3    H118618   3.182   8.282   5.859  0.1803  0.1781  1.9293
 6232TIP3    H218619   3.133   8.390   5.765 -2.1238 -2.3718  0.1243
 6233TIP3   OH218620   2.119   7.421   6.166 -0.3541 -0.4602  0.4958
 6233TIP3    H118621   2.085   7.510   6.171 -3.0615 -1.3217 -1.2372
 6233TIP3    H218622   2.165   7.418   6.082 -0.3938 -0.7056  0.4812
 6234TIP3   OH218623   7.210   3.778   4.275 -0.4125 -0.5633 -0.3754
 6234TIP3    H118624   7.286   3.741   4.230 -0.3337 -0.6401 -0.1779
 6234TIP3    H218625   7.246   3.820   4.353 -0.7037 -1.5433  0.2854
 6235TIP3   OH218626   3.009   7.973   4.443  0.3674 -0.2059  0.0402
 6235TIP3    H118627   3.069   7.980   4.517  0.2185 -0.1626  0.1557
 6235TIP3    H218628   3.054   8.016   4.371  0.0071  0.7810  0.4074
 6236TIP3   OH218629   3.513   2.113   5.910  0.3609 -0.0884  0.3759
 6236TIP3    H118630   3.467   2.061   5.845  1.5098  0.9885 -1.3195
 6236TIP3    H218631   3.580   2.055   5.945 -0.3484 -0.7106  0.7015
 6237TIP3   OH218632   5.221   3.743   6.579 -0.3118  0.4204 -0.1054
 6237TIP3    H118633   5.257   3.809   6.638  0.6873 -0.3217  0.1335
 6237TIP3    H218634   5.202   3.668   6.636  1.0386 -0.4448 -0.7742
 6238TIP3   OH218635   4.303   1.534   5.215  0.2159  0.2765 -0.5054
 6238TIP3    H118636   4.342   1.615   5.250 -1.0637  0.4347  0.6282
 6238TIP3    H218637   4.275   1.486   5.293  1.5489 -1.5861 -1.1425
 6239TIP3   OH218638   6.952   1.652   6.186 -0.2788  0.1713 -0.1620
 6239TIP3    H118639   7.023   1.644   6.123  0.0500  1.6634 -0.0046
 6239TIP3    H218640   6.872   1.634   6.136 -0.0292  1.3856 -1.0326
 6240TIP3   OH218641   4.912   0.364   3.701  0.2388  0.1498  0.0198
 6240TIP3    H118642   4.909   0.387   3.608 -0.6306 -1.3235 -0.3312
 6240TIP3    H218643   5.004   0.369   3.724  0.7201 -1.4646 -1.4536
 6241TIP3   OH218644   0.505   3.704   0.279 -0.0396  0.0728 -0.7138
 6241TIP3    H118645   0.578   3.761   0.305 -0.3473  0.3086 -0.3658
 6241TIP3    H218646   0.436   3.765   0.253  0.5132 -0.1664 -2.7878
 6242TIP3   OH218647   2.839   0.295   3.896 -0.1051 -0.6092  0.1240
 6242TIP3    H118648   2.878   0.209   3.913  0.3806 -0.4291 -0.0548
 6242TIP3    H218649   2.864   0.315   3.806 -0.8175 -0.5918 -0.0718
 6243TIP3   OH218650   6.699   2.942   2.104  0.0157  0.0671 -0.1936
 6243TIP3    H118651   6.691   2.877   2.174 -1.4141 -1.2077 -1.5054
 6243TIP3    H218652   6.792   2.965   2.104  0.5559 -1.9697  0.3131
 6244TIP3   OH218653   3.514   7.881   5.217  0.4479  0.0318 -0.1592
 6244TIP3    H118654   3.484   7.970   5.234  0.9152 -0.2251  2.0386
 6244TIP3    H218655   3.444   7.842   5.163 -0.2789  1.3533 -0.1734
 6245TIP3   OH218656   5.331   0.471   6.252 -0.4018  0.3837  0.1918
 6245TIP3    H118657   5.356   0.539   6.189 -2.1563 -0.0071 -0.9396
 6245TIP3    H218658   5.246   0.499   6.285 -1.0438 -1.1318 -0.1320
 6246TIP3   OH218659   4.453   0.267   5.377  0.3496  0.0097  0.1929
 6246TIP3    H118660   4.465   0.201   5.445  1.8004  0.3635  0.3025
 6246TIP3    H218661   4.541   0.302   5.361 -0.0834  0.4478 -1.3497
 6247TIP3   OH218662   5.071   2.006   2.340 -0.7201 -0.4604  0.2824
 6247TIP3    H118663   5.005   2.069   2.367 -1.1549 -1.1044  0.7495
 6247TIP3    H218664   5.129   1.997   2.416 -2.0178 -2.3680  1.1026
 6248TIP3   OH218665   4.490   2.316   5.486 -0.2063 -0.6746  0.2629
 6248TIP3    H118666   4.397   2.311   5.505  0.1637 -0.2431  2.3477
 6248TIP3    H218667   4.504   2.407   5.458 -0.1444 -0.2364  1.6537
 6249TIP3   OH218668   6.365   0.366   6.290 -0.2075  0.3390 -0.7564
 6249TIP3    H118669   6.323   0.287   6.257 -1.6578  0.9963 -0.5210
 6249TIP3    H218670   6.426   0.392   6.220  0.6996 -1.2956 -0.5835
 6250TIP3   OH218671   2.673   8.289   5.320  0.2285  0.1442  0.4716
 6250TIP3    H118672   2.675   8.305   5.226  0.9253 -0.6930  0.3393
 6250TIP3    H218673   2.674   8.193   5.329 -0.2710  0.2085  1.3167
 6251TIP3   OH218674   1.689   3.467   0.119  0.1856 -0.6151  0.1587
 6251TIP3    H118675   1.595   3.477   0.102  0.2890  1.5128  0.5972
 6251TIP3    H218676   1.721   3.416   0.045 -1.5212 -2.4600  0.6618
 6252TIP3   OH218677   3.346   7.568   3.678 -0.0016  0.1917  0.1150
 6252TIP3    H118678   3.369   7.592   3.768 -0.2234 -2.2388  0.8450
 6252TIP3    H218679   3.336   7.473   3.680 -3.8638  0.4835 -1.6083
 6253TIP3   OH218680   2.919   7.071   5.626 -0.2582 -0.8407  0.0527
 6253TIP3    H118681   2.908   7.077   5.721  0.5157 -1.1944  0.1659
 6253TIP3    H218682   2.995   7.126   5.606  0.4449 -1.8948 -0.1871
 6254TIP3   OH218683   3.603   7.331   3.611 -0.1268  0.3817 -0.2904
 6254TIP3    H118684   3.562   7.246   3.596  1.5990 -0.2996 -1.3602
 6254TIP3    H218685   3.563   7.389   3.546 -1.2519  0.3850  0.3913
 6255TIP3   OH218686   2.962   7.489   4.368 -0.3110 -0.2428  0.4273
 6255TIP3    H118687   2.914   7.528   4.296  0.9732 -0.3042 -0.4883
 6255TIP3    H218688   2.904   7.497   4.443 -1.1999  0.8620 -0.3615
 6256TIP3   OH218689   6.608   1.729   5.195 -0.0601 -0.3410 -0.5396
 6256TIP3    H118690   6.670   1.657   5.200 -1.5047 -1.5256  0.7700
 6256TIP3    H218691   6.620   1.777   5.277 -2.2090 -1.7357  0.6447
 6257TIP3   OH218692   4.972   0.206   3.342 -0.7311 -0.0877 -0.0120
 6257TIP3    H118693   5.058   0.186   3.303 -0.8291  0.0994 -0.3209
 6257TIP3    H218694   4.946   0.124   3.384  0.2937  0.2700  1.4057
 6258TIP3   OH218695   5.338   0.273   5.655 -0.1709  0.2206 -0.6613
 6258TIP3    H118696   5.246   0.254   5.639  0.3300 -2.7195 -0.3090
 6258TIP3    H218697   5.385   0.199   5.616  1.8512  0.1545  1.7883
 6259TIP3   OH218698   3.785   0.245   2.071 -0.5771 -0.2621  0.3093
 6259TIP3    H118699   3.762   0.299   2.147 -1.2592  0.1527 -0.1817
 6259TIP3    H218700   3.712   0.184   2.062 -1.4717  0.9921 -1.1993
 6260TIP3   OH218701   4.333   3.380   7.263 -0.4124  0.2233  0.0104
 6260TIP3    H118702   4.239   3.371   7.275 -0.9926  0.0819 -3.9416
 6260TIP3    H218703   4.342   3.445   7.194  2.4365  0.6015  0.6660
 6261TIP3   OH218704   2.578   7.810   6.158  0.6282  0.2131 -0.1871
 6261TIP3    H118705   2.541   7.732   6.116  0.4068 -0.4894  1.2596
 6261TIP3    H218706   2.661   7.779   6.195  0.9694  0.8929 -0.3899
 6262TIP3   OH218707   4.940   0.376   3.999 -0.3227 -0.0595  0.3339
 6262TIP3    H118708   4.979   0.301   4.043  1.0136  0.0365 -0.6637
 6262TIP3    H218709   4.894   0.339   3.923  0.4665  0.1211 -0.2472
 6263TIP3   OH218710   6.694   1.320   3.120  0.2549 -0.2383  0.1259
 6263TIP3    H118711   6.681   1.329   3.214 -0.0056  1.7700 -0.0686
 6263TIP3    H218712   6.747   1.242   3.110  2.1310  0.7407  2.0919
 6264TIP3   OH218713   6.145   5.473   0.359 -0.0118 -1.2020  0.0337
 6264TIP3    H118714   6.072   5.495   0.416  1.3479 -1.0725  1.7895
 6264TIP3    H218715   6.195   5.555   0.351  1.2780 -1.8765  0.9173
 6265TIP3   OH218716   3.462   0.633   4.375  0.0097  0.1267  0.2333
 6265TIP3    H118717   3.531   0.659   4.435 -0.4272 -0.7411  1.1339
 6265TIP3    H218718   3.508   0.597   4.299  0.5535 -0.7232  0.9521
 6266TIP3   OH218719   4.533   7.665   6.687 -0.4841 -0.1838  0.3572
 6266TIP3    H118720   4.613   7.613   6.694 -1.5284 -1.8117  0.4053
 6266TIP3    H218721   4.495   7.662   6.775 -1.0343 -0.1037  0.1193
 6267TIP3   OH218722   5.506   1.242   5.402 -0.3823  0.6413 -0.2996
 6267TIP3    H118723   5.455   1.296   5.341 -1.6564 -1.1994 -0.8970
 6267TIP3    H218724   5.457   1.160   5.409  1.3233 -0.3190  0.8812
 6268TIP3   OH218725   4.693   1.727   5.295 -0.5288  0.6465  0.1049
 6268TIP3    H118726   4.714   1.742   5.203  2.9387 -0.9068  0.5623
 6268TIP3    H218727   4.715   1.809   5.338 -0.7934  0.9101 -0.2625
 6269TIP3   OH218728   5.164   1.030   5.658 -0.7059  0.5940  0.4019
 6269TIP3    H118729   5.143   1.114   5.699 -1.8855  0.0806  0.8935
 6269TIP3    H218730   5.186   0.973   5.732  1.6301  0.8802 -0.0485
 6270TIP3   OH218731   0.606   6.900   5.809 -0.1187  0.2647 -0.3631
 6270TIP3    H118732   0.542   6.918   5.879 -1.1710 -0.4251 -1.1273
 6270TIP3    H218733   0.553   6.893   5.730  1.1864  2.0378 -1.4174
 6271TIP3   OH218734   0.393   3.543   0.064 -0.2145 -0.1678  0.2449
 6271TIP3    H118735   0.428   3.594   0.137  3.5336 -0.8180 -0.9759
 6271TIP3    H218736   0.369   3.458   0.103 -0.2236  0.2157  1.0794
 6272TIP3   OH218737   7.423   1.737   4.556  0.4463  0.1640  0.2113
 6272TIP3    H118738   7.491   1.714   4.619  1.3525  0.5412 -0.6105
 6272TIP3    H218739   7.423   1.832   4.553  0.7823  0.1484 -0.7261
 6273TIP3   OH218740   3.028   0.747   5.200  0.1806 -0.0504 -0.1959
 6273TIP3    H118741   3.093   0.817   5.197  0.8540 -0.6699 -0.1132
 6273TIP3    H218742   3.041   0.706   5.286  1.1378 -1.5525 -1.0407
 6274TIP3   OH218743   6.063   3.230   3.929  0.7062  0.8839 -0.4816
 6274TIP3    H118744   5.976   3.215   3.890  1.0918  0.1130 -1.0706
 6274TIP3    H218745   6.085   3.320   3.905 -0.2216  1.3138  0.2500
 6275TIP3   OH218746   5.014   1.739   5.766 -0.0712 -0.2253 -0.2209
 6275TIP3    H118747   5.054   1.823   5.745  1.4234 -0.3993  1.7619
 6275TIP3    H218748   4.920   1.753   5.753 -0.0975  2.5168  2.4201
 6276TIP3   OH218749   2.908   7.904   6.001 -0.2521  0.5193 -0.3976
 6276TIP3    H118750   2.901   7.856   6.084 -2.3384 -0.2847 -0.9990
 6276TIP3    H218751   2.825   7.952   5.995  0.1166  0.9911 -1.7514
 6277TIP3   OH218752   5.059   1.448   6.012 -0.3175  0.2112 -0.2802
 6277TIP3    H118753   5.098   1.534   5.999 -0.4934  0.5471  1.2844
 6277TIP3    H218754   4.998   1.460   6.085 -0.8083 -1.0904 -0.4605
 6278TIP3   OH218755   2.543   8.404   3.786 -0.2377  0.6350 -0.0562
 6278TIP3    H118756   2.603   8.336   3.755 -1.2495  0.5670 -1.8894
 6278TIP3    H218757   2.539   8.390   3.881  0.3773 -1.1929 -0.2698
 6279TIP3   OH218758   5.380   3.986   6.117  0.6515 -0.0410  0.4219
 6279TIP3    H118759   5.394   4.078   6.142  2.5508 -0.1782 -0.0999
 6279TIP3    H218760   5.286   3.981   6.098  0.2144  1.4123  2.0141
 6280TIP3   OH218761   5.818   1.035   4.434 -0.2313  0.4359 -0.2732
 6280TIP3    H118762   5.889   1.053   4.373  1.2248  0.0029  1.2529
 6280TIP3    H218763   5.775   0.957   4.399  0.3716  0.4006 -0.9314
 6281TIP3   OH218764   6.402   0.825   4.669  0.0404 -0.1558  0.2991
 6281TIP3    H118765   6.356   0.832   4.753  1.2318 -0.2983  0.9720
 6281TIP3    H218766   6.419   0.731   4.658 -0.6284 -0.2082 -0.4004
 6282TIP3   OH218767   6.054   0.987   4.015 -0.2214 -0.1292 -0.1174
 6282TIP3    H118768   6.020   1.045   4.083  0.3623  0.4714 -0.3387
 6282TIP3    H218769   6.148   0.982   4.033  0.0738  0.6792 -1.3647
 6283TIP3   OH218770   5.657   0.582   5.979  0.7296 -0.1118  0.0797
 6283TIP3    H118771   5.715   0.549   6.048 -0.7104 -0.3262  1.2138
 6283TIP3    H218772   5.646   0.508   5.920 -1.9698 -1.5986  2.2706
 6284TIP3   OH218773   0.025   4.329   1.687  0.0743  0.3938 -0.0587
 6284TIP3    H118774   0.117   4.352   1.695  0.2823  0.5573 -2.5723
 6284TIP3    H218775  -0.018   4.411   1.662 -0.3341 -0.2325 -1.4686
 6285TIP3   OH218776   6.505   1.119   4.325 -0.3102 -0.3044 -0.1672
 6285TIP3    H118777   6.411   1.113   4.305 -0.5268 -1.5097  1.1382
 6285TIP3    H218778   6.509   1.121   4.420  1.1340 -2.9918 -0.1313
 6286TIP3   OH218779   1.320   8.346   5.364  0.4586 -0.5895  0.3960
 6286TIP3    H118780   1.333   8.277   5.298  0.9214  1.2673 -1.5046
 6286TIP3    H218781   1.227   8.341   5.386  0.3304 -1.3189 -0.2769
 6287TIP3   OH218782   5.545   1.278   4.761  0.0383 -0.2749 -0.3863
 6287TIP3    H118783   5.572   1.293   4.851 -1.1320  1.2123 -0.2550
 6287TIP3    H218784   5.455   1.246   4.768 -0.3603  0.6694 -1.0500
 6288TIP3   OH218785   3.810   7.500   4.121 -0.2913 -0.3011  0.1063
 6288TIP3    H118786   3.774   7.470   4.037  3.4035 -1.7063 -1.0641
 6288TIP3    H218787   3.853   7.423   4.158  0.3776  0.9673  2.0580
 6289TIP3   OH218788   4.833   7.011   7.118 -0.0565 -0.5831  0.5376
 6289TIP3    H118789   4.868   6.967   7.195 -0.4966 -0.5835  0.7439
 6289TIP3    H218790   4.887   7.089   7.108  1.3051 -1.6210 -0.3624
 6290TIP3   OH218791   2.054   1.367   3.030  0.1687  0.5106  0.1590
 6290TIP3    H118792   2.004   1.445   3.006  0.0538 -0.0713 -1.5966
 6290TIP3    H218793   1.996   1.294   3.006  2.4339 -0.2188 -3.4292
 6291TIP3   OH218794   6.896   2.625   4.559 -0.0814  0.1573 -0.1631
 6291TIP3    H118795   6.902   2.720   4.548  1.6060  0.4033  2.2488
 6291TIP3    H218796   6.987   2.595   4.555 -0.4541 -1.1422  0.6938
 6292TIP3   OH218797   3.868   7.728   5.031  0.0393 -0.0542  0.1698
 6292TIP3    H118798   3.935   7.669   5.065 -0.0404 -0.7760 -0.8957
 6292TIP3    H218799   3.787   7.697   5.072 -0.0592 -0.9267 -0.6775
 6293TIP3   OH218800   4.693   1.086   1.762 -0.1965  0.2065 -0.5006
 6293TIP3    H118801   4.729   1.049   1.681 -2.2099 -0.4226 -1.1486
 6293TIP3    H218802   4.712   1.179   1.757 -0.8300  0.2684 -2.0141
 6294TIP3   OH218803   5.372   0.681   4.973  0.5939 -0.0812  0.2769
 6294TIP3    H118804   5.316   0.672   5.050 -0.3450 -1.3501 -0.5403
 6294TIP3    H218805   5.331   0.751   4.922  0.6199  0.0324  0.4106
 6295TIP3   OH218806   0.993   8.275   4.988  0.0596 -0.7284  0.4112
 6295TIP3    H118807   1.062   8.341   4.997  0.0371 -0.8126  1.2438
 6295TIP3    H218808   1.033   8.194   5.017 -0.7658 -0.5393  2.1593
 6296TIP3   OH218809   7.491   1.935   6.690  0.3927  0.0274 -0.1720
 6296TIP3    H118810   7.477   1.938   6.596  0.7784 -1.6400 -0.2955
 6296TIP3    H218811   7.415   1.980   6.727 -0.8587 -1.2274 -1.1928
 6297TIP3   OH218812   1.805   7.741   3.818 -0.9349 -0.1344 -0.5182
 6297TIP3    H118813   1.799   7.647   3.802  1.0732 -0.1716 -1.2789
 6297TIP3    H218814   1.717   7.767   3.846 -1.5884 -2.1697 -0.6046
 6298TIP3   OH218815   7.432   1.851   5.844 -0.1347 -0.1654  0.0723
 6298TIP3    H118816   7.504   1.790   5.859 -0.0455  0.1873  1.1340
 6298TIP3    H218817   7.354   1.800   5.866 -0.2526 -0.6663 -1.4420
 6299TIP3   OH218818   5.404   0.199   4.491 -0.2693 -0.0653 -0.1040
 6299TIP3    H118819   5.327   0.155   4.526  0.6054 -1.2328  0.3772
 6299TIP3    H218820   5.405   0.176   4.398  1.5417 -3.1620  0.6095
 6300TIP3   OH218821   6.330   0.149   5.985  0.0148 -0.0233  0.2198
 6300TIP3    H118822   6.266   0.102   5.931  0.5355  0.7299 -1.0918
 6300TIP3    H218823   6.324   0.108   6.071 -3.5779  1.2515  0.6522
 6301TIP3   OH218824   4.987   1.783   4.279 -0.7882 -0.2396  0.5162
 6301TIP3    H118825   5.018   1.740   4.360  1.5342  0.0916 -0.1574
 6301TIP3    H218826   4.922   1.846   4.309 -1.9155 -1.9669  1.8527
 6302TIP3   OH218827   4.720   0.742   5.217  0.5150  0.1855 -0.2465
 6302TIP3    H118828   4.707   0.744   5.312 -0.8987 -4.8668 -0.1633
 6302TIP3    H218829   4.813   0.723   5.206  0.2083 -1.8096  0.2930
 6303TIP3   OH218830   7.738   1.191   5.267 -0.1485  0.0840  0.7089
 6303TIP3    H118831   7.682   1.265   5.245 -1.5190 -1.1317  0.0342
 6303TIP3    H218832   7.774   1.213   5.353 -0.7546  1.3920  0.6473
 6304TIP3   OH218833   3.052   7.606   5.024 -0.1022  0.4994  0.2535
 6304TIP3    H118834   3.025   7.697   5.014  1.1284  0.6641 -1.9781
 6304TIP3    H218835   3.122   7.608   5.089 -1.4406  0.8662  1.6919
 6305TIP3   OH218836   1.481   8.115   5.742 -0.0669 -0.1395  0.2774
 6305TIP3    H118837   1.452   8.123   5.833  0.5288 -1.7263  0.6302
 6305TIP3    H218838   1.550   8.048   5.745  0.6304  0.4966 -1.1957
 6306TIP3   OH218839   6.116   1.204   5.850 -0.3637 -0.6555 -0.2218
 6306TIP3    H118840   6.078   1.253   5.923 -0.9699 -0.9376 -0.3453
 6306TIP3    H218841   6.120   1.113   5.882 -1.4699 -0.9377 -0.8659
 6307TIP3   OH218842   1.855   7.148   3.483  0.0594 -0.1197 -0.2592
 6307TIP3    H118843   1.800   7.187   3.551 -0.1710  0.0437 -0.5371
 6307TIP3    H218844   1.804   7.074   3.451  0.3321 -0.4203  0.0067
 6308TIP3   OH218845   1.983   8.093   5.670  0.5539  0.0043 -0.4985
 6308TIP3    H118846   1.983   8.088   5.574 -1.4451  2.8782 -0.6934
 6308TIP3    H218847   1.992   8.002   5.698 -0.3577 -1.0457 -3.4288
 6309TIP3   OH218848   6.161   1.691   4.278 -0.1132 -0.4895 -0.6321
 6309TIP3    H118849   6.154   1.630   4.351 -1.8731  1.2121  0.6821
 6309TIP3    H218850   6.098   1.658   4.213 -0.7222 -0.3289 -0.1244
 6310TIP3   OH218851   1.362   7.289   6.243 -0.0806 -0.5111  0.0566
 6310TIP3    H118852   1.352   7.368   6.296 -2.4310  0.0335 -1.1047
 6310TIP3    H218853   1.397   7.320   6.159 -1.1551 -0.6531 -0.4566
 6311TIP3   OH218854   5.600   3.328   6.218  0.0222  0.7892 -0.0379
 6311TIP3    H118855   5.675   3.323   6.278 -0.3943 -0.5895  0.3798
 6311TIP3    H218856   5.614   3.409   6.170  1.2120  1.1044  0.8064
 6312TIP3   OH218857   4.319   2.187   4.297 -0.1925  0.2800  0.3393
 6312TIP3    H118858   4.297   2.275   4.328  0.1521  0.6003 -0.2996
 6312TIP3    H218859   4.297   2.189   4.203 -1.7821 -0.8444  0.6592
 6313TIP3   OH218860   5.062   2.183   4.852 -0.1225 -0.1106  0.9085
 6313TIP3    H118861   5.144   2.189   4.803 -1.4203  2.9028 -1.1056
 6313TIP3    H218862   5.070   2.250   4.920 -1.2621  1.0087 -0.0030
 6314TIP3   OH218863   3.228   7.252   7.100 -0.5462  0.2904 -0.3626
 6314TIP3    H118864   3.221   7.158   7.081 -1.8539 -0.0665  1.7271
 6314TIP3    H218865   3.153   7.291   7.056  0.5439  0.5126 -2.0548
 6315TIP3   OH218866   2.064   8.225   6.681 -0.6332 -0.1228 -0.5158
 6315TIP3    H118867   2.116   8.211   6.602  0.7568 -1.2124  0.5625
 6315TIP3    H218868   2.129   8.228   6.752 -2.0149 -1.1303  0.8183
 6316TIP3   OH218869   3.449   1.380   5.622 -0.4120 -0.0901 -0.3196
 6316TIP3    H118870   3.534   1.368   5.581  0.2110  0.2763  0.8463
 6316TIP3    H218871   3.464   1.443   5.692 -1.3539 -1.0372  0.7663
 6317TIP3   OH218872   4.567   0.512   5.154  0.2314 -0.5229 -0.3823
 6317TIP3    H118873   4.622   0.589   5.165  0.4647 -1.0040  2.2137
 6317TIP3    H218874   4.625   0.438   5.173 -0.7559 -1.1556  0.2143
 6318TIP3   OH218875   4.731   2.106   3.439 -0.5403  0.5766  0.3804
 6318TIP3    H118876   4.708   2.047   3.367  0.7244  2.0681 -1.2809
 6318TIP3    H218877   4.757   2.048   3.510  0.0040 -0.8930 -0.9961
 6319TIP3   OH218878   5.272   2.134   5.084  0.4627  0.4465  0.4281
 6319TIP3    H118879   5.361   2.131   5.119  0.4644  2.7773  0.6649
 6319TIP3    H218880   5.218   2.160   5.158 -0.5761 -1.8057  0.5060
 6320TIP3   OH218881   7.885   0.104   5.502 -0.0259  0.2591  0.3431
 6320TIP3    H118882   7.922   0.131   5.586  2.1292  0.1651 -0.5379
 6320TIP3    H218883   7.946   0.138   5.436 -0.2126 -1.9397 -1.0499
 6321TIP3   OH218884   1.257   7.838   6.323  0.4262 -0.4672  0.1520
 6321TIP3    H118885   1.337   7.808   6.279 -0.0438  0.4411 -1.3369
 6321TIP3    H218886   1.187   7.788   6.281  0.0779 -0.3597  0.6065
 6322TIP3   OH218887   3.318   7.621   6.951  0.5645 -0.1426  0.4018
 6322TIP3    H118888   3.325   7.713   6.926  1.8827 -0.5782 -0.8480
 6322TIP3    H218889   3.397   7.604   7.003 -0.5315 -0.1273  2.1427
 6323TIP3   OH218890   4.308   6.015   5.543  0.8271  0.0263 -0.2374
 6323TIP3    H118891   4.401   6.034   5.555  0.7019 -0.0287  0.8659
 6323TIP3    H218892   4.264   6.099   5.557  0.8046  0.3649 -2.1544
 6324TIP3   OH218893   4.338   7.650   4.322 -0.1865 -0.3845  0.5061
 6324TIP3    H118894   4.374   7.599   4.249 -1.0879 -1.0853  0.5378
 6324TIP3    H218895   4.272   7.593   4.361  0.0075  0.1485  1.6265
 6325TIP3   OH218896   8.910   2.944   0.089 -0.3895 -0.8801 -0.6110
 6325TIP3    H118897   8.845   2.987   0.145 -0.6984 -0.0761 -1.5694
 6325TIP3    H218898   8.934   2.865   0.137 -0.9633 -0.4197  0.4580
 6326TIP3   OH218899   3.024   7.742   6.779  0.5426  0.3882  0.1694
 6326TIP3    H118900   3.061   7.799   6.847  0.6097 -1.2916  1.5929
 6326TIP3    H218901   3.099   7.718   6.725  1.4468 -2.1333  2.4035
 6327TIP3   OH218902   6.441   2.778   3.875  0.2389  0.2223 -0.3366
 6327TIP3    H118903   6.358   2.806   3.838  1.0633  2.6101 -0.4516
 6327TIP3    H218904   6.432   2.684   3.886 -2.4820  0.4569 -0.3278
 6328TIP3   OH218905   5.301   1.146   4.885  0.0733  0.0823 -0.1730
 6328TIP3    H118906   5.267   1.101   4.962 -1.7508  1.9199  0.1249
 6328TIP3    H218907   5.236   1.130   4.816 -0.6485  2.2827 -0.0368
 6329TIP3   OH218908   4.788   2.304   3.092  0.0684 -0.1557  0.5660
 6329TIP3    H118909   4.718   2.258   3.138  0.5495  0.9697  2.4659
 6329TIP3    H218910   4.867   2.254   3.112  0.3588  0.6314  1.3974
 6330TIP3   OH218911   5.919   1.913   4.641 -0.2686 -0.3454  0.0351
 6330TIP3    H118912   5.972   1.886   4.716 -0.7361 -2.2078 -0.2675
 6330TIP3    H218913   5.977   1.969   4.590  1.2582 -1.8904 -0.0059
 6331TIP3   OH218914   7.308   0.766   4.166  0.0958  0.0140  0.0435
 6331TIP3    H118915   7.252   0.716   4.225  0.8911 -0.1931  0.6362
 6331TIP3    H218916   7.268   0.852   4.161 -0.7209 -0.3778 -0.1803
 6332TIP3   OH218917   6.749   0.618   6.669 -0.0345  0.1513  0.2686
 6332TIP3    H118918   6.791   0.587   6.749 -0.1304 -0.9223 -0.0847
 6332TIP3    H218919   6.821   0.640   6.610  0.0339  0.0273  0.3065
 6333TIP3   OH218920   4.721   8.221   4.908  0.5430  0.1978 -0.0358
 6333TIP3    H118921   4.779   8.152   4.941 -0.4857 -0.9206 -0.4998
 6333TIP3    H218922   4.694   8.269   4.986  0.3450 -0.6684  0.4426
 6334TIP3   OH218923   5.357   1.328   4.114 -0.2273 -0.3421  0.6267
 6334TIP3    H118924   5.403   1.330   4.030 -0.7613 -0.6749  0.3305
 6334TIP3    H218925   5.417   1.373   4.174 -0.3281  0.8833 -0.1628
 6335TIP3   OH218926   4.363   2.790   5.374 -0.1291  0.0284 -0.1863
 6335TIP3    H118927   4.299   2.861   5.374 -0.7374 -0.5042 -1.4182
 6335TIP3    H218928   4.442   2.829   5.338  0.2010  0.6492  1.1995
 6336TIP3   OH218929   7.681   1.811   3.949  0.2646  0.3218 -0.2053
 6336TIP3    H118930   7.766   1.774   3.970  0.8956  1.3546 -0.9077
 6336TIP3    H218931   7.673   1.888   4.006 -0.6204 -0.3164  0.5578
 6337TIP3   OH218932   6.231   2.666   5.403 -0.1448 -0.5245 -0.3111
 6337TIP3    H118933   6.276   2.586   5.434  1.3263  1.1618  2.1372
 6337TIP3    H218934   6.299   2.715   5.357 -0.3363  0.4975  0.4697
 6338TIP3   OH218935   4.526   4.043   4.924 -0.1070 -0.1146  0.6599
 6338TIP3    H118936   4.433   4.054   4.943 -0.3090  0.2416 -0.4940
 6338TIP3    H218937   4.529   3.966   4.867  0.0769  1.1340 -1.0520
 6339TIP3   OH218938   6.160   0.133   5.252  0.1387 -0.4270  0.0358
 6339TIP3    H118939   6.216   0.171   5.321 -0.4745  1.7472 -0.6173
 6339TIP3    H218940   6.158   0.040   5.272  1.1900 -0.0496  2.1026
 6340TIP3   OH218941   6.050   0.613   6.374 -0.0434 -0.0677  0.1976
 6340TIP3    H118942   6.077   0.610   6.282 -0.2962 -0.2804  0.1324
 6340TIP3    H218943   6.085   0.533   6.412  0.1988  0.0969  0.3259
 6341TIP3   OH218944   2.498   8.005   4.879 -0.2895  0.0506 -0.2683
 6341TIP3    H118945   2.580   7.982   4.924 -0.0946  3.7579  1.4085
 6341TIP3    H218946   2.526   8.047   4.798 -0.6154 -1.2242 -1.0661
 6342TIP3   OH218947   7.573   0.521   4.236 -0.1767 -0.0933 -0.4622
 6342TIP3    H118948   7.589   0.610   4.268  0.3892  0.0644 -1.1942
 6342TIP3    H218949   7.526   0.478   4.308  0.7643  0.3820  0.4478
 6343TIP3   OH218950   7.388   1.287   5.299  0.4744 -0.5649  0.1118
 6343TIP3    H118951   7.337   1.215   5.335 -1.0578  0.0400 -0.7783
 6343TIP3    H218952   7.332   1.324   5.230  2.1904  0.0093 -1.0134
 6344TIP3   OH218953   5.788   2.100   5.840 -1.1188 -0.2119 -0.0823
 6344TIP3    H118954   5.851   2.041   5.880 -1.0715  0.7412  1.2869
 6344TIP3    H218955   5.828   2.124   5.756  0.2045  0.1309  0.6292
 6345TIP3   OH218956   2.142   8.176   4.929 -0.3013 -0.2908 -0.7375
 6345TIP3    H118957   2.198   8.101   4.951 -0.6856 -0.4679 -0.3584
 6345TIP3    H218958   2.187   8.219   4.856  0.8657  0.1499  0.2204
 6346TIP3   OH218959   3.122   8.286   5.351  0.4243 -0.2900 -0.5429
 6346TIP3    H118960   3.039   8.268   5.307 -0.0937 -0.8870  0.6347
 6346TIP3    H218961   3.157   8.199   5.371 -0.1175 -0.0642  1.5856
 6347TIP3   OH218962   1.935   6.897   4.941 -0.2093  0.2787 -0.2343
 6347TIP3    H118963   1.976   6.941   4.867  0.1121  2.0128  0.9383
 6347TIP3    H218964   1.844   6.883   4.913 -0.5516  2.4740 -0.3323
 6348TIP3   OH218965   8.625   7.453   4.012  0.5223 -0.2946 -0.5898
 6348TIP3    H118966   8.553   7.486   3.958  2.5983  1.3424 -2.4946
 6348TIP3    H218967   8.644   7.525   4.072  2.5133  0.5165 -2.1359
 6349TIP3   OH218968   5.421   0.714   6.112  0.0616  0.1771 -0.0563
 6349TIP3    H118969   5.445   0.806   6.102 -0.6963  0.1412 -2.3251
 6349TIP3    H218970   5.489   0.666   6.066 -1.4362 -0.1889 -1.9614
 6350TIP3   OH218971   3.710   0.519   6.852 -0.2831 -0.0117 -0.5202
 6350TIP3    H118972   3.746   0.474   6.928 -1.9322 -1.4316 -0.5620
 6350TIP3    H218973   3.655   0.588   6.890 -0.3213 -0.0926 -0.4269
 6351TIP3   OH218974   1.935   7.895   3.619 -0.3163  0.1637 -0.0118
 6351TIP3    H118975   1.991   7.818   3.606  0.2957  0.4247  1.0143
 6351TIP3    H218976   1.876   7.870   3.689  1.5812  1.5076  2.1478
 6352TIP3   OH218977   8.165   5.360   0.154 -0.2011  0.1983  0.2786
 6352TIP3    H118978   8.252   5.321   0.143 -0.9686 -1.2317 -0.9800
 6352TIP3    H218979   8.167   5.437   0.098  0.0453 -0.2115 -0.2872
 6353TIP3   OH218980   7.023   0.887   5.711 -0.1621 -0.4910 -0.3609
 6353TIP3    H118981   7.019   0.982   5.719  0.2117 -0.5580  0.7287
 6353TIP3    H218982   6.933   0.861   5.692 -0.5804 -0.0497  0.9647
 6354TIP3   OH218983   4.322   2.069   5.195 -0.2869 -0.6808  0.3155
 6354TIP3    H118984   4.243   2.121   5.205 -0.7935 -1.2877 -0.4495
 6354TIP3    H218985   4.373   2.115   5.128  0.6162  0.4204  1.7339
 6355TIP3   OH218986   5.406   1.441   5.805 -0.4476  0.0993 -0.2282
 6355TIP3    H118987   5.337   1.381   5.779 -0.3071  0.1306 -0.6772
 6355TIP3    H218988   5.401   1.513   5.742  1.2922 -0.8734 -1.5116
 6356TIP3   OH218989   5.198   2.164   5.347 -0.0312  0.4344  0.2884
 6356TIP3    H118990   5.231   2.079   5.375 -0.8613 -0.3532 -1.0717
 6356TIP3    H218991   5.109   2.168   5.383  0.2779  1.0671  0.9993
 6357TIP3   OH218992   5.577   2.001   6.753  0.7656  0.3567  0.3336
 6357TIP3    H118993   5.502   2.000   6.813  0.4944  1.7296  0.0321
 6357TIP3    H218994   5.651   1.974   6.808 -0.4658 -4.4152 -0.1654
 6358TIP3   OH218995   5.355   1.707   5.673 -0.7268  0.2994 -0.5500
 6358TIP3    H118996   5.267   1.689   5.706 -0.9621  1.4946 -0.4885
 6358TIP3    H218997   5.350   1.684   5.580 -0.8134 -0.5972 -0.3222
 6359TIP3   OH218998   6.131   1.101   2.174 -0.1709 -0.2899 -0.5057
 6359TIP3    H118999   6.101   1.011   2.162 -0.7510 -0.3165  0.9952
 6359TIP3    H219000   6.157   1.130   2.087  0.3173 -2.0160 -0.9504
 6360TIP3   OH219001   1.266   6.365   5.141 -0.2566  0.1028  0.8995
 6360TIP3    H119002   1.308   6.280   5.152  0.5019  0.1175 -1.6815
 6360TIP3    H219003   1.281   6.410   5.225  1.7378 -1.2606  1.3166
 6361TIP3   OH219004   4.323   1.262   4.023  0.7263  0.1822  0.0310
 6361TIP3    H119005   4.405   1.211   4.024 -0.3987 -1.6733  1.1070
 6361TIP3    H219006   4.319   1.301   4.110  0.8609  0.9468 -0.3020
 6362TIP3   OH219007   3.845   1.582   3.759  0.0117  0.2299 -0.1383
 6362TIP3    H119008   3.901   1.516   3.718  1.1494  0.2537  1.3473
 6362TIP3    H219009   3.899   1.619   3.829 -1.6683  0.6165  0.9806
 6363TIP3   OH219010   2.404   7.703   4.114 -0.2630  0.3816  0.3679
 6363TIP3    H119011   2.415   7.671   4.203  0.0022 -1.0366 -0.1688
 6363TIP3    H219012   2.373   7.628   4.064  0.4098  0.9400 -0.9205
 6364TIP3   OH219013   5.101   0.149   4.054  0.7119  0.1698  0.0029
 6364TIP3    H119014   5.178   0.140   3.997  0.4979 -0.4297 -0.1993
 6364TIP3    H219015   5.030   0.109   4.003  0.6847 -1.1119  1.0373
 6365TIP3   OH219016   6.017   2.673   4.648  0.3492  0.5126 -0.4222
 6365TIP3    H119017   6.005   2.615   4.723 -0.1234  2.9267  1.4249
 6365TIP3    H219018   6.099   2.644   4.608  0.4453 -0.9871  0.8283
 6366TIP3   OH219019   4.273   0.653   6.037 -0.0705  0.0648 -0.4687
 6366TIP3    H119020   4.231   0.618   6.116  0.0919  0.2952 -0.2808
 6366TIP3    H219021   4.331   0.582   6.008 -0.1482 -0.0289 -0.3969
 6367TIP3   OH219022   7.045   1.216   3.039  0.0841  0.1387  0.2650
 6367TIP3    H119023   6.952   1.191   3.039  0.5749 -1.8225 -0.5763
 6367TIP3    H219024   7.084   1.160   2.972  1.6037  2.0708 -0.5072
 6368TIP3   OH219025   4.835   6.902   5.755  0.4370  0.4598  0.6008
 6368TIP3    H119026   4.792   6.922   5.838 -1.8497 -1.5110 -0.0583
 6368TIP3    H219027   4.880   6.819   5.771  0.4338  0.3493  0.0317
 6369TIP3   OH219028   8.334   2.907   6.807 -0.6047  0.5793 -0.2952
 6369TIP3    H119029   8.379   2.990   6.791 -0.2752  0.3906 -0.3346
 6369TIP3    H219030   8.373   2.845   6.746  0.1881  0.0204  0.7568
 6370TIP3   OH219031   7.148   8.272   2.729  0.4816  0.5491  0.5830
 6370TIP3    H119032   7.065   8.283   2.775 -0.9451 -1.8185 -1.3123
 6370TIP3    H219033   7.158   8.354   2.680 -2.7032 -0.5280 -2.1023
 6371TIP3   OH219034   8.221   2.424   4.030 -0.1530 -0.2785  0.4551
 6371TIP3    H119035   8.305   2.412   3.987 -0.3315 -0.4420  0.1524
 6371TIP3    H219036   8.156   2.413   3.960 -0.4199 -0.0501  0.6651
 6372TIP3   OH219037   3.985   6.854   3.031  0.2399  0.2336 -0.1862
 6372TIP3    H119038   3.951   6.940   3.006  0.5725  0.5292  0.3758
 6372TIP3    H219039   3.936   6.792   2.976 -0.7563  0.6986  0.1644
 6373TIP3   OH219040   2.921   7.528   5.750 -0.0536  0.0224 -0.1533
 6373TIP3    H119041   2.961   7.528   5.837 -1.9888 -2.9261  0.8190
 6373TIP3    H219042   2.836   7.571   5.763  0.0918  0.5050 -0.7965
 6374TIP3   OH219043   5.879   0.732   5.118  0.6249 -0.4019  0.9515
 6374TIP3    H119044   5.836   0.647   5.112  2.4092 -1.3044  0.4807
 6374TIP3    H219045   5.842   0.783   5.045  1.2973 -1.6106 -0.2599
 6375TIP3   OH219046   6.138   0.672   5.875  0.1862 -0.5946 -0.3714
 6375TIP3    H119047   6.218   0.638   5.835  0.3884  0.9141 -1.2812
 6375TIP3    H219048   6.085   0.702   5.801 -0.6333 -0.3275  0.3158
 6376TIP3   OH219049   3.368   7.098   4.101 -0.1459  0.6062  0.2906
 6376TIP3    H119050   3.431   7.147   4.047 -0.5985  0.2172 -0.6040
 6376TIP3    H219051   3.421   7.058   4.169  0.7271 -0.4906 -1.0099
 6377TIP3   OH219052   4.491   8.078   4.263 -0.5426 -0.3844  0.2535
 6377TIP3    H119053   4.525   7.997   4.225 -0.5310 -0.2893  0.0624
 6377TIP3    H219054   4.551   8.146   4.234 -2.4798  0.2504 -2.5126
 6378TIP3   OH219055   7.603   1.472   4.706  0.6415  0.3374 -0.3026
 6378TIP3    H119056   7.560   1.550   4.742 -0.9239 -0.2207 -0.9026
 6378TIP3    H219057   7.534   1.429   4.655  2.4822  0.5124 -3.0490
 6379TIP3   OH219058   0.730   6.791   0.017 -0.0527 -0.2412 -0.3084
 6379TIP3    H119059   0.773   6.716  -0.026 -1.1666 -1.4424  0.6433
 6379TIP3    H219060   0.801   6.854   0.030  1.3023 -1.8831  0.5713
 6380TIP3   OH219061   7.907   1.484   4.971 -0.6403  0.1986 -0.4033
 6380TIP3    H119062   7.896   1.477   4.876 -0.9765  1.0303 -0.4358
 6380TIP3    H219063   7.875   1.401   5.005  0.2964 -0.4425 -1.0828
 6381TIP3   OH219064   4.321   0.315   4.166  0.2640  0.2844  0.3712
 6381TIP3    H119065   4.306   0.399   4.122 -0.5323  0.5077  1.0649
 6381TIP3    H219066   4.234   0.274   4.169  0.6458 -0.5493  0.0639
 6382TIP3   OH219067   4.104   7.765   5.960 -0.0145  0.1621 -0.4879
 6382TIP3    H119068   4.152   7.692   5.998 -1.4995 -1.2772 -1.3088
 6382TIP3    H219069   4.158   7.842   5.979  1.4255 -1.0954  0.6438
 6383TIP3   OH219070   6.624   0.392   4.609  0.6737  0.2558  0.6892
 6383TIP3    H119071   6.634   0.328   4.538  0.1653  0.3503  0.5231
 6383TIP3    H219072   6.647   0.344   4.688  0.4692 -0.0849  0.5448
 6384TIP3   OH219073   5.264   3.233   4.190  0.1333 -0.6273 -0.3978
 6384TIP3    H119074   5.192   3.261   4.247 -0.4792  0.1101 -1.5138
 6384TIP3    H219075   5.310   3.314   4.168  0.0994 -0.8506 -1.3074
 6385TIP3   OH219076   5.508   1.071   6.539 -0.2536  0.5960 -0.1444
 6385TIP3    H119077   5.472   1.050   6.452 -1.4284 -0.1488  0.5085
 6385TIP3    H219078   5.464   1.010   6.598  1.1155  0.5826  0.8766
 6386TIP3   OH219079   8.105   1.032   6.724  0.0931  0.0446  0.2199
 6386TIP3    H119080   8.165   1.089   6.676 -0.9617  0.0301 -1.1329
 6386TIP3    H219081   8.031   1.089   6.745  0.4354 -0.0118  1.6326
 6387TIP3   OH219082   7.432   0.644   5.436  0.3905  0.0706 -0.6090
 6387TIP3    H119083   7.504   0.586   5.413 -0.2784 -0.5707 -1.1172
 6387TIP3    H219084   7.466   0.732   5.421  1.7843 -0.1332  1.2146
 6388TIP3   OH219085   4.686   0.204   3.813 -0.1169  0.1627  0.7049
 6388TIP3    H119086   4.604   0.237   3.776 -0.4580  0.6186  1.8539
 6388TIP3    H219087   4.753   0.230   3.749 -1.0188 -1.4385 -0.9514
 6389TIP3   OH219088   5.895   0.393   5.013 -0.0104 -0.0801  0.6692
 6389TIP3    H119089   5.957   0.425   4.947 -1.1270 -0.1241 -0.4049
 6389TIP3    H219090   5.943   0.400   5.096  1.4123 -0.0543 -0.1420
 6390TIP3   OH219091   5.487   0.884   4.458  0.0306 -0.0322 -0.7531
 6390TIP3    H119092   5.565   0.831   4.440  0.4350 -0.1339  1.1904
 6390TIP3    H219093   5.415   0.821   4.456  0.2025 -0.2233 -0.9616
 6391TIP3   OH219094   3.321   7.724   3.176 -0.6679 -0.2528 -0.0496
 6391TIP3    H119095   3.346   7.734   3.084 -2.0962 -2.9129 -0.7789
 6391TIP3    H219096   3.243   7.779   3.186 -0.1494  0.5310 -0.2339
 6392TIP3   OH219097   3.283   6.836   4.134 -0.3715  0.4468  0.2499
 6392TIP3    H119098   3.343   6.761   4.130 -3.8469 -2.3188 -2.4709
 6392TIP3    H219099   3.341   6.912   4.124  3.2801 -1.7617  3.2763
 6393TIP3   OH219100   3.660   7.035   3.798  0.5910 -0.2512  0.4211
 6393TIP3    H119101   3.632   7.109   3.851 -0.6279  1.6003 -2.6516
 6393TIP3    H219102   3.586   6.974   3.801  0.0338  0.3854 -0.0443
 6394TIP3   OH219103   4.507   7.964   5.811  0.4674 -0.5016  0.5815
 6394TIP3    H119104   4.492   8.048   5.768  1.7086 -0.5695 -0.0144
 6394TIP3    H219105   4.444   7.962   5.882 -0.9975  0.0304 -0.6657
 6395TIP3   OH219106   5.454   0.079   4.254  0.3979 -0.5861  0.7584
 6395TIP3    H119107   5.414   0.042   4.176 -0.3974  1.6306  0.0732
 6395TIP3    H219108   5.545   0.096   4.229 -0.1137  1.0974 -0.0858
 6396TIP3   OH219109   2.824   7.856   4.271 -0.1372 -0.2875  0.1621
 6396TIP3    H119110   2.867   7.878   4.353  1.4095 -0.2067 -0.6492
 6396TIP3    H219111   2.888   7.879   4.203 -1.3051 -0.5363 -1.0554
 6397TIP3   OH219112   6.782   2.553   2.949  0.4361 -0.4038  0.3229
 6397TIP3    H119113   6.725   2.630   2.957  1.0123  0.3987 -2.6580
 6397TIP3    H219114   6.869   2.590   2.935  0.9302 -1.5986  0.2250
 6398TIP3   OH219115   4.695   7.702   5.123 -0.3127 -0.0005  0.0491
 6398TIP3    H119116   4.754   7.715   5.197 -0.6090  0.4488  0.2076
 6398TIP3    H219117   4.608   7.722   5.157 -0.6818 -1.6091  0.0666
 6399TIP3   OH219118   6.943   1.145   3.289 -0.0532 -0.3518  0.1144
 6399TIP3    H119119   7.002   1.096   3.347 -0.7006 -1.3119 -0.0114
 6399TIP3    H219120   6.990   1.150   3.206  0.5032  0.2437  0.4686
 6400TIP3   OH219121   8.153   1.283   4.383  0.1747 -0.2467  0.3777
 6400TIP3    H119122   8.221   1.287   4.451 -0.5508 -1.1866  1.1595
 6400TIP3    H219123   8.176   1.206   4.331  2.0769  1.7748 -1.9123
 6401TIP3   OH219124   5.868   0.640   4.166 -0.5750 -0.3421  0.1489
 6401TIP3    H119125   5.948   0.664   4.213 -1.7226  1.6873  1.1320
 6401TIP3    H219126   5.897   0.577   4.100  1.6971 -0.2606  1.0286
 6402TIP3   OH219127   6.486   0.072   5.345 -0.2487 -0.4703  0.1043
 6402TIP3    H119128   6.570   0.117   5.354 -0.1624 -0.9728  1.9237
 6402TIP3    H219129   6.424   0.128   5.391 -0.5837 -1.0154  0.3109
 6403TIP3   OH219130   7.359   0.871   4.664 -0.1848  0.0900 -0.2778
 6403TIP3    H119131   7.382   0.947   4.610  1.7894 -0.6694 -0.5409
 6403TIP3    H219132   7.443   0.827   4.681 -1.4621 -2.9691 -1.5052
 6404TIP3   OH219133   3.555   8.213   2.532  0.3528 -0.3543 -0.5511
 6404TIP3    H119134   3.540   8.184   2.621 -1.3788  0.8999 -0.4013
 6404TIP3    H219135   3.510   8.149   2.477  0.0442 -0.2382 -0.4339
 6405TIP3   OH219136   7.308   1.954   2.759  0.0985  0.3837 -0.7594
 6405TIP3    H119137   7.340   1.958   2.850  0.7502  1.6707 -1.0433
 6405TIP3    H219138   7.386   1.961   2.705 -0.5158  2.2028 -1.4482
 6406TIP3   OH219139   3.375   8.103   5.073 -0.3333 -0.2927  0.5270
 6406TIP3    H119140   3.381   8.051   4.993  1.2362  0.3417  0.2186
 6406TIP3    H219141   3.460   8.146   5.080 -1.0504  0.9784  1.6329
 6407TIP3   OH219142   3.094   6.829   6.069 -0.1223  0.4834 -0.0132
 6407TIP3    H119143   3.057   6.893   6.130 -1.0093  0.9602 -1.0459
 6407TIP3    H219144   3.101   6.876   5.986  2.3883  0.2696  0.0259
 6408TIP3   OH219145   5.948   0.052   3.899  0.2143  0.0530 -0.3696
 6408TIP3    H119146   5.908   0.063   3.812 -2.3471  0.1680  0.7818
 6408TIP3    H219147   5.915  -0.032   3.930  0.6332  0.2966  0.7371
 6409TIP3   OH219148   6.762   0.141   5.162  0.5238 -0.4372 -0.1706
 6409TIP3    H119149   6.800   0.225   5.139  0.4268 -0.0623  1.0064
 6409TIP3    H219150   6.780   0.085   5.086 -0.8425  1.0710 -1.6472
 6410TIP3   OH219151   7.071   0.278   3.041  0.5083 -0.0338  0.5474
 6410TIP3    H119152   7.163   0.259   3.059  0.2823  0.5634  2.3842
 6410TIP3    H219153   7.023   0.241   3.115 -0.5219  1.7201  0.7856
 6411TIP3   OH219154   5.640   0.853   2.923  0.0391  0.0489 -0.1597
 6411TIP3    H119155   5.680   0.867   2.837  0.8479  0.3801  0.2658
 6411TIP3    H219156   5.547   0.838   2.904  0.3703 -0.7936 -1.1672
 6412TIP3   OH219157   6.210   1.061   4.354 -0.4657  0.2946  0.4521
 6412TIP3    H119158   6.214   1.104   4.440 -4.2742 -0.8456  1.2651
 6412TIP3    H219159   6.156   1.119   4.300 -1.1587 -0.8089 -0.0576
 6413TIP3   OH219160   6.242   1.237   4.543  0.5237 -0.1302  0.1530
 6413TIP3    H119161   6.330   1.235   4.581  0.6382 -1.5701 -0.1473
 6413TIP3    H219162   6.184   1.256   4.617  1.0086 -0.0060  0.5018
 6414TIP3   OH219163   0.749   0.900   4.947  0.2387 -0.3594 -0.0636
 6414TIP3    H119164   0.723   0.810   4.963 -0.8578  0.3200  2.1094
 6414TIP3    H219165   0.729   0.915   4.855 -0.8328 -1.9201 -0.0928
 6415TIP3   OH219166   5.538   0.697   6.848  0.4578 -0.0986 -0.4294
 6415TIP3    H119167   5.628   0.679   6.821  0.1388 -1.9540 -0.3467
 6415TIP3    H219168   5.491   0.615   6.832 -1.3474  0.9870 -0.9478
 6416TIP3   OH219169   8.470   0.009   5.102 -0.1139  0.0677  0.1585
 6416TIP3    H119170   8.480   0.099   5.133 -1.8366  0.1855  0.4501
 6416TIP3    H219171   8.392  -0.023   5.148 -0.3227 -1.1080 -0.9807
 6417TIP3   OH219172   5.033   7.877   1.199 -0.3912  0.2982 -0.6067
 6417TIP3    H119173   4.962   7.814   1.210  0.5293 -0.8010 -0.9548
 6417TIP3    H219174   5.039   7.921   1.285  0.0884 -1.2477  0.1619
 6418TIP3   OH219175   3.731   7.456   3.846  0.3211 -0.2034 -0.1491
 6418TIP3    H119176   3.637   7.453   3.824  0.1863 -0.9784  0.5293
 6418TIP3    H219177   3.768   7.381   3.799  0.4320 -0.4831  0.3859
 6419TIP3   OH219178   6.036   0.022   5.596 -0.1766  0.0828  0.4204
 6419TIP3    H119179   6.094   0.003   5.522  0.2113  0.6628  0.5786
 6419TIP3    H219180   5.952   0.045   5.555 -0.0126  0.2250  0.1661
 6420TIP3   OH219181   7.610   1.643   5.038  0.1840  0.4859  0.9758
 6420TIP3    H119182   7.609   1.547   5.044  1.2388  0.4171  0.2345
 6420TIP3    H219183   7.699   1.667   5.061  0.6819  1.0821 -1.4316
 6421TIP3   OH219184   3.622   7.697   4.157 -0.0424  0.6216  0.6492
 6421TIP3    H119185   3.585   7.666   4.240 -0.0985 -1.8822 -0.2735
 6421TIP3    H219186   3.700   7.644   4.143 -0.6352  0.2454 -1.4348
 6422TIP3   OH219187   7.828   2.432   3.631  0.1637 -0.1466 -0.2218
 6422TIP3    H119188   7.823   2.347   3.585  0.3101 -0.2846  0.0198
 6422TIP3    H219189   7.766   2.487   3.584  0.4831 -0.2218 -0.7368
 6423TIP3   OH219190   3.167   0.726   6.810 -1.0249  0.4082  0.5893
 6423TIP3    H119191   3.195   0.646   6.768  1.1750 -0.0335  2.7643
 6423TIP3    H219192   3.098   0.760   6.754  0.9428 -0.7452 -2.6661
 6424TIP3   OH219193   5.287   5.102   6.341  0.5407  0.1960  0.3368
 6424TIP3    H119194   5.233   5.033   6.302 -0.3317  0.8301  0.4229
 6424TIP3    H219195   5.297   5.077   6.432  1.7126 -0.7439 -0.0332
 6425TIP3   OH219196   3.187   7.415   5.233  0.1792  0.3662  0.2534
 6425TIP3    H119197   3.098   7.430   5.201 -0.3463 -2.0713  0.4704
 6425TIP3    H219198   3.190   7.322   5.254  2.5015  0.6030  1.1743
 6426TIP3   OH219199   7.372   0.308   4.709 -0.1109  0.2033 -0.1820
 6426TIP3    H119200   7.419   0.273   4.785  0.2466 -0.7059 -0.8093
 6426TIP3    H219201   7.299   0.247   4.698  0.4268 -0.2669 -1.1887
 6427TIP3   OH219202   6.373   0.776   5.017 -0.2075  0.1152 -0.7709
 6427TIP3    H119203   6.298   0.835   5.022  0.6530  1.0526  2.8490
 6427TIP3    H219204   6.347   0.699   5.067  0.6043 -0.3195 -1.0079
 6428TIP3   OH219205   2.538   6.580   1.424 -0.4016  0.7078 -0.0222
 6428TIP3    H119206   2.547   6.492   1.460 -1.3542 -0.2588 -2.0731
 6428TIP3    H219207   2.451   6.609   1.453  0.0138  1.1064  0.8673
 6429TIP3   OH219208   7.379   2.569   5.194 -0.1650 -0.1575  0.0057
 6429TIP3    H119209   7.319   2.604   5.127 -1.2858 -0.5906  0.7694
 6429TIP3    H219210   7.450   2.633   5.198 -0.6378  0.4342 -0.8279
 6430TIP3   OH219211   7.027   1.202   5.822 -0.5376 -0.5545 -0.0193
 6430TIP3    H119212   7.029   1.291   5.857 -1.5402 -0.7049  0.4501
 6430TIP3    H219213   6.978   1.210   5.740 -0.0123 -0.5557 -0.3341
 6431TIP3   OH219214   3.823   7.343   6.562 -0.4988 -0.1635 -0.0386
 6431TIP3    H119215   3.821   7.418   6.503  0.8487  0.7722  1.0862
 6431TIP3    H219216   3.904   7.296   6.538 -0.8544 -0.7499 -0.1080
 6432TIP3   OH219217   3.523   7.206   4.477  0.3110 -0.6585 -0.3746
 6432TIP3    H119218   3.547   7.281   4.423  0.0398 -0.7862 -0.6742
 6432TIP3    H219219   3.435   7.226   4.509 -0.2412 -1.3730 -1.4101
 6433TIP3   OH219220   6.612   1.462   3.919 -0.2835  0.5143  0.2036
 6433TIP3    H119221   6.683   1.484   3.980 -1.3747  0.7404  1.4138
 6433TIP3    H219222   6.617   1.530   3.852  0.3541  0.8029  0.5285
 6434TIP3   OH219223   0.910   1.240   4.306  0.3017 -0.0501  0.0127
 6434TIP3    H119224   0.907   1.144   4.311  0.4486 -0.0821 -0.4813
 6434TIP3    H219225   0.818   1.266   4.301  0.2451 -0.1419  0.4652
 6435TIP3   OH219226   3.701   7.145   5.240 -0.3800 -0.1918  0.2113
 6435TIP3    H119227   3.637   7.086   5.201 -0.0678 -0.8178  0.6496
 6435TIP3    H219228   3.736   7.097   5.315  2.2396 -0.7622 -1.3360
 6436TIP3   OH219229   7.075   0.031   4.894  0.1141 -0.0660 -0.2209
 6436TIP3    H119230   7.114  -0.056   4.881  0.9237  0.0172  1.4626
 6436TIP3    H219231   7.063   0.065   4.806  1.6716 -1.0700 -0.8525
 6437TIP3   OH219232   3.257   6.986   1.777 -0.8141  0.3478 -0.4773
 6437TIP3    H119233   3.279   6.956   1.689  0.3060 -1.5914  0.4296
 6437TIP3    H219234   3.213   6.911   1.818  0.6528  0.4479  1.3381
 6438TIP3   OH219235   2.922   6.784   4.625  0.2749 -0.9180 -0.6912
 6438TIP3    H119236   2.950   6.726   4.554  0.4355 -1.2884 -0.3265
 6438TIP3    H219237   2.985   6.768   4.695  0.9261  0.4410 -0.9511
 6439TIP3   OH219238   7.016   1.793   4.946  0.1973 -0.3313 -0.4027
 6439TIP3    H119239   6.977   1.846   5.015 -0.0864 -0.0509 -0.7766
 6439TIP3    H219240   6.948   1.730   4.922  0.3786 -0.5832 -0.2611
 6440TIP3   OH219241   6.963   0.441   5.434 -0.5032 -0.1483  0.0854
 6440TIP3    H119242   6.920   0.477   5.356 -1.6920 -2.7573 -0.5006
 6440TIP3    H219243   7.056   0.452   5.417 -0.7602 -0.3801 -1.5744
 6441TIP3   OH219244   7.566   0.796   4.289  0.2602 -0.0899 -0.3651
 6441TIP3    H119245   7.629   0.825   4.222  0.1247 -2.4428 -1.5567
 6441TIP3    H219246   7.490   0.767   4.239 -1.8553  2.7497  1.0574
 6442TIP3   OH219247   7.021   0.197   5.842 -0.3206 -0.3845  0.2976
 6442TIP3    H119248   6.995   0.275   5.793  1.5662  0.1900  0.1797
 6442TIP3    H219249   7.005   0.125   5.781  1.5121  0.2842 -1.0441
 6443TIP3   OH219250   3.214   8.261   4.793  0.0510  0.2543 -0.5534
 6443TIP3    H119251   3.174   8.314   4.725  0.9367  0.3312 -1.0176
 6443TIP3    H219252   3.293   8.310   4.819  0.1923 -0.2067 -0.0952
 6444TIP3   OH219253   1.612   1.459   3.042 -0.2432 -0.3267  0.5240
 6444TIP3    H119254   1.538   1.519   3.050  0.1072 -0.0399  1.6203
 6444TIP3    H219255   1.689   1.513   3.060  0.1950 -0.7473 -0.0716
 6445TIP3   OH219256   8.151   2.222   3.469 -0.8530 -0.2417  0.3024
 6445TIP3    H119257   8.159   2.128   3.454 -0.0499 -0.0027 -0.8175
 6445TIP3    H219258   8.064   2.232   3.508  0.0538 -1.7123  2.7816
 6446TIP3   OH219259   6.419   0.550   4.667  0.6479  0.1911 -0.5255
 6446TIP3    H119260   6.506   0.523   4.635 -0.0851 -0.7175 -1.7866
 6446TIP3    H219261   6.380   0.469   4.700  0.6627  0.7844  1.0091
 6447TIP3   OH219262   5.381   8.175   6.675 -0.7962  0.0166 -0.0599
 6447TIP3    H119263   5.303   8.121   6.685 -0.8933  0.4513  1.7264
 6447TIP3    H219264   5.368   8.248   6.736  1.0801 -0.0030  0.4019
 6448TIP3   OH219265   4.250   2.008   1.430  0.1276 -0.0043 -0.4523
 6448TIP3    H119266   4.336   2.006   1.471 -0.0483  0.1373 -0.0678
 6448TIP3    H219267   4.262   2.061   1.351  0.0507  1.3558  0.4235
 6449TIP3   OH219268   5.767   0.880   4.902  0.0241 -0.2576 -0.4654
 6449TIP3    H119269   5.686   0.902   4.856  0.7098 -1.7539 -2.4646
 6449TIP3    H219270   5.834   0.930   4.856  0.4738 -0.3537  0.0870
 6450TIP3   OH219271   4.630   0.372   4.363  0.0643  0.0991  0.3925
 6450TIP3    H119272   4.671   0.444   4.314 -0.0126 -0.0498  0.1116
 6450TIP3    H219273   4.578   0.325   4.299  0.3210 -0.3669  0.5212
 6451TIP3   OH219274   7.528   1.257   2.643 -0.2081 -0.4398  0.2100
 6451TIP3    H119275   7.456   1.194   2.631 -1.0191 -0.2009  3.3035
 6451TIP3    H219276   7.589   1.212   2.701  1.1730  0.1270 -0.7975
 6452TIP3   OH219277   7.441   0.330   4.427 -0.1542  0.2316 -0.4130
 6452TIP3    H119278   7.353   0.312   4.392 -0.1677 -1.4751  0.4385
 6452TIP3    H219279   7.429   0.333   4.522  0.5275  1.0734 -0.3545
 6453TIP3   OH219280   7.505   2.824   5.203 -0.3651 -0.3799 -0.4449
 6453TIP3    H119281   7.472   2.861   5.286  1.7003 -1.7584  1.0386
 6453TIP3    H219282   7.473   2.885   5.136 -1.2265  1.3469  1.4552
 6454TIP3   OH219283   7.318   1.485   5.890  0.0668  0.4254 -0.1227
 6454TIP3    H119284   7.381   1.415   5.906  0.7189  0.8612 -0.7225
 6454TIP3    H219285   7.353   1.531   5.813 -1.8591 -0.3488 -1.5016
 6455TIP3   OH219286   7.387   1.708   3.109  0.8092 -0.6730 -0.5199
 6455TIP3    H119287   7.341   1.685   3.189  1.5322 -0.1175  0.0606
 6455TIP3    H219288   7.453   1.639   3.099 -0.2717 -1.5858 -1.4640
 6456TIP3   OH219289   7.894   1.442   4.694  0.3505  0.2771  0.2035
 6456TIP3    H119290   7.800   1.456   4.703  0.2493 -1.0405  1.5278
 6456TIP3    H219291   7.904   1.392   4.613  0.0777  1.9228 -0.8444
 6457TIP3   OH219292   8.784   4.016   0.346 -0.1724  0.0634  0.2256
 6457TIP3    H119293   8.749   4.026   0.434 -1.2818 -2.6780  0.1365
 6457TIP3    H219294   8.794   4.106   0.314  1.2117  1.1477  3.4649
 6458TIP3   OH219295   7.081   0.598   2.790 -0.2668  0.6088  0.1489
 6458TIP3    H119296   6.996   0.561   2.768 -1.6091  2.7796  1.5013
 6458TIP3    H219297   7.087   0.678   2.738  1.5692 -0.2082 -0.9570
 6459TIP3   OH219298   5.153   1.880   4.085  0.3411  0.0712 -0.4140
 6459TIP3    H119299   5.111   1.848   4.165  0.7905 -0.1596 -0.2673
 6459TIP3    H219300   5.195   1.802   4.047  0.5624  0.2807 -0.6005
 6460TIP3   OH219301   5.980   1.031   5.380  0.1337  0.5824  0.0261
 6460TIP3    H119302   5.915   1.062   5.444  0.6573 -0.9232  1.3087
 6460TIP3    H219303   5.969   1.090   5.305 -1.5041  1.4516  0.9132
 6461TIP3   OH219304   3.444   7.899   5.986 -0.0398  0.0089 -0.2963
 6461TIP3    H119305   3.467   7.970   5.926  0.7977 -0.8079 -0.9513
 6461TIP3    H219306   3.360   7.866   5.953 -1.5563  2.1207  1.3112
 6462TIP3   OH219307   4.610   8.101   3.467  0.1667 -0.4722  0.1018
 6462TIP3    H119308   4.553   8.079   3.541  1.0185 -1.2485  0.5385
 6462TIP3    H219309   4.696   8.115   3.506  0.9578 -2.2980 -0.8773
 6463TIP3   OH219310   7.064   7.545   7.008 -0.8923  0.1419  0.3895
 6463TIP3    H119311   7.125   7.487   7.055 -2.1580 -1.0670  0.5868
 6463TIP3    H219312   7.120   7.598   6.952  0.3957 -0.5472  0.9906
 6464TIP3   OH219313   5.316   8.286   5.638 -0.0137 -0.4531  0.6054
 6464TIP3    H119314   5.250   8.229   5.601  0.5461 -1.3278  0.9486
 6464TIP3    H219315   5.396   8.265   5.589  0.1359  0.2154  0.5538
 6465TIP3   OH219316   2.596   7.267   2.818 -0.2084  0.2927  0.5987
 6465TIP3    H119317   2.539   7.259   2.894 -0.2795  0.6883  0.5885
 6465TIP3    H219318   2.546   7.321   2.756  0.1424  0.5769  0.5602
 6466TIP3   OH219319   5.509   0.842   4.073 -0.0677 -0.0480  0.4707
 6466TIP3    H119320   5.467   0.915   4.119 -0.5827  0.2148 -0.3987
 6466TIP3    H219321   5.539   0.880   3.991  1.2528 -0.4119  0.7837
 6467TIP3   OH219322   4.156   8.127   3.130  0.7230 -0.1854 -0.4584
 6467TIP3    H119323   4.222   8.058   3.118  0.4526 -0.3639 -0.9373
 6467TIP3    H219324   4.185   8.198   3.074  0.7044 -0.1265 -0.3924
 6468TIP3   OH219325   7.195   1.202   4.583  0.1610 -0.0077  0.1574
 6468TIP3    H119326   7.164   1.128   4.531 -0.0855  0.2699 -0.1010
 6468TIP3    H219327   7.254   1.164   4.648  1.2268 -0.2463 -0.9349
 6469TIP3   OH219328   3.785   7.267   5.775 -0.0947  0.1905 -0.3121
 6469TIP3    H119329   3.717   7.323   5.737 -3.0118 -2.5610  0.6475
 6469TIP3    H219330   3.770   7.270   5.869  1.2458 -0.2819 -0.0704
 6470TIP3   OH219331   4.766   3.020   5.245 -0.3162 -0.3195  0.4672
 6470TIP3    H119332   4.730   2.959   5.180  0.1960  0.6408 -0.7468
 6470TIP3    H219333   4.861   3.007   5.239 -0.1773  0.9014 -0.1275
 6471TIP3   OH219334   6.568   1.877   7.152  0.3628 -0.2396  0.3056
 6471TIP3    H119335   6.505   1.949   7.141  1.2813  0.8047  1.7824
 6471TIP3    H219336   6.516   1.798   7.138 -1.1224  0.6299  0.7735
 6472TIP3   OH219337   7.141   0.852   5.396 -0.3743  0.9869  0.2109
 6472TIP3    H119338   7.105   0.812   5.475 -1.5746  1.8171  0.0934
 6472TIP3    H219339   7.180   0.934   5.426  0.3818  0.6529  0.1505
 6473TIP3   OH219340   6.872   2.459   5.850 -0.4386 -0.1243 -0.2405
 6473TIP3    H119341   6.845   2.551   5.851  0.0476  0.0117  0.4540
 6473TIP3    H219342   6.943   2.454   5.914  1.0074 -0.5233 -1.8110
 6474TIP3   OH219343   4.927   0.627   4.317  0.3513 -0.0228 -0.0425
 6474TIP3    H119344   4.987   0.605   4.246  0.1966 -0.5492 -0.0116
 6474TIP3    H219345   4.842   0.592   4.289  0.0205  0.8719 -0.1642
 6475TIP3   OH219346   6.380   2.865   4.717 -0.0749 -0.7642  0.0611
 6475TIP3    H119347   6.411   2.776   4.698  1.6625 -0.2905  0.6342
 6475TIP3    H219348   6.392   2.913   4.636  0.8338 -0.5426  0.3268
 6476TIP3   OH219349   7.364   2.000   3.078  0.5895 -0.0393 -0.0333
 6476TIP3    H119350   7.318   2.038   3.153 -0.1869  0.0378 -0.5465
 6476TIP3    H219351   7.372   1.907   3.099 -0.8492 -0.2739 -0.4647
 6477TIP3   OH219352   7.185   1.635   5.114 -0.0403 -0.2364  0.1455
 6477TIP3    H119353   7.123   1.631   5.187  0.3165  1.2236  0.5424
 6477TIP3    H219354   7.133   1.666   5.040 -0.1048 -0.4322  0.1079
 6478TIP3   OH219355   7.807   0.750   2.917 -0.1160 -0.1051  0.4526
 6478TIP3    H119356   7.789   0.844   2.907 -0.0300  0.0736  1.9430
 6478TIP3    H219357   7.723   0.711   2.939  0.4006  0.0793  2.8856
 6479TIP3   OH219358   3.411   7.972   4.488  0.4560  0.1052 -0.2723
 6479TIP3    H119359   3.426   8.025   4.410 -0.8003 -0.8567 -1.1946
 6479TIP3    H219360   3.328   8.003   4.523  0.6880  0.0767  0.3109
 6480TIP3   OH219361   8.153   1.530   4.619  0.5372 -0.0543  0.2785
 6480TIP3    H119362   8.209   1.518   4.695  0.6838 -1.3724 -0.0251
 6480TIP3    H219363   8.064   1.518   4.653  0.5430  0.4163  0.4523
 6481TIP3   OH219364   1.993   8.221   3.869  0.5315  0.3470  0.4439
 6481TIP3    H119365   2.057   8.265   3.812 -0.1207  2.0300  0.9650
 6481TIP3    H219366   2.045   8.158   3.918  1.2963 -0.3493 -1.2102
 6482TIP3   OH219367   4.082   8.209   5.414 -0.3547 -0.3350  0.3640
 6482TIP3    H119368   4.110   8.250   5.333  0.3123  1.4531  1.4657
 6482TIP3    H219369   3.995   8.245   5.431 -0.1838 -0.1219  0.8114
 6483TIP3   OH219370   3.584   7.769   3.211  0.1991 -0.2837  0.3224
 6483TIP3    H119371   3.501   7.722   3.224  0.2055 -0.4144 -0.0952
 6483TIP3    H219372   3.606   7.803   3.298  0.5950 -1.7245  0.7950
 6484TIP3   OH219373   4.773   0.011   4.583 -0.2509  0.1575 -0.1748
 6484TIP3    H119374   4.787   0.101   4.613 -2.4231  0.7899 -0.9415
 6484TIP3    H219375   4.760   0.019   4.488  1.8203 -1.2561 -0.6157
 6485TIP3   OH219376   7.163   2.190   4.715 -0.6158 -0.3480  0.0875
 6485TIP3    H119377   7.180   2.214   4.624 -1.6901  0.8782  0.1847
 6485TIP3    H219378   7.147   2.096   4.713 -0.7068 -0.3127 -1.0038
 6486TIP3   OH219379   4.365   7.675   7.282 -0.5283 -0.3117 -0.6098
 6486TIP3    H119380   4.402   7.756   7.247  1.1693 -0.2765  1.1792
 6486TIP3    H219381   4.390   7.607   7.220  0.0185  0.1780 -0.9224
 6487TIP3   OH219382   4.263   7.166   5.552  0.4146  0.0199 -0.3123
 6487TIP3    H119383   4.229   7.204   5.471  0.1400  0.9564  0.2438
 6487TIP3    H219384   4.220   7.080   5.558 -2.1574  1.3138  0.5680
 6488TIP3   OH219385   0.580   0.855   3.731 -0.1567 -0.4132 -0.1774
 6488TIP3    H119386   0.625   0.775   3.758  1.6734  1.0423  1.1957
 6488TIP3    H219387   0.604   0.866   3.639 -0.5633 -1.5372 -0.4207
 6489TIP3   OH219388   7.962   1.246   5.085  0.2718  0.0037  0.2386
 6489TIP3    H119389   8.045   1.225   5.128  1.2612  1.8229 -0.7394
 6489TIP3    H219390   7.900   1.255   5.157  1.7154  2.1416  1.2601
 6490TIP3   OH219391   7.677   1.536   3.361  0.1003  0.0585 -0.0115
 6490TIP3    H119392   7.689   1.561   3.453 -0.5571 -0.0272  0.1009
 6490TIP3    H219393   7.764   1.512   3.331  0.4997  1.0902  0.2931
 6491TIP3   OH219394   6.755   0.904   5.601 -0.1337 -0.4859 -0.0175
 6491TIP3    H119395   6.705   0.873   5.526  0.2394 -2.1586  0.3951
 6491TIP3    H219396   6.720   0.991   5.619 -1.8388 -1.0060 -0.6898
 6492TIP3   OH219397   7.658   2.612   3.514 -0.2206 -0.7615 -0.4153
 6492TIP3    H119398   7.616   2.566   3.441  1.0556  0.0808 -1.7149
 6492TIP3    H219399   7.681   2.698   3.478 -0.9406  0.2268  1.4411
 6493TIP3   OH219400   2.596   7.754   2.082  0.1731  0.3712 -0.3694
 6493TIP3    H119401   2.646   7.809   2.142  0.1476 -0.7791  0.7145
 6493TIP3    H219402   2.659   7.731   2.013  0.8231 -0.1196  0.3784
 6494TIP3   OH219403   6.295   0.548   2.862  0.0828 -0.2817  0.2521
 6494TIP3    H119404   6.212   0.584   2.830 -0.2072 -0.3777  0.8721
 6494TIP3    H219405   6.274   0.457   2.886  0.0343  0.0804  1.6456
 6495TIP3   OH219406   5.564   2.346   5.151 -0.1319 -0.0974  0.0252
 6495TIP3    H119407   5.528   2.372   5.066 -0.2062 -0.0872  0.0595
 6495TIP3    H219408   5.533   2.257   5.164  1.7494 -0.9281 -0.9912
 6496TIP3   OH219409   8.073   1.996   4.014 -0.0878 -0.4667  0.5215
 6496TIP3    H119410   8.117   2.065   4.064  1.0443  0.0457 -1.1648
 6496TIP3    H219411   7.982   2.026   4.006 -0.1379 -0.2655  1.7063
 6497TIP3   OH219412   4.900   8.300   3.920 -0.0153  0.3487  0.2143
 6497TIP3    H119413   4.985   8.330   3.888 -0.6846  0.2068 -1.7597
 6497TIP3    H219414   4.881   8.357   3.995  1.3233  1.0720  0.0140
 6498TIP3   OH219415   6.173   3.241   4.921 -0.1288  0.5531  0.4951
 6498TIP3    H119416   6.224   3.163   4.943 -2.0636 -1.1916 -0.9896
 6498TIP3    H219417   6.213   3.275   4.841 -1.2301 -0.7796 -0.6345
 6499TIP3   OH219418   7.150   1.910   4.043 -0.1549  0.4371  0.5758
 6499TIP3    H119419   7.088   1.847   4.081  1.3493 -1.4364  0.0209
 6499TIP3    H219420   7.227   1.857   4.023  0.7296  2.2738 -0.9359
 6500TIP3   OH219421   0.876   2.659   4.010  0.9990  0.8969 -0.1644
 6500TIP3    H119422   0.836   2.650   3.923  0.5627  0.5594  0.0704
 6500TIP3    H219423   0.961   2.615   4.003  0.1276 -0.8458  0.1428
 6501TIP3   OH219424   1.731   3.038   3.756 -0.1983  0.2134 -0.1376
 6501TIP3    H119425   1.798   3.096   3.792 -0.3224 -0.0531  0.5268
 6501TIP3    H219426   1.779   2.958   3.734 -0.2828  0.0374  0.3012
 6502TIP3   OH219427   6.486   8.254   4.291 -0.2616  0.7000  0.0118
 6502TIP3    H119428   6.563   8.303   4.263 -1.5333  1.7708 -1.6894
 6502TIP3    H219429   6.494   8.169   4.248  0.0084  0.7688 -0.0706
 6503TIP3   OH219430   4.664   5.034   4.352 -0.3429 -0.2472  0.3012
 6503TIP3    H119431   4.652   5.033   4.447 -0.9695  0.6598  0.2395
 6503TIP3    H219432   4.730   5.103   4.337 -1.3523  0.6559 -0.0325
 6504TIP3   OH219433   8.619   1.507   4.101  0.1944  0.0279 -0.4836
 6504TIP3    H119434   8.536   1.554   4.098  0.9154  1.2439 -1.9333
 6504TIP3    H219435   8.596   1.417   4.077 -0.6549  0.4508 -1.2879
 6505TIP3   OH219436   6.672   1.360   4.753  0.5617  0.0358  0.2792
 6505TIP3    H119437   6.739   1.318   4.700  0.3297  0.7173 -0.5756
 6505TIP3    H219438   6.634   1.289   4.805  0.6768 -0.6837 -0.5986
 6506TIP3   OH219439   7.067   0.471   6.078 -0.3832 -0.1614 -0.2913
 6506TIP3    H119440   7.045   0.539   6.015 -0.5494 -0.2337 -0.3126
 6506TIP3    H219441   7.007   0.487   6.151 -1.4566 -1.2026 -0.9318
 6507TIP3   OH219442   8.567   0.556   5.252 -0.1985  0.4721 -0.6220
 6507TIP3    H119443   8.635   0.603   5.301 -0.8757  0.5268  0.2745
 6507TIP3    H219444   8.541   0.617   5.183 -0.1408  0.9061 -0.2636
 6508TIP3   OH219445   8.648   0.388   4.216  0.2223  0.3019  0.2007
 6508TIP3    H119446   8.628   0.297   4.238 -1.1242  1.4435  4.1025
 6508TIP3    H219447   8.563   0.431   4.209  0.8850  1.6793  0.3764
 6509TIP3   OH219448   4.670   6.826   3.091 -0.4255 -0.2417  0.0162
 6509TIP3    H119449   4.723   6.817   3.011 -0.4421 -0.4515  0.0303
 6509TIP3    H219450   4.686   6.746   3.140  1.2283  0.7851  1.2163
 6510TIP3   OH219451   1.049   5.726   0.144  0.0162 -0.7070 -0.0911
 6510TIP3    H119452   1.076   5.636   0.126 -0.0988 -0.3813 -1.9626
 6510TIP3    H219453   1.131   5.774   0.156  0.1245 -0.7783 -0.5381
 6511TIP3   OH219454   7.803   2.699   3.829 -0.4451  0.6947 -0.6462
 6511TIP3    H119455   7.776   2.676   3.741 -1.1975  1.4035 -0.6064
 6511TIP3    H219456   7.848   2.783   3.819  0.6549  0.1315 -0.5363
 6512TIP3   OH219457   7.678   0.992   6.821 -0.1871  0.3081 -0.1977
 6512TIP3    H119458   7.672   0.946   6.904  0.6316 -1.0601 -0.8766
 6512TIP3    H219459   7.588   1.001   6.792 -0.4152 -0.0263  0.4011
 6513TIP3   OH219460   3.835   7.850   5.660 -0.2274 -0.1425 -0.1921
 6513TIP3    H119461   3.772   7.813   5.598 -0.5714  0.2940 -0.1067
 6513TIP3    H219462   3.920   7.818   5.630 -0.3146  0.6494 -1.3177
 6514TIP3   OH219463   3.936   6.460   3.541  0.1728  0.6690  0.2054
 6514TIP3    H119464   4.019   6.416   3.523  0.7534  1.0544  1.8358
 6514TIP3    H219465   3.958   6.554   3.537 -0.3824  0.7833 -0.2273
 6515TIP3   OH219466   5.671   1.754   5.022 -0.2749  0.1805 -0.5219
 6515TIP3    H119467   5.749   1.709   5.052 -0.3372  1.2927  1.4067
 6515TIP3    H219468   5.703   1.838   4.988 -0.4384 -0.1488 -1.4971
 6516TIP3   OH219469   6.402   0.704   4.203 -0.8911  0.1805  0.1748
 6516TIP3    H119470   6.333   0.659   4.251 -2.0164  2.4531  0.7772
 6516TIP3    H219471   6.461   0.634   4.173 -3.2586 -1.7750 -0.0812
 6517TIP3   OH219472   7.398   1.543   5.643 -0.2440 -0.1502 -0.5978
 6517TIP3    H119473   7.474   1.574   5.593  1.5352 -0.9376  1.4967
 6517TIP3    H219474   7.391   1.450   5.621 -0.8948  0.0220 -1.1308
 6518TIP3   OH219475   7.541   0.626   5.821  0.1057 -0.1091  0.2802
 6518TIP3    H119476   7.457   0.630   5.775  0.4120 -1.4772 -0.4018
 6518TIP3    H219477   7.604   0.663   5.758  0.2456 -0.3888  0.2577
 6519TIP3   OH219478   4.451   0.055   4.774 -0.2250 -0.6461  0.2014
 6519TIP3    H119479   4.446   0.058   4.678 -1.0289 -0.4997  0.2460
 6519TIP3    H219480   4.542   0.077   4.794  0.1986 -1.6767 -0.5738
 6520TIP3   OH219481   3.746   5.521   5.567 -0.0454  0.0751 -0.3636
 6520TIP3    H119482   3.819   5.470   5.533 -0.6315 -1.6789  0.9578
 6520TIP3    H219483   3.767   5.534   5.660 -0.4245  1.3262 -0.4428
 6521TIP3   OH219484   6.350   1.315   3.295  0.2762  0.2246 -0.6740
 6521TIP3    H119485   6.404   1.254   3.345  1.2130 -0.6688 -2.7091
 6521TIP3    H219486   6.333   1.269   3.212 -2.3658  1.1038 -0.6487
 6522TIP3   OH219487   6.497   1.453   5.449 -0.1887 -0.3729  0.3695
 6522TIP3    H119488   6.439   1.429   5.522 -0.0497  1.5694  1.1554
 6522TIP3    H219489   6.441   1.503   5.390 -0.1786 -1.5272 -0.6134
 6523TIP3   OH219490   6.725   1.455   6.319 -0.0711 -0.0645 -0.2234
 6523TIP3    H119491   6.791   1.397   6.282  1.0500  0.8291  0.3295
 6523TIP3    H219492   6.647   1.442   6.265  1.4453  1.0416 -2.7596
 6524TIP3   OH219493   7.899   1.337   4.418  0.2071 -0.0052  0.0816
 6524TIP3    H119494   7.853   1.321   4.336 -0.8368 -1.3567  0.9079
 6524TIP3    H219495   7.988   1.305   4.403 -0.4574 -1.8945  0.0256
 6525TIP3   OH219496   6.942   1.712   4.185  0.0066 -0.4222  0.1999
 6525TIP3    H119497   6.857   1.755   4.176 -0.6802 -1.0110  3.3084
 6525TIP3    H219498   6.921   1.618   4.189  1.0052 -0.7153 -1.0730
 6526TIP3   OH219499   5.722   0.055   4.225 -0.1842 -0.3838  0.0920
 6526TIP3    H119500   5.742  -0.039   4.219  1.7919 -0.0630  1.2302
 6526TIP3    H219501   5.798   0.098   4.186 -0.3818  0.7791  0.9695
 6527TIP3   OH219502   7.722   2.653   5.182 -0.8928  0.6292  0.3850
 6527TIP3    H119503   7.650   2.716   5.182 -0.3795  1.2326  0.9396
 6527TIP3    H219504   7.705   2.596   5.257 -0.5063  1.1208  0.8540
 6528TIP3   OH219505   6.446   2.383   2.374 -0.4231 -0.1798 -0.2667
 6528TIP3    H119506   6.449   2.478   2.382  0.6746 -0.1402 -1.0974
 6528TIP3    H219507   6.368   2.366   2.321 -0.3159  0.2786 -0.5743
 6529TIP3   OH219508   5.344   1.081   4.180  0.0573  0.0808 -0.2017
 6529TIP3    H119509   5.362   1.147   4.113 -2.2723 -0.0918 -1.0635
 6529TIP3    H219510   5.345   1.129   4.262 -2.0389  1.3474 -0.8488
 6530TIP3   OH219511   7.511   1.548   4.358 -0.4109  0.1868 -0.2780
 6530TIP3    H119512   7.452   1.607   4.405  1.9608  0.6284  2.2789
 6530TIP3    H219513   7.491   1.461   4.392  2.1502  0.6477  2.6224
 6531TIP3   OH219514   4.257   7.928   4.325 -0.9287 -0.1956  0.2829
 6531TIP3    H119515   4.272   7.836   4.346 -4.0521 -0.2892  2.3834
 6531TIP3    H219516   4.338   7.972   4.351  1.0308 -2.4259 -1.7473
 6532TIP3   OH219517   3.164   7.273   2.756 -0.2632 -0.5188 -0.3657
 6532TIP3    H119518   3.110   7.352   2.755  0.8462  0.3131  1.5735
 6532TIP3    H219519   3.227   7.286   2.685  0.7526  0.9638  0.7833
 6533TIP3   OH219520   7.421   0.939   2.299  0.1173  0.0748 -0.1176
 6533TIP3    H119521   7.408   1.007   2.365  1.2623  0.7076 -0.5274
 6533TIP3    H219522   7.377   0.862   2.336 -0.5048  0.8102  0.7145
 6534TIP3   OH219523   6.642   0.416   5.680  0.0381 -0.3886  0.2227
 6534TIP3    H119524   6.598   0.496   5.710  0.9484  0.1139  0.2165
 6534TIP3    H219525   6.604   0.347   5.735  0.2568  0.2369  1.1828
 6535TIP3   OH219526   4.057   6.904   2.329  0.3945  0.4107  0.2150
 6535TIP3    H119527   4.122   6.922   2.261 -1.0757  0.2689 -1.2543
 6535TIP3    H219528   3.982   6.868   2.282 -1.8067  3.0870  1.5106
 6536TIP3   OH219529   5.240   8.121   4.546 -0.0658 -0.1717  0.0993
 6536TIP3    H119530   5.287   8.076   4.616  1.4761  1.6729  0.2793
 6536TIP3    H219531   5.270   8.079   4.466  0.2962 -0.4185  0.3622
 6537TIP3   OH219532   0.362   0.632   4.369  0.0332  0.3432 -0.2733
 6537TIP3    H119533   0.413   0.596   4.296 -0.1467 -2.7128  1.0132
 6537TIP3    H219534   0.412   0.609   4.447 -0.0041  3.1893  0.6442
 6538TIP3   OH219535   4.904   7.462   4.099  0.5056  0.0109 -0.4633
 6538TIP3    H119536   4.926   7.370   4.116  0.3475  0.3062  1.3690
 6538TIP3    H219537   4.948   7.482   4.016  1.1921 -1.4843 -0.4708
 6539TIP3   OH219538   4.384   8.056   3.899  0.5873 -0.0793 -0.3681
 6539TIP3    H119539   4.453   8.120   3.887  2.0345 -1.4756  0.3256
 6539TIP3    H219540   4.427   7.981   3.941 -1.9921  0.3012  3.2014
 6540TIP3   OH219541   6.846   0.417   3.718  0.5414 -0.4115 -0.3198
 6540TIP3    H119542   6.923   0.366   3.693  0.6882 -0.9485  1.1761
 6540TIP3    H219543   6.801   0.362   3.782 -1.2074 -0.1969 -1.3384
 6541TIP3   OH219544   4.266   7.144   1.096  0.4022 -0.0507 -0.1063
 6541TIP3    H119545   4.347   7.187   1.070 -0.1083  0.3460 -1.0486
 6541TIP3    H219546   4.294   7.073   1.154  1.2439  1.6645  1.6599
 6542TIP3   OH219547   0.595   2.029   5.319 -0.2217  0.0005  0.4240
 6542TIP3    H119548   0.675   2.077   5.296 -0.6505 -0.5031 -2.2963
 6542TIP3    H219549   0.532   2.097   5.341 -0.1010  0.5948 -1.0094
 6543TIP3   OH219550   8.316   0.249   3.668  0.1469 -0.3654  0.0849
 6543TIP3    H119551   8.280   0.171   3.628  0.8636 -1.1707  0.9672
 6543TIP3    H219552   8.404   0.257   3.631  0.7419 -1.0071  1.3217
 6544TIP3   OH219553   0.659   1.421   4.631  0.0739 -0.7549  0.9488
 6544TIP3    H119554   0.662   1.326   4.641  3.5131 -0.7930  0.2915
 6544TIP3    H219555   0.747   1.444   4.601 -0.6437  2.6713  1.3062
 6545TIP3   OH219556   8.787   1.716   4.277 -0.4256 -0.9939  0.3093
 6545TIP3    H119557   8.876   1.749   4.272 -0.6076 -0.4695  0.4859
 6545TIP3    H219558   8.784   1.644   4.214 -0.0806 -0.5297 -0.2378
 6546TIP3   OH219559   8.905   1.063   4.714 -0.4041  0.2443 -0.0704
 6546TIP3    H119560   8.877   1.149   4.681 -1.4769  0.4194  1.2271
 6546TIP3    H219561   8.830   1.006   4.698  0.3268 -0.4724 -0.9745
 6547TIP3   OH219562   0.199   1.727   4.386  0.8120  0.4317 -0.6231
 6547TIP3    H119563   0.185   1.821   4.398  2.8754  0.7613 -0.6057
 6547TIP3    H219564   0.270   1.705   4.447 -1.1838 -1.6154  1.0268
 6548TIP3   OH219565   4.142   7.843   5.143 -0.2727 -0.2312  0.1808
 6548TIP3    H119566   4.149   7.755   5.180  2.0278 -0.1069  0.0720
 6548TIP3    H219567   4.173   7.901   5.212 -1.2462  0.4667  0.0444
 6549TIP3   OH219568   2.867   7.802   5.271 -0.0792  0.3481  0.3909
 6549TIP3    H119569   2.960   7.780   5.266 -0.3076 -0.5639  0.0388
 6549TIP3    H219570   2.838   7.765   5.355 -0.4494 -0.6378 -0.1683
 6550TIP3   OH219571   7.568   1.289   3.428 -0.1984 -0.0704 -0.0352
 6550TIP3    H119572   7.579   1.352   3.358  0.3916  0.5102  0.5700
 6550TIP3    H219573   7.483   1.248   3.412 -0.9051  1.3843 -0.0246
 6551TIP3   OH219574   8.551   0.300   3.088  0.2897 -0.1957  0.2749
 6551TIP3    H119575   8.597   0.219   3.110  0.1441 -0.7200 -1.2989
 6551TIP3    H219576   8.519   0.286   2.999 -0.8006  1.1194  0.4447
 6552TIP3   OH219577   0.560   1.619   4.794  0.3318  0.1991  0.7145
 6552TIP3    H119578   0.636   1.654   4.840  0.5761 -0.6045  0.9202
 6552TIP3    H219579   0.592   1.541   4.749 -0.4005 -0.2358  0.9314
 6553TIP3   OH219580   0.218   1.373   6.210 -0.6348 -0.1059 -0.8844
 6553TIP3    H119581   0.248   1.299   6.263  0.5908  0.6250 -0.5248
 6553TIP3    H219582   0.270   1.368   6.130 -1.1096 -0.0873 -1.1952
 6554TIP3   OH219583   6.582   0.453   5.314 -0.5850  0.5979  0.3434
 6554TIP3    H119584   6.595   0.400   5.392 -0.2024  0.4638  0.1897
 6554TIP3    H219585   6.661   0.439   5.262 -0.0309  2.0790  0.7523
 6555TIP3   OH219586   8.367   1.602   4.131  0.1648 -1.2387 -0.6701
 6555TIP3    H119587   8.338   1.663   4.064 -1.0864 -0.5304  0.4909
 6555TIP3    H219588   8.288   1.553   4.156  0.8077 -2.1553 -0.3973
 6556TIP3   OH219589   0.321   1.620   4.625  0.7507 -0.6262 -0.0972
 6556TIP3    H119590   0.248   1.667   4.667  0.9463  1.4327 -1.9313
 6556TIP3    H219591   0.399   1.649   4.674  0.6031 -0.9467  0.3305
 6557TIP3   OH219592   4.278   6.490   3.895  0.1830  0.4867  0.2344
 6557TIP3    H119593   4.345   6.555   3.873  0.3753 -0.1725 -1.2013
 6557TIP3    H219594   4.292   6.419   3.831 -0.3546 -0.7209  1.4378
 6558TIP3   OH219595   6.448   0.669   0.499  0.3363 -0.5154 -0.1705
 6558TIP3    H119596   6.508   0.743   0.488  1.0351 -0.7536  1.8296
 6558TIP3    H219597   6.362   0.710   0.509  0.5890 -0.0173  0.0056
 6559TIP3   OH219598   4.678   8.146   6.008 -0.3351 -0.3912 -0.3593
 6559TIP3    H119599   4.677   8.233   5.969 -1.4452 -0.3580 -0.2542
 6559TIP3    H219600   4.759   8.106   5.975  0.6411  0.9924  0.2846
 6560TIP3   OH219601   7.297   1.417   3.787 -0.3060  1.0395 -0.4146
 6560TIP3    H119602   7.378   1.468   3.786 -0.8361  2.1401  3.2364
 6560TIP3    H219603   7.320   1.338   3.836 -0.5186 -0.4631 -2.6546
 6561TIP3   OH219604   4.196   8.114   4.106 -0.1586  0.1907 -0.0306
 6561TIP3    H119605   4.224   8.078   4.191 -2.4807 -1.2192  0.1978
 6561TIP3    H219606   4.252   8.071   4.042  1.2816  0.8838  0.7517
 6562TIP3   OH219607   3.316   7.728   4.179  0.3343 -0.7588 -0.0960
 6562TIP3    H119608   3.345   7.701   4.266  1.7984  1.2240  0.0565
 6562TIP3    H219609   3.253   7.660   4.153  1.1512 -2.2903  1.7783
 6563TIP3   OH219610   4.387   7.307   0.609 -0.0310 -0.0539  0.3618
 6563TIP3    H119611   4.380   7.334   0.517 -0.9702 -0.4805  0.2945
 6563TIP3    H219612   4.342   7.376   0.657 -1.0431 -0.6792  0.3348
 6564TIP3   OH219613   7.090  -0.030   5.172 -0.2997 -0.4769  0.2462
 6564TIP3    H119614   7.089   0.062   5.199 -1.9475 -0.7810  1.2778
 6564TIP3    H219615   7.090  -0.026   5.076 -1.6117  0.6083  0.2718
 6565TIP3   OH219616   1.717   0.784   3.450 -0.1283  0.0027  0.4463
 6565TIP3    H119617   1.750   0.724   3.382  0.7513  1.4568 -0.4229
 6565TIP3    H219618   1.748   0.745   3.532  1.5623 -0.0474 -0.1930
 6566TIP3   OH219619   0.236   1.907   3.515 -0.2461  0.2893 -0.2025
 6566TIP3    H119620   0.294   1.831   3.522  0.0811  0.6421  1.0104
 6566TIP3    H219621   0.206   1.923   3.604 -2.8204 -0.3338 -0.9106
 6567TIP3   OH219622   7.234   2.276   4.144  0.2629  0.6007  0.3765
 6567TIP3    H119623   7.300   2.298   4.078  0.0010  0.5342  0.0909
 6567TIP3    H219624   7.164   2.233   4.095  0.4381 -0.1969  0.8251
 6568TIP3   OH219625   8.066   0.791   2.865  0.0474 -0.0460  0.2610
 6568TIP3    H119626   8.080   0.741   2.785  0.3879  0.8697 -0.2612
 6568TIP3    H219627   7.979   0.764   2.895  0.6934 -1.8061  0.6308
 6569TIP3   OH219628   5.316   7.649   2.837 -0.1081  0.1836  0.1953
 6569TIP3    H119629   5.241   7.607   2.878  0.0345  0.0766  0.3468
 6569TIP3    H219630   5.373   7.577   2.811 -0.8015  0.1690 -1.3894
 6570TIP3   OH219631   7.256   1.697   1.417  0.2223 -0.1743  0.2952
 6570TIP3    H119632   7.187   1.635   1.393 -0.4833  0.4675  0.6868
 6570TIP3    H219633   7.233   1.727   1.505  1.3781 -0.4943  0.7165
 6571TIP3   OH219634   7.487   1.843   3.767  0.5512  0.2275  0.4131
 6571TIP3    H119635   7.551   1.825   3.836  1.2217 -1.5487 -0.6488
 6571TIP3    H219636   7.441   1.761   3.754 -1.1387  1.1716  0.3224
 6572TIP3   OH219637   0.216   2.382   6.095  0.1736  0.0146  0.2024
 6572TIP3    H119638   0.286   2.448   6.103  0.4122 -0.3499  1.2512
 6572TIP3    H219639   0.228   2.326   6.172  0.1577 -1.4342 -0.8296
 6573TIP3   OH219640   4.415   6.468   5.487  0.2011 -0.3195 -0.6359
 6573TIP3    H119641   4.497   6.453   5.440  0.6414  1.4788 -0.4809
 6573TIP3    H219642   4.395   6.561   5.472 -2.3481 -0.9731 -1.5224
 6574TIP3   OH219643   8.309   2.513   3.200 -0.1922 -0.5914  0.0609
 6574TIP3    H119644   8.313   2.599   3.158 -0.1585  0.0945  1.4566
 6574TIP3    H219645   8.400   2.483   3.202 -0.3425 -1.1791 -1.4790
 6575TIP3   OH219646   4.416   7.586   5.383  0.4632  0.2196 -0.0503
 6575TIP3    H119647   4.354   7.656   5.406 -0.3158 -0.4726 -0.0314
 6575TIP3    H219648   4.501   7.618   5.415 -0.0459  0.7433  0.8070
 6576TIP3   OH219649   2.908   7.354   4.969  0.3228  0.0854 -0.2152
 6576TIP3    H119650   2.889   7.388   5.057  1.2908  0.4474 -0.1395
 6576TIP3    H219651   2.970   7.417   4.933 -0.2925  0.0932 -1.2748
 6577TIP3   OH219652   5.610   7.389   3.994 -0.1641  0.5525 -0.7124
 6577TIP3    H119653   5.662   7.367   4.071 -0.6408 -1.5075 -0.9597
 6577TIP3    H219654   5.667   7.366   3.920 -0.5015  0.5474 -0.9725
 6578TIP3   OH219655   2.058   0.884   3.787  0.4495  0.2445  0.0704
 6578TIP3    H119656   2.078   0.834   3.866  0.5797  0.0082 -0.1102
 6578TIP3    H219657   2.115   0.846   3.720  0.1050  0.2274 -0.2125
 6579TIP3   OH219658   1.512   4.881   0.604 -0.5648  0.0950  0.3001
 6579TIP3    H119659   1.556   4.846   0.681  0.2056 -0.6600 -0.4766
 6579TIP3    H219660   1.568   4.857   0.531 -0.6250  1.9235 -0.3723
 6580TIP3   OH219661   4.385   6.776   3.013 -0.0389 -0.1785  0.2426
 6580TIP3    H119662   4.341   6.834   2.951 -0.6237 -0.2096  0.6151
 6580TIP3    H219663   4.474   6.809   3.018  0.4434 -1.1328 -1.7835
 6581TIP3   OH219664   8.751   2.774   3.673 -0.0992 -0.0411 -0.2826
 6581TIP3    H119665   8.661   2.740   3.667  0.1080 -0.7700  0.5918
 6581TIP3    H219666   8.749   2.855   3.622 -1.5407  0.5087  0.5862
 6582TIP3   OH219667   1.721   2.036   3.396 -0.1524 -0.4587  0.4942
 6582TIP3    H119668   1.770   2.042   3.478  0.8296  1.4971 -0.1914
 6582TIP3    H219669   1.630   2.048   3.422 -0.1769 -2.7846  1.6237
 6583TIP3   OH219670   0.183   1.912   3.795 -0.2839  0.0728  0.1317
 6583TIP3    H119671   0.118   1.971   3.756 -0.4843 -0.4869 -0.3817
 6583TIP3    H219672   0.148   1.892   3.882 -0.2788  0.6068  0.2577
 6584TIP3   OH219673   8.535   2.247   2.446  0.2159  0.6143 -0.1254
 6584TIP3    H119674   8.492   2.301   2.512 -0.0181  0.8188 -0.4449
 6584TIP3    H219675   8.469   2.181   2.422  0.6048 -0.0059  0.4906
 6585TIP3   OH219676   7.970   1.883   2.695  0.4533 -0.0920 -0.0232
 6585TIP3    H119677   7.922   1.897   2.777  1.5436  0.0942  0.5853
 6585TIP3    H219678   7.997   1.792   2.697 -0.8511 -0.5193 -0.9048
 6586TIP3   OH219679   6.336   0.127   3.289  0.6618 -0.1279 -0.1794
 6586TIP3    H119680   6.406   0.185   3.259 -0.3550  1.2407  0.0522
 6586TIP3    H219681   6.365   0.039   3.265  2.4778  0.4193 -0.0392
 6587TIP3   OH219682   2.935   7.367   7.077  0.8935 -0.6319  0.4624
 6587TIP3    H119683   2.976   7.410   7.153  0.1772 -2.4047  1.8982
 6587TIP3    H219684   2.886   7.437   7.033  0.7978  0.2972  2.0038
 6588TIP3   OH219685   4.569   8.253   3.955  0.1995  0.0446 -0.0501
 6588TIP3    H119686   4.495   8.294   4.000 -1.1250 -2.1863 -0.1178
 6588TIP3    H219687   4.634   8.237   4.023  0.0359  0.7092  0.2640
 6589TIP3   OH219688   3.328   7.149   5.996  0.1334  0.1823  0.6388
 6589TIP3    H119689   3.391   7.133   6.066  2.5221  1.4324 -1.1424
 6589TIP3    H219690   3.344   7.080   5.932 -0.4814  0.3483  0.2983
 6590TIP3   OH219691   8.543   1.630   4.360  0.6872  0.0122 -0.1494
 6590TIP3    H119692   8.623   1.677   4.337  0.3351  1.4760  1.5468
 6590TIP3    H219693   8.492   1.631   4.279  1.8380  0.1737 -0.8877
 6591TIP3   OH219694   6.876   0.750   2.425  0.9290 -0.3102 -0.0832
 6591TIP3    H119695   6.850   0.660   2.447  3.7179 -1.3780 -0.8412
 6591TIP3    H219696   6.857   0.758   2.331  0.6861 -0.0975 -0.0169
 6592TIP3   OH219697   6.702   2.310   3.031  0.2706 -0.2365 -0.3069
 6592TIP3    H119698   6.740   2.392   2.999  0.1594 -0.0543  0.0183
 6592TIP3    H219699   6.778   2.254   3.047  0.2397 -0.8630 -2.2887
 6593TIP3   OH219700   8.273   1.960   2.635 -0.1387 -0.2733 -0.5263
 6593TIP3    H119701   8.190   1.914   2.651  0.0129 -0.0515  0.9664
 6593TIP3    H219702   8.250   2.053   2.634  0.1480 -0.1916  0.2683
 6594TIP3   OH219703   8.241   0.040   3.473 -0.1163  0.6070 -0.0714
 6594TIP3    H119704   8.237   0.091   3.393  2.3877  0.4518 -0.3186
 6594TIP3    H219705   8.300  -0.032   3.454 -1.4744 -0.8842  1.1345
 6595TIP3   OH219706   8.447   0.289   3.915 -0.1935 -0.4623 -0.4147
 6595TIP3    H119707   8.511   0.230   3.876  0.0864  0.2766 -1.0761
 6595TIP3    H219708   8.373   0.288   3.855 -0.4233 -0.5846 -0.1318
 6596TIP3   OH219709   7.375   0.196   3.400 -0.7137  0.8605 -0.0483
 6596TIP3    H119710   7.355   0.115   3.447 -0.8562  1.0354  0.1953
 6596TIP3    H219711   7.465   0.217   3.425  0.3674 -0.7990 -2.4124
 6597TIP3   OH219712   1.790   0.515   2.985  0.5856  0.4488  0.1938
 6597TIP3    H119713   1.716   0.465   2.951  0.0040  0.9412  0.7184
 6597TIP3    H219714   1.773   0.522   3.079  1.1626  0.8013  0.2770
 6598TIP3   OH219715   6.819   1.505   2.632 -0.0940  0.2128 -0.6925
 6598TIP3    H119716   6.870   1.448   2.690 -1.1251  0.5359  0.5741
 6598TIP3    H219717   6.821   1.590   2.676 -3.0596 -0.1582  0.2531
 6599TIP3   OH219718   8.302   1.097   4.244  0.0860 -0.8671  0.1508
 6599TIP3    H119719   8.313   1.037   4.170  2.1618 -0.7679  0.3511
 6599TIP3    H219720   8.374   1.076   4.303  1.3083  2.2581 -0.1136
 6600TIP3   OH219721   1.268   3.793   4.574  0.1489  0.3246  0.1249
 6600TIP3    H119722   1.252   3.713   4.624  1.4607 -1.2308 -1.8672
 6600TIP3    H219723   1.185   3.841   4.579 -1.3042 -2.0535 -0.2746
 6601TIP3   OH219724   1.797   1.395   3.952  0.2719 -0.5700  0.2473
 6601TIP3    H119725   1.770   1.345   4.030  0.0400 -1.3864 -0.3440
 6601TIP3    H219726   1.714   1.421   3.911  0.3910 -0.7560 -0.1118
 6602TIP3   OH219727   1.054   1.331   6.082 -0.1695 -0.1762  0.4276
 6602TIP3    H119728   1.064   1.367   5.993  0.0833 -1.8250 -0.2255
 6602TIP3    H219729   0.969   1.364   6.111  1.4383  3.6250  1.1399
 6603TIP3   OH219730   1.819   2.216   3.772  0.2133 -0.4590  0.3087
 6603TIP3    H119731   1.857   2.207   3.685  1.2238 -0.1976  0.7194
 6603TIP3    H219732   1.743   2.274   3.759 -1.3468 -2.6735 -0.8778
 6604TIP3   OH219733   2.268   0.846   7.215  0.2096 -0.0223  0.8942
 6604TIP3    H119734   2.258   0.904   7.291 -1.1661  1.1260 -0.1256
 6604TIP3    H219735   2.180   0.811   7.200  0.1095  1.0505 -1.1545
 6605TIP3   OH219736   8.639   2.630   7.002 -0.4659  0.1521 -0.5292
 6605TIP3    H119737   8.545   2.615   7.014 -0.2825 -0.2349  0.4861
 6605TIP3    H219738   8.678   2.608   7.087  0.4077  1.4313 -0.5745
 6606TIP3   OH219739   1.015   3.923   4.525 -0.6043  0.2102  0.1187
 6606TIP3    H119740   0.921   3.928   4.543 -0.6498 -0.5170  0.1018
 6606TIP3    H219741   1.043   4.014   4.519 -1.3526  0.4306 -0.0984
 6607TIP3   OH219742   1.416   3.049   5.143 -0.3195 -0.0061  0.5205
 6607TIP3    H119743   1.372   3.028   5.060 -0.5898 -2.3264  1.2076
 6607TIP3    H219744   1.487   3.108   5.118  0.5565 -1.8705 -1.6137
 6608TIP3   OH219745   2.289   1.020   6.669  0.1928  0.2178  0.3155
 6608TIP3    H119746   2.274   1.074   6.746  2.3678  0.3735  0.6346
 6608TIP3    H219747   2.374   1.047   6.636  0.2149 -1.2980 -0.9516
 6609TIP3   OH219748   8.447   3.245   6.421  0.2717  0.2652  0.1721
 6609TIP3    H119749   8.533   3.206   6.404  0.6038  0.4869  1.2604
 6609TIP3    H219750   8.397   3.229   6.342  1.0488 -0.6199 -0.1479
 6610TIP3   OH219751   1.448   1.602   4.932 -0.2628 -0.1098  0.3054
 6610TIP3    H119752   1.464   1.519   4.976  1.6847 -0.0881 -0.3247
 6610TIP3    H219753   1.532   1.647   4.933 -0.8987  1.1457 -0.8071
 6611TIP3   OH219754   0.794   0.764   4.190 -0.6451  0.0571  0.0135
 6611TIP3    H119755   0.832   0.770   4.103 -0.2646 -3.4293 -0.1489
 6611TIP3    H219756   0.703   0.741   4.176 -0.7301  0.0729  0.5044
 6612TIP3   OH219757   2.114   1.292   4.752 -0.1588 -0.1977  0.3467
 6612TIP3    H119758   2.139   1.385   4.747 -0.5725 -0.0204  1.3847
 6612TIP3    H219759   2.151   1.262   4.834 -1.1539 -0.5995  0.6565
 6613TIP3   OH219760   1.555   2.589   5.222  0.1861  0.9417 -0.1767
 6613TIP3    H119761   1.648   2.591   5.246  0.0615  1.0324  0.2990
 6613TIP3    H219762   1.515   2.658   5.275 -0.3332  0.2033  0.4090
 6614TIP3   OH219763   0.863   3.247   5.201 -0.2351 -0.1203  0.0001
 6614TIP3    H119764   0.920   3.176   5.230 -0.4105  0.0846  0.8474
 6614TIP3    H219765   0.918   3.325   5.203 -0.2719 -0.0903 -0.1401
 6615TIP3   OH219766   8.650   2.488   6.490  0.7347 -0.1695  0.4253
 6615TIP3    H119767   8.599   2.546   6.545 -0.2037 -1.4626  0.9310
 6615TIP3    H219768   8.585   2.437   6.441  1.4983 -2.4670  1.7469
 6616TIP3   OH219769   3.081   1.285   6.964 -0.1648  0.7526  0.5625
 6616TIP3    H119770   3.152   1.227   6.992 -1.5759 -0.3459  1.9986
 6616TIP3    H219771   3.092   1.364   7.016  1.3613  1.5229 -0.8999
 6617TIP3   OH219772   6.842   7.752   6.126  0.1224  0.2543  0.5209
 6617TIP3    H119773   6.794   7.681   6.168  1.5379  0.0432  1.8062
 6617TIP3    H219774   6.821   7.830   6.178 -0.5733  0.5846 -0.2418
 6618TIP3   OH219775   0.860   3.964   6.184  0.4254 -0.3023 -0.5040
 6618TIP3    H119776   0.874   3.875   6.216  4.9127  0.3031 -0.5057
 6618TIP3    H219777   0.894   4.020   6.253 -0.8684  1.4122 -1.2101
 6619TIP3   OH219778   8.750   2.105   3.267  0.1737 -0.2246 -0.4568
 6619TIP3    H119779   8.817   2.138   3.327 -0.1441  0.9162 -0.7229
 6619TIP3    H219780   8.699   2.044   3.319  0.2381  0.3468  0.2811
 6620TIP3   OH219781   0.525   2.875   5.758 -0.4892 -0.1508  0.0728
 6620TIP3    H119782   0.607   2.871   5.709 -1.1475 -1.0475 -0.9771
 6620TIP3    H219783   0.536   2.811   5.829  0.3518  0.9382  0.9362
 6621TIP3   OH219784   1.238   1.668   5.814 -0.2087  0.0818 -0.3751
 6621TIP3    H119785   1.231   1.757   5.781 -3.0083  0.3650  0.8337
 6621TIP3    H219786   1.280   1.677   5.899 -0.4651  0.2623 -0.2655
 6622TIP3   OH219787   3.805   2.082   0.054 -0.2046 -0.3867 -0.0783
 6622TIP3    H119788   3.803   2.030   0.135  3.4630  0.1681  0.4678
 6622TIP3    H219789   3.774   2.168   0.081 -1.7809 -0.9817  0.0627
 6623TIP3   OH219790   3.114   3.829   5.539  0.4305 -0.4456 -0.1871
 6623TIP3    H119791   3.086   3.765   5.472 -1.6055  0.4823 -0.2499
 6623TIP3    H219792   3.200   3.858   5.509  0.3173 -1.3633 -1.4606
 6624TIP3   OH219793   2.167   3.500   5.591 -0.4464  0.3785 -0.4116
 6624TIP3    H119794   2.227   3.524   5.662 -0.8653  0.9200 -0.2349
 6624TIP3    H219795   2.190   3.558   5.519 -0.1778 -0.0120 -0.6402
 6625TIP3   OH219796   2.555   1.713   6.882  0.1534 -0.1428  0.7014
 6625TIP3    H119797   2.547   1.707   6.977  0.9065  0.5968  0.8207
 6625TIP3    H219798   2.499   1.786   6.858 -0.5246 -0.7190  0.4937
 6626TIP3   OH219799   2.058   1.333   3.982  0.1339 -0.9830  0.7704
 6626TIP3    H119800   2.083   1.263   3.922  0.3743  0.8961 -1.3600
 6626TIP3    H219801   1.963   1.343   3.968  0.0867 -0.9048  1.1350
 6627TIP3   OH219802   1.174   1.964   4.432 -0.0494 -0.5478  0.0512
 6627TIP3    H119803   1.235   2.020   4.383 -1.2671  0.5551 -0.2165
 6627TIP3    H219804   1.184   1.877   4.391  1.5002 -0.4401  0.1642
 6628TIP3   OH219805   8.321   3.416   6.061  0.0149 -0.3336  0.3982
 6628TIP3    H119806   8.255   3.444   5.998  0.4139 -1.4532 -0.5256
 6628TIP3    H219807   8.401   3.460   6.034  0.1230 -0.5994  0.2813
 6629TIP3   OH219808   0.552   1.314   5.011  0.0651  0.4565 -0.5166
 6629TIP3    H119809   0.593   1.305   4.925 -1.5938 -0.1131 -1.2746
 6629TIP3    H219810   0.497   1.393   5.003 -1.2873 -0.4619 -0.5007
 6630TIP3   OH219811   0.092   2.709   3.997  0.5390  0.3185 -0.4218
 6630TIP3    H119812   0.155   2.758   4.049  0.5972 -0.8895  0.6750
 6630TIP3    H219813   0.144   2.663   3.932  0.6701  0.2305 -0.2539
 6631TIP3   OH219814   1.118   2.427   4.360 -0.1984 -0.1534 -0.4526
 6631TIP3    H119815   1.063   2.449   4.285  0.0891 -0.5079 -0.7714
 6631TIP3    H219816   1.088   2.484   4.430  0.7353  1.4865 -1.3497
 6632TIP3   OH219817   2.868   6.520   0.299  0.2547  0.2365  0.1946
 6632TIP3    H119818   2.934   6.457   0.328  0.4475  0.4169  0.1541
 6632TIP3    H219819   2.864   6.509   0.204  1.3014  1.2439  0.0140
 6633TIP3   OH219820   3.323   1.283   7.201  0.3247  0.0427 -0.0361
 6633TIP3    H119821   3.241   1.271   7.248  0.1613 -1.8171 -0.7503
 6633TIP3    H219822   3.339   1.377   7.204 -1.8183  0.4247  0.1328
 6634TIP3   OH219823   2.985   2.473   5.760  0.2379  0.7486 -0.2754
 6634TIP3    H119824   2.973   2.557   5.717 -0.0352  1.8267  1.8383
 6634TIP3    H219825   3.071   2.479   5.802  1.4273 -1.0761 -2.3592
 6635TIP3   OH219826   7.529   3.030   6.372 -0.4081 -0.0166 -0.3369
 6635TIP3    H119827   7.434   3.018   6.381 -0.3196 -1.4923 -1.1777
 6635TIP3    H219828   7.551   3.099   6.435 -2.1213  0.7013 -0.5134
 6636TIP3   OH219829   1.336   2.478   4.201  0.2732 -0.5959 -0.2297
 6636TIP3    H119830   1.254   2.460   4.246  0.4656  1.9843  1.3194
 6636TIP3    H219831   1.403   2.438   4.257  0.1943 -1.2753 -0.6183
 6637TIP3   OH219832   5.594   0.010   0.493 -0.0244  0.5074  0.2340
 6637TIP3    H119833   5.666   0.024   0.432 -0.1913  3.4104  0.6468
 6637TIP3    H219834   5.635  -0.024   0.572  0.7670  1.0537  0.0594
 6638TIP3   OH219835   3.929   6.401   0.443  0.1814  0.1699 -0.1233
 6638TIP3    H119836   4.024   6.401   0.431  0.2829 -0.0464  0.7247
 6638TIP3    H219837   3.902   6.489   0.414  0.8687  0.9263  1.4742
 6639TIP3   OH219838   7.234   2.157   7.092 -0.0302 -0.1838  0.2371
 6639TIP3    H119839   7.319   2.185   7.124 -0.4040  0.3195  0.7958
 6639TIP3    H219840   7.195   2.237   7.056 -0.2168 -0.4392 -0.1323
 6640TIP3   OH219841   1.311   1.259   3.897  0.3725 -0.0456  0.1100
 6640TIP3    H119842   1.338   1.172   3.867 -1.5010 -0.2614 -1.0113
 6640TIP3    H219843   1.219   1.249   3.922 -0.0221  1.7408 -0.5484
 6641TIP3   OH219844   8.789   0.619   4.879 -0.0619  0.0045 -0.0086
 6641TIP3    H119845   8.754   0.701   4.912  0.0906 -0.0154  0.2031
 6641TIP3    H219846   8.715   0.558   4.884 -0.0906  0.0490  0.1219
 6642TIP3   OH219847   0.409   2.239   5.430  0.0884  0.5916  0.0256
 6642TIP3    H119848   0.444   2.327   5.421 -0.8377  0.9722  0.0811
 6642TIP3    H219849   0.318   2.252   5.457 -0.3798 -0.3544 -1.0675
 6643TIP3   OH219850   2.208   4.062   0.434 -0.0694 -0.4000 -0.1262
 6643TIP3    H119851   2.182   4.146   0.471  0.6425  0.2274 -1.0273
 6643TIP3    H219852   2.192   4.072   0.340  0.3810 -1.1459 -0.2871
 6644TIP3   OH219853   1.145   2.892   4.050 -0.0906 -0.5909  0.2417
 6644TIP3    H119854   1.228   2.856   4.081 -0.1541 -0.0450  1.0328
 6644TIP3    H219855   1.082   2.871   4.119 -0.3484  0.1186  0.2216
 6645TIP3   OH219856   0.337   3.197   6.147 -0.0432  0.7161  0.6911
 6645TIP3    H119857   0.299   3.204   6.235  0.2369 -0.7178  0.9408
 6645TIP3    H219858   0.327   3.284   6.109 -1.0619  1.0801  1.7807
 6646TIP3   OH219859   5.855   0.091   0.390 -0.4211  0.2234  0.2028
 6646TIP3    H119860   5.906   0.139   0.325  1.2431 -1.0711  0.5363
 6646TIP3    H219861   5.884   0.126   0.474  1.7062 -2.2009  0.5094
 6647TIP3   OH219862   1.230   4.267   4.712  0.3380 -0.1734  0.2022
 6647TIP3    H119863   1.232   4.362   4.708 -1.3505 -0.1639 -0.4957
 6647TIP3    H219864   1.192   4.239   4.629  0.5117 -1.4506  0.5323
 6648TIP3   OH219865   1.130   0.461   6.064  0.1374  0.1492 -0.2265
 6648TIP3    H119866   1.154   0.542   6.109 -1.8148  0.7515 -0.2169
 6648TIP3    H219867   1.068   0.489   5.996 -0.9195 -1.3917  0.0795
 6649TIP3   OH219868   1.445   2.131   3.446 -0.3488  0.2730 -0.2328
 6649TIP3    H119869   1.385   2.201   3.470 -1.0991 -1.0079  1.6988
 6649TIP3    H219870   1.411   2.053   3.489  0.8014 -1.1906 -1.8594
 6650TIP3   OH219871   0.217   3.538   4.310  0.3225  0.1208  1.0312
 6650TIP3    H119872   0.217   3.510   4.218 -0.5308  0.6077  0.8835
 6650TIP3    H219873   0.271   3.617   4.311 -0.1113  0.4219  0.8511
 6651TIP3   OH219874   2.261   0.104   4.338  0.9504  0.2146  0.5699
 6651TIP3    H119875   2.248   0.193   4.373  1.8337  0.6346 -0.1449
 6651TIP3    H219876   2.298   0.118   4.250  0.8648 -0.8571  0.3576
 6652TIP3   OH219877   1.349   1.438   5.694  0.0675 -0.0493  0.2061
 6652TIP3    H119878   1.303   1.499   5.751  2.8254  0.9435  1.4519
 6652TIP3    H219879   1.328   1.352   5.730 -0.6412  0.3972  0.8844
 6653TIP3   OH219880   2.930   2.067   6.573  0.0050  0.3226 -0.6380
 6653TIP3    H119881   2.855   2.042   6.519  0.1797  2.1578 -1.7548
 6653TIP3    H219882   2.975   2.134   6.522  1.7206  0.1380  0.5791
 6654TIP3   OH219883   2.217   1.560   5.974 -0.5131  0.2046  0.0892
 6654TIP3    H119884   2.122   1.572   5.978 -0.5164  0.0674  0.5037
 6654TIP3    H219885   2.230   1.466   5.991 -0.3033  0.2321  0.0833
 6655TIP3   OH219886   1.606   2.653   1.991  0.0507  0.8617  0.3706
 6655TIP3    H119887   1.611   2.571   2.038  1.5896  0.5665 -0.2774
 6655TIP3    H219888   1.673   2.709   2.031  0.7769  0.9037 -0.8759
 6656TIP3   OH219889   8.492   8.389   4.422 -0.2689  0.4168 -0.0614
 6656TIP3    H119890   8.564   8.424   4.369 -0.8890  0.5003 -0.8617
 6656TIP3    H219891   8.507   8.294   4.420 -0.8838  0.3283 -1.2917
 6657TIP3   OH219892   0.037   1.068   6.102 -0.2080  0.8092 -0.1333
 6657TIP3    H119893  -0.005   1.102   6.181 -0.2884  0.8632 -0.2000
 6657TIP3    H219894   0.113   1.019   6.134 -1.6188 -1.2636  0.1510
 6658TIP3   OH219895   1.269   1.498   4.752  0.1546 -0.3883 -0.1592
 6658TIP3    H119896   1.249   1.583   4.712  1.8633 -1.3941 -3.3441
 6658TIP3    H219897   1.342   1.516   4.812 -1.2663  0.8300  1.2515
 6659TIP3   OH219898   1.135   0.692   4.945  0.4139 -0.4872 -0.1613
 6659TIP3    H119899   1.096   0.760   5.001 -1.1324 -1.5838  0.1456
 6659TIP3    H219900   1.181   0.740   4.877  1.6537  0.8815  1.6051
 6660TIP3   OH219901   8.827   1.839   6.607  0.2402  0.5922 -0.9181
 6660TIP3    H119902   8.827   1.869   6.698 -0.6925  0.6577 -0.9338
 6660TIP3    H219903   8.736   1.814   6.590  0.8829 -1.7187 -1.0798
 6661TIP3   OH219904   1.558   0.874   3.689 -0.0480 -0.0143 -0.3128
 6661TIP3    H119905   1.649   0.845   3.700  0.0494  0.4166  0.0008
 6661TIP3    H219906   1.551   0.893   3.595  0.4368  0.8052 -0.1897
 6662TIP3   OH219907   6.215   5.732   0.317  0.1497  0.1160 -0.0001
 6662TIP3    H119908   6.164   5.802   0.357 -1.1144  0.8634 -2.7638
 6662TIP3    H219909   6.292   5.776   0.282  0.6461 -0.3287  0.5228
 6663TIP3   OH219910   7.201   7.134   6.068 -0.2738  0.2964  0.1766
 6663TIP3    H119911   7.205   7.057   6.012  0.1283  0.6504 -0.2890
 6663TIP3    H219912   7.109   7.160   6.068 -0.8502 -1.5935  2.2720
 6664TIP3   OH219913   2.869   1.411   6.343  0.2771  0.1976  0.0457
 6664TIP3    H119914   2.890   1.409   6.249  0.9505 -0.1412  0.2055
 6664TIP3    H219915   2.939   1.463   6.382  0.7855 -0.8682  0.5679
 6665TIP3   OH219916   0.987   1.542   5.144  0.4011 -0.2426 -0.1802
 6665TIP3    H119917   1.017   1.481   5.077  0.1037 -0.5076 -0.0767
 6665TIP3    H219918   1.053   1.537   5.213  0.7236  0.0545 -0.4707
 6666TIP3   OH219919   2.248   1.590   4.251  0.8403 -0.1123 -0.1989
 6666TIP3    H119920   2.171   1.534   4.246  0.5515  0.1388  1.1808
 6666TIP3    H219921   2.218   1.674   4.217  0.0872  0.3868  1.6105
 6667TIP3   OH219922   2.738   1.370   4.375  0.1394  0.5255  0.3873
 6667TIP3    H119923   2.804   1.352   4.308 -1.0359 -1.8467 -0.2092
 6667TIP3    H219924   2.665   1.409   4.326 -0.0621  0.3406  0.5384
 6668TIP3   OH219925   1.934   1.857   5.004  0.7656 -0.5877 -0.3226
 6668TIP3    H119926   2.017   1.819   5.032  0.6141 -0.5577  0.1831
 6668TIP3    H219927   1.933   1.945   5.044  1.1713 -0.0046 -1.5860
 6669TIP3   OH219928   0.122   3.927   5.521  0.4557 -0.1652  0.2025
 6669TIP3    H119929   0.192   3.894   5.465 -0.4201 -1.3995 -0.1996
 6669TIP3    H219930   0.167   3.970   5.594  1.6126  0.4446 -0.8445
 6670TIP3   OH219931   0.335   1.656   7.119 -0.1414 -0.2092 -0.1022
 6670TIP3    H119932   0.406   1.691   7.173 -0.4076  0.5001 -0.2073
 6670TIP3    H219933   0.278   1.611   7.181  0.6652 -1.2301 -0.0863
 6671TIP3   OH219934   0.297   0.580   6.148  0.7161  0.1973  0.5493
 6671TIP3    H119935   0.388   0.608   6.155  1.2464 -1.4151  0.2899
 6671TIP3    H219936   0.263   0.585   6.237  0.0582  3.9630  0.1770
 6672TIP3   OH219937   0.398   2.113   6.073  0.1895  0.0564 -0.7373
 6672TIP3    H119938   0.423   2.200   6.040 -0.5964  0.9825  1.0437
 6672TIP3    H219939   0.420   2.116   6.166 -2.3779 -0.6954 -0.0712
 6673TIP3   OH219940   0.312   3.686   3.615  0.6020  0.5274  0.0565
 6673TIP3    H119941   0.228   3.702   3.658  0.3029  1.7011 -0.9515
 6673TIP3    H219942   0.372   3.751   3.652  1.1149 -0.3522  0.8267
 6674TIP3   OH219943   1.886   2.535   4.418 -0.0301  0.4637  0.4205
 6674TIP3    H119944   1.913   2.520   4.327  0.6525  0.1274  0.6756
 6674TIP3    H219945   1.842   2.619   4.416 -0.0393  0.4495 -0.2304
 6675TIP3   OH219946   2.689   0.684   5.180 -0.3665  0.3570 -0.2772
 6675TIP3    H119947   2.780   0.693   5.153  0.1575  2.0698  1.8559
 6675TIP3    H219948   2.649   0.768   5.158 -1.2027 -0.0485 -0.3436
 6676TIP3   OH219949   1.721   2.149   6.776  0.2793  0.3309  0.1122
 6676TIP3    H119950   1.775   2.100   6.839 -0.7192  1.2073  1.6750
 6676TIP3    H219951   1.721   2.239   6.809 -1.7164  0.4493 -0.1656
 6677TIP3   OH219952   3.797   0.636   4.959 -0.3686  0.0438 -0.0125
 6677TIP3    H119953   3.744   0.558   4.978 -0.8914  0.4745  0.3214
 6677TIP3    H219954   3.862   0.605   4.896 -0.9815 -0.5123 -0.3939
 6678TIP3   OH219955   8.619   4.743   4.753 -0.2512  0.1044 -0.4120
 6678TIP3    H119956   8.603   4.836   4.734 -1.7958 -0.3118 -1.2583
 6678TIP3    H219957   8.684   4.743   4.823 -0.5361  1.8326 -0.1339
 6679TIP3   OH219958   2.547   3.485   4.416 -0.3186 -0.5357 -0.4076
 6679TIP3    H119959   2.474   3.428   4.392 -0.7529 -0.3629  0.4958
 6679TIP3    H219960   2.512   3.542   4.484  0.1105  0.8207 -1.2977
 6680TIP3   OH219961   0.199   1.594   5.525  0.1942  0.4911  0.7512
 6680TIP3    H119962   0.294   1.588   5.521  0.2149  0.5629  1.1222
 6680TIP3    H219963   0.181   1.685   5.548  0.0436  0.4245  0.9014
 6681TIP3   OH219964   0.333   2.437   7.232 -0.4136  0.3255  0.0790
 6681TIP3    H119965   0.330   2.378   7.308 -0.1577  1.3953  0.9281
 6681TIP3    H219966   0.242   2.442   7.202 -0.0589 -2.6907 -1.7287
 6682TIP3   OH219967   5.014   3.140   3.350  0.2677 -0.6592  0.0786
 6682TIP3    H119968   5.048   3.058   3.385 -0.5257  0.0052  2.4522
 6682TIP3    H219969   4.931   3.115   3.308  0.9330 -1.3480 -0.8766
 6683TIP3   OH219970   0.677   1.182   5.758 -0.3893  0.0017 -0.3553
 6683TIP3    H119971   0.711   1.250   5.815  0.0138  0.0013 -0.5969
 6683TIP3    H219972   0.688   1.101   5.809  0.9632 -0.1373 -0.8602
 6684TIP3   OH219973   2.429   3.022   5.625 -0.2848 -0.0435  0.6539
 6684TIP3    H119974   2.346   2.973   5.626 -0.4248  0.0060 -2.7321
 6684TIP3    H219975   2.402   3.114   5.625 -0.1330  0.0120  2.4737
 6685TIP3   OH219976   8.742   3.918   5.186 -0.0980 -0.0848  0.1858
 6685TIP3    H119977   8.781   4.004   5.171  0.1808 -0.4090 -1.0465
 6685TIP3    H219978   8.816   3.857   5.184 -0.5467 -0.5950 -1.2043
 6686TIP3   OH219979   1.822   2.904   6.133 -0.3388  1.1299 -0.1016
 6686TIP3    H119980   1.845   2.818   6.168 -1.6417  0.8125  0.0005
 6686TIP3    H219981   1.860   2.966   6.195  0.2113  0.6140  0.0774
 6687TIP3   OH219982   1.012   1.195   5.237 -0.7668  0.1357 -0.4394
 6687TIP3    H119983   0.995   1.222   5.328  0.8684 -0.5465  0.1008
 6687TIP3    H219984   0.928   1.204   5.193 -1.7095 -0.0007  1.2746
 6688TIP3   OH219985   3.228   1.785   4.750  0.3235  0.0560 -0.2459
 6688TIP3    H119986   3.210   1.739   4.668  1.0279  0.8492 -0.8621
 6688TIP3    H219987   3.142   1.808   4.785  0.0036 -0.8130 -0.4542
 6689TIP3   OH219988   3.525   6.473   0.145  0.0503  0.1911  0.1493
 6689TIP3    H119989   3.552   6.441   0.232 -1.9867 -0.8995  0.4086
 6689TIP3    H219990   3.585   6.545   0.127  0.8925  0.0566  2.2146
 6690TIP3   OH219991   1.379   1.412   7.170  0.1669 -0.1057  0.0978
 6690TIP3    H119992   1.421   1.447   7.248  1.2968 -3.1171  0.9113
 6690TIP3    H219993   1.285   1.430   7.183  0.5114  0.8530  1.3487
 6691TIP3   OH219994   0.280   2.716   5.978  0.0675  0.1734 -0.4941
 6691TIP3    H119995   0.289   2.811   5.984 -1.3920  0.3469 -0.8961
 6691TIP3    H219996   0.370   2.684   5.969  0.4773  1.5992 -1.6666
 6692TIP3   OH219997   0.480   1.631   5.558 -0.3159  0.2207  0.1178
 6692TIP3    H119998   0.536   1.696   5.515 -1.0897  0.8753  0.0858
 6692TIP3    H219999   0.501   1.638   5.651 -0.8111  0.9258  0.1801
 6693TIP3   OH220000   8.798   4.381   5.395 -0.0423  0.0811 -0.6793
 6693TIP3    H120001   8.808   4.321   5.469 -2.8735 -0.7061 -0.8837
 6693TIP3    H220002   8.877   4.435   5.397  1.6999 -2.4270  0.6178
 6694TIP3   OH220003   1.768   0.459   3.508 -0.9384  0.0872  0.9155
 6694TIP3    H120004   1.771   0.365   3.490 -0.3983  0.3262 -0.3679
 6694TIP3    H220005   1.803   0.468   3.596 -0.9880 -0.9119  1.0474
 6695TIP3   OH220006   4.665   5.643   0.418  0.3300 -0.2497  0.0169
 6695TIP3    H120007   4.641   5.621   0.328  1.0820  1.8680 -0.7255
 6695TIP3    H220008   4.741   5.701   0.409 -0.4714  1.1215  1.9637
 6696TIP3   OH220009   0.203   2.810   7.103  0.8060 -0.4000 -0.4162
 6696TIP3    H120010   0.283   2.829   7.152 -0.2008  0.1296  1.0686
 6696TIP3    H220011   0.132   2.833   7.163 -0.4848 -2.8697 -0.9334
 6697TIP3   OH220012   0.527   2.996   5.068  0.4022 -0.0570 -0.3436
 6697TIP3    H120013   0.577   2.956   4.997 -0.1276 -0.0418 -0.7250
 6697TIP3    H220014   0.472   2.925   5.101 -0.2229  0.2455 -0.7366
 6698TIP3   OH220015   8.801   1.144   5.380 -0.1853  0.1088  0.2090
 6698TIP3    H120016   8.884   1.114   5.341  0.4579  1.7202  0.3010
 6698TIP3    H220017   8.739   1.143   5.307  0.3084  0.3521 -0.2240
 6699TIP3   OH220018   8.681   2.295   4.392 -0.0624  0.4041  0.2169
 6699TIP3    H120019   8.685   2.329   4.303  1.8217 -0.8265 -0.1979
 6699TIP3    H220020   8.590   2.309   4.419 -0.5671  1.1165 -1.7473
 6700TIP3   OH220021   2.160   2.388   5.157  0.3690 -0.1461  0.3242
 6700TIP3    H120022   2.158   2.402   5.063 -0.5798  0.5960  0.4501
 6700TIP3    H220023   2.148   2.294   5.169  0.0761 -0.1810 -0.2762
 6701TIP3   OH220024   2.558   0.252   3.922  0.0164 -0.4147  0.0626
 6701TIP3    H120025   2.534   0.253   3.829  1.4985  2.1488 -0.3392
 6701TIP3    H220026   2.652   0.232   3.923 -0.2860 -1.9100  1.1273
 6702TIP3   OH220027   8.025   3.506   7.213 -0.4361 -0.6377 -0.3407
 6702TIP3    H120028   8.064   3.587   7.181 -1.5640 -0.0701 -0.3083
 6702TIP3    H220029   8.033   3.512   7.308  0.4130 -1.0496 -0.3796
 6703TIP3   OH220030   1.533   0.120   4.463  0.2576 -0.1272  0.0478
 6703TIP3    H120031   1.567   0.170   4.389  0.1978  1.4114  1.0412
 6703TIP3    H220032   1.456   0.168   4.492  0.9216 -0.0581  1.8119
 6704TIP3   OH220033   4.373   2.187   5.992 -0.2968 -0.7169 -0.3424
 6704TIP3    H120034   4.292   2.214   5.948  0.6433 -1.0490 -2.3294
 6704TIP3    H220035   4.408   2.268   6.029 -0.9833 -0.3975 -0.3842
 6705TIP3   OH220036   4.411   1.932   3.966  0.4977 -0.0034 -0.9046
 6705TIP3    H120037   4.381   1.882   4.042  0.8371  0.3835 -0.5158
 6705TIP3    H220038   4.477   1.992   4.001  1.6072 -0.7292 -1.7229
 6706TIP3   OH220039   2.755   2.206   4.439  0.1483 -0.0942  0.0299
 6706TIP3    H120040   2.844   2.188   4.407  0.2219 -1.0691  0.7560
 6706TIP3    H220041   2.706   2.126   4.418 -0.8219  0.8339 -1.2983
 6707TIP3   OH220042   1.504   0.591   6.253  0.2367  0.4125 -0.0634
 6707TIP3    H120043   1.443   0.644   6.203  0.9140  0.2356 -1.0999
 6707TIP3    H220044   1.487   0.613   6.345 -2.5068 -0.8722 -0.2346
 6708TIP3   OH220045   3.158   0.971   6.954 -0.6491  0.1551 -0.5174
 6708TIP3    H120046   3.135   0.881   6.932 -0.8329  0.4285 -1.4435
 6708TIP3    H220047   3.151   0.975   7.050 -0.0080 -0.9841 -0.4184
 6709TIP3   OH220048   1.925   0.175   4.035 -0.5631 -0.3546 -0.4528
 6709TIP3    H120049   2.004   0.146   3.990 -0.2176 -0.5524  0.2797
 6709TIP3    H220050   1.891   0.096   4.078 -1.4013 -0.3705 -1.1242
 6710TIP3   OH220051   2.261   0.158   3.509  0.1635  0.6816  0.4743
 6710TIP3    H120052   2.236   0.071   3.479  1.1850  0.2778  0.7760
 6710TIP3    H220053   2.233   0.217   3.439  1.7023 -0.1552 -0.8638
 6711TIP3   OH220054   0.852   1.411   6.267  0.4407  0.8176  0.1818
 6711TIP3    H120055   0.806   1.485   6.306 -0.3330  0.0277  0.7908
 6711TIP3    H220056   0.928   1.396   6.323 -0.5011 -0.1198  1.2296
 6712TIP3   OH220057   8.456   1.899   7.147 -0.5464  0.3569 -0.3671
 6712TIP3    H120058   8.459   1.906   7.243 -1.9778  1.8821 -0.4098
 6712TIP3    H220059   8.378   1.847   7.129 -0.5301  0.4512 -0.7071
 6713TIP3   OH220060   5.315   1.174   1.045 -0.1920  0.0954 -0.2696
 6713TIP3    H120061   5.242   1.209   0.994 -0.5381 -1.2859 -0.7549
 6713TIP3    H220062   5.382   1.152   0.980  1.0327  2.1740  0.2502
 6714TIP3   OH220063   3.063   7.141   0.665  0.3638 -0.3173 -0.5664
 6714TIP3    H120064   3.123   7.074   0.632 -0.4805  0.0884 -3.0304
 6714TIP3    H220065   3.101   7.224   0.638  0.3405  0.1167  0.6849
 6715TIP3   OH220066   8.800   1.302   4.358 -0.6513 -0.5626  0.1173
 6715TIP3    H120067   8.800   1.261   4.444 -1.5963  0.7540  0.7606
 6715TIP3    H220068   8.870   1.366   4.361 -0.4142 -0.8055 -0.2335
 6716TIP3   OH220069   3.618   5.667   0.171  0.2737  0.2065  0.6795
 6716TIP3    H120070   3.662   5.705   0.247 -0.5633 -1.0429  1.8170
 6716TIP3    H220071   3.529   5.701   0.176  0.6666  1.4908 -0.7355
 6717TIP3   OH220072   2.153   2.639   3.992 -0.0692  0.0717 -0.1518
 6717TIP3    H120073   2.154   2.734   3.977  2.9626 -0.2998 -2.9243
 6717TIP3    H220074   2.084   2.606   3.935  1.7173  0.2251 -2.4715
 6718TIP3   OH220075   5.287   5.312   0.610  0.2607  0.2907  0.2418
 6718TIP3    H120076   5.208   5.258   0.605  0.5966 -0.1747 -0.0522
 6718TIP3    H220077   5.309   5.330   0.519 -0.1793  1.4113  0.3462
 6719TIP3   OH220078   2.243   2.043   4.843  0.1628  0.1282 -0.3768
 6719TIP3    H120079   2.237   2.099   4.920  0.9302  1.3954 -1.2237
 6719TIP3    H220080   2.280   2.099   4.775 -0.7778 -0.8876 -1.7559
 6720TIP3   OH220081   3.454   6.277   0.618  0.3791 -0.7342 -0.6577
 6720TIP3    H120082   3.497   6.194   0.638 -1.8454 -1.4584  1.3730
 6720TIP3    H220083   3.482   6.336   0.689 -0.7450 -0.7848 -0.1573
 6721TIP3   OH220084   3.514   2.547   4.015  0.1169 -0.5869 -0.4778
 6721TIP3    H120085   3.600   2.516   4.040  0.5784 -0.0014 -1.3049
 6721TIP3    H220086   3.499   2.624   4.070 -0.2702 -1.2335  0.3171
 6722TIP3   OH220087   3.789   3.157   5.921 -0.3228  0.0591  0.1510
 6722TIP3    H120088   3.847   3.151   5.846 -0.4099  2.7388 -0.1707
 6722TIP3    H220089   3.715   3.099   5.899 -0.4660  0.9899 -1.9378
 6723TIP3   OH220090   3.736   5.945   0.183 -0.2313  0.1615 -0.8313
 6723TIP3    H120091   3.700   5.966   0.269 -1.2611  1.0009 -1.4484
 6723TIP3    H220092   3.785   6.023   0.158 -0.8985  0.3764 -1.4943
 6724TIP3   OH220093   0.924   1.513   4.681 -0.2285  0.3971 -0.3506
 6724TIP3    H120094   0.881   1.594   4.709 -2.0032 -0.9635  1.0386
 6724TIP3    H220095   0.951   1.471   4.763  2.9038  0.7148 -1.1585
 6725TIP3   OH220096   3.916   1.249   6.252 -0.2104  0.3521 -0.2440
 6725TIP3    H120097   3.917   1.292   6.338 -2.7058  1.7955 -0.8756
 6725TIP3    H220098   3.920   1.156   6.272 -0.1681  0.6925  1.4117
 6726TIP3   OH220099   0.101   1.228   6.505 -0.3437 -0.1424  0.1721
 6726TIP3    H120100   0.034   1.250   6.441 -1.3595 -1.7777  0.6492
 6726TIP3    H220101   0.161   1.171   6.458 -0.1830 -0.0157  0.2219
 6727TIP3   OH220102   3.092   1.592   5.730  0.2756  0.2890  0.4593
 6727TIP3    H120103   3.173   1.595   5.781 -0.1694  4.1475  1.0666
 6727TIP3    H220104   3.121   1.582   5.639  1.2992 -0.9627  0.9074
 6728TIP3   OH220105   3.063   1.111   4.191  0.7782 -0.0122  0.5535
 6728TIP3    H120106   3.037   1.019   4.185  0.2375  0.2447 -1.2339
 6728TIP3    H220107   2.985   1.160   4.163  1.8452  0.9085 -0.9027
 6729TIP3   OH220108   8.842   1.401   5.435  0.2391 -0.7229  0.0325
 6729TIP3    H120109   8.766   1.432   5.385 -0.2356 -0.0079  1.1734
 6729TIP3    H220110   8.853   1.310   5.408 -0.5353 -0.5926 -0.7421
 6730TIP3   OH220111   8.902   0.144   5.783 -0.0767 -0.3766 -0.4732
 6730TIP3    H120112   8.855   0.217   5.743 -1.1480 -0.6942  0.2083
 6730TIP3    H220113   8.914   0.170   5.874 -1.0217 -1.3111 -0.0694
 6731TIP3   OH220114   0.209   2.278   6.392  0.1823  0.1564 -0.2224
 6731TIP3    H120115   0.118   2.307   6.395 -0.1549 -0.9607  0.3352
 6731TIP3    H220116   0.248   2.313   6.472 -0.2409 -0.9595  0.4821
 6732TIP3   OH220117   3.813   2.322   7.252  0.1821  0.3195 -0.2067
 6732TIP3    H120118   3.782   2.410   7.271 -1.3822 -0.3228  0.2786
 6732TIP3    H220119   3.783   2.304   7.163 -2.2815 -0.8856  0.8109
 6733TIP3   OH220120   3.696   5.819   0.819  0.0589 -0.1501 -0.1079
 6733TIP3    H120121   3.733   5.759   0.884  1.4906  0.5385 -0.2786
 6733TIP3    H220122   3.677   5.899   0.869  0.4704  0.1197 -0.3822
 6734TIP3   OH220123   0.378   1.530   4.967 -0.6097 -0.4366  0.1046
 6734TIP3    H120124   0.431   1.587   4.910 -0.8141  0.2480  0.5849
 6734TIP3    H220125   0.291   1.570   4.965 -0.8463 -0.9502  0.1585
 6735TIP3   OH220126   1.417   0.624   7.182  0.1143 -0.2321 -0.3846
 6735TIP3    H120127   1.468   0.547   7.207 -0.6783 -0.7940 -0.4799
 6735TIP3    H220128   1.379   0.654   7.265 -1.4988 -1.3555 -0.6908
 6736TIP3   OH220129   0.094   0.323   6.324 -0.4448 -0.2623 -0.1222
 6736TIP3    H120130   0.162   0.264   6.355  0.1706  0.4193 -0.1467
 6736TIP3    H220131   0.043   0.272   6.262 -0.1094 -0.8559  0.0945
 6737TIP3   OH220132   2.130   2.495   6.437 -0.2741 -0.5710 -0.3948
 6737TIP3    H120133   2.183   2.434   6.385 -0.1091  0.4856 -1.4852
 6737TIP3    H220134   2.040   2.472   6.417 -0.2254  1.1137 -2.7226
 6738TIP3   OH220135   2.124   2.805   4.945 -0.0496  0.1187  0.1768
 6738TIP3    H120136   2.055   2.800   5.012 -0.9231  1.5602 -0.5881
 6738TIP3    H220137   2.113   2.726   4.894 -2.3625  1.1775 -1.0692
 6739TIP3   OH220138   0.836   0.083   4.536 -0.4715 -0.0611 -0.4460
 6739TIP3    H120139   0.854   0.147   4.605  0.1579 -1.4877  0.7305
 6739TIP3    H220140   0.757   0.037   4.566  0.2276 -1.1810 -0.3063
 6740TIP3   OH220141   0.965   4.759   6.192  0.3361  0.2582 -0.2273
 6740TIP3    H120142   0.961   4.745   6.287 -2.8856  1.9598 -0.0122
 6740TIP3    H220143   0.957   4.671   6.154 -1.1925 -0.2089  1.1048
 6741TIP3   OH220144   2.368   1.497   4.508 -0.2349 -0.0096 -0.1678
 6741TIP3    H120145   2.404   1.586   4.505 -1.9632  0.7898  1.4230
 6741TIP3    H220146   2.328   1.485   4.422 -1.8205  1.5876  0.3095
 6742TIP3   OH220147   8.580   1.508   5.041 -0.1945  0.6195 -0.3844
 6742TIP3    H120148   8.572   1.539   5.131  1.5682  0.2537 -0.0914
 6742TIP3    H220149   8.574   1.588   4.988 -0.8541  0.8797  0.0751
 6743TIP3   OH220150   1.055   1.465   3.908 -0.3471 -0.2806  0.2412
 6743TIP3    H120151   0.964   1.436   3.898 -0.0046 -1.3717  0.1989
 6743TIP3    H220152   1.086   1.417   3.985 -0.2122  1.1202  1.0819
 6744TIP3   OH220153   1.128   2.886   4.704  0.5700 -0.9217 -0.3754
 6744TIP3    H120154   1.155   2.818   4.643  0.4761  0.0097 -1.4777
 6744TIP3    H220155   1.060   2.845   4.757  1.5703 -2.1366 -0.0269
 6745TIP3   OH220156   3.521   7.906   1.531 -0.3178 -0.3957 -0.1761
 6745TIP3    H120157   3.444   7.904   1.473 -0.0909  0.8506 -0.5490
 6745TIP3    H220158   3.567   7.986   1.506  0.2363 -0.2835  1.1581
 6746TIP3   OH220159   0.923   0.801   4.636  0.0005 -0.3439 -0.0838
 6746TIP3    H120160   0.917   0.728   4.697 -0.3913 -1.3154 -1.2517
 6746TIP3    H220161   0.974   0.767   4.563 -1.3807  0.0787 -1.2779
 6747TIP3   OH220162   0.290   2.483   6.585 -0.1154 -0.4752 -0.2528
 6747TIP3    H120163   0.303   2.510   6.494  0.6491  0.2656  0.0758
 6747TIP3    H220164   0.196   2.498   6.600  0.2754  2.0442 -0.0825
 6748TIP3   OH220165   1.488   0.814   4.130 -0.6933  0.0271  0.1166
 6748TIP3    H120166   1.547   0.740   4.121 -3.1193 -2.2763  2.4191
 6748TIP3    H220167   1.424   0.803   4.059  0.0745  1.0102 -0.7312
 6749TIP3   OH220168   3.143   2.996   2.274 -0.0840 -0.9175 -0.2578
 6749TIP3    H120169   3.063   2.998   2.223 -0.2748 -1.7801 -0.0050
 6749TIP3    H220170   3.161   2.903   2.288 -0.1735 -0.7068  1.4335
 6750TIP3   OH220171   3.562   1.359   6.704  0.1442  0.0211  0.2690
 6750TIP3    H120172   3.547   1.426   6.771  1.7181  0.5608  0.1022
 6750TIP3    H220173   3.579   1.279   6.752 -1.2839 -0.1835  0.4736
 6751TIP3   OH220174   1.729   4.192   4.898 -0.2770 -0.7122  0.0642
 6751TIP3    H120175   1.750   4.146   4.979  2.5671 -0.5229 -0.5059
 6751TIP3    H220176   1.758   4.132   4.829  1.9150  1.1655 -0.7126
 6752TIP3   OH220177   2.816   1.784   6.719  0.0891  0.4477 -0.3557
 6752TIP3    H120178   2.869   1.706   6.701 -0.3823  0.0450 -0.0313
 6752TIP3    H220179   2.747   1.752   6.777  0.3526  1.2698  0.4338
 6753TIP3   OH220180   3.293   0.370   4.969  0.3407 -1.0461 -0.0056
 6753TIP3    H120181   3.232   0.380   4.896  1.6512 -0.5457 -1.0669
 6753TIP3    H220182   3.261   0.295   5.018 -1.3048 -0.5818 -0.3559
 6754TIP3   OH220183   2.423   3.552   4.885  0.0212  0.0281 -0.8016
 6754TIP3    H120184   2.448   3.467   4.850  0.0855  0.3733 -1.6049
 6754TIP3    H220185   2.456   3.615   4.821 -1.1500  0.5872 -0.8750
 6755TIP3   OH220186   1.322   1.367   6.156  0.3887  0.6076  0.5760
 6755TIP3    H120187   1.348   1.321   6.076  0.7146  1.0735  0.4126
 6755TIP3    H220188   1.229   1.348   6.165  0.1870  1.1410 -0.3112
 6756TIP3   OH220189   3.514   2.118   6.478 -0.0534 -0.2862 -0.5397
 6756TIP3    H120190   3.455   2.103   6.404  0.5061  1.0363 -1.2801
 6756TIP3    H220191   3.546   2.031   6.501 -0.5807 -0.7639 -1.5661
 6757TIP3   OH220192   0.982   0.255   5.885  0.1043  0.1795 -0.1258
 6757TIP3    H120193   1.004   0.239   5.976  0.3759  1.7490  0.0916
 6757TIP3    H220194   1.065   0.247   5.838 -0.0808 -0.8973 -0.2824
 6758TIP3   OH220195   3.379   2.713   2.624  0.2865  0.1257  0.3145
 6758TIP3    H120196   3.428   2.690   2.544 -0.5275  2.0689 -0.7661
 6758TIP3    H220197   3.443   2.703   2.694  1.7070  0.7170 -0.8617
 6759TIP3   OH220198   3.144   2.234   5.783  0.4117  1.0262 -0.0732
 6759TIP3    H120199   3.050   2.244   5.770  0.0880  1.0736  2.0302
 6759TIP3    H220200   3.155   2.236   5.878  2.4556  0.2428 -0.2627
 6760TIP3   OH220201   2.156   1.889   6.323  0.4650  0.1807 -0.3589
 6760TIP3    H120202   2.145   1.825   6.253  0.1767  1.1484 -1.2099
 6760TIP3    H220203   2.226   1.946   6.292  1.3045 -0.2073  0.7664
 6761TIP3   OH220204   1.686   1.833   5.692  0.0054  0.9306  0.2462
 6761TIP3    H120205   1.624   1.818   5.621 -0.2546  1.0925  0.4363
 6761TIP3    H220206   1.663   1.919   5.726  1.6503  1.8902 -1.0093
 6762TIP3   OH220207   6.158   7.241   0.200  0.2434 -0.0155 -0.0092
 6762TIP3    H120208   6.208   7.183   0.143 -1.3752 -0.1764 -1.2998
 6762TIP3    H220209   6.098   7.183   0.247 -1.4257  0.5795 -1.3555
 6763TIP3   OH220210   2.120   0.719   3.344  0.4005  0.0626  0.0549
 6763TIP3    H120211   2.191   0.658   3.321 -0.8904 -1.4814  0.1086
 6763TIP3    H220212   2.148   0.758   3.427  1.1963 -0.5246  0.0705
 6764TIP3   OH220213   1.528   1.989   5.477 -0.1463  0.1543  0.0221
 6764TIP3    H120214   1.597   2.007   5.414 -0.1234 -1.0546 -0.3176
 6764TIP3    H220215   1.504   2.074   5.513  0.5862  0.7224 -0.8407
 6765TIP3   OH220216   2.472   2.814   4.489 -0.3414  0.1760  0.2065
 6765TIP3    H120217   2.437   2.888   4.441  1.5674  1.3028  0.5231
 6765TIP3    H220218   2.403   2.792   4.553 -1.0195  1.4836 -0.0596
 6766TIP3   OH220219   8.550   3.422   4.890  0.0841  0.0280 -0.5350
 6766TIP3    H120220   8.524   3.462   4.807 -1.2064  0.9085  0.2774
 6766TIP3    H220221   8.595   3.492   4.937 -1.8994  0.4522  0.7576
 6767TIP3   OH220222   0.981   1.464   6.732 -0.3008  0.0197  0.2440
 6767TIP3    H120223   1.012   1.553   6.722  1.4207 -0.6514 -0.5509
 6767TIP3    H220224   0.981   1.449   6.826  1.3787  0.1974  0.2938
 6768TIP3   OH220225   0.891   2.385   7.130 -0.6045  0.6432 -0.4995
 6768TIP3    H120226   0.853   2.401   7.044 -2.2056 -0.7860 -0.1085
 6768TIP3    H220227   0.883   2.468   7.177 -0.9451  1.0497 -1.2844
 6769TIP3   OH220228   1.350   3.399   5.607 -0.1279 -0.0660 -0.3863
 6769TIP3    H120229   1.337   3.412   5.701 -0.1044 -0.1743 -0.3681
 6769TIP3    H220230   1.445   3.400   5.596 -0.0581 -2.4600 -0.0776
 6770TIP3   OH220231   0.956   3.141   7.083 -0.6901  0.1091  0.7438
 6770TIP3    H120232   0.862   3.160   7.087 -1.0553 -0.7421 -2.5004
 6770TIP3    H220233   0.995   3.220   7.046 -0.3863 -0.2788  0.2291
 6771TIP3   OH220234   3.430   1.241   5.038 -0.2114 -0.0595 -0.0805
 6771TIP3    H120235   3.457   1.332   5.036  0.3199 -0.2250 -0.8597
 6771TIP3    H220236   3.370   1.235   5.112  1.7233  0.3493  1.5351
 6772TIP3   OH220237   8.333   4.134   5.967 -0.6690  0.1273  0.0117
 6772TIP3    H120238   8.243   4.114   5.995 -0.9564 -0.4911 -1.3262
 6772TIP3    H220239   8.343   4.087   5.884  0.2885  1.6300 -0.7375
 6773TIP3   OH220240   1.074   1.685   6.126 -0.5614  0.8368  0.1096
 6773TIP3    H120241   0.995   1.726   6.091 -1.7392 -0.7219  0.9132
 6773TIP3    H220242   1.074   1.708   6.219 -0.0240  0.8784  0.1024
 6774TIP3   OH220243   1.324   1.807   5.494  0.3005 -0.3148 -0.1010
 6774TIP3    H120244   1.375   1.735   5.458  1.3656  0.4859 -0.2121
 6774TIP3    H220245   1.385   1.880   5.500 -0.5462  0.3474  0.7959
 6775TIP3   OH220246   4.666   7.856   0.891  0.2661  0.2521  0.3710
 6775TIP3    H120247   4.756   7.873   0.919  0.1626  0.5105  0.5453
 6775TIP3    H220248   4.649   7.921   0.823 -0.1528  0.9019  1.0871
 6776TIP3   OH220249   8.434   1.955   6.838 -0.1123 -0.2930  0.2058
 6776TIP3    H120250   8.493   1.886   6.809  0.7659  0.4757  0.1250
 6776TIP3    H220251   8.443   1.956   6.934 -1.1829 -1.2219  0.3163
 6777TIP3   OH220252   0.908   1.744   7.154 -0.5862 -0.0221 -0.2706
 6777TIP3    H120253   0.944   1.733   7.242 -0.1641 -0.1189 -0.4518
 6777TIP3    H220254   0.945   1.827   7.123  1.9670 -1.5970 -1.6241
 6778TIP3   OH220255   1.546   1.525   4.478 -0.1183  0.2851  0.5077
 6778TIP3    H120256   1.504   1.594   4.530  0.2576  1.8004 -1.1379
 6778TIP3    H220257   1.592   1.471   4.542 -0.7838  1.3095  1.8704
 6779TIP3   OH220258   2.771   2.327   4.678  0.2016  0.6340 -0.1437
 6779TIP3    H120259   2.765   2.310   4.584 -0.0649  1.7703 -0.3426
 6779TIP3    H220260   2.841   2.270   4.708  0.5471  0.5388 -1.1101
 6780TIP3   OH220261   0.730   0.441   5.322 -0.3853  0.1319  0.3316
 6780TIP3    H120262   0.807   0.497   5.334  0.1395 -0.3197 -0.8901
 6780TIP3    H220263   0.657   0.494   5.356  0.5057  0.3770  1.9387
 6781TIP3   OH220264   2.875   2.037   5.231 -0.1781  0.6457 -0.0968
 6781TIP3    H120265   2.879   2.068   5.140 -2.4324  0.3281 -0.3287
 6781TIP3    H220266   2.816   1.962   5.229  1.3526 -0.6671  1.3173
 6782TIP3   OH220267   2.486   0.676   5.401 -0.8336 -0.3831  0.2361
 6782TIP3    H120268   2.412   0.717   5.355  0.2882  1.3557 -0.1001
 6782TIP3    H220269   2.558   0.684   5.339  0.0531 -0.4258  1.2641
 6783TIP3   OH220270   1.419   0.128   6.129 -0.2484 -0.4462  0.3193
 6783TIP3    H120271   1.491   0.185   6.103  0.7240 -1.6115  0.4301
 6783TIP3    H220272   1.391   0.086   6.047  0.4987 -1.4733  0.5897
 6784TIP3   OH220273   2.138   1.408   5.317 -0.0011 -0.1282  0.1772
 6784TIP3    H120274   2.155   1.487   5.266  4.1744 -2.1573 -1.8398
 6784TIP3    H220275   2.052   1.378   5.288  0.6560  0.8503 -2.8681
 6785TIP3   OH220276   2.818   1.190   7.021  0.0273 -0.2264  0.2245
 6785TIP3    H120277   2.909   1.217   7.008  0.4545 -1.6335  0.2725
 6785TIP3    H220278   2.822   1.123   7.089 -0.9233 -1.0374 -0.5044
 6786TIP3   OH220279   8.869   1.789   5.157  0.2232  0.0897 -0.1557
 6786TIP3    H120280   8.811   1.853   5.116 -0.4226 -1.0984 -1.1300
 6786TIP3    H220281   8.816   1.747   5.224  0.3285 -0.1537 -0.2238
 6787TIP3   OH220282   0.375   7.896   4.413  0.0128 -0.2293 -0.4085
 6787TIP3    H120283   0.430   7.839   4.359  0.5659 -1.7691  1.7200
 6787TIP3    H220284   0.286   7.881   4.380  0.4379 -0.4169 -1.5089
 6788TIP3   OH220285   0.868   2.762   5.729 -0.3029 -0.1650  0.0335
 6788TIP3    H120286   0.909   2.833   5.778 -1.5162 -0.4760  1.5309
 6788TIP3    H220287   0.855   2.798   5.641  1.8458  0.4086 -0.0710
 6789TIP3   OH220288   2.706   3.636   5.449  0.7181  0.2751 -0.5569
 6789TIP3    H120289   2.750   3.688   5.517 -1.5621 -0.5966  1.6342
 6789TIP3    H220290   2.662   3.702   5.395 -0.6152  0.7930  1.1000
 6790TIP3   OH220291   1.285   1.685   6.399  0.6028 -0.1846  0.0256
 6790TIP3    H120292   1.288   1.759   6.459  0.7663 -0.5713  0.4951
 6790TIP3    H220293   1.194   1.657   6.399  0.9782 -1.4754  1.6785
 6791TIP3   OH220294   2.869   2.277   5.565 -0.3521 -0.4006 -0.1184
 6791TIP3    H120295   2.802   2.209   5.574 -0.9381  0.1145 -0.5472
 6791TIP3    H220296   2.860   2.329   5.645 -0.3295 -0.4442 -0.0869
 6792TIP3   OH220297   0.309   1.254   5.382 -0.1794  0.0018 -0.5549
 6792TIP3    H120298   0.356   1.326   5.426 -1.3345  0.4131  0.0271
 6792TIP3    H220299   0.282   1.291   5.298 -1.9009  0.6974  0.2742
 6793TIP3   OH220300   3.268   0.974   2.137  0.2680  0.1441  0.5119
 6793TIP3    H120301   3.323   1.051   2.126  0.4901 -0.1050 -0.1054
 6793TIP3    H220302   3.181   1.002   2.108  0.1142  0.4601  1.2473
 6794TIP3   OH220303   4.179   6.654   0.219  0.1683  0.3561  0.6835
 6794TIP3    H120304   4.272   6.653   0.200  0.1609 -3.4132  0.4376
 6794TIP3    H220305   4.136   6.646   0.134 -0.3388  0.3601  0.9325
 6795TIP3   OH220306   1.515   1.945   4.543  0.2531 -0.2521 -0.4281
 6795TIP3    H120307   1.459   1.986   4.477  0.1259 -1.2965 -0.9839
 6795TIP3    H220308   1.590   1.912   4.493  0.9110  0.3338  0.1779
 6796TIP3   OH220309   5.361   1.787   5.053  0.1944 -0.3274  0.0542
 6796TIP3    H120310   5.401   1.843   5.120  1.1512 -0.0277 -0.7542
 6796TIP3    H220311   5.431   1.729   5.025  0.1807  0.4327 -1.6270
 6797TIP3   OH220312   2.513   1.124   3.050  0.1686  0.2002 -0.5623
 6797TIP3    H120313   2.516   1.040   3.004  1.2617  0.8880 -1.8050
 6797TIP3    H220314   2.424   1.156   3.037  0.3142  0.1395 -1.8161
 6798TIP3   OH220315   2.668   2.767   5.947 -0.7277  0.1245 -0.0194
 6798TIP3    H120316   2.731   2.763   6.019 -0.8216  1.1500  0.1143
 6798TIP3    H220317   2.718   2.804   5.874 -0.4364 -1.5484 -0.6906
 6799TIP3   OH220318   4.251   3.043   6.891 -0.0099 -0.0640 -0.2382
 6799TIP3    H120319   4.195   3.061   6.966 -0.7758  0.1415 -0.8471
 6799TIP3    H220320   4.323   2.990   6.926 -1.0649 -1.1057  0.3861
 6800TIP3   OH220321   3.140   1.313   5.717 -0.3429 -0.5062  0.4685
 6800TIP3    H120322   3.111   1.403   5.699 -1.3237 -1.1884 -1.4273
 6800TIP3    H220323   3.060   1.261   5.716  0.2997 -1.5251  0.9151
 6801TIP3   OH220324   3.701   3.057   5.153 -0.7666 -0.6245  0.4303
 6801TIP3    H120325   3.617   3.093   5.126 -0.4187 -0.7780 -0.9329
 6801TIP3    H220326   3.757   3.065   5.075  0.3343 -0.9536  1.1639
 6802TIP3   OH220327   5.172   1.716   6.040 -0.2700  0.2639 -0.0119
 6802TIP3    H120328   5.088   1.754   6.015 -0.6476 -0.4701  0.1216
 6802TIP3    H220329   5.230   1.791   6.049 -1.0993  0.8407  0.6392
 6803TIP3   OH220330   3.622   2.228   7.042 -0.3806  0.3241 -0.0799
 6803TIP3    H120331   3.674   2.148   7.032  0.8556  1.0840  0.1577
 6803TIP3    H220332   3.533   2.197   7.058 -0.0044 -1.0012 -0.4935
 6804TIP3   OH220333   4.276   1.632   4.040  0.3435 -0.4015  0.3271
 6804TIP3    H120334   4.342   1.681   4.090  0.1758 -0.1081  0.2640
 6804TIP3    H220335   4.327   1.573   3.984  0.6845  1.7389 -1.7176
 6805TIP3   OH220336   6.131   0.815   4.472  0.4903 -0.4920  0.4427
 6805TIP3    H120337   6.147   0.817   4.566  0.1485 -2.0002  0.5491
 6805TIP3    H220338   6.162   0.900   4.440  2.0747 -0.5856  1.6708
 6806TIP3   OH220339   3.652   0.626   5.343 -0.3148 -0.1232 -0.0057
 6806TIP3    H120340   3.714   0.697   5.326  0.4219 -0.9738 -0.9836
 6806TIP3    H220341   3.610   0.611   5.258 -0.9319 -0.4309  0.3500
 6807TIP3   OH220342   4.328   1.689   2.126 -0.4134 -0.8327 -0.4995
 6807TIP3    H120343   4.276   1.683   2.046 -0.0153 -1.1920 -0.7324
 6807TIP3    H220344   4.418   1.679   2.097 -0.2514 -0.7735 -0.0255
 6808TIP3   OH220345   3.524   3.689   5.725 -0.2966  0.2759  0.3629
 6808TIP3    H120346   3.572   3.756   5.772  0.8062 -1.1307  1.2986
 6808TIP3    H220347   3.592   3.638   5.680 -0.9104 -1.5088  1.4018
 6809TIP3   OH220348   0.876   2.470   5.390  0.2485 -0.0514  0.3398
 6809TIP3    H120349   0.868   2.448   5.297 -0.0157  1.7846 -0.0867
 6809TIP3    H220350   0.970   2.482   5.404  0.0552  2.4847 -0.3756
 6810TIP3   OH220351   2.779   2.448   5.379  0.5600 -0.1059 -0.5161
 6810TIP3    H120352   2.829   2.530   5.378  0.9788 -0.3168  1.3850
 6810TIP3    H220353   2.828   2.392   5.439 -0.4343 -1.3157 -0.8288
 6811TIP3   OH220354   8.703   3.239   3.368 -0.0216  0.2142 -0.1609
 6811TIP3    H120355   8.710   3.208   3.277  1.4668 -0.2748  0.1062
 6811TIP3    H220356   8.729   3.331   3.364  2.0957 -0.3538  0.0806
 6812TIP3   OH220357   5.756   1.329   4.608  0.4891  0.5083 -0.7763
 6812TIP3    H120358   5.689   1.289   4.663 -0.5608  2.6623 -0.4346
 6812TIP3    H220359   5.812   1.376   4.669  1.2432  0.2225 -1.2398
 6813TIP3   OH220360   0.951   0.392   3.728  0.1142 -0.2058  0.1466
 6813TIP3    H120361   1.028   0.336   3.744  0.6651 -0.0365 -1.7304
 6813TIP3    H220362   0.988   0.475   3.700 -0.7568 -0.3449 -1.4459
 6814TIP3   OH220363   3.073   3.248   6.420 -0.3881 -0.2541  0.6564
 6814TIP3    H120364   3.055   3.231   6.513 -1.4986  1.8975  0.8666
 6814TIP3    H220365   2.990   3.231   6.376 -0.4279  0.7273  0.3465
 6815TIP3   OH220366   0.435   0.971   6.544  0.3249  0.0691 -0.8200
 6815TIP3    H120367   0.347   0.936   6.561  0.0915  0.9629 -0.1615
 6815TIP3    H220368   0.442   1.047   6.601  1.1605  0.5906 -1.6002
 6816TIP3   OH220369   2.960   2.654   5.394  0.4484  0.1629  0.0479
 6816TIP3    H120370   2.887   2.712   5.368 -0.3131 -0.3851  0.9399
 6816TIP3    H220371   2.995   2.622   5.311 -0.6865 -0.0035 -0.3852
 6817TIP3   OH220372   4.737   2.294   4.280 -0.3229  0.4263  0.1306
 6817TIP3    H120373   4.760   2.377   4.322  1.2580 -0.5810  1.3138
 6817TIP3    H220374   4.732   2.315   4.187  0.7959  1.7155  0.3452
 6818TIP3   OH220375   2.372   3.157   5.964  0.2640  0.4115 -0.2245
 6818TIP3    H120376   2.457   3.115   5.957 -0.2748 -0.4670 -1.6337
 6818TIP3    H220377   2.378   3.235   5.909 -0.2247 -0.2914 -1.2806
 6819TIP3   OH220378   3.038   2.291   6.119  0.1985  0.0045  0.5921
 6819TIP3    H120379   3.129   2.263   6.105 -0.3555 -0.4870 -2.2602
 6819TIP3    H220380   3.044   2.386   6.133  1.2994 -0.2778  2.1652
 6820TIP3   OH220381   3.337   2.083   4.512  0.2414  0.0307 -0.3633
 6820TIP3    H120382   3.293   2.018   4.566  1.1406  0.0070  0.3535
 6820TIP3    H220383   3.340   2.161   4.567  1.3618 -0.0601 -0.2843
 6821TIP3   OH220384   5.810   2.687   5.907  0.0972 -0.9047  0.6341
 6821TIP3    H120385   5.846   2.663   5.822  2.1245  0.0485  1.1982
 6821TIP3    H220386   5.775   2.775   5.895 -0.7009 -1.2313  0.4946
 6822TIP3   OH220387   1.773   2.913   5.858 -0.5959 -0.1376  0.1029
 6822TIP3    H120388   1.682   2.896   5.835 -0.7263  0.3944  0.2137
 6822TIP3    H220389   1.782   2.881   5.947 -0.5303 -0.6836 -0.0982
 6823TIP3   OH220390   1.991   3.122   5.340  0.1304 -0.1165  0.4817
 6823TIP3    H120391   2.070   3.068   5.330  0.5396  0.5170  0.2896
 6823TIP3    H220392   2.023   3.212   5.346 -0.6137  0.2144 -0.3075
 6824TIP3   OH220393   3.543   1.861   4.471  0.2071 -0.0532 -0.1148
 6824TIP3    H120394   3.552   1.779   4.423 -0.6889  0.1584 -0.6544
 6824TIP3    H220395   3.609   1.856   4.540 -0.2012 -1.4591  0.1863
 6825TIP3   OH220396   3.525   2.735   2.856  0.1746 -0.0200  0.2364
 6825TIP3    H120397   3.616   2.705   2.861 -0.0160 -0.6029  0.2116
 6825TIP3    H220398   3.490   2.719   2.944  0.2180  0.6178  0.3787
 6826TIP3   OH220399   3.283   2.179   6.053 -0.0187 -0.5482 -0.6372
 6826TIP3    H120400   3.353   2.164   5.989  0.1118  0.3806 -0.7162
 6826TIP3    H220401   3.328   2.183   6.138 -0.0570 -0.6252 -0.6136
 6827TIP3   OH220402   3.601   2.961   5.856 -0.1718  0.0522 -0.3721
 6827TIP3    H120403   3.675   2.901   5.842 -0.8337 -0.5459 -1.3760
 6827TIP3    H220404   3.532   2.928   5.798 -0.6299  1.6485 -0.7468
 6828TIP3   OH220405   2.375   3.740   6.106 -0.0593  0.1373  0.5388
 6828TIP3    H120406   2.436   3.666   6.112 -0.3171 -0.4806 -3.4669
 6828TIP3    H220407   2.292   3.701   6.078 -0.8887  1.6493  0.8121
 6829TIP3   OH220408   0.071   2.210   4.191 -0.2525 -0.6733  0.2405
 6829TIP3    H120409   0.052   2.296   4.152 -0.3710 -0.3779  0.9529
 6829TIP3    H220410  -0.006   2.157   4.169  1.0126 -1.4508 -2.6279
 6830TIP3   OH220411   2.868   3.589   6.110 -0.4545  0.4483  0.6503
 6830TIP3    H120412   2.826   3.675   6.111 -0.2016  0.6036 -0.8414
 6830TIP3    H220413   2.795   3.527   6.107 -0.6089  0.6418  0.4440
 6831TIP3   OH220414   2.319   3.141   3.831 -0.8131  0.4635  0.2684
 6831TIP3    H120415   2.328   3.205   3.902  1.7579 -0.2229  0.6229
 6831TIP3    H220416   2.399   3.088   3.837 -1.5642 -0.9458 -1.8188
 6832TIP3   OH220417   4.374   2.407   3.163 -0.1822  0.1130  0.4373
 6832TIP3    H120418   4.420   2.490   3.175  0.8056 -0.3129 -0.2640
 6832TIP3    H220419   4.426   2.344   3.213  0.9947 -0.6862 -1.7094
 6833TIP3   OH220420   5.582   1.592   3.921 -0.1715 -0.1335  0.0288
 6833TIP3    H120421   5.624   1.581   3.835 -1.0063  1.8141 -0.6494
 6833TIP3    H220422   5.656   1.596   3.983  0.4605 -0.8996 -0.6592
 6834TIP3   OH220423   5.357   2.621   4.537 -0.2756 -0.6756  0.3229
 6834TIP3    H120424   5.420   2.603   4.607  0.5763 -1.3277 -0.6115
 6834TIP3    H220425   5.328   2.535   4.508  1.2573 -0.4989 -1.8291
 6835TIP3   OH220426   1.157   2.315   5.116  0.1312  0.2278  0.3143
 6835TIP3    H120427   1.164   2.269   5.032 -0.7838  0.6403  0.0038
 6835TIP3    H220428   1.245   2.350   5.132  0.4877 -0.4603 -0.1220
 6836TIP3   OH220429   4.205   0.236   5.285  0.0062  0.3188  0.1624
 6836TIP3    H120430   4.181   0.328   5.273 -0.7800  0.2592  1.2259
 6836TIP3    H220431   4.296   0.239   5.315 -0.2846  0.7904  1.0057
 6837TIP3   OH220432   3.004   1.569   6.736 -0.0184  0.1508  0.3903
 6837TIP3    H120433   3.078   1.566   6.797 -0.4116 -0.3263  0.8428
 6837TIP3    H220434   2.954   1.490   6.754 -0.0822 -0.0443 -0.6238
 6838TIP3   OH220435   2.588   1.501   3.374  0.7669  0.2090 -0.5544
 6838TIP3    H120436   2.529   1.480   3.446 -0.9285 -3.1318 -2.7923
 6838TIP3    H220437   2.675   1.479   3.407  0.1281 -0.2017  0.8827
 6839TIP3   OH220438   2.382   3.050   2.837  0.0034 -0.0564 -0.4217
 6839TIP3    H120439   2.304   3.013   2.795  0.0334  0.8872 -1.3152
 6839TIP3    H220440   2.351   3.130   2.878  0.9182  1.4434 -2.5692
 6840TIP3   OH220441   2.926   4.310   4.460 -0.6749 -1.0120  0.9358
 6840TIP3    H120442   2.946   4.233   4.406  0.0747 -1.2254  1.5005
 6840TIP3    H220443   3.002   4.367   4.448 -1.0074 -0.5794  0.9062
 6841TIP3   OH220444   4.486   2.601   7.115 -0.3305 -0.1743 -0.6596
 6841TIP3    H120445   4.574   2.603   7.152 -0.3671  1.3617 -0.6228
 6841TIP3    H220446   4.491   2.535   7.045  0.8025 -0.2122 -0.5563
 6842TIP3   OH220447   4.367   1.692   6.483  0.1409  0.4346 -0.3684
 6842TIP3    H120448   4.306   1.741   6.537  0.9666  2.0415 -0.8502
 6842TIP3    H220449   4.327   1.605   6.473 -0.9025  0.7124  1.2498
 6843TIP3   OH220450   1.447   3.067   4.499 -0.2308  0.0362  0.1152
 6843TIP3    H120451   1.419   3.158   4.512  1.7322  0.8202 -0.9257
 6843TIP3    H220452   1.367   3.016   4.507 -1.5098  1.9388 -0.2008
 6844TIP3   OH220453   1.106   3.192   5.972  0.8330 -0.2837  0.2814
 6844TIP3    H120454   1.060   3.227   6.048  0.8295 -1.2857  0.7379
 6844TIP3    H220455   1.055   3.116   5.945  0.6314  0.2747 -0.9440
 6845TIP3   OH220456   3.108   1.943   3.582  0.1184 -0.7676 -0.3995
 6845TIP3    H120457   3.138   1.859   3.616 -0.8143 -0.9334  0.0332
 6845TIP3    H220458   3.146   2.008   3.641  0.6136 -0.9062 -0.5706
 6846TIP3   OH220459   3.617   2.654   4.853  0.3488  0.2063 -0.0970
 6846TIP3    H120460   3.639   2.725   4.793  0.0158 -0.5782 -1.1524
 6846TIP3    H220461   3.664   2.579   4.820  1.5845  0.1656  1.6542
 6847TIP3   OH220462   3.438   2.054   6.779  0.1262  0.0970  0.2657
 6847TIP3    H120463   3.523   2.012   6.784  0.0540 -0.0382  0.3722
 6847TIP3    H220464   3.377   1.984   6.755  0.2549  0.4699 -1.2004
 6848TIP3   OH220465   3.909   2.212   6.753  0.0507  0.2696 -0.0366
 6848TIP3    H120466   3.934   2.299   6.786 -0.9947  0.7115 -0.3999
 6848TIP3    H220467   3.875   2.228   6.665  0.8286 -0.6440 -0.5109
 6849TIP3   OH220468   3.817   1.636   4.914  0.0074  0.0609  0.2015
 6849TIP3    H120469   3.763   1.606   4.987  1.0821 -0.9497  0.5968
 6849TIP3    H220470   3.834   1.558   4.862  1.2040  0.3253  0.1685
 6850TIP3   OH220471   1.471   7.351   5.996 -0.2869  0.4258  0.0345
 6850TIP3    H120472   1.453   7.288   5.926  0.9488  0.5555 -0.4144
 6850TIP3    H220473   1.565   7.367   5.990 -0.7316  3.0418 -0.4582
 6851TIP3   OH220474   3.977   1.645   6.949  0.4605  0.3989  0.4001
 6851TIP3    H120475   4.041   1.692   7.003 -0.4224 -0.5835  2.3869
 6851TIP3    H220476   3.892   1.669   6.985 -0.1818  0.0444 -0.8439
 6852TIP3   OH220477   4.462   1.805   4.623 -0.1335  0.2916 -0.2058
 6852TIP3    H120478   4.470   1.710   4.620  2.2796  0.4567  0.3445
 6852TIP3    H220479   4.542   1.837   4.581  0.7311  2.1066  2.7262
 6853TIP3   OH220480   3.281   1.996   5.053  0.2074  0.6875  0.3589
 6853TIP3    H120481   3.350   1.964   4.996 -0.9066 -1.1095 -0.0331
 6853TIP3    H220482   3.208   1.935   5.040 -0.6687  1.2189  2.4385
 6854TIP3   OH220483   2.988   2.279   6.829 -0.3158  0.1415 -0.9296
 6854TIP3    H120484   2.917   2.218   6.809 -0.2056 -1.1801  2.3788
 6854TIP3    H220485   3.067   2.230   6.809 -0.2436 -0.5464  0.9730
 6855TIP3   OH220486   2.067   0.625   3.913  0.2318 -0.0016 -0.6889
 6855TIP3    H120487   2.021   0.545   3.937  1.1820 -0.3217  0.1262
 6855TIP3    H220488   2.076   0.673   3.995 -0.2474  0.8955 -1.1580
 6856TIP3   OH220489   4.636   2.962   4.291  0.6104 -0.4793  0.5466
 6856TIP3    H120490   4.639   3.057   4.296  0.5815 -0.4391 -0.2540
 6856TIP3    H220491   4.715   2.937   4.244 -1.2369 -0.6050 -2.5964
 6857TIP3   OH220492   3.299   1.176   5.518 -0.1544 -0.2648 -0.2586
 6857TIP3    H120493   3.227   1.229   5.553  0.3827  0.7030 -0.5920
 6857TIP3    H220494   3.378   1.224   5.544  0.3397 -0.9886 -0.4354
 6858TIP3   OH220495   1.314   0.526   5.073 -0.0086  0.0623  0.0305
 6858TIP3    H120496   1.299   0.440   5.033  0.4733  0.3355 -0.7594
 6858TIP3    H220497   1.254   0.585   5.027  0.1861  0.2833  0.0575
 6859TIP3   OH220498   6.713   7.186   0.173  0.4425 -0.2305 -0.6014
 6859TIP3    H120499   6.692   7.242   0.248  0.3355  0.3696 -1.0692
 6859TIP3    H220500   6.776   7.123   0.207 -0.1937 -0.4460  0.1804
 6860TIP3   OH220501   3.545   1.910   5.189 -0.4308 -0.6094  0.7831
 6860TIP3    H120502   3.607   1.974   5.221  1.1495 -2.2186  1.0244
 6860TIP3    H220503   3.564   1.904   5.095 -0.6793 -0.6163  0.7335
 6861TIP3   OH220504   8.266   8.170   5.354 -0.6925  0.3999 -0.1784
 6861TIP3    H120505   8.353   8.209   5.341 -0.0406 -0.9103  0.1055
 6861TIP3    H220506   8.285   8.084   5.393 -2.1312  0.1912  0.0633
 6862TIP3   OH220507   1.497   0.301   3.734 -0.1718  0.0854 -0.0822
 6862TIP3    H120508   1.521   0.391   3.758 -0.3169 -0.0908  0.7624
 6862TIP3    H220509   1.419   0.311   3.679 -0.4706  0.4660  0.3976
 6863TIP3   OH220510   5.912   0.943   6.116  0.4500  0.6076 -0.2166
 6863TIP3    H120511   5.843   1.004   6.143  0.4663  0.0924  0.9872
 6863TIP3    H220512   5.877   0.904   6.036 -1.4556 -0.9193  1.2947
 6864TIP3   OH220513   0.621   7.430   4.799 -0.1124 -0.4259 -0.0823
 6864TIP3    H120514   0.693   7.488   4.776 -0.2383 -0.3333 -0.2510
 6864TIP3    H220515   0.544   7.487   4.802  0.3468  0.0982  3.4531
 6865TIP3   OH220516   3.837   2.997   4.499 -0.1417  0.3720 -0.8265
 6865TIP3    H120517   3.911   3.003   4.439 -0.6950 -1.1658 -1.6750
 6865TIP3    H220518   3.860   2.927   4.560 -0.2794  0.8600 -0.2065
 6866TIP3   OH220519   2.451   2.557   6.807  0.6435  0.1486 -0.2002
 6866TIP3    H120520   2.396   2.596   6.739  1.2207 -0.0221 -0.7787
 6866TIP3    H220521   2.481   2.474   6.769 -1.9067 -1.6951  1.6600
 6867TIP3   OH220522   0.592   2.890   4.747  0.3992  0.7100 -0.0364
 6867TIP3    H120523   0.538   2.911   4.671  3.7256  0.5008 -2.5711
 6867TIP3    H220524   0.631   2.973   4.773  0.8885  0.4306  0.1409
 6868TIP3   OH220525   4.082   2.538   6.392 -0.6814 -0.4019 -0.2515
 6868TIP3    H120526   4.080   2.622   6.347  1.8870 -1.0692 -1.6974
 6868TIP3    H220527   4.047   2.476   6.328  0.5783 -0.9467 -0.4242
 6869TIP3   OH220528   0.685   1.858   5.006 -0.1577 -0.4139 -0.7027
 6869TIP3    H120529   0.659   1.803   5.080  0.8885  0.5779  0.4428
 6869TIP3    H220530   0.607   1.863   4.951 -0.8361 -1.4887  0.1369
 6870TIP3   OH220531   3.938   3.024   6.514 -0.1077  0.0943 -0.1652
 6870TIP3    H120532   3.859   3.070   6.485  0.8516  1.8607 -0.0514
 6870TIP3    H220533   3.906   2.957   6.574 -1.5638  0.4764 -0.4954
 6871TIP3   OH220534   1.842   1.536   4.490  0.2396 -0.0773 -0.1723
 6871TIP3    H120535   1.919   1.482   4.474  0.2560 -0.6385  1.6469
 6871TIP3    H220536   1.782   1.479   4.539  0.9697  2.0069  3.3189
 6872TIP3   OH220537   8.131   7.053   0.965 -0.1020  0.4170 -0.5459
 6872TIP3    H120538   8.181   7.027   0.887  0.4385 -1.9385  0.5394
 6872TIP3    H220539   8.192   7.106   1.016 -0.2432  1.4178 -1.3952
 6873TIP3   OH220540   1.985   8.167   5.938 -0.1724 -0.1526  0.7147
 6873TIP3    H120541   1.943   8.081   5.945 -0.9232  0.1587  0.1041
 6873TIP3    H220542   1.992   8.182   5.844 -1.1722  1.0056  0.8201
 6874TIP3   OH220543   3.842   1.169   4.351  0.2192 -0.1823  0.2113
 6874TIP3    H120544   3.770   1.231   4.341  1.1931  0.7177 -1.5322
 6874TIP3    H220545   3.801   1.089   4.384 -1.4083  0.6289  0.1967
 6875TIP3   OH220546   7.192   3.360   0.625 -0.1537  0.3444  0.1923
 6875TIP3    H120547   7.258   3.422   0.656  0.2414  0.8298 -1.5737
 6875TIP3    H220548   7.231   3.274   0.640  2.6768  0.6508 -4.4940
 6876TIP3   OH220549   5.281   0.690   5.218  0.0093  0.1625 -0.6232
 6876TIP3    H120550   5.302   0.781   5.241  0.0209 -0.2405  1.0194
 6876TIP3    H220551   5.316   0.638   5.291 -0.8064 -1.0820 -1.1015
 6877TIP3   OH220552   3.759   0.202   3.743  0.1324  0.1087 -0.3335
 6877TIP3    H120553   3.815   0.181   3.818  0.0042  0.5154 -0.1257
 6877TIP3    H220554   3.681   0.241   3.780 -1.0332 -1.9574 -0.5143
 6878TIP3   OH220555   1.385   0.742   6.784  0.0350  0.0120  0.1109
 6878TIP3    H120556   1.476   0.727   6.811  0.5744  1.4483 -0.8790
 6878TIP3    H220557   1.369   0.834   6.803 -1.6746 -0.5620  1.5645
 6879TIP3   OH220558   3.103   1.848   6.560  0.2388 -0.2000  0.2262
 6879TIP3    H120559   3.034   1.912   6.578 -0.5146 -1.3281  1.4584
 6879TIP3    H220560   3.080   1.811   6.475 -1.3114 -1.3771  1.1417
 6880TIP3   OH220561   7.498   0.197   1.176  0.1951 -0.0273  0.1328
 6880TIP3    H120562   7.508   0.244   1.259  0.5225 -1.8531  1.1344
 6880TIP3    H220563   7.405   0.205   1.155 -0.0358 -0.1986  1.0606
 6881TIP3   OH220564   4.083   2.826   5.139 -0.1500 -0.4306  0.3440
 6881TIP3    H120565   4.107   2.793   5.052 -2.0317  1.3692 -0.9242
 6881TIP3    H220566   4.044   2.750   5.183  0.4158 -1.2505 -0.5309
 6882TIP3   OH220567   1.562   2.535   4.948 -0.0125 -0.3582 -0.1678
 6882TIP3    H120568   1.546   2.564   5.038 -1.2592  0.1440 -0.5352
 6882TIP3    H220569   1.657   2.527   4.941  0.0853 -0.4121  1.1997
 6883TIP3   OH220570   5.628   2.554   4.362  0.5205 -0.3971 -0.0250
 6883TIP3    H120571   5.671   2.470   4.376 -2.4868 -2.0594 -0.3616
 6883TIP3    H220572   5.584   2.574   4.445 -1.8063 -1.0134 -1.0704
 6884TIP3   OH220573   3.596   2.172   5.351 -0.2794 -0.2470  0.3998
 6884TIP3    H120574   3.623   2.211   5.434 -0.6620 -0.8061  0.7931
 6884TIP3    H220575   3.505   2.145   5.366 -0.1167 -1.0083  0.0404
 6885TIP3   OH220576   1.811   3.294   5.706 -0.3834 -0.3215  0.0984
 6885TIP3    H120577   1.773   3.213   5.672 -1.6547  0.0614  0.5840
 6885TIP3    H220578   1.900   3.270   5.731 -0.4369 -1.3325 -0.6536
 6886TIP3   OH220579   2.264   1.234   5.467 -0.1404  0.0227  0.1876
 6886TIP3    H120580   2.304   1.298   5.526 -1.0417  0.4365  0.3587
 6886TIP3    H220581   2.214   1.287   5.405  0.1166 -0.4541 -0.4326
 6887TIP3   OH220582   6.908   5.105   1.368  0.8824 -0.2465  0.4484
 6887TIP3    H120583   6.840   5.042   1.392  0.3005  0.1171 -0.2470
 6887TIP3    H220584   6.881   5.139   1.283  0.1961  2.3251  1.6484
 6888TIP3   OH220585   3.811   2.613   5.172  0.8058  0.1411 -0.0857
 6888TIP3    H120586   3.766   2.696   5.156  1.6130  0.2827 -1.7625
 6888TIP3    H220587   3.753   2.565   5.231  0.1111  1.7080  0.5348
 6889TIP3   OH220588   1.594   7.741   5.349 -0.3253 -0.0135  0.1208
 6889TIP3    H120589   1.636   7.821   5.379 -1.2632 -0.1004  1.7783
 6889TIP3    H220590   1.525   7.770   5.290 -1.1063  0.4831  1.2411
 6890TIP3   OH220591   0.597   3.089   5.426 -0.4493  0.0821 -0.0960
 6890TIP3    H120592   0.604   3.170   5.478  1.1962  0.6557 -1.1532
 6890TIP3    H220593   0.575   3.120   5.338  2.0966 -0.4407 -0.9526
 6891TIP3   OH220594   6.686   8.163   0.076  0.0609  0.5952 -0.0013
 6891TIP3    H120595   6.708   8.154  -0.016  2.5659 -0.4792  0.6408
 6891TIP3    H220596   6.705   8.255   0.096  1.1077  0.4221 -0.1792
 6892TIP3   OH220597   0.784   3.312   2.493  0.4110  0.0300 -0.0095
 6892TIP3    H120598   0.866   3.271   2.466  0.1155 -0.1770 -0.6073
 6892TIP3    H220599   0.755   3.261   2.569 -0.0478 -1.0007 -0.8584
 6893TIP3   OH220600   5.510   1.480   6.226  0.0948 -0.5959  0.0383
 6893TIP3    H120601   5.526   1.440   6.312  0.1503  1.3118  0.9627
 6893TIP3    H220602   5.563   1.560   6.228 -0.4344 -0.2023 -1.5265
 6894TIP3   OH220603   3.092   3.188   3.396 -0.2450  0.2079 -0.0506
 6894TIP3    H120604   3.109   3.276   3.364 -0.9797  0.4636  0.2423
 6894TIP3    H220605   3.138   3.184   3.480 -0.1898  0.3094 -0.0765
 6895TIP3   OH220606   0.663   1.993   5.810 -0.2044  0.3116 -0.2200
 6895TIP3    H120607   0.707   2.031   5.886 -0.5547 -1.4140  0.8759
 6895TIP3    H220608   0.623   2.067   5.765  2.7850  1.7783 -0.5837
 6896TIP3   OH220609   3.047   3.651   6.306 -0.0142 -0.1864  0.3227
 6896TIP3    H120610   2.984   3.622   6.240  1.6272  0.4120 -1.5734
 6896TIP3    H220611   3.006   3.728   6.346 -1.2720 -0.8859  0.4011
 6897TIP3   OH220612   1.475   2.173   5.233  0.1923 -0.6314  0.3448
 6897TIP3    H120613   1.439   2.084   5.241 -1.3803 -0.3395 -2.9974
 6897TIP3    H220614   1.430   2.211   5.158  2.3744  2.2874  0.4369
 6898TIP3   OH220615   2.434   2.786   4.192  0.2787  0.1878  0.4253
 6898TIP3    H120616   2.382   2.829   4.260 -1.8407 -1.5619 -0.0222
 6898TIP3    H220617   2.487   2.722   4.239 -1.3188 -1.1473  0.4584
 6899TIP3   OH220618   2.876   2.188   5.916  0.1123 -0.2522 -0.9267
 6899TIP3    H120619   2.871   2.152   6.004 -0.0568  0.0197 -0.8251
 6899TIP3    H220620   2.857   2.281   5.927 -0.4364 -0.3200 -1.3227
 6900TIP3   OH220621   4.990   2.102   4.109 -0.6140 -0.3632  0.0028
 6900TIP3    H120622   5.066   2.045   4.098 -0.9602 -0.7442 -0.4745
 6900TIP3    H220623   4.995   2.162   4.035 -0.6175 -0.2031  0.1325
 6901TIP3   OH220624   3.115   2.559   5.192 -0.3177 -0.6123 -0.0993
 6901TIP3    H120625   3.152   2.626   5.135 -0.2799 -1.8970 -1.6171
 6901TIP3    H220626   3.191   2.511   5.225 -0.3555 -0.0376  0.8413
 6902TIP3   OH220627   3.750   3.434   3.874 -0.4423 -0.1060 -0.1408
 6902TIP3    H120628   3.689   3.361   3.866 -0.3253 -0.0929 -1.3629
 6902TIP3    H220629   3.806   3.412   3.948 -0.3282 -1.3205 -0.5696
 6903TIP3   OH220630   3.854   2.145   6.143 -0.2171  0.3296  0.4878
 6903TIP3    H120631   3.835   2.063   6.189  0.8249  0.0897  0.5147
 6903TIP3    H220632   3.842   2.123   6.050  0.0900  0.1245  0.4919
 6904TIP3   OH220633   3.301   1.342   6.599  0.2304  0.2455  0.3113
 6904TIP3    H120634   3.396   1.355   6.594  0.3987 -0.9727  0.2567
 6904TIP3    H220635   3.290   1.265   6.655 -0.6769 -0.2119 -0.4736
 6905TIP3   OH220636   5.563   2.669   4.104  0.1443 -0.5529 -0.1937
 6905TIP3    H120637   5.626   2.705   4.041 -0.6055 -0.2072 -0.7476
 6905TIP3    H220638   5.618   2.635   4.176  0.9334  0.3031 -0.3798
 6906TIP3   OH220639   3.345   1.233   3.781  0.0487  0.4156  0.3821
 6906TIP3    H120640   3.381   1.144   3.779 -0.6358  0.1512 -0.9744
 6906TIP3    H220641   3.250   1.221   3.781 -0.0774  1.1403 -1.6204
 6907TIP3   OH220642   4.832   2.486   6.291 -0.3576 -0.2934 -0.3983
 6907TIP3    H120643   4.866   2.468   6.204  0.9999  0.8724 -0.1352
 6907TIP3    H220644   4.880   2.564   6.320 -1.2153 -0.3078  1.1459
 6908TIP3   OH220645   1.319   8.147   5.100  0.9649 -0.2918  0.2105
 6908TIP3    H120646   1.325   8.159   5.006 -0.5495  1.7541  0.3258
 6908TIP3    H220647   1.232   8.109   5.114 -0.2264  2.5516  0.9759
 6909TIP3   OH220648   1.361   2.776   4.175 -0.5256  0.3473  0.6262
 6909TIP3    H120649   1.449   2.812   4.186 -0.7278  1.4232 -1.2305
 6909TIP3    H220650   1.375   2.682   4.166  0.2735  0.3083  2.0547
 6910TIP3   OH220651   1.398   1.994   3.140 -0.2152 -0.6197  0.0620
 6910TIP3    H120652   1.362   2.080   3.161 -0.0380 -0.6047  0.3073
 6910TIP3    H220653   1.325   1.934   3.157 -0.3673 -0.5085 -0.2003
 6911TIP3   OH220654   2.628   3.402   3.898 -0.3179  0.2034 -0.5174
 6911TIP3    H120655   2.655   3.395   3.806  1.0191  0.2772 -0.1398
 6911TIP3    H220656   2.677   3.333   3.943  0.1139  1.0954  0.3856
 6912TIP3   OH220657   4.839   0.503   5.367 -0.0842 -0.3821  0.0931
 6912TIP3    H120658   4.816   0.456   5.287  0.5061 -2.1939  0.9636
 6912TIP3    H220659   4.935   0.498   5.371 -0.0223  0.7708  0.2833
 6913TIP3   OH220660   2.395   0.651   4.069  0.1573 -0.0248  0.3114
 6913TIP3    H120661   2.458   0.671   4.139  0.1014 -0.0651  0.3738
 6913TIP3    H220662   2.312   0.688   4.100  0.6865  2.3116 -0.9262
 6914TIP3   OH220663   1.391   2.163   5.662 -0.5553 -0.3863  0.0653
 6914TIP3    H120664   1.345   2.095   5.711 -0.5018  0.5095  1.3933
 6914TIP3    H220665   1.355   2.246   5.696  1.0998  0.2931  0.2301
 6915TIP3   OH220666   1.212   2.798   6.919 -0.1727 -0.3228 -0.5509
 6915TIP3    H120667   1.276   2.815   6.850 -0.6370 -0.1656 -0.9515
 6915TIP3    H220668   1.249   2.838   6.997  1.1973 -2.0445 -0.2907
 6916TIP3   OH220669   1.852   3.754   5.362  0.1611  0.1052  0.3337
 6916TIP3    H120670   1.928   3.697   5.368 -0.1905 -0.3810  0.1731
 6916TIP3    H220671   1.813   3.752   5.449 -0.9055 -1.3680 -0.1601
 6917TIP3   OH220672   4.043   1.736   5.440  0.5657 -0.2452 -0.1569
 6917TIP3    H120673   3.955   1.733   5.402  0.4702  0.0634  0.0333
 6917TIP3    H220674   4.100   1.763   5.369 -0.0433  3.3253  0.6471
 6918TIP3   OH220675   2.916   3.103   2.031 -0.5228  0.2477 -0.3538
 6918TIP3    H120676   2.989   3.115   1.971 -0.3880  0.8275 -0.0754
 6918TIP3    H220677   2.885   3.014   2.014  1.1913 -0.5500  0.5459
 6919TIP3   OH220678   2.588   2.894   6.631 -0.1017 -0.1337 -0.3322
 6919TIP3    H120679   2.500   2.932   6.633 -0.6678 -1.4172 -0.0639
 6919TIP3    H220680   2.634   2.934   6.705 -0.6035  0.2273 -0.2191
 6920TIP3   OH220681   5.742   0.568   3.785  0.0519 -0.3188 -0.5085
 6920TIP3    H120682   5.750   0.541   3.694  0.1621 -0.2783 -0.5109
 6920TIP3    H220683   5.768   0.661   3.786 -2.0306  0.2809 -0.7888
 6921TIP3   OH220684   4.535   4.409   6.016 -0.3533  0.0478 -0.3549
 6921TIP3    H120685   4.536   4.451   6.102 -0.9451 -1.1103  0.2330
 6921TIP3    H220686   4.495   4.475   5.959  1.9798  1.6455 -0.2105
 6922TIP3   OH220687   2.476   1.198   5.126  0.0386 -0.3829  0.3690
 6922TIP3    H120688   2.485   1.170   5.217  0.4781  1.6617  0.9817
 6922TIP3    H220689   2.493   1.292   5.128 -1.8294  0.0217 -1.5510
 6923TIP3   OH220690   1.089   3.310   5.510 -0.3519  0.4745 -0.0127
 6923TIP3    H120691   1.119   3.236   5.458  0.0410 -0.9963  2.2266
 6923TIP3    H220692   1.167   3.342   5.554 -0.9358  0.7063  0.8713
 6924TIP3   OH220693   2.043   0.778   2.582 -0.7668  0.2653  0.0488
 6924TIP3    H120694   1.999   0.796   2.665 -0.3196  0.5600  0.2278
 6924TIP3    H220695   2.135   0.765   2.606 -0.5729  0.7015 -0.4435
 6925TIP3   OH220696   8.612   1.957   6.144 -0.5314 -0.2709  0.0587
 6925TIP3    H120697   8.581   1.951   6.054 -2.4789  0.4743  0.6455
 6925TIP3    H220698   8.537   1.992   6.193 -0.0738 -2.2192  2.2666
 6926TIP3   OH220699   1.922   2.010   3.958  0.1976  0.0912 -0.3537
 6926TIP3    H120700   1.979   2.021   3.881 -1.0832 -1.0014 -1.4777
 6926TIP3    H220701   1.923   1.916   3.975 -2.5628 -0.1524 -1.3932
 6927TIP3   OH220702   0.160   2.043   5.906  0.5043 -0.3245 -0.2450
 6927TIP3    H120703   0.083   2.099   5.908 -0.3202 -1.4539  2.5576
 6927TIP3    H220704   0.208   2.067   5.986 -1.7001 -5.9852  3.0080
 6928TIP3   OH220705   0.395   7.586   5.097 -0.0168  0.2845  0.0735
 6928TIP3    H120706   0.419   7.567   5.006  1.2544 -1.3267  0.7274
 6928TIP3    H220707   0.474   7.624   5.135  0.0535 -0.7561  0.9885
 6929TIP3   OH220708   3.574   2.189   4.859  0.0335 -0.6617  0.2534
 6929TIP3    H120709   3.608   2.213   4.945 -1.4627 -0.1787  0.7274
 6929TIP3    H220710   3.523   2.109   4.875 -1.0976  0.0079  0.0038
 6930TIP3   OH220711   1.082   1.991   7.035  0.3135  0.0499  0.2178
 6930TIP3    H120712   1.082   1.937   6.956  3.1968 -0.9235  0.8070
 6930TIP3    H220713   1.031   2.068   7.012 -1.3774 -1.5660 -1.6144
 6931TIP3   OH220714   7.838   6.331   0.235 -0.1433 -0.3379  0.2512
 6931TIP3    H120715   7.756   6.373   0.210 -0.6796 -1.5147 -0.0158
 6931TIP3    H220716   7.880   6.309   0.151 -0.4310 -1.3862  0.3683
 6932TIP3   OH220717   3.646   2.120   3.234 -0.0968  0.2518  0.0046
 6932TIP3    H120718   3.566   2.134   3.183 -0.2200  0.4585  0.2523
 6932TIP3    H220719   3.703   2.068   3.177 -0.3601  0.2107 -0.2187
 6933TIP3   OH220720   4.053   2.044   6.588 -0.5121  0.1384 -0.3411
 6933TIP3    H120721   4.077   2.096   6.511 -0.1267 -0.7069 -0.7956
 6933TIP3    H220722   4.025   2.109   6.653 -2.0540  0.7810 -1.6156
 6934TIP3   OH220723   1.843   7.842   4.095 -0.1624  0.2278 -0.1762
 6934TIP3    H120724   1.750   7.863   4.094 -0.5708 -1.4123  0.8811
 6934TIP3    H220725   1.859   7.800   4.010 -0.2249  1.1193 -0.6337
 6935TIP3   OH220726   0.983   2.042   5.758 -0.3758  0.2197  0.0601
 6935TIP3    H120727   0.944   2.110   5.813  2.4738  1.5892  0.4844
 6935TIP3    H220728   0.999   2.085   5.674 -1.2004 -0.7935 -0.6412
 6936TIP3   OH220729   6.364   3.033   4.928  0.5783  0.7569  0.2722
 6936TIP3    H120730   6.451   3.059   4.956  1.0346 -1.2514  0.7832
 6936TIP3    H220731   6.378   2.963   4.866 -0.6633  0.7131  0.0251
 6937TIP3   OH220732   3.814   1.130   5.764 -0.2233 -0.2886 -0.0525
 6937TIP3    H120733   3.836   1.037   5.769 -0.5395 -0.2786  1.5590
 6937TIP3    H220734   3.722   1.131   5.739 -0.8212 -0.4428  2.1095
 6938TIP3   OH220735   1.638   1.639   3.660  0.3398  0.2446  0.2727
 6938TIP3    H120736   1.654   1.718   3.711 -0.8273 -0.1129  1.2149
 6938TIP3    H220737   1.578   1.588   3.714  0.4964 -0.9441 -0.6682
 6939TIP3   OH220738   7.513   3.132   0.510  0.3299 -0.9092 -0.6157
 6939TIP3    H120739   7.439   3.135   0.570  0.4474 -0.7696 -0.4752
 6939TIP3    H220740   7.584   3.094   0.562  0.2513 -1.3884 -0.8621
 6940TIP3   OH220741   4.929   3.888   6.981 -0.3525  0.1242 -0.2770
 6940TIP3    H120742   4.851   3.938   7.003 -0.3747 -0.1790  0.3271
 6940TIP3    H220743   4.915   3.862   6.890  0.0523  1.9376 -0.8845
 6941TIP3   OH220744   4.169   2.045   4.500 -0.2042  0.0940 -0.0366
 6941TIP3    H120745   4.184   1.950   4.498 -2.3536 -0.2618 -0.4327
 6941TIP3    H220746   4.219   2.078   4.425  0.4209 -0.7479  0.0010
 6942TIP3   OH220747   2.930   3.329   7.027 -0.1388  0.1891 -0.4704
 6942TIP3    H120748   2.955   3.374   7.108 -2.7067 -0.9676  1.0235
 6942TIP3    H220749   3.000   3.266   7.012  0.8672  1.1091  0.2734
 6943TIP3   OH220750   5.514   7.097   0.562 -0.5872 -0.2841  0.2587
 6943TIP3    H120751   5.554   7.175   0.524 -2.0946  1.3448  1.8737
 6943TIP3    H220752   5.532   7.105   0.656 -2.4763 -0.8238  0.6855
 6944TIP3   OH220753   0.700   4.121   4.690 -0.3727  0.1420 -0.4750
 6944TIP3    H120754   0.743   4.206   4.686 -0.8297  0.4691  1.2945
 6944TIP3    H220755   0.607   4.140   4.677 -0.7090  0.1479  1.7851
 6945TIP3   OH220756   2.530   3.405   5.976 -0.2930  0.3640 -0.3311
 6945TIP3    H120757   2.591   3.348   6.022  0.8947  1.4820 -0.4910
 6945TIP3    H220758   2.585   3.463   5.924 -1.4806  1.4535 -0.4083
 6946TIP3   OH220759   2.910   1.719   4.837  0.2597  0.4064  0.3294
 6946TIP3    H120760   2.830   1.714   4.889  1.3634 -0.9143  1.9347
 6946TIP3    H220761   2.880   1.714   4.746 -1.3357 -2.0528  0.9604
 6947TIP3   OH220762   4.130   2.720   4.896 -0.0351 -0.4994  0.0467
 6947TIP3    H120763   4.162   2.762   4.817  1.1875 -2.4508 -0.5243
 6947TIP3    H220764   4.205   2.671   4.930 -1.2200 -1.6486  1.0731
 6948TIP3   OH220765   1.743   1.528   6.377  0.1849  0.3936  0.4199
 6948TIP3    H120766   1.650   1.514   6.361  0.3142  1.1575 -1.1311
 6948TIP3    H220767   1.753   1.624   6.380  0.7953  0.3088  1.3579
 6949TIP3   OH220768   5.212   2.670   3.475  0.4059  0.2691 -0.2253
 6949TIP3    H120769   5.253   2.629   3.399  1.8471 -1.0119  1.2260
 6949TIP3    H220770   5.284   2.712   3.523 -0.3831  0.4814  0.8057
 6950TIP3   OH220771   3.527   1.581   4.292  0.2413 -0.5322 -0.0243
 6950TIP3    H120772   3.619   1.598   4.276  0.3717 -0.6728  0.5638
 6950TIP3    H220773   3.507   1.505   4.237 -0.1749  1.0635 -2.1189
 6951TIP3   OH220774   4.956   1.351   4.854  0.1487  0.4889  0.0873
 6951TIP3    H120775   5.046   1.359   4.885 -0.4422  2.2324  1.4679
 6951TIP3    H220776   4.912   1.428   4.889 -1.7240  0.0082 -1.1398
 6952TIP3   OH220777   5.188   2.908   5.481  0.2196 -0.2759 -0.5262
 6952TIP3    H120778   5.213   2.817   5.497  1.4604 -0.0127 -0.8829
 6952TIP3    H220779   5.135   2.905   5.401 -0.2306 -0.7526 -0.2093
 6953TIP3   OH220780   3.477   0.620   3.526  0.2875  0.1530  0.3272
 6953TIP3    H120781   3.449   0.576   3.446 -0.4954  0.0421  0.6542
 6953TIP3    H220782   3.407   0.601   3.589  1.0442 -0.0287  1.1293
 6954TIP3   OH220783   3.611   2.368   5.977  0.1390 -0.4373  0.2464
 6954TIP3    H120784   3.588   2.284   5.937 -3.4042  0.7722 -0.4236
 6954TIP3    H220785   3.580   2.361   6.067  1.4698 -0.4635  0.7163
 6955TIP3   OH220786   1.470   1.555   5.479  0.1612  0.6935 -0.2379
 6955TIP3    H120787   1.562   1.530   5.482 -0.0585 -0.0848  0.2359
 6955TIP3    H220788   1.429   1.502   5.547 -0.8861 -0.0297 -1.4068
 6956TIP3   OH220789   3.692   1.964   6.743 -0.6899 -0.5765 -0.1432
 6956TIP3    H120790   3.736   1.931   6.665 -2.5877 -2.8252 -0.3253
 6956TIP3    H220791   3.760   2.009   6.792  1.1546 -1.5111 -1.7721
 6957TIP3   OH220792   2.769   1.683   6.150 -0.3745 -0.4066  0.4453
 6957TIP3    H120793   2.839   1.710   6.091  0.2279  0.0183  1.3469
 6957TIP3    H220794   2.793   1.593   6.174 -0.1890 -0.3010  0.6639
 6958TIP3   OH220795   5.162   0.352   4.982 -0.3605  0.1372  0.3424
 6958TIP3    H120796   5.173   0.257   4.974  2.8064  0.3944  1.0905
 6958TIP3    H220797   5.151   0.382   4.891 -0.7879 -0.8698  0.0510
 6959TIP3   OH220798   3.243   1.785   3.266 -0.4263 -0.7191 -0.1073
 6959TIP3    H120799   3.318   1.725   3.271 -0.7011 -1.1290 -0.7974
 6959TIP3    H220800   3.276   1.868   3.300  0.5944 -0.6633 -1.2258
 6960TIP3   OH220801   3.350   4.070   3.887 -0.0482  0.2211  0.4377
 6960TIP3    H120802   3.282   4.023   3.838  0.2360  0.5423 -0.2635
 6960TIP3    H220803   3.428   4.063   3.833  0.0581  1.2927  0.4487
 6961TIP3   OH220804   5.181   3.322   6.408 -0.3713  0.6376 -0.2548
 6961TIP3    H120805   5.269   3.360   6.401  0.4247 -1.2351 -0.7385
 6961TIP3    H220806   5.159   3.298   6.318 -0.7920 -0.1820  0.0632
 6962TIP3   OH220807   2.172   1.188   6.422  0.9477 -1.0229 -0.5062
 6962TIP3    H120808   2.090   1.168   6.466 -0.2309 -1.3153 -2.7464
 6962TIP3    H220809   2.239   1.145   6.475 -0.4303 -1.5888  0.8113
 6963TIP3   OH220810   2.651   2.505   4.997  0.0645  0.4636  0.0385
 6963TIP3    H120811   2.581   2.462   4.947 -0.3218 -0.8666  1.6549
 6963TIP3    H220812   2.708   2.433   5.024  0.1201  1.1258  1.7205
 6964TIP3   OH220813   2.212   8.366   5.727 -0.0820  0.7005  0.7550
 6964TIP3    H120814   2.146   8.314   5.681 -0.1271  0.9289  0.5599
 6964TIP3    H220815   2.163   8.407   5.799 -0.4341  1.8823 -0.1443
 6965TIP3   OH220816   2.923   1.129   5.608  0.1176  0.8456  0.0010
 6965TIP3    H120817   2.961   1.050   5.569 -0.2253  0.1753  1.0007
 6965TIP3    H220818   2.833   1.131   5.576  0.3144  1.1639 -0.5212
 6966TIP3   OH220819   1.340   1.224   5.921 -0.1276 -0.7019 -0.0399
 6966TIP3    H120820   1.393   1.146   5.938 -0.7271 -1.6213 -2.1681
 6966TIP3    H220821   1.275   1.195   5.857 -0.9417  1.3189 -0.1687
 6967TIP3   OH220822   5.489   1.553   4.413  0.4764 -0.1745 -0.0409
 6967TIP3    H120823   5.552   1.545   4.486 -0.8131  1.0063  1.2348
 6967TIP3    H220824   5.446   1.467   4.410 -1.3995  0.5999  2.4587
 6968TIP3   OH220825   3.061   1.758   4.346  0.1032 -0.4188 -0.3223
 6968TIP3    H120826   3.142   1.755   4.295 -0.6166 -0.0234 -1.5015
 6968TIP3    H220827   2.995   1.718   4.288 -1.0581  1.4713 -0.3470
 6969TIP3   OH220828   3.061   1.959   4.524 -0.4054  0.4876  0.3568
 6969TIP3    H120829   3.048   1.883   4.467  0.0137  0.3102  0.4942
 6969TIP3    H220830   3.052   2.035   4.467 -2.2619  0.3851  0.4828
 6970TIP3   OH220831   3.038   3.694   5.314 -0.4695 -0.5215 -0.5125
 6970TIP3    H120832   2.955   3.742   5.307  0.6133  1.6972  1.2101
 6970TIP3    H220833   3.081   3.708   5.229 -1.4556 -0.9431 -1.0928
 6971TIP3   OH220834   4.034   2.153   5.620 -0.2372  0.1343 -0.0885
 6971TIP3    H120835   3.960   2.148   5.559  0.3278  0.8601 -0.8322
 6971TIP3    H220836   4.082   2.072   5.606 -0.9989 -0.4247  0.5288
 6972TIP3   OH220837   1.385   3.355   7.047  0.4535  0.4863  0.2947
 6972TIP3    H120838   1.295   3.365   7.015  0.1639 -2.4136  0.0339
 6972TIP3    H220839   1.433   3.429   7.009 -1.6524  1.6330 -0.1832
 6973TIP3   OH220840   3.284   1.365   4.715 -0.7650  0.3959  0.1979
 6973TIP3    H120841   3.365   1.346   4.668  0.2436  1.2029  1.5731
 6973TIP3    H220842   3.228   1.407   4.650  0.1807  0.4914 -0.5728
 6974TIP3   OH220843   4.758   2.848   5.737  0.7143 -0.1006  0.3114
 6974TIP3    H120844   4.763   2.789   5.662 -0.3402  2.0493 -1.5121
 6974TIP3    H220845   4.738   2.791   5.811  2.7833 -2.4143 -0.8145
 6975TIP3   OH220846   1.097   2.108   6.220  0.5629  0.6193  0.6116
 6975TIP3    H120847   1.038   2.142   6.152 -0.4513 -2.7611 -0.3143
 6975TIP3    H220848   1.049   2.121   6.302 -0.8143 -0.6163  0.0266
 6976TIP3   OH220849   4.809   2.256   5.890 -0.2883  0.0152  0.3571
 6976TIP3    H120850   4.737   2.263   5.827 -1.8290 -3.3434  1.6461
 6976TIP3    H220851   4.765   2.246   5.975  1.6866 -2.1083  1.1705
 6977TIP3   OH220852   2.222   2.442   5.539  0.3917 -0.2889  0.1636
 6977TIP3    H120853   2.173   2.521   5.517  0.3512 -0.4291 -0.2514
 6977TIP3    H220854   2.300   2.474   5.584  0.5735  0.0151 -0.3564
 6978TIP3   OH220855   1.868   1.353   6.182 -0.6553  0.0898  0.1583
 6978TIP3    H120856   1.809   1.393   6.246  1.8011  2.1921  1.1993
 6978TIP3    H220857   1.956   1.374   6.214  0.6466  1.6907 -4.1252
 6979TIP3   OH220858   3.469   2.338   6.215 -0.2154  0.0368  0.9851
 6979TIP3    H120859   3.502   2.276   6.280  0.3939 -0.8002 -0.1061
 6979TIP3    H220860   3.447   2.416   6.265 -0.2444 -0.7837  2.2649
 6980TIP3   OH220861   5.992   2.528   6.443 -0.5716  0.3870 -0.0245
 6980TIP3    H120862   5.981   2.537   6.348  0.0156 -1.6179 -0.3162
 6980TIP3    H220863   6.051   2.600   6.467 -0.0073  0.3840 -1.3392
 6981TIP3   OH220864   1.835   3.114   6.824  0.4316 -0.2983 -0.1601
 6981TIP3    H120865   1.754   3.161   6.840 -0.0823 -1.3302  0.3293
 6981TIP3    H220866   1.861   3.081   6.910  1.0833 -0.4224 -0.4030
 6982TIP3   OH220867   3.554   2.400   4.317 -0.1527 -0.8147  0.2071
 6982TIP3    H120868   3.633   2.426   4.270 -0.3073 -0.7454 -0.0131
 6982TIP3    H220869   3.482   2.416   4.255 -0.5161  0.7458  0.9977
 6983TIP3   OH220870   1.540   2.577   6.050  0.6013  0.5155  0.7414
 6983TIP3    H120871   1.555   2.625   5.968  2.0971 -2.5624 -0.8365
 6983TIP3    H220872   1.616   2.520   6.059 -0.9953 -1.3689  2.7383
 6984TIP3   OH220873   1.743   4.471   6.192  0.0461 -0.4558  0.3669
 6984TIP3    H120874   1.729   4.454   6.098  1.6419 -1.9183  0.3777
 6984TIP3    H220875   1.768   4.563   6.196 -0.6877 -0.2006 -0.5567
 6985TIP3   OH220876   3.499   0.520   4.795 -0.2900 -0.3732 -0.0907
 6985TIP3    H120877   3.518   0.611   4.820 -0.7516 -1.0102  2.7615
 6985TIP3    H220878   3.417   0.500   4.841 -1.0731 -1.7321 -2.0182
 6986TIP3   OH220879   2.476   1.480   6.072 -0.3787  0.4632  0.3453
 6986TIP3    H120880   2.461   1.475   6.167  0.3582  0.0593  0.4397
 6986TIP3    H220881   2.423   1.555   6.044 -0.8100  0.4227  1.0342
 6987TIP3   OH220882   3.332   2.073   5.318 -0.2713  0.1407 -0.0326
 6987TIP3    H120883   3.245   2.109   5.334 -0.9085 -0.3231 -2.2804
 6987TIP3    H220884   3.327   2.036   5.230  2.4779  0.9723 -0.6001
 6988TIP3   OH220885   3.925   1.091   5.379 -0.1290 -0.0639 -0.0339
 6988TIP3    H120886   3.951   1.162   5.320  0.9378  0.7803  1.4272
 6988TIP3    H220887   3.873   1.133   5.447  0.9528 -0.5676  1.1395
 6989TIP3   OH220888   3.459   1.936   4.848  0.5195  0.0693 -0.1159
 6989TIP3    H120889   3.512   1.935   4.768  2.6173 -0.4406  1.2577
 6989TIP3    H220890   3.379   1.890   4.823  1.2827 -0.3796 -1.8332
 6990TIP3   OH220891   2.815   7.581   6.914 -0.0947  0.1606  0.1099
 6990TIP3    H120892   2.896   7.611   6.873  0.6957  0.4327  1.8368
 6990TIP3    H220893   2.762   7.659   6.923 -0.9145 -0.1558 -1.7948
 6991TIP3   OH220894   3.839   0.519   6.364 -0.0864  0.2829 -0.5599
 6991TIP3    H120895   3.835   0.423   6.359 -1.2982  0.3005 -0.1073
 6991TIP3    H220896   3.789   0.549   6.289 -2.1836  0.5393  0.8884
 6992TIP3   OH220897   4.686   1.686   5.686  0.4866  0.3857  0.0655
 6992TIP3    H120898   4.608   1.741   5.694 -0.0430 -0.2037 -1.0886
 6992TIP3    H220899   4.687   1.635   5.767 -1.1484 -0.6898 -0.5830
 6993TIP3   OH220900   8.547   3.962   5.795 -0.3829  0.4172 -0.2561
 6993TIP3    H120901   8.504   3.949   5.710  2.1706 -1.4166 -1.3256
 6993TIP3    H220902   8.512   3.892   5.850  0.3539 -0.3782 -0.7854
 6994TIP3   OH220903   8.108   8.011   4.108  0.8967  0.1536  0.1078
 6994TIP3    H120904   8.073   8.096   4.131 -1.1084 -0.6184  0.0310
 6994TIP3    H220905   8.115   7.964   4.191 -0.9792 -0.6773 -0.1904
 6995TIP3   OH220906   4.569   0.940   5.119 -0.8902  0.1665  0.2796
 6995TIP3    H120907   4.480   0.931   5.152 -1.4615  1.8541 -0.7414
 6995TIP3    H220908   4.610   0.856   5.138 -1.4971  0.6461  4.2784
 6996TIP3   OH220909   3.372   1.972   5.566  0.0538 -0.3232  0.1611
 6996TIP3    H120910   3.368   2.008   5.478 -0.6595  0.0849  0.3584
 6996TIP3    H220911   3.387   1.878   5.554  0.1150 -0.2403 -0.3883
 6997TIP3   OH220912   1.558   3.196   5.857  0.6279 -0.7448 -0.0453
 6997TIP3    H120913   1.562   3.159   5.769  0.1225  0.1448 -0.4461
 6997TIP3    H220914   1.470   3.235   5.863  0.0102 -2.2718  1.4505
 6998TIP3   OH220915   8.292   5.622   1.475 -0.2447  0.1915 -0.3921
 6998TIP3    H120916   8.346   5.692   1.512 -0.1273 -0.0113 -0.1805
 6998TIP3    H220917   8.232   5.667   1.416  0.4884  0.3761 -1.0154
 6999TIP3   OH220918   6.012   6.218   0.304 -0.2595  0.1411 -0.0741
 6999TIP3    H120919   5.923   6.237   0.276 -0.2425  2.0270  1.1019
 6999TIP3    H220920   6.012   6.234   0.398  1.4841  0.8234 -0.1728
 7000TIP3   OH220921   3.249   2.158   3.695 -0.3026  0.0077 -0.1726
 7000TIP3    H120922   3.191   2.202   3.757 -1.8852  0.0611 -1.6556
 7000TIP3    H220923   3.285   2.230   3.642 -1.1124 -0.2461 -1.0966
 7001TIP3   OH220924   4.397   2.079   6.590 -0.2068  0.0773 -0.0736
 7001TIP3    H120925   4.469   2.079   6.654 -1.4427 -0.8818  1.3388
 7001TIP3    H220926   4.339   2.008   6.619 -0.9767 -0.1317 -2.0558
 7002TIP3   OH220927   3.890   4.441   5.906  0.1855 -0.1132  0.7285
 7002TIP3    H120928   3.877   4.529   5.939 -0.6779 -0.2508  0.7539
 7002TIP3    H220929   3.818   4.427   5.844  0.0693 -0.9576  1.0492
 7003TIP3   OH220930   6.523   0.446   6.705  0.4505 -0.2524  0.2163
 7003TIP3    H120931   6.597   0.491   6.664  0.4196  0.1683  0.6218
 7003TIP3    H220932   6.446   0.482   6.660  0.5457 -1.4523 -0.9332
 7004TIP3   OH220933   4.442   4.076   6.784  0.3009  0.2365 -0.5218
 7004TIP3    H120934   4.387   4.135   6.834  0.3423  0.1988 -0.4311
 7004TIP3    H220935   4.398   4.066   6.700 -0.0744 -0.1660 -0.2786
 7005TIP3   OH220936   3.986   2.233   3.842  0.2146  0.3574  0.4506
 7005TIP3    H120937   3.906   2.190   3.872  1.0957 -1.7022 -0.0549
 7005TIP3    H220938   4.038   2.242   3.922 -0.4796  1.6336  0.7685
 7006TIP3   OH220939   5.286   3.505   5.424  0.4377  0.4596 -0.2114
 7006TIP3    H120940   5.375   3.477   5.404  0.1234  0.9231 -2.4073
 7006TIP3    H220941   5.297   3.574   5.489  1.6743  0.3935 -0.3341
 7007TIP3   OH220942   4.887   3.839   5.274  0.2733  0.2876  0.0090
 7007TIP3    H120943   4.797   3.829   5.243 -0.1146 -0.3624  1.2869
 7007TIP3    H220944   4.919   3.749   5.283  0.5418  0.4694  0.9474
 7008TIP3   OH220945   1.732   3.369   4.722  0.5160  0.1294 -0.9217
 7008TIP3    H120946   1.638   3.365   4.740  0.8095 -1.8607  0.2853
 7008TIP3    H220947   1.755   3.461   4.738 -1.1605  0.5706 -0.9220
 7009TIP3   OH220948   4.407   1.724   5.671  0.0408 -0.1932  0.1191
 7009TIP3    H120949   4.346   1.742   5.743 -0.9583 -2.4883 -0.1095
 7009TIP3    H220950   4.406   1.629   5.662 -1.8864  0.0967 -4.6066
 7010TIP3   OH220951   4.224   2.400   3.536  0.3172  0.0731  0.5554
 7010TIP3    H120952   4.143   2.432   3.495  1.2927  2.2489  0.2241
 7010TIP3    H220953   4.200   2.317   3.576 -1.8444  0.2207 -0.3739
 7011TIP3   OH220954   6.144   1.564   6.545 -0.3640  0.2351  0.1957
 7011TIP3    H120955   6.059   1.528   6.568  0.9991 -0.2887  4.7629
 7011TIP3    H220956   6.200   1.488   6.530  0.5549  0.4889  2.2209
 7012TIP3   OH220957   5.349   2.423   5.350 -0.0945 -0.0027 -0.8826
 7012TIP3    H120958   5.440   2.420   5.321 -0.7223 -0.0046 -2.8885
 7012TIP3    H220959   5.313   2.339   5.323 -1.0975  0.6145 -1.4899
 7013TIP3   OH220960   5.135   2.345   3.635 -0.2712 -0.0498 -0.2859
 7013TIP3    H120961   5.213   2.317   3.586 -0.6326 -0.5700 -0.5642
 7013TIP3    H220962   5.169   2.406   3.700  0.6658 -1.8117  0.9176
 7014TIP3   OH220963   5.736   3.635   5.232 -0.4380  0.5627 -0.5114
 7014TIP3    H120964   5.784   3.585   5.166  2.7550 -0.0913  2.1661
 7014TIP3    H220965   5.696   3.568   5.289  1.9361  1.0032  1.7409
 7015TIP3   OH220966   4.675   1.183   4.651  0.3399  0.2070 -0.1641
 7015TIP3    H120967   4.611   1.173   4.720  0.5703 -0.2950 -0.0191
 7015TIP3    H220968   4.644   1.127   4.580  0.2810  0.4612 -0.3438
 7016TIP3   OH220969   8.871   4.270   0.296 -0.1810  0.0223  0.1711
 7016TIP3    H120970   8.818   4.340   0.335 -1.9161 -0.8753 -0.5342
 7016TIP3    H220971   8.851   4.273   0.203 -0.3283 -1.4618  0.1431
 7017TIP3   OH220972   6.341   2.390   3.662  0.3298 -0.4711 -0.1425
 7017TIP3    H120973   6.313   2.481   3.647  2.4381  0.7394  2.6740
 7017TIP3    H220974   6.259   2.343   3.679 -0.6742  1.2847  0.1191
 7018TIP3   OH220975   4.812   1.490   6.230 -0.8742  0.4490 -0.2633
 7018TIP3    H120976   4.841   1.462   6.317 -0.4496 -1.3143 -0.9548
 7018TIP3    H220977   4.723   1.456   6.223 -1.1908  1.2498 -0.2430
 7019TIP3   OH220978   4.625   2.992   6.108 -0.2399 -0.4622  0.0110
 7019TIP3    H120979   4.568   3.052   6.061 -0.4165  0.0480  0.8596
 7019TIP3    H220980   4.659   3.044   6.181  0.4798 -1.0709  0.1172
 7020TIP3   OH220981   5.437   2.776   5.692  0.3571 -0.3109 -0.6987
 7020TIP3    H120982   5.464   2.759   5.602  0.7364  1.8945 -1.0209
 7020TIP3    H220983   5.483   2.710   5.744  0.7153 -1.1268 -2.0290
 7021TIP3   OH220984   4.870   1.847   4.738 -0.2822  1.0301  0.4020
 7021TIP3    H120985   4.869   1.887   4.651  1.1301  1.2163  0.4634
 7021TIP3    H220986   4.799   1.783   4.736  0.1258  0.6128 -1.0868
 7022TIP3   OH220987   3.552   1.574   6.358  0.0416  0.3272  0.6856
 7022TIP3    H120988   3.583   1.522   6.432 -1.6688 -0.3465  0.9296
 7022TIP3    H220989   3.497   1.515   6.307  0.5324  1.0234 -0.7035
 7023TIP3   OH220990   4.399   1.731   5.401 -0.1052 -0.6703 -0.2306
 7023TIP3    H120991   4.476   1.787   5.409  0.4786 -1.5906  0.6092
 7023TIP3    H220992   4.370   1.718   5.491 -1.8035  0.4359 -0.5867
 7024TIP3   OH220993   3.845   3.620   4.531  0.2607  0.4402 -0.3904
 7024TIP3    H120994   3.824   3.627   4.624  1.3991 -1.3630  0.0219
 7024TIP3    H220995   3.762   3.597   4.489 -0.0898  0.4855  0.2699
 7025TIP3   OH220996   6.257   3.309   5.692  0.3979  0.1038  0.0113
 7025TIP3    H120997   6.225   3.237   5.638 -0.0355  0.8521 -0.7376
 7025TIP3    H220998   6.286   3.267   5.773  0.4230 -0.9453 -0.5325
 7026TIP3   OH220999   5.268   0.463   5.837 -0.6155  0.5863 -0.8161
 7026TIP3    H121000   5.363   0.468   5.846 -0.7109  0.7378  0.2616
 7026TIP3    H221001   5.253   0.385   5.785  0.1645  1.5364 -2.5287
 7027TIP3   OH221002   3.647   8.055   4.934  0.0806  0.6004 -0.1777
 7027TIP3    H121003   3.622   8.091   4.849  2.2366  2.0507 -0.2521
 7027TIP3    H221004   3.618   7.964   4.931  0.0642  0.6422 -2.4586
 7028TIP3   OH221005   5.263   2.894   5.843  0.2055  0.3112  0.2772
 7028TIP3    H121006   5.322   2.864   5.775 -0.3172 -1.4259  0.5776
 7028TIP3    H221007   5.273   2.831   5.914 -1.5708  0.3110  0.5627
 7029TIP3   OH221008   6.228   3.062   5.530 -0.4368 -0.2151  0.0664
 7029TIP3    H121009   6.301   3.012   5.568 -0.0865 -1.2408 -1.8917
 7029TIP3    H221010   6.240   3.054   5.435 -2.1461  1.0277 -0.2824
 7030TIP3   OH221011   4.550   2.494   4.513 -0.1926 -0.1254 -0.3120
 7030TIP3    H121012   4.555   2.415   4.568 -0.0096 -1.0659 -1.6639
 7030TIP3    H221013   4.481   2.547   4.554  0.0929 -0.7016  0.9564
 7031TIP3   OH221014   5.138   1.557   6.512  0.1834 -0.2727  0.3497
 7031TIP3    H121015   5.164   1.524   6.426  0.2458 -0.3678  0.4059
 7031TIP3    H221016   5.219   1.588   6.552 -0.0910  1.3875 -0.3327
 7032TIP3   OH221017   5.092   3.189   5.275  0.2587  0.6975 -0.1184
 7032TIP3    H121018   5.187   3.192   5.279  0.4214  1.0195 -2.8674
 7032TIP3    H221019   5.072   3.098   5.252 -0.0435  0.8197 -0.3526
 7033TIP3   OH221020   6.403   2.716   7.185  0.5226 -0.5043 -0.4936
 7033TIP3    H121021   6.491   2.679   7.199  0.0356 -1.9585 -1.1346
 7033TIP3    H221022   6.416   2.784   7.119  1.1363 -0.8972 -0.7897
 7034TIP3   OH221023   5.044   2.170   3.051 -0.2666  0.1175  0.1700
 7034TIP3    H121024   5.094   2.091   3.030 -1.6189 -0.9003  0.7106
 7034TIP3    H221025   5.085   2.239   2.999  1.1664 -0.8634 -0.0313
 7035TIP3   OH221026   5.892   3.705   6.193  0.0457  0.4966 -0.0688
 7035TIP3    H121027   5.908   3.799   6.203  0.4304  0.3908  0.3180
 7035TIP3    H221028   5.979   3.666   6.193 -0.1396  0.0846  0.3295
 7036TIP3   OH221029   5.442   3.668   5.623  0.0295  0.3675  0.4183
 7036TIP3    H121030   5.500   3.602   5.660  0.9142  0.8228 -0.1567
 7036TIP3    H221031   5.500   3.732   5.583 -0.8942  0.4943 -0.7307
 7037TIP3   OH221032   6.391   2.126   2.842 -0.2484 -0.3133  0.0697
 7037TIP3    H121033   6.405   2.147   2.934 -1.4517  1.6547 -0.1698
 7037TIP3    H221034   6.424   2.202   2.795  0.5330 -1.3925 -1.1499
 7038TIP3   OH221035   6.624   1.304   3.629  0.1677 -0.2636 -0.4699
 7038TIP3    H121036   6.531   1.328   3.625  0.0501 -0.6077  0.0337
 7038TIP3    H221037   6.626   1.228   3.687  0.8749  0.2900  0.2412
 7039TIP3   OH221038   5.069   4.597   6.277 -0.1221 -0.2136 -0.4443
 7039TIP3    H121039   5.057   4.511   6.237 -1.4529 -0.3972  0.3124
 7039TIP3    H221040   4.982   4.621   6.307  0.6478  0.3862  1.3834
 7040TIP3   OH221041   3.743   1.751   7.045  0.5150 -0.5535  0.4209
 7040TIP3    H121042   3.682   1.768   7.116  1.0492 -1.8554  1.2219
 7040TIP3    H221043   3.691   1.758   6.965 -0.6396 -1.5062  1.0843
 7041TIP3   OH221044   5.795   2.398   4.661  0.0267 -0.7150  0.1650
 7041TIP3    H121045   5.817   2.371   4.571 -0.5232  1.6347 -0.7131
 7041TIP3    H221046   5.855   2.471   4.679 -1.2903  0.1957  0.9182
 7042TIP3   OH221047   5.322   2.712   7.179 -0.6538  0.0009  0.4657
 7042TIP3    H121048   5.377   2.699   7.102 -2.8714  1.2123 -1.3815
 7042TIP3    H221049   5.263   2.636   7.179 -1.4198  0.5897  0.2848
 7043TIP3   OH221050   6.499   4.098   4.236 -0.1506  0.2646  0.2151
 7043TIP3    H121051   6.512   4.023   4.294 -0.2769  0.6287  0.7217
 7043TIP3    H221052   6.550   4.168   4.277  0.8532  0.1723 -0.8326
 7044TIP3   OH221053   3.820   1.941   4.939 -0.2185 -0.4845 -0.0524
 7044TIP3    H121054   3.861   1.998   5.004  1.3491 -0.3181 -1.1710
 7044TIP3    H221055   3.873   1.861   4.940 -0.5368 -0.7099 -0.7058
 7045TIP3   OH221056   6.458   1.905   4.794  0.2166  0.1680 -0.0195
 7045TIP3    H121057   6.363   1.909   4.792  0.1651 -0.4975  0.8673
 7045TIP3    H221058   6.480   1.845   4.722 -0.1424 -1.2589  1.0519
 7046TIP3   OH221059   5.797   3.151   4.101  0.3002  0.4568 -0.0107
 7046TIP3    H121060   5.796   3.151   4.005  0.4748  0.3971 -0.0126
 7046TIP3    H221061   5.708   3.125   4.125  0.7113 -1.1466 -0.1754
 7047TIP3   OH221062   5.636   2.810   4.706  0.3885 -0.1986 -0.0274
 7047TIP3    H121063   5.600   2.882   4.757  1.4735  0.3797 -0.0518
 7047TIP3    H221064   5.679   2.853   4.632 -1.4684 -1.0491 -1.6181
 7048TIP3   OH221065   5.508   2.371   4.094 -0.4024 -0.3295 -0.7172
 7048TIP3    H121066   5.495   2.456   4.134  0.4770  0.3358 -1.8210
 7048TIP3    H221067   5.601   2.368   4.071 -0.0927 -2.1582  0.5923
 7049TIP3   OH221068   6.219   3.830   2.752  0.7781  0.5991 -0.2553
 7049TIP3    H121069   6.130   3.845   2.784  0.9979 -0.0333  0.6816
 7049TIP3    H221070   6.222   3.874   2.667 -0.3634  0.7966 -0.1991
 7050TIP3   OH221071   4.489   2.052   5.452 -0.0648  0.2942  0.1931
 7050TIP3    H121072   4.449   2.080   5.369  1.6493 -0.8080 -1.0380
 7050TIP3    H221073   4.512   2.133   5.496  0.6051  0.8797 -1.2121
 7051TIP3   OH221074   4.309   3.490   4.460  0.0532 -0.2479  0.3763
 7051TIP3    H121075   4.290   3.508   4.368  1.8065  2.2732  0.4581
 7051TIP3    H221076   4.225   3.502   4.504 -0.5295 -0.2031 -0.7200
 7052TIP3   OH221077   3.020   2.897   4.057 -0.3085  0.0684 -0.4515
 7052TIP3    H121078   2.944   2.847   4.085 -0.2717 -0.2248 -0.8620
 7052TIP3    H221079   3.086   2.830   4.037 -0.7693  0.1756 -2.5353
 7053TIP3   OH221080   4.533   3.088   1.820 -0.5356 -0.2144 -0.0675
 7053TIP3    H121081   4.615   3.063   1.861 -0.4357 -0.6518 -0.5250
 7053TIP3    H221082   4.466   3.065   1.883 -0.2323  1.2893  0.8387
 7054TIP3   OH221083   6.413   3.148   5.865  0.1363  0.7903  0.0871
 7054TIP3    H121084   6.472   3.223   5.879  0.9166  0.3258 -0.6330
 7054TIP3    H221085   6.395   3.115   5.953  1.3296  0.6660  0.2989
 7055TIP3   OH221086   5.592   2.551   5.806 -0.1372  0.1368 -0.3650
 7055TIP3    H121087   5.663   2.598   5.849 -1.7016  0.4954  1.8983
 7055TIP3    H221088   5.593   2.464   5.843 -0.7680  0.0861 -0.4520
 7056TIP3   OH221089   3.900   1.880   5.230 -0.2348  0.4105  0.0782
 7056TIP3    H121090   3.875   1.827   5.155  0.5687  1.8035 -1.1892
 7056TIP3    H221091   3.995   1.891   5.222 -0.0668  0.1611  1.5564
 7057TIP3   OH221092   5.192   0.964   5.086 -0.3718  0.6251 -0.2643
 7057TIP3    H121093   5.118   0.976   5.146 -0.9262  0.1905 -0.8535
 7057TIP3    H221094   5.155   0.917   5.012  0.9367 -1.5223  0.3861
 7058TIP3   OH221095   5.067   0.557   5.973 -0.5572 -0.2568 -0.1005
 7058TIP3    H121096   5.126   0.582   6.044  0.3777  0.0808 -0.9850
 7058TIP3    H221097   5.125   0.539   5.899 -1.4752 -1.3486 -0.5635
 7059TIP3   OH221098   0.234   4.308   0.291  0.3279 -0.7000  0.3380
 7059TIP3    H121099   0.144   4.277   0.296 -0.2385  1.0086  0.9067
 7059TIP3    H221100   0.253   4.311   0.197 -0.3872 -0.5133  0.2016
 7060TIP3   OH221101   4.616   4.021   2.123 -0.1616  0.1910  0.2432
 7060TIP3    H121102   4.610   4.048   2.032  2.4329  1.3512  0.3852
 7060TIP3    H221103   4.636   3.928   2.119 -1.2411 -0.0273 -0.3357
 7061TIP3   OH221104   3.727   2.301   4.665 -0.2934 -0.4998  0.8207
 7061TIP3    H121105   3.669   2.264   4.732 -0.3400 -2.1581 -0.1194
 7061TIP3    H221106   3.793   2.234   4.650  0.5239  0.4318  0.1964
 7062TIP3   OH221107   4.412   1.997   4.809 -0.4196  0.4453  0.1956
 7062TIP3    H121108   4.443   2.073   4.760  1.2935 -0.3697  0.0047
 7062TIP3    H221109   4.432   1.922   4.754  0.0627 -0.3499  1.4184
 7063TIP3   OH221110   4.840   4.031   5.040  0.5152  0.2824 -0.1814
 7063TIP3    H121111   4.747   4.050   5.054  1.2112  2.8848  1.1537
 7063TIP3    H221112   4.853   3.946   5.083 -1.2827 -0.2100 -0.5566
 7064TIP3   OH221113   4.366   3.013   5.641 -0.2443  0.2370 -0.0529
 7064TIP3    H121114   4.451   3.027   5.598 -0.8169  2.7283 -0.4313
 7064TIP3    H221115   4.387   2.958   5.717  0.9843 -3.0223 -2.6350
 7065TIP3   OH221116   4.748   3.989   4.043 -0.1173  0.7500 -0.6593
 7065TIP3    H121117   4.662   3.959   4.073  0.0924  1.1219  0.3506
 7065TIP3    H221118   4.752   4.081   4.069  0.8794  0.5373 -0.0145
 7066TIP3   OH221119   0.163   4.835   0.470  0.3644 -0.2569 -0.4400
 7066TIP3    H121120   0.257   4.838   0.484  0.8894  1.5409 -3.7274
 7066TIP3    H221121   0.127   4.895   0.535  1.4474 -0.9636  0.8436
 7067TIP3   OH221122   5.747   2.939   4.508  0.0065 -0.6772  0.6417
 7067TIP3    H121123   5.677   3.002   4.491 -0.2675 -1.4509 -1.1766
 7067TIP3    H221124   5.828   2.990   4.500 -0.2605 -0.2425  0.6618
 7068TIP3   OH221125   3.910   2.140   4.357  0.1321  0.4845 -0.7098
 7068TIP3    H121126   3.941   2.215   4.306  1.5467 -0.0461 -0.6703
 7068TIP3    H221127   3.973   2.131   4.428 -0.7827  0.0767  0.0614
 7069TIP3   OH221128   3.569   8.304   5.139  0.0448 -0.5840 -0.2682
 7069TIP3    H121129   3.664   8.297   5.146 -0.0784 -1.6011  0.4381
 7069TIP3    H221130   3.542   8.346   5.221 -0.1060 -0.1966 -0.5128
 7070TIP3   OH221131   6.313   1.352   6.793 -0.6916  0.5047  0.2555
 7070TIP3    H121132   6.256   1.414   6.839  1.3695  2.7950 -0.1457
 7070TIP3    H221133   6.356   1.303   6.863 -1.6236  0.1854  0.6115
 7071TIP3   OH221134   5.049   2.619   7.098 -0.0531  0.7725  0.7128
 7071TIP3    H121135   5.012   2.679   7.163 -1.0648  1.4036 -0.4109
 7071TIP3    H221136   5.023   2.657   7.014  1.5999  0.2000 -0.0625
 7072TIP3   OH221137   5.132   1.893   4.911 -1.0230  0.3208 -0.1137
 7072TIP3    H121138   5.096   1.981   4.900 -1.4660 -0.1151 -2.4147
 7072TIP3    H221139   5.197   1.902   4.981 -1.2418  2.4147 -0.1485
 7073TIP3   OH221140   4.830   2.515   4.935  0.6707 -0.1530 -0.4148
 7073TIP3    H121141   4.822   2.607   4.960  0.4505 -0.3964  0.4220
 7073TIP3    H221142   4.749   2.497   4.887 -0.6926 -0.7099  2.0120
 7074TIP3   OH221143   4.657   2.284   3.747  0.6506  0.8425 -0.2056
 7074TIP3    H121144   4.669   2.197   3.710  1.2080  1.2944 -1.0836
 7074TIP3    H221145   4.683   2.344   3.678  0.1712  1.7148  0.3610
 7075TIP3   OH221146   2.834   4.174   6.833 -1.0640  0.1450  0.4317
 7075TIP3    H121147   2.863   4.253   6.787  2.7758 -2.0866 -1.2304
 7075TIP3    H221148   2.872   4.182   6.921  2.2201 -1.3240 -0.7816
 7076TIP3   OH221149   4.058   4.391   6.284  0.5724  0.0776 -0.3208
 7076TIP3    H121150   4.048   4.466   6.342 -0.4479 -1.0902  1.0642
 7076TIP3    H221151   4.115   4.331   6.332 -0.2206 -0.8705 -0.5453
 7077TIP3   OH221152   7.471   2.976   5.624 -0.5908 -0.1573  0.1503
 7077TIP3    H121153   7.553   2.945   5.662 -0.2616  0.2055 -0.2678
 7077TIP3    H221154   7.404   2.921   5.665 -0.1723 -0.2410  0.7296
 7078TIP3   OH221155   5.794   0.802   5.908  0.4059  0.3523  0.1786
 7078TIP3    H121156   5.737   0.740   5.954  0.2109 -0.0746 -0.6318
 7078TIP3    H221157   5.766   0.798   5.817  1.9217 -0.0897 -0.2894
 7079TIP3   OH221158   5.053   2.843   1.189 -0.1527 -0.2496  0.2142
 7079TIP3    H121159   5.089   2.922   1.150  1.4030 -0.8562  0.4143
 7079TIP3    H221160   5.113   2.821   1.260 -1.0803 -1.0969  0.7633
 7080TIP3   OH221161   3.867   1.733   3.520 -0.7191  0.2687 -0.3197
 7080TIP3    H121162   3.890   1.796   3.588 -0.2824 -0.2672  0.0265
 7080TIP3    H221163   3.826   1.660   3.566 -1.0041  0.1847 -0.6984
 7081TIP3   OH221164   6.476   1.628   4.161 -0.4922  0.0333  0.3015
 7081TIP3    H121165   6.395   1.662   4.198 -0.1037  0.3451  0.8619
 7081TIP3    H221166   6.447   1.561   4.099 -1.2978  1.9425 -1.4550
 7082TIP3   OH221167   6.199   1.953   5.335  0.0455 -0.2788 -0.5620
 7082TIP3    H121168   6.268   2.017   5.323 -0.2829 -0.1290 -1.6567
 7082TIP3    H221169   6.179   1.957   5.429 -0.6177  1.8802 -0.7741
 7083TIP3   OH221170   4.844   2.499   4.421  0.2559  0.3447 -0.0853
 7083TIP3    H121171   4.751   2.516   4.436  0.1964  0.4643 -0.5882
 7083TIP3    H221172   4.887   2.536   4.498 -0.2741 -1.5174  1.1592
 7084TIP3   OH221173   4.742   1.928   5.879  0.6422 -0.0361 -0.6776
 7084TIP3    H121174   4.670   1.961   5.826  1.0135 -1.0718 -1.8428
 7084TIP3    H221175   4.700   1.887   5.955  0.0951  1.0538 -0.3812
 7085TIP3   OH221176   5.165   2.626   5.401 -0.9807  0.8696 -0.4873
 7085TIP3    H121177   5.238   2.568   5.380 -0.1316  1.9639 -0.5728
 7085TIP3    H221178   5.092   2.591   5.350  0.7813  2.9081 -4.6305
 7086TIP3   OH221179   6.877   2.695   4.167  0.3615  0.0782  0.6418
 7086TIP3    H121180   6.943   2.632   4.139  1.2279  0.6511  1.3941
 7086TIP3    H221181   6.905   2.724   4.253 -1.5702 -0.6693  1.5636
 7087TIP3   OH221182   6.223   4.011   6.346  0.2056 -0.2881 -0.3346
 7087TIP3    H121183   6.267   3.930   6.322  1.3620  0.2547 -0.0915
 7087TIP3    H221184   6.266   4.078   6.295  0.3330  0.3892  0.6426
 7088TIP3   OH221185   4.140   3.773   6.120  0.0188 -0.6004  0.1843
 7088TIP3    H121186   4.148   3.756   6.026  0.4116  1.1795 -0.1096
 7088TIP3    H221187   4.157   3.687   6.160  1.0558 -1.1262 -1.3068
 7089TIP3   OH221188   5.019   3.119   4.594  0.3263 -0.2519  0.1855
 7089TIP3    H121189   4.987   3.040   4.550 -0.2848 -0.3443  0.7854
 7089TIP3    H221190   5.113   3.118   4.579  0.5338 -1.8881  1.4290
 7090TIP3   OH221191   5.538   3.899   3.410 -0.1766  0.3352  0.1428
 7090TIP3    H121192   5.460   3.882   3.357  0.1205  0.9750 -0.5115
 7090TIP3    H221193   5.511   3.878   3.499 -1.3533  1.3074  0.0391
 7091TIP3   OH221194   6.968   3.599   4.964 -0.5858 -0.3132 -0.1036
 7091TIP3    H121195   7.034   3.564   4.905 -2.4599 -3.0750 -0.6524
 7091TIP3    H221196   6.935   3.523   5.012 -1.6791  1.3505  1.8723
 7092TIP3   OH221197   7.168   3.040   4.290  0.7571  0.0146  0.2638
 7092TIP3    H121198   7.203   3.001   4.210 -1.4684 -3.0419  0.6814
 7092TIP3    H221199   7.112   3.111   4.260 -1.8810 -2.5424 -1.1349
 7093TIP3   OH221200   6.706   1.641   3.016  0.0934  0.3472  0.2205
 7093TIP3    H121201   6.686   1.688   3.097 -0.0934 -1.3100  1.1558
 7093TIP3    H221202   6.639   1.572   3.011 -0.0584  0.5869 -1.4860
 7094TIP3   OH221203   5.527   3.554   4.975  0.4702  0.2478  0.7321
 7094TIP3    H121204   5.561   3.536   5.062 -0.0799  0.7997  1.0640
 7094TIP3    H221205   5.521   3.649   4.971  0.4701  0.2235  0.1016
 7095TIP3   OH221206   5.116   2.825   6.617 -0.2090 -0.6269  0.1653
 7095TIP3    H121207   5.041   2.795   6.566 -1.2184  0.5578  0.9080
 7095TIP3    H221208   5.191   2.780   6.579 -1.1022 -0.7063 -1.5592
 7096TIP3   OH221209   4.610   3.025   5.482  0.1235 -0.0725  0.6635
 7096TIP3    H121210   4.674   3.011   5.412  0.3724 -2.2872  1.2796
 7096TIP3    H221211   4.532   3.058   5.438 -0.6245 -3.8889 -1.0898
 7097TIP3   OH221212   3.486   3.915   3.640  0.0644 -0.5204 -0.2277
 7097TIP3    H121213   3.563   3.895   3.693 -0.6977  0.8164  1.4032
 7097TIP3    H221214   3.447   3.829   3.621  1.4630 -1.1457 -0.3778
 7098TIP3   OH221215   5.862   1.211   3.380 -0.3460 -0.3657 -0.1337
 7098TIP3    H121216   5.887   1.119   3.379 -0.4774 -0.4351  1.5376
 7098TIP3    H221217   5.794   1.219   3.313  0.5077 -1.2279 -1.1147
 7099TIP3   OH221218   3.842   3.922   4.471 -0.0881 -0.1319 -0.3130
 7099TIP3    H121219   3.827   3.995   4.532 -1.9070  0.0595 -0.9429
 7099TIP3    H221220   3.873   3.851   4.526  1.6580  1.1025  0.3250
 7100TIP3   OH221221   4.284   6.080   5.838 -0.0476  0.6394  1.0647
 7100TIP3    H121222   4.334   6.154   5.804  2.0924 -0.7487  1.1274
 7100TIP3    H221223   4.258   6.031   5.759  0.4384  0.2523  1.1457
 7101TIP3   OH221224   1.719   3.720   3.480  0.2163  0.1034  0.2301
 7101TIP3    H121225   1.680   3.638   3.511  1.1095 -0.2180  0.5159
 7101TIP3    H221226   1.809   3.718   3.512  0.0480  1.5281  0.8319
 7102TIP3   OH221227   5.227   0.884   6.984 -0.1600  0.2379  0.1301
 7102TIP3    H121228   5.148   0.887   7.038 -0.6447  0.4783 -0.5849
 7102TIP3    H221229   5.291   0.837   7.037 -0.6513  0.4251  0.8895
 7103TIP3   OH221230   4.856   2.738   3.748 -0.3741 -0.0354 -0.4118
 7103TIP3    H121231   4.907   2.695   3.817 -0.2257 -0.4340 -0.7641
 7103TIP3    H221232   4.772   2.758   3.788 -0.2164 -0.0839 -0.0562
 7104TIP3   OH221233   4.067   3.841   5.850 -0.4217 -0.1939 -0.1223
 7104TIP3    H121234   4.148   3.789   5.852 -1.2556 -1.6686 -2.3065
 7104TIP3    H221235   4.097   3.931   5.838  0.9285 -0.7187 -0.9272
 7105TIP3   OH221236   5.334   3.511   4.168  0.3444 -0.0775  0.3320
 7105TIP3    H121237   5.344   3.542   4.078  2.2569 -2.5028 -0.3515
 7105TIP3    H221238   5.388   3.569   4.221 -0.6530  1.2544 -0.0924
 7106TIP3   OH221239   1.868   1.765   4.669  0.2700  0.6062 -0.2136
 7106TIP3    H121240   1.932   1.826   4.704  1.5025 -1.5715  1.4615
 7106TIP3    H221241   1.919   1.687   4.646 -1.2750  0.1128 -2.1325
 7107TIP3   OH221242   4.495   3.308   4.091  0.4676  0.3833  0.5652
 7107TIP3    H121243   4.508   3.397   4.057 -1.5945  1.2692  2.0162
 7107TIP3    H221244   4.548   3.306   4.171  0.7550  0.2050  0.3704
 7108TIP3   OH221245   3.810   0.828   5.618  0.0048  0.1819  0.0321
 7108TIP3    H121246   3.825   0.848   5.711  1.2590  0.8326 -0.2916
 7108TIP3    H221247   3.892   0.853   5.575 -0.3753 -0.6133 -1.1773
 7109TIP3   OH221248   7.419   2.883   4.085  0.1655 -0.2584 -0.6097
 7109TIP3    H121249   7.441   2.849   4.172  0.0299 -1.6008 -1.0986
 7109TIP3    H221250   7.353   2.823   4.052  1.7789 -1.0257 -2.5296
 7110TIP3   OH221251   2.892   2.748   4.552  0.1453 -0.2105  0.1965
 7110TIP3    H121252   2.948   2.793   4.616 -1.5155  1.3267  0.6040
 7110TIP3    H221253   2.839   2.688   4.605  0.7656 -1.0145 -0.0845
 7111TIP3   OH221254   5.280   0.446   2.322 -0.2916 -0.0193  0.2628
 7111TIP3    H121255   5.325   0.496   2.254  0.0000 -0.1317  0.3696
 7111TIP3    H221256   5.333   0.460   2.401 -0.8879  0.4867  0.5734
 7112TIP3   OH221257   4.782   2.711   6.013  0.7196 -0.3662  0.4333
 7112TIP3    H121258   4.829   2.633   6.040  0.9241 -0.0600  0.9622
 7112TIP3    H221259   4.844   2.783   6.028  0.8451 -0.1830 -0.8282
 7113TIP3   OH221260   5.347   2.938   4.681  0.0872  0.7711  0.0134
 7113TIP3    H121261   5.324   2.973   4.595 -0.0044  1.7970  0.4383
 7113TIP3    H221262   5.407   2.866   4.663 -0.0599  0.8793 -0.9167
 7114TIP3   OH221263   3.072   2.210   5.387 -0.2873 -0.3536 -0.1772
 7114TIP3    H121264   3.005   2.233   5.451 -1.5115 -0.1429 -1.5138
 7114TIP3    H221265   3.023   2.177   5.312  1.1347 -0.6358 -1.0001
 7115TIP3   OH221266   5.681   4.253   6.294  0.0911  0.2141  0.3047
 7115TIP3    H121267   5.776   4.242   6.289  0.2683  1.9218 -0.0905
 7115TIP3    H221268   5.653   4.187   6.358  1.3575 -1.2315 -0.5849
 7116TIP3   OH221269   7.154   2.266   4.997  0.4194 -0.1024  0.2180
 7116TIP3    H121270   7.075   2.314   4.972  0.5186  0.5605  1.1503
 7116TIP3    H221271   7.171   2.208   4.923  0.4040  1.4474 -1.0331
 7117TIP3   OH221272   5.995   1.872   5.167 -0.1454 -0.0984 -0.1388
 7117TIP3    H121273   6.065   1.901   5.227 -0.0476  1.2576 -0.8939
 7117TIP3    H221274   5.921   1.929   5.187  0.5207  1.7458 -2.6687
 7118TIP3   OH221275   2.197   3.927   6.533 -0.0206  0.2012  0.3448
 7118TIP3    H121276   2.255   4.003   6.534 -1.8950  1.6881 -1.1407
 7118TIP3    H221277   2.240   3.865   6.474  0.2056  1.1476 -0.4915
 7119TIP3   OH221278   6.267   4.262   2.764  0.2350 -0.1252 -0.8396
 7119TIP3    H121279   6.231   4.269   2.675  1.9335  0.8389 -1.4867
 7119TIP3    H221280   6.191   4.258   2.821 -0.8818  0.5554 -2.2535
 7120TIP3   OH221281   6.295   1.650   3.571  0.2629  1.0584 -0.2325
 7120TIP3    H121282   6.376   1.639   3.620 -0.0226  0.1654  0.0433
 7120TIP3    H221283   6.269   1.561   3.547 -0.8973  1.3075  0.0991
 7121TIP3   OH221284   5.890   1.543   4.787  0.1395 -0.4756  0.2020
 7121TIP3    H121285   5.927   1.594   4.860  0.3875 -0.8054  0.3080
 7121TIP3    H221286   5.850   1.609   4.730  0.5571 -0.1479  0.2807
 7122TIP3   OH221287   4.985   2.367   5.710 -0.2051 -0.1626 -0.0988
 7122TIP3    H121288   4.955   2.309   5.780  0.3104  0.9659  1.0704
 7122TIP3    H221289   5.080   2.359   5.711 -0.2109 -0.3801 -0.8919
 7123TIP3   OH221290   4.984   4.344   4.334  0.2968 -0.4705 -0.3542
 7123TIP3    H121291   4.962   4.344   4.427  1.1687 -0.8602 -0.1344
 7123TIP3    H221292   4.964   4.433   4.304 -0.9314 -0.6335 -0.0320
 7124TIP3   OH221293   3.484   3.385   4.697  0.1270  0.0109 -1.0050
 7124TIP3    H121294   3.413   3.342   4.744  1.1035 -0.0622  0.4173
 7124TIP3    H221295   3.478   3.477   4.723 -0.0892  0.2009 -1.7061
 7125TIP3   OH221296   4.341   3.214   4.375 -0.1220  0.0595 -0.5207
 7125TIP3    H121297   4.271   3.193   4.435  0.1322  1.4822  0.2958
 7125TIP3    H221298   4.348   3.310   4.378  2.0038 -0.0724 -0.3924
 7126TIP3   OH221299   2.817   3.369   5.658 -0.0379 -0.1985 -0.2436
 7126TIP3    H121300   2.837   3.462   5.668 -0.1730 -0.0879 -0.9742
 7126TIP3    H221301   2.870   3.325   5.725 -1.5480  0.5925  1.5113
 7127TIP3   OH221302   5.660   2.649   6.577 -0.3499  0.1921  0.0508
 7127TIP3    H121303   5.637   2.583   6.512 -0.0909 -0.7266  0.8886
 7127TIP3    H221304   5.593   2.641   6.645  0.6169 -0.3419  0.9518
 7128TIP3   OH221305   3.517   1.669   3.310 -0.6082  0.4947 -0.4870
 7128TIP3    H121306   3.560   1.664   3.395 -0.2591  1.3113 -0.6145
 7128TIP3    H221307   3.497   1.578   3.288  0.6255  0.1521 -0.2093
 7129TIP3   OH221308   5.754   1.033   7.245  0.2518 -0.3113  0.0945
 7129TIP3    H121309   5.683   0.973   7.221  1.1850 -0.7343 -1.6639
 7129TIP3    H221310   5.833   0.979   7.243  0.6924  0.2512  1.6318
 7130TIP3   OH221311   4.704   2.382   6.572 -0.3070  0.4334 -0.0965
 7130TIP3    H121312   4.690   2.287   6.564 -1.7631  0.6583 -0.3632
 7130TIP3    H221313   4.722   2.411   6.483 -2.2261  0.7642 -0.3800
 7131TIP3   OH221314   4.655   1.513   5.466 -0.5264  0.4785 -0.1045
 7131TIP3    H121315   4.651   1.557   5.381 -1.5240  0.1740 -0.2201
 7131TIP3    H221316   4.678   1.582   5.527 -1.6632  1.0864 -0.3503
 7132TIP3   OH221317   4.577   2.019   6.322  0.1313 -0.0771 -0.4239
 7132TIP3    H121318   4.587   1.980   6.409 -0.4468 -0.4956 -0.5470
 7132TIP3    H221319   4.482   2.026   6.309  0.2190  0.9074 -0.6070
 7133TIP3   OH221320   4.895   2.322   3.380  0.6028 -0.3068  0.3024
 7133TIP3    H121321   4.825   2.370   3.425  2.0757  1.3000  0.9107
 7133TIP3    H221322   4.859   2.234   3.370 -1.3970  0.3937  0.8801
 7134TIP3   OH221323   5.572   2.711   6.101  0.0587 -0.2587  0.3685
 7134TIP3    H121324   5.641   2.700   6.036  1.2351  0.3096  1.4869
 7134TIP3    H221325   5.610   2.769   6.167 -1.5549  0.2209  0.9227
 7135TIP3   OH221326   1.513   8.360   3.930  0.3771  0.4055  0.4712
 7135TIP3    H121327   1.602   8.354   3.895 -0.3299 -0.0434 -1.2957
 7135TIP3    H221328   1.495   8.273   3.965  0.4743  0.3840  0.4676
 7136TIP3   OH221329   8.556   4.842   0.543  0.0884  0.8867  0.1178
 7136TIP3    H121330   8.563   4.782   0.468 -1.6983  0.7203  0.0703
 7136TIP3    H221331   8.552   4.785   0.619  0.4178  1.0179  0.2363
 7137TIP3   OH221332   5.846   1.873   4.264 -0.7319  0.4010 -0.4799
 7137TIP3    H121333   5.756   1.842   4.277 -0.5609  0.6235  1.3136
 7137TIP3    H221334   5.863   1.857   4.171 -1.6113 -2.3592 -0.2191
 7138TIP3   OH221335   5.516   2.576   6.350 -0.2334 -0.3630  0.4431
 7138TIP3    H121336   5.440   2.520   6.362  0.3079 -1.1399  0.3294
 7138TIP3    H221337   5.531   2.577   6.256  0.0864 -0.4788  0.4903
 7139TIP3   OH221338   5.413   3.252   4.607 -0.4493 -0.4819 -0.3958
 7139TIP3    H121339   5.377   3.340   4.599 -0.2959 -0.3328  0.5426
 7139TIP3    H221340   5.426   3.239   4.701 -2.9585 -2.4984 -0.2635
 7140TIP3   OH221341   3.971   1.314   6.542 -0.0669  0.2776 -0.5108
 7140TIP3    H121342   3.982   1.246   6.609 -1.9682 -0.0226 -0.4709
 7140TIP3    H221343   4.001   1.394   6.585 -1.2263  0.0813  0.7279
 7141TIP3   OH221344   7.984   3.001   5.064 -0.1397 -0.3975 -0.3582
 7141TIP3    H121345   7.990   3.096   5.072 -2.0257  0.1063 -4.0976
 7141TIP3    H221346   8.060   2.976   5.012  1.0034 -1.1607  1.5904
 7142TIP3   OH221347   4.679   3.230   6.280  0.7141 -0.5810  0.5031
 7142TIP3    H121348   4.628   3.236   6.361  1.1425 -0.3863  0.7608
 7142TIP3    H221349   4.684   3.320   6.248  1.6199 -0.4749  0.9320
 7143TIP3   OH221350   2.808   2.801   6.179  0.4924  0.1058 -0.6487
 7143TIP3    H121351   2.871   2.864   6.213  0.5893 -0.5965  0.4917
 7143TIP3    H221352   2.733   2.807   6.238  0.9629 -1.6558  0.1812
 7144TIP3   OH221353   7.983   3.678   0.181  0.3911  0.5455 -0.0588
 7144TIP3    H121354   7.892   3.703   0.172  0.5218  0.8196 -0.6483
 7144TIP3    H221355   7.983   3.583   0.177  0.2456  0.5834 -1.2037
 7145TIP3   OH221356   6.958   3.006   6.939  0.1341  0.1307  0.1480
 7145TIP3    H121357   7.052   2.988   6.942  0.3518  1.1250 -0.5920
 7145TIP3    H221358   6.935   3.003   6.847 -0.6309 -0.4198  0.3516
 7146TIP3   OH221359   2.943   1.417   6.097 -0.4766  0.1103  0.1370
 7146TIP3    H121360   3.001   1.347   6.068 -1.4770 -0.7702  0.2091
 7146TIP3    H221361   2.936   1.476   6.022 -1.9047 -1.3910 -0.9695
 7147TIP3   OH221362   4.093   3.423   4.822  0.2812 -0.2006  0.5371
 7147TIP3    H121363   4.166   3.480   4.848 -0.5794  0.1513  2.2656
 7147TIP3    H221364   4.054   3.395   4.905 -1.7089 -0.1733 -0.3627
 7148TIP3   OH221365   2.417   8.368   5.930 -0.0285 -0.1846 -0.3154
 7148TIP3    H121366   2.358   8.378   5.856 -0.8262 -3.2189 -0.1400
 7148TIP3    H221367   2.504   8.381   5.894 -0.5432  0.5076 -1.3323
 7149TIP3   OH221368   2.526   0.190   3.656  0.0169 -0.4701 -0.1311
 7149TIP3    H121369   2.597   0.211   3.595 -1.0185  1.0107 -0.8727
 7149TIP3    H221370   2.495   0.104   3.629 -1.5779  0.8884 -2.8760
 7150TIP3   OH221371   2.601   8.214   6.331 -0.1047 -0.1497 -0.3540
 7150TIP3    H121372   2.679   8.185   6.285 -0.9931  0.4891 -2.3536
 7150TIP3    H221373   2.546   8.252   6.262 -0.9515  1.9802  1.4349
 7151TIP3   OH221374   3.449   3.363   4.076 -0.5051  0.1791 -0.1846
 7151TIP3    H121375   3.362   3.364   4.117 -0.5657  0.3156 -0.3147
 7151TIP3    H221376   3.510   3.352   4.149 -0.6672 -0.4950 -0.1524
 7152TIP3   OH221377   8.716   3.344   4.273 -0.6813 -0.2884 -0.1073
 7152TIP3    H121378   8.734   3.304   4.188  0.2916  0.0714 -0.0767
 7152TIP3    H221379   8.686   3.272   4.328  1.1625 -1.0186 -0.0119
 7153TIP3   OH221380   3.300   3.608   6.214 -0.0223  0.5905  0.2198
 7153TIP3    H121381   3.354   3.669   6.265  2.1918 -0.5455 -0.7198
 7153TIP3    H221382   3.211   3.620   6.249  0.7119  2.9382  1.3674
 7154TIP3   OH221383   3.577   1.472   6.942 -0.1512  0.2572  0.7162
 7154TIP3    H121384   3.593   1.566   6.943  0.4171  0.1655  0.4151
 7154TIP3    H221385   3.642   1.436   7.003 -1.9654  0.3047  2.7205
 7155TIP3   OH221386   5.405   4.572   3.282 -0.0662 -1.0633 -0.2234
 7155TIP3    H121387   5.492   4.556   3.318 -1.3019 -0.8119  3.0462
 7155TIP3    H221388   5.383   4.660   3.312 -1.1359 -0.7733 -1.7617
 7156TIP3   OH221389   5.645   3.975   4.888 -0.3553  0.5392  0.3832
 7156TIP3    H121390   5.657   3.952   4.980  1.1467 -0.1053  0.0465
 7156TIP3    H221391   5.643   4.071   4.887  2.1367  0.6419  0.8417
 7157TIP3   OH221392   5.714   2.938   5.834 -0.7413 -0.0696 -0.3570
 7157TIP3    H121393   5.629   2.975   5.857  0.0020  1.4048  0.0971
 7157TIP3    H221394   5.777   3.005   5.860  0.5407 -1.0027 -0.9979
 7158TIP3   OH221395   2.735   8.214   3.723 -0.1982  0.0224  0.0702
 7158TIP3    H121396   2.678   8.142   3.751 -1.3036  0.8908  0.0718
 7158TIP3    H221397   2.805   8.216   3.788 -1.1973  0.1760  1.1524
 7159TIP3   OH221398   4.476   1.039   4.191 -0.0754 -0.0294  0.3134
 7159TIP3    H121399   4.416   0.972   4.159 -0.2143  0.6806 -0.9476
 7159TIP3    H221400   4.468   1.036   4.286 -0.6795 -1.2438  0.2278
 7160TIP3   OH221401   7.100   4.181   4.127 -0.2747 -0.4477  0.0112
 7160TIP3    H121402   7.051   4.103   4.154  0.3496 -0.9392 -0.2602
 7160TIP3    H221403   7.190   4.161   4.151 -0.0296 -0.0427 -0.5938
 7161TIP3   OH221404   4.163   2.915   2.302 -0.3864  0.1571 -0.0483
 7161TIP3    H121405   4.251   2.881   2.313 -1.0673 -1.6112  0.0422
 7161TIP3    H221406   4.168   3.006   2.332  1.1673 -0.2351  0.9129
 7162TIP3   OH221407   5.863   1.250   5.149 -0.4897  0.2062  0.3664
 7162TIP3    H121408   5.900   1.249   5.061 -0.8666 -0.6641  0.2048
 7162TIP3    H221409   5.910   1.319   5.194 -0.8789  1.2297 -0.7671
 7163TIP3   OH221410   4.944   0.822   3.682  0.0417 -0.3109 -1.1538
 7163TIP3    H121411   4.925   0.893   3.743  0.9701 -0.9634 -0.0868
 7163TIP3    H221412   4.889   0.749   3.712 -0.1439 -0.3721 -1.6307
 7164TIP3   OH221413   6.831   3.336   4.748  0.0135 -0.6083  0.0435
 7164TIP3    H121414   6.805   3.427   4.761  2.0215  0.0153 -0.1751
 7164TIP3    H221415   6.752   3.293   4.717 -0.7780  1.2059 -0.5262
 7165TIP3   OH221416   3.976   1.199   4.990  0.0545  0.1562  0.0436
 7165TIP3    H121417   3.918   1.123   4.981  0.9931 -0.3701 -1.9118
 7165TIP3    H221418   3.941   1.264   4.931  0.3501  0.5547  0.3028
 7166TIP3   OH221419   5.616   4.185   4.040 -0.1730  0.6895  0.0768
 7166TIP3    H121420   5.542   4.132   4.011 -0.2381  1.3386 -0.9682
 7166TIP3    H221421   5.663   4.129   4.102 -0.7039 -0.2764 -0.3827
 7167TIP3   OH221422   5.137   1.290   5.122 -0.4567 -0.8650 -0.2591
 7167TIP3    H121423   5.126   1.198   5.144 -0.1732 -1.0204 -0.7622
 7167TIP3    H221424   5.058   1.333   5.156 -1.4349 -1.5749 -1.6004
 7168TIP3   OH221425   2.614   7.817   4.433 -0.3929  0.5546  0.0204
 7168TIP3    H121426   2.617   7.896   4.488 -1.3667  0.3076  0.4462
 7168TIP3    H221427   2.555   7.841   4.361 -0.8988  0.1375  0.2889
 7169TIP3   OH221428   5.553   2.221   4.724  0.7649  0.7366 -0.1318
 7169TIP3    H121429   5.559   2.159   4.651 -0.0734  0.4776  0.0112
 7169TIP3    H221430   5.638   2.266   4.725  0.5165  1.2738 -1.7349
 7170TIP3   OH221431   4.344   3.054   4.070 -0.4666  0.7219 -0.4179
 7170TIP3    H121432   4.369   3.031   4.160 -1.8567  0.8998  0.0276
 7170TIP3    H221433   4.370   3.146   4.061 -0.5162  0.7665 -0.1233
 7171TIP3   OH221434   5.228   0.912   5.916 -0.6517 -0.4845 -0.0387
 7171TIP3    H121435   5.206   0.820   5.931 -0.3951 -0.4117  0.8578
 7171TIP3    H221436   5.153   0.960   5.951  0.5525 -0.2584  2.3471
 7172TIP3   OH221437   3.002   7.860   5.004 -0.3166 -0.6995  0.1977
 7172TIP3    H121438   3.022   7.951   5.026 -2.1824 -0.1890 -0.1349
 7172TIP3    H221439   2.938   7.867   4.933 -0.2515 -2.2815 -0.0167
 7173TIP3   OH221440   7.896   1.505   5.426 -0.9401  0.0821 -0.4017
 7173TIP3    H121441   7.903   1.590   5.382 -2.8775  0.6794  0.3970
 7173TIP3    H221442   7.986   1.481   5.447 -0.2292  1.1269 -2.1527
 7174TIP3   OH221443   5.929   1.160   2.659 -0.6070  0.3834  0.1171
 7174TIP3    H121444   5.911   1.231   2.720  1.9097  1.0744  0.1151
 7174TIP3    H221445   5.969   1.203   2.583 -0.7052 -0.8397 -0.6460
 7175TIP3   OH221446   2.678   3.434   2.505  0.7221 -0.2784  0.4683
 7175TIP3    H121447   2.676   3.482   2.422 -0.9742 -0.4951  0.3570
 7175TIP3    H221448   2.764   3.393   2.507  1.8168  1.9403  0.1071
 7176TIP3   OH221449   1.560   3.101   5.607 -0.2661  0.4225 -0.3132
 7176TIP3    H121450   1.654   3.088   5.596 -0.4500 -1.3740  0.0165
 7176TIP3    H221451   1.535   3.162   5.538  0.9938  0.1891 -0.9775
 7177TIP3   OH221452   5.803   0.079   5.449 -0.6294  0.0778 -0.4168
 7177TIP3    H121453   5.807   0.147   5.382  1.9551  0.1615 -0.2271
 7177TIP3    H221454   5.756   0.007   5.408 -1.9555  1.3587 -1.1785
 7178TIP3   OH221455   5.210   1.548   1.739  0.4343  0.3053  0.2275
 7178TIP3    H121456   5.277   1.516   1.678  0.1727 -1.0732  0.6379
 7178TIP3    H221457   5.259   1.577   1.816  0.6985  1.1891 -0.2717
 7179TIP3   OH221458   3.330   2.432   5.608 -0.5123  0.2493  0.2263
 7179TIP3    H121459   3.264   2.368   5.635  1.6859 -2.3756 -0.4254
 7179TIP3    H221460   3.312   2.448   5.515 -0.1783 -0.5361  0.0263
 7180TIP3   OH221461   7.936   1.834   2.288 -0.7760 -0.3725  0.0513
 7180TIP3    H121462   7.856   1.787   2.311 -0.4430 -1.1314 -0.3142
 7180TIP3    H221463   7.999   1.808   2.355 -0.7453 -0.0431  0.1464
 7181TIP3   OH221464   4.924   5.664   5.156  0.0528 -0.4411  0.1919
 7181TIP3    H121465   4.924   5.626   5.244  0.6819  2.6030  1.5569
 7181TIP3    H221466   4.989   5.612   5.108 -0.5112 -2.3230  1.4164
 7182TIP3   OH221467   3.809   2.790   5.841 -0.6461 -0.0696 -0.4997
 7182TIP3    H121468   3.814   2.698   5.813 -1.2515 -0.4865  0.7076
 7182TIP3    H221469   3.837   2.840   5.765 -0.7741 -1.2432 -1.3310
 7183TIP3   OH221470   3.362   4.013   5.726  0.3472  0.6214 -0.0757
 7183TIP3    H121471   3.271   4.017   5.696 -0.0432 -0.7929  0.8547
 7183TIP3    H221472   3.398   4.099   5.706 -1.0933  1.0717 -0.7891
 7184TIP3   OH221473   4.552   2.137   4.447 -0.2690 -0.2617  0.3210
 7184TIP3    H121474   4.464   2.135   4.411  0.1913  0.4726 -0.8942
 7184TIP3    H221475   4.606   2.173   4.376  0.7241  0.8415  1.6005
 7185TIP3   OH221476   4.407   1.476   5.565 -0.1432 -1.1079 -0.0188
 7185TIP3    H121477   4.341   1.474   5.496  1.2187 -1.0713 -1.3522
 7185TIP3    H221478   4.488   1.449   5.522  0.8353 -0.6073  1.4554
 7186TIP3   OH221479   6.443   2.803   5.252 -0.5457  0.0511  0.2505
 7186TIP3    H121480   6.414   2.883   5.206 -0.9290 -0.9582 -1.3102
 7186TIP3    H221481   6.535   2.820   5.273 -0.5724  0.8378 -0.2200
 7187TIP3   OH221482   4.042   3.729   2.390 -0.2151 -0.1315 -0.3047
 7187TIP3    H121483   4.083   3.810   2.360 -0.2956  0.0213 -0.0018
 7187TIP3    H221484   3.953   3.754   2.413  0.0945 -0.0588  0.8969
 7188TIP3   OH221485   3.945   3.119   5.036 -0.2636 -0.3921 -0.0425
 7188TIP3    H121486   4.038   3.135   5.020  0.0128 -1.7430  0.1141
 7188TIP3    H221487   3.939   3.102   5.130 -1.1105  2.4905  0.4650
 7189TIP3   OH221488   4.918   3.077   4.941  0.1408  0.2610 -0.3858
 7189TIP3    H121489   4.847   3.135   4.969 -0.4510  0.5670 -2.4092
 7189TIP3    H221490   4.998   3.125   4.962 -0.2910  0.6351  0.4224
 7190TIP3   OH221491   4.369   2.572   5.172  0.2703  0.0513  0.1749
 7190TIP3    H121492   4.284   2.529   5.160  0.9619 -1.0705 -0.7479
 7190TIP3    H221493   4.347   2.658   5.209 -1.2012 -0.6370  0.9504
 7191TIP3   OH221494   5.925   4.301   4.028 -0.6564 -0.0868 -0.2123
 7191TIP3    H121495   5.862   4.328   3.962 -1.2322 -0.4251  0.1993
 7191TIP3    H221496   5.880   4.234   4.080  0.1014 -0.4779 -0.0402
 7192TIP3   OH221497   4.612   2.473   5.213 -0.6189  0.0914  0.0152
 7192TIP3    H121498   4.536   2.482   5.156 -1.8856 -1.1678  1.4676
 7192TIP3    H221499   4.605   2.545   5.276 -1.4012 -0.8352  1.0142
 7193TIP3   OH221500   5.572   2.778   5.456  0.2077  0.7861 -0.0849
 7193TIP3    H121501   5.514   2.805   5.385  1.7279 -0.8730 -2.0083
 7193TIP3    H221502   5.636   2.849   5.464  1.1297  0.1628 -1.6635
 7194TIP3   OH221503   3.589   4.044   4.037 -0.3367  0.1751  0.2202
 7194TIP3    H121504   3.575   4.003   4.122  0.1843  0.3673  0.4013
 7194TIP3    H221505   3.510   4.096   4.022 -0.1983  0.5587  0.8312
 7195TIP3   OH221506   1.962   2.636   3.459  0.3187  0.3908 -0.5735
 7195TIP3    H121507   1.992   2.549   3.433 -1.0081 -0.0019 -0.8005
 7195TIP3    H221508   1.876   2.646   3.419 -2.1259 -0.5082  4.0010
 7196TIP3   OH221509   5.397   0.195   6.669 -0.2255  0.4421  0.2786
 7196TIP3    H121510   5.393   0.100   6.660 -1.6620  0.1809  3.0342
 7196TIP3    H221511   5.310   0.226   6.645  0.1703  1.0429 -0.4016
 7197TIP3   OH221512   8.126   1.060   5.572 -0.2847  0.4572  0.0927
 7197TIP3    H121513   8.079   1.092   5.649 -0.7150 -1.8970  0.8597
 7197TIP3    H221514   8.194   1.002   5.608  0.8326  0.9345 -1.2031
 7198TIP3   OH221515   2.872   2.723   3.792  0.4598 -0.4561 -0.5731
 7198TIP3    H121516   2.833   2.635   3.793  1.6875 -1.0255 -1.0228
 7198TIP3    H221517   2.935   2.720   3.720  1.0122  0.5817 -0.1406
 7199TIP3   OH221518   5.365   1.653   5.397  0.0798  0.0870 -0.0606
 7199TIP3    H121519   5.459   1.644   5.377  0.3312  2.3202 -0.0517
 7199TIP3    H221520   5.323   1.581   5.350  1.7491 -0.7212 -0.3671
 7200TIP3   OH221521   4.869   2.850   4.196  0.1182 -0.4967  0.3896
 7200TIP3    H121522   4.909   2.889   4.118 -0.5114 -0.0087  0.3066
 7200TIP3    H221523   4.893   2.757   4.192 -0.1928 -0.5428 -0.5715
 7201TIP3   OH221524   5.925   1.406   5.393 -0.5908 -0.3784  0.3673
 7201TIP3    H121525   5.908   1.312   5.393 -3.3754  0.0673 -1.0938
 7201TIP3    H221526   5.854   1.444   5.445 -1.4733  1.1704 -1.8682
 7202TIP3   OH221527   5.505   3.099   4.093  0.0604 -0.0540  0.0115
 7202TIP3    H121528   5.440   3.163   4.122 -0.4944 -0.4459 -0.3644
 7202TIP3    H221529   5.514   3.038   4.167  0.3502  0.2691  0.2437
 7203TIP3   OH221530   3.988   3.088   6.109 -0.1109 -0.3081 -0.3156
 7203TIP3    H121531   3.934   3.119   6.036  2.0840 -1.0954 -2.3108
 7203TIP3    H221532   3.939   3.013   6.145 -2.1510  1.2658  0.3145
 7204TIP3   OH221533   5.874   0.165   2.620 -0.1605 -0.3543  0.2657
 7204TIP3    H121534   5.858   0.073   2.598  0.0926  0.0926 -1.9046
 7204TIP3    H221535   5.969   0.173   2.622 -0.1087  0.5297 -2.7678
 7205TIP3   OH221536   5.022   3.283   4.328 -0.2647  0.0231  0.0002
 7205TIP3    H121537   5.007   3.368   4.370  2.3284  1.1085 -1.1537
 7205TIP3    H221538   5.031   3.222   4.402  1.3059  1.3880  0.9745
 7206TIP3   OH221539   3.523   1.751   3.046 -0.2907 -0.5345  0.3912
 7206TIP3    H121540   3.534   1.727   3.139 -2.9425  1.0456  1.1552
 7206TIP3    H221541   3.588   1.820   3.032  0.4317 -1.0904  0.9348
 7207TIP3   OH221542   7.037   2.530   3.544 -0.2071 -0.0609 -0.5727
 7207TIP3    H121543   7.109   2.468   3.544  0.7219  0.9731  1.2152
 7207TIP3    H221544   6.972   2.493   3.603  0.0812  0.3600  0.0135
 7208TIP3   OH221545   3.630   0.614   5.608 -0.0135  0.6077 -0.2021
 7208TIP3    H121546   3.676   0.690   5.643 -0.5408  0.6387  0.4297
 7208TIP3    H221547   3.644   0.619   5.514  2.4707 -0.1652  0.0869
 7209TIP3   OH221548   1.853   1.350   6.544 -0.0145  0.2382  0.4134
 7209TIP3    H121549   1.935   1.373   6.588  0.5931  0.2006 -0.6776
 7209TIP3    H221550   1.830   1.428   6.494 -0.4194  0.0973  0.3783
 7210TIP3   OH221551   5.895   2.808   4.325 -0.2138 -0.0926  0.0403
 7210TIP3    H121552   5.856   2.858   4.397  0.7357 -1.0652  1.2430
 7210TIP3    H221553   5.854   2.722   4.331  0.1156 -0.2799 -0.3839
 7211TIP3   OH221554   4.283   4.704   3.569  0.2583  0.3747  0.4782
 7211TIP3    H121555   4.283   4.797   3.544 -1.0663  0.2170 -0.1444
 7211TIP3    H221556   4.334   4.660   3.501  2.2241  0.8454  1.6094
 7212TIP3   OH221557   5.500   1.600   4.840  0.1460 -0.0960  0.2402
 7212TIP3    H121558   5.490   1.554   4.756 -0.0833  0.8308 -0.2439
 7212TIP3    H221559   5.582   1.647   4.833 -0.6548  1.2711 -0.0881
 7213TIP3   OH221560   6.923   3.777   3.694  0.2873  0.3440  0.0524
 7213TIP3    H121561   6.944   3.766   3.787  0.3572  3.1726  0.3995
 7213TIP3    H221562   6.844   3.830   3.694  0.9335  1.3074 -1.5364
 7214TIP3   OH221563   4.822   0.864   4.389 -0.2332  0.1019 -0.0140
 7214TIP3    H121564   4.865   0.783   4.360  0.3645  0.6683 -0.7565
 7214TIP3    H221565   4.749   0.834   4.443  0.7006 -0.9003  0.7225
 7215TIP3   OH221566   5.436   3.815   2.273  0.0750  0.8351  0.3850
 7215TIP3    H121567   5.382   3.739   2.294 -0.4850  1.0866 -0.1233
 7215TIP3    H221568   5.396   3.851   2.194  0.5823  1.4222  0.3942
 7216TIP3   OH221569   7.156   2.087   2.471 -0.2352 -0.3209 -0.0640
 7216TIP3    H121570   7.124   2.172   2.502 -4.4465 -2.2482  1.2942
 7216TIP3    H221571   7.182   2.041   2.551  1.7086 -0.4495 -0.7566
 7217TIP3   OH221572   5.081   1.944   3.834  0.1052 -0.2946 -0.1789
 7217TIP3    H121573   5.079   1.927   3.928 -1.9089 -1.9066 -0.4883
 7217TIP3    H221574   5.103   1.860   3.794  3.5691  0.9175 -1.0877
 7218TIP3   OH221575   3.474   8.393   4.049  0.4485  0.0968 -0.2077
 7218TIP3    H121576   3.391   8.400   4.003  1.1641  0.5111 -1.4576
 7218TIP3    H221577   3.507   8.306   4.027  0.2498 -0.1476  0.4576
 7219TIP3   OH221578   4.610   2.878   3.076 -0.6987  0.4458  0.5578
 7219TIP3    H121579   4.593   2.965   3.112 -0.0943 -0.3132  2.7942
 7219TIP3    H221580   4.700   2.858   3.103 -0.8815 -0.9120  0.1779
 7220TIP3   OH221581   4.725   7.946   4.593  0.2422  0.2416  0.0688
 7220TIP3    H121582   4.763   7.914   4.675 -0.8287  0.7211  0.7686
 7220TIP3    H221583   4.631   7.953   4.612  0.0075  0.4688 -1.1663
 7221TIP3   OH221584   8.384   2.816   3.158 -0.1892 -0.2276 -0.1432
 7221TIP3    H121585   8.364   2.811   3.252  1.2154 -0.4274  0.1533
 7221TIP3    H221586   8.393   2.910   3.140  1.8350 -0.2851  0.4346
 7222TIP3   OH221587   6.905   2.274   4.653 -0.2465  0.1240  0.5829
 7222TIP3    H121588   6.998   2.275   4.674 -0.6267  2.2686  2.3990
 7222TIP3    H221589   6.868   2.207   4.711  0.2162 -0.9773 -0.3938
 7223TIP3   OH221590   5.936   3.038   4.950 -0.2628 -0.6183  0.3412
 7223TIP3    H121591   5.985   2.991   4.883  1.3860  2.0170 -0.3751
 7223TIP3    H221592   5.849   3.049   4.913 -0.1501 -1.5720 -0.2093
 7224TIP3   OH221593   6.159   0.731   3.935  0.3804  0.3900 -0.3194
 7224TIP3    H121594   6.225   0.765   3.874 -0.2867  1.4986 -0.4398
 7224TIP3    H221595   6.097   0.803   3.946 -0.1127 -0.1840  0.8049
 7225TIP3   OH221596   6.784   2.880   3.992  0.4709  0.4753 -0.2016
 7225TIP3    H121597   6.821   2.808   4.043 -0.2197 -0.3543 -0.8520
 7225TIP3    H221598   6.781   2.954   4.053  0.6551 -0.2128  0.6435
 7226TIP3   OH221599   7.853   1.276   3.543 -0.1532 -0.3877 -0.5143
 7226TIP3    H121600   7.931   1.248   3.496 -0.3824 -1.4823 -0.2522
 7226TIP3    H221601   7.789   1.294   3.474  0.7915  2.0438 -0.8187
 7227TIP3   OH221602   8.255   3.706   4.386 -0.3006  0.0639 -0.4046
 7227TIP3    H121603   8.320   3.766   4.421  1.4931 -1.3757 -1.1241
 7227TIP3    H221604   8.234   3.647   4.458 -0.0471 -0.0817 -0.4486
 7228TIP3   OH221605   4.671   4.276   3.314  0.9204 -0.0910  0.5735
 7228TIP3    H121606   4.679   4.240   3.226 -1.6603 -0.4643  0.4538
 7228TIP3    H221607   4.627   4.208   3.364 -0.8201  1.4894  1.2355
 7229TIP3   OH221608   5.280   2.357   5.667 -0.5547  0.2417  0.0107
 7229TIP3    H121609   5.281   2.400   5.582 -1.4459 -0.5411 -0.3959
 7229TIP3    H221610   5.352   2.294   5.663 -0.3477  0.4767 -0.0114
 7230TIP3   OH221611   5.177   4.970   4.599  0.8819 -0.3448 -0.2504
 7230TIP3    H121612   5.223   5.054   4.603  0.5074 -0.1072 -0.7350
 7230TIP3    H221613   5.236   4.908   4.640  0.6960  0.3574  1.1154
 7231TIP3   OH221614   8.873   2.320   4.591  0.1354  0.7704 -0.1345
 7231TIP3    H121615   8.838   2.380   4.657 -2.1703 -0.2383 -0.3765
 7231TIP3    H221616   8.797   2.298   4.537  1.3867 -0.7439 -1.3154
 7232TIP3   OH221617   8.244   3.299   5.450  0.3098  0.4624  0.3753
 7232TIP3    H121618   8.284   3.279   5.365  0.7596  0.5149  0.5697
 7232TIP3    H221619   8.288   3.240   5.511 -0.6517 -0.2119  0.4286
 7233TIP3   OH221620   6.932   3.183   2.954 -0.2527  0.1408 -0.6199
 7233TIP3    H121621   6.991   3.248   2.991  0.7613 -0.9973 -0.2052
 7233TIP3    H221622   6.974   3.156   2.872  0.1727 -1.1875  0.0222
 7234TIP3   OH221623   6.693   2.839   5.347  0.0051 -0.3323  0.4662
 7234TIP3    H121624   6.755   2.851   5.275 -0.0419  0.3864  0.5435
 7234TIP3    H221625   6.747   2.823   5.424  0.0511 -1.3827  0.2329
 7235TIP3   OH221626   5.363   0.625   3.443 -0.2627  0.1274  0.0308
 7235TIP3    H121627   5.363   0.560   3.514 -1.6617 -1.1196 -1.0787
 7235TIP3    H221628   5.300   0.691   3.471 -1.5744 -0.8821 -0.4855
 7236TIP3   OH221629   8.679   2.967   2.382 -0.4557 -0.3662  0.5574
 7236TIP3    H121630   8.588   2.983   2.406 -0.4151 -0.8554  1.0421
 7236TIP3    H221631   8.707   3.048   2.340 -0.7425  0.2410  1.5282
 7237TIP3   OH221632   5.504   7.947   5.305 -0.1789  0.2421 -0.0155
 7237TIP3    H121633   5.508   7.889   5.228 -0.7453  1.2283 -0.7999
 7237TIP3    H221634   5.575   7.916   5.361  1.0962  0.3220 -1.5259
 7238TIP3   OH221635   5.821   2.904   3.601 -0.0375 -0.1972  0.1612
 7238TIP3    H121636   5.759   2.843   3.560 -1.2723  0.5888  0.8292
 7238TIP3    H221637   5.873   2.849   3.660 -1.3223 -0.5828  0.9607
 7239TIP3   OH221638   7.413   5.359   4.686 -0.4216 -0.3422 -0.3711
 7239TIP3    H121639   7.413   5.435   4.627  0.2402 -0.7002 -0.8356
 7239TIP3    H221640   7.499   5.319   4.674 -0.8529 -1.3000 -0.2902
 7240TIP3   OH221641   8.243   3.343   3.708 -0.5488  0.4550  0.8098
 7240TIP3    H121642   8.252   3.311   3.798 -0.2154  0.5293  0.8059
 7240TIP3    H221643   8.171   3.405   3.711  0.0240  1.1125  1.2061
 7241TIP3   OH221644   6.837   3.253   3.781  0.3998 -0.4875 -0.4222
 7241TIP3    H121645   6.875   3.335   3.813 -0.1751  0.4574 -2.0912
 7241TIP3    H221646   6.910   3.207   3.740  0.0725  0.7649 -2.5149
 7242TIP3   OH221647   5.436   4.306   2.357 -0.5575 -0.1377  0.6515
 7242TIP3    H121648   5.370   4.355   2.406 -0.7362  0.7340 -0.4302
 7242TIP3    H221649   5.416   4.214   2.374 -2.0549  0.1185  0.3204
 7243TIP3   OH221650   6.709   3.957   3.719 -0.3562 -0.1635 -0.2073
 7243TIP3    H121651   6.702   4.011   3.798 -2.5767  1.1165 -1.2121
 7243TIP3    H221652   6.628   3.905   3.719 -0.1567 -0.4771 -1.3827
 7244TIP3   OH221653   6.567   1.588   4.690  0.0847 -0.4719  0.6391
 7244TIP3    H121654   6.598   1.503   4.722  1.2007 -1.3953 -2.6528
 7244TIP3    H221655   6.530   1.569   4.604 -0.2127  2.2814  0.1161
 7245TIP3   OH221656   0.452   1.097   5.188 -0.1821 -0.3368  0.2441
 7245TIP3    H121657   0.498   1.160   5.132  1.2412 -0.9127  0.7345
 7245TIP3    H221658   0.408   1.152   5.253 -1.8282  0.3308 -1.4064
 7246TIP3   OH221659   7.429   1.308   4.468  0.1145 -0.5113 -0.3602
 7246TIP3    H121660   7.345   1.262   4.468  0.6466 -1.5092 -1.7580
 7246TIP3    H221661   7.489   1.249   4.423  1.6469  0.0868  0.8529
 7247TIP3   OH221662   7.038   3.047   3.901 -0.1164 -0.2067  0.2520
 7247TIP3    H121663   7.076   3.055   3.813  1.9426  0.2868  1.1515
 7247TIP3    H221664   6.957   2.997   3.888  1.6837 -2.7971 -1.5615
 7248TIP3   OH221665   6.451   0.775   3.567 -0.6762 -0.9603  0.0041
 7248TIP3    H121666   6.460   0.724   3.486 -0.6367  0.6188 -0.9987
 7248TIP3    H221667   6.455   0.866   3.539 -1.1402 -0.3860  1.7418
 7249TIP3   OH221668   8.228   4.583   2.498 -0.4900  0.1094  0.2104
 7249TIP3    H121669   8.211   4.583   2.404 -0.0035  0.6800  0.1192
 7249TIP3    H221670   8.142   4.594   2.538 -0.5438  1.1984 -0.1988
 7250TIP3   OH221671   7.493   5.092   5.753  0.4332 -0.3267 -0.2592
 7250TIP3    H121672   7.448   5.062   5.832  1.5758  0.0828  0.5590
 7250TIP3    H221673   7.563   5.028   5.739  0.5227 -0.1437 -0.6629
 7251TIP3   OH221674   7.128   0.113   4.632 -0.5022 -0.5241  0.3137
 7251TIP3    H121675   7.074   0.146   4.561 -0.8844 -0.6428  0.5503
 7251TIP3    H221676   7.173   0.037   4.595  0.1164  0.0507 -0.1291
 7252TIP3   OH221677   5.282   2.726   4.090  0.0248 -0.4028  0.1734
 7252TIP3    H121678   5.248   2.708   4.178 -0.8239 -0.9878 -0.2612
 7252TIP3    H221679   5.376   2.710   4.096  0.1414  0.7082  1.2698
 7253TIP3   OH221680   4.152   4.012   4.026 -0.2603 -0.3566 -0.3604
 7253TIP3    H121681   4.179   3.946   3.962  2.1272  0.8763 -0.6803
 7253TIP3    H221682   4.117   3.961   4.099 -0.8503 -1.8653 -1.6673
 7254TIP3   OH221683   6.587   2.817   3.385 -0.7607  0.8769  0.0790
 7254TIP3    H121684   6.539   2.763   3.323  0.6125  0.7244 -0.8833
 7254TIP3    H221685   6.641   2.874   3.330 -1.4717  2.5735  1.0910
 7255TIP3   OH221686   8.136   1.453   3.538 -0.2899 -0.0856  0.0315
 7255TIP3    H121687   8.194   1.378   3.536 -0.3792 -0.1616  0.3246
 7255TIP3    H221688   8.082   1.440   3.616 -0.9227 -0.1833 -0.4192
 7256TIP3   OH221689   5.227   4.235   5.838  0.2400  0.1631  0.1554
 7256TIP3    H121690   5.163   4.193   5.896  0.8469  1.3420  1.7303
 7256TIP3    H221691   5.289   4.277   5.898  2.7775 -1.3670 -1.3086
 7257TIP3   OH221692   7.289   3.702   2.583  0.2100 -0.1084  0.0807
 7257TIP3    H121693   7.278   3.727   2.674 -0.9862 -1.0355  0.2064
 7257TIP3    H221694   7.306   3.784   2.537  0.0561  0.4559  1.0212
 7258TIP3   OH221695   5.885   2.056   6.174  0.0231 -0.0611  0.2975
 7258TIP3    H121696   5.898   2.005   6.094  0.0536  1.2661 -0.5669
 7258TIP3    H221697   5.957   2.031   6.231 -0.8638 -2.1886  0.5519
 7259TIP3   OH221698   3.996   3.523   5.081  0.0080 -0.2558 -0.2702
 7259TIP3    H121699   3.934   3.500   5.151  1.1411 -2.1563  0.1275
 7259TIP3    H221700   4.040   3.601   5.114  0.3813 -1.0078  1.0568
 7260TIP3   OH221701   6.927   5.406   3.506 -0.0299  0.0624 -0.2792
 7260TIP3    H121702   6.853   5.393   3.447  0.2439  0.1878 -0.6495
 7260TIP3    H221703   6.939   5.501   3.509  0.3921  0.0204 -0.5603
 7261TIP3   OH221704   7.175   2.933   4.658  0.1826 -0.1400  0.2509
 7261TIP3    H121705   7.236   2.869   4.696  2.0737  0.7429 -1.2234
 7261TIP3    H221706   7.099   2.881   4.632  0.6836 -1.4077  1.2614
 7262TIP3   OH221707   8.281   4.014   4.658 -0.0794 -0.3535 -0.2956
 7262TIP3    H121708   8.336   3.954   4.707  1.6803  0.2823 -1.4670
 7262TIP3    H221709   8.319   4.100   4.674 -2.1156  0.4088  0.7360
 7263TIP3   OH221710   7.306   2.470   4.789 -0.4213  0.3748  0.2974
 7263TIP3    H121711   7.240   2.484   4.857 -0.9435  1.1070 -0.3581
 7263TIP3    H221712   7.256   2.455   4.709  0.1645 -2.5010  0.4316
 7264TIP3   OH221713   6.288   1.893   3.659  0.3076 -0.0113  0.2663
 7264TIP3    H121714   6.282   1.810   3.613  0.0747  1.3924 -2.3048
 7264TIP3    H221715   6.381   1.914   3.660  0.4396 -0.5592  1.4727
 7265TIP3   OH221716   7.793   4.254   4.025 -0.1118  0.6874 -0.0973
 7265TIP3    H121717   7.829   4.342   4.031  1.4751  0.1930 -1.7403
 7265TIP3    H221718   7.843   4.203   4.089  0.3189  0.5668 -0.5265
 7266TIP3   OH221719   8.314   0.128   5.842 -0.3666 -0.6701  0.0191
 7266TIP3    H121720   8.277   0.087   5.764 -2.0491  3.9078 -1.7829
 7266TIP3    H221721   8.407   0.108   5.838 -0.5094 -0.9746 -2.9122
 7267TIP3   OH221722   7.447   2.090   3.626  0.3541  0.1915 -0.3634
 7267TIP3    H121723   7.486   2.011   3.664  0.0995  0.0431 -0.4122
 7267TIP3    H221724   7.437   2.070   3.533 -1.7158 -0.5279  0.0011
 7268TIP3   OH221725   6.412   2.104   5.205  0.0033  0.6644 -0.0529
 7268TIP3    H121726   6.465   2.046   5.150  1.1039  0.0752  1.5811
 7268TIP3    H221727   6.475   2.169   5.238 -0.7750  1.4248 -0.0417
 7269TIP3   OH221728   0.229   0.831   4.247 -0.3147 -0.0588 -0.2709
 7269TIP3    H121729   0.257   0.757   4.301  0.8930  0.7250  0.1924
 7269TIP3    H221730   0.285   0.903   4.274  0.4309  0.3017 -2.7146
 7270TIP3   OH221731   8.538   1.663   4.804  0.1451  0.3199 -0.2398
 7270TIP3    H121732   8.614   1.654   4.747 -0.3997  0.1066 -0.9265
 7270TIP3    H221733   8.476   1.714   4.753  0.2159  1.3674  0.7086
 7271TIP3   OH221734   7.746   3.016   1.917  0.1554  0.0074 -0.1166
 7271TIP3    H121735   7.722   3.093   1.865  0.8463 -0.0774 -0.5564
 7271TIP3    H221736   7.704   2.943   1.872  0.9435 -0.0970 -0.7012
 7272TIP3   OH221737   6.512   1.511   4.422  0.4779  0.3530  0.4668
 7272TIP3    H121738   6.502   1.607   4.420  0.3703  0.3188 -0.8269
 7272TIP3    H221739   6.492   1.483   4.333 -0.6322 -1.0008  1.1208
 7273TIP3   OH221740   5.222   2.390   4.486 -0.6479  0.3866  0.3338
 7273TIP3    H121741   5.259   2.356   4.568  0.6311  0.7694 -0.0832
 7273TIP3    H221742   5.153   2.327   4.464 -0.4915 -0.1410  1.2908
 7274TIP3   OH221743   7.649   2.265   3.806  0.0795  0.2297 -0.2965
 7274TIP3    H121744   7.618   2.225   3.725  1.7642  0.4622 -1.0901
 7274TIP3    H221745   7.664   2.357   3.782  2.6380 -0.1554 -0.3479
 7275TIP3   OH221746   0.598   1.234   4.319  0.4259  0.4645  0.0284
 7275TIP3    H121747   0.559   1.312   4.358 -0.3833  0.1060 -0.0589
 7275TIP3    H221748   0.561   1.161   4.368  1.7797  0.1590  0.6307
 7276TIP3   OH221749   4.492   7.125   5.247  0.0171  0.1913  0.0338
 7276TIP3    H121750   4.522   7.109   5.158  0.3723 -0.8940  0.3481
 7276TIP3    H221751   4.462   7.216   5.245 -0.8968 -0.1165 -1.4421
 7277TIP3   OH221752   7.185   2.124   3.282  0.2686  0.0934  0.1295
 7277TIP3    H121753   7.224   2.206   3.312 -0.9352  0.5817  0.3864
 7277TIP3    H221754   7.222   2.057   3.341  2.8446  0.1039 -1.3626
 7278TIP3   OH221755   5.765   1.140   5.503  0.1841 -0.1256 -0.3087
 7278TIP3    H121756   5.686   1.190   5.483 -0.4568 -1.6019 -1.5020
 7278TIP3    H221757   5.734   1.067   5.557  0.6253 -0.9993 -1.2132
 7279TIP3   OH221758   7.591   1.721   2.027  0.5447 -0.2845 -0.1007
 7279TIP3    H121759   7.583   1.658   2.098  1.4610 -0.7354 -0.3885
 7279TIP3    H221760   7.593   1.807   2.070 -0.7717 -0.4402  0.2879
 7280TIP3   OH221761   6.719   0.258   4.828 -0.6382 -0.6129 -0.0499
 7280TIP3    H121762   6.735   0.164   4.819 -0.8836 -0.5523 -1.2159
 7280TIP3    H221763   6.805   0.295   4.848 -0.7399 -1.2102  1.5741
 7281TIP3   OH221764   7.191   1.196   2.215  0.1100 -0.0378  0.4814
 7281TIP3    H121765   7.260   1.173   2.277 -0.2512 -1.6053  0.3344
 7281TIP3    H221766   7.188   1.123   2.154  0.1451  1.2832 -1.1280
 7282TIP3   OH221767   7.780   4.157   3.167  0.2040 -0.1076  0.2911
 7282TIP3    H121768   7.833   4.201   3.234  0.2354  1.8033 -0.9705
 7282TIP3    H221769   7.707   4.216   3.151 -1.4147 -1.9177  0.7388
 7283TIP3   OH221770   5.804   3.304   4.371  1.1293  0.4433 -0.0544
 7283TIP3    H121771   5.868   3.236   4.352 -0.1098 -0.5450 -0.7605
 7283TIP3    H221772   5.723   3.256   4.390  0.0884  1.7374 -1.1500
 7284TIP3   OH221773   7.331   1.121   3.071  0.2013  0.1006 -0.1065
 7284TIP3    H121774   7.404   1.062   3.087 -2.0709 -2.4523  1.1135
 7284TIP3    H221775   7.286   1.084   2.996 -1.2499  0.2827  0.6624
 7285TIP3   OH221776   8.032   4.054   3.490  0.1109  0.0475 -0.6174
 7285TIP3    H121777   7.999   3.969   3.519  0.6828  0.5426  1.6197
 7285TIP3    H221778   8.109   4.034   3.437  1.4553 -0.7844  1.5782
 7286TIP3   OH221779   7.878   0.588   5.863  0.4453  0.2130 -0.0010
 7286TIP3    H121780   7.800   0.618   5.815  0.3643  0.1564  0.0965
 7286TIP3    H221781   7.935   0.665   5.865 -0.3095  0.7424  1.3727
 7287TIP3   OH221782   3.416   7.890   3.880  0.3751 -0.3821  0.2411
 7287TIP3    H121783   3.466   7.896   3.961 -0.0355  0.7450  0.4191
 7287TIP3    H221784   3.471   7.934   3.815  0.8496 -1.5581 -0.1887
 7288TIP3   OH221785   5.778   2.993   5.539  0.3971 -0.0784  0.6703
 7288TIP3    H121786   5.736   2.939   5.606 -0.2217  0.3143  0.5937
 7288TIP3    H221787   5.774   3.082   5.573 -0.9469  0.2835 -0.4071
 7289TIP3   OH221788   6.191   4.995   5.571  0.2808  0.4414 -0.2435
 7289TIP3    H121789   6.203   4.922   5.509 -0.0768  1.1452 -1.1580
 7289TIP3    H221790   6.172   4.953   5.655 -0.2049 -0.5203 -0.8241
 7290TIP3   OH221791   7.997   1.269   3.080  0.4926 -0.5381  0.0083
 7290TIP3    H121792   7.928   1.267   3.014 -0.2337 -2.1508  0.7876
 7290TIP3    H221793   8.033   1.180   3.079  0.1662 -0.7067  2.0862
 7291TIP3   OH221794   6.222   1.483   1.870 -0.3592 -0.3546 -0.4033
 7291TIP3    H121795   6.184   1.396   1.860  1.0603 -0.7758 -2.4131
 7291TIP3    H221796   6.306   1.467   1.915 -1.3734  0.3067  1.7960
 7292TIP3   OH221797   5.577   0.980   4.718  0.0714 -0.8022  0.2718
 7292TIP3    H121798   5.544   0.946   4.635  1.9338 -0.7571 -0.4990
 7292TIP3    H221799   5.572   1.075   4.709  1.3586 -0.7766 -0.2475
 7293TIP3   OH221800   6.466   1.801   4.467 -0.4608 -0.1610 -0.3151
 7293TIP3    H121801   6.378   1.836   4.463 -0.2987  0.3248  0.2883
 7293TIP3    H221802   6.523   1.873   4.440 -0.2288 -0.3776 -0.4125
 7294TIP3   OH221803   0.389   3.200   3.572 -0.3303  0.4703 -0.2540
 7294TIP3    H121804   0.327   3.215   3.501  0.4706  2.0257 -0.6532
 7294TIP3    H221805   0.349   3.132   3.626 -1.4162 -0.0061 -1.6321
 7295TIP3   OH221806   8.215   2.936   4.944  0.4926  0.1464 -0.5957
 7295TIP3    H121807   8.243   2.847   4.962 -0.9157  0.0374  1.0929
 7295TIP3    H221808   8.292   2.978   4.905  1.2869 -1.6595 -1.0086
 7296TIP3   OH221809   7.041   0.617   3.488 -0.0407 -0.3384 -0.1814
 7296TIP3    H121810   7.067   0.646   3.400 -1.0252  0.0031 -0.3613
 7296TIP3    H221811   7.058   0.522   3.487 -1.5057 -0.5996 -1.2727
 7297TIP3   OH221812   8.738   5.761   6.273 -0.2949 -0.0394  0.0224
 7297TIP3    H121813   8.729   5.673   6.311 -1.7370  0.3851  0.7082
 7297TIP3    H221814   8.651   5.781   6.237  0.0990  0.9856 -0.3755
 7298TIP3   OH221815   6.490   2.454   4.209 -0.8822 -0.4115 -0.2077
 7298TIP3    H121816   6.475   2.408   4.126 -0.3241  0.0080 -0.5536
 7298TIP3    H221817   6.506   2.545   4.182  0.7984 -0.5632  0.2355
 7299TIP3   OH221818   6.199   0.933   5.533  0.0802 -0.5573  0.2621
 7299TIP3    H121819   6.159   0.869   5.591 -0.1135  0.3464  1.1346
 7299TIP3    H221820   6.125   0.970   5.484  0.3176 -1.8008 -1.0584
 7300TIP3   OH221821   7.621   6.477   0.171  0.4992  0.4747  0.2204
 7300TIP3    H121822   7.536   6.452   0.206  0.5184 -1.6189 -1.1729
 7300TIP3    H221823   7.613   6.466   0.077  1.8373  1.7453 -0.0661
 7301TIP3   OH221824   5.561   1.363   6.484 -0.1400 -0.0983 -0.3622
 7301TIP3    H121825   5.581   1.422   6.557 -2.4287  0.5869 -0.2511
 7301TIP3    H221826   5.601   1.280   6.509  1.3690  0.8382  0.4368
 7302TIP3   OH221827   7.841   4.878   4.677 -0.3468 -0.9562  0.0314
 7302TIP3    H121828   7.773   4.921   4.625  0.0971 -1.9964 -1.4485
 7302TIP3    H221829   7.792   4.824   4.739 -0.8803 -0.3996  0.0985
 7303TIP3   OH221830   6.204   1.653   1.633 -0.2031 -0.3675  0.2405
 7303TIP3    H121831   6.195   1.620   1.722 -0.2189  1.9989  1.1635
 7303TIP3    H221832   6.298   1.669   1.623 -0.2156 -0.5175 -0.1235
 7304TIP3   OH221833   7.831   3.848   4.493 -0.0991  0.8799 -0.2529
 7304TIP3    H121834   7.841   3.856   4.398  0.6584 -0.5489 -0.3029
 7304TIP3    H221835   7.847   3.756   4.511  1.1947  1.4176  1.4403
 7305TIP3   OH221836   8.306   3.508   2.060  0.5927  0.1912 -0.3742
 7305TIP3    H121837   8.330   3.591   2.019  0.3745 -0.3429 -1.6043
 7305TIP3    H221838   8.320   3.442   1.991 -1.9584 -0.4382 -0.3360
 7306TIP3   OH221839   6.510   2.579   5.094  0.1780  0.0421  0.4033
 7306TIP3    H121840   6.415   2.583   5.082  0.2496  0.4624 -0.0255
 7306TIP3    H221841   6.528   2.641   5.165  0.2357  0.6450 -0.1330
 7307TIP3   OH221842   6.999   5.112   2.585 -0.1402  0.3055 -0.3207
 7307TIP3    H121843   7.064   5.042   2.584  0.7635  1.1027  0.8758
 7307TIP3    H221844   6.929   5.079   2.642  0.0198  0.1542 -0.2122
 7308TIP3   OH221845   6.933   2.119   4.294 -0.4412  0.0709 -0.2869
 7308TIP3    H121846   6.868   2.184   4.323  1.3116  1.8824 -0.2761
 7308TIP3    H221847   6.957   2.147   4.206  1.9531  0.7818  0.5535
 7309TIP3   OH221848   6.988   3.543   3.570 -0.0695 -0.5635 -0.0156
 7309TIP3    H121849   6.962   3.635   3.581  0.4408 -0.3551 -0.5424
 7309TIP3    H221850   6.905   3.496   3.563 -0.3402  0.1996 -2.4658
 7310TIP3   OH221851   6.959   3.106   4.814 -0.5183  0.3221  0.0422
 7310TIP3    H121852   6.966   3.035   4.750  1.9833  1.1286 -0.6571
 7310TIP3    H221853   6.922   3.179   4.766 -1.4029  0.0402  0.2911
 7311TIP3   OH221854   3.665   3.307   5.328  0.3838  0.5176  0.2408
 7311TIP3    H121855   3.579   3.339   5.298  1.1276  1.6816 -0.7091
 7311TIP3    H221856   3.688   3.239   5.264 -1.4000 -2.3103  2.5167
 7312TIP3   OH221857   5.447   2.541   2.405 -0.1703 -0.1157  0.2588
 7312TIP3    H121858   5.364   2.494   2.396  0.2254 -0.8348  0.2931
 7312TIP3    H221859   5.489   2.501   2.482  0.2561  0.1639  0.1754
 7313TIP3   OH221860   4.666   3.144   3.938  0.0610  0.1781  0.0074
 7313TIP3    H121861   4.582   3.190   3.946 -0.1055  0.2105 -1.7214
 7313TIP3    H221862   4.644   3.052   3.955 -0.6503 -0.0560 -1.9880
 7314TIP3   OH221863   5.111   2.552   4.835 -0.3753 -0.3664 -0.3095
 7314TIP3    H121864   5.160   2.601   4.901 -2.1633  1.6960 -0.4733
 7314TIP3    H221865   5.125   2.460   4.858  1.0479  0.2542  1.4363
 7315TIP3   OH221866   6.895   2.248   2.738 -0.4016 -0.5351  0.2384
 7315TIP3    H121867   6.821   2.307   2.753 -0.2881  0.1534 -1.7785
 7315TIP3    H221868   6.961   2.276   2.802 -1.0063  0.3634  0.4828
 7316TIP3   OH221869   7.170   2.147   5.310  0.7412 -0.3030 -0.4639
 7316TIP3    H121870   7.205   2.173   5.396  0.4383  0.4566 -0.5661
 7316TIP3    H221871   7.106   2.079   5.330  0.0184  0.4967  0.0080
 7317TIP3   OH221872   8.750   2.970   1.951 -0.0790  0.0481  0.4696
 7317TIP3    H121873   8.799   3.003   1.875 -0.6877 -0.4539 -0.1503
 7317TIP3    H221874   8.698   2.898   1.916  0.5878 -1.0248  1.6347
 7318TIP3   OH221875   4.734   5.044   5.757  0.7299  0.6569 -0.2316
 7318TIP3    H121876   4.664   5.036   5.823 -0.0800 -0.4837 -1.2090
 7318TIP3    H221877   4.761   4.954   5.740  1.4850  1.0026 -0.8857
 7319TIP3   OH221878   7.466   1.609   3.577 -0.4955  0.6710  0.2043
 7319TIP3    H121879   7.495   1.550   3.647 -1.1941  0.1544  0.0684
 7319TIP3    H221880   7.540   1.669   3.564 -0.0149  0.2123  0.7690
 7320TIP3   OH221881   7.253   1.705   3.814  0.3809 -0.1402 -0.4450
 7320TIP3    H121882   7.255   1.612   3.789  2.1513  0.0833 -1.2777
 7320TIP3    H221883   7.215   1.749   3.738 -0.9979 -0.2374  0.1810
 7321TIP3   OH221884   5.337   2.186   3.558 -0.0984  0.3528  0.2474
 7321TIP3    H121885   5.432   2.184   3.545 -0.4283  0.5771 -2.6026
 7321TIP3    H221886   5.302   2.150   3.477 -2.4207 -1.6672  2.0702
 7322TIP3   OH221887   5.397   1.045   6.139  0.1737 -0.3318 -0.3466
 7322TIP3    H121888   5.325   1.037   6.077 -0.7738  1.0422  0.5638
 7322TIP3    H221889   5.426   1.135   6.131 -0.1404 -0.0618  1.4160
 7323TIP3   OH221890   6.671   0.076   3.105 -0.3332 -0.3704  0.2931
 7323TIP3    H121891   6.759   0.101   3.133 -0.0635  2.5300 -2.8516
 7323TIP3    H221892   6.685   0.000   3.048  0.0028 -0.4751  0.5088
 7324TIP3   OH221893   4.778   3.107   2.613 -0.3218 -0.1709 -0.0598
 7324TIP3    H121894   4.824   3.049   2.552 -0.6106 -0.6651  0.1955
 7324TIP3    H221895   4.693   3.066   2.627  1.2429 -2.3215  3.9643
 7325TIP3   OH221896   6.208   0.289   2.903 -0.1286  0.4511 -0.2748
 7325TIP3    H121897   6.224   0.210   2.954 -2.3793 -0.7856 -1.4316
 7325TIP3    H221898   6.184   0.258   2.816 -0.0576  2.4372 -1.0390
 7326TIP3   OH221899   7.148   0.750   5.132  0.0735  0.0129  0.5115
 7326TIP3    H121900   7.140   0.821   5.069  1.8562  0.0497  0.2917
 7326TIP3    H221901   7.146   0.792   5.217  0.6553  0.2923  0.3915
 7327TIP3   OH221902   7.794   2.013   3.283  0.3445  0.0058 -0.2664
 7327TIP3    H121903   7.718   1.959   3.307 -0.2205 -0.9805 -3.9864
 7327TIP3    H221904   7.768   2.056   3.202  2.9596  1.4342 -0.3946
 7328TIP3   OH221905   7.241   3.001   5.449 -0.1368  0.1395 -0.3111
 7328TIP3    H121906   7.317   2.980   5.504 -1.0755  0.2896  1.0871
 7328TIP3    H221907   7.245   3.096   5.438 -0.3427  0.1944  0.0926
 7329TIP3   OH221908   5.830   1.940   1.863 -0.7643  0.2706 -0.8787
 7329TIP3    H121909   5.737   1.952   1.877 -0.8139 -1.2745  0.2081
 7329TIP3    H221910   5.837   1.870   1.798 -0.3681  1.2000 -1.8614
 7330TIP3   OH221911   8.576   1.585   2.272  0.4559 -0.5075 -0.4440
 7330TIP3    H121912   8.548   1.570   2.182 -5.1169 -2.2313  1.3597
 7330TIP3    H221913   8.617   1.502   2.298  0.8190 -0.4773 -0.8959
 7331TIP3   OH221914   7.553   1.726   4.795 -0.2412 -0.4994  0.1127
 7331TIP3    H121915   7.641   1.764   4.797 -0.5826  0.3138 -0.1355
 7331TIP3    H221916   7.542   1.689   4.883 -0.5688  1.5463  0.9667
 7332TIP3   OH221917   6.617   2.016   3.341 -0.1842 -0.4899 -0.0766
 7332TIP3    H121918   6.681   2.086   3.330 -0.1003 -0.3468  1.2982
 7332TIP3    H221919   6.636   1.954   3.269  1.9673 -0.8293  0.7526
 7333TIP3   OH221920   5.658   4.180   3.673  0.2710  0.3496  0.0318
 7333TIP3    H121921   5.731   4.192   3.611 -0.7166 -0.3059 -1.2728
 7333TIP3    H221922   5.694   4.123   3.740  0.7526 -0.6005 -1.0064
 7334TIP3   OH221923   7.061   3.281   5.444 -0.0062 -0.0389  0.3322
 7334TIP3    H121924   7.065   3.286   5.540 -1.7957 -0.0683  0.4366
 7334TIP3    H221925   6.967   3.275   5.425  0.3286  0.1319 -1.4354
 7335TIP3   OH221926   5.613   1.038   5.121 -0.0940  0.4925  0.6887
 7335TIP3    H121927   5.661   0.990   5.053 -1.6970  0.9273 -0.7970
 7335TIP3    H221928   5.654   1.124   5.124  0.6094  0.1477  0.9667
 7336TIP3   OH221929   4.516   2.919   2.311  0.4851 -0.0365 -0.1777
 7336TIP3    H121930   4.518   2.859   2.385  0.8867 -0.1937 -0.3138
 7336TIP3    H221931   4.523   3.006   2.350  0.6674 -0.1180 -0.0246
 7337TIP3   OH221932   5.217   3.979   4.025 -0.3761 -0.1600  0.0233
 7337TIP3    H121933   5.168   4.044   4.075 -2.0310 -0.3907 -1.2588
 7337TIP3    H221934   5.242   4.026   3.945 -2.2430 -1.2846 -1.2622
 7338TIP3   OH221935   6.230   4.123   4.296 -0.5302 -0.0857  0.1566
 7338TIP3    H121936   6.217   4.150   4.386 -1.3103  0.6260 -0.1690
 7338TIP3    H221937   6.325   4.114   4.287 -0.2659  2.4167  0.2966
 7339TIP3   OH221938   4.481   8.312   3.252 -0.3776 -0.5645 -0.0457
 7339TIP3    H121939   4.393   8.293   3.219 -0.5948 -1.6287  1.1024
 7339TIP3    H221940   4.507   8.232   3.297  0.5315  0.3170  1.0220
 7340TIP3   OH221941   6.335   2.767   4.327  0.2809  0.2323  0.6406
 7340TIP3    H121942   6.295   2.780   4.241 -0.0026 -1.6390  0.4641
 7340TIP3    H221943   6.424   2.737   4.308  0.1289 -0.4584  0.9878
 7341TIP3   OH221944   5.258   2.004   2.549 -0.0076  0.5530 -0.1334
 7341TIP3    H121945   5.280   2.027   2.639  0.6269  1.4433 -0.5111
 7341TIP3    H221946   5.323   2.050   2.496  0.4149 -0.9939 -0.9835
 7342TIP3   OH221947   4.212   2.317   5.492 -0.6560 -1.0546  0.4148
 7342TIP3    H121948   4.170   2.273   5.566 -2.2018  0.7451  0.6423
 7342TIP3    H221949   4.140   2.336   5.431 -0.2470  2.1633  0.8513
 7343TIP3   OH221950   5.529   3.952   4.643  0.1695 -0.1885 -0.2168
 7343TIP3    H121951   5.597   3.925   4.581 -1.2160 -2.7039 -0.7242
 7343TIP3    H221952   5.569   3.942   4.729  1.0302  0.1438 -0.5696
 7344TIP3   OH221953   7.969   3.225   3.788  0.0603 -0.2051  0.4345
 7344TIP3    H121954   7.968   3.308   3.740  1.7096 -1.6779 -2.3118
 7344TIP3    H221955   8.020   3.243   3.867  1.4741  1.0839 -0.7434
 7345TIP3   OH221956   6.213   1.930   1.802 -0.4142  0.4499 -0.1778
 7345TIP3    H121957   6.178   1.878   1.729 -1.8795  1.3076 -0.0969
 7345TIP3    H221958   6.220   2.019   1.768  2.3441  0.2172 -0.3947
 7346TIP3   OH221959   7.525   3.318   3.613 -0.0209 -0.0720  0.4279
 7346TIP3    H121960   7.534   3.374   3.536 -2.7941  0.4540  0.4448
 7346TIP3    H221961   7.505   3.378   3.685 -0.0892 -0.8219  1.0513
 7347TIP3   OH221962   5.089   3.268   6.157  0.0854 -0.1836 -1.0301
 7347TIP3    H121963   5.009   3.276   6.105 -0.6274 -1.7236 -0.2103
 7347TIP3    H221964   5.130   3.188   6.126  0.1953 -0.5513  0.0504
 7348TIP3   OH221965   5.240   1.829   3.353 -0.1533  0.1981 -0.2491
 7348TIP3    H121966   5.169   1.788   3.304  0.4230 -0.1263 -0.8235
 7348TIP3    H221967   5.239   1.786   3.438  0.6782 -1.2816 -0.9650
 7349TIP3   OH221968   7.470   2.862   4.926  0.4815 -0.1714  0.5857
 7349TIP3    H121969   7.559   2.888   4.953  0.3508  1.2830 -0.3474
 7349TIP3    H221970   7.484   2.800   4.854  0.7172  2.2997 -1.5339
 7350TIP3   OH221971   7.578   1.133   4.959  0.5706  0.0321  0.2904
 7350TIP3    H121972   7.674   1.124   4.955  0.7012  1.7057 -1.9026
 7350TIP3    H221973   7.547   1.049   4.990  2.7073 -1.0433 -0.3765
 7351TIP3   OH221974   7.436   4.109   3.132  0.2263 -0.1735 -0.2915
 7351TIP3    H121975   7.434   4.182   3.194 -0.0850  0.1206 -0.6454
 7351TIP3    H221976   7.370   4.048   3.165  1.5281 -0.9967  0.8469
 7352TIP3   OH221977   7.581   1.506   2.198 -0.3346  0.0439  0.3815
 7352TIP3    H121978   7.670   1.489   2.229  0.1994  0.3295 -0.9667
 7352TIP3    H221979   7.535   1.542   2.275  0.6463 -0.3117  1.1406
 7353TIP3   OH221980   8.005   3.344   6.630 -0.0057 -0.0043  0.2510
 7353TIP3    H121981   7.934   3.285   6.605  1.1804 -0.8660 -1.1824
 7353TIP3    H221982   7.991   3.422   6.578 -0.1058 -0.0337  0.2337
 7354TIP3   OH221983   7.033   1.294   4.892 -0.0324 -0.4851 -0.1435
 7354TIP3    H121984   7.113   1.246   4.873 -0.6648 -2.1896  1.4192
 7354TIP3    H221985   6.981   1.287   4.811  0.8084 -0.5165 -0.6887
 7355TIP3   OH221986   7.477   2.622   2.670 -0.1629  0.0744 -0.5146
 7355TIP3    H121987   7.560   2.666   2.689  1.0148 -2.0381 -0.6556
 7355TIP3    H221988   7.423   2.639   2.747  0.6285  0.9025 -0.1310
 7356TIP3   OH221989   8.787   2.086   6.927 -0.2469 -0.1758 -0.1835
 7356TIP3    H121990   8.859   2.125   6.877 -0.4053  0.4423  0.0566
 7356TIP3    H221991   8.812   1.995   6.940  1.9520  0.7660  2.5693
 7357TIP3   OH221992   6.922   2.811   6.607  0.4744 -0.2060  0.0087
 7357TIP3    H121993   6.850   2.835   6.666  0.7450  1.5145 -0.3394
 7357TIP3    H221994   6.893   2.730   6.566 -0.5432 -0.4198  1.1027
 7358TIP3   OH221995   8.336   1.504   4.821 -0.0212  0.5926 -0.3597
 7358TIP3    H121996   8.420   1.548   4.815 -0.0597  1.2502  3.1926
 7358TIP3    H221997   8.336   1.462   4.907 -3.4021  0.8254 -0.1573
 7359TIP3   OH221998   5.421   0.330   4.740  0.3084 -0.2358  0.6255
 7359TIP3    H121999   5.426   0.419   4.705  0.0679 -0.0728  1.0030
 7359TIP3    H222000   5.438   0.274   4.664  0.6236  0.1323  0.4179
 7360TIP3   OH222001   4.413   4.974   5.318 -1.0862 -0.0841  0.3832
 7360TIP3    H122002   4.430   5.008   5.405 -3.0938  0.8689  0.4199
 7360TIP3    H222003   4.468   5.027   5.260 -2.0160  1.3217  0.7625
 7361TIP3   OH222004   7.583   1.840   3.424 -0.0697 -0.5875 -0.3166
 7361TIP3    H122005   7.597   1.753   3.385 -0.1086 -0.1415 -1.3530
 7361TIP3    H222006   7.644   1.843   3.497  0.0987 -1.4051 -0.4096
 7362TIP3   OH222007   7.222   2.726   5.023 -0.2539  0.0584  0.9653
 7362TIP3    H122008   7.181   2.787   5.084  1.1221 -0.3979  2.3914
 7362TIP3    H222009   7.301   2.771   4.994 -1.0545  0.3969 -0.7479
 7363TIP3   OH222010   7.874   0.645   5.051  0.1680  0.0402 -0.3370
 7363TIP3    H122011   7.951   0.675   5.100 -1.4991  1.1273  1.6738
 7363TIP3    H222012   7.842   0.724   5.007  0.5295 -0.5436 -1.6794
 7364TIP3   OH222013   0.255   2.585   5.309 -0.0254  0.0892 -0.7362
 7364TIP3    H122014   0.162   2.603   5.318 -0.0933  0.0700 -1.3970
 7364TIP3    H222015   0.264   2.546   5.222  0.1448 -2.9706  0.5906
 7365TIP3   OH222016   5.729   2.578   5.533  0.3484 -0.2821  0.1884
 7365TIP3    H122017   5.663   2.641   5.504 -0.3306 -1.9913 -2.1530
 7365TIP3    H222018   5.682   2.516   5.587  0.6236  0.0968  0.8699
 7366TIP3   OH222019   6.870   3.542   2.692  0.3289  0.7425 -0.0479
 7366TIP3    H122020   6.818   3.474   2.648  0.3784  0.6878 -0.0223
 7366TIP3    H222021   6.864   3.520   2.785 -0.7898  1.5709  0.0818
 7367TIP3   OH222022   4.673   3.382   3.430 -0.1971 -0.2515 -0.4382
 7367TIP3    H122023   4.579   3.363   3.435  0.0082 -1.3993 -0.7680
 7367TIP3    H222024   4.690   3.393   3.337  0.3142 -1.8162 -0.5530
 7368TIP3   OH222025   7.477   3.089   3.430  0.0527 -0.6679  0.1923
 7368TIP3    H122026   7.509   3.147   3.498  1.4656 -0.2089 -0.8512
 7368TIP3    H222027   7.392   3.058   3.463 -0.2109  1.1025  1.2434
 7369TIP3   OH222028   6.029   2.400   2.879 -0.5171  0.0950  0.4616
 7369TIP3    H122029   6.108   2.410   2.826 -1.6362  0.1005 -1.2691
 7369TIP3    H222030   6.056   2.345   2.952  1.1436  0.3141  0.0373
 7370TIP3   OH222031   7.402   2.251   5.624  0.6683  0.2436 -0.2855
 7370TIP3    H122032   7.380   2.171   5.576 -0.6644  0.1847  0.4104
 7370TIP3    H222033   7.487   2.233   5.665  0.1585 -0.9702  0.2344
 7371TIP3   OH222034   0.194   3.256   4.463  1.5079 -0.1193  0.3889
 7371TIP3    H122035   0.200   3.347   4.431 -1.1715 -0.3405 -0.8760
 7371TIP3    H222036   0.177   3.205   4.384 -0.5742 -1.2802  1.5690
 7372TIP3   OH222037   6.153   2.155   4.627 -0.2521 -0.4371 -0.5999
 7372TIP3    H122038   6.242   2.192   4.620 -0.9610  1.1030 -1.7763
 7372TIP3    H222039   6.125   2.145   4.536 -0.8450 -2.0710 -0.2523
 7373TIP3   OH222040   7.962   4.084   4.172  0.6061  0.1974 -0.1700
 7373TIP3    H122041   7.880   4.044   4.201  0.4638  1.4914  1.2797
 7373TIP3    H222042   8.013   4.011   4.136 -0.2125 -1.0175  1.1061
 7374TIP3   OH222043   8.788   3.748   6.736 -0.4773 -0.2740  0.2705
 7374TIP3    H122044   8.798   3.655   6.755  0.2497 -0.2230  0.1428
 7374TIP3    H222045   8.810   3.792   6.818 -2.4024 -0.2710  0.8190
 7375TIP3   OH222046   8.450   1.619   2.941  0.2208  0.1855  0.4717
 7375TIP3    H122047   8.465   1.711   2.916  1.8988  0.4066  2.1977
 7375TIP3    H222048   8.368   1.621   2.990  0.3895  0.8342  0.7380
 7376TIP3   OH222049   8.657   1.717   3.875 -0.1434 -0.2541  0.0106
 7376TIP3    H122050   8.613   1.688   3.795  0.0506  0.1171 -0.2321
 7376TIP3    H222051   8.653   1.642   3.934  0.1541 -0.7014 -0.5342
 7377TIP3   OH222052   8.029   4.404   2.834 -0.6281  0.7086  0.0492
 7377TIP3    H122053   8.119   4.375   2.846 -0.8703 -0.1102 -0.1244
 7377TIP3    H222054   8.019   4.476   2.897  0.6931  2.0302 -1.2233
 7378TIP3   OH222055   5.751   3.109   5.318  0.3479 -0.5458 -0.2915
 7378TIP3    H122056   5.770   3.073   5.404  0.5078 -0.3864 -0.2591
 7378TIP3    H222057   5.834   3.104   5.271  0.0894 -1.2748 -0.6705
 7379TIP3   OH222058   6.293   2.180   5.875  0.2593  0.1588  0.1925
 7379TIP3    H122059   6.247   2.118   5.818 -0.8477  0.3442  0.8547
 7379TIP3    H222060   6.369   2.131   5.907  0.9409  0.0931 -1.4998
 7380TIP3   OH222061   8.239   3.535   2.879  0.2997  0.4405  0.1872
 7380TIP3    H122062   8.316   3.564   2.830  1.0507 -2.8190 -0.6734
 7380TIP3    H222063   8.177   3.507   2.812 -0.3187 -0.1185  0.9799
 7381TIP3   OH222064   5.905   2.583   3.513 -0.1301 -0.6511 -0.2503
 7381TIP3    H122065   5.872   2.495   3.494  0.6590 -0.8165 -0.8687
 7381TIP3    H222066   5.962   2.604   3.439  1.0151 -0.2993  0.7276
 7382TIP3   OH222067   6.811   1.795   0.912 -0.4481 -0.1564 -0.4390
 7382TIP3    H122068   6.897   1.791   0.954 -0.1580 -0.5935 -1.0675
 7382TIP3    H222069   6.753   1.831   0.980  0.5586  1.7321 -0.5428
 7383TIP3   OH222070   7.017   2.268   3.053  0.9394 -0.3143  0.4567
 7383TIP3    H122071   7.079   2.291   3.122  2.4299 -3.1232  0.1135
 7383TIP3    H222072   7.046   2.318   2.977  1.5267 -0.0437  0.8610
 7384TIP3   OH222073   6.327   2.607   4.573  0.5296 -0.2777 -0.3221
 7384TIP3    H122074   6.300   2.650   4.492 -2.6621 -1.9828 -0.2729
 7384TIP3    H222075   6.378   2.532   4.545 -0.9434 -1.1149 -0.8105
 7385TIP3   OH222076   6.702   3.539   3.518  0.2684 -0.3972  0.2032
 7385TIP3    H122077   6.706   3.503   3.607  0.4606 -0.5551  0.1331
 7385TIP3    H222078   6.609   3.539   3.496  0.0310  1.3406  1.0910
 7386TIP3   OH222079   7.879   0.801   4.173 -0.2275 -0.4527  0.5256
 7386TIP3    H122080   7.870   0.876   4.231  0.0559 -2.1868  2.9060
 7386TIP3    H222081   7.935   0.832   4.102  2.3396  0.8128  2.9848
 7387TIP3   OH222082   3.833   7.612   3.190 -0.0727  0.3247 -0.0125
 7387TIP3    H122083   3.752   7.662   3.186  0.2932  1.0551  1.3647
 7387TIP3    H222084   3.806   7.522   3.208 -0.5333  0.6806  1.0494
 7388TIP3   OH222085   6.686   1.441   6.591 -0.5823  0.2974  0.1571
 7388TIP3    H122086   6.771   1.421   6.631 -0.2650 -0.8228 -1.0481
 7388TIP3    H222087   6.705   1.449   6.498 -1.6839  0.7828 -0.0294
 7389TIP3   OH222088   5.984   3.412   5.495 -0.1003 -0.0441 -0.2158
 7389TIP3    H122089   6.025   3.469   5.560  0.4059 -1.2532  0.5359
 7389TIP3    H222090   6.050   3.402   5.426  0.3402 -0.8304  0.3116
 7390TIP3   OH222091   8.333   2.079   2.349  0.0125 -0.4046  0.3336
 7390TIP3    H122092   8.270   2.044   2.286  0.7616  0.1227 -0.7266
 7390TIP3    H222093   8.365   2.002   2.397  0.6722 -1.0282 -1.0819
 7391TIP3   OH222094   6.326   3.047   3.316 -0.2212  0.7035  0.3127
 7391TIP3    H122095   6.291   2.968   3.358  0.1264  1.2061  1.5903
 7391TIP3    H222096   6.377   3.089   3.385  2.5303  0.2301 -1.3712
 7392TIP3   OH222097   6.392   2.300   4.007  0.1680 -0.8801 -0.0029
 7392TIP3    H122098   6.442   2.220   3.993  1.0515 -0.3263 -0.0032
 7392TIP3    H222099   6.308   2.283   3.964 -0.3691 -2.5395  1.6300
 7393TIP3   OH222100   6.940   1.701   3.365  0.0827 -0.7167 -0.1506
 7393TIP3    H122101   6.989   1.715   3.284  1.3034 -0.4163  0.6169
 7393TIP3    H222102   6.908   1.612   3.359 -0.4489 -0.4556 -1.2816
 7394TIP3   OH222103   0.392   2.301   0.458  0.1008 -0.2631  0.2220
 7394TIP3    H122104   0.401   2.206   0.469 -0.8609 -0.2349  1.3217
 7394TIP3    H222105   0.340   2.311   0.378 -0.2399 -0.6821  0.3892
 7395TIP3   OH222106   7.148   4.555   4.035  0.0999  0.2912  0.0868
 7395TIP3    H122107   7.240   4.527   4.028  0.9765  3.1526 -0.5050
 7395TIP3    H222108   7.132   4.560   4.129 -0.1508 -2.2793  0.2150
 7396TIP3   OH222109   5.540   4.249   4.453  0.2325 -0.0283  0.1178
 7396TIP3    H122110   5.560   4.162   4.418 -0.3441 -0.2099  0.2430
 7396TIP3    H222111   5.626   4.292   4.462  0.2848  0.5179 -2.7833
 7397TIP3   OH222112   7.946   3.459   3.682  0.7004  0.0474 -0.2316
 7397TIP3    H122113   7.903   3.528   3.733  0.5625 -0.6711  0.6370
 7397TIP3    H222114   7.890   3.447   3.606 -0.3952 -0.5378  0.6515
 7398TIP3   OH222115   6.341   4.395   4.613  0.0187  0.6341 -0.7338
 7398TIP3    H122116   6.415   4.442   4.652 -0.9876  1.5522  0.1214
 7398TIP3    H222117   6.268   4.456   4.622 -1.1091 -0.7489 -0.4657
 7399TIP3   OH222118   2.248   6.847   5.441  0.0812 -0.3446 -0.2705
 7399TIP3    H122119   2.342   6.861   5.433  0.1283 -1.0024 -0.9223
 7399TIP3    H222120   2.208   6.914   5.385  0.1978 -0.6777 -0.7567
 7400TIP3   OH222121   7.601   2.428   3.093 -0.3487  0.1686  0.4254
 7400TIP3    H122122   7.674   2.367   3.092 -1.0963 -0.7241 -0.5811
 7400TIP3    H222123   7.637   2.509   3.057 -0.3510 -0.8797 -2.0272
 7401TIP3   OH222124   7.812   1.655   3.065 -0.2757  0.0215 -0.0020
 7401TIP3    H122125   7.722   1.655   3.034 -0.3155 -0.9007  0.1073
 7401TIP3    H222126   7.818   1.579   3.121 -0.2801  1.8095  2.5143
 7402TIP3   OH222127   7.049   3.126   3.627  0.0933  0.3753  0.1728
 7402TIP3    H122128   7.088   3.207   3.593  2.0039 -0.2917  0.7825
 7402TIP3    H222129   7.062   3.062   3.557  0.3450  0.0710  0.5004
 7403TIP3   OH222130   8.326   4.133   3.747  0.1165 -0.2633  0.3086
 7403TIP3    H122131   8.236   4.100   3.746  0.0965 -0.2264  0.8998
 7403TIP3    H222132   8.343   4.155   3.838  0.7967 -0.4620  0.2348
 7404TIP3   OH222133   4.657   1.782   0.736  0.0807  0.4109  0.4228
 7404TIP3    H122134   4.657   1.728   0.815  1.8565  0.9639  0.8210
 7404TIP3    H222135   4.746   1.816   0.730 -1.0231  3.4109  0.2691
 7405TIP3   OH222136   5.415   2.483   4.935 -0.4502  0.7736  0.4067
 7405TIP3    H122137   5.368   2.558   4.971  1.8797  0.8031  3.6475
 7405TIP3    H222138   5.470   2.520   4.866 -0.8658  1.6886  0.5606
 7406TIP3   OH222139   5.295   1.720   2.150  0.7847  0.0068  0.2424
 7406TIP3    H122140   5.244   1.657   2.201 -0.8655 -0.8084 -2.3492
 7406TIP3    H222141   5.342   1.668   2.086  1.6757  1.1472 -0.0475
 7407TIP3   OH222142   5.620   3.382   5.304 -0.1024  0.4251  0.2263
 7407TIP3    H122143   5.607   3.366   5.397 -2.9374 -0.0743 -0.2133
 7407TIP3    H222144   5.664   3.303   5.271 -3.0169 -1.2926  0.3506
 7408TIP3   OH222145   6.816   1.195   3.946 -0.0061 -0.4556 -0.0460
 7408TIP3    H122146   6.897   1.242   3.966  0.2911 -0.7563 -0.5495
 7408TIP3    H222147   6.770   1.191   4.030 -0.2182  1.0693 -0.0754
 7409TIP3   OH222148   8.263   0.207   4.534 -0.9462 -0.3214  0.2393
 7409TIP3    H122149   8.358   0.202   4.548 -0.4921  1.2638 -2.0836
 7409TIP3    H222150   8.229   0.127   4.574  1.5000 -1.5018  0.0578
 7410TIP3   OH222151   7.167   0.589   4.329 -0.1143 -0.4727 -0.3608
 7410TIP3    H122152   7.165   0.603   4.423 -1.9576  1.2340 -0.6079
 7410TIP3    H222153   7.167   0.494   4.318 -2.5646 -0.6968  1.3400
 7411TIP3   OH222154   7.426   0.162   5.185  0.8879  0.0900  0.3724
 7411TIP3    H122155   7.341   0.204   5.199  0.7944  0.5746 -1.4610
 7411TIP3    H222156   7.464   0.155   5.273 -1.0539 -0.1760  1.2165
 7412TIP3   OH222157   6.577   1.131   2.866 -0.7552 -0.0764 -0.6596
 7412TIP3    H122158   6.539   1.044   2.855 -1.7684  0.1473  0.8531
 7412TIP3    H222159   6.544   1.182   2.793 -0.4983 -0.8464 -1.3162
 7413TIP3   OH222160   5.314   0.656   4.493 -0.2385  0.2051  0.0631
 7413TIP3    H122161   5.374   0.640   4.566 -1.4508  0.4925  1.1573
 7413TIP3    H222162   5.250   0.585   4.498 -0.5108  0.4048 -0.5278
 7414TIP3   OH222163   7.273   0.706   3.879 -0.1770 -0.0910 -0.0432
 7414TIP3    H122164   7.301   0.707   3.971  2.7828 -0.3075 -0.8966
 7414TIP3    H222165   7.246   0.616   3.863 -0.9694  0.0105  0.6742
 7415TIP3   OH222166   0.380   2.132   2.823 -0.0385 -0.4626  0.9258
 7415TIP3    H122167   0.379   2.228   2.820 -1.1697 -0.5183 -2.2296
 7415TIP3    H222168   0.344   2.111   2.910 -1.8738  1.9563  0.8241
 7416TIP3   OH222169   8.441   2.368   3.901 -0.2439 -0.4283  0.2833
 7416TIP3    H122170   8.439   2.290   3.847  1.7006  0.3205 -0.9350
 7416TIP3    H222171   8.488   2.433   3.848 -0.5986  1.1202  1.8193
 7417TIP3   OH222172   8.799   4.098   2.888  0.1245  0.0095  0.4050
 7417TIP3    H122173   8.873   4.039   2.899 -0.9052 -1.2072  0.8503
 7417TIP3    H222174   8.836   4.174   2.841  1.5616 -0.7267  0.3175
 7418TIP3   OH222175   5.256   2.053   4.368  0.5619 -0.0409 -0.2339
 7418TIP3    H122176   5.323   1.993   4.401 -2.5037 -3.2663  0.5253
 7418TIP3    H222177   5.259   2.043   4.273  0.0098 -1.5838 -0.1143
 7419TIP3   OH222178   4.616   3.683   5.457 -0.4881 -0.1255  0.0993
 7419TIP3    H122179   4.566   3.749   5.504 -1.1328 -0.5221 -0.0324
 7419TIP3    H222180   4.707   3.700   5.482 -0.4884  1.7792 -1.1349
 7420TIP3   OH222181   0.228   4.611   3.670 -0.1053 -0.0630  0.2996
 7420TIP3    H122182   0.284   4.687   3.656  0.6904 -0.5140  0.9545
 7420TIP3    H222183   0.206   4.615   3.763 -2.7970  1.2020 -0.3375
 7421TIP3   OH222184   5.031   2.462   6.768 -0.0743 -0.1340  0.8851
 7421TIP3    H122185   4.972   2.536   6.754  0.6251  0.0377 -1.2982
 7421TIP3    H222186   5.116   2.501   6.789  0.2299 -0.3246  0.0053
 7422TIP3   OH222187   1.453   6.411   0.500 -0.0414 -0.2579 -0.2074
 7422TIP3    H122188   1.476   6.481   0.561  0.6018 -1.0387  0.4542
 7422TIP3    H222189   1.357   6.408   0.502  0.0167 -1.2213  1.8399
 7423TIP3   OH222190   5.981   2.699   3.742 -0.8655 -0.2779  0.2403
 7423TIP3    H122191   5.989   2.625   3.802 -0.6891 -0.0312  0.5250
 7423TIP3    H222192   5.933   2.665   3.667 -1.3685 -0.5040  0.6644
 7424TIP3   OH222193   6.755   3.616   4.196 -0.2882  0.3889 -0.3250
 7424TIP3    H122194   6.792   3.633   4.283  0.2775 -0.4270 -0.3991
 7424TIP3    H222195   6.825   3.639   4.135 -0.8319  1.3568 -0.5825
 7425TIP3   OH222196   7.526   2.269   4.782  0.0430  0.8784 -0.5360
 7425TIP3    H122197   7.454   2.333   4.780 -1.3729 -0.7074 -0.9204
 7425TIP3    H222198   7.513   2.216   4.703  0.7550 -0.3823  0.1885
 7426TIP3   OH222199   0.777   1.178   5.076 -0.0848  0.6329 -0.2574
 7426TIP3    H122200   0.780   1.117   5.002  0.9010  2.4842 -1.7728
 7426TIP3    H222201   0.702   1.234   5.057 -0.9362 -0.0229  1.0888
 7427TIP3   OH222202   8.802   2.984   5.121  0.1830  0.1552 -0.1095
 7427TIP3    H122203   8.816   3.079   5.118 -1.0384  0.4381  1.9297
 7427TIP3    H222204   8.707   2.973   5.114  0.2040 -0.8366  1.0039
 7428TIP3   OH222205   6.860   0.984   2.550 -0.1100 -0.9852 -0.8999
 7428TIP3    H122206   6.804   1.034   2.491  1.6698 -0.4100 -2.1219
 7428TIP3    H222207   6.867   0.898   2.509 -0.7002 -1.3008 -0.3532
 7429TIP3   OH222208   8.517   5.998   4.665  0.1262 -0.3834  0.1530
 7429TIP3    H122209   8.466   6.077   4.646 -0.6209 -0.8851  0.0517
 7429TIP3    H222210   8.451   5.933   4.691  0.7292 -0.9873  0.1757
 7430TIP3   OH222211   7.494   2.847   4.342  0.2258 -0.4337  0.0294
 7430TIP3    H122212   7.427   2.914   4.329  0.2586 -0.5973 -1.0229
 7430TIP3    H222213   7.569   2.896   4.376  0.0610 -0.0143 -0.1994
 7431TIP3   OH222214   7.911   3.820   3.522 -0.1852 -0.5872 -0.1317
 7431TIP3    H122215   7.921   3.743   3.466 -1.1176 -0.2448 -0.7914
 7431TIP3    H222216   7.867   3.786   3.600  1.7611 -1.1978  0.7230
 7432TIP3   OH222217   7.315   2.503   3.005 -0.1746  0.7708 -0.3457
 7432TIP3    H122218   7.251   2.491   3.076  0.3765  1.3254  0.2442
 7432TIP3    H222219   7.376   2.430   3.016  0.9913  1.9274  0.9086
 7433TIP3   OH222220   0.242   5.039   3.690  0.1505  0.1597  0.7740
 7433TIP3    H122221   0.275   5.117   3.734  2.1783 -0.4096  0.3404
 7433TIP3    H222222   0.176   5.072   3.629  0.5235  1.4653  1.0593
 7434TIP3   OH222223   8.403   1.738   3.326  0.3588  0.1418  0.0770
 7434TIP3    H122224   8.342   1.790   3.273 -0.0197 -0.2123  0.1571
 7434TIP3    H222225   8.448   1.802   3.381 -1.2380  0.2320  1.3258
 7435TIP3   OH222226   8.052   0.823   4.546  0.0938 -0.1597 -0.7844
 7435TIP3    H122227   8.070   0.745   4.599 -0.0872 -0.6826 -1.4872
 7435TIP3    H222228   8.136   0.868   4.541 -0.3126  0.9221  1.5834
 7436TIP3   OH222229   0.316   1.453   1.782  0.8349 -0.0163  0.0519
 7436TIP3    H122230   0.372   1.377   1.795 -0.1313 -1.1194 -1.9640
 7436TIP3    H222231   0.275   1.467   1.867  3.5432  0.3516  1.3470
 7437TIP3   OH222232   0.619   2.006   3.312  0.4636  0.2144 -0.4315
 7437TIP3    H122233   0.653   1.917   3.301  1.2203  0.7801 -2.9369
 7437TIP3    H222234   0.696   2.062   3.299  0.1254  1.2317  1.7654
 7438TIP3   OH222235   6.040   8.353   4.334 -0.1150 -0.0453 -0.0043
 7438TIP3    H122236   5.984   8.427   4.312 -1.8184 -0.4250  2.8163
 7438TIP3    H222237   6.008   8.281   4.280  1.1451  1.0348 -2.2960
 7439TIP3   OH222238   8.087   5.630   6.150  0.0324 -0.0563  0.6836
 7439TIP3    H122239   8.080   5.718   6.186  0.2369  0.6510 -0.9688
 7439TIP3    H222240   8.165   5.631   6.096 -0.7938 -0.7941 -0.5669
 7440TIP3   OH222241   8.321   0.961   3.690  0.0186 -0.4122  0.1175
 7440TIP3    H122242   8.309   0.891   3.626  1.8030 -1.1269  0.5402
 7440TIP3    H222243   8.393   0.931   3.746 -0.3821  0.9613  1.4134
 7441TIP3   OH222244   5.109   3.853   4.264  0.3047 -0.5294 -0.5088
 7441TIP3    H122245   5.067   3.936   4.286  0.4061 -0.4301 -0.6893
 7441TIP3    H222246   5.161   3.872   4.186  0.1122 -0.8300 -0.7121
 7442TIP3   OH222247   6.969   3.548   6.689  0.1633 -1.0752 -0.1504
 7442TIP3    H122248   6.884   3.550   6.645  0.2418 -0.4776 -0.2689
 7442TIP3    H222249   6.949   3.523   6.780  0.0196 -2.4987 -0.5544
 7443TIP3   OH222250   7.558   2.992   2.554  0.3596 -0.0538  0.1823
 7443TIP3    H122251   7.559   2.902   2.522  3.0089 -0.8542  2.2461
 7443TIP3    H222252   7.611   3.041   2.491 -0.0838 -0.1852 -0.2929
 7444TIP3   OH222253   6.927   3.629   1.142  0.4039  0.0876  0.1834
 7444TIP3    H122254   6.914   3.576   1.063 -2.1060  1.7140 -0.5619
 7444TIP3    H222255   6.888   3.576   1.212 -1.5956  0.6590 -0.4686
 7445TIP3   OH222256   8.906   1.055   3.304 -0.5021 -0.7918 -0.1563
 7445TIP3    H122257   8.851   1.088   3.375 -0.7422 -2.2189  0.3583
 7445TIP3    H222258   8.845   1.010   3.245 -0.4486  1.3369 -1.8615
 7446TIP3   OH222259   6.895   1.971   2.679  0.1621 -0.1603 -0.2297
 7446TIP3    H122260   6.850   2.038   2.730  0.8618 -1.1540  1.7559
 7446TIP3    H222261   6.949   2.020   2.617  2.8098  1.2699  2.9959
 7447TIP3   OH222262   0.802   5.031   5.099 -0.1768 -0.3203  0.0870
 7447TIP3    H122263   0.787   4.947   5.143 -2.7702 -0.2613 -0.6077
 7447TIP3    H222264   0.863   5.078   5.157 -0.8720 -1.5770  1.8830
 7448TIP3   OH222265  -0.009   2.995   4.835 -0.0338 -0.3063 -0.2966
 7448TIP3    H122266  -0.005   3.016   4.929 -1.9483  2.6825 -0.8350
 7448TIP3    H222267   0.046   3.061   4.794 -2.8496  1.2393 -1.6735
 7449TIP3   OH222268   0.657   3.304   3.509  0.0909  0.5444 -0.4949
 7449TIP3    H122269   0.578   3.269   3.550  1.4913  0.3064  2.0709
 7449TIP3    H222270   0.660   3.262   3.423 -1.3384 -1.2430  0.2993
 7450TIP3   OH222271   8.081   2.017   4.700  0.1637 -0.3755  0.2375
 7450TIP3    H122272   8.115   2.000   4.788  0.9929 -0.7970 -0.1667
 7450TIP3    H222273   8.044   1.933   4.672 -1.2409  0.0772  0.6771
 7451TIP3   OH222274   7.107   2.411   2.839  0.1855 -0.4212 -0.0547
 7451TIP3    H122275   7.157   2.461   2.904 -1.2123  0.7802  0.1117
 7451TIP3    H222276   7.146   2.436   2.755  1.8195 -1.7753  0.2815
 7452TIP3   OH222277   8.927   3.060   3.195 -0.4359 -0.0757  0.2404
 7452TIP3    H122278   8.882   3.017   3.123  1.8975  1.1358 -1.9899
 7452TIP3    H222279   8.885   3.146   3.201  1.3573  0.9721 -1.6974
 7453TIP3   OH222280   6.426   4.165   3.137  0.2643  0.3726  0.5326
 7453TIP3    H122281   6.424   4.258   3.118 -1.2661  0.2950  0.2400
 7453TIP3    H222282   6.405   4.123   3.053 -1.0479 -0.1468  1.1028
 7454TIP3   OH222283   6.645   2.498   4.698 -0.4150 -0.0429  0.3233
 7454TIP3    H122284   6.721   2.531   4.650 -0.2687 -0.6685  0.1314
 7454TIP3    H222285   6.585   2.467   4.631 -0.7995  0.3452  0.4797
 7455TIP3   OH222286   1.524   3.759   3.011  0.7107 -0.3098 -0.1550
 7455TIP3    H122287   1.602   3.802   3.047 -0.3656  1.2102  0.3805
 7455TIP3    H222288   1.523   3.672   3.052  0.9259  0.4573  1.4992
 7456TIP3   OH222289   3.455   7.334   5.842 -0.1602 -1.1407 -0.4490
 7456TIP3    H122290   3.512   7.379   5.904  0.6551 -0.1572 -1.8862
 7456TIP3    H222291   3.404   7.274   5.896 -0.9528  1.1698  1.4646
 7457TIP3   OH222292   7.149   2.300   5.554  0.2073 -0.4323  0.2185
 7457TIP3    H122293   7.174   2.374   5.498 -1.0232  0.3210  0.6515
 7457TIP3    H222294   7.230   2.279   5.602  1.3534 -1.2860 -2.0276
 7458TIP3   OH222295   6.411   3.038   2.667 -0.0713 -0.4249  0.2246
 7458TIP3    H122296   6.389   2.948   2.693  1.1423 -0.0967  2.6090
 7458TIP3    H222297   6.354   3.093   2.720  1.6604  0.2636  1.4242
 7459TIP3   OH222298   1.523   2.711   3.545 -0.7857 -0.0005 -0.0324
 7459TIP3    H122299   1.474   2.631   3.565  0.6197 -0.8029  0.2491
 7459TIP3    H222300   1.541   2.749   3.630 -3.6403  1.9805 -0.2591
 7460TIP3   OH222301   7.039   3.524   4.088  0.4220  0.0419 -0.2341
 7460TIP3    H122302   7.043   3.509   3.993 -0.0286 -0.7502 -0.1383
 7460TIP3    H222303   7.115   3.578   4.107  0.7208 -0.0930 -0.9985
 7461TIP3   OH222304   6.049   2.895   5.266  0.4324  0.0708  0.0863
 7461TIP3    H122305   6.067   2.814   5.315  0.0123 -0.4249 -0.5633
 7461TIP3    H222306   5.962   2.881   5.229  1.9453 -0.8503 -3.3431
 7462TIP3   OH222307   0.382   4.091   4.375  0.4376 -0.4938 -0.3361
 7462TIP3    H122308   0.401   4.001   4.398 -1.2848 -1.3188 -1.9630
 7462TIP3    H222309   0.298   4.087   4.329  0.0816  1.9902 -0.0032
 7463TIP3   OH222310   6.645   1.245   1.523  0.0823  0.0027 -0.0110
 7463TIP3    H122311   6.558   1.237   1.563 -0.4688  0.4924 -1.0539
 7463TIP3    H222312   6.700   1.284   1.591 -0.1820 -1.5136  1.0917
 7464TIP3   OH222313   0.294   2.959   2.727  0.1067  0.2447 -0.0230
 7464TIP3    H122314   0.310   3.024   2.795  0.2218 -1.4773  1.6317
 7464TIP3    H222315   0.335   2.995   2.648  1.7623  1.3110  1.3058
 7465TIP3   OH222316   8.634   3.775   3.785  0.3306 -0.2591 -0.2611
 7465TIP3    H122317   8.656   3.684   3.803 -0.5665 -0.5858 -0.8003
 7465TIP3    H222318   8.644   3.819   3.869  0.2100 -0.9712  0.1307
 7466TIP3   OH222319   8.054   4.714   1.617  0.7856  0.3525  0.1271
 7466TIP3    H122320   8.016   4.785   1.566  0.6569  0.4819  0.4004
 7466TIP3    H222321   7.984   4.686   1.675  0.7060 -0.2845 -0.2746
 7467TIP3   OH222322   7.127   1.721   2.778 -0.0937  0.2718  0.0082
 7467TIP3    H122323   7.144   1.815   2.769 -0.5661  0.4954  1.3396
 7467TIP3    H222324   7.031   1.714   2.775 -0.0907 -0.0827  0.6113
 7468TIP3   OH222325   0.071   0.482   1.824 -0.1867 -0.1764 -0.1506
 7468TIP3    H122326   0.121   0.561   1.846 -0.4625 -0.2443  0.7474
 7468TIP3    H222327  -0.011   0.492   1.873 -0.1414 -1.1144  0.1159
 7469TIP3   OH222328   4.824   7.257   3.484  1.2182  0.4295  0.1757
 7469TIP3    H122329   4.897   7.203   3.514  1.6486  0.3431 -0.9901
 7469TIP3    H222330   4.844   7.345   3.515  2.0979  0.5072 -0.6093
 7470TIP3   OH222331   2.710   2.248   2.962  0.4208  0.2609  0.0666
 7470TIP3    H122332   2.759   2.169   2.941  1.2274  0.5715  0.7722
 7470TIP3    H222333   2.772   2.304   3.008 -0.3650  0.9850  0.2639
 7471TIP3   OH222334   8.515   2.587   4.546 -0.0931 -0.5959  0.4504
 7471TIP3    H122335   8.458   2.514   4.525 -0.6161  0.2882 -1.2768
 7471TIP3    H222336   8.488   2.614   4.634 -4.0731  1.3371 -1.2208
 7472TIP3   OH222337   8.501   2.335   0.689 -0.4324  0.1838  0.1696
 7472TIP3    H122338   8.474   2.421   0.658  1.6129  0.8986  0.3096
 7472TIP3    H222339   8.505   2.343   0.784  1.9894  0.6282  0.0495
 7473TIP3   OH222340   1.193   1.688   4.154  0.1952 -0.1175 -0.3334
 7473TIP3    H122341   1.101   1.662   4.156  0.2710 -0.5469 -1.5498
 7473TIP3    H222342   1.238   1.619   4.204  0.0193 -0.6632 -0.9198
 7474TIP3   OH222343   0.327   6.075   5.925 -0.7206  0.1771  0.0224
 7474TIP3    H122344   0.237   6.104   5.941 -1.2592 -1.9181  0.9629
 7474TIP3    H222345   0.373   6.092   6.007 -0.6121 -0.0012 -0.0016
 7475TIP3   OH222346   7.518   0.777   3.583 -0.2602 -0.3594 -0.6620
 7475TIP3    H122347   7.585   0.717   3.616  1.1326  0.8246 -1.2812
 7475TIP3    H222348   7.493   0.740   3.499  1.1849  0.3274 -1.4175
 7476TIP3   OH222349   7.762   2.852   5.002  0.3215 -0.3790  0.0232
 7476TIP3    H122350   7.771   2.775   5.059  0.3329 -1.0688 -0.8837
 7476TIP3    H222351   7.839   2.905   5.021  0.6852 -0.9447  0.1513
 7477TIP3   OH222352   8.699   1.715   3.233 -0.0390  0.5978  0.2435
 7477TIP3    H122353   8.735   1.652   3.297  0.5988  2.0768  1.3767
 7477TIP3    H222354   8.607   1.691   3.226  0.4365 -1.2085 -0.2411
 7478TIP3   OH222355   7.729   1.213   1.870  0.9588  0.5656  1.0112
 7478TIP3    H122356   7.682   1.162   1.935  1.4460 -0.3020  0.6847
 7478TIP3    H222357   7.706   1.304   1.890 -1.7216  0.1265  0.2121
 7479TIP3   OH222358   7.363   3.314   3.004  0.6501 -0.1076 -0.3883
 7479TIP3    H122359   7.432   3.258   3.040  1.0465 -0.9919 -2.4569
 7479TIP3    H222360   7.407   3.365   2.936  0.0115  1.8363  0.6239
 7480TIP3   OH222361   8.038   2.567   1.953  0.1079  0.1645  0.8283
 7480TIP3    H122362   8.025   2.500   1.885  2.5925  0.1401  0.3399
 7480TIP3    H222363   8.089   2.522   2.021  3.0188  1.8691 -0.1230
 7481TIP3   OH222364   8.551   1.952   1.813  0.2111 -0.0684  0.4059
 7481TIP3    H122365   8.643   1.955   1.785  0.2983  1.7385  0.8116
 7481TIP3    H222366   8.508   2.018   1.760 -0.4955  0.3364  1.4658
 7482TIP3   OH222367   7.933   2.683   4.562  0.1571 -0.1919  0.7940
 7482TIP3    H122368   7.876   2.686   4.485  0.6661 -0.5604  0.3965
 7482TIP3    H222369   7.901   2.753   4.618  0.1504  0.4857 -0.0296
 7483TIP3   OH222370   8.358   3.101   3.286  0.0246 -0.3520 -0.3424
 7483TIP3    H122371   8.284   3.081   3.344  1.0424 -1.1459  0.7171
 7483TIP3    H222372   8.394   3.183   3.320  1.7232 -1.7250  1.3354
 7484TIP3   OH222373   7.196   1.328   1.987  0.7833  0.1349 -0.2656
 7484TIP3    H122374   7.272   1.386   1.993 -0.4828  1.7289  1.1258
 7484TIP3    H222375   7.173   1.309   2.078 -0.3740 -0.4471 -0.6656
 7485TIP3   OH222376   8.010   4.578   3.607 -0.0068  0.2032 -0.0702
 7485TIP3    H122377   7.947   4.588   3.536 -1.2377  1.4206  1.1747
 7485TIP3    H222378   8.095   4.580   3.563 -0.7713  0.1598 -1.5905
 7486TIP3   OH222379   8.336   4.475   4.456  0.4939 -0.5394 -0.1669
 7486TIP3    H122380   8.266   4.514   4.405  0.8501 -1.1209 -1.1104
 7486TIP3    H222381   8.378   4.549   4.500 -3.0871 -0.5285  3.5136
 7487TIP3   OH222382   6.551   3.417   2.081  0.1711 -0.2908  1.0506
 7487TIP3    H122383   6.541   3.508   2.051  1.2386  0.0389  1.6551
 7487TIP3    H222384   6.584   3.370   2.004 -1.2659 -0.3625  0.4725
 7488TIP3   OH222385   7.075   2.937   3.137 -0.5625 -0.4921  0.0596
 7488TIP3    H122386   7.125   2.989   3.075 -0.7670  0.0990  0.3797
 7488TIP3    H222387   7.102   2.969   3.223 -0.0163 -1.5557  0.2832
 7489TIP3   OH222388   0.195   1.594   2.701 -0.3398  0.9872 -0.2816
 7489TIP3    H122389   0.117   1.584   2.756  0.1914  3.0577  0.9044
 7489TIP3    H222390   0.161   1.611   2.614 -1.1985  0.0923 -0.1324
 7490TIP3   OH222391   7.855   2.329   3.099  0.0705  0.3846 -0.2069
 7490TIP3    H122392   7.866   2.386   3.023  2.0426  0.2034 -0.0955
 7490TIP3    H222393   7.917   2.364   3.163  0.7204 -1.3824  0.1560
 7491TIP3   OH222394   8.528   5.671   4.897  0.5099 -0.2283 -0.1088
 7491TIP3    H122395   8.462   5.647   4.963  0.4327  2.1702  0.7137
 7491TIP3    H222396   8.487   5.649   4.814 -0.5813 -0.4868  0.4811
 7492TIP3   OH222397   8.810   1.759   2.808  0.2360 -0.0109 -0.2292
 7492TIP3    H122398   8.772   1.818   2.873 -0.1024 -0.1315 -0.3188
 7492TIP3    H222399   8.779   1.672   2.833  1.7076 -0.3166  0.6094
 7493TIP3   OH222400   4.958   7.972   2.524 -0.1799  0.2297  0.2815
 7493TIP3    H122401   4.953   8.005   2.435  0.9191  1.2791  0.5935
 7493TIP3    H222402   4.872   7.993   2.562 -0.5483  0.0318 -0.4303
 7494TIP3   OH222403   6.930   4.073   4.379 -0.2436  0.0572  1.2039
 7494TIP3    H122404   6.851   4.114   4.414 -0.7889 -0.8628  1.0767
 7494TIP3    H222405   7.002   4.109   4.431 -0.8194  0.3607  1.7943
 7495TIP3   OH222406   8.012   4.185   3.722  0.1520  0.1951 -0.2908
 7495TIP3    H122407   8.015   4.144   3.636 -0.7489  0.5479 -0.4961
 7495TIP3    H222408   7.946   4.135   3.770  0.1507  0.4374 -0.0425
 7496TIP3   OH222409   0.167   3.552   3.247  0.1337 -0.0464  0.0338
 7496TIP3    H122410   0.185   3.641   3.219  0.1100  0.1355  0.5856
 7496TIP3    H222411   0.228   3.498   3.197 -0.9524  0.1121 -1.4948
 7497TIP3   OH222412   0.498   2.390   3.021 -0.1501 -0.2822 -0.2483
 7497TIP3    H122413   0.535   2.459   3.075 -1.3941 -0.8581  1.3779
 7497TIP3    H222414   0.573   2.355   2.972  1.0996 -0.1013  1.4954
 7498TIP3   OH222415   7.323   0.040   2.057  0.4347 -0.1005 -0.4504
 7498TIP3    H122416   7.404   0.089   2.048  0.3805  0.4863  1.8343
 7498TIP3    H222417   7.265   0.076   1.990  1.4098  0.8391 -0.7999
 7499TIP3   OH222418   7.346   1.154   3.330  0.7115  0.2110 -0.2209
 7499TIP3    H122419   7.336   1.148   3.236  0.3144 -0.6505 -0.1259
 7499TIP3    H222420   7.273   1.104   3.366  0.4454  1.1416  0.5517
 7500TIP3   OH222421   8.199   0.670   4.338  0.0384 -0.3593  0.3709
 7500TIP3    H122422   8.169   0.735   4.401  0.7196  0.7603 -0.4495
 7500TIP3    H222423   8.210   0.719   4.256  1.9179 -1.2108  0.0986
 7501TIP3   OH222424   1.373   1.912   4.085  0.0814  0.6065 -0.0717
 7501TIP3    H122425   1.447   1.852   4.069 -0.8652 -1.0330  1.5420
 7501TIP3    H222426   1.298   1.854   4.099 -1.2490  2.2295 -0.3557
 7502TIP3   OH222427   7.747   2.356   1.937  0.1984  0.3367 -0.2219
 7502TIP3    H122428   7.836   2.370   1.906 -0.5742  0.9062 -2.3019
 7502TIP3    H222429   7.715   2.282   1.884 -1.0431  1.0769 -0.5266
 7503TIP3   OH222430   7.803   4.177   5.757 -0.0810  0.4884 -0.6017
 7503TIP3    H122431   7.786   4.166   5.851  1.0592 -0.5716 -0.5187
 7503TIP3    H222432   7.744   4.115   5.714  0.4856 -0.1099 -0.5155
 7504TIP3   OH222433   0.718   3.869   1.789 -0.0779  0.2387 -0.0877
 7504TIP3    H122434   0.741   3.806   1.857  1.1813  1.2751  0.4602
 7504TIP3    H222435   0.751   3.953   1.821 -0.0875  0.8572 -1.6600
 7505TIP3   OH222436   6.894   5.249   5.184  0.0868 -0.4366  1.2761
 7505TIP3    H122437   6.977   5.285   5.213  0.1194 -0.1828  0.8620
 7505TIP3    H222438   6.914   5.201   5.104 -0.5736  1.6659 -0.1903
 7506TIP3   OH222439   7.114   2.335   3.855 -0.3097 -0.3101 -0.2390
 7506TIP3    H122440   7.074   2.271   3.914  0.4153 -1.8865 -1.4152
 7506TIP3    H222441   7.189   2.368   3.903 -0.8441 -0.1383  0.4875
 7507TIP3   OH222442   7.722   4.782   3.516  0.6236  0.1188  0.1966
 7507TIP3    H122443   7.640   4.804   3.472  0.0430  2.0618  2.1318
 7507TIP3    H222444   7.753   4.703   3.472 -1.8139 -0.1213 -1.1694
 7508TIP3   OH222445   8.079   0.898   1.588 -0.4756 -0.2513  0.4586
 7508TIP3    H122446   8.036   0.982   1.609 -0.5623 -0.4977  1.2768
 7508TIP3    H222447   8.046   0.837   1.654 -0.9614 -1.1113 -0.5646
 7509TIP3   OH222448   8.649   3.060   4.095 -0.0370 -0.1327 -0.3288
 7509TIP3    H122449   8.681   3.134   4.043 -0.6857 -0.2639 -0.9297
 7509TIP3    H222450   8.693   2.984   4.057 -2.4046 -0.5694 -2.4279
 7510TIP3   OH222451   7.617   3.257   2.630  0.0037 -0.9511 -0.1424
 7510TIP3    H122452   7.580   3.171   2.611 -1.2798 -0.0280 -1.9795
 7510TIP3    H222453   7.662   3.282   2.549  0.0649  0.2469  0.2503
 7511TIP3   OH222454   0.287   3.728   4.076 -0.2194 -0.2144 -0.4333
 7511TIP3    H122455   0.280   3.823   4.084  2.3537 -0.0354  0.2579
 7511TIP3    H222456   0.380   3.712   4.061 -0.6648 -2.6144 -0.8743
 7512TIP3   OH222457   0.916   2.163   2.603 -0.2382  0.2838 -0.2030
 7512TIP3    H122458   0.964   2.099   2.550 -0.2204  0.4423 -0.3803
 7512TIP3    H222459   0.885   2.228   2.539  0.3089  0.8035  0.0542
 7513TIP3   OH222460   0.095   0.308   3.065  0.1197 -0.1669 -0.3192
 7513TIP3    H122461   0.151   0.341   3.136 -0.7807  1.1380 -0.1953
 7513TIP3    H222462   0.126   0.354   2.987  1.8934 -2.4682 -1.0454
 7514TIP3   OH222463   2.159   3.112   2.178 -0.1404  0.0130  0.7764
 7514TIP3    H122464   2.162   3.153   2.091  0.2036  2.0217  1.7056
 7514TIP3    H222465   2.241   3.062   2.183  0.2944  0.6550  0.2938
 7515TIP3   OH222466   8.285   2.147   4.253  0.3198  0.0772 -0.1752
 7515TIP3    H122467   8.226   2.219   4.275 -0.0555 -0.1193 -0.5332
 7515TIP3    H222468   8.257   2.075   4.309  1.6323  0.6443  1.2393
 7516TIP3   OH222469   8.477   2.005   4.913  0.0508  0.2411 -0.5527
 7516TIP3    H122470   8.478   2.097   4.886  0.3504  0.4435  0.1376
 7516TIP3    H222471   8.448   1.957   4.835 -1.8451  1.0914 -0.3893
 7517TIP3   OH222472   1.495   0.568   4.321  0.4587  0.1932 -0.3274
 7517TIP3    H122473   1.558   0.553   4.250 -0.9759 -1.9306 -1.1874
 7517TIP3    H222474   1.478   0.481   4.356 -0.9964  0.9121  0.7770
 7518TIP3   OH222475   6.454   2.238   3.084 -0.2756  0.5950 -0.1154
 7518TIP3    H122476   6.450   2.240   3.180  0.8939 -1.7505  0.0233
 7518TIP3    H222477   6.545   2.260   3.064 -0.3373  0.3745 -0.6348
 7519TIP3   OH222478   8.746   1.896   3.028 -0.2823 -0.1221 -0.0508
 7519TIP3    H122479   8.756   1.829   3.096 -1.0903  1.8044  2.0398
 7519TIP3    H222480   8.823   1.953   3.038 -1.7426  1.7146  1.0834
 7520TIP3   OH222481   8.331   1.112   2.842 -0.0438 -0.0128  0.0264
 7520TIP3    H122482   8.331   1.180   2.774 -1.7053  1.3368  1.3227
 7520TIP3    H222483   8.375   1.153   2.917  1.5807 -1.4127 -0.1136
 7521TIP3   OH222484   7.409   1.717   1.827  0.2046  0.2516 -0.2760
 7521TIP3    H122485   7.386   1.628   1.800  0.2632 -0.0961  0.7829
 7521TIP3    H222486   7.483   1.706   1.886  1.2438  1.1462 -1.3799
 7522TIP3   OH222487   6.981   3.782   4.546  0.5912  0.1519 -0.8607
 7522TIP3    H122488   6.934   3.785   4.629 -0.8221  0.0905 -1.6510
 7522TIP3    H222489   6.937   3.846   4.490  0.5809 -0.8791 -2.0580
 7523TIP3   OH222490   8.406   2.278   4.486 -0.3910  0.5265 -0.4425
 7523TIP3    H122491   8.347   2.225   4.432 -1.1434 -0.6602  1.4553
 7523TIP3    H222492   8.411   2.231   4.569  3.4836  0.4788 -0.6181
 7524TIP3   OH222493   8.063   4.305   5.830  0.5076 -0.6954  0.1141
 7524TIP3    H122494   8.131   4.265   5.775 -0.3876  0.9919 -2.2835
 7524TIP3    H222495   7.981   4.266   5.800  0.1749 -1.2392  1.6570
 7525TIP3   OH222496   6.309   3.087   1.868  0.0370  0.0539  0.0883
 7525TIP3    H122497   6.373   3.156   1.885  1.0319 -0.1246 -2.6566
 7525TIP3    H222498   6.360   3.017   1.827 -1.1649 -1.8464  1.7551
 7526TIP3   OH222499   2.188   2.401   1.587 -0.1876  0.2268 -0.2367
 7526TIP3    H122500   2.196   2.309   1.613 -1.9644  0.0991 -0.1088
 7526TIP3    H222501   2.139   2.441   1.658  2.0741  1.6904  0.5677
 7527TIP3   OH222502   0.129   6.170   3.680  0.6153 -0.3461  0.0165
 7527TIP3    H122503   0.160   6.102   3.620 -1.3355 -0.5708 -0.7915
 7527TIP3    H222504   0.124   6.127   3.765 -0.0218 -1.0579 -0.3736
 7528TIP3   OH222505   7.935   3.640   1.659  0.0235  0.1394 -0.1328
 7528TIP3    H122506   7.958   3.553   1.628  0.3812 -0.1125  0.8249
 7528TIP3    H222507   8.019   3.684   1.673 -0.1103  0.0366  1.0557
 7529TIP3   OH222508   8.449   1.841   5.167 -0.3191  0.1495  0.1665
 7529TIP3    H122509   8.481   1.921   5.209 -1.6769  0.5398  0.4676
 7529TIP3    H222510   8.442   1.864   5.075  1.2621 -0.2643 -0.0749
 7530TIP3   OH222511   7.869   2.152   3.525  0.4632  0.5079 -0.0013
 7530TIP3    H122512   7.818   2.119   3.451  0.9677  0.5284 -0.3613
 7530TIP3    H222513   7.908   2.074   3.564 -0.3181  0.4246  0.6434
 7531TIP3   OH222514   6.544   4.040   1.500  0.2401  0.0683  0.2768
 7531TIP3    H122515   6.509   4.122   1.466  1.9091  0.3204 -0.8491
 7531TIP3    H222516   6.470   3.980   1.497 -0.9313  1.4443  0.8786
 7532TIP3   OH222517   8.514   4.628   4.166  0.3234 -0.1410 -0.1401
 7532TIP3    H122518   8.427   4.668   4.173  0.5006  0.0863  0.7475
 7532TIP3    H222519   8.574   4.697   4.195  0.6827 -0.8203  0.7316
 7533TIP3   OH222520   0.040   2.517   1.565 -0.3601  0.1795 -0.2527
 7533TIP3    H122521   0.118   2.468   1.538 -1.4836 -2.5513  1.2335
 7533TIP3    H222522   0.063   2.552   1.651 -0.6527 -0.4086  0.0708
 7534TIP3   OH222523   6.439   2.317   4.901 -0.3134 -0.0516  0.2661
 7534TIP3    H122524   6.483   2.396   4.932  0.8396 -1.1413  1.5169
 7534TIP3    H222525   6.362   2.308   4.957  0.0357 -0.2763  0.7189
 7535TIP3   OH222526   6.932   3.499   3.205 -0.4090 -0.4546 -0.5272
 7535TIP3    H122527   6.851   3.454   3.177 -0.4484 -1.6983  1.4581
 7535TIP3    H222528   7.002   3.438   3.182 -0.1585 -0.0037 -0.9571
 7536TIP3   OH222529   0.634   4.108   5.118 -0.0720  0.3356  0.0004
 7536TIP3    H122530   0.545   4.136   5.099 -0.0759  0.3744  0.0736
 7536TIP3    H222531   0.674   4.182   5.164 -0.3690 -0.1240  1.0093
 7537TIP3   OH222532   7.415   1.783   5.185  0.1463  0.0760  0.1902
 7537TIP3    H122533   7.478   1.714   5.163 -1.5078 -1.4657  0.1255
 7537TIP3    H222534   7.330   1.744   5.164 -0.7098  2.8924 -1.8561
 7538TIP3   OH222535   5.703   1.736   4.605 -0.0167 -0.3052  0.5897
 7538TIP3    H122536   5.750   1.718   4.523 -1.7294  0.0428 -0.4887
 7538TIP3    H222537   5.756   1.803   4.648  1.3530 -1.0990  0.1615
 7539TIP3   OH222538   0.399   2.803   4.196 -0.2770  0.9323 -0.4828
 7539TIP3    H122539   0.410   2.709   4.182 -2.2440  0.7190 -0.7471
 7539TIP3    H222540   0.453   2.844   4.130  0.5380 -0.0181 -0.4138
 7540TIP3   OH222541   6.117   1.467   5.195 -0.3218  0.0359 -0.1586
 7540TIP3    H122542   6.179   1.533   5.227  0.7356 -0.5502 -0.9540
 7540TIP3    H222543   6.080   1.428   5.275  0.8771 -0.1041  0.3412
 7541TIP3   OH222544   0.651   0.327   4.248 -0.1718 -0.2808 -0.5709
 7541TIP3    H122545   0.563   0.293   4.266  0.2492 -3.1935 -3.4916
 7541TIP3    H222546   0.652   0.340   4.153  1.8636  1.8493 -0.2983
 7542TIP3   OH222547   8.018   2.705   1.647  0.1111  0.5866  0.0800
 7542TIP3    H122548   8.035   2.790   1.608 -1.8692  0.7178 -0.5667
 7542TIP3    H222549   8.034   2.717   1.740  0.0181  1.6313 -0.0384
 7543TIP3   OH222550   7.921   2.440   2.833 -0.2761 -0.5555 -0.2050
 7543TIP3    H122551   7.971   2.488   2.767 -0.7992 -1.5684 -1.3581
 7543TIP3    H222552   7.834   2.430   2.794 -0.5260 -1.3363  0.5529
 7544TIP3   OH222553   8.366   0.401   5.392 -0.8124  0.6619  0.1845
 7544TIP3    H122554   8.421   0.474   5.364 -0.9406  0.2011 -1.2905
 7544TIP3    H222555   8.427   0.329   5.405 -0.8777  0.5994  0.1387
 7545TIP3   OH222556   7.553   2.541   3.767  0.2471  0.7477  0.8741
 7545TIP3    H122557   7.568   2.551   3.673 -2.3076  1.9327  0.5491
 7545TIP3    H222558   7.611   2.606   3.807  1.5376  0.0652  0.1664
 7546TIP3   OH222559   8.197   3.288   4.618  0.1364  0.1288 -0.8147
 7546TIP3    H122560   8.199   3.204   4.574 -0.0517 -0.0054 -0.5701
 7546TIP3    H222561   8.149   3.271   4.699  2.0181 -0.0435  0.2905
 7547TIP3   OH222562   8.872   2.627   1.172 -0.4966 -0.1508  0.1434
 7547TIP3    H122563   8.940   2.672   1.121 -1.1584 -0.6050 -1.1566
 7547TIP3    H222564   8.793   2.634   1.118 -1.1053 -1.0437  0.9058
 7548TIP3   OH222565   6.768   2.280   4.414 -0.0435 -0.1259 -0.1336
 7548TIP3    H122566   6.823   2.283   4.493  0.6936  0.6647 -0.6538
 7548TIP3    H222567   6.703   2.349   4.427 -0.5139 -0.6384  0.2072
 7549TIP3   OH222568   8.352   4.003   2.981 -0.0920 -0.1116  0.4817
 7549TIP3    H122569   8.387   4.058   2.910  0.8319 -0.3515  0.7507
 7549TIP3    H222570   8.429   3.967   3.024 -0.6837 -1.3556  0.5269
 7550TIP3   OH222571   5.496   0.610   4.710 -0.7737  0.0162 -0.3719
 7550TIP3    H122572   5.493   0.650   4.797  0.3452 -1.1490  0.2248
 7550TIP3    H222573   5.587   0.582   4.700 -1.0902 -0.6144 -1.5781
 7551TIP3   OH222574   7.096   0.949   6.394  0.1710 -0.4226  0.3307
 7551TIP3    H122575   7.172   0.964   6.337  1.3082  0.1238  1.9452
 7551TIP3    H222576   7.089   1.029   6.446 -0.7616 -0.9685  1.0499
 7552TIP3   OH222577   7.874   4.332   5.284  0.0500  0.1695  0.0446
 7552TIP3    H122578   7.816   4.287   5.222 -1.0430 -0.3790  1.4452
 7552TIP3    H222579   7.939   4.267   5.309  0.9298  0.6044 -1.0590
 7553TIP3   OH222580   6.745   2.698   3.785 -0.3263  0.1130 -0.3069
 7553TIP3    H122581   6.662   2.653   3.773 -0.2927 -0.2645  0.7977
 7553TIP3    H222582   6.730   2.756   3.860  0.3438  0.1751 -0.2148
 7554TIP3   OH222583   8.782   2.883   3.951 -0.4919  0.4275 -0.1527
 7554TIP3    H122584   8.782   2.844   3.863  0.0739  1.0855 -0.4420
 7554TIP3    H222585   8.863   2.851   3.991 -0.2408  0.9600 -0.2365
 7555TIP3   OH222586   8.165   1.545   3.021  0.3738  0.2193 -0.0253
 7555TIP3    H122587   8.150   1.588   2.936 -1.1260 -0.0782  0.0774
 7555TIP3    H222588   8.122   1.460   3.013  1.9529 -0.6306  0.3486
 7556TIP3   OH222589   7.461   3.695   3.554 -0.2500 -0.3561  0.4279
 7556TIP3    H122590   7.438   3.765   3.493  2.5889  0.3001  0.0197
 7556TIP3    H222591   7.467   3.617   3.500  2.2410  0.2201 -0.2192
 7557TIP3   OH222592   6.696   0.019   2.479 -0.2111  0.0471 -0.8521
 7557TIP3    H122593   6.637   0.093   2.495  0.8364  0.4092  1.5217
 7557TIP3    H222594   6.640  -0.058   2.488 -0.6249  0.4414  0.0751
 7558TIP3   OH222595   0.751   3.786   3.786 -0.5755 -0.0959  0.4534
 7558TIP3    H122596   0.792   3.712   3.741  0.8048  1.4783 -0.9185
 7558TIP3    H222597   0.711   3.838   3.716  0.8098  1.9068  1.1193
 7559TIP3   OH222598   8.008   2.420   5.437  0.6676 -0.0688 -0.2313
 7559TIP3    H122599   7.968   2.334   5.431  0.4926 -0.0579  0.6689
 7559TIP3    H222600   8.069   2.413   5.511 -0.7482  1.1125  1.1018
 7560TIP3   OH222601   7.187   6.241   3.808 -0.3460 -0.4125 -0.1803
 7560TIP3    H122602   7.158   6.311   3.867  0.7844  0.7602 -0.9911
 7560TIP3    H222603   7.121   6.173   3.817 -1.4182  0.7267  0.6868
 7561TIP3   OH222604   8.366   3.967   3.995 -0.1590 -0.0503 -0.6572
 7561TIP3    H122605   8.417   3.890   4.018  1.1782  1.1858  0.6740
 7561TIP3    H222606   8.317   3.942   3.917  0.2898 -2.2083 -0.2730
 7562TIP3   OH222607   5.839   3.620   2.657 -0.0810 -0.0755 -0.1738
 7562TIP3    H122608   5.783   3.627   2.734 -1.5372  0.6033 -1.2675
 7562TIP3    H222609   5.856   3.711   2.632  1.1354 -0.2817 -0.1236
 7563TIP3   OH222610   7.175   2.666   4.229  0.0183 -0.0434 -0.4427
 7563TIP3    H122611   7.135   2.709   4.305 -0.2478  0.4060 -0.8343
 7563TIP3    H222612   7.253   2.624   4.264 -0.3164 -0.1764  0.1608
 7564TIP3   OH222613   0.625   3.363   4.921  0.4421  0.8128 -0.3548
 7564TIP3    H122614   0.541   3.323   4.945  0.4168 -0.0813 -1.8838
 7564TIP3    H222615   0.647   3.417   4.997 -0.9809  0.2167  0.5271
 7565TIP3   OH222616   0.325   4.004   4.874  0.5668  0.0990 -0.0822
 7565TIP3    H122617   0.237   4.002   4.836  0.6449 -0.4548 -0.2443
 7565TIP3    H222618   0.382   3.971   4.804  1.2121  2.5580 -0.7704
 7566TIP3   OH222619   1.242   3.539   4.960  0.2208 -0.7573 -0.1664
 7566TIP3    H122620   1.150   3.515   4.953  0.1130 -1.2317  2.5281
 7566TIP3    H222621   1.248   3.586   5.043  2.1224  0.6663 -1.0831
 7567TIP3   OH222622   6.724   2.912   2.721  0.7822 -0.2956 -0.4814
 7567TIP3    H122623   6.718   2.836   2.664 -2.6181 -0.7278  0.3416
 7567TIP3    H222624   6.681   2.982   2.672  0.7905  0.2015  0.2112
 7568TIP3   OH222625   0.428   4.175   4.652 -0.5472 -0.7068  0.0995
 7568TIP3    H122626   0.347   4.207   4.690 -1.0107 -0.6418 -0.9294
 7568TIP3    H222627   0.409   4.166   4.559 -0.6571 -4.5882  0.4012
 7569TIP3   OH222628   0.048   5.854   4.207 -0.2937 -0.8818 -0.5680
 7569TIP3    H122629   0.004   5.939   4.207  0.9353 -0.2287 -0.9414
 7569TIP3    H222630  -0.022   5.791   4.220 -1.2945  0.1560 -0.8194
 7570TIP3   OH222631   1.954   0.843   4.598 -0.1713  0.5124  0.1451
 7570TIP3    H122632   1.918   0.789   4.668  1.0788  0.1694  0.5348
 7570TIP3    H222633   1.932   0.933   4.624  0.1452  0.3765  0.9010
 7571TIP3   OH222634   8.132   0.679   5.213 -0.0556  0.3665 -0.0529
 7571TIP3    H122635   8.194   0.749   5.192 -0.4865  0.2633 -1.7084
 7571TIP3    H222636   8.114   0.690   5.307  2.8319  0.0935  0.6006
 7572TIP3   OH222637   0.124   2.842   2.550 -0.7330 -0.2312  0.0046
 7572TIP3    H122638   0.200   2.883   2.591 -0.5852  0.5295 -1.0284
 7572TIP3    H222639   0.123   2.876   2.461  0.1002 -3.3508 -1.2838
 7573TIP3   OH222640   7.180   0.980   2.052 -0.8373  0.9071  0.3784
 7573TIP3    H122641   7.140   0.919   2.114 -0.7422  0.0426 -0.4135
 7573TIP3    H222642   7.130   0.969   1.971  0.9520 -0.1353 -0.6027
 7574TIP3   OH222643   6.746   4.957   3.502 -0.1331  0.2486 -0.2183
 7574TIP3    H122644   6.709   5.031   3.549  1.2732  0.6984  0.2059
 7574TIP3    H222645   6.694   4.882   3.531 -0.8882  0.9052  0.1429
 7575TIP3   OH222646   8.706   0.892   3.524 -0.0777  0.0626 -0.3115
 7575TIP3    H122647   8.651   0.814   3.515  0.5592 -0.6645  1.6798
 7575TIP3    H222648   8.773   0.882   3.458 -0.4522 -0.6961 -0.5823
 7576TIP3   OH222649   0.521   2.892   3.251 -0.1844  0.3375  0.0450
 7576TIP3    H122650   0.425   2.891   3.247 -0.2931  0.1405  2.2217
 7576TIP3    H222651   0.548   2.885   3.159 -2.2457  1.2178 -0.6669
 7577TIP3   OH222652   8.613   4.790   2.733  0.0222 -0.4358 -0.0971
 7577TIP3    H122653   8.613   4.736   2.813 -1.1642  0.2854  0.3970
 7577TIP3    H222654   8.524   4.785   2.701  0.0244  0.8375 -0.3204
 7578TIP3   OH222655   8.707   4.003   4.540 -0.1252 -0.2196 -0.1999
 7578TIP3    H122656   8.684   4.071   4.477  0.3758  0.2159  0.0839
 7578TIP3    H222657   8.765   3.944   4.491 -0.7027 -0.5493 -0.4988
 7579TIP3   OH222658   7.872   2.480   4.994  0.4798  0.3323 -0.1036
 7579TIP3    H122659   7.841   2.563   5.030 -0.2755  0.1725 -0.3707
 7579TIP3    H222660   7.957   2.466   5.035 -0.8035 -0.3579  2.4390
 7580TIP3   OH222661   7.976   4.781   4.170  0.1658  0.7957  0.7241
 7580TIP3    H122662   7.882   4.793   4.160 -0.1193 -1.3038  0.7744
 7580TIP3    H222663   7.988   4.757   4.262  0.5880 -0.2973  0.3914
 7581TIP3   OH222664   0.160   2.418   5.522  0.7115  0.7432 -0.6785
 7581TIP3    H122665   0.220   2.480   5.564  0.6861  1.4341 -1.6695
 7581TIP3    H222666   0.086   2.471   5.494  0.2804  0.1143 -0.7408
 7582TIP3   OH222667   2.998   1.725   5.464  0.3150 -0.5769  0.3900
 7582TIP3    H122668   2.968   1.680   5.385  0.3411  3.6569 -2.2289
 7582TIP3    H222669   3.093   1.713   5.464  0.4697  0.4515 -1.0264
 7583TIP3   OH222670   0.196   3.228   5.314 -0.1910  0.5161  0.5509
 7583TIP3    H122671   0.218   3.163   5.247 -0.6855  1.9668 -1.0663
 7583TIP3    H222672   0.279   3.271   5.334 -0.1184  0.3885  0.5229
 7584TIP3   OH222673   8.817   2.705   4.959 -0.0747 -0.3160  0.6005
 7584TIP3    H122674   8.856   2.736   4.878  0.5370 -0.8207  0.6965
 7584TIP3    H222675   8.808   2.784   5.013 -0.7589  0.0672 -0.0629
 7585TIP3   OH222676   3.465   2.537   5.824  0.8009 -0.8746  0.0269
 7585TIP3    H122677   3.511   2.465   5.866  1.5364  0.0713  0.8666
 7585TIP3    H222678   3.435   2.501   5.741  3.6596 -1.3490 -0.8686
 7586TIP3   OH222679   1.749   6.614   0.013 -0.0126  0.2496 -0.1218
 7586TIP3    H122680   1.749   6.675   0.087 -1.8857  0.3402 -0.1828
 7586TIP3    H222681   1.840   6.614  -0.018  0.1132  2.6314  0.1817
 7587TIP3   OH222682   8.402   1.239   2.083  0.4540 -0.0931  0.0846
 7587TIP3    H122683   8.460   1.165   2.104  1.4559  1.3964  2.9088
 7587TIP3    H222684   8.449   1.289   2.017 -0.1677 -1.8596 -1.7487
 7588TIP3   OH222685   8.397   4.314   4.691 -0.1290  0.0189 -0.0448
 7588TIP3    H122686   8.350   4.347   4.614  0.4053  1.1076  0.0837
 7588TIP3    H222687   8.393   4.387   4.754  1.3705 -0.0307  0.1157
 7589TIP3   OH222688   0.143   4.508   7.200 -0.6293  0.2264  0.3173
 7589TIP3    H122689   0.124   4.592   7.158 -1.8779 -0.4064 -0.3888
 7589TIP3    H222690   0.239   4.508   7.210 -0.7326  2.3240  1.6136
 7590TIP3   OH222691   8.073   4.085   6.081  0.2338  0.6251 -0.3327
 7590TIP3    H122692   8.055   4.051   6.168 -0.3122 -0.1829 -0.7530
 7590TIP3    H222693   7.998   4.143   6.062 -0.8725 -1.0463 -1.2062
 7591TIP3   OH222694   1.504   2.842   5.562 -0.4658 -0.5007  0.2686
 7591TIP3    H122695   1.459   2.840   5.478  0.4014 -0.3770 -0.2020
 7591TIP3    H222696   1.542   2.930   5.567 -0.1833 -0.6399  0.6112
 7592TIP3   OH222697   1.059   3.160   6.670  0.2180  0.2146 -0.1415
 7592TIP3    H122698   1.109   3.152   6.589 -0.6718 -2.0400 -0.4920
 7592TIP3    H222699   1.119   3.128   6.738 -0.0544 -0.6138 -0.2932
 7593TIP3   OH222700   0.789   2.578   6.017  0.0168 -0.4256 -0.1785
 7593TIP3    H122701   0.814   2.580   5.925 -2.3480  1.6084 -0.8406
 7593TIP3    H222702   0.864   2.616   6.063  0.8142 -0.5353 -1.3738
 7594TIP3   OH222703   1.749   4.660   5.653  0.1556  0.1111  0.5989
 7594TIP3    H122704   1.804   4.735   5.678 -0.0235  0.1211  0.9670
 7594TIP3    H222705   1.808   4.585   5.656  0.0609  0.0623  1.3828
 7595TIP3   OH222706   8.649   4.130   6.499 -0.2075  0.1882 -0.1439
 7595TIP3    H122707   8.616   4.040   6.503 -1.0839  0.5246  0.3042
 7595TIP3    H222708   8.742   4.120   6.478 -0.9149 -0.7085 -3.1495
 7596TIP3   OH222709   7.945   1.735   5.303 -0.6569  0.3263 -0.6085
 7596TIP3    H122710   8.020   1.717   5.246  0.1248 -0.1257  0.5468
 7596TIP3    H222711   7.893   1.799   5.254  0.0208 -0.0150 -1.8050
 7597TIP3   OH222712   3.550   2.585   5.337  0.1324  0.1643 -0.1402
 7597TIP3    H122713   3.524   2.646   5.268 -0.6655 -2.1388 -1.9707
 7597TIP3    H222714   3.542   2.634   5.418 -2.7078  1.7816 -1.3469
 7598TIP3   OH222715   2.030   3.763   5.036  0.2527 -0.1978  0.5589
 7598TIP3    H122716   2.002   3.823   4.968 -1.0066  0.1301  1.3440
 7598TIP3    H222717   2.062   3.819   5.107  1.8343 -0.5418  0.1417
 7599TIP3   OH222718   1.809   5.754   4.283 -0.6343  0.8296 -0.3952
 7599TIP3    H122719   1.813   5.696   4.359  0.6993 -0.0639 -1.1288
 7599TIP3    H222720   1.742   5.715   4.227  0.8464 -0.5176 -1.2747
 7600TIP3   OH222721   7.927   4.291   3.402 -0.1269 -0.2486 -0.0961
 7600TIP3    H122722   7.951   4.224   3.466  0.5110 -0.2546 -0.3358
 7600TIP3    H222723   8.011   4.322   3.367 -0.3186  1.8551  1.2052
 7601TIP3   OH222724   1.806   4.618   5.225  0.0198 -0.0738 -0.0639
 7601TIP3    H122725   1.798   4.684   5.156 -1.1287 -0.6083 -0.4432
 7601TIP3    H222726   1.894   4.632   5.261 -0.0616  1.4123 -0.4029
 7602TIP3   OH222727   0.541   3.875   5.911  0.7528 -0.1195  0.3531
 7602TIP3    H122728   0.633   3.901   5.899  0.8523 -0.1120  1.1233
 7602TIP3    H222729   0.545   3.797   5.965  0.3894 -1.1570 -1.0750
 7603TIP3   OH222730   1.009   4.258   6.684  0.1851 -0.1715  0.2557
 7603TIP3    H122731   1.101   4.249   6.710  0.0637  0.1161  0.7820
 7603TIP3    H222732   1.012   4.306   6.601  0.5615 -0.9075 -0.1624
 7604TIP3   OH222733   8.720   1.535   6.062  0.4048  0.1451  0.5200
 7604TIP3    H122734   8.670   1.474   6.009 -1.5994  2.8065 -0.7791
 7604TIP3    H222735   8.803   1.545   6.015 -0.8139  1.4204 -1.4493
 7605TIP3   OH222736   7.987   1.700   6.335  0.2169 -0.0275  0.9383
 7605TIP3    H122737   8.046   1.639   6.290  0.1143  0.3928  0.2220
 7605TIP3    H222738   7.901   1.658   6.331  0.4675 -0.6403  1.9810
 7606TIP3   OH222739   8.802   0.515   6.244 -0.5361  0.1886  0.4720
 7606TIP3    H122740   8.869   0.579   6.219 -0.5898 -0.4620 -1.3388
 7606TIP3    H222741   8.851   0.443   6.283 -0.1802 -0.3091 -0.8955
 7607TIP3   OH222742   0.246   5.257   7.262 -0.0895  0.3352 -0.4622
 7607TIP3    H122743   0.298   5.182   7.232 -1.4879 -0.8246 -0.0650
 7607TIP3    H222744   0.293   5.334   7.231  1.2992 -0.7250 -0.9988
 7608TIP3   OH222745   5.679   0.373   0.654 -0.2266 -0.2688  0.6120
 7608TIP3    H122746   5.593   0.381   0.614 -0.7522  0.1971  1.8085
 7608TIP3    H222747   5.738   0.415   0.591 -0.7953 -0.9527 -0.4049
 7609TIP3   OH222748   1.207   3.974   6.182 -0.0775  0.4847  0.4339
 7609TIP3    H122749   1.249   3.930   6.256 -2.6233  0.2678  1.7932
 7609TIP3    H222750   1.164   3.904   6.134 -0.9411  1.0187  0.4296
 7610TIP3   OH222751   8.354   4.269   7.042 -0.0478  0.3009  0.2636
 7610TIP3    H122752   8.427   4.262   7.103  1.1053  0.5803 -1.0487
 7610TIP3    H222753   8.302   4.191   7.059  0.4713  0.1653  1.3164
 7611TIP3   OH222754   1.891   3.593   4.789  0.1896  0.2215 -0.7249
 7611TIP3    H122755   1.890   3.688   4.788  0.2403  0.2400 -2.9890
 7611TIP3    H222756   1.965   3.569   4.734  0.2817 -1.1302 -0.0349
 7612TIP3   OH222757   1.679   8.173   0.915 -0.0010  0.2906  0.2244
 7612TIP3    H122758   1.608   8.229   0.884 -0.4606 -0.6190 -0.3887
 7612TIP3    H222759   1.755   8.230   0.917 -0.4121  0.8801 -0.6282
 7613TIP3   OH222760   0.691   3.787   4.252 -0.9352 -0.7901 -0.1464
 7613TIP3    H122761   0.707   3.881   4.252  1.4102 -1.1534  1.7745
 7613TIP3    H222762   0.654   3.769   4.339 -1.1143 -1.6927 -0.4047
 7614TIP3   OH222763   1.449   2.729   4.804 -0.4564  0.0549  0.0307
 7614TIP3    H122764   1.491   2.669   4.866  0.7238 -1.2857 -2.0127
 7614TIP3    H222765   1.407   2.671   4.740 -1.7891  1.4215 -0.3494
 7615TIP3   OH222766   8.455   3.059   4.848  0.0996 -0.3176 -0.6164
 7615TIP3    H122767   8.417   3.030   4.764 -2.1320 -1.4643  0.7276
 7615TIP3    H222768   8.421   3.148   4.860  0.5261 -0.1030 -0.9645
 7616TIP3   OH222769   0.027   4.790   5.887  0.1580  0.2925 -0.4137
 7616TIP3    H122770  -0.063   4.768   5.908  0.4481 -0.7417 -0.2530
 7616TIP3    H222771   0.037   4.771   5.794  0.8158 -1.7038  0.0323
 7617TIP3   OH222772   1.226   3.471   3.707  0.1017  0.2091  0.2799
 7617TIP3    H122773   1.280   3.445   3.782  0.9078 -1.9249 -0.9993
 7617TIP3    H222774   1.142   3.497   3.746 -0.0111 -2.3123  1.8338
 7618TIP3   OH222775   8.721   5.525   6.404  0.1750 -0.4785  0.7889
 7618TIP3    H122776   8.799   5.528   6.460  1.1429  0.0255 -0.5531
 7618TIP3    H222777   8.652   5.491   6.461  2.0145 -3.6020  1.2822
 7619TIP3   OH222778   5.126   0.740   0.684 -0.3691  0.0703  0.0496
 7619TIP3    H122779   5.067   0.665   0.677 -0.3540  0.0428  0.2147
 7619TIP3    H222780   5.075   0.814   0.651  0.0892 -0.2564 -1.4655
 7620TIP3   OH222781   1.129   3.107   4.272  0.0044  0.2092 -0.0315
 7620TIP3    H122782   1.109   3.119   4.365  0.5003 -0.4192  0.1626
 7620TIP3    H222783   1.193   3.035   4.271  1.5575  1.5544 -0.6814
 7621TIP3   OH222784   3.180   7.870   0.068  0.1436  0.7087 -0.3593
 7621TIP3    H122785   3.256   7.851   0.122 -0.7810  0.3901  0.8667
 7621TIP3    H222786   3.213   7.928  -0.001  1.1463  1.9960  1.1666
 7622TIP3   OH222787   2.311   3.826   4.447  0.7140 -0.5623 -0.4216
 7622TIP3    H122788   2.252   3.846   4.375 -0.7377 -0.2402  0.8340
 7622TIP3    H222789   2.349   3.910   4.471 -1.4884 -0.0511  1.4738
 7623TIP3   OH222790   7.261   6.412   6.046 -0.2091  0.5349  0.7670
 7623TIP3    H122791   7.201   6.360   6.100 -0.7933  0.5616  0.1457
 7623TIP3    H222792   7.268   6.496   6.092  0.1517  0.1825  1.3725
 7624TIP3   OH222793   3.432   5.124   4.408 -0.3489 -0.3812 -0.3583
 7624TIP3    H122794   3.364   5.192   4.404  0.8935  0.7988 -2.9265
 7624TIP3    H222795   3.402   5.057   4.347  0.3586 -0.2839 -0.8112
 7625TIP3   OH222796   1.037   3.196   4.898 -0.0567  0.3448 -0.6802
 7625TIP3    H122797   1.001   3.242   4.822 -0.2498 -0.9670 -1.3846
 7625TIP3    H222798   0.968   3.203   4.964 -0.8431 -0.5066 -1.3953
 7626TIP3   OH222799   0.115   7.328   4.109 -0.1865  0.3664 -0.0758
 7626TIP3    H122800   0.078   7.347   4.023 -1.4883 -0.9299  0.1715
 7626TIP3    H222801   0.039   7.315   4.165  0.6542 -0.1634  0.9550
 7627TIP3   OH222802   8.505   0.933   0.250 -0.4130  0.4682  0.6410
 7627TIP3    H122803   8.545   1.011   0.211 -0.2497 -0.5221 -1.2353
 7627TIP3    H222804   8.577   0.870   0.256 -1.4912 -1.1167 -2.1835
 7628TIP3   OH222805   0.205   5.274   5.577  0.1341 -0.2681 -0.5301
 7628TIP3    H122806   0.190   5.194   5.627  0.4063  0.1856  0.2893
 7628TIP3    H222807   0.119   5.316   5.571  0.2657  0.1260  0.3353
 7629TIP3   OH222808   1.672   4.799   6.606 -0.0990 -0.2200 -0.3361
 7629TIP3    H122809   1.684   4.892   6.588  0.0086 -0.4320 -1.3920
 7629TIP3    H222810   1.664   4.758   6.520 -0.2141 -1.1815  0.1165
 7630TIP3   OH222811   1.138   3.544   4.396 -0.1012  0.1783  0.1344
 7630TIP3    H122812   1.059   3.597   4.382 -1.8738 -2.9641 -2.2849
 7630TIP3    H222813   1.142   3.531   4.490 -0.1996  3.6592  0.6953
 7631TIP3   OH222814   7.495   5.778   4.970 -0.0171 -0.6974 -0.3348
 7631TIP3    H122815   7.417   5.762   5.023 -0.4134 -1.8596 -1.2412
 7631TIP3    H222816   7.465   5.835   4.900  0.2390 -0.1196  0.0221
 7632TIP3   OH222817   2.333   8.117   0.177 -0.1491  0.0880  0.1238
 7632TIP3    H122818   2.249   8.116   0.223 -0.6647  1.3314 -0.7741
 7632TIP3    H222819   2.388   8.176   0.228  1.1672 -2.9505  2.3695
 7633TIP3   OH222820   5.740   5.604   5.648 -0.3122 -0.1701  0.6499
 7633TIP3    H122821   5.718   5.680   5.702 -0.1636  1.3767 -1.3859
 7633TIP3    H222822   5.826   5.626   5.610  0.2691 -1.8761  0.9445
 7634TIP3   OH222823   3.914   1.755   4.487 -0.1706  0.1543  0.5690
 7634TIP3    H122824   4.006   1.756   4.461 -0.0974 -0.0662  0.8162
 7634TIP3    H222825   3.907   1.825   4.552 -0.5101  1.1820 -0.5718
 7635TIP3   OH222826   2.004   3.195   4.352  0.5280  0.2627 -0.0671
 7635TIP3    H122827   1.913   3.207   4.380  0.0241 -2.2896 -0.5267
 7635TIP3    H222828   2.055   3.225   4.427 -0.7705 -2.6358  2.0456
 7636TIP3   OH222829   0.884   3.478   5.412 -0.8368  0.4882 -0.1329
 7636TIP3    H122830   0.953   3.450   5.472  0.4542  0.4776 -1.5917
 7636TIP3    H222831   0.903   3.570   5.394 -2.6123  1.1832  1.3135
 7637TIP3   OH222832   0.258   3.417   4.004 -0.3934 -0.1231 -0.0367
 7637TIP3    H122833   0.306   3.353   4.056  0.5638  0.7931  0.2395
 7637TIP3    H222834   0.320   3.444   3.936 -0.5463  0.9641  0.2380
 7638TIP3   OH222835   7.570   1.496   2.928  0.7202 -0.5075  0.7848
 7638TIP3    H122836   7.486   1.515   2.884  0.5984 -0.6232  0.9683
 7638TIP3    H222837   7.545   1.458   3.012  0.9748 -2.8242 -0.1563
 7639TIP3   OH222838   3.821   7.824   0.215  0.0351 -0.3607  0.4550
 7639TIP3    H122839   3.795   7.842   0.306 -1.8910  0.6640 -0.2646
 7639TIP3    H222840   3.768   7.749   0.189  3.4569 -3.2462  1.3893
 7640TIP3   OH222841   8.169   1.529   5.702  0.3523 -0.9167  0.0658
 7640TIP3    H122842   8.221   1.545   5.780 -0.7297 -2.2798  1.0945
 7640TIP3    H222843   8.141   1.616   5.673  2.8314 -0.2022 -0.2860
 7641TIP3   OH222844   0.642   4.627   4.186  0.1666 -0.4543  0.4281
 7641TIP3    H122845   0.629   4.569   4.261 -1.8108 -1.3381 -0.5544
 7641TIP3    H222846   0.554   4.641   4.150  1.0879 -0.3080 -1.8972
 7642TIP3   OH222847   7.630   4.383   4.933  0.0841  0.3326 -0.3198
 7642TIP3    H122848   7.596   4.463   4.973  1.4338  0.0249  1.4974
 7642TIP3    H222849   7.640   4.404   4.840 -0.6700  1.8960 -0.0448
 7643TIP3   OH222850   8.114   4.669   4.429  0.1243 -0.2445  0.1862
 7643TIP3    H122851   8.171   4.719   4.488 -0.2737 -0.2528  0.5865
 7643TIP3    H222852   8.060   4.616   4.488 -0.4593 -0.0593 -0.1761
 7644TIP3   OH222853   1.958   7.000   1.129  0.2560 -0.1917  0.2004
 7644TIP3    H122854   1.930   6.912   1.106 -2.0666  0.6329 -0.3303
 7644TIP3    H222855   2.001   7.034   1.051  0.1497 -0.4687  0.0217
 7645TIP3   OH222856   0.258   2.685   5.714 -0.2357  0.0190  0.9748
 7645TIP3    H122857   0.250   2.673   5.809  1.1516  0.9361  1.2096
 7645TIP3    H222858   0.350   2.707   5.700 -0.8610  1.9331 -0.3525
 7646TIP3   OH222859   7.163   7.733   5.490  0.3021  0.7674 -0.3329
 7646TIP3    H122860   7.237   7.672   5.492  0.9431  1.4431 -2.2140
 7646TIP3    H222861   7.203   7.819   5.480 -0.6736  1.3169  0.4311
 7647TIP3   OH222862   8.918   2.520   6.614  0.0408  0.3484  0.3888
 7647TIP3    H122863   8.842   2.514   6.555 -0.2229  2.7885  0.4602
 7647TIP3    H222864   8.890   2.474   6.693 -1.3571  1.1901  0.3963
 7648TIP3   OH222865   2.647   1.815   4.838 -0.5461 -0.0128  0.4011
 7648TIP3    H122866   2.692   1.893   4.871  0.1076  0.0672 -0.6405
 7648TIP3    H222867   2.655   1.822   4.742 -1.0583 -1.0181  0.2809
 7649TIP3   OH222868   1.956   3.190   2.903  0.0454  0.5505 -0.3842
 7649TIP3    H122869   1.912   3.242   2.970  1.1008  1.4926 -0.4119
 7649TIP3    H222870   1.885   3.157   2.847 -0.7098  1.0304  0.2939
 7650TIP3   OH222871   0.991   4.018   6.443 -0.3870  0.7862  0.2376
 7650TIP3    H122872   0.933   3.954   6.485 -0.0545 -0.3746 -1.0310
 7650TIP3    H222873   1.077   4.002   6.481  0.0207 -0.6136 -1.2053
 7651TIP3   OH222874   1.977   1.611   7.080  0.1271 -0.8138 -0.3369
 7651TIP3    H122875   2.011   1.627   6.992  0.9358  0.4723  0.2044
 7651TIP3    H222876   1.890   1.653   7.079  0.3311 -0.3904 -0.3725
 7652TIP3   OH222877   3.621   6.056   0.950 -0.1307 -0.3781 -0.5961
 7652TIP3    H122878   3.544   6.044   1.005  0.5863  0.5925  0.6577
 7652TIP3    H222879   3.660   6.138   0.981  0.7400 -0.2482 -2.0072
 7653TIP3   OH222880   1.986   1.572   2.722  0.0086 -0.0319  0.8984
 7653TIP3    H122881   2.002   1.648   2.668 -0.4577 -0.7806 -0.3137
 7653TIP3    H222882   1.897   1.584   2.756 -0.0585 -0.0274  0.7196
 7654TIP3   OH222883   0.073   4.313   5.769 -0.4979  0.4341  0.5641
 7654TIP3    H122884   0.081   4.265   5.852  2.1849 -1.2971 -0.6086
 7654TIP3    H222885   0.014   4.259   5.717 -0.0271  0.0758  0.3951
 7655TIP3   OH222886   2.600   2.884   7.238  0.7971 -0.4590 -0.2997
 7655TIP3    H122887   2.681   2.935   7.243  0.4741  0.0634 -0.2858
 7655TIP3    H222888   2.612   2.827   7.162  1.8179 -1.5251  0.6336
 7656TIP3   OH222889   0.587   2.329   5.943  0.3761 -0.8010  0.4127
 7656TIP3    H122890   0.636   2.250   5.966 -1.8576 -2.3690 -0.1379
 7656TIP3    H222891   0.570   2.320   5.849  2.5784  1.7658 -0.3166
 7657TIP3   OH222892   2.986   1.430   4.855 -0.1019 -0.0596 -0.1592
 7657TIP3    H122893   2.963   1.391   4.771  1.8689 -0.9125 -0.3303
 7657TIP3    H222894   2.984   1.524   4.839 -1.3953 -0.1701 -0.6952
 7658TIP3   OH222895   0.057   3.171   5.770 -0.3657  0.0373  0.1749
 7658TIP3    H122896   0.002   3.099   5.802  0.7498 -1.5454 -1.3141
 7658TIP3    H222897   0.011   3.203   5.692  0.0175 -0.2735 -0.1873
 7659TIP3   OH222898   2.011   4.145   4.805 -0.9385 -0.0885  0.0755
 7659TIP3    H122899   2.042   4.185   4.724 -1.6933  0.8325  0.2285
 7659TIP3    H222900   2.070   4.177   4.872 -1.7517  1.0816  0.2532
 7660TIP3   OH222901   0.373   3.799   5.118 -0.6444  0.3612 -0.3402
 7660TIP3    H122902   0.331   3.864   5.062  0.2686  2.7666  1.6981
 7660TIP3    H222903   0.300   3.756   5.163 -1.3238 -0.9310 -2.5980
 7661TIP3   OH222904   7.468   4.229   5.640 -0.7059  0.1290 -0.1770
 7661TIP3    H122905   7.494   4.315   5.671  1.0868 -0.1168 -0.8936
 7661TIP3    H222906   7.544   4.173   5.660 -1.5648 -1.1210 -0.3601
 7662TIP3   OH222907   1.292   5.520   6.038 -0.2160 -0.0610 -0.3041
 7662TIP3    H122908   1.367   5.492   5.985  0.7172  1.8892 -0.0591
 7662TIP3    H222909   1.323   5.513   6.128  0.4480  2.7362 -0.2637
 7663TIP3   OH222910   0.488   1.860   5.980 -0.3106 -0.1196  0.4314
 7663TIP3    H122911   0.560   1.898   5.929  0.8874 -1.2926  1.2198
 7663TIP3    H222912   0.443   1.935   6.017 -0.7136  0.7319 -1.6852
 7664TIP3   OH222913   0.189   5.297   6.049 -0.0322 -0.1468  0.0036
 7664TIP3    H122914   0.150   5.363   6.106  0.4218 -0.0599  0.2121
 7664TIP3    H222915   0.231   5.235   6.108  0.6048  0.0500 -0.2393
 7665TIP3   OH222916   1.033   3.603   3.877 -0.3555  0.0597  0.1403
 7665TIP3    H122917   0.970   3.670   3.903  0.2834  0.1500  1.4756
 7665TIP3    H222918   1.095   3.598   3.949  0.5108 -0.8577 -0.6454
 7666TIP3   OH222919   0.496   2.882   6.214  0.1178  0.0030  0.6006
 7666TIP3    H122920   0.441   2.934   6.157 -2.5850 -2.6022  0.7132
 7666TIP3    H222921   0.488   2.924   6.300 -0.5349  0.4768  0.3123
 7667TIP3   OH222922   0.891   3.190   5.662 -0.0902 -0.1272  0.7884
 7667TIP3    H122923   0.950   3.240   5.604 -0.2201 -2.1808 -1.1802
 7667TIP3    H222924   0.949   3.146   5.723  0.1505  0.9208  1.3281
 7668TIP3   OH222925   0.987   4.818   3.979  0.0502 -0.0480 -0.0679
 7668TIP3    H122926   1.000   4.848   4.069 -0.0077 -0.0126 -0.0718
 7668TIP3    H222927   0.987   4.722   3.985 -0.1291 -0.0438 -0.0064
 7669TIP3   OH222928   0.228   4.306   6.590 -0.3182  0.0689 -0.4912
 7669TIP3    H122929   0.253   4.377   6.531  1.0256 -0.5140 -0.6345
 7669TIP3    H222930   0.223   4.347   6.676  0.6315  0.2902 -0.5458
 7670TIP3   OH222931   0.855   3.339   4.668  0.4842 -0.6849 -0.3619
 7670TIP3    H122932   0.864   3.434   4.673 -1.3799 -0.5597  0.8564
 7670TIP3    H222933   0.826   3.322   4.578 -1.3361  0.1094  0.0491
 7671TIP3   OH222934   2.719   2.418   5.782 -0.4446 -0.0138 -0.5327
 7671TIP3    H122935   2.703   2.504   5.743 -0.3127 -0.6447 -2.0300
 7671TIP3    H222936   2.814   2.405   5.774 -0.5106 -0.4411 -0.6333
 7672TIP3   OH222937   0.645   3.252   2.919 -0.2700 -0.2385 -0.0070
 7672TIP3    H122938   0.552   3.264   2.938 -0.2471  1.4272 -0.8134
 7672TIP3    H222939   0.669   3.171   2.963 -1.4379  0.7820  2.5714
 7673TIP3   OH222940   8.399   4.027   4.303 -0.4237  0.5664 -0.4766
 7673TIP3    H122941   8.453   4.026   4.224  0.4572  1.2826  0.1028
 7673TIP3    H222942   8.409   3.939   4.340 -0.6714  0.2955 -1.0576
 7674TIP3   OH222943   8.187   5.874   5.973 -0.0808  0.3637 -0.2380
 7674TIP3    H122944   8.262   5.869   6.031  0.1614 -2.6832 -0.7404
 7674TIP3    H222945   8.112   5.883   6.032  0.3071 -0.9695  0.4791
 7675TIP3   OH222946   1.516   5.382   5.913  0.3891 -0.1545  0.6046
 7675TIP3    H122947   1.519   5.294   5.876  1.0697  0.1872 -0.1691
 7675TIP3    H222948   1.572   5.435   5.856 -0.8236  1.0138  0.4639
 7676TIP3   OH222949   5.921   4.977   5.553  0.5825  0.5802 -0.0100
 7676TIP3    H122950   6.013   4.970   5.527  0.4706 -0.5989 -0.1216
 7676TIP3    H222951   5.898   4.889   5.583 -0.7143  0.6916 -0.6682
 7677TIP3   OH222952   7.918   4.731   3.842  0.3565  0.2069 -0.6539
 7677TIP3    H122953   7.936   4.677   3.918  0.6990  1.3151  0.0737
 7677TIP3    H222954   7.914   4.670   3.769 -1.2343 -1.0265  0.4353
 7678TIP3   OH222955   0.626   5.489   3.918  0.1346 -0.5427  0.0636
 7678TIP3    H122956   0.669   5.543   3.984 -1.5464  1.4421 -0.4281
 7678TIP3    H222957   0.673   5.406   3.921  1.8296  0.4437  1.8498
 7679TIP3   OH222958   1.840   4.052   5.546 -0.0241  0.0159  0.3321
 7679TIP3    H122959   1.928   4.050   5.508 -0.6601 -0.9426 -1.1595
 7679TIP3    H222960   1.786   4.094   5.479 -1.0642 -1.1804  0.3913
 7680TIP3   OH222961   0.951   5.748   5.900 -0.2273  0.3258  0.1972
 7680TIP3    H122962   0.865   5.789   5.912  0.7988  2.3234  0.8544
 7680TIP3    H222963   0.983   5.782   5.817 -0.0435 -0.3698 -0.0190
 7681TIP3   OH222964   8.553   4.989   5.082  0.2076 -0.9053  0.2304
 7681TIP3    H122965   8.583   5.077   5.104 -0.0654 -0.4954 -0.9771
 7681TIP3    H222966   8.528   4.995   4.989 -1.1601 -1.8801  0.5202
 7682TIP3   OH222967   2.064   3.229   5.757  0.7028 -0.1296 -0.3976
 7682TIP3    H122968   2.088   3.163   5.822 -1.7843 -0.8564 -0.1583
 7682TIP3    H222969   2.066   3.312   5.806  0.9530 -0.3908  0.0436
 7683TIP3   OH222970   8.755   6.260   6.162  0.3289  0.5048 -0.0811
 7683TIP3    H122971   8.736   6.211   6.242  1.2037  0.2690 -0.0066
 7683TIP3    H222972   8.825   6.320   6.187  0.6569  0.3749 -0.6889
 7684TIP3   OH222973   0.719   3.151   5.894  0.3867  0.5844  0.0990
 7684TIP3    H122974   0.652   3.084   5.876 -0.3818  1.2096  0.6321
 7684TIP3    H222975   0.743   3.184   5.807 -0.6842  1.0305 -0.0283
 7685TIP3   OH222976   8.226   2.526   5.617  0.0842  0.0034 -0.2684
 7685TIP3    H122977   8.216   2.594   5.683  0.9415  0.9318 -1.0812
 7685TIP3    H222978   8.300   2.474   5.647 -1.1985 -1.2111  0.8802
 7686TIP3   OH222979   1.919   1.061   6.130  0.0205 -0.1168 -0.6629
 7686TIP3    H122980   1.965   1.080   6.048  0.6356  0.5422 -0.1725
 7686TIP3    H222981   1.906   1.146   6.171  0.1581 -0.4809  0.1524
 7687TIP3   OH222982   3.527   2.708   5.585 -0.2755  0.1456  0.3446
 7687TIP3    H122983   3.477   2.682   5.663  0.8885 -2.2844  0.3001
 7687TIP3    H222984   3.509   2.802   5.576 -2.1231  0.0125  2.2942
 7688TIP3   OH222985   0.209   4.670   5.013 -0.2934 -0.3387  0.0118
 7688TIP3    H122986   0.289   4.697   5.057 -0.2544 -0.4674  0.0170
 7688TIP3    H222987   0.184   4.747   4.961 -0.5609 -0.0437  0.5724
 7689TIP3   OH222988   1.690   1.770   4.887  0.3870 -0.1294  0.3526
 7689TIP3    H122989   1.754   1.802   4.950 -0.0878  2.2488 -0.3318
 7689TIP3    H222990   1.742   1.749   4.809  0.4380  1.1290  0.0389
 7690TIP3   OH222991   0.369   2.612   6.304 -0.3222  0.1138  0.3389
 7690TIP3    H122992   0.413   2.536   6.266  1.6863  0.5455  1.7103
 7690TIP3    H222993   0.418   2.688   6.271  0.4023  0.5688  2.4005
 7691TIP3   OH222994   2.523   3.796   5.743  0.1788  0.0175 -0.1123
 7691TIP3    H122995   2.610   3.836   5.740 -0.4885  1.4437 -0.6062
 7691TIP3    H222996   2.483   3.820   5.659 -1.6403  1.5446  1.1654
 7692TIP3   OH222997   0.530   4.882   6.352  0.1284  0.2411  0.3593
 7692TIP3    H122998   0.520   4.885   6.257 -1.5487  0.3523  0.5286
 7692TIP3    H222999   0.565   4.968   6.375 -2.7139  1.5083  0.1752
 7693TIP3   OH223000   1.066   2.063   4.908  0.7618 -0.4538  0.4500
 7693TIP3    H123001   1.055   1.977   4.950  0.6497 -0.2428  0.8582
 7693TIP3    H223002   0.982   2.078   4.864  0.9749 -0.7951 -0.0686
 7694TIP3   OH223003   5.722   0.774  -0.005  0.1070  0.4652  0.6660
 7694TIP3    H123004   5.756   0.692   0.031 -0.8196  0.3505  1.3164
 7694TIP3    H223005   5.628   0.771   0.013  0.0842  1.7363  0.8333
 7695TIP3   OH223006   1.701   3.874   5.032 -0.3983 -0.0849 -0.5508
 7695TIP3    H123007   1.715   3.955   5.081 -0.0800 -1.8211  2.3396
 7695TIP3    H223008   1.786   3.829   5.036 -0.8381 -0.9954 -1.3161
 7696TIP3   OH223009   8.432   4.206   5.490 -0.4041  0.3157  0.3237
 7696TIP3    H123010   8.463   4.252   5.411  0.2717 -1.3047 -0.3735
 7696TIP3    H223011   8.464   4.260   5.562  0.2818  1.0094 -0.4820
 7697TIP3   OH223012   2.953   2.848   6.770 -0.2569 -0.4380  0.5254
 7697TIP3    H123013   3.034   2.804   6.794 -0.7928 -0.2425  2.7217
 7697TIP3    H223014   2.950   2.841   6.674  1.7318 -1.4973  0.5156
 7698TIP3   OH223015   1.793   5.610   5.242 -0.4392  0.2948 -0.3906
 7698TIP3    H123016   1.752   5.687   5.279  0.5940  0.9415 -0.5715
 7698TIP3    H223017   1.779   5.618   5.148 -0.7239  0.0178 -0.3758
 7699TIP3   OH223018   3.311   1.614   5.911  0.4958  0.0518 -0.2672
 7699TIP3    H123019   3.315   1.547   5.980 -0.2565  0.8506  0.5702
 7699TIP3    H223020   3.287   1.694   5.957  1.4026  0.9095 -1.2638
 7700TIP3   OH223021   7.196   2.968   0.324 -0.5818  0.4319 -1.1454
 7700TIP3    H123022   7.285   2.998   0.309 -0.0116 -1.4029 -1.5274
 7700TIP3    H223023   7.143   3.016   0.260  0.1008  1.5682 -0.8712
 7701TIP3   OH223024   0.808   2.729   5.284  0.1618 -0.8062 -0.1599
 7701TIP3    H123025   0.778   2.751   5.373 -0.6308 -1.3475 -0.2844
 7701TIP3    H223026   0.859   2.649   5.296  0.8324 -0.3703 -0.0700
 7702TIP3   OH223027   3.782   7.782   0.475 -0.3045 -0.7591 -0.3022
 7702TIP3    H123028   3.729   7.715   0.519 -3.6740  1.5449 -0.6338
 7702TIP3    H223029   3.831   7.824   0.546 -1.2619 -0.9046  0.4611
 7703TIP3   OH223030   1.920   6.446   5.444  0.1112 -0.0856  0.1143
 7703TIP3    H123031   1.945   6.532   5.409 -0.0131 -0.3284 -0.5804
 7703TIP3    H223032   1.825   6.453   5.458  0.1826  0.0551  0.5221
 7704TIP3   OH223033   8.208   2.901   5.569 -0.3860  0.2743 -0.9125
 7704TIP3    H123034   8.278   2.962   5.593 -1.0112  1.3067 -1.6584
 7704TIP3    H223035   8.251   2.835   5.514  0.6460 -0.9780  1.3574
 7705TIP3   OH223036   0.488   5.864   6.274 -0.0731 -0.4410  0.1287
 7705TIP3    H123037   0.414   5.883   6.216 -1.6783  1.8237  2.8108
 7705TIP3    H223038   0.448   5.835   6.355  1.9237  1.3851  1.8144
 7706TIP3   OH223039   1.296   4.912   4.226  0.5988  0.7821 -0.1444
 7706TIP3    H123040   1.372   4.864   4.259  0.6598  0.6313 -0.5017
 7706TIP3    H223041   1.240   4.924   4.302  0.9761  0.8829  0.1186
 7707TIP3   OH223042   4.565   8.163   2.101  1.1862 -0.5053  0.6202
 7707TIP3    H123043   4.626   8.157   2.027  0.0865  0.8559 -0.3994
 7707TIP3    H223044   4.551   8.256   2.114  0.5021 -0.7667  1.8494
 7708TIP3   OH223045   0.017   4.812   6.166  0.3550  0.4471  0.3924
 7708TIP3    H123046   0.041   4.803   6.073 -0.0974  1.4986  0.1662
 7708TIP3    H223047   0.100   4.807   6.212  0.4868 -1.1712  0.0232
 7709TIP3   OH223048   1.627   5.026   5.282  0.0866 -0.1917  0.0585
 7709TIP3    H123049   1.637   4.952   5.342 -0.4482  1.1165  1.7800
 7709TIP3    H223050   1.639   5.104   5.336  0.6489  1.0054 -1.7328
 7710TIP3   OH223051   1.269   4.045   5.490 -0.5740  0.0997  1.1227
 7710TIP3    H123052   1.302   3.993   5.417 -0.2961  0.3491  1.0645
 7710TIP3    H223053   1.259   3.983   5.562 -0.7888 -0.1354  0.8903
 7711TIP3   OH223054   0.212   4.156   6.306 -0.3452  0.4759 -0.1544
 7711TIP3    H123055   0.292   4.175   6.356 -1.2782  2.2047  0.7423
 7711TIP3    H223056   0.229   4.072   6.264  1.4651  0.2224  1.0338
 7712TIP3   OH223057   8.340   3.987   6.415  0.4073 -0.7682 -0.0015
 7712TIP3    H123058   8.406   3.963   6.480  1.3627 -0.7112 -0.9338
 7712TIP3    H223059   8.278   4.041   6.463 -0.0626 -2.4937  1.3653
 7713TIP3   OH223060   0.045   3.478   5.315 -0.2530 -0.0919 -0.4696
 7713TIP3    H123061   0.090   3.405   5.274 -0.8139 -0.5886 -0.2097
 7713TIP3    H223062   0.017   3.444   5.401 -0.5859  0.3943 -0.3819
 7714TIP3   OH223063   4.749   6.214   0.238 -0.2456  0.5973 -0.8545
 7714TIP3    H123064   4.662   6.245   0.212 -0.0436  0.7433 -1.3536
 7714TIP3    H223065   4.789   6.183   0.157  1.2122  3.0212 -1.1119
 7715TIP3   OH223066   0.049   0.530   5.992 -0.0914 -0.1878  0.5289
 7715TIP3    H123067   0.123   0.567   6.040  0.3493 -0.0490 -0.2465
 7715TIP3    H223068   0.015   0.603   5.941 -1.0699 -0.1341  1.2488
 7716TIP3   OH223069   0.629   4.520   6.106  1.0694  0.3001  0.7158
 7716TIP3    H123070   0.595   4.490   6.022  3.6001  2.1423 -1.0439
 7716TIP3    H223071   0.596   4.609   6.115  0.1780 -0.1553  2.0693
 7717TIP3   OH223072   1.824   3.031   5.162  0.1112 -0.1789 -0.7099
 7717TIP3    H123073   1.867   3.098   5.216  2.2506 -2.7893  0.9012
 7717TIP3    H223074   1.751   3.078   5.120  1.6596  3.2104  0.1951
 7718TIP3   OH223075   2.340   2.480   6.137  0.4264  0.1514 -0.1298
 7718TIP3    H123076   2.414   2.483   6.076  0.2648  1.4028 -0.2711
 7718TIP3    H223077   2.302   2.567   6.132 -0.1834 -0.0495  1.0439
 7719TIP3   OH223078   7.030   5.211   5.537  0.0880  0.1582 -0.0008
 7719TIP3    H123079   7.119   5.178   5.531 -0.2326 -0.4687 -1.5078
 7719TIP3    H223080   6.978   5.150   5.484 -1.2553  0.4478  0.9528
 7720TIP3   OH223081   0.576   2.150   6.292  0.1052  0.0747  0.4450
 7720TIP3    H123082   0.593   2.242   6.314 -2.1226  1.0867 -1.8760
 7720TIP3    H223083   0.506   2.123   6.352 -0.0424  0.2304  0.3409
 7721TIP3   OH223084   8.913   2.115   4.947  0.1841  0.5037  0.3795
 7721TIP3    H123085   8.895   2.181   5.013 -0.0202  0.0502  0.7785
 7721TIP3    H223086   8.852   2.044   4.966 -0.5135  0.7476 -0.8516
 7722TIP3   OH223087   1.857   2.833   4.315  1.0063  0.5398 -0.7156
 7722TIP3    H123088   1.929   2.839   4.378  0.5679 -2.2118  0.1051
 7722TIP3    H223089   1.785   2.882   4.355  0.8992 -0.7589  0.6971
 7723TIP3   OH223090   2.400   5.988   1.124 -0.1220 -0.3564  0.3044
 7723TIP3    H123091   2.363   6.054   1.182 -0.9975 -0.2764 -0.3444
 7723TIP3    H223092   2.440   6.038   1.052  1.8041 -0.4107  1.3026
 7724TIP3   OH223093   0.521   2.256   5.675 -0.2682 -0.1732 -0.0682
 7724TIP3    H123094   0.578   2.315   5.625 -2.0836  0.6416 -1.2294
 7724TIP3    H223095   0.464   2.217   5.610 -1.0919 -0.9415  1.0905
 7725TIP3   OH223096   4.831   0.006   0.235  0.4601  0.2753 -0.1722
 7725TIP3    H123097   4.922  -0.025   0.235  0.5281  0.4822 -0.0397
 7725TIP3    H223098   4.834   0.093   0.274  0.1278  0.0612  0.3394
 7726TIP3   OH223099   8.500   3.309   7.126  0.2627 -0.5530  0.0489
 7726TIP3    H123100   8.419   3.340   7.167 -0.0917 -0.3222 -0.8085
 7726TIP3    H223101   8.563   3.378   7.141 -0.1606  0.0133 -0.6981
 7727TIP3   OH223102   1.015   3.508   6.575 -0.6621  0.4736 -0.3268
 7727TIP3    H123103   0.941   3.531   6.632  0.4696 -1.1599  1.8321
 7727TIP3    H223104   0.993   3.422   6.541 -0.3013  0.4994 -0.6259
 7728TIP3   OH223105   0.450   6.119   2.594 -0.2722  0.1041  0.3947
 7728TIP3    H123106   0.532   6.096   2.639 -0.5014  0.9199  1.2498
 7728TIP3    H223107   0.476   6.183   2.528 -0.3712  1.1752  1.3858
 7729TIP3   OH223108   1.527   3.608   4.578 -0.2973  0.1642 -0.1253
 7729TIP3    H123109   1.446   3.651   4.552 -1.5031 -0.8309  1.8181
 7729TIP3    H223110   1.552   3.652   4.660  2.0041  1.5163 -1.4997
 7730TIP3   OH223111   2.280   4.579   6.124  0.0675 -0.1415 -0.0161
 7730TIP3    H123112   2.324   4.601   6.206 -1.0141 -1.9047  1.0832
 7730TIP3    H223113   2.189   4.565   6.149 -0.1130 -1.5294 -1.3569
 7731TIP3   OH223114   2.539   1.472   4.190 -0.5507 -0.1223 -0.1007
 7731TIP3    H123115   2.578   1.531   4.125  0.0026 -0.7643 -0.3497
 7731TIP3    H223116   2.453   1.511   4.208  0.8531  2.3102  1.7665
 7732TIP3   OH223117   3.163   5.678   3.229 -0.1225  0.5187 -0.1201
 7732TIP3    H123118   3.068   5.667   3.232 -0.0390 -0.0807  0.4361
 7732TIP3    H223119   3.179   5.759   3.278 -0.2499 -0.0314  0.8449
 7733TIP3   OH223120   0.586   6.583   5.140 -0.7965  0.5847 -0.0381
 7733TIP3    H123121   0.529   6.659   5.155 -1.5207 -0.0788  0.6011
 7733TIP3    H223122   0.626   6.566   5.226 -0.8815  0.0471 -0.1042
 7734TIP3   OH223123   8.094   5.211   4.234 -0.1573  0.8647  0.1792
 7734TIP3    H123124   8.024   5.156   4.270 -1.8596  2.8758  0.0834
 7734TIP3    H223125   8.168   5.153   4.225 -1.4480 -1.0583  1.4910
 7735TIP3   OH223126   0.357   3.003   4.614  0.0027  0.2655  0.0896
 7735TIP3    H123127   0.290   2.936   4.630  0.2920  0.1311  0.7487
 7735TIP3    H223128   0.317   3.062   4.551  0.0357 -0.9745 -1.1385
 7736TIP3   OH223129   1.317   3.809   4.072  0.1417 -0.1021  0.3048
 7736TIP3    H123130   1.286   3.888   4.028 -0.6830 -1.1609 -1.0590
 7736TIP3    H223131   1.360   3.758   4.003  0.8472 -0.7544  1.2117
 7737TIP3   OH223132   8.085   2.350   6.548 -0.2533 -0.2374  0.3356
 7737TIP3    H123133   8.005   2.390   6.582 -0.7861 -0.9851 -0.0217
 7737TIP3    H223134   8.082   2.260   6.580 -0.0254 -0.5333 -0.4698
 7738TIP3   OH223135   0.141   4.717   6.655 -0.6894  0.2382 -0.3114
 7738TIP3    H123136   0.059   4.691   6.696  0.2999 -1.3936  0.6686
 7738TIP3    H223137   0.139   4.812   6.655 -2.4717  0.2150 -0.0800
 7739TIP3   OH223138   0.793   4.367   6.244  0.4686 -0.1740  0.2775
 7739TIP3    H123139   0.877   4.396   6.209 -0.6419  1.0186 -1.4502
 7739TIP3    H223140   0.728   4.419   6.197 -1.2458 -1.1161  1.5591
 7740TIP3   OH223141  -0.032   3.697   5.541 -0.4552 -0.3977 -0.5542
 7740TIP3    H123142   0.010   3.612   5.549  0.8817  0.3147  0.2584
 7740TIP3    H223143   0.040   3.760   5.549 -1.7382  0.8762  1.5718
 7741TIP3   OH223144   4.576   3.209   5.180 -0.4062  0.3339  0.0099
 7741TIP3    H123145   4.640   3.143   5.208 -0.6207  0.2045  0.1904
 7741TIP3    H223146   4.493   3.179   5.215 -0.4200  0.9653  0.5338
 7742TIP3   OH223147   7.994   5.254   3.975 -0.5050 -0.1414 -0.2125
 7742TIP3    H123148   7.983   5.262   4.070  0.0147 -0.1135 -0.1492
 7742TIP3    H223149   7.909   5.227   3.942 -1.0164  1.0024  0.1271
 7743TIP3   OH223150   1.124   0.460   4.512 -0.0890  0.2717  0.1186
 7743TIP3    H123151   1.040   0.427   4.479  1.0195 -1.3247 -1.1543
 7743TIP3    H223152   1.107   0.479   4.605 -1.6853 -0.5755  0.0202
 7744TIP3   OH223153   4.223   8.119   1.243  0.7150 -0.1635  0.8101
 7744TIP3    H123154   4.305   8.108   1.292 -0.5717 -1.8515  2.6645
 7744TIP3    H223155   4.157   8.075   1.297 -1.5384  1.7214 -0.3268
 7745TIP3   OH223156   7.067   0.724   5.938  0.4930  0.5618  0.0476
 7745TIP3    H123157   7.063   0.788   5.866 -2.0616  0.0640 -0.2901
 7745TIP3    H223158   7.028   0.770   6.012 -0.8781 -0.4198 -0.0575
 7746TIP3   OH223159   3.353   4.418   5.852  0.4234  0.1208  0.0105
 7746TIP3    H123160   3.262   4.440   5.872  1.0462  3.4802 -0.6023
 7746TIP3    H223161   3.372   4.465   5.771  2.4280 -1.3291 -0.3947
 7747TIP3   OH223162   4.520   0.500   0.385 -0.4316 -0.1302 -0.1469
 7747TIP3    H123163   4.526   0.444   0.307  1.7279 -0.0916 -0.0491
 7747TIP3    H223164   4.453   0.564   0.363  0.1350 -0.1332 -1.9855
 7748TIP3   OH223165   6.347   8.161   5.527  0.0380 -0.2743  0.1840
 7748TIP3    H123166   6.386   8.170   5.440  0.3768  0.9712  0.4539
 7748TIP3    H223167   6.316   8.249   5.549 -1.3396 -0.8806  0.7174
 7749TIP3   OH223168   8.618   1.745   6.835 -0.0870 -0.2964 -0.1035
 7749TIP3    H123169   8.614   1.658   6.794 -1.6843 -1.3037  2.1176
 7749TIP3    H223170   8.698   1.743   6.888  0.7403  0.1913 -1.3033
 7750TIP3   OH223171   8.842   3.582   4.300  0.1473 -0.3524  0.2482
 7750TIP3    H123172   8.814   3.492   4.285  1.8388 -0.8924  0.2884
 7750TIP3    H223173   8.928   3.574   4.340  1.2115  1.3168 -1.6525
 7751TIP3   OH223174   2.406   4.141   5.354  0.2161  0.0211 -0.7503
 7751TIP3    H123175   2.479   4.118   5.297  0.2014  2.1541 -1.6886
 7751TIP3    H223176   2.330   4.145   5.295 -0.5384 -1.4945  0.0931
 7752TIP3   OH223177   0.838   2.944   6.159 -0.4323  0.1732  0.0279
 7752TIP3    H123178   0.933   2.944   6.171 -0.0972  1.4174 -2.3831
 7752TIP3    H223179   0.806   3.011   6.219  0.3944  0.9246 -0.3740
 7753TIP3   OH223180   0.585   6.147   4.864 -0.2450  0.2738 -0.6643
 7753TIP3    H123181   0.510   6.204   4.878 -2.7242 -2.8780 -0.6467
 7753TIP3    H223182   0.622   6.134   4.952  0.0654  1.4356 -0.6138
 7754TIP3   OH223183   0.400   3.340   5.680  0.4904 -0.4941 -0.9870
 7754TIP3    H123184   0.381   3.246   5.690  0.0096 -0.1961  1.1231
 7754TIP3    H223185   0.430   3.348   5.590 -1.2151 -2.3866 -1.7892
 7755TIP3   OH223186   7.871   6.277   5.040 -0.2383 -0.0049  0.1379
 7755TIP3    H123187   7.815   6.200   5.051  1.0556 -0.8910  0.6267
 7755TIP3    H223188   7.932   6.273   5.114  1.3125  0.2418 -1.1094
 7756TIP3   OH223189   8.233   5.322   5.925  0.2899 -0.1440 -0.0602
 7756TIP3    H123190   8.154   5.359   5.885 -0.5893 -1.5548  0.3613
 7756TIP3    H223191   8.265   5.392   5.982  0.7021  1.3217 -2.0087
 7757TIP3   OH223192   2.602   5.011   6.899  0.2775 -0.0922  0.0625
 7757TIP3    H123193   2.604   5.049   6.987  1.3948 -0.6931  0.3035
 7757TIP3    H223194   2.564   4.925   6.911  3.1738 -1.3776  0.4557
 7758TIP3   OH223195   2.507   3.157   6.295 -0.1577 -0.1133 -0.0083
 7758TIP3    H123196   2.429   3.177   6.244 -1.0195  1.3117  1.7918
 7758TIP3    H223197   2.580   3.183   6.239 -1.0924  1.7038 -0.4217
 7759TIP3   OH223198   5.121   5.772   3.992  0.4466  0.4617  0.2125
 7759TIP3    H123199   5.133   5.686   4.033 -0.2445  0.4479  0.3951
 7759TIP3    H223200   5.047   5.811   4.038  0.7242  1.1374  0.0944
 7760TIP3   OH223201   1.100   5.645   6.395 -0.0106 -0.3636 -0.2645
 7760TIP3    H123202   1.081   5.663   6.303  2.5328  0.0490 -0.7530
 7760TIP3    H223203   1.129   5.553   6.396 -0.4519 -0.4963  0.1774
 7761TIP3   OH223204   8.744   5.145   6.157 -0.0642  0.0582  0.0214
 7761TIP3    H123205   8.767   5.238   6.161 -1.0364  0.3403 -0.6650
 7761TIP3    H223206   8.715   5.131   6.067 -0.4147 -0.7887  0.2569
 7762TIP3   OH223207   0.244   4.528   5.710 -0.3008  0.7751  0.3531
 7762TIP3    H123208   0.171   4.562   5.658 -0.4694  1.7556  1.2193
 7762TIP3    H223209   0.221   4.436   5.726  0.2527  0.1527 -2.1677
 7763TIP3   OH223210   8.320   5.106   3.459 -0.1963 -0.6205 -0.2184
 7763TIP3    H123211   8.356   5.164   3.392  1.0322 -2.1136 -0.8663
 7763TIP3    H223212   8.247   5.156   3.496  0.2436  0.9582 -1.4027
 7764TIP3   OH223213   8.726   4.746   7.044 -0.2691  0.3306 -0.3196
 7764TIP3    H123214   8.659   4.812   7.030  0.7095  1.4240  0.0412
 7764TIP3    H223215   8.791   4.790   7.100  0.9644 -0.5521 -1.0424
 7765TIP3   OH223216   1.265   1.438   6.876  0.3375  1.1457 -0.0917
 7765TIP3    H123217   1.173   1.413   6.871  1.2601 -2.0830 -1.9909
 7765TIP3    H223218   1.300   1.387   6.948  1.1252  0.6845 -0.7910
 7766TIP3   OH223219   0.421   3.433   3.774  0.3323  0.5028 -0.7114
 7766TIP3    H123220   0.407   3.504   3.710  0.2049  0.1039 -1.1321
 7766TIP3    H223221   0.425   3.354   3.720 -0.3047  0.1046 -0.1755
 7767TIP3   OH223222   1.579   5.628   4.507 -0.2463 -0.2451  0.5170
 7767TIP3    H123223   1.660   5.601   4.465  0.0300  0.5766  0.5119
 7767TIP3    H223224   1.512   5.615   4.439 -0.1539 -1.1055  0.5856
 7768TIP3   OH223225   4.108   7.583   5.283 -0.3305  0.1775  0.1039
 7768TIP3    H123226   4.027   7.542   5.255  0.0702  0.0016 -0.8411
 7768TIP3    H223227   4.176   7.520   5.259 -0.1087 -0.8372  3.2572
 7769TIP3   OH223228   1.311   0.706   6.103 -0.0219 -0.0554  0.1291
 7769TIP3    H123229   1.252   0.776   6.129  0.2446 -0.3062  1.4375
 7769TIP3    H223230   1.327   0.721   6.010 -2.3311 -0.1212 -0.3058
 7770TIP3   OH223231   2.542   2.295   6.739 -0.2604  0.0961  0.7100
 7770TIP3    H123232   2.461   2.243   6.740 -1.0082  1.2656  3.0892
 7770TIP3    H223233   2.604   2.243   6.790  0.6226 -0.9004 -1.2827
 7771TIP3   OH223234   8.375   6.116   4.195 -0.1013  0.9074  0.1875
 7771TIP3    H123235   8.385   6.036   4.248 -1.3352  0.4529 -0.2540
 7771TIP3    H223236   8.284   6.113   4.165  0.2902  1.7187 -1.0723
 7772TIP3   OH223237   0.774   3.629   4.997 -0.2401  0.5045  0.3656
 7772TIP3    H123238   0.784   3.620   4.902 -1.8179 -0.1943  0.2522
 7772TIP3    H223239   0.859   3.663   5.027  1.2269 -1.8784 -0.9307
 7773TIP3   OH223240   7.925   3.126   4.466  0.1793 -0.1127 -0.0594
 7773TIP3    H123241   7.972   3.093   4.543 -0.1039 -1.4332 -0.4473
 7773TIP3    H223242   7.927   3.221   4.476 -0.2981 -0.2912  1.8355
 7774TIP3   OH223243   0.558   2.637   4.886 -0.4002 -0.4958  0.0249
 7774TIP3    H123244   0.555   2.725   4.848 -1.2058 -0.5714 -0.1019
 7774TIP3    H223245   0.525   2.580   4.816  1.4801 -1.0874 -0.3989
 7775TIP3   OH223246   7.834   4.457   6.069 -0.0208 -0.2729 -0.1187
 7775TIP3    H123247   7.876   4.372   6.083  0.1146 -0.1872  0.0004
 7775TIP3    H223248   7.906   4.520   6.074 -0.3603 -0.0038  1.4108
 7776TIP3   OH223249   1.479   3.278   6.266  0.2101 -0.0171 -0.4918
 7776TIP3    H123250   1.536   3.228   6.208 -0.4897 -0.1828 -1.0439
 7776TIP3    H223251   1.471   3.364   6.224  1.1435  0.4580  0.2854
 7777TIP3   OH223252   1.362   2.825   5.312 -0.2800  0.5643  0.2116
 7777TIP3    H123253   1.397   2.894   5.255  1.6400 -0.7497 -0.2393
 7777TIP3    H223254   1.295   2.782   5.259  0.5678  0.2037 -0.5703
 7778TIP3   OH223255   7.716   4.924   5.767  0.0920  0.6825 -0.6658
 7778TIP3    H123256   7.756   4.996   5.718 -0.2872  1.1798 -0.2555
 7778TIP3    H223257   7.768   4.917   5.846  0.1794  0.4476 -0.7439
 7779TIP3   OH223258   1.868   2.419   5.028  0.3247 -0.1721 -0.0244
 7779TIP3    H123259   1.944   2.441   4.975 -0.4594 -0.9570 -1.5190
 7779TIP3    H223260   1.875   2.324   5.041  0.0539 -0.1160  0.5428
 7780TIP3   OH223261   2.031   4.452   6.201  0.2459  0.1106 -0.4967
 7780TIP3    H123262   1.970   4.467   6.273  2.9933 -2.9572  2.6319
 7780TIP3    H223263   1.990   4.384   6.148  0.9392 -2.0635  1.6884
 7781TIP3   OH223264   2.051   4.849   5.304  0.3609  0.1623  0.0149
 7781TIP3    H123265   2.070   4.818   5.393 -0.6902 -1.3380 -0.2580
 7781TIP3    H223266   2.096   4.786   5.247  1.4534  1.4111 -0.5226
 7782TIP3   OH223267   1.254   2.254   3.109 -0.0894 -0.2555  0.4850
 7782TIP3    H123268   1.315   2.320   3.143  0.5024 -0.9907  0.8593
 7782TIP3    H223269   1.176   2.304   3.085  0.5988  0.6759  0.1466
 7783TIP3   OH223270   1.023   6.296   3.544 -0.1438  0.1044  0.5620
 7783TIP3    H123271   0.954   6.276   3.480 -0.0201 -0.9288  0.7385
 7783TIP3    H223272   1.083   6.354   3.497 -0.1767 -0.4611 -0.1896
 7784TIP3   OH223273   7.933   5.647   3.737  0.2611  0.0652  0.0600
 7784TIP3    H123274   7.873   5.575   3.758  0.6848  0.2078  1.8348
 7784TIP3    H223275   7.903   5.720   3.789  0.4175  0.9225 -1.0262
 7785TIP3   OH223276   0.442   3.146   4.181  0.1291  0.2806 -0.1057
 7785TIP3    H123277   0.465   3.149   4.274 -0.6585 -1.6246  0.1718
 7785TIP3    H223278   0.500   3.079   4.144 -0.6367 -0.0845 -0.6533
 7786TIP3   OH223279   4.884   2.762   6.430 -0.1329  0.4439 -0.2502
 7786TIP3    H123280   4.846   2.844   6.396  0.5784  0.6702 -0.5051
 7786TIP3    H223281   4.814   2.724   6.483 -1.0178  0.4285 -1.4211
 7787TIP3   OH223282   2.492   3.689   4.610 -0.1042  0.1782 -0.6451
 7787TIP3    H123283   2.418   3.747   4.590 -0.7573 -0.1160  0.8340
 7787TIP3    H223284   2.562   3.748   4.638  0.4671  0.5089 -2.7262
 7788TIP3   OH223285   0.349   3.066   5.686 -0.6083 -0.0172  0.3401
 7788TIP3    H123286   0.309   3.021   5.611  0.3031  0.1902 -0.2727
 7788TIP3    H223287   0.415   3.005   5.719 -1.4973 -0.4148  1.4368
 7789TIP3   OH223288   2.969   1.182   5.319  0.1131  0.1889  0.4642
 7789TIP3    H123289   2.929   1.254   5.368  0.6430  0.5120  0.4279
 7789TIP3    H223290   2.979   1.216   5.230  0.2090  0.0083  0.4055
 7790TIP3   OH223291   8.528   3.895   5.019  0.7351 -0.0418 -0.0471
 7790TIP3    H123292   8.603   3.922   5.072  1.4013  0.7374 -1.3484
 7790TIP3    H223293   8.492   3.977   4.984 -0.3866 -0.4519  0.1155
 7791TIP3   OH223294   3.838   3.014   5.422 -0.4348 -0.4284 -0.2130
 7791TIP3    H123295   3.893   3.091   5.408 -2.9870  1.7932  1.6166
 7791TIP3    H223296   3.781   3.011   5.345 -0.8679 -0.0135  0.0895
 7792TIP3   OH223297   2.228   1.880   5.174 -0.0430  0.4307 -0.2898
 7792TIP3    H123298   2.277   1.835   5.106 -0.0274  0.7179 -0.4684
 7792TIP3    H223299   2.271   1.855   5.256 -1.3279 -1.5817 -0.1887
 7793TIP3   OH223300   2.742   3.592   4.940 -0.1438 -0.3296  0.5966
 7793TIP3    H123301   2.831   3.572   4.910  0.6205  0.7375  2.1456
 7793TIP3    H223302   2.724   3.527   5.008 -0.1654  0.1140  1.0115
 7794TIP3   OH223303   4.423   2.959   5.149 -0.3581 -0.3278  0.7446
 7794TIP3    H123304   4.469   2.967   5.066  0.5378  2.9368  1.4616
 7794TIP3    H223305   4.337   2.998   5.132  0.4422  1.9972  1.7144
 7795TIP3   OH223306   1.382   4.411   7.133  0.2524 -0.4089  0.3069
 7795TIP3    H123307   1.393   4.461   7.214  0.2539 -0.6149  0.4365
 7795TIP3    H223308   1.314   4.458   7.085  1.6245  0.8391 -0.4647
 7796TIP3   OH223309   2.357   5.513   5.067 -0.0568 -0.2977  0.4007
 7796TIP3    H123310   2.444   5.518   5.108  0.5121 -1.7675 -0.6096
 7796TIP3    H223311   2.330   5.422   5.078 -1.4619  0.1325  0.6551
 7797TIP3   OH223312   3.132   2.361   4.525  0.1628  0.3656  0.1425
 7797TIP3    H123313   3.223   2.343   4.549  0.0743  0.8255  0.8264
 7797TIP3    H223314   3.128   2.455   4.510 -0.2971  0.4160  0.5471
 7798TIP3   OH223315   1.452   4.027   4.946 -0.5657  0.7028  0.1870
 7798TIP3    H123316   1.478   4.044   4.856  0.3515 -1.1602  0.0763
 7798TIP3    H223317   1.535   4.021   4.994 -0.9900  0.3125  0.8843
 7799TIP3   OH223318   3.986   6.618   6.818 -0.1422  0.3914  0.3524
 7799TIP3    H123319   4.068   6.583   6.851 -1.1247 -0.7865  1.6103
 7799TIP3    H223320   4.010   6.670   6.742  1.5086 -1.7915 -0.6446
 7800TIP3   OH223321   2.832   3.183   3.514 -0.0797  0.2274 -0.2196
 7800TIP3    H123322   2.922   3.169   3.481 -0.6262  1.0883 -2.1507
 7800TIP3    H223323   2.777   3.171   3.437 -1.5971  0.2325  0.8537
 7801TIP3   OH223324   2.956   3.690   2.554  0.5609 -0.5950 -0.0903
 7801TIP3    H123325   2.929   3.782   2.549 -0.1334 -0.7933  0.0128
 7801TIP3    H223326   2.905   3.646   2.486 -0.0407 -1.1289  0.7022
 7802TIP3   OH223327   2.020   2.889   4.528 -0.3897 -0.0536  0.3805
 7802TIP3    H123328   1.973   2.972   4.541 -0.9944 -0.4968  1.0505
 7802TIP3    H223329   2.001   2.838   4.606 -1.1980 -1.3827 -0.6504
 7803TIP3   OH223330   2.815   5.243   2.780  0.0726  0.8408 -0.3129
 7803TIP3    H123331   2.735   5.195   2.759  0.5103 -0.6292  1.2764
 7803TIP3    H223332   2.885   5.195   2.736  0.2197  1.5117 -0.8250
 7804TIP3   OH223333   2.549   5.302   6.235  0.5953  0.1395  0.4284
 7804TIP3    H123334   2.589   5.235   6.291  1.5204  1.6600  1.6125
 7804TIP3    H223335   2.458   5.274   6.226  0.8729 -1.0722  1.2449
 7805TIP3   OH223336   2.823   3.109   6.410  0.2758  0.1267  0.3405
 7805TIP3    H123337   2.804   3.142   6.497 -0.2218 -1.5201  0.8769
 7805TIP3    H223338   2.764   3.157   6.352  0.0454  0.6524  1.0135
 7806TIP3   OH223339   2.412   5.030   3.976 -0.0860 -0.2840 -0.1749
 7806TIP3    H123340   2.414   4.941   4.013  1.4367  0.1883  0.9622
 7806TIP3    H223341   2.319   5.048   3.962 -0.4074 -2.1023 -0.5300
 7807TIP3   OH223342   4.106   2.911   4.039  0.5551 -0.3757  0.0900
 7807TIP3    H123343   4.188   2.960   4.033  1.2248 -1.4664  0.1408
 7807TIP3    H223344   4.081   2.895   3.948 -0.1793  0.8736  0.0552
 7808TIP3   OH223345   2.194   4.137   5.854 -0.0263 -0.0531 -0.1213
 7808TIP3    H123346   2.290   4.141   5.858 -0.1027  0.9594  0.7178
 7808TIP3    H223347   2.173   4.172   5.767  0.3419  0.0718 -0.1634
 7809TIP3   OH223348   1.782   5.869   2.647  0.4565  0.1292 -0.0455
 7809TIP3    H123349   1.865   5.899   2.685  0.1224  0.9302  0.0579
 7809TIP3    H223350   1.727   5.948   2.644 -0.5821 -0.5589  0.6330
 7810TIP3   OH223351   3.077   5.510   7.064  0.2631 -0.1994  0.3970
 7810TIP3    H123352   3.033   5.594   7.051 -1.1068 -0.6282  2.0662
 7810TIP3    H223353   3.142   5.506   6.993 -0.3688  1.7717 -0.3417
 7811TIP3   OH223354   3.329   2.433   5.309  0.7050 -0.2514  0.7235
 7811TIP3    H123355   3.322   2.366   5.242 -0.4142 -0.4800  1.0691
 7811TIP3    H223356   3.423   2.455   5.311  0.5899  0.6503 -1.7580
 7812TIP3   OH223357   3.296   6.092   2.349  0.3037  0.5619 -0.3341
 7812TIP3    H123358   3.287   6.006   2.389 -1.2698  1.1625  0.6511
 7812TIP3    H223359   3.290   6.076   2.255 -1.8494 -0.1842 -0.0837
 7813TIP3   OH223360   2.895   3.960   3.469 -0.0211 -0.3652  0.0811
 7813TIP3    H123361   2.979   3.979   3.511 -1.1995 -0.4829  2.6313
 7813TIP3    H223362   2.897   3.866   3.451  0.7204 -0.2112 -0.6431
 7814TIP3   OH223363   8.870   4.829   5.337 -0.4946 -0.8174 -0.0804
 7814TIP3    H123364   8.890   4.772   5.263 -0.4416  0.1338 -0.8004
 7814TIP3    H223365   8.844   4.912   5.298 -0.9229 -0.4518  0.9563
 7815TIP3   OH223366   2.930   2.363   5.063  0.9091  0.1788  0.2837
 7815TIP3    H123367   2.977   2.356   5.146  2.6383 -1.8945 -0.8105
 7815TIP3    H223368   2.989   2.411   5.005  1.0239 -1.0375 -0.6305
 7816TIP3   OH223369   4.954   3.351   5.447 -0.0234  0.1427  0.1663
 7816TIP3    H123370   4.994   3.288   5.388  0.9472  0.8778  0.0382
 7816TIP3    H223371   4.963   3.435   5.403  0.6646  0.6894  1.3401
 7817TIP3   OH223372   3.147   3.870   5.986  0.3700 -0.5369  0.5679
 7817TIP3    H123373   3.071   3.891   6.041  1.2341  1.4455  1.0706
 7817TIP3    H223374   3.146   3.937   5.918  2.5252  0.5082  1.5033
 7818TIP3   OH223375   0.161   6.142   4.245  0.1898  0.0238 -0.2646
 7818TIP3    H123376   0.116   6.200   4.184 -0.4261 -0.0668  0.1009
 7818TIP3    H223377   0.091   6.098   4.293  0.6516 -0.9697 -0.4899
 7819TIP3   OH223378   1.042   4.579   4.680 -0.0743 -0.7271  0.0776
 7819TIP3    H123379   1.053   4.674   4.682 -1.4071 -0.5814  1.0866
 7819TIP3    H223380   1.084   4.552   4.599  0.5434  0.6948 -0.0966
 7820TIP3   OH223381   1.949   5.891   3.720  0.3193  0.3239 -0.0561
 7820TIP3    H123382   1.920   5.980   3.740 -1.9636 -0.5126  0.4926
 7820TIP3    H223383   1.945   5.845   3.804 -1.0352 -0.9759 -0.8095
 7821TIP3   OH223384   2.041   4.716   2.710 -0.3441  0.1323 -1.1076
 7821TIP3    H123385   1.994   4.798   2.727 -0.2804  0.2697 -1.5921
 7821TIP3    H223386   1.988   4.648   2.752 -1.1304  0.2467 -1.9121
 7822TIP3   OH223387   2.911   2.716   5.019  0.1787 -0.5308 -0.3064
 7822TIP3    H123388   2.869   2.639   5.057 -1.0804  0.5293  0.4840
 7822TIP3    H223389   2.841   2.761   4.972 -0.1365  2.3162  2.6675
 7823TIP3   OH223390   2.660   4.041   7.176 -0.2822  0.1221  0.0701
 7823TIP3    H123391   2.654   4.107   7.245 -0.7686  0.5394 -0.3674
 7823TIP3    H223392   2.753   4.019   7.171 -0.6357 -2.5165  3.3183
 7824TIP3   OH223393   3.938   0.935   3.882  0.5906  0.0922  0.0479
 7824TIP3    H123394   3.984   0.911   3.962  1.0508 -1.3041 -0.6169
 7824TIP3    H223395   3.983   1.014   3.852  0.8038  0.2759  0.8376
 7825TIP3   OH223396   2.326   3.702   6.424 -0.0066 -0.0515  0.0516
 7825TIP3    H123397   2.299   3.626   6.475 -1.7855  0.6290  0.1633
 7825TIP3    H223398   2.416   3.718   6.451  0.0533 -1.5162  0.7593
 7826TIP3   OH223399   2.727   3.470   5.186 -0.0755  0.3224 -0.3679
 7826TIP3    H123400   2.707   3.377   5.184 -0.6738  0.3952  1.1933
 7826TIP3    H223401   2.723   3.493   5.279  2.0856  1.4685 -0.5284
 7827TIP3   OH223402   3.206   3.771   3.555  0.7289  0.3105  0.2252
 7827TIP3    H123403   3.285   3.781   3.501 -0.2133  0.7182 -1.1083
 7827TIP3    H223404   3.203   3.677   3.575  0.5692 -0.0352 -1.2914
 7828TIP3   OH223405   3.418   3.199   2.800  0.1087  0.4793 -0.3328
 7828TIP3    H123406   3.347   3.138   2.823  1.0616  0.3480  2.3996
 7828TIP3    H223407   3.388   3.284   2.832  1.4310  0.3013  1.4957
 7829TIP3   OH223408   2.410   3.462   3.608 -0.2060 -0.1186 -0.2817
 7829TIP3    H123409   2.398   3.526   3.678 -0.5077 -1.3401  0.8067
 7829TIP3    H223410   2.500   3.432   3.619 -0.0735  0.0935 -0.7785
 7830TIP3   OH223411   3.403   3.020   4.823 -0.1710  0.1573 -0.2219
 7830TIP3    H123412   3.337   2.976   4.769  0.6155  0.5558 -1.5425
 7830TIP3    H223413   3.485   3.009   4.773  0.3849  1.4290  0.3965
 7831TIP3   OH223414   2.815   4.438   4.076  0.3527  0.1909 -0.3093
 7831TIP3    H123415   2.905   4.443   4.109  0.9349  0.3200 -1.8455
 7831TIP3    H223416   2.805   4.348   4.045 -1.4387 -1.0385  3.5473
 7832TIP3   OH223417   2.417   5.151   3.668 -0.2498 -0.1668 -0.3869
 7832TIP3    H123418   2.368   5.089   3.721 -0.3557 -0.0447 -0.3441
 7832TIP3    H223419   2.497   5.103   3.643 -0.3695 -0.3483 -0.4218
 7833TIP3   OH223420   1.525   2.619   2.973  0.8564 -0.6920 -0.5137
 7833TIP3    H123421   1.521   2.542   3.030  0.4016 -1.7473 -1.9669
 7833TIP3    H223422   1.600   2.669   3.007  0.9406 -1.5854  0.6553
 7834TIP3   OH223423   8.114   3.380   3.322 -0.1021  0.2745  0.0473
 7834TIP3    H123424   8.193   3.375   3.378 -0.9152 -1.0529  1.1042
 7834TIP3    H223425   8.044   3.347   3.378 -1.4886  1.7651 -0.7830
 7835TIP3   OH223426   1.826   3.059   5.558 -0.2395 -1.3110 -0.2293
 7835TIP3    H123427   1.847   3.069   5.465 -1.4190 -0.8556 -0.4546
 7835TIP3    H223428   1.910   3.041   5.600  0.2705 -1.7452 -1.4179
 7836TIP3   OH223429   0.211   7.376   5.484  0.2917 -0.1575 -0.5590
 7836TIP3    H123430   0.294   7.355   5.442 -0.0771 -0.1613 -1.2772
 7836TIP3    H223431   0.177   7.451   5.435  0.7842  1.0596  0.9213
 7837TIP3   OH223432   0.520   4.306   4.072 -0.5294 -0.2810  0.5638
 7837TIP3    H123433   0.447   4.245   4.075 -1.0108  0.2787  0.3085
 7837TIP3    H223434   0.531   4.335   4.163 -0.1461 -0.9211  0.7261
 7838TIP3   OH223435   2.353   3.344   4.015  0.4379 -0.1635 -0.2503
 7838TIP3    H123436   2.426   3.392   3.976  1.1051 -2.4778 -1.9188
 7838TIP3    H223437   2.389   3.310   4.097  0.5695  0.4447 -0.0478
 7839TIP3   OH223438   1.565   2.292   3.713 -0.1103  0.8096  0.5864
 7839TIP3    H123439   1.492   2.231   3.705 -0.0062  0.3320  2.8371
 7839TIP3    H223440   1.552   2.354   3.641 -2.0261  0.0113  0.2005
 7840TIP3   OH223441   1.797   3.995   3.507 -0.2950 -0.2402  0.3810
 7840TIP3    H123442   1.814   3.912   3.551  4.3426  0.4358  0.2039
 7840TIP3    H223443   1.781   4.058   3.577  0.6488 -0.4520  0.7979
 7841TIP3   OH223444   2.742   2.783   5.319 -0.3442  0.1132  0.2507
 7841TIP3    H123445   2.663   2.763   5.269 -0.9361  0.5674  0.9901
 7841TIP3    H223446   2.713   2.845   5.386  0.7492  0.6876  0.2022
 7842TIP3   OH223447   3.250   1.846   6.052 -0.1183  0.1486  0.2236
 7842TIP3    H123448   3.274   1.906   5.982 -1.5072 -0.4072 -0.7469
 7842TIP3    H223449   3.323   1.850   6.114  0.3065  1.9668 -0.3836
 7843TIP3   OH223450   3.156   2.571   2.678 -0.4967  0.6562  0.1592
 7843TIP3    H123451   3.147   2.614   2.763  1.6852 -1.0463  1.3018
 7843TIP3    H223452   3.227   2.616   2.635 -1.3860  1.3028 -0.6487
 7844TIP3   OH223453   3.054   3.096   5.372 -0.6006  0.3317  0.3303
 7844TIP3    H123454   3.103   3.070   5.451 -0.9496  0.2440  0.5195
 7844TIP3    H223455   3.087   3.038   5.303  1.4275  1.9863 -0.1422
 7845TIP3   OH223456   0.934   2.995   5.872  0.1399 -0.0205  0.0058
 7845TIP3    H123457   0.934   2.943   5.953 -0.0174 -0.4481 -0.2682
 7845TIP3    H223458   0.856   3.050   5.880 -0.3319 -0.6440 -0.2225
 7846TIP3   OH223459   1.527   1.482   2.464  0.3979 -0.4116 -0.0997
 7846TIP3    H123460   1.572   1.560   2.498  0.5694 -0.5819  0.0656
 7846TIP3    H223461   1.445   1.516   2.428  0.6452 -0.1000 -0.3761
 7847TIP3   OH223462   2.736   4.561   5.820  0.1727  0.2371  0.1114
 7847TIP3    H123463   2.758   4.558   5.913  2.7357  0.5098 -0.4704
 7847TIP3    H223464   2.750   4.652   5.795  0.3261 -0.0233 -0.7561
 7848TIP3   OH223465   1.078   4.465   5.720 -0.3302 -0.0427  0.1067
 7848TIP3    H123466   1.051   4.389   5.667  0.4184 -0.8650  0.8951
 7848TIP3    H223467   1.129   4.427   5.792  0.5033  1.2564  0.2084
 7849TIP3   OH223468   0.199   3.658   5.905 -0.4679 -0.5119 -0.0146
 7849TIP3    H123469   0.133   3.706   5.956 -0.8206 -0.6972 -0.2982
 7849TIP3    H223470   0.239   3.725   5.849 -0.5039 -0.4256  0.0619
 7850TIP3   OH223471   0.788   4.842   4.276 -0.1747 -0.7050 -0.7692
 7850TIP3    H123472   0.839   4.780   4.328  1.0257 -0.6988 -1.9113
 7850TIP3    H223473   0.737   4.787   4.216 -1.0473 -0.6853 -0.0492
 7851TIP3   OH223474   2.957   3.689   3.407 -0.7991  0.2320  0.2064
 7851TIP3    H123475   2.972   3.706   3.314 -1.9773  0.8566  0.1225
 7851TIP3    H223476   3.045   3.681   3.444 -0.3164  0.3000 -0.8988
 7852TIP3   OH223477   3.624   3.801   4.925  0.4350 -0.4522 -0.0664
 7852TIP3    H123478   3.664   3.888   4.932  0.5247 -0.4726 -0.3397
 7852TIP3    H223479   3.693   3.745   4.891  0.3227 -0.5933 -0.0613
 7853TIP3   OH223480   0.741   2.055   4.434  0.6704 -0.2121  0.0159
 7853TIP3    H123481   0.729   2.127   4.497  0.6835  0.0612 -0.2908
 7853TIP3    H223482   0.754   2.099   4.350  0.0582 -0.5930 -0.2764
 7854TIP3   OH223483   1.534   5.030   4.560  0.5147 -0.1077  0.3707
 7854TIP3    H123484   1.576   4.967   4.619 -0.0597 -0.0994  0.7936
 7854TIP3    H223485   1.462   5.066   4.611  1.6625  1.9120  0.6214
 7855TIP3   OH223486   0.195   3.830   6.228 -0.2065 -0.4755 -0.2355
 7855TIP3    H123487   0.120   3.852   6.173  0.3996  2.2617 -0.0297
 7855TIP3    H223488   0.157   3.810   6.313 -0.6386  2.6962  0.3763
 7856TIP3   OH223489   0.674   6.305   3.764  0.4596 -0.3156 -0.5395
 7856TIP3    H123490   0.765   6.335   3.767  0.2711  0.4758 -2.1875
 7856TIP3    H223491   0.681   6.209   3.764  1.2265 -0.2744  0.6211
 7857TIP3   OH223492   1.246   5.764   4.225  0.1680  0.5105  0.7029
 7857TIP3    H123493   1.253   5.703   4.299  2.4313 -0.1565  0.0155
 7857TIP3    H223494   1.209   5.711   4.154  1.4669  0.0753  0.3168
 7858TIP3   OH223495   0.794   4.592   5.457  0.1100  0.7095  0.1398
 7858TIP3    H123496   0.739   4.626   5.527 -0.9486  0.8521 -0.7364
 7858TIP3    H223497   0.829   4.510   5.490 -0.5380  0.6844  0.7601
 7859TIP3   OH223498   3.195   4.627   3.120  0.0503 -0.4969 -0.6538
 7859TIP3    H123499   3.259   4.694   3.097 -0.1601 -0.4751 -1.1782
 7859TIP3    H223500   3.235   4.579   3.192 -0.1924  0.7810  0.3471
 7860TIP3   OH223501   3.640   5.112   3.371 -0.3490  0.1318  1.0312
 7860TIP3    H123502   3.731   5.120   3.342 -1.2328 -0.5902 -2.2112
 7860TIP3    H223503   3.596   5.188   3.332 -1.5978 -0.8924  0.3936
 7861TIP3   OH223504   2.284   2.053   4.096 -0.4646 -0.0820 -0.2556
 7861TIP3    H123505   2.208   2.107   4.118  0.7892  2.0675 -1.0127
 7861TIP3    H223506   2.338   2.109   4.041  0.8022 -2.2228 -1.2460
 7862TIP3   OH223507   1.991   2.653   5.695  0.3192 -0.4087 -0.1892
 7862TIP3    H123508   2.002   2.744   5.719  1.2059 -0.7204  0.6032
 7862TIP3    H223509   1.961   2.656   5.604 -0.1477  0.6765 -0.0061
 7863TIP3   OH223510   3.949   6.284   2.339  0.3799 -0.3506  0.3069
 7863TIP3    H123511   4.021   6.243   2.386  0.6625  1.4502  1.4962
 7863TIP3    H223512   3.877   6.221   2.345  0.8177 -0.7036  2.0465
 7864TIP3   OH223513   0.967   5.398   4.763  0.4443 -0.2606  0.3471
 7864TIP3    H123514   0.998   5.396   4.854 -2.0048 -1.4371  1.1987
 7864TIP3    H223515   0.872   5.402   4.770  0.2006 -0.6104 -2.1879
 7865TIP3   OH223516   2.062   3.509   4.582  0.3053 -1.0393 -0.1453
 7865TIP3    H123517   2.107   3.425   4.588  0.9824 -0.7306 -0.8571
 7865TIP3    H223518   2.025   3.511   4.494  3.0137  0.7446 -1.3262
 7866TIP3   OH223519   2.560   5.843   3.853 -0.1941  0.0512  0.3289
 7866TIP3    H123520   2.599   5.904   3.915  1.3069 -0.4912 -0.0558
 7866TIP3    H223521   2.466   5.856   3.862  0.0516  0.9121  1.7590
 7867TIP3   OH223522   1.615   4.348   3.275  0.4086 -0.1520  0.3781
 7867TIP3    H123523   1.645   4.257   3.277 -0.7427 -0.5402  0.2004
 7867TIP3    H223524   1.672   4.393   3.337 -0.6781 -1.5182  2.4068
 7868TIP3   OH223525   2.694   3.600   5.879 -0.0739  0.3237  0.5713
 7868TIP3    H123526   2.659   3.686   5.857 -0.3069 -0.0523 -0.5545
 7868TIP3    H223527   2.787   3.606   5.857 -0.7449 -0.7875 -2.8384
 7869TIP3   OH223528   2.441   4.880   3.083  0.5457  0.2472  0.2142
 7869TIP3    H123529   2.524   4.890   3.037  1.1121 -0.1621  1.1451
 7869TIP3    H223530   2.406   4.969   3.087  0.5708  0.3206 -0.8321
 7870TIP3   OH223531   3.732   2.805   4.027  0.1305  0.2716  0.4437
 7870TIP3    H123532   3.798   2.790   4.095 -0.3625 -0.5832  0.7313
 7870TIP3    H223533   3.648   2.794   4.071 -0.2008  0.6563 -0.0874
 7871TIP3   OH223534   3.171   5.126   6.328 -0.4844 -0.1477 -0.2854
 7871TIP3    H123535   3.211   5.077   6.255 -1.4592 -1.3750 -0.0052
 7871TIP3    H223536   3.088   5.083   6.344 -0.3480  0.1946  1.4914
 7872TIP3   OH223537   1.942   3.215   3.894 -0.2047 -0.1007 -0.2944
 7872TIP3    H123538   1.958   3.166   3.975 -1.1929 -0.2960 -0.2159
 7872TIP3    H223539   1.989   3.298   3.908 -0.8703  0.1140  0.7348
 7873TIP3   OH223540   3.458   5.721   5.239 -0.3466 -0.0457 -0.1366
 7873TIP3    H123541   3.413   5.776   5.304 -0.8507 -0.9286  0.2777
 7873TIP3    H223542   3.539   5.695   5.283 -1.4514 -2.0095  0.8161
 7874TIP3   OH223543   2.687   2.293   5.183  0.1785  0.1213 -0.0635
 7874TIP3    H123544   2.767   2.311   5.134 -0.1159  3.1648  0.4517
 7874TIP3    H223545   2.693   2.350   5.260 -2.3610  0.2210  0.0965
 7875TIP3   OH223546   8.685   7.967   0.282  0.1155 -0.0713 -0.2142
 7875TIP3    H123547   8.644   7.977   0.196  0.2181  1.2245 -0.1360
 7875TIP3    H223548   8.706   8.057   0.308  1.0838 -0.5463  0.6769
 7876TIP3   OH223549   7.918   5.826   4.874  0.1367  0.0189 -0.0646
 7876TIP3    H123550   7.869   5.747   4.851 -0.1509 -0.3899  1.8605
 7876TIP3    H223551   8.009   5.797   4.880  0.1791  0.0757 -0.4439
 7877TIP3   OH223552   2.521   2.518   5.425  0.2735  0.5285 -0.0217
 7877TIP3    H123553   2.491   2.571   5.499 -1.9455 -0.3077 -0.2817
 7877TIP3    H223554   2.609   2.490   5.450 -0.4225  0.2924  2.3012
 7878TIP3   OH223555   2.307   4.657   2.734 -0.4404  0.2029  0.3759
 7878TIP3    H123556   2.328   4.573   2.776 -0.2590  0.7382  1.3695
 7878TIP3    H223557   2.211   4.662   2.739 -0.5019 -0.2687 -0.3153
 7879TIP3   OH223558   7.652   8.320   4.696 -0.0969 -0.6621  0.4423
 7879TIP3    H123559   7.616   8.380   4.630  1.3007 -0.3065 -0.0102
 7879TIP3    H223560   7.591   8.247   4.697 -2.1605  1.0111  1.4197
 7880TIP3   OH223561   1.008   2.920   3.399 -0.2886  0.0347  0.1346
 7880TIP3    H123562   1.022   3.012   3.379  0.3338 -0.0276  0.2574
 7880TIP3    H223563   1.085   2.895   3.450 -1.1662 -0.1767  1.3730
 7881TIP3   OH223564   5.961   7.663  -0.017  0.4802 -0.1566 -0.3452
 7881TIP3    H123565   5.894   7.713   0.031  1.1680  0.8742 -0.4265
 7881TIP3    H223566   6.005   7.611   0.051  0.2162 -0.1176 -0.1436
 7882TIP3   OH223567   1.142   3.169   4.530  0.1483  0.4292  0.1037
 7882TIP3    H123568   1.127   3.244   4.587 -2.9064  0.0709 -0.1175
 7882TIP3    H223569   1.155   3.096   4.590  0.2179  0.6320  0.3345
 7883TIP3   OH223570   1.733   4.074   4.001 -0.2262 -0.1789 -0.2924
 7883TIP3    H123571   1.757   4.009   4.066 -3.2871 -0.6275  0.4716
 7883TIP3    H223572   1.715   4.153   4.052 -0.7374  0.0221 -0.7797
 7884TIP3   OH223573   3.842   4.773   4.865 -0.1751  0.3057 -0.1723
 7884TIP3    H123574   3.872   4.845   4.810 -0.5366  0.2907 -0.3831
 7884TIP3    H223575   3.923   4.738   4.904  0.3486 -1.2865 -2.6122
 7885TIP3   OH223576   2.384   3.759   2.631 -0.4779  0.0011  0.6139
 7885TIP3    H123577   2.335   3.798   2.703 -1.3009 -1.1041  0.6709
 7885TIP3    H223578   2.428   3.684   2.671 -0.7533 -0.4770  0.0188
 7886TIP3   OH223579   0.184   4.420   6.052  0.5454  0.0817  0.2807
 7886TIP3    H123580   0.111   4.402   6.111 -1.2818  0.8196 -1.6734
 7886TIP3    H223581   0.193   4.515   6.054  1.5665 -0.0134  0.6136
 7887TIP3   OH223582   3.412   3.765   3.376  0.0889 -0.7811  0.2596
 7887TIP3    H123583   3.423   3.841   3.319  0.8659  0.5657  2.1481
 7887TIP3    H223584   3.448   3.692   3.325  2.3681  0.6769 -0.3107
 7888TIP3   OH223585   0.254   4.105   7.199  0.3218 -0.3305 -0.1073
 7888TIP3    H123586   0.279   4.129   7.110  1.4050  0.6892  0.4661
 7888TIP3    H223587   0.323   4.046   7.228 -0.4617 -1.3216 -0.2207
 7889TIP3   OH223588   1.207   3.561   4.125 -0.1234 -0.3947 -0.1282
 7889TIP3    H123589   1.187   3.542   4.217  1.1071 -0.9341  0.0273
 7889TIP3    H223590   1.257   3.642   4.127  1.0870 -1.1293 -0.2085
 7890TIP3   OH223591   2.733   6.108   5.578  0.0845 -0.2220 -0.3798
 7890TIP3    H123592   2.663   6.171   5.598  1.1959  0.6865  0.7138
 7890TIP3    H223593   2.768   6.137   5.495 -0.7631 -0.6213 -0.8854
 7891TIP3   OH223594   8.887   5.915   5.226  0.1220 -0.1702  0.3009
 7891TIP3    H123595   8.806   5.949   5.188 -0.8365 -1.8694  0.7940
 7891TIP3    H223596   8.956   5.947   5.167 -0.7530  2.3139  0.5591
 7892TIP3   OH223597   5.038   7.109   1.726 -0.4160 -0.1602  0.1207
 7892TIP3    H123598   5.018   7.137   1.637 -2.1856 -0.5949  0.3528
 7892TIP3    H223599   5.123   7.066   1.720  0.0373  0.9146 -1.1288
 7893TIP3   OH223600   2.231   1.560   1.870  0.5661  0.3336  0.3889
 7893TIP3    H123601   2.282   1.605   1.804 -0.4651  0.1339 -0.5565
 7893TIP3    H223602   2.235   1.617   1.947 -0.5851  1.9540 -0.7370
 7894TIP3   OH223603   2.052   4.855   6.353  0.4580 -0.3355 -0.7487
 7894TIP3    H123604   2.120   4.892   6.409  0.0102  0.8797 -0.9857
 7894TIP3    H223605   2.030   4.771   6.394  0.0720  0.5616  0.9700
 7895TIP3   OH223606   3.812   3.518   3.295  0.2881  0.1834 -0.6805
 7895TIP3    H123607   3.732   3.537   3.245 -0.4303 -0.4076  0.2489
 7895TIP3    H223608   3.795   3.435   3.338  1.7543 -0.3961 -1.1857
 7896TIP3   OH223609   4.203   4.349   5.539  0.2780  0.7850 -0.2977
 7896TIP3    H123610   4.287   4.304   5.546  1.1113  2.3592  0.1155
 7896TIP3    H223611   4.178   4.367   5.629  0.1200  1.4430 -0.4695
 7897TIP3   OH223612   0.233   4.400   4.286  0.0035 -0.3841  0.1852
 7897TIP3    H123613   0.151   4.374   4.329 -0.8138  0.9572 -0.5343
 7897TIP3    H223614   0.237   4.345   4.207 -0.1669 -0.5105  0.2653
 7898TIP3   OH223615   2.601   2.843   4.789  0.2433 -0.4192  0.3282
 7898TIP3    H123616   2.655   2.770   4.759  0.6515 -0.5608  1.3995
 7898TIP3    H223617   2.644   2.921   4.753  1.2948 -0.5133  1.3554
 7899TIP3   OH223618   0.589   1.411   5.280  0.0225  0.2945  0.3150
 7899TIP3    H123619   0.600   1.333   5.226 -3.1147 -0.5764  0.8225
 7899TIP3    H223620   0.631   1.389   5.363 -0.0750 -0.5224  0.1564
 7900TIP3   OH223621   4.047   3.473   5.531 -0.1401 -0.1280  0.1365
 7900TIP3    H123622   4.122   3.516   5.573 -0.0470  0.8787 -1.0328
 7900TIP3    H223623   3.999   3.544   5.490 -0.6292 -1.0107 -0.8473
 7901TIP3   OH223624   1.036   3.465   5.180 -0.0476 -0.1569  0.4784
 7901TIP3    H123625   1.090   3.544   5.185 -0.7778  0.6447 -2.9725
 7901TIP3    H223626   0.978   3.471   5.256 -0.1903  2.7260  0.1786
 7902TIP3   OH223627   4.261   3.719   6.837  0.4033 -0.1433  0.2573
 7902TIP3    H123628   4.277   3.698   6.745  2.5579  1.4326  0.2313
 7902TIP3    H223629   4.203   3.795   6.835 -0.5343 -0.8625  0.2161
 7903TIP3   OH223630   4.486   3.088   6.775 -0.0034  0.1111 -0.6487
 7903TIP3    H123631   4.468   3.115   6.685  0.7551  1.8592 -0.2954
 7903TIP3    H223632   4.419   3.133   6.827  0.4289  0.2317 -0.1977
 7904TIP3   OH223633   1.617   4.877   5.029 -0.1111  0.0365  0.6105
 7904TIP3    H123634   1.704   4.917   5.029 -0.7597  1.5476 -1.0018
 7904TIP3    H223635   1.577   4.908   5.111  0.3598  0.4989  0.6703
 7905TIP3   OH223636   4.007   4.260   5.345 -0.4932 -0.0218 -0.0191
 7905TIP3    H123637   3.991   4.328   5.280 -0.5250 -0.3766 -0.3809
 7905TIP3    H223638   4.061   4.304   5.412  1.2752 -0.2063 -1.2782
 7906TIP3   OH223639   2.996   8.260   0.623  0.0963 -0.3883  0.5552
 7906TIP3    H123640   2.987   8.352   0.596 -0.6363 -1.2941 -2.3833
 7906TIP3    H223641   2.912   8.238   0.661 -0.0992 -0.1851  0.2397
 7907TIP3   OH223642   2.628   2.099   4.991  0.1399  0.2449  0.3026
 7907TIP3    H123643   2.617   2.150   5.071 -2.5132 -0.8740  0.7049
 7907TIP3    H223644   2.581   2.150   4.924  0.9305  0.3438 -0.1820
 7908TIP3   OH223645  -0.014   3.661   5.115  0.3991  0.0233 -0.0982
 7908TIP3    H123646  -0.004   3.587   5.175  1.1261 -0.3315 -0.6532
 7908TIP3    H223647   0.072   3.705   5.118  0.7623 -0.5562 -1.6200
 7909TIP3   OH223648   2.344   5.092   2.468  0.3660 -0.4690 -0.3880
 7909TIP3    H123649   2.321   5.029   2.537 -0.0481 -0.9560 -0.9627
 7909TIP3    H223650   2.263   5.139   2.451  0.8549  0.7372  0.5492
 7910TIP3   OH223651   0.450   4.023   3.872  0.5803  0.0044  0.2517
 7910TIP3    H123652   0.536   4.061   3.858 -0.4998  2.5653  0.1495
 7910TIP3    H223653   0.459   3.970   3.952  1.7466  2.0015  1.4880
 7911TIP3   OH223654   2.594   4.745   2.654  0.2741  0.6504 -0.5792
 7911TIP3    H123655   2.503   4.722   2.671  0.3242  0.0628 -1.0827
 7911TIP3    H223656   2.624   4.679   2.592  1.2324  0.4785  0.0731
 7912TIP3   OH223657   1.189   3.513   4.683 -0.1989  0.5835 -0.5062
 7912TIP3    H123658   1.243   3.525   4.761 -0.1400 -3.9843  0.3201
 7912TIP3    H223659   1.099   3.524   4.714 -0.1597 -0.9350  0.2003
 7913TIP3   OH223660   3.727   6.197   3.136 -0.5572 -0.0206  0.3546
 7913TIP3    H123661   3.649   6.199   3.191 -0.5548  1.2517  0.3251
 7913TIP3    H223662   3.800   6.206   3.197 -0.5989  2.5709  0.0825
 7914TIP3   OH223663   3.872   7.931   2.521 -0.2289  0.8541  0.0694
 7914TIP3    H123664   3.780   7.945   2.544 -0.4351  2.3994 -1.5723
 7914TIP3    H223665   3.917   7.922   2.605 -1.6437  1.6731  0.9226
 7915TIP3   OH223666   3.614   4.633   5.820 -0.2390  0.1850 -0.6420
 7915TIP3    H123667   3.686   4.681   5.779  1.9757 -2.0229  0.5472
 7915TIP3    H223668   3.622   4.653   5.913  0.1956 -1.7936 -0.2347
 7916TIP3   OH223669   3.303   3.272   4.882 -0.2469 -0.3948 -0.1744
 7916TIP3    H123670   3.345   3.186   4.878  0.4481  0.0095 -1.8565
 7916TIP3    H223671   3.220   3.256   4.926  0.4473 -1.6960  0.6937
 7917TIP3   OH223672   2.150   4.094   3.511 -0.2657  0.2540  0.0926
 7917TIP3    H123673   2.184   4.005   3.511  0.3980  0.5009 -0.4996
 7917TIP3    H223674   2.075   4.091   3.451 -2.1173 -0.5821  2.3753
 7918TIP3   OH223675   4.202   4.881   5.052 -0.4321  0.0206 -0.4511
 7918TIP3    H123676   4.138   4.947   5.028 -1.8501 -0.6502  1.3505
 7918TIP3    H223677   4.150   4.805   5.079  1.0994 -0.7089  0.5729
 7919TIP3   OH223678   3.075   2.910   5.173 -0.1013  0.5381  0.3241
 7919TIP3    H123679   3.017   2.841   5.139  0.2399  0.4461 -0.0746
 7919TIP3    H223680   3.027   2.991   5.154  0.0128  0.4777 -0.2379
 7920TIP3   OH223681   3.195   3.791   2.723  0.1724 -0.5525  0.0295
 7920TIP3    H123682   3.258   3.814   2.654 -0.4469 -0.2862 -0.4521
 7920TIP3    H223683   3.126   3.743   2.677  0.5337 -1.7335  0.7264
 7921TIP3   OH223684   2.497   3.718   5.279  0.3875  0.1378 -0.3682
 7921TIP3    H123685   2.522   3.739   5.189 -3.5355  2.0312 -1.1180
 7921TIP3    H223686   2.451   3.635   5.273  0.0159  0.3240 -0.1787
 7922TIP3   OH223687   2.090   3.574   3.266 -0.6087  0.5018  0.0708
 7922TIP3    H123688   2.120   3.586   3.176  0.0361 -0.3005  0.1798
 7922TIP3    H223689   2.070   3.481   3.272  2.1269 -0.0215  1.6037
 7923TIP3   OH223690   4.018   4.811   4.445  0.4351  0.2266 -0.2904
 7923TIP3    H123691   4.088   4.825   4.382  0.9430  0.0615  0.2309
 7923TIP3    H223692   4.061   4.768   4.519  0.0991  1.4721  0.6574
 7924TIP3   OH223693   3.381   2.903   6.516 -0.3133  0.4373 -0.2344
 7924TIP3    H123694   3.307   2.846   6.494 -0.3005  0.5934 -0.6884
 7924TIP3    H223695   3.410   2.937   6.432  0.3975  0.2269 -0.0729
 7925TIP3   OH223696   3.364   4.787   3.410  0.2981 -0.1957 -0.1610
 7925TIP3    H123697   3.437   4.726   3.408  0.0595 -0.5082 -3.8200
 7925TIP3    H223698   3.286   4.732   3.400 -0.0286  0.5081 -1.7457
 7926TIP3   OH223699   4.265   4.111   4.947 -0.9242 -0.0170 -0.6961
 7926TIP3    H123700   4.174   4.096   4.970 -1.3567  1.5058 -1.3518
 7926TIP3    H223701   4.263   4.138   4.855  0.1924 -0.0294 -0.7379
 7927TIP3   OH223702   1.563   3.012   4.765  0.4695 -0.5162  0.0572
 7927TIP3    H123703   1.549   3.031   4.672  1.7272  1.9854  0.3189
 7927TIP3    H223704   1.558   2.917   4.772 -0.7498 -0.6604 -2.3751
 7928TIP3   OH223705   3.983   4.091   4.962 -0.1703 -0.3678 -0.1077
 7928TIP3    H123706   3.972   4.072   4.869  0.4649 -0.9315 -0.0656
 7928TIP3    H223707   3.893   4.091   4.997 -0.4540  0.3798 -0.8156
 7929TIP3   OH223708   0.209   3.796   6.855  0.6838 -0.4793  0.2466
 7929TIP3    H123709   0.186   3.748   6.775  1.7580 -0.3902 -0.1280
 7929TIP3    H223710   0.126   3.827   6.889  0.3262  0.5918 -1.5440
 7930TIP3   OH223711   4.877   4.107   6.143 -0.4602 -0.7795 -0.9852
 7930TIP3    H123712   4.888   4.030   6.198  0.3362 -0.0450 -0.1008
 7930TIP3    H223713   4.782   4.117   6.135 -0.5783 -1.2618 -0.2561
 7931TIP3   OH223714   4.371   2.633   5.582 -0.0330  0.2553  0.0786
 7931TIP3    H123715   4.299   2.570   5.576 -0.1416  0.2766  1.1344
 7931TIP3    H223716   4.356   2.694   5.510 -1.4646  0.6737  0.7138
 7932TIP3   OH223717   2.178   4.570   4.104 -0.4574  0.3242 -0.4818
 7932TIP3    H123718   2.264   4.564   4.147 -1.0760  2.3552  1.1189
 7932TIP3    H223719   2.170   4.487   4.056  1.9537 -0.3370  0.1446
 7933TIP3   OH223720   0.986   3.934   5.127  0.7228  0.0141  0.3170
 7933TIP3    H123721   0.903   3.965   5.092  0.6760  0.8247  1.1332
 7933TIP3    H223722   1.030   4.013   5.158  0.6970 -0.6827  2.1868
 7934TIP3   OH223723   3.068   3.609   6.774  0.3375  0.1867  0.6755
 7934TIP3    H123724   3.136   3.675   6.760  1.3720 -0.5721  1.9572
 7934TIP3    H223725   3.100   3.532   6.728  0.5228 -0.2796  1.5816
 7935TIP3   OH223726   2.226   3.102   1.464  0.2439 -0.1501 -0.4992
 7935TIP3    H123727   2.176   3.022   1.480  0.8690 -0.6823 -1.1638
 7935TIP3    H223728   2.196   3.163   1.532 -0.7173 -0.7199 -0.3943
 7936TIP3   OH223729   3.132   1.692   3.714  0.3773 -0.4110 -0.1433
 7936TIP3    H123730   3.049   1.720   3.753  0.4855 -0.4648  0.1267
 7936TIP3    H223731   3.107   1.627   3.649  0.2136 -0.4834 -0.0089
 7937TIP3   OH223732   3.059   3.469   5.937  0.3427  0.7677 -0.1664
 7937TIP3    H123733   3.096   3.542   5.887  1.1790  2.8580  3.3845
 7937TIP3    H223734   2.992   3.509   5.993  0.3070 -1.3165  1.3394
 7938TIP3   OH223735   1.180   2.973   5.519 -0.2623 -0.3671  0.1468
 7938TIP3    H123736   1.241   2.906   5.487  0.0258  0.0261 -0.1226
 7938TIP3    H223737   1.205   3.052   5.473 -0.8590 -0.1598  0.1795
 7939TIP3   OH223738   1.841   4.714   6.207 -0.6629 -0.0127  0.2355
 7939TIP3    H123739   1.904   4.771   6.250 -0.1567 -0.3931  0.0108
 7939TIP3    H223740   1.818   4.761   6.126  0.2132 -0.3952 -0.2477
 7940TIP3   OH223741   1.757   4.581   5.933 -0.2766 -0.4787 -0.8177
 7940TIP3    H123742   1.843   4.622   5.923 -2.0174  2.8835 -3.1103
 7940TIP3    H223743   1.731   4.557   5.844 -1.7578 -1.3663 -0.1736
 7941TIP3   OH223744   2.317   4.415   4.520 -0.2128  0.5260  0.1279
 7941TIP3    H123745   2.396   4.459   4.550 -0.0175  0.5831 -0.4558
 7941TIP3    H223746   2.298   4.350   4.587  2.9716 -2.6881 -1.9261
 7942TIP3   OH223747   3.044   5.639   4.445  0.3951  0.3803  0.1006
 7942TIP3    H123748   2.981   5.654   4.515 -0.1142  0.8225 -0.4442
 7942TIP3    H223749   3.127   5.668   4.481  0.0974  0.8066  0.4550
 7943TIP3   OH223750   2.420   1.763   4.468 -0.5101 -0.5018 -0.1264
 7943TIP3    H123751   2.442   1.802   4.383 -0.4953  0.9948  0.5624
 7943TIP3    H223752   2.345   1.813   4.499  0.2057 -0.2876  1.2737
 7944TIP3   OH223753   1.890   5.785   3.976 -0.8080 -0.4458 -0.0710
 7944TIP3    H123754   1.940   5.705   3.961 -0.7131 -0.3324 -0.3685
 7944TIP3    H223755   1.829   5.763   4.046  0.8723 -0.0552  1.5482
 7945TIP3   OH223756   0.567   4.650   4.457 -0.0157 -0.1118 -0.5745
 7945TIP3    H123757   0.654   4.685   4.474 -0.1314  0.2175 -0.6593
 7945TIP3    H223758   0.576   4.555   4.471  0.2302 -0.0178 -0.0891
 7946TIP3   OH223759   3.245   5.124   4.099  0.1311 -0.1160  0.0126
 7946TIP3    H123760   3.257   5.087   4.011  0.2755 -1.1778  0.4815
 7946TIP3    H223761   3.252   5.049   4.158 -2.0928  0.2821  0.7936
 7947TIP3   OH223762   1.464   4.139   5.903 -0.3750  0.0031  0.1460
 7947TIP3    H123763   1.425   4.132   5.815  3.2746 -0.0474 -1.5751
 7947TIP3    H223764   1.453   4.052   5.940 -0.7135 -0.3834 -0.8309
 7948TIP3   OH223765   2.117   2.403   6.714  0.0387 -0.2807 -0.3437
 7948TIP3    H123766   2.142   2.414   6.623 -0.3819 -1.1039 -0.5593
 7948TIP3    H223767   2.138   2.312   6.735 -0.4821 -0.2875  0.1783
 7949TIP3   OH223768   7.078   5.784   6.748  0.2334 -0.4428  0.0366
 7949TIP3    H123769   7.104   5.720   6.813  0.0968  0.1256  0.6596
 7949TIP3    H223770   6.984   5.771   6.736  0.3735 -0.9741 -0.5295
 7950TIP3   OH223771   0.851   4.919   4.722 -0.3177 -0.5492 -0.4038
 7950TIP3    H123772   0.936   4.946   4.755  0.4150 -1.0636 -1.8455
 7950TIP3    H223773   0.811   4.999   4.688 -0.5690 -0.2451  0.5926
 7951TIP3   OH223774   2.709   4.899   2.997  0.5366  0.1961  0.2866
 7951TIP3    H123775   2.790   4.851   2.980  0.6012  1.0387 -1.9718
 7951TIP3    H223776   2.686   4.938   2.912 -2.5615 -0.5427  0.7224
 7952TIP3   OH223777   2.592   4.746   3.855  0.6387 -0.5677  0.8119
 7952TIP3    H123778   2.560   4.759   3.944  0.1316 -1.4489  0.7672
 7952TIP3    H223779   2.515   4.762   3.800  0.7244 -0.9157  0.5923
 7953TIP3   OH223780   4.215   3.165   5.027  0.8072  0.0421 -0.0975
 7953TIP3    H123781   4.232   3.141   4.936  1.3338 -0.9338  0.2548
 7953TIP3    H223782   4.284   3.228   5.048  0.9891 -0.1143 -0.2188
 7954TIP3   OH223783   4.618   1.828   6.539  0.2755 -0.2611 -0.3438
 7954TIP3    H123784   4.532   1.789   6.527  0.7323 -0.7239 -2.1529
 7954TIP3    H223785   4.674   1.755   6.565  0.2407 -0.0397  0.3802
 7955TIP3   OH223786   3.896   2.469   4.460  0.5295 -0.0696 -0.2533
 7955TIP3    H123787   3.832   2.400   4.477  0.6829 -0.2129 -0.2497
 7955TIP3    H223788   3.956   2.464   4.534  1.0529 -0.5255 -0.7031
 7956TIP3   OH223789   8.353   3.168   5.895 -0.4464  0.0286 -0.6032
 7956TIP3    H123790   8.390   3.124   5.971 -0.4461 -1.8679 -1.6607
 7956TIP3    H223791   8.294   3.234   5.931  0.0103 -0.4395  1.0271
 7957TIP3   OH223792   2.458   3.763   3.627  0.5912  0.3646  0.3530
 7957TIP3    H123793   2.551   3.787   3.626  1.2468 -2.0860 -1.7126
 7957TIP3    H223794   2.423   3.797   3.545  0.2253 -0.8238  0.0137
 7958TIP3   OH223795   0.437   4.145   5.469 -0.5559  0.1848  0.7387
 7958TIP3    H123796   0.506   4.095   5.513 -0.8542  0.2271  1.2647
 7958TIP3    H223797   0.391   4.079   5.416  2.0620  0.7636 -2.4455
 7959TIP3   OH223798   4.279   3.685   5.503  0.6173 -0.4016 -0.4535
 7959TIP3    H123799   4.215   3.755   5.490  1.5059  0.7116  0.9678
 7959TIP3    H223800   4.343   3.722   5.564  0.0272 -3.1709  1.9386
 7960TIP3   OH223801   1.742   7.254   3.739 -0.2847  0.2369  0.0299
 7960TIP3    H123802   1.790   7.279   3.818  0.0868  0.4096 -0.2472
 7960TIP3    H223803   1.673   7.195   3.770 -0.1601  0.3279  0.4841
 7961TIP3   OH223804   2.688   2.699   4.358  0.4077 -0.1041  0.0964
 7961TIP3    H123805   2.768   2.716   4.406  0.4946 -0.9028  0.2452
 7961TIP3    H223806   2.618   2.730   4.415  0.6616  1.5513 -0.4784
 7962TIP3   OH223807   3.011   3.571   4.902  0.0388  0.0378  0.4789
 7962TIP3    H123808   3.080   3.619   4.949  2.2161  0.3804 -2.9396
 7962TIP3    H223809   2.996   3.622   4.823 -0.6439 -2.6440 -1.1913
 7963TIP3   OH223810   2.737   4.627   3.210 -0.6025 -0.2343  0.6332
 7963TIP3    H123811   2.772   4.581   3.287 -2.3228 -0.8484  1.0744
 7963TIP3    H223812   2.808   4.685   3.182 -0.8408  1.9916  4.3158
 7964TIP3   OH223813   1.238   4.226   3.647  0.2014  0.2664 -0.1601
 7964TIP3    H123814   1.308   4.288   3.631  0.6188  0.4922  2.2575
 7964TIP3    H223815   1.283   4.145   3.673 -0.3705 -0.5722 -1.7346
 7965TIP3   OH223816   2.413   4.600   5.471 -0.0351 -0.4167 -0.3679
 7965TIP3    H123817   2.459   4.550   5.539 -0.8542 -2.1573 -1.0759
 7965TIP3    H223818   2.367   4.534   5.420 -0.4378  0.9971 -1.8603
 7966TIP3   OH223819   0.541   4.370   4.348 -0.2669 -0.1570  0.2097
 7966TIP3    H123820   0.588   4.358   4.430 -1.9674  0.5888  1.3246
 7966TIP3    H223821   0.458   4.323   4.361 -0.4637 -0.2041 -1.1547
 7967TIP3   OH223822   2.352   5.685   4.817  0.2684  0.5286  0.5018
 7967TIP3    H123823   2.368   5.622   4.887 -0.5837 -0.6907 -0.3824
 7967TIP3    H223824   2.286   5.745   4.853 -0.7176 -0.5339  0.4926
 7968TIP3   OH223825   1.602   2.613   6.352  0.4270 -0.1875  0.1368
 7968TIP3    H123826   1.670   2.660   6.399 -0.8294  1.8670  0.0087
 7968TIP3    H223827   1.623   2.627   6.259  0.0458  0.1528  0.0986
 7969TIP3   OH223828   1.251   4.277   5.032 -0.0163 -0.3016 -0.2990
 7969TIP3    H123829   1.252   4.247   4.942 -1.1128 -1.8954  0.2080
 7969TIP3    H223830   1.158   4.273   5.058  0.5707 -2.1865  1.6427
 7970TIP3   OH223831   3.540   4.278   4.346 -0.1585 -0.0635 -0.0140
 7970TIP3    H123832   3.531   4.356   4.291  1.6070 -0.3215 -0.6787
 7970TIP3    H223833   3.565   4.312   4.432 -0.2816  0.1645 -0.0680
 7971TIP3   OH223834   4.092   3.474   4.003  0.0971 -0.2154  0.2424
 7971TIP3    H123835   4.080   3.451   3.910  1.1824 -1.0193  0.2845
 7971TIP3    H223836   4.040   3.410   4.051 -0.0144 -0.1451  0.2163
 7972TIP3   OH223837   3.317   2.791   5.333  0.0103 -0.3360 -0.2291
 7972TIP3    H123838   3.231   2.810   5.296  0.0163  0.3385  0.1016
 7972TIP3    H223839   3.376   2.787   5.257  0.1367  1.6555 -0.2524
 7973TIP3   OH223840   2.574   6.286   4.884 -0.0576 -0.1669  0.4135
 7973TIP3    H123841   2.582   6.191   4.892 -0.6342 -0.3053 -0.5853
 7973TIP3    H223842   2.485   6.300   4.852  0.6006  0.6144 -1.1053
 7974TIP3   OH223843   5.452   3.240   5.528 -0.2698  0.0976 -0.2394
 7974TIP3    H123844   5.391   3.196   5.588 -2.2532  2.2885 -0.5880
 7974TIP3    H223845   5.489   3.311   5.579  1.3028 -0.6391 -0.3296
 7975TIP3   OH223846   5.011   3.082   6.664  0.5407  0.1549 -0.4750
 7975TIP3    H123847   5.044   2.994   6.646 -0.5256 -0.3723  0.1413
 7975TIP3    H223848   5.090   3.136   6.673  1.1739 -0.4671 -2.1216
 7976TIP3   OH223849   4.530   3.544   4.606  0.1807 -0.1656 -0.1258
 7976TIP3    H123850   4.602   3.540   4.543  0.1190 -2.2319 -0.1026
 7976TIP3    H223851   4.451   3.529   4.555  0.1869 -2.5273  0.4866
 7977TIP3   OH223852   4.805   4.322   2.851  0.0923  0.0071  0.2182
 7977TIP3    H123853   4.712   4.344   2.851  0.0934  0.1063 -2.0989
 7977TIP3    H223854   4.807   4.227   2.845  0.1577 -0.1647  2.4292
 7978TIP3   OH223855   6.350   3.876   3.141  0.2686 -0.2976 -0.4042
 7978TIP3    H123856   6.323   3.793   3.102  0.6442  0.2211 -1.7899
 7978TIP3    H223857   6.355   3.937   3.067  0.2599  0.8914  0.5606
 7979TIP3   OH223858   8.070   3.004   4.682  0.2310 -0.3400  0.0519
 7979TIP3    H123859   7.984   2.974   4.712 -0.4832  1.2097 -0.3576
 7979TIP3    H223860   8.130   2.980   4.752 -0.2733 -2.8044 -0.3430
 7980TIP3   OH223861   2.631   3.036   4.995 -0.2124 -0.1878 -0.5667
 7980TIP3    H123862   2.632   2.946   4.961  1.7633  0.0066 -1.0682
 7980TIP3    H223863   2.539   3.062   4.990 -1.5522 -3.6126  3.4137
 7981TIP3   OH223864   3.848   3.149   3.004 -0.2042 -0.6327 -0.1845
 7981TIP3    H123865   3.816   3.239   2.996 -0.8855 -0.7799  0.7421
 7981TIP3    H223866   3.800   3.100   2.938 -1.7982 -0.8181  1.0907
 7982TIP3   OH223867   4.599   3.386   1.705 -0.0837 -0.0645 -0.3907
 7982TIP3    H123868   4.676   3.330   1.715 -0.3607 -0.2863  0.5291
 7982TIP3    H223869   4.528   3.337   1.746 -1.2549 -0.9562 -3.2825
 7983TIP3   OH223870   4.835   3.819   5.581  0.2972  0.5596 -0.0919
 7983TIP3    H123871   4.875   3.738   5.611  0.5327  0.9946  0.7682
 7983TIP3    H223872   4.879   3.838   5.498 -1.0688 -1.1688 -1.2380
 7984TIP3   OH223873   1.922   4.538   4.201 -0.1085 -0.4148 -0.0987
 7984TIP3    H123874   2.000   4.525   4.148 -0.0868 -1.9958  0.2941
 7984TIP3    H223875   1.955   4.576   4.283  0.3701 -1.9014  0.4118
 7985TIP3   OH223876   5.648   1.542   3.636 -0.4441  0.1082  0.0912
 7985TIP3    H123877   5.675   1.450   3.631 -0.3710 -0.0095  2.1473
 7985TIP3    H223878   5.674   1.579   3.552  0.7891 -1.4337 -0.2370
 7986TIP3   OH223879   6.227   0.965   5.931 -0.4758  0.1237 -1.1270
 7986TIP3    H123880   6.316   0.958   5.966 -0.9925 -1.7006 -0.1042
 7986TIP3    H223881   6.224   0.899   5.861 -1.2743 -0.4618 -0.5556
 7987TIP3   OH223882   3.590   6.517   5.276  0.8899  0.0297 -0.3041
 7987TIP3    H123883   3.517   6.485   5.330  1.7610 -2.3912 -0.5053
 7987TIP3    H223884   3.629   6.587   5.329  0.6566 -1.1247  1.4459
 7988TIP3   OH223885   3.703   2.917   3.559  0.2985 -0.0799 -0.2811
 7988TIP3    H123886   3.637   2.946   3.496  0.0927 -2.3885 -1.1835
 7988TIP3    H223887   3.771   2.876   3.506  1.7807  0.9924  0.7584
 7989TIP3   OH223888   3.633   4.796   3.944  0.2905 -0.3895 -0.5613
 7989TIP3    H123889   3.651   4.807   3.851 -1.0972  1.3327 -0.6545
 7989TIP3    H223890   3.540   4.817   3.952  1.0111  2.1634  1.6377
 7990TIP3   OH223891   6.449   3.515   5.662 -0.4337  0.9999 -0.0345
 7990TIP3    H123892   6.387   3.444   5.681  0.1892 -0.3270 -2.7690
 7990TIP3    H223893   6.404   3.569   5.597  0.7922  0.6824 -1.1639
 7991TIP3   OH223894   2.888   4.720   4.467  0.2048  0.1087  0.1581
 7991TIP3    H123895   2.875   4.812   4.444 -2.3433  0.0829  1.3059
 7991TIP3    H223896   2.818   4.673   4.422  1.3549 -1.2503 -0.2437
 7992TIP3   OH223897   3.236   3.506   1.562 -0.2988  0.0093  0.0263
 7992TIP3    H123898   3.241   3.600   1.577  0.7007  0.0081 -0.3049
 7992TIP3    H223899   3.272   3.467   1.641 -1.2398 -0.1097  0.4011
 7993TIP3   OH223900   4.061   3.259   5.371  0.3704  0.3871  0.1241
 7993TIP3    H123901   4.046   3.332   5.431  0.5561  1.0222 -0.5963
 7993TIP3    H223902   4.058   3.299   5.284  1.7408 -0.2345 -0.2149
 7994TIP3   OH223903   3.118   3.341   4.658  0.0007  0.4693  0.3836
 7994TIP3    H123904   3.163   3.307   4.581  0.7258 -0.0828  1.0415
 7994TIP3    H223905   3.181   3.331   4.729 -1.1906 -0.4126  1.3354
 7995TIP3   OH223906   2.954   3.528   3.709  0.1728  0.4943  0.4729
 7995TIP3    H123907   3.025   3.512   3.772  0.4287  1.3536  0.4025
 7995TIP3    H223908   2.983   3.484   3.629  0.7045  0.9776  0.3938
 7996TIP3   OH223909   1.932   5.198   4.140 -0.6771  0.0271  0.5486
 7996TIP3    H123910   1.977   5.152   4.069 -1.7564  1.2299 -0.9726
 7996TIP3    H223911   1.856   5.144   4.160  0.8046 -1.4413  2.3506
 7997TIP3   OH223912   2.612   3.732   4.283  0.6493  0.3301 -0.3326
 7997TIP3    H123913   2.591   3.644   4.313 -1.1198 -0.2028 -2.9490
 7997TIP3    H223914   2.531   3.782   4.297  0.6192  0.7101 -1.7882
 7998TIP3   OH223915   5.213   2.773   4.357  0.6021  0.3519 -0.5586
 7998TIP3    H123916   5.131   2.779   4.405 -0.3512 -1.1383 -1.9582
 7998TIP3    H223917   5.275   2.735   4.420 -0.0081  0.6687  0.2288
 7999TIP3   OH223918   3.140   4.486   4.475  0.2027 -0.6732  0.1829
 7999TIP3    H123919   3.143   4.562   4.532 -0.8810 -1.9060  1.9258
 7999TIP3    H223920   3.219   4.436   4.497  1.8912  0.8050 -2.2549
 8000TIP3   OH223921   5.651   6.597   3.107  0.0278 -0.4773 -0.4004
 8000TIP3    H123922   5.596   6.607   3.185 -0.1258 -2.1853 -0.2839
 8000TIP3    H223923   5.610   6.527   3.056  1.4904 -1.0553 -0.8177
 8001TIP3   OH223924   4.214   6.282   5.502  0.0863  0.5144  0.3554
 8001TIP3    H123925   4.143   6.342   5.481  0.4701  0.8921  0.1245
 8001TIP3    H223926   4.293   6.336   5.499  0.6489 -0.3800 -1.6518
 8002TIP3   OH223927   3.490   4.007   4.402 -0.6987  0.2887 -0.0358
 8002TIP3    H123928   3.572   3.992   4.356 -1.0685 -1.2494 -0.2095
 8002TIP3    H223929   3.489   4.102   4.417  2.1117  0.0856  1.8747
 8003TIP3   OH223930   6.150   5.077   2.221 -0.3725  0.0065  0.6407
 8003TIP3    H123931   6.084   5.022   2.179 -0.0159  0.8527 -1.1106
 8003TIP3    H223932   6.107   5.161   2.233 -0.5228 -0.2855  2.1601
 8004TIP3   OH223933   3.349   4.067   2.792 -0.4894 -0.1419 -0.1413
 8004TIP3    H123934   3.432   4.033   2.825  0.4255  1.4692 -0.7086
 8004TIP3    H223935   3.352   4.049   2.698 -0.8368 -0.1950 -0.1417
 8005TIP3   OH223936   3.690   6.161   2.291 -0.9578  0.6365  0.3167
 8005TIP3    H123937   3.629   6.212   2.345 -1.7622  1.9634 -1.7597
 8005TIP3    H223938   3.635   6.127   2.220  0.2058 -0.4787 -0.0540
 8006TIP3   OH223939   2.740   6.232   3.321 -0.3870  0.1174  0.1522
 8006TIP3    H123940   2.697   6.299   3.375  0.4543  0.6814  0.1379
 8006TIP3    H223941   2.785   6.283   3.253 -1.5329 -0.5859 -1.1602
 8007TIP3   OH223942   5.337   1.916   5.336  0.7747  0.0469 -0.0271
 8007TIP3    H123943   5.312   1.824   5.332  0.0951  0.1414  1.7142
 8007TIP3    H223944   5.364   1.930   5.427  2.3066  1.2021 -0.6402
 8008TIP3   OH223945   5.363   3.287   2.772  0.0708 -0.1296 -0.2144
 8008TIP3    H123946   5.395   3.209   2.727 -0.6827 -1.6619  1.8471
 8008TIP3    H223947   5.379   3.359   2.710  1.8248 -1.7338 -1.6682
 8009TIP3   OH223948   3.677   4.779   5.372  0.7115  0.2588  0.2686
 8009TIP3    H123949   3.600   4.751   5.324  1.5836 -0.4080 -0.7707
 8009TIP3    H223950   3.749   4.728   5.334  1.8217  1.5719  0.5511
 8010TIP3   OH223951   3.707   5.211   5.882 -0.0494 -0.3930 -0.0804
 8010TIP3    H123952   3.637   5.243   5.825  0.3148 -1.5266 -1.1752
 8010TIP3    H223953   3.737   5.130   5.841  1.1729 -0.4933  0.9708
 8011TIP3   OH223954   4.625   2.660   5.424 -0.5174  0.2192 -0.1309
 8011TIP3    H123955   4.695   2.655   5.488 -1.3816  2.0390  1.0211
 8011TIP3    H223956   4.551   2.698   5.472 -2.1521 -1.2339 -1.4235
 8012TIP3   OH223957   4.991   3.533   4.578  0.3019  0.3778  0.1444
 8012TIP3    H123958   5.016   3.604   4.637 -1.8818  1.1267  0.2187
 8012TIP3    H223959   4.962   3.463   4.636  0.7786  0.0689  0.0162
 8013TIP3   OH223960   3.814   3.588   5.313 -0.1205  0.1212  0.1026
 8013TIP3    H123961   3.740   3.560   5.259  0.0848  0.2516 -0.2501
 8013TIP3    H223962   3.798   3.681   5.328 -0.5544 -0.0807  0.8699
 8014TIP3   OH223963   4.844   3.029   2.884  0.0857 -0.3440  0.3620
 8014TIP3    H123964   4.835   3.079   2.803 -0.5211 -0.9074  0.0746
 8014TIP3    H223965   4.798   3.080   2.950  0.4203  0.0249  0.3091
 8015TIP3   OH223966   3.909   5.666   4.249 -0.1593 -0.0609 -0.0499
 8015TIP3    H123967   3.829   5.713   4.271 -0.2570 -0.8697  1.3855
 8015TIP3    H223968   3.892   5.575   4.276  0.0933 -0.8880 -2.6084
 8016TIP3   OH223969   3.506   2.694   6.057 -0.6027 -0.1553 -0.2864
 8016TIP3    H123970   3.518   2.646   5.975 -0.7798  2.6411 -1.9891
 8016TIP3    H223971   3.432   2.753   6.041  0.1900  1.3690  1.4497
 8017TIP3   OH223972   4.629   3.535   4.865  0.2286 -0.6460 -0.2988
 8017TIP3    H123973   4.714   3.574   4.886 -0.6414 -0.4330  3.0751
 8017TIP3    H223974   4.613   3.560   4.774  2.4708  1.6749 -0.1142
 8018TIP3   OH223975   3.711   2.370   2.367  0.0076 -0.1610 -0.1202
 8018TIP3    H123976   3.713   2.281   2.333  2.0253  0.0880 -0.7934
 8018TIP3    H223977   3.645   2.415   2.314  0.5319 -0.7233 -1.2810
 8019TIP3   OH223978   1.098   2.593   3.773  0.2739 -0.2881 -0.3305
 8019TIP3    H123979   1.149   2.520   3.808  0.8200 -0.1014 -0.7305
 8019TIP3    H223980   1.084   2.572   3.681  1.2693  0.5579 -0.6940
 8020TIP3   OH223981   2.682   1.824   4.572 -0.4764  0.2230 -0.0428
 8020TIP3    H123982   2.745   1.805   4.502 -0.5471  3.4948 -1.0680
 8020TIP3    H223983   2.597   1.819   4.529 -0.7754 -1.3803  0.6944
 8021TIP3   OH223984   4.750   2.332   4.013  0.2104 -0.5553  0.0801
 8021TIP3    H123985   4.845   2.332   4.020  0.2247  2.5720  0.4699
 8021TIP3    H223986   4.733   2.314   3.920  1.1829 -0.1588 -0.1781
 8022TIP3   OH223987   6.093   3.736   5.309  0.4453 -0.6721 -0.1023
 8022TIP3    H123988   6.095   3.829   5.334  1.0902 -1.0041  1.1335
 8022TIP3    H223989   6.054   3.693   5.385  0.1539 -1.4150 -0.6759
 8023TIP3   OH223990   3.508   1.648   5.726  0.4488  0.4095 -0.3466
 8023TIP3    H123991   3.430   1.645   5.781  0.6777  2.1217  0.1013
 8023TIP3    H223992   3.579   1.621   5.783  0.3121 -0.4337 -0.5573
 8024TIP3   OH223993   2.254   4.036   2.534  0.1556  0.1501  0.1849
 8024TIP3    H123994   2.292   3.953   2.505  0.2417  0.0517  0.5847
 8024TIP3    H223995   2.322   4.101   2.516 -0.8156  0.5200 -2.4229
 8025TIP3   OH223996   5.195   4.249   1.811  0.3753 -0.1821  0.2592
 8025TIP3    H123997   5.131   4.321   1.805  1.7155  1.0134 -0.0561
 8025TIP3    H223998   5.222   4.234   1.721  0.1613 -1.0404  0.3374
 8026TIP3   OH223999   2.851   3.767   4.139  0.1679  0.5101  0.1190
 8026TIP3    H124000   2.855   3.854   4.101  1.4831  0.2495 -0.3803
 8026TIP3    H224001   2.758   3.746   4.143 -0.1130  1.6386 -0.4313
 8027TIP3   OH224002   3.809   6.623   3.871  0.0036  0.4189  0.4691
 8027TIP3    H124003   3.900   6.629   3.900 -0.2644 -2.0169  1.9342
 8027TIP3    H224004   3.758   6.666   3.941 -0.2008 -0.9087  1.1589
 8028TIP3   OH224005   4.840   4.222   5.682 -0.4302  0.3894  0.0094
 8028TIP3    H124006   4.887   4.155   5.731 -1.5677 -0.7526 -0.4370
 8028TIP3    H224007   4.908   4.283   5.654  0.8268 -1.3432 -0.8265
 8029TIP3   OH224008   6.528   2.505   3.853 -0.1287  0.8137 -0.3076
 8029TIP3    H124009   6.522   2.447   3.929  0.0172  0.8373 -0.2768
 8029TIP3    H224010   6.475   2.463   3.786 -1.1382  1.3357  0.1484
 8030TIP3   OH224011   5.808   2.747   5.244 -0.6080 -0.0917 -0.3277
 8030TIP3    H124012   5.823   2.665   5.197  0.5036 -0.4260  0.5968
 8030TIP3    H224013   5.736   2.727   5.304  0.6329 -0.8254  0.9318
 8031TIP3   OH224014   4.901   4.886   5.014  0.7354  0.2848  0.1328
 8031TIP3    H124015   4.952   4.836   4.950  0.5308  1.5290 -1.0084
 8031TIP3    H224016   4.967   4.920   5.075  1.0613  0.1694 -0.1496
 8032TIP3   OH224017   4.973   4.098   2.320 -0.1727  0.0497  0.3077
 8032TIP3    H124018   4.940   4.117   2.408 -0.7918 -0.9431  0.2939
 8032TIP3    H224019   5.051   4.153   2.312 -1.1198  1.5012  0.8071
 8033TIP3   OH224020   5.071   3.973   4.847 -1.0820  0.1291  0.2566
 8033TIP3    H124021   4.982   3.984   4.882 -1.3945  2.6583 -1.1867
 8033TIP3    H224022   5.116   4.054   4.871  0.7491 -1.0090  0.6860
 8034TIP3   OH224023   3.694   5.252   4.158  0.0976  0.2782 -0.2974
 8034TIP3    H124024   3.686   5.157   4.162 -1.0265  0.2938 -1.9015
 8034TIP3    H224025   3.696   5.273   4.065  1.7183  1.7336  0.0270
 8035TIP3   OH224026   3.605   2.194   2.642  0.7723  0.2565 -0.5135
 8035TIP3    H124027   3.675   2.182   2.578 -0.6188  2.0525 -2.4421
 8035TIP3    H224028   3.642   2.254   2.707  1.5185  0.0038 -0.7040
 8036TIP3   OH224029   4.721   3.769   4.391 -0.2940 -0.0763 -0.1478
 8036TIP3    H124030   4.713   3.865   4.388 -1.4247 -0.1523  0.4332
 8036TIP3    H224031   4.781   3.748   4.320  2.3151  1.3188  1.5337
 8037TIP3   OH224032   3.757   4.436   5.508 -0.3353 -0.2766 -0.0085
 8037TIP3    H124033   3.717   4.360   5.465  0.7586 -0.6014 -0.4743
 8037TIP3    H224034   3.730   4.429   5.599  0.3200 -1.6144  0.0912
 8038TIP3   OH224035   5.963   3.190   5.175  0.3940 -0.0186 -0.9535
 8038TIP3    H124036   6.049   3.222   5.203 -0.4047  1.7551 -0.4720
 8038TIP3    H224037   5.982   3.126   5.106  2.0800  0.5120 -0.9993
 8039TIP3   OH224038   7.071   3.472   3.806  0.1701 -0.0103  0.0691
 8039TIP3    H124039   7.160   3.509   3.803  0.7168 -1.2594  0.4915
 8039TIP3    H224040   7.034   3.493   3.720 -0.3534  3.4468  1.0817
 8040TIP3   OH224041   6.232   4.504   3.180  0.7023 -0.1714 -0.3029
 8040TIP3    H124042   6.157   4.524   3.124 -0.5457 -1.3541  0.9215
 8040TIP3    H224043   6.291   4.453   3.123  0.3353  0.2845 -1.1005
 8041TIP3   OH224044   3.136   4.515   2.859  0.1599 -0.1834 -0.0566
 8041TIP3    H124045   3.167   4.426   2.878 -0.6648 -0.3699  0.4612
 8041TIP3    H224046   3.145   4.562   2.942 -1.9339 -0.5446  0.3960
 8042TIP3   OH224047   4.292   4.298   3.827  0.0157  0.3080 -0.2205
 8042TIP3    H124048   4.335   4.372   3.871  1.3896 -1.2650  1.1362
 8042TIP3    H224049   4.269   4.332   3.740  0.0366  2.5150  0.6029
 8043TIP3   OH224050   4.678   4.998   4.929  0.2301 -0.6725  0.1851
 8043TIP3    H124051   4.665   4.979   4.836  0.3687  0.3168 -0.0423
 8043TIP3    H224052   4.772   4.982   4.944  0.4863  0.4265 -0.1604
 8044TIP3   OH224053   4.253   4.421   4.832 -0.4574 -0.4386  0.3764
 8044TIP3    H124054   4.346   4.412   4.814 -0.6748  2.8098 -2.8939
 8044TIP3    H224055   4.213   4.344   4.789  0.5548 -1.0208  0.4640
 8045TIP3   OH224056   3.164   3.904   3.784 -0.3152 -0.0110  0.5821
 8045TIP3    H124057   3.069   3.897   3.798 -0.3364 -0.6376  0.0872
 8045TIP3    H224058   3.180   3.858   3.702  0.4486 -0.0517  0.7557
 8046TIP3   OH224059   3.352   3.206   3.859  0.1436 -0.2762 -0.3268
 8046TIP3    H124060   3.363   3.118   3.894 -0.8731  0.4707  1.9758
 8046TIP3    H224061   3.427   3.255   3.892  0.3532 -0.0995 -1.0491
 8047TIP3   OH224062   4.920   2.217   6.777 -0.3683 -0.7404  0.3293
 8047TIP3    H124063   4.945   2.309   6.776 -1.4189 -0.4459  0.4470
 8047TIP3    H224064   4.993   2.172   6.734 -0.3803  0.2806 -0.8107
 8048TIP3   OH224065   5.303   4.262   4.358 -0.0578  0.0552  0.3036
 8048TIP3    H124066   5.277   4.172   4.375 -1.3124  0.2600 -0.4237
 8048TIP3    H224067   5.390   4.270   4.395  1.3226 -2.3223 -2.2458
 8049TIP3   OH224068   5.278   7.507   5.684 -0.3024 -0.2051  0.0201
 8049TIP3    H124069   5.328   7.589   5.679 -0.1311 -0.3861 -1.5755
 8049TIP3    H224070   5.342   7.440   5.707 -0.3255  0.0068  0.7001
 8050TIP3   OH224071   0.903   2.249   3.066  0.1171 -0.4011 -0.4394
 8050TIP3    H124072   0.852   2.220   2.991 -0.7780  0.6393 -0.2395
 8050TIP3    H224073   0.966   2.311   3.030  0.1887 -0.4774 -0.4461
 8051TIP3   OH224074   2.484   5.459   5.359 -0.7990  0.8198  0.1237
 8051TIP3    H124075   2.408   5.501   5.401 -0.4314 -0.2571  1.9108
 8051TIP3    H224076   2.558   5.481   5.416 -0.4776 -1.6227  0.6874
 8052TIP3   OH224077   3.237   2.753   4.003  0.1422  0.3992 -0.4801
 8052TIP3    H124078   3.277   2.749   3.916 -0.5809  1.1583 -0.8462
 8052TIP3    H224079   3.311   2.741   4.063  0.5120 -1.1239 -1.2100
 8053TIP3   OH224080   5.557   3.598   4.665 -0.4241 -0.2359  0.2526
 8053TIP3    H124081   5.507   3.596   4.747 -1.9562 -0.7245 -0.6705
 8053TIP3    H224082   5.499   3.559   4.600  0.4359  0.9354 -1.2662
 8054TIP3   OH224083   4.327   2.909   4.321  0.0370 -0.0721 -0.4006
 8054TIP3    H124084   4.352   2.836   4.265 -1.7699 -0.5257 -0.6603
 8054TIP3    H224085   4.407   2.931   4.370  0.6643 -2.0574 -0.4782
 8055TIP3   OH224086   3.418   2.972   3.396 -0.1206 -0.1894 -0.0484
 8055TIP3    H124087   3.429   2.952   3.303 -2.2709 -0.2859 -0.3118
 8055TIP3    H224088   3.374   2.896   3.432  1.1994 -0.3853  1.1816
 8056TIP3   OH224089   5.672   4.526   5.778 -0.2833  0.2723  0.3584
 8056TIP3    H124090   5.727   4.594   5.739  0.3034 -1.2012 -1.4521
 8056TIP3    H224091   5.724   4.446   5.769 -2.6856 -1.1577 -1.3460
 8057TIP3   OH224092   4.571   3.441   5.644  0.7312 -0.1682  0.1541
 8057TIP3    H124093   4.506   3.414   5.579 -0.1962  0.2510  0.8845
 8057TIP3    H224094   4.652   3.453   5.595  0.5209 -1.7477 -0.5995
 8058TIP3   OH224095   2.315   3.669   4.013 -0.7433  0.0726  0.5280
 8058TIP3    H124096   2.300   3.639   4.102 -1.3028  0.3362  0.5261
 8058TIP3    H224097   2.410   3.682   4.007 -0.8828  1.7352  1.6247
 8059TIP3   OH224098   0.706   2.363   3.796  0.0693 -0.1730 -0.4154
 8059TIP3    H124099   0.681   2.455   3.790 -1.2350 -0.4430  0.5897
 8059TIP3    H224100   0.757   2.346   3.717 -1.2542  0.9231 -1.5089
 8060TIP3   OH224101   4.017   2.187   4.713  0.0270 -0.8598  0.0223
 8060TIP3    H124102   4.056   2.178   4.800  0.4156 -0.1494 -0.0725
 8060TIP3    H224103   4.068   2.127   4.658  1.3572  0.4595 -0.2159
 8061TIP3   OH224104   1.700   2.619   0.447 -0.1573  0.6307 -0.2854
 8061TIP3    H124105   1.676   2.575   0.529  0.3966  1.4668  0.3325
 8061TIP3    H224106   1.792   2.597   0.434 -0.0757  1.0172 -0.3596
 8062TIP3   OH224107   5.365   3.812   4.906 -0.0902  0.2081 -0.3404
 8062TIP3    H124108   5.412   3.889   4.876  0.4551  0.0642  0.1305
 8062TIP3    H224109   5.379   3.811   5.001  0.2169 -0.6752 -0.3930
 8063TIP3   OH224110   3.381   4.976   3.206  0.8177 -0.1216 -0.2506
 8063TIP3    H124111   3.447   5.030   3.248 -0.5218  1.3154  0.0634
 8063TIP3    H224112   3.378   4.896   3.258 -0.1121  1.2168  1.8272
 8064TIP3   OH224113   3.803   2.504   3.150  0.2662 -0.1162  0.3141
 8064TIP3    H124114   3.869   2.571   3.135  0.4206 -0.4639 -0.5901
 8064TIP3    H224115   3.835   2.455   3.226  0.2325  0.7242  0.8791
 8065TIP3   OH224116   5.452   6.454   5.615  0.2168 -0.0465  0.7523
 8065TIP3    H124117   5.426   6.489   5.530  1.3020  0.1537  0.4880
 8065TIP3    H224118   5.494   6.528   5.659  0.5701 -0.4270  1.0616
 8066TIP3   OH224119   3.328   3.644   4.452  0.0438  0.1952 -0.2761
 8066TIP3    H124120   3.410   3.688   4.475  0.9721  0.4506 -3.7764
 8066TIP3    H224121   3.331   3.562   4.501  1.0903  1.3838  1.7163
 8067TIP3   OH224122   2.521   4.219   4.384  0.1266 -0.8755 -0.0602
 8067TIP3    H124123   2.571   4.242   4.463  0.5753  0.5473 -0.7354
 8067TIP3    H224124   2.583   4.172   4.329  0.1640 -0.8261 -0.0610
 8068TIP3   OH224125   3.932   4.378   7.189 -0.3018 -0.3996  0.2984
 8068TIP3    H124126   3.874   4.441   7.147 -0.2951  0.8898  2.1768
 8068TIP3    H224127   4.015   4.425   7.200  0.3354 -1.4008 -0.1007
 8069TIP3   OH224128   3.523   4.621   6.148 -0.1133 -0.0075  0.0543
 8069TIP3    H124129   3.611   4.618   6.185 -0.9947 -0.6026  2.1419
 8069TIP3    H224130   3.494   4.530   6.145 -1.4571  0.3543  1.3653
 8070TIP3   OH224131   5.676   3.353   3.419 -0.5103  0.1596 -0.0760
 8070TIP3    H124132   5.584   3.339   3.400 -0.6822 -1.2418  1.5452
 8070TIP3    H224133   5.696   3.439   3.384 -2.2085  0.0991 -1.2316
 8071TIP3   OH224134   4.191   2.826   2.953 -0.0080  0.5280 -0.5604
 8071TIP3    H124135   4.145   2.793   3.030  0.4558  0.5919 -0.2521
 8071TIP3    H224136   4.217   2.915   2.977  0.2740  0.4921 -0.7311
 8072TIP3   OH224137   3.582   3.590   5.165  0.3143 -0.3773  0.5229
 8072TIP3    H124138   3.623   3.668   5.128  1.3495 -1.6901 -1.1410
 8072TIP3    H224139   3.492   3.592   5.133  0.4021 -0.0084  0.2993
 8073TIP3   OH224140   0.339   5.559   3.900  0.0892  0.2886  0.1099
 8073TIP3    H124141   0.405   5.519   3.956 -0.1199 -0.6840 -0.3297
 8073TIP3    H224142   0.327   5.647   3.936  1.3682  0.3474  0.3949
 8074TIP3   OH224143   4.718   5.799   5.916  0.1413 -0.2941 -0.5785
 8074TIP3    H124144   4.792   5.857   5.933 -1.1102  1.0844  0.3382
 8074TIP3    H224145   4.641   5.855   5.928 -1.0894 -2.0390 -0.1419
 8075TIP3   OH224146   3.142   3.953   3.198 -0.4039 -0.2880  0.3092
 8075TIP3    H124147   3.226   3.994   3.219 -0.7001  0.9487 -0.8614
 8075TIP3    H224148   3.163   3.892   3.128 -0.6005  0.5584 -0.4947
 8076TIP3   OH224149   2.443   2.226   5.325 -0.2180  0.2206 -0.5795
 8076TIP3    H124150   2.526   2.260   5.291  1.7810 -1.4336  2.4229
 8076TIP3    H224151   2.397   2.304   5.357  0.7463  1.0036 -1.0603
 8077TIP3   OH224152   3.992   4.851   4.013 -0.0334 -0.3669  0.1152
 8077TIP3    H124153   4.047   4.912   3.964  1.4574 -1.0095  0.9533
 8077TIP3    H224154   3.959   4.902   4.086 -1.7708  0.4260 -1.1753
 8078TIP3   OH224155   5.001   4.654   4.562 -0.0039 -1.0666  0.0800
 8078TIP3    H124156   4.940   4.724   4.585 -0.1982 -1.6054  1.2480
 8078TIP3    H224157   5.031   4.676   4.474  1.9079  1.8883  1.3988
 8079TIP3   OH224158   3.445   4.026   6.497  0.7759 -0.4119  0.2810
 8079TIP3    H124159   3.415   4.116   6.499 -0.3214 -0.7713  0.1013
 8079TIP3    H224160   3.452   4.004   6.404  0.9949 -0.5250  0.3225
 8080TIP3   OH224161   6.768   2.345   3.454 -0.2059  0.1832  0.8491
 8080TIP3    H124162   6.805   2.374   3.537  0.2766  0.2150  0.6250
 8080TIP3    H224163   6.684   2.391   3.448 -1.4555 -1.7461  2.5105
 8081TIP3   OH224164   4.645   4.323   6.343  0.4377  0.0187 -0.0581
 8081TIP3    H124165   4.648   4.265   6.419 -1.1727  1.2042  0.9352
 8081TIP3    H224166   4.601   4.272   6.275 -0.4934 -0.1157  0.6403
 8082TIP3   OH224167   4.369   2.867   3.768 -0.1045  0.1637  0.1318
 8082TIP3    H124168   4.333   2.899   3.851  1.5239  3.9373 -0.4721
 8082TIP3    H224169   4.331   2.924   3.702  1.0979 -0.6974 -1.3447
 8083TIP3   OH224170   5.137   5.299   5.346  0.1909 -0.3908 -0.0113
 8083TIP3    H124171   5.179   5.213   5.342  0.8583 -0.0360 -0.8933
 8083TIP3    H224172   5.056   5.288   5.297 -1.3524 -1.3846  2.6593
 8084TIP3   OH224173   8.012   6.908   0.107 -0.3485  0.0121  0.3758
 8084TIP3    H124174   8.020   6.998   0.138 -1.5981 -0.4371  2.0841
 8084TIP3    H224175   7.938   6.872   0.157  0.6231 -2.1989  0.2716
 8085TIP3   OH224176   4.470   5.209   5.977  0.7009  0.0725 -0.0748
 8085TIP3    H124177   4.383   5.243   5.999  0.3081 -1.2655  0.4831
 8085TIP3    H224178   4.516   5.284   5.939 -1.5176  0.1943 -2.7424
 8086TIP3   OH224179   2.807   3.210   3.950 -0.0322  0.3279  0.2714
 8086TIP3    H124180   2.857   3.199   4.031 -0.9273 -0.2865  0.7461
 8086TIP3    H224181   2.874   3.223   3.882  0.8415 -1.8934  0.6668
 8087TIP3   OH224182   3.600   2.275   5.618 -0.0178 -0.0463 -0.1046
 8087TIP3    H124183   3.659   2.350   5.617 -0.0476 -0.0114  0.4045
 8087TIP3    H224184   3.513   2.313   5.631  0.3026 -0.3498  3.3780
 8088TIP3   OH224185   5.569   4.498   6.306  0.5275 -0.0495 -0.5361
 8088TIP3    H124186   5.614   4.413   6.309 -0.1284 -0.4343 -1.2546
 8088TIP3    H224187   5.619   4.554   6.364  1.6823 -0.5952 -0.9884
 8089TIP3   OH224188   5.428   3.475   6.371 -0.1085  0.2571 -0.5360
 8089TIP3    H124189   5.444   3.411   6.302  0.1477 -1.1296  0.7792
 8089TIP3    H224190   5.444   3.560   6.330  2.5201 -0.6641 -1.5124
 8090TIP3   OH224191   4.098   3.192   4.220 -0.7337  0.1397  0.1804
 8090TIP3    H124192   4.184   3.190   4.263 -1.0133  0.7514  0.7839
 8090TIP3    H224193   4.061   3.106   4.237 -0.4762  0.0710  0.4094
 8091TIP3   OH224194   4.271   0.872   4.116  0.4232 -0.1417 -0.2533
 8091TIP3    H124195   4.270   0.798   4.056 -1.4592 -1.6427  1.5569
 8091TIP3    H224196   4.181   0.905   4.114  1.3657  2.5330 -1.5067
 8092TIP3   OH224197   1.630   0.756   0.241 -0.0330  0.1072  0.2280
 8092TIP3    H124198   1.568   0.824   0.215  0.2609  0.3667  0.1906
 8092TIP3    H224199   1.595   0.675   0.204 -1.3686 -0.0626  1.8613
 8093TIP3   OH224200   2.961   4.049   6.137  0.1785  0.0314  0.3112
 8093TIP3    H124201   3.026   4.112   6.167 -0.3460  1.2704 -1.0722
 8093TIP3    H224202   2.910   4.097   6.071 -2.4724 -0.7138  1.7128
 8094TIP3   OH224203   1.442   4.618   2.347 -0.4477  0.1560  0.7632
 8094TIP3    H124204   1.489   4.543   2.311 -0.9892  0.0634  0.2357
 8094TIP3    H224205   1.368   4.631   2.288 -0.8769  0.5291  1.3720
 8095TIP3   OH224206   1.953   5.472   3.154  0.3196  0.3759 -0.2030
 8095TIP3    H124207   2.039   5.482   3.195  0.5103 -1.9569  0.0193
 8095TIP3    H224208   1.901   5.426   3.220 -0.2954 -0.5937 -1.3557
 8096TIP3   OH224209   4.253   6.922   2.812  0.3882 -0.3994 -0.0734
 8096TIP3    H124210   4.248   6.950   2.721 -0.7348  0.7241  0.3177
 8096TIP3    H224211   4.192   6.979   2.858  1.0837 -0.8280  1.4182
 8097TIP3   OH224212   2.134   3.289   4.864 -0.5042  0.8514 -0.3228
 8097TIP3    H124213   2.127   3.380   4.895  0.7335  1.0987 -0.7142
 8097TIP3    H224214   2.059   3.244   4.902 -0.6888  1.8634  0.5245
 8098TIP3   OH224215   4.725   6.745   1.580 -0.0143  0.3158 -0.7261
 8098TIP3    H124216   4.722   6.831   1.622 -0.2036  0.3710 -0.8528
 8098TIP3    H224217   4.815   6.715   1.593 -0.3230 -0.0844  0.5406
 8099TIP3   OH224218   5.242   5.147   5.721  0.2116 -0.1844  0.4434
 8099TIP3    H124219   5.171   5.088   5.746  0.3716  0.1147  1.6625
 8099TIP3    H224220   5.312   5.090   5.690 -0.1203 -0.5521  0.3748
 8100TIP3   OH224221   6.176   7.093   4.847 -0.9092  0.0441 -0.3360
 8100TIP3    H124222   6.188   7.126   4.758  0.1681  0.5396 -0.0127
 8100TIP3    H224223   6.239   7.021   4.854 -1.3702 -0.3380 -0.1559
 8101TIP3   OH224224   4.411   4.706   5.199  0.0322 -0.1597  0.1359
 8101TIP3    H124225   4.414   4.797   5.229  0.1666 -0.2779  0.4913
 8101TIP3    H224226   4.335   4.669   5.246  0.2659 -0.3558  0.3591
 8102TIP3   OH224227   3.566   3.223   3.355 -0.6792 -0.2018  0.2238
 8102TIP3    H124228   3.660   3.215   3.371 -0.6406  1.0280  0.6897
 8102TIP3    H224229   3.529   3.141   3.387  0.1334 -0.3106  0.9126
 8103TIP3   OH224230   3.825   4.104   4.705 -0.0619 -0.5878 -0.1750
 8103TIP3    H124231   3.768   4.104   4.782  0.4223  0.5861  0.1989
 8103TIP3    H224232   3.847   4.197   4.692  1.7247 -1.0283 -0.3531
 8104TIP3   OH224233   5.622   4.004   2.826  0.2012  0.1118  0.1790
 8104TIP3    H124234   5.572   4.069   2.877  0.4762  1.5403 -1.3254
 8104TIP3    H224235   5.677   3.961   2.891 -0.1247  1.2603  1.2567
 8105TIP3   OH224236   7.305   3.922   4.769  0.2710  0.0612 -0.2461
 8105TIP3    H124237   7.277   4.011   4.792  1.4940 -0.0753  1.9340
 8105TIP3    H224238   7.266   3.867   4.837  1.0394 -0.8438 -0.5371
 8106TIP3   OH224239   4.823   3.779   4.657  0.1360  0.3120 -0.1405
 8106TIP3    H124240   4.798   3.764   4.566 -1.2603  1.3093  0.0616
 8106TIP3    H224241   4.805   3.872   4.672  1.4819  0.4388  0.8129
 8107TIP3   OH224242   3.682   4.963   4.152 -0.2109  0.4194  0.4282
 8107TIP3    H124243   3.679   4.907   4.074  2.2906  0.0243  0.5514
 8107TIP3    H224244   3.599   4.947   4.197 -0.9169 -0.7182 -1.2244
 8108TIP3   OH224245   5.955   3.987   4.937 -0.0644  0.2623  0.4459
 8108TIP3    H124246   5.952   4.069   4.985 -1.5049  0.2448  0.4105
 8108TIP3    H224247   5.893   3.930   4.983  0.8131 -0.7500  0.3874
 8109TIP3   OH224248   5.204   3.535   4.926  0.2154 -0.3600 -0.5092
 8109TIP3    H124249   5.201   3.614   4.873  2.3798  0.0846 -0.0049
 8109TIP3    H224250   5.257   3.558   5.002 -0.9778 -1.6486  0.7515
 8110TIP3   OH224251   3.847   1.899   6.507  0.1797  0.8006 -0.1607
 8110TIP3    H124252   3.889   1.823   6.466  0.0284  0.6830 -0.1005
 8110TIP3    H224253   3.919   1.957   6.529  0.1298  1.6485 -2.1512
 8111TIP3   OH224254   4.516   5.153   5.090  0.5042 -0.4013 -0.3918
 8111TIP3    H124255   4.439   5.116   5.047 -0.4060  0.1731  0.6912
 8111TIP3    H224256   4.590   5.107   5.052 -0.4112 -1.2887 -1.1232
 8112TIP3   OH224257   4.330   3.569   4.785  0.3010  0.3227 -0.3008
 8112TIP3    H124258   4.363   3.596   4.871 -0.2574 -0.2520  0.1052
 8112TIP3    H224259   4.408   3.556   4.732  0.6552  0.6060  0.1458
 8113TIP3   OH224260   4.393   2.630   6.247 -1.0937  0.3903 -0.4505
 8113TIP3    H124261   4.429   2.671   6.168  2.6628 -0.3926  0.7954
 8113TIP3    H224262   4.382   2.702   6.309  0.8948  0.2626  0.0695
 8114TIP3   OH224263   4.501   4.594   6.670 -0.1846 -0.3976  0.3967
 8114TIP3    H124264   4.411   4.565   6.653  0.7429 -2.1439 -1.7463
 8114TIP3    H224265   4.549   4.513   6.688  1.4151  0.2953 -0.6574
 8115TIP3   OH224266   5.307   4.822   3.365 -0.7967 -0.4403  0.1044
 8115TIP3    H124267   5.320   4.882   3.438  2.3075  0.3080 -1.0030
 8115TIP3    H224268   5.262   4.875   3.299 -1.3734 -0.4123  0.5107
 8116TIP3   OH224269   5.567   3.013   3.700  0.6539  0.5477  0.1460
 8116TIP3    H124270   5.497   2.953   3.726  0.9385  0.8601  1.7133
 8116TIP3    H224271   5.643   2.956   3.683  0.3855  0.3132 -0.2633
 8117TIP3   OH224272   4.982   5.942   4.169  0.5473 -0.1762 -0.2657
 8117TIP3    H124273   4.988   5.919   4.262  1.4327  3.3957  0.6415
 8117TIP3    H224274   4.895   5.981   4.160 -0.2867 -2.2242 -1.4017
 8118TIP3   OH224275   4.018   4.184   3.878 -0.2479 -0.1666  0.2430
 8118TIP3    H124276   4.040   4.116   3.942  0.3931 -0.4884 -0.3055
 8118TIP3    H224277   4.098   4.236   3.871  0.2411 -1.1200 -1.5004
 8119TIP3   OH224278   2.777   2.420   3.800  0.2563 -0.4229  0.2813
 8119TIP3    H124279   2.811   2.337   3.765  1.3543 -0.8766  2.3280
 8119TIP3    H224280   2.801   2.418   3.893 -0.6655  1.7147  0.5879
 8120TIP3   OH224281   4.409   5.979   2.191  0.2398  0.4638  0.6803
 8120TIP3    H124282   4.475   5.973   2.123 -0.0129 -2.5130  0.6498
 8120TIP3    H224283   4.325   5.977   2.145  0.0929  1.3522  0.8988
 8121TIP3   OH224284   4.543   6.448   0.257 -0.6480  0.4097 -0.1271
 8121TIP3    H124285   4.587   6.529   0.231 -1.3265  0.6044 -0.6739
 8121TIP3    H224286   4.502   6.416   0.176  2.8128 -2.5120 -0.8807
 8122TIP3   OH224287   6.075   5.092   4.729  0.4763  0.1303 -0.3244
 8122TIP3    H124288   6.123   5.103   4.647 -0.1079  0.9452 -0.5608
 8122TIP3    H224289   6.053   5.181   4.757 -3.0777 -0.2788 -1.5112
 8123TIP3   OH224290   4.374   4.059   7.228 -0.2693 -0.2044  0.5644
 8123TIP3    H124291   4.413   3.975   7.207  0.8293  0.8100 -1.6050
 8123TIP3    H224292   4.282   4.039   7.244 -0.3643 -1.6431 -1.5071
 8124TIP3   OH224293   1.823   4.930   2.552  0.4085 -0.3503 -0.1071
 8124TIP3    H124294   1.776   4.934   2.635 -0.7393 -0.1156 -0.7491
 8124TIP3    H224295   1.771   4.869   2.498  0.3160  0.6284 -1.1437
 8125TIP3   OH224296   5.127   5.127   3.421 -0.0233  0.0590 -0.5823
 8125TIP3    H124297   5.125   5.120   3.516  0.0032  0.6078 -0.5378
 8125TIP3    H224298   5.215   5.158   3.401  0.4976 -1.6098 -0.9013
 8126TIP3   OH224299   4.597   4.617   4.967  0.3391 -0.2272  0.4421
 8126TIP3    H124300   4.529   4.682   4.947  0.1713 -0.1555  1.2241
 8126TIP3    H224301   4.630   4.643   5.053  3.2258  1.3010 -1.0645
 8127TIP3   OH224302   2.500   6.808   5.601  0.2142 -0.3741 -0.1382
 8127TIP3    H124303   2.534   6.860   5.674 -0.6687 -1.9345  1.4078
 8127TIP3    H224304   2.562   6.736   5.591 -0.2140 -0.7237 -0.2835
 8128TIP3   OH224305   1.973   4.498   4.908 -0.0978 -0.3191  0.2277
 8128TIP3    H124306   1.961   4.493   4.813 -1.6789 -1.5191  0.4757
 8128TIP3    H224307   1.947   4.587   4.931 -0.4464 -0.2693 -0.3519
 8129TIP3   OH224308   5.680   5.934   5.134  0.3185 -0.5556  0.2848
 8129TIP3    H124309   5.713   5.847   5.157 -0.0658 -1.0528 -0.9938
 8129TIP3    H224310   5.688   5.985   5.214  0.7646 -1.7116  0.9827
 8130TIP3   OH224311   3.345   5.867   4.725 -0.9971  0.2136  0.1862
 8130TIP3    H124312   3.413   5.854   4.791 -0.2326  0.5639 -0.5215
 8130TIP3    H224313   3.270   5.819   4.759  0.1172 -1.5989  0.1896
 8131TIP3   OH224314   5.678   5.292   3.258 -0.6539 -0.3602 -0.1786
 8131TIP3    H124315   5.666   5.367   3.317 -2.3723 -1.1706  0.5209
 8131TIP3    H224316   5.729   5.229   3.309 -3.1564 -1.5524  0.8999
 8132TIP3   OH224317   1.853   6.299   3.191  0.1574  0.3070 -0.3021
 8132TIP3    H124318   1.884   6.376   3.144  0.2641  2.3862  2.9988
 8132TIP3    H224319   1.773   6.328   3.234  0.2333 -1.4101  1.0505
 8133TIP3   OH224320   2.361   5.076   4.528 -0.2764 -0.1113 -0.5842
 8133TIP3    H124321   2.287   5.082   4.468  0.9743  0.3545 -2.1366
 8133TIP3    H224322   2.358   4.986   4.561 -2.0835  0.1942  0.1422
 8134TIP3   OH224323   4.330   6.215   4.431  0.0224 -0.0750 -0.1747
 8134TIP3    H124324   4.261   6.150   4.444 -0.7525  0.9853  1.1289
 8134TIP3    H224325   4.412   6.166   4.441 -0.5386 -1.2088 -1.0991
 8135TIP3   OH224326   3.499   3.018   5.540 -0.0100 -0.1125  0.2698
 8135TIP3    H124327   3.431   3.078   5.571 -0.3010 -0.1663 -0.2617
 8135TIP3    H224328   3.506   3.037   5.446  2.5867  1.8172  0.7700
 8136TIP3   OH224329   6.110   1.488   3.337  0.3562 -0.6445  0.3111
 8136TIP3    H124330   6.102   1.448   3.424 -0.9943  0.3121  0.6473
 8136TIP3    H224331   6.203   1.479   3.315  0.4037 -2.3590  1.1291
 8137TIP3   OH224332   6.213   3.755   3.718  0.3341 -0.2069 -0.1132
 8137TIP3    H124333   6.219   3.737   3.812  0.9434  1.2403  0.1407
 8137TIP3    H224334   6.124   3.729   3.695  0.6572 -1.9720  0.5396
 8138TIP3   OH224335   4.875   3.077   5.587 -0.1641 -0.3771 -0.1508
 8138TIP3    H124336   4.801   3.059   5.528 -2.2491  3.1887  1.2398
 8138TIP3    H224337   4.935   3.129   5.534 -0.9215  0.7807  0.0969
 8139TIP3   OH224338   2.849   1.490   3.473  0.4338 -0.7402 -0.0600
 8139TIP3    H124339   2.933   1.503   3.517  0.9364 -4.2267  0.1319
 8139TIP3    H224340   2.869   1.432   3.399 -1.9827 -2.6517  0.7148
 8140TIP3   OH224341   2.988   1.191   2.710 -0.0485 -0.2322  0.2200
 8140TIP3    H124342   2.933   1.183   2.788 -2.7497  0.6450 -1.5350
 8140TIP3    H224343   2.981   1.106   2.667 -2.4320  0.7695 -1.4878
 8141TIP3   OH224344   4.340   3.848   5.217  0.6152  0.3020 -0.1520
 8141TIP3    H124345   4.319   3.933   5.256  1.9921 -0.0333  1.3436
 8141TIP3    H224346   4.270   3.834   5.152 -0.2102  2.0778  0.3190
 8142TIP3   OH224347   4.863   3.506   2.621  0.3226 -0.1895  0.0997
 8142TIP3    H124348   4.867   3.444   2.694  1.7421  0.0274  0.2334
 8142TIP3    H224349   4.804   3.466   2.558  0.0242 -0.9503  0.8537
 8143TIP3   OH224350   2.215   6.849   4.550  0.0208  0.1364  0.4367
 8143TIP3    H124351   2.157   6.812   4.483 -1.4415  0.4176  1.5227
 8143TIP3    H224352   2.261   6.920   4.505 -3.5857  2.6995  0.6169
 8144TIP3   OH224353   6.762   2.698   2.559  0.0668 -0.3881  0.1541
 8144TIP3    H124354   6.700   2.626   2.571  0.5401 -0.6571  1.1029
 8144TIP3    H224355   6.848   2.657   2.565  0.3640  0.4561  2.3168
 8145TIP3   OH224356   2.770   3.780   4.705  0.1825  0.0299  0.3767
 8145TIP3    H124357   2.853   3.738   4.681  0.1152 -0.2362  0.6134
 8145TIP3    H224358   2.760   3.851   4.641  1.4212  1.1004  1.3271
 8146TIP3   OH224359   3.593   5.080   1.976  0.3754  0.2488 -0.5980
 8146TIP3    H124360   3.613   5.173   1.988  1.1819  0.0134 -0.1101
 8146TIP3    H224361   3.551   5.054   2.057  1.3888 -0.1457 -0.1974
 8147TIP3   OH224362   5.079   4.943   2.313  0.0716  0.3143  0.4427
 8147TIP3    H124363   5.166   4.904   2.327 -0.2108 -0.1355  0.9293
 8147TIP3    H224364   5.097   5.019   2.257  0.6809 -0.2520 -0.1575
 8148TIP3   OH224365   2.447   3.996   4.621  0.3788 -0.0305  0.2268
 8148TIP3    H124366   2.527   4.047   4.608  1.1631 -1.4141 -0.5475
 8148TIP3    H224367   2.462   3.951   4.705  0.6303 -0.6524 -0.1452
 8149TIP3   OH224368   3.380   1.005   6.177  0.1180 -0.6233  0.4471
 8149TIP3    H124369   3.312   1.051   6.226  1.1357  0.0632  1.2583
 8149TIP3    H224370   3.459   1.016   6.231  0.7696 -1.7695 -0.2587
 8150TIP3   OH224371   3.080   4.660   2.367 -0.0391 -0.3128  0.0614
 8150TIP3    H124372   3.102   4.663   2.460  0.2588  2.4544 -0.0575
 8150TIP3    H224373   3.164   4.660   2.323 -0.1855 -1.2555 -0.2254
 8151TIP3   OH224374   6.128   3.877   5.642  0.1583  0.3835  0.0633
 8151TIP3    H124375   6.092   3.906   5.559 -0.4822 -0.8439 -0.0882
 8151TIP3    H224376   6.185   3.950   5.670 -1.1325  1.6245 -0.4853
 8152TIP3   OH224377   5.075   4.721   4.855 -0.5012 -0.2018 -0.0833
 8152TIP3    H124378   5.002   4.660   4.862  0.1876 -0.9639  0.5640
 8152TIP3    H224379   5.118   4.699   4.772 -0.7430 -0.0446 -0.2504
 8153TIP3   OH224380   5.680   4.111   3.298  0.9495 -0.0682 -0.7244
 8153TIP3    H124381   5.756   4.118   3.356  0.2531  1.3146  0.0495
 8153TIP3    H224382   5.629   4.038   3.333  0.0923  1.2978  0.9659
 8154TIP3   OH224383   6.075   5.334   6.162 -0.0496 -0.2730  0.8326
 8154TIP3    H124384   6.126   5.255   6.179 -0.5395 -0.9671 -0.8497
 8154TIP3    H224385   6.140   5.405   6.160  0.5614 -0.8264  1.0229
 8155TIP3   OH224386   5.442   4.230   3.524  0.5035  0.0468 -0.0690
 8155TIP3    H124387   5.398   4.289   3.586 -0.1825  0.3788 -0.8741
 8155TIP3    H224388   5.510   4.187   3.577 -0.3049  0.0605  1.0137
 8156TIP3   OH224389   3.798   2.968   3.195  0.7653  0.2778 -0.3409
 8156TIP3    H124390   3.818   3.030   3.124 -0.2409  0.0306 -0.8535
 8156TIP3    H224391   3.848   2.889   3.172  0.1645  0.0760 -0.9690
 8157TIP3   OH224392   5.420   6.983   4.055 -0.4965 -0.2358 -0.0814
 8157TIP3    H124393   5.433   6.948   4.143  0.9926  1.9056  0.5748
 8157TIP3    H224394   5.508   6.999   4.022 -1.1076  1.3432 -0.9958
 8158TIP3   OH224395   6.290   1.696   5.290  0.5952  0.1737 -0.3651
 8158TIP3    H124396   6.245   1.780   5.282  0.7663  0.4280  1.1827
 8158TIP3    H224397   6.383   1.718   5.282  0.6296  0.1215 -0.1345
 8159TIP3   OH224398   7.485   2.747   1.480  0.1591  0.4908 -0.0210
 8159TIP3    H124399   7.400   2.764   1.439  0.5557  0.8868 -0.6858
 8159TIP3    H224400   7.467   2.749   1.574 -0.8899 -1.0840 -0.1558
 8160TIP3   OH224401   8.216   3.994   3.241  0.8507 -0.0112 -0.0547
 8160TIP3    H124402   8.188   3.903   3.233  0.4619 -0.0614  1.6664
 8160TIP3    H224403   8.259   4.014   3.158 -3.1757 -0.3047 -2.3550
 8161TIP3   OH224404   4.877   3.557   5.675  0.8522  0.0296  0.2913
 8161TIP3    H124405   4.905   3.482   5.623  2.2031 -0.0857  1.1359
 8161TIP3    H224406   4.946   3.566   5.741  0.5623  1.8536  0.3541
 8162TIP3   OH224407   5.348   3.127   5.310  0.3383 -0.5888  0.6867
 8162TIP3    H124408   5.411   3.166   5.250 -0.4707  1.0896  0.8696
 8162TIP3    H224409   5.382   3.147   5.397  0.5372 -1.3592  0.7881
 8163TIP3   OH224410   8.359   4.571   2.895 -0.0692  0.1551  0.3954
 8163TIP3    H124411   8.412   4.539   2.823  0.8546  0.5749  0.8684
 8163TIP3    H224412   8.358   4.500   2.959  0.5486  0.4148  0.7024
 8164TIP3   OH224413   7.127   1.893   4.725  0.3322 -0.2523  0.1466
 8164TIP3    H124414   7.217   1.903   4.757  0.3158  1.0457 -0.1788
 8164TIP3    H224415   7.078   1.863   4.801  0.4354  2.0699  1.1711
 8165TIP3   OH224416   8.039   3.823   2.406  0.1088  0.0237  0.7822
 8165TIP3    H124417   8.070   3.799   2.319  0.4580  0.4121  0.7956
 8165TIP3    H224418   8.015   3.740   2.447 -0.3833 -0.1286  0.1940
 8166TIP3   OH224419   6.249   2.582   5.129 -0.4383  0.0889  0.3257
 8166TIP3    H124420   6.187   2.607   5.061 -1.4407 -1.2569  0.7130
 8166TIP3    H224421   6.201   2.595   5.211 -0.3268 -1.2191  0.6145
 8167TIP3   OH224422   6.643   3.025   5.071  0.7708  0.1523  0.2873
 8167TIP3    H124423   6.719   2.974   5.100 -0.0546  0.1118  2.4759
 8167TIP3    H224424   6.663   3.115   5.099  0.0141  0.1307  0.9240
 8168TIP3   OH224425   4.330   4.938   0.194 -0.2362  0.4735 -0.2605
 8168TIP3    H124426   4.392   4.940   0.268 -0.9738 -2.4554  0.4927
 8168TIP3    H224427   4.244   4.940   0.235 -0.6475 -0.3569 -1.0851
 8169TIP3   OH224428   5.519   5.791   4.725  0.1653  0.2106 -0.0974
 8169TIP3    H124429   5.523   5.779   4.820  3.6824 -0.6725 -0.2937
 8169TIP3    H224430   5.484   5.709   4.692 -1.4779  0.6759  0.4303
 8170TIP3   OH224431   8.228   5.667   4.088 -0.0096  0.1229  0.3823
 8170TIP3    H124432   8.159   5.733   4.090 -0.2488  0.0264 -2.3732
 8170TIP3    H224433   8.182   5.583   4.080  0.3654 -0.1679  1.2035
 8171TIP3   OH224434   5.949   4.440   4.255  0.2188  0.6972  0.1709
 8171TIP3    H124435   5.927   4.534   4.254  0.3850  0.7304 -0.3901
 8171TIP3    H224436   5.960   4.417   4.163 -0.5337 -0.0443  0.2547
 8172TIP3   OH224437   7.530   6.801   4.090 -0.1507 -0.0381  0.0065
 8172TIP3    H124438   7.436   6.789   4.104 -0.2142 -0.6872 -0.9393
 8172TIP3    H224439   7.562   6.713   4.067  0.4055  0.4636 -1.1906
 8173TIP3   OH224440   8.628   5.327   3.539  0.5692  0.0515  0.1962
 8173TIP3    H124441   8.714   5.358   3.566  1.0815  0.6783 -2.0418
 8173TIP3    H224442   8.568   5.362   3.605  1.8983  0.3926  1.2546
 8174TIP3   OH224443   7.211   5.878   3.518 -0.0322 -0.2045 -0.1652
 8174TIP3    H124444   7.212   5.974   3.522 -2.0266 -0.1693  0.1729
 8174TIP3    H224445   7.276   5.856   3.452  0.3673  1.3877 -0.3291
 8175TIP3   OH224446   6.823   1.675   3.772  0.1611 -0.3979 -0.2167
 8175TIP3    H124447   6.841   1.728   3.695  0.5866 -0.9536 -0.5069
 8175TIP3    H224448   6.850   1.586   3.747  1.5189 -0.3490  1.0001
 8176TIP3   OH224449   7.831   4.965   2.457 -0.0758  0.1957  0.2330
 8176TIP3    H124450   7.826   5.060   2.470  1.1319  0.2693  0.1883
 8176TIP3    H224451   7.753   4.931   2.500 -2.1261  1.4738 -2.3018
 8177TIP3   OH224452   6.462   6.923   4.384 -0.0331  0.4183  0.2544
 8177TIP3    H124453   6.384   6.908   4.438  0.0173  2.0696  0.8251
 8177TIP3    H224454   6.429   6.968   4.307 -0.1855 -2.4594 -1.4239
 8178TIP3   OH224455   6.239   5.401   5.136  0.4067 -0.1063 -0.2648
 8178TIP3    H124456   6.235   5.388   5.231 -0.5357 -0.1831 -0.3073
 8178TIP3    H224457   6.320   5.358   5.109  0.3728 -0.6133  0.4285
 8179TIP3   OH224458   8.547   2.818   4.349 -0.0806 -0.4996 -0.2138
 8179TIP3    H124459   8.590   2.754   4.406 -1.4400 -1.2670 -0.0500
 8179TIP3    H224460   8.572   2.791   4.260 -0.5328 -1.1690 -0.1383
 8180TIP3   OH224461   5.986   4.973   3.765 -0.2386 -0.3775  0.2185
 8180TIP3    H124462   5.908   4.998   3.814 -0.5145 -0.6110 -0.1012
 8180TIP3    H224463   5.953   4.931   3.686  0.2033  0.3713 -0.3678
 8181TIP3   OH224464   5.471   6.745   4.804  0.3610  0.1172 -0.2307
 8181TIP3    H124465   5.401   6.770   4.743  0.0602  1.4785  0.6649
 8181TIP3    H224466   5.527   6.687   4.753 -0.4470  0.4310 -1.5010
 8182TIP3   OH224467   7.366   3.462   2.239 -0.0897 -0.2141  0.4973
 8182TIP3    H124468   7.307   3.437   2.310 -1.5084  1.7868  0.0549
 8182TIP3    H224469   7.342   3.403   2.167 -1.0126  0.0423  0.5830
 8183TIP3   OH224470   4.281   6.132   3.444 -0.2010 -0.3888 -0.3113
 8183TIP3    H124471   4.248   6.043   3.458 -1.7803  0.2053 -0.1606
 8183TIP3    H224472   4.377   6.122   3.444 -0.2534 -1.5205  3.4316
 8184TIP3   OH224473   5.329   5.063   5.412  0.1719 -0.4148  0.1396
 8184TIP3    H124474   5.388   5.112   5.355  0.9222 -2.4976 -0.9704
 8184TIP3    H224475   5.384   5.033   5.484  0.4662 -2.0527 -0.7120
 8185TIP3   OH224476   6.283   3.438   3.477 -0.0414 -0.0062 -0.0546
 8185TIP3    H124477   6.372   3.449   3.445 -0.3345  4.4496  0.2739
 8185TIP3    H224478   6.293   3.416   3.569  0.7158 -1.7888 -0.5530
 8186TIP3   OH224479   6.956   4.081   3.581  0.2449 -0.3484 -0.0943
 8186TIP3    H124480   6.869   4.049   3.604  1.2534 -2.8800  0.3430
 8186TIP3    H224481   6.963   4.067   3.487 -0.8311  2.4594 -0.6355
 8187TIP3   OH224482   6.283   5.418   2.625  0.1905  0.0482 -0.7024
 8187TIP3    H124483   6.329   5.439   2.707  1.0193  0.4855 -1.2777
 8187TIP3    H224484   6.205   5.370   2.654 -1.5349  3.4453  0.6365
 8188TIP3   OH224485   3.658   5.454   4.881  0.2797 -0.4733 -0.3496
 8188TIP3    H124486   3.620   5.395   4.816 -0.1421 -0.5749 -0.0137
 8188TIP3    H224487   3.647   5.541   4.842 -0.8587 -0.4439  0.0097
 8189TIP3   OH224488   6.257   5.835   1.930 -0.3223  0.4905 -0.4290
 8189TIP3    H124489   6.243   5.830   2.025  0.0675 -0.5004 -0.4123
 8189TIP3    H224490   6.180   5.792   1.893 -0.2031  0.3765 -0.5421
 8190TIP3   OH224491   3.059   4.684   5.271 -0.1473 -0.5147 -0.2935
 8190TIP3    H124492   3.036   4.595   5.245  2.3484 -1.2831 -0.0323
 8190TIP3    H224493   3.010   4.700   5.352 -1.1634 -1.3712 -0.7346
 8191TIP3   OH224494   7.251   3.836   2.816  0.0098 -0.6036 -0.6597
 8191TIP3    H124495   7.280   3.766   2.875 -0.7306 -1.6835 -1.5606
 8191TIP3    H224496   7.317   3.904   2.826 -0.3129 -0.5867  1.7267
 8192TIP3   OH224497   5.000   7.068   3.573 -0.1895 -0.1037 -0.2272
 8192TIP3    H124498   4.997   6.972   3.563 -0.3890 -0.0311 -0.9448
 8192TIP3    H224499   5.083   7.085   3.618  0.7045 -0.5105 -1.6486
 8193TIP3   OH224500   7.001   4.760   4.702 -0.1857  0.1512  0.4038
 8193TIP3    H124501   7.092   4.775   4.675  0.0605  0.5198  1.4411
 8193TIP3    H224502   6.983   4.670   4.674  0.3072  0.2791 -0.3326
 8194TIP3   OH224503   7.178   2.036   2.188  0.0461 -0.6143  0.0001
 8194TIP3    H124504   7.225   1.952   2.192  2.5176  0.7319 -0.0943
 8194TIP3    H224505   7.174   2.065   2.279 -0.2744 -0.5422 -0.0382
 8195TIP3   OH224506   4.674   3.754   6.130  0.1926  0.0340 -0.1628
 8195TIP3    H124507   4.630   3.826   6.174 -1.0525 -0.7711 -0.0853
 8195TIP3    H224508   4.671   3.777   6.037 -0.2777  0.0369 -0.1439
 8196TIP3   OH224509   0.136   3.339   3.700  0.1885  0.4112 -0.3370
 8196TIP3    H124510   0.118   3.422   3.656  0.6288  0.0614 -1.1829
 8196TIP3    H224511   0.216   3.356   3.751  0.2667  0.5113 -0.4928
 8197TIP3   OH224512   6.362   4.307   2.171 -0.3298  0.2493 -0.1236
 8197TIP3    H124513   6.349   4.331   2.079 -0.1870 -0.8839 -0.4510
 8197TIP3    H224514   6.405   4.221   2.167 -2.4835 -0.9134  0.9952
 8198TIP3   OH224515   5.422   3.311   4.888  0.2738  0.2794 -0.0200
 8198TIP3    H124516   5.329   3.334   4.889 -0.3258 -2.0868  0.3770
 8198TIP3    H224517   5.466   3.390   4.920 -1.6732  1.0174  0.9084
 8199TIP3   OH224518   7.963   4.576   3.103  0.3152 -0.2637 -0.3305
 8199TIP3    H124519   7.915   4.595   3.023 -0.8951  0.7109  0.6172
 8199TIP3    H224520   8.018   4.653   3.116  1.0956 -0.7603 -0.6327
 8200TIP3   OH224521   4.563   4.388   2.711 -0.3670  0.4341 -0.4027
 8200TIP3    H124522   4.595   4.473   2.741  3.6370 -0.8999 -0.6991
 8200TIP3    H224523   4.529   4.405   2.623 -0.7022  1.9035 -0.0137
 8201TIP3   OH224524   7.141   2.811   2.730  0.0289  0.1568  0.1157
 8201TIP3    H124525   7.154   2.814   2.636 -0.4980 -1.2933 -0.0153
 8201TIP3    H224526   7.229   2.794   2.765 -0.0977 -1.2834 -0.2444
 8202TIP3   OH224527   7.490   6.659   4.800 -0.2630 -0.3111  0.2362
 8202TIP3    H124528   7.518   6.748   4.821  0.9771 -0.6743  0.1632
 8202TIP3    H224529   7.490   6.614   4.885  2.1307 -1.0565 -0.1126
 8203TIP3   OH224530   5.805   3.991   3.820 -0.1683  0.5535 -0.0562
 8203TIP3    H124531   5.849   3.935   3.884 -1.9468 -0.8191 -0.0117
 8203TIP3    H224532   5.876   4.028   3.768  1.1965  0.3580  1.6226
 8204TIP3   OH224533   5.593   3.996   4.362 -0.1278 -0.1980  0.2289
 8204TIP3    H124534   5.548   3.937   4.301  0.3048  0.2247 -0.4997
 8204TIP3    H224535   5.671   3.948   4.389  0.8905  0.5293 -1.3428
 8205TIP3   OH224536   4.732   3.487   4.418  0.2380 -0.2534 -0.5935
 8205TIP3    H124537   4.789   3.530   4.482  0.6504 -0.7343 -0.6295
 8205TIP3    H224538   4.697   3.558   4.365 -0.9596  0.2610  0.8413
 8206TIP3   OH224539   4.573   4.566   5.399  0.1131  0.6989 -0.4596
 8206TIP3    H124540   4.664   4.571   5.371 -0.4412 -0.9005 -2.7277
 8206TIP3    H224541   4.524   4.615   5.332 -0.9948 -1.1914 -1.0892
 8207TIP3   OH224542   5.247   3.093   4.452  0.3319 -0.1154 -0.2093
 8207TIP3    H124543   5.322   3.142   4.487  0.1145  0.0517  0.0259
 8207TIP3    H224544   5.240   3.120   4.361 -1.2109  2.0522  0.5272
 8208TIP3   OH224545   6.656   2.109   2.011 -0.5444 -0.0008 -0.2439
 8208TIP3    H124546   6.678   2.018   1.988 -2.1664 -0.5662  0.3470
 8208TIP3    H224547   6.718   2.132   2.080  1.0427 -0.0320 -1.6290
 8209TIP3   OH224548   6.842   1.451   4.240 -0.2384  0.0903 -0.0403
 8209TIP3    H124549   6.796   1.368   4.231  1.2550 -0.8181  0.4557
 8209TIP3    H224550   6.853   1.463   4.334 -0.0006  0.5929 -0.1268
 8210TIP3   OH224551   5.801   3.121   3.796  0.4209  0.0113  0.7877
 8210TIP3    H124552   5.706   3.128   3.785  0.8430  1.7820 -2.4643
 8210TIP3    H224553   5.829   3.061   3.726  2.1182  3.1620 -1.4051
 8211TIP3   OH224554   0.040   4.321   2.812 -0.4429  0.5274  0.4269
 8211TIP3    H124555   0.113   4.316   2.874  0.1619  2.3075 -0.1043
 8211TIP3    H224556   0.047   4.409   2.774 -1.4365 -0.1481 -1.3791
 8212TIP3   OH224557   6.394   1.370   4.068 -0.1101  0.4420 -0.0063
 8212TIP3    H124558   6.469   1.369   4.008 -0.0790  0.6652  0.0261
 8212TIP3    H224559   6.318   1.356   4.012  0.0200 -0.5809  0.0618
 8213TIP3   OH224560   8.343   5.084   4.193  0.0567 -0.2233 -0.2871
 8213TIP3    H124561   8.336   5.086   4.288 -1.3370 -1.5624 -0.3454
 8213TIP3    H224562   8.438   5.085   4.177  0.3288 -0.8632  1.1420
 8214TIP3   OH224563   6.977   3.061   2.723  0.5533 -0.6465  0.3802
 8214TIP3    H124564   7.035   2.986   2.730 -1.0847 -1.7877  2.0150
 8214TIP3    H224565   6.888   3.024   2.723 -0.2350  1.1512 -0.6356
 8215TIP3   OH224566   5.412   5.413   5.380  0.2514 -0.1755 -0.2321
 8215TIP3    H124567   5.457   5.420   5.464  0.4862 -0.2884 -0.3497
 8215TIP3    H224568   5.321   5.393   5.403  0.2483  0.1055  0.0064
 8216TIP3   OH224569   7.253   5.136   4.112 -0.5910  0.0799  0.6484
 8216TIP3    H124570   7.164   5.102   4.103 -1.2144  1.7199  0.5071
 8216TIP3    H224571   7.290   5.129   4.024 -0.7293 -0.1888  0.6120
 8217TIP3   OH224572   8.150   4.762   3.164 -0.1062  0.0146  0.0338
 8217TIP3    H124573   8.210   4.747   3.238 -1.3042 -2.3342  0.5670
 8217TIP3    H224574   8.125   4.853   3.173  3.6624  1.2025 -0.4213
 8218TIP3   OH224575   7.099   1.056   1.615 -0.1085  0.2358  0.3110
 8218TIP3    H124576   7.097   1.014   1.700 -2.1391  0.3210  0.3360
 8218TIP3    H224577   7.097   1.150   1.635  0.4222  0.2781  0.1784
 8219TIP3   OH224578   6.168   7.050   3.882 -0.2573 -0.0666  0.7023
 8219TIP3    H124579   6.113   7.028   3.806  0.9461 -0.3998 -0.0924
 8219TIP3    H224580   6.173   6.968   3.932  1.4706 -0.7073 -0.4894
 8220TIP3   OH224581   6.029   3.841   2.146 -0.4650 -0.5484 -0.4927
 8220TIP3    H124582   6.000   3.758   2.182 -0.5796 -0.4739 -0.4141
 8220TIP3    H224583   6.113   3.821   2.104  0.0044 -0.4884  0.4138
 8221TIP3   OH224584   5.726   4.689   2.509  0.7638  0.4136  0.3369
 8221TIP3    H124585   5.704   4.596   2.516 -0.3001  0.6975  0.9201
 8221TIP3    H224586   5.699   4.713   2.420  0.9744  0.1828  0.2108
 8222TIP3   OH224587   5.394   3.399   3.408  0.4883 -0.1469 -0.2961
 8222TIP3    H124588   5.377   3.488   3.439  1.9004 -0.3216  1.0272
 8222TIP3    H224589   5.346   3.343   3.468 -0.5598 -0.2947 -1.2445
 8223TIP3   OH224590   5.885   5.171   4.172 -0.2745  0.6131 -0.6067
 8223TIP3    H124591   5.870   5.114   4.097  1.8846 -1.5051  0.5005
 8223TIP3    H224592   5.964   5.221   4.150  1.1715 -0.9990  0.7524
 8224TIP3   OH224593   6.541   4.058   2.251 -0.0500 -0.5572 -0.7332
 8224TIP3    H124594   6.537   4.016   2.337  1.3143 -0.4154 -0.5947
 8224TIP3    H224595   6.593   4.137   2.266 -1.1709  0.3166 -1.3478
 8225TIP3   OH224596   6.110   2.910   4.761 -0.7027 -0.2390  0.4216
 8225TIP3    H124597   6.202   2.909   4.734 -0.0968 -2.3143  2.3609
 8225TIP3    H224598   6.081   2.819   4.752 -2.2960  0.2245  0.7094
 8226TIP3   OH224599   7.183   3.836   3.705 -0.0407 -0.4324  0.0559
 8226TIP3    H124600   7.213   3.755   3.748 -1.2869 -1.3438 -0.7561
 8226TIP3    H224601   7.094   3.816   3.677 -0.3900  1.2779 -0.0634
 8227TIP3   OH224602   6.195   4.745   1.949  0.0498 -0.3237 -0.1366
 8227TIP3    H124603   6.155   4.757   1.862  1.5619 -0.5756 -0.8816
 8227TIP3    H224604   6.257   4.817   1.957 -1.5380  0.9008  1.6205
 8228TIP3   OH224605   6.529   3.070   3.956 -0.2687 -0.5791  0.5922
 8228TIP3    H124606   6.501   2.993   3.907 -0.9523  0.8049 -1.2481
 8228TIP3    H224607   6.620   3.084   3.928 -0.6796  0.2482 -0.3664
 8229TIP3   OH224608   5.141   3.302   2.950 -0.0194  0.1575 -0.2682
 8229TIP3    H124609   5.150   3.253   3.032  0.9951  4.1827  2.1649
 8229TIP3    H224610   5.229   3.301   2.913  0.2348  0.8798  0.2868
 8230TIP3   OH224611   5.383   5.060   2.431  0.4730  0.2125 -0.1362
 8230TIP3    H124612   5.349   5.054   2.520  3.0310 -1.1249  0.8053
 8230TIP3    H224613   5.359   4.976   2.391 -0.6318  0.7932 -0.6931
 8231TIP3   OH224614   7.373   3.633   3.008  0.2306 -0.0486 -0.7213
 8231TIP3    H124615   7.377   3.575   3.084  1.7197  0.5580 -0.3101
 8231TIP3    H224616   7.457   3.621   2.964  0.5897  1.7860 -0.6018
 8232TIP3   OH224617   7.634   4.559   3.121  0.4201 -0.2871 -0.3795
 8232TIP3    H124618   7.720   4.595   3.100  0.6741 -0.6316  0.0443
 8232TIP3    H224619   7.633   4.474   3.076 -0.0655  0.1242 -1.1477
 8233TIP3   OH224620   5.827   6.302   4.702 -0.3828 -0.1349  0.4219
 8233TIP3    H124621   5.866   6.384   4.672  0.2511 -1.1213 -1.5845
 8233TIP3    H224622   5.881   6.234   4.660 -1.9843 -1.5505  0.6211
 8234TIP3   OH224623   5.423   4.332   4.680  0.0030  0.9383 -0.3431
 8234TIP3    H124624   5.474   4.292   4.609  1.6836  0.1332  1.2838
 8234TIP3    H224625   5.342   4.361   4.638  0.3880 -0.7624 -2.3143
 8235TIP3   OH224626   6.019   7.774   4.458  0.2855 -0.1428 -0.3417
 8235TIP3    H124627   6.019   7.862   4.421  0.6342 -0.3397 -0.8114
 8235TIP3    H224628   6.097   7.772   4.514 -0.8485  0.5219  1.2784
 8236TIP3   OH224629   7.515   6.660   3.804  1.2522 -0.1940  0.1157
 8236TIP3    H124630   7.495   6.572   3.770  1.6519 -0.7106  1.2048
 8236TIP3    H224631   7.430   6.697   3.827  1.1180 -0.4522  0.0359
 8237TIP3   OH224632   6.999   5.134   3.950 -0.4672  0.5728  0.0644
 8237TIP3    H124633   6.937   5.206   3.957 -1.4412 -0.0205 -2.0105
 8237TIP3    H224634   6.953   5.059   3.988  0.3645  0.9204  1.7902
 8238TIP3   OH224635   4.799   2.761   3.255  0.4029 -0.4400 -0.3785
 8238TIP3    H124636   4.831   2.700   3.188  0.3881 -1.7582  0.7775
 8238TIP3    H224637   4.837   2.728   3.337 -0.9302  0.1496  0.4964
 8239TIP3   OH224638   7.125   3.519   2.876  0.0428 -0.2088  0.3895
 8239TIP3    H124639   7.150   3.492   2.788  0.5016  1.9158 -0.1724
 8239TIP3    H224640   7.201   3.500   2.930  0.2676 -0.2749  0.0479
 8240TIP3   OH224641   5.781   4.157   1.384  0.0690 -0.1317 -0.1993
 8240TIP3    H124642   5.836   4.221   1.430 -1.5429  1.0262  0.1761
 8240TIP3    H224643   5.839   4.082   1.369  1.8747  1.2086 -0.2147
 8241TIP3   OH224644   6.616   4.258   3.673  0.1547 -0.2240  0.0132
 8241TIP3    H124645   6.627   4.178   3.724 -1.3735 -0.6665 -0.3245
 8241TIP3    H224646   6.628   4.230   3.582  0.6988  0.1413 -0.0279
 8242TIP3   OH224647   6.710   6.035   3.927 -0.2831  0.0394  0.5556
 8242TIP3    H124648   6.730   6.083   4.007 -1.1681  1.0614  0.1814
 8242TIP3    H224649   6.654   6.094   3.877 -0.5143 -0.9639 -0.3985
 8243TIP3   OH224650   6.966   4.352   3.950  0.0915 -0.2277 -0.0795
 8243TIP3    H124651   7.021   4.430   3.939  0.3843 -0.6696 -2.0693
 8243TIP3    H224652   7.008   4.303   4.020  2.0780 -0.3690 -1.3136
 8244TIP3   OH224653   5.426   4.589   5.620 -0.2294 -0.6772  0.7062
 8244TIP3    H124654   5.517   4.579   5.649 -0.4697 -2.1683  1.0300
 8244TIP3    H224655   5.375   4.582   5.700 -0.6439 -0.1812  0.4837
 8245TIP3   OH224656   6.810   4.219   1.357 -0.2619 -0.0443  0.2279
 8245TIP3    H124657   6.865   4.262   1.423 -0.6906  0.6427  0.1437
 8245TIP3    H224658   6.727   4.204   1.401 -0.1078 -0.8200  0.2631
 8246TIP3   OH224659   6.029   3.505   4.559  0.0999 -0.3706 -0.4538
 8246TIP3    H124660   6.005   3.445   4.630 -0.8555  0.0123 -0.4334
 8246TIP3    H224661   6.018   3.592   4.598  1.1932 -0.1792 -0.5696
 8247TIP3   OH224662   8.141   3.975   1.741  0.0388 -0.8222 -0.4818
 8247TIP3    H124663   8.159   3.882   1.732  0.4960 -0.9116  1.1355
 8247TIP3    H224664   8.219   4.011   1.783 -0.2629  0.2260 -0.7901
 8248TIP3   OH224665   4.294   2.764   1.904  0.0949 -0.2942 -0.3499
 8248TIP3    H124666   4.243   2.783   1.825  0.3585  0.6550 -0.2966
 8248TIP3    H224667   4.331   2.849   1.930  0.0904 -0.6169  0.7414
 8249TIP3   OH224668   6.158   3.547   5.134  0.1224 -0.0002  0.2228
 8249TIP3    H124669   6.169   3.618   5.197  0.8986 -0.8647  1.0830
 8249TIP3    H224670   6.204   3.473   5.173  0.2098 -0.6860 -1.1500
 8250TIP3   OH224671   7.524   6.807   3.571  0.3541 -0.0874  0.1815
 8250TIP3    H124672   7.441   6.768   3.546 -0.1289  0.7335  0.5023
 8250TIP3    H224673   7.540   6.775   3.660  0.2073  0.0363  0.2527
 8251TIP3   OH224674   6.501   3.606   4.096  0.2748  0.6482  0.6937
 8251TIP3    H124675   6.551   3.621   4.176  1.2991 -0.8151  0.3686
 8251TIP3    H224676   6.567   3.581   4.031 -0.7340 -0.0055 -0.1072
 8252TIP3   OH224677   3.554   4.393   3.214 -0.7699 -0.0165 -0.7088
 8252TIP3    H124678   3.619   4.457   3.245 -1.8132  0.5778  0.2901
 8252TIP3    H224679   3.570   4.315   3.268 -0.1513 -0.2663 -1.2447
 8253TIP3   OH224680   4.909   5.384   4.380 -0.5799  0.5504 -0.4392
 8253TIP3    H124681   4.815   5.402   4.384 -1.0562 -1.8356 -0.2567
 8253TIP3    H224682   4.919   5.324   4.306  1.1303  2.5993 -1.9007
 8254TIP3   OH224683   6.096   4.817   6.682  0.0587 -0.4508 -0.7946
 8254TIP3    H124684   6.064   4.907   6.678 -0.4303 -0.5071  1.1858
 8254TIP3    H224685   6.017   4.763   6.670  0.3498 -0.6230 -1.9704
 8255TIP3   OH224686   4.256   4.507   2.936 -0.4384 -0.5077 -0.3790
 8255TIP3    H124687   4.349   4.490   2.951 -0.2186 -0.0251 -1.1470
 8255TIP3    H224688   4.226   4.432   2.885 -0.6576 -1.0361  0.5073
 8256TIP3   OH224689   6.998   7.870   3.343  0.2679  0.0659 -1.0938
 8256TIP3    H124690   6.971   7.912   3.261  1.6447 -0.5491 -1.8914
 8256TIP3    H224691   6.964   7.781   3.338 -0.7650  0.4145 -0.3970
 8257TIP3   OH224692   6.178   3.991   3.353  0.1634 -0.6659  0.4010
 8257TIP3    H124693   6.192   4.070   3.301 -1.0821 -1.8475 -1.8015
 8257TIP3    H224694   6.106   4.014   3.412 -0.9429 -0.5196 -1.0009
 8258TIP3   OH224695   4.633   6.431   6.411 -0.2053  0.0502  0.2565
 8258TIP3    H124696   4.666   6.513   6.446  0.2445 -0.9723  2.2786
 8258TIP3    H224697   4.704   6.368   6.424 -1.0598 -0.9906 -0.0080
 8259TIP3   OH224698   6.060   4.701   2.410 -0.5372 -0.5459  0.3624
 8259TIP3    H124699   5.993   4.765   2.431 -0.6838 -1.2930  2.3453
 8259TIP3    H224700   6.012   4.628   2.369 -0.2049  1.0687 -3.0517
 8260TIP3   OH224701   4.382   5.441   4.218 -0.3610 -0.2541  0.0098
 8260TIP3    H124702   4.371   5.382   4.143 -2.6939  1.5103 -1.1168
 8260TIP3    H224703   4.317   5.412   4.281 -0.6108  0.2574 -0.0043
 8261TIP3   OH224704   7.724   3.907   3.298 -0.0361  0.1477  0.7050
 8261TIP3    H124705   7.744   3.997   3.272  0.0670  0.0714  0.5182
 8261TIP3    H224706   7.761   3.898   3.386  1.0367 -0.0892  0.2407
 8262TIP3   OH224707   8.645   5.926   5.035 -0.3722  0.0653  0.3322
 8262TIP3    H124708   8.562   5.910   5.080 -0.8474  0.4386 -0.4082
 8262TIP3    H224709   8.650   5.856   4.970  0.4666 -0.6644  1.1607
 8263TIP3   OH224710   4.044   4.622   4.977 -0.1411  0.3980 -0.6079
 8263TIP3    H124711   4.122   4.580   4.941  0.7514  1.6494 -0.1842
 8263TIP3    H224712   4.000   4.554   5.027  0.2845 -0.5156 -1.4783
 8264TIP3   OH224713   6.237   5.479   3.923  0.1453  0.4885 -0.7461
 8264TIP3    H124714   6.174   5.506   3.856 -0.2223 -0.3954 -0.7718
 8264TIP3    H224715   6.322   5.504   3.888 -0.0948  0.5577 -1.2839
 8265TIP3   OH224716   5.972   3.991   4.671 -0.3630  0.9194  0.0536
 8265TIP3    H124717   5.917   3.921   4.636  1.9178 -2.2175  2.4517
 8265TIP3    H224718   5.957   3.988   4.766 -0.9149  4.3436  0.1322
 8266TIP3   OH224719   6.408   2.203   3.367  0.2291 -0.3047 -0.1767
 8266TIP3    H124720   6.480   2.141   3.379  0.2040 -0.3662 -0.3388
 8266TIP3    H224721   6.332   2.148   3.351  0.1476 -0.2393 -0.0194
 8267TIP3   OH224722   7.140   4.133   3.787 -0.4656 -0.0460 -0.0771
 8267TIP3    H124723   7.060   4.112   3.740 -0.5722 -1.0982  0.5744
 8267TIP3    H224724   7.156   4.058   3.844  0.9763  0.1507 -0.1922
 8268TIP3   OH224725   7.556   2.771   0.787 -0.4948 -0.3326 -0.0359
 8268TIP3    H124726   7.625   2.765   0.721 -0.4227 -1.4175  0.1383
 8268TIP3    H224727   7.479   2.801   0.738 -0.5509 -1.5092 -0.6933
 8269TIP3   OH224728   7.020   5.576   4.195 -0.4195  0.2154 -0.1305
 8269TIP3    H124729   7.081   5.585   4.123  0.6688 -1.3017  0.5732
 8269TIP3    H224730   6.964   5.653   4.190  0.3005  0.6206 -1.9626
 8270TIP3   OH224731   5.110   6.330   2.544 -0.0245 -0.6759 -0.4251
 8270TIP3    H124732   5.100   6.385   2.466  1.9615 -1.2779 -1.1329
 8270TIP3    H224733   5.149   6.388   2.609  0.7425 -0.8706 -0.7129
 8271TIP3   OH224734   6.930   4.798   3.646  0.2569  0.5786 -0.7894
 8271TIP3    H124735   6.910   4.891   3.641  1.0190  0.8070  0.2377
 8271TIP3    H224736   7.011   4.793   3.696  0.9378 -0.5532 -1.9553
 8272TIP3   OH224737   7.326   5.111   4.651  0.1227  0.3456  0.1377
 8272TIP3    H124738   7.284   5.156   4.577 -1.1679  1.3997  1.4968
 8272TIP3    H224739   7.348   5.180   4.712 -1.6096 -0.7813  2.1286
 8273TIP3   OH224740   6.413   3.462   3.715 -0.0824 -0.1013 -0.1008
 8273TIP3    H124741   6.407   3.388   3.776  2.8085 -1.3979 -1.2757
 8273TIP3    H224742   6.349   3.525   3.747 -2.6673 -3.1425  0.9017
 8274TIP3   OH224743   6.922   5.365   4.319  0.1497  0.2434 -0.8398
 8274TIP3    H124744   6.876   5.313   4.252  0.7952  0.9154 -1.8202
 8274TIP3    H224745   6.934   5.451   4.278 -0.0810  0.8780  0.4197
 8275TIP3   OH224746   5.995   7.396   5.368 -0.6906 -0.1645  0.3601
 8275TIP3    H124747   6.041   7.318   5.401 -0.4885 -0.3296 -0.2959
 8275TIP3    H224748   5.955   7.435   5.446  0.8097  0.1440  0.9944
 8276TIP3   OH224749   6.481   3.207   5.314  0.0643  0.5040  0.1830
 8276TIP3    H124750   6.516   3.173   5.397 -0.5416  0.8862  0.6030
 8276TIP3    H224751   6.423   3.138   5.283 -1.9312  1.5288  1.5346
 8277TIP3   OH224752   8.627   5.955   3.941 -0.0453  0.1239  0.4480
 8277TIP3    H124753   8.651   6.036   3.987 -1.4290  0.2148  1.0298
 8277TIP3    H224754   8.589   5.899   4.010 -1.6233  0.0453 -0.4673
 8278TIP3   OH224755   7.175   3.346   3.456  0.0337  0.5241  0.1729
 8278TIP3    H124756   7.169   3.388   3.371 -1.6743  1.5433  0.7665
 8278TIP3    H224757   7.146   3.413   3.518  2.0113  0.0555  1.6437
 8279TIP3   OH224758   4.989   4.906   2.688  0.2327 -0.0807 -0.4810
 8279TIP3    H124759   4.950   4.829   2.646  0.7779 -0.9877  0.6632
 8279TIP3    H224760   4.917   4.948   2.735 -0.3772  0.9230 -2.2502
 8280TIP3   OH224761   3.232   3.903   4.297 -0.1321  0.3703  0.3186
 8280TIP3    H124762   3.174   3.842   4.342  0.6871 -0.8053 -0.1801
 8280TIP3    H224763   3.301   3.922   4.360  0.2296 -0.1252  0.0740
 8281TIP3   OH224764   4.247   3.138   1.361  0.2281 -0.1888  0.4510
 8281TIP3    H124765   4.295   3.132   1.444  1.5667  1.7040 -0.1557
 8281TIP3    H224766   4.308   3.179   1.300 -1.0393 -0.7534 -1.2504
 8282TIP3   OH224767   5.072   3.380   3.493 -0.0260 -0.5402  0.6178
 8282TIP3    H124768   5.138   3.323   3.532  0.8528 -0.2371 -0.4272
 8282TIP3    H224769   5.023   3.323   3.434  0.6762 -0.2688 -0.2212
 8283TIP3   OH224770   6.384   6.735   3.050 -0.3601 -0.3897  0.1916
 8283TIP3    H124771   6.291   6.729   3.028 -0.4626 -2.6886  1.1309
 8283TIP3    H224772   6.397   6.668   3.117  0.8397  3.5353  4.0965
 8284TIP3   OH224773   6.709   4.710   5.332  0.1793  0.2101 -0.3251
 8284TIP3    H124774   6.772   4.694   5.261  0.4103 -1.4260  0.2358
 8284TIP3    H224775   6.624   4.701   5.289  0.3220 -0.0415 -0.5658
 8285TIP3   OH224776   6.185   6.591   4.425  0.0248  0.0920  0.1723
 8285TIP3    H124777   6.130   6.615   4.350 -0.2056  1.5624  0.7866
 8285TIP3    H224778   6.190   6.671   4.478  1.7154 -0.3833  0.7828
 8286TIP3   OH224779   8.077   5.042   1.190 -0.1164 -0.3674 -0.1071
 8286TIP3    H124780   8.051   5.101   1.119 -0.0795  0.8927  0.9141
 8286TIP3    H224781   8.030   5.074   1.266 -0.6610 -2.1212  0.3076
 8287TIP3   OH224782   0.211   8.202   2.097  0.1925  0.2453  0.2593
 8287TIP3    H124783   0.139   8.247   2.053 -0.5272  0.5679  1.7187
 8287TIP3    H224784   0.284   8.204   2.035 -0.2435  2.2838 -0.1948
 8288TIP3   OH224785   3.433   4.709   5.206 -0.4031  0.4681  0.2100
 8288TIP3    H124786   3.475   4.746   5.128  1.5308 -3.0265 -0.5379
 8288TIP3    H224787   3.355   4.666   5.173 -0.6324  0.6658  0.4928
 8289TIP3   OH224788   8.065   6.069   3.843 -0.0861 -0.3341 -0.0950
 8289TIP3    H124789   8.132   6.112   3.790 -0.1311  0.5062  0.5261
 8289TIP3    H224790   7.986   6.072   3.790 -0.4406  1.6249  0.5278
 8290TIP3   OH224791   7.802   5.738   2.905  0.2113 -0.1479  0.6122
 8290TIP3    H124792   7.741   5.734   2.831  0.1969 -2.2543  0.7127
 8290TIP3    H224793   7.845   5.823   2.896  1.8160 -1.2593 -3.1305
 8291TIP3   OH224794   1.314   4.090   3.038  0.2836  0.8867  0.0754
 8291TIP3    H124795   1.281   4.179   3.046 -2.5163  0.2250 -2.8994
 8291TIP3    H224796   1.400   4.099   2.997 -0.0455  2.2284 -0.3403
 8292TIP3   OH224797   7.165   6.605   5.592 -0.0335 -0.4171  0.2057
 8292TIP3    H124798   7.186   6.698   5.593  0.9160 -0.6171  0.6049
 8292TIP3    H224799   7.072   6.601   5.571  0.0629  0.5888 -0.4608
 8293TIP3   OH224800   7.498   5.817   3.966  0.6202  0.2076 -0.4138
 8293TIP3    H124801   7.434   5.886   3.950 -0.4158 -0.7557 -0.4729
 8293TIP3    H224802   7.517   5.780   3.880 -1.3236 -1.7649 -0.0307
 8294TIP3   OH224803   6.654   3.270   1.881 -0.2085 -0.7064  0.5391
 8294TIP3    H124804   6.639   3.270   1.786  0.1168 -1.0488  0.4873
 8294TIP3    H224805   6.716   3.198   1.895 -1.0929 -1.3542  1.1392
 8295TIP3   OH224806   7.474   4.870   2.281  0.0055 -0.3448 -0.4741
 8295TIP3    H124807   7.528   4.910   2.213  0.3279 -0.8021 -0.4869
 8295TIP3    H224808   7.388   4.912   2.271 -0.4965 -1.7246 -2.3795
 8296TIP3   OH224809   6.802   5.230   3.674  0.1272  0.3668  0.2333
 8296TIP3    H124810   6.872   5.281   3.633 -0.2006  0.8324  0.2404
 8296TIP3    H224811   6.806   5.253   3.767 -0.5113  0.9811  0.1180
 8297TIP3   OH224812   7.845   7.821   4.144  0.2274 -0.2201  0.2358
 8297TIP3    H124813   7.858   7.848   4.235  0.6047 -1.0363  0.4277
 8297TIP3    H224814   7.754   7.791   4.142 -0.6028  2.2556 -0.2901
 8298TIP3   OH224815   5.199   3.354   3.793  0.0043  0.5479  0.1071
 8298TIP3    H124816   5.246   3.273   3.815  0.7078  1.1484  0.8260
 8298TIP3    H224817   5.255   3.424   3.825 -1.0308  1.2993  0.2861
 8299TIP3   OH224818   6.743   5.109   4.795 -0.0455 -0.1477 -0.0283
 8299TIP3    H124819   6.678   5.041   4.776 -0.2906 -0.0373  0.4103
 8299TIP3    H224820   6.694   5.191   4.794 -0.1868 -0.1853  1.6242
 8300TIP3   OH224821   6.517   3.761   3.787  0.0268 -0.2005  0.2064
 8300TIP3    H124822   6.478   3.830   3.841  0.7320  1.4107 -1.2728
 8300TIP3    H224823   6.442   3.717   3.747 -0.3927  1.2389 -0.6477
 8301TIP3   OH224824   5.643   4.525   6.821 -0.1348 -0.6235  0.0714
 8301TIP3    H124825   5.593   4.605   6.839 -0.6667 -0.7961 -0.6024
 8301TIP3    H224826   5.641   4.517   6.725  0.3842 -1.1453  0.1015
 8302TIP3   OH224827   6.273   5.134   4.216  0.1488  0.1155  0.2868
 8302TIP3    H124828   6.249   5.222   4.188  1.4343 -0.3309 -2.4479
 8302TIP3    H224829   6.205   5.078   4.179  0.7031 -0.2762 -0.1479
 8303TIP3   OH224830   6.544   6.331   3.057 -0.0046 -0.3516 -0.3068
 8303TIP3    H124831   6.475   6.366   3.000 -0.1157  0.8170  0.5171
 8303TIP3    H224832   6.589   6.266   3.004 -1.4705 -0.8113 -1.0003
 8304TIP3   OH224833   5.930   3.692   1.715  0.0363  0.3625  0.3515
 8304TIP3    H124834   5.863   3.679   1.782  0.7527  3.3364  1.7322
 8304TIP3    H224835   5.905   3.773   1.670  1.2433  0.0631 -0.9046
 8305TIP3   OH224836   5.973   2.866   1.575  0.1634  0.2570  0.4688
 8305TIP3    H124837   5.950   2.801   1.509  0.7291  0.7672 -0.2397
 8305TIP3    H224838   5.899   2.866   1.636 -0.6072  0.1582 -0.4543
 8306TIP3   OH224839   5.181   4.961   4.089 -0.0624  0.0901 -0.4548
 8306TIP3    H124840   5.236   4.882   4.089 -0.9654 -0.5481 -0.1139
 8306TIP3    H224841   5.183   4.991   4.180  0.1423  0.3645 -0.5504
 8307TIP3   OH224842   4.106   3.802   5.049  0.5632 -0.0046 -0.3420
 8307TIP3    H124843   4.064   3.887   5.059  1.7662  0.5346  0.1885
 8307TIP3    H224844   4.116   3.790   4.955  1.9830  1.2367 -0.3633
 8308TIP3   OH224845   5.081   6.475   3.487 -1.0321  0.4001  0.0118
 8308TIP3    H124846   5.069   6.442   3.576  0.0962  0.4927  0.2008
 8308TIP3    H224847   5.128   6.558   3.497 -0.3593  0.1189 -0.6869
 8309TIP3   OH224848   5.385   5.211   3.879  0.0098 -0.3018 -0.0452
 8309TIP3    H124849   5.468   5.171   3.855 -0.1148  0.8606 -2.5344
 8309TIP3    H224850   5.401   5.305   3.875 -0.5910 -0.0625  2.5519
 8310TIP3   OH224851   5.702   5.343   4.027  0.2771 -0.5654 -0.0451
 8310TIP3    H124852   5.654   5.419   4.062 -0.1181 -0.0414 -1.6808
 8310TIP3    H224853   5.740   5.301   4.104 -0.0986  0.8900  0.9499
 8311TIP3   OH224854   8.107   1.920   1.757 -0.2669  0.2415 -0.4825
 8311TIP3    H124855   8.089   1.865   1.681  2.3123  2.2166 -2.6070
 8311TIP3    H224856   8.124   1.859   1.828 -1.7286 -1.6364 -1.7022
 8312TIP3   OH224857   4.177   5.105   1.208 -0.2581 -0.6369  0.3828
 8312TIP3    H124858   4.136   5.146   1.284  0.9050 -0.9618  1.2002
 8312TIP3    H224859   4.119   5.125   1.135 -0.7201  0.7858  1.1297
 8313TIP3   OH224860   5.913   5.270   3.768 -0.0042 -0.3388  0.9989
 8313TIP3    H124861   5.978   5.203   3.748 -0.6936 -0.6670 -0.2313
 8313TIP3    H224862   5.963   5.350   3.782  0.6464 -0.5450 -0.1273
 8314TIP3   OH224863   3.385   6.680   4.630 -0.0918 -0.1841  0.7709
 8314TIP3    H124864   3.418   6.599   4.591  1.3145  0.7301 -0.0013
 8314TIP3    H224865   3.445   6.698   4.702  0.5053  0.9550 -0.0018
 8315TIP3   OH224866   5.183   8.073   2.693  1.0323 -0.1294 -0.0879
 8315TIP3    H124867   5.156   8.018   2.620 -1.9611  0.0223  0.8365
 8315TIP3    H224868   5.200   8.012   2.764 -2.9248  0.0496  1.1355
 8316TIP3   OH224869   7.782   6.326   3.300 -0.2011  0.0779 -0.1430
 8316TIP3    H124870   7.722   6.377   3.353 -0.6841 -0.5531 -0.0750
 8316TIP3    H224871   7.731   6.301   3.223 -0.1735 -0.8418  0.1299
 8317TIP3   OH224872   5.048   4.720   3.304  0.2200  0.2601  0.2715
 8317TIP3    H124873   5.126   4.709   3.358 -0.0954  0.4746  0.7794
 8317TIP3    H224874   4.980   4.668   3.348 -0.1705  0.8416  0.3702
 8318TIP3   OH224875   6.429   2.174   4.675  0.3816 -0.5834 -0.1251
 8318TIP3    H124876   6.472   2.096   4.709  1.2588  0.0026  0.1231
 8318TIP3    H224877   6.439   2.240   4.744 -0.2584 -0.2221 -0.3740
 8319TIP3   OH224878   7.786   3.139   4.150  0.1768  0.5571  0.5709
 8319TIP3    H124879   7.845   3.075   4.190  0.3410  1.1916  1.3456
 8319TIP3    H224880   7.707   3.136   4.204 -0.3761 -0.0344 -0.2566
 8320TIP3   OH224881   8.559   4.917   4.495 -0.5397  0.3181  0.0982
 8320TIP3    H124882   8.474   4.958   4.480  0.5050  2.2331 -0.6925
 8320TIP3    H224883   8.602   4.973   4.559 -0.1101 -1.0180  1.0186
 8321TIP3   OH224884   5.906   3.434   5.075 -0.1939 -0.4514 -0.1803
 8321TIP3    H124885   5.998   3.460   5.084 -0.0607 -0.7520 -0.6625
 8321TIP3    H224886   5.894   3.366   5.141 -0.2065 -0.0532  0.2289
 8322TIP3   OH224887   5.489   1.041   5.747 -0.4315  0.0500  0.1018
 8322TIP3    H124888   5.429   1.021   5.819  1.9664 -0.5884  1.9985
 8322TIP3    H224889   5.459   0.985   5.676 -1.1765 -1.4046  1.5073
 8323TIP3   OH224890   5.218   2.943   3.712  0.8905 -0.0556 -0.5031
 8323TIP3    H124891   5.134   2.937   3.667  1.4471 -1.0585 -1.4373
 8323TIP3    H224892   5.195   2.949   3.805 -0.1995 -2.0313 -0.6066
 8324TIP3   OH224893   0.240   1.052   2.046  0.2952 -0.2808 -0.0307
 8324TIP3    H124894   0.270   0.975   2.094  1.9910 -0.5409 -1.4547
 8324TIP3    H224895   0.308   1.117   2.060 -1.0315  0.9270  0.9987
 8325TIP3   OH224896   5.381   6.258   1.405  0.1042 -0.2843  0.4056
 8325TIP3    H124897   5.433   6.180   1.384 -0.5708 -0.8207  0.7173
 8325TIP3    H224898   5.432   6.330   1.369  0.6828 -0.8771  0.0123
 8326TIP3   OH224899   5.589   5.050   3.156  0.6559  0.3320 -0.2628
 8326TIP3    H124900   5.518   5.077   3.097  0.3094  1.0349  0.4702
 8326TIP3    H224901   5.626   5.132   3.188 -2.0382  0.0589  3.9680
 8327TIP3   OH224902   6.296   4.979   2.483 -0.1346  0.3664 -0.0627
 8327TIP3    H124903   6.266   4.992   2.393 -0.4179 -3.7909 -0.6700
 8327TIP3    H224904   6.219   4.947   2.530  0.3175  1.3547  1.3934
 8328TIP3   OH224905   4.860   3.763   4.139 -0.1613  0.6261 -0.0841
 8328TIP3    H124906   4.950   3.786   4.159  0.0969  0.5408 -1.1415
 8328TIP3    H224907   4.816   3.847   4.124 -0.1293  0.6389 -0.1074
 8329TIP3   OH224908   4.906   4.685   1.648 -0.3603  0.2491 -0.0431
 8329TIP3    H124909   4.950   4.636   1.718  1.1085  0.1087 -1.0564
 8329TIP3    H224910   4.908   4.776   1.678  0.5655  0.2347 -0.0548
 8330TIP3   OH224911   6.756   4.268   1.959  0.2260 -0.0105 -0.0955
 8330TIP3    H124912   6.794   4.182   1.977  1.4536  0.0837 -2.0660
 8330TIP3    H224913   6.666   4.249   1.930  0.1594 -0.5403  0.4495
 8331TIP3   OH224914   6.700   6.226   5.007 -0.1392 -0.2009 -0.0595
 8331TIP3    H124915   6.681   6.316   5.034  0.2460 -0.3139  0.6022
 8331TIP3    H224916   6.714   6.179   5.089  1.7684 -0.3881 -0.4757
 8332TIP3   OH224917   7.138   2.929   5.184 -0.3030  0.0999  0.3085
 8332TIP3    H124918   7.139   3.018   5.149  0.3182  0.0351  0.1554
 8332TIP3    H224919   7.169   2.938   5.274  0.0236  0.0050  0.2066
 8333TIP3   OH224920   7.704   2.743   2.746  0.3645 -0.1395 -0.6832
 8333TIP3    H124921   7.735   2.705   2.828 -0.4545  2.0649  0.6947
 8333TIP3    H224922   7.773   2.805   2.721 -0.1036  0.3207 -0.8396
 8334TIP3   OH224923   6.900   6.666   5.525  0.0165  0.3489  0.1938
 8334TIP3    H124924   6.831   6.730   5.538 -1.0520 -0.8594  0.5603
 8334TIP3    H224925   6.910   6.661   5.430 -0.1539  0.7886  0.1543
 8335TIP3   OH224926   1.252   8.373   6.380  0.2882 -0.1155 -0.2084
 8335TIP3    H124927   1.239   8.347   6.471  1.1981  0.2827  0.0363
 8335TIP3    H224928   1.269   8.291   6.333  2.0149 -0.0831  0.3599
 8336TIP3   OH224929   8.150   5.567   2.983  0.0566  0.3332  0.0914
 8336TIP3    H124930   8.126   5.605   3.068 -0.5825 -3.6449  1.8378
 8336TIP3    H224931   8.244   5.548   2.992 -0.2494 -1.1056  0.3766
 8337TIP3   OH224932   7.537   5.477   4.400  0.6052  0.4885  0.3379
 8337TIP3    H124933   7.630   5.498   4.407  0.0691  3.4954 -0.9045
 8337TIP3    H224934   7.496   5.523   4.472  0.0504 -0.8675  0.9083
 8338TIP3   OH224935   7.360   4.092   4.110 -0.1007 -0.2630  0.5363
 8338TIP3    H124936   7.378   3.999   4.098  1.9108  0.0045  1.3471
 8338TIP3    H224937   7.431   4.137   4.065 -0.0093  0.8612  1.7724
 8339TIP3   OH224938   0.594   7.673   3.659  0.4774 -0.4085 -0.1531
 8339TIP3    H124939   0.609   7.621   3.580 -0.2059 -1.3883  0.3477
 8339TIP3    H224940   0.623   7.761   3.636  1.3862 -0.9448 -1.1166
 8340TIP3   OH224941   5.204   6.151   4.386 -0.1602  0.7823  0.1999
 8340TIP3    H124942   5.141   6.101   4.438  0.3742  1.4998  1.5487
 8340TIP3    H224943   5.272   6.087   4.363 -0.5058  0.4151  0.1756
 8341TIP3   OH224944   0.238   4.849   3.902  0.8141  0.3071 -0.5450
 8341TIP3    H124945   0.148   4.879   3.896  1.2284  1.7322  0.1434
 8341TIP3    H224946   0.281   4.884   3.825  0.9636  0.2834 -0.4739
 8342TIP3   OH224947   7.201   5.909   4.316  0.0334 -0.1156 -0.2063
 8342TIP3    H124948   7.195   5.826   4.363  1.6449 -1.1139 -1.7030
 8342TIP3    H224949   7.163   5.890   4.230  0.3977  0.7138 -0.5535
 8343TIP3   OH224950   6.576   5.543   3.797 -0.1075 -0.6283 -0.4869
 8343TIP3    H124951   6.656   5.532   3.849 -0.3576 -1.9678 -0.3820
 8343TIP3    H224952   6.562   5.638   3.796  0.2019 -0.5454  1.4230
 8344TIP3   OH224953   1.497   0.289   5.484  0.5109 -0.0080 -0.4112
 8344TIP3    H124954   1.564   0.287   5.416  1.1783 -0.3834  0.2581
 8344TIP3    H224955   1.520   0.363   5.539  0.3769 -0.1396 -0.1768
 8345TIP3   OH224956   0.586   3.602   4.480  0.1610 -0.4190 -0.2918
 8345TIP3    H124957   0.585   3.587   4.575  0.9017 -0.0387 -0.2192
 8345TIP3    H224958   0.610   3.516   4.443 -0.5778 -0.6827 -0.1647
 8346TIP3   OH224959   7.250   5.746   5.089 -0.2519  0.2755  0.1659
 8346TIP3    H124960   7.210   5.820   5.043 -0.4621 -0.2854 -0.5693
 8346TIP3    H224961   7.184   5.720   5.154  0.3415  1.5193  1.2628
 8347TIP3   OH224962   7.234   6.551   4.462  0.4580  0.0436  0.2173
 8347TIP3    H124963   7.156   6.532   4.514  0.8683 -1.5324  0.3133
 8347TIP3    H224964   7.203   6.601   4.387 -0.7375 -1.0080 -0.0124
 8348TIP3   OH224965   6.833   4.951   2.949 -0.4885  0.2870 -0.1333
 8348TIP3    H124966   6.897   5.006   2.993  0.1327  0.8757 -1.7389
 8348TIP3    H224967   6.790   4.903   3.020  0.5809  1.0979  1.0898
 8349TIP3   OH224968   6.822   4.262   3.141 -0.4436 -0.0726 -0.0673
 8349TIP3    H124969   6.916   4.250   3.132 -0.3623 -0.4901  1.3018
 8349TIP3    H224970   6.784   4.215   3.067  0.5755  3.0661 -2.7251
 8350TIP3   OH224971   8.067   3.330   2.324  0.0773 -0.4718  0.6982
 8350TIP3    H124972   8.099   3.308   2.237 -1.4703  3.7687 -1.0891
 8350TIP3    H224973   7.981   3.289   2.329  0.2134 -0.8096  0.2699
 8351TIP3   OH224974   1.523   3.533   3.139  0.6692 -0.4920  0.5593
 8351TIP3    H124975   1.458   3.553   3.207 -0.1588  0.7878 -0.5616
 8351TIP3    H224976   1.504   3.443   3.113 -1.1290  0.0758 -0.2167
 8352TIP3   OH224977   7.332   5.123   3.839  0.9731  0.5171 -0.1372
 8352TIP3    H124978   7.401   5.164   3.787  1.1244 -0.6494 -0.8642
 8352TIP3    H224979   7.259   5.112   3.778  0.6838  0.3382  0.2327
 8353TIP3   OH224980   7.388   5.664   2.408  0.4038 -0.2109 -0.3359
 8353TIP3    H124981   7.447   5.676   2.334  2.3165 -1.7640  0.9026
 8353TIP3    H224982   7.414   5.581   2.447 -2.9990 -1.2393 -0.0986
 8354TIP3   OH224983   7.809   5.590   4.406  0.2492  0.0992 -0.2648
 8354TIP3    H124984   7.818   5.676   4.447  0.5415  0.1837 -0.5070
 8354TIP3    H224985   7.892   5.546   4.425 -0.5595 -0.7797  1.3723
 8355TIP3   OH224986   0.498   2.499   5.464  0.7569  0.9566  0.1553
 8355TIP3    H124987   0.414   2.531   5.430  0.0093 -0.2550  0.8479
 8355TIP3    H224988   0.564   2.548   5.415 -0.3378  0.9157 -1.3740
 8356TIP3   OH224989   8.562   1.827   2.566 -0.0072 -0.0151  0.0570
 8356TIP3    H124990   8.480   1.873   2.550 -0.9997 -1.8206 -0.1556
 8356TIP3    H224991   8.573   1.828   2.661 -1.2775 -1.4481  0.2294
 8357TIP3   OH224992   7.374   6.518   5.050  0.5227 -0.1698  0.1619
 8357TIP3    H124993   7.409   6.582   5.112 -0.5804 -0.3373  0.9885
 8357TIP3    H224994   7.445   6.455   5.036  1.8769  1.6367 -1.2452
 8358TIP3   OH224995   7.569   7.344   2.815 -0.0934 -0.1688 -0.0138
 8358TIP3    H124996   7.610   7.425   2.785 -2.5072  1.2029  0.1900
 8358TIP3    H224997   7.541   7.363   2.905 -1.8762 -0.7281 -0.4202
 8359TIP3   OH224998   8.027   6.472   4.391 -0.3229 -0.3746  0.0984
 8359TIP3    H124999   8.009   6.564   4.375 -0.9827 -0.7953 -1.6361
 8359TIP3    H225000   7.961   6.446   4.456  0.1865  0.4820  0.9735
 8360TIP3   OH225001   8.401   3.755   6.223  0.2530  0.1492  0.2230
 8360TIP3    H125002   8.376   3.812   6.296 -0.1261 -1.0516  1.0362
 8360TIP3    H225003   8.494   3.736   6.238  0.8455  1.8968 -0.9777
 8361TIP3   OH225004   5.344   6.436   5.160 -0.3279 -0.6003 -0.1287
 8361TIP3    H125005   5.378   6.348   5.173  1.6719  0.4536  2.2592
 8361TIP3    H225006   5.331   6.470   5.249  1.5294  2.4361 -0.9322
 8362TIP3   OH225007   6.918   6.433   4.340 -0.0903  0.1754 -0.0288
 8362TIP3    H125008   6.855   6.423   4.412 -1.2655  1.9929 -0.7561
 8362TIP3    H225009   6.961   6.348   4.333 -1.8506 -0.8355  1.0712
 8363TIP3   OH225010   7.796   6.075   4.490 -0.1577  0.0362  0.1582
 8363TIP3    H125011   7.845   5.996   4.469 -0.9869 -0.7690  1.2246
 8363TIP3    H225012   7.814   6.091   4.583  1.9754  2.5001 -0.6213
 8364TIP3   OH225013   6.033   5.875   5.109  0.1740  0.2528  0.3140
 8364TIP3    H125014   5.988   5.908   5.031 -1.2849 -1.4271  0.4191
 8364TIP3    H225015   5.974   5.897   5.182  0.3207 -0.4535  0.6469
 8365TIP3   OH225016   8.214   6.529   5.021 -0.1922  0.2810  0.0061
 8365TIP3    H125017   8.252   6.537   5.108  0.0417 -0.2110 -0.0453
 8365TIP3    H225018   8.276   6.574   4.964 -0.5182  0.8950  0.1422
 8366TIP3   OH225019   7.372   3.291   1.433  0.0780  0.3008  0.1387
 8366TIP3    H125020   7.280   3.316   1.430  0.3850  1.3595 -0.8116
 8366TIP3    H225021   7.413   3.357   1.488  0.2500 -0.2326  0.6468
 8367TIP3   OH225022   0.818   6.898   3.771 -0.2405  0.2750  0.3110
 8367TIP3    H125023   0.756   6.927   3.703  1.5488  0.3289 -1.3356
 8367TIP3    H225024   0.840   6.808   3.746  0.6285  0.3856  0.6813
 8368TIP3   OH225025   2.532   0.274   5.366 -0.4393 -0.1559  0.5236
 8368TIP3    H125026   2.485   0.291   5.447 -0.5116 -0.3975  0.5323
 8368TIP3    H225027   2.619   0.313   5.380 -0.2978 -0.6042  0.8887
 8369TIP3   OH225028   7.430   4.844   3.879  0.2436 -0.6611 -0.2094
 8369TIP3    H125029   7.503   4.801   3.835  0.6592 -0.5572  0.3650
 8369TIP3    H225030   7.448   4.938   3.867 -0.7477 -0.6355 -1.6066
 8370TIP3   OH225031   0.444   6.843   5.544  0.3958 -0.2970 -0.3955
 8370TIP3    H125032   0.366   6.884   5.582  0.0855 -0.6984 -0.5910
 8370TIP3    H225033   0.507   6.914   5.536  0.0310  0.0439 -0.2821
 8371TIP3   OH225034   7.036   2.679   3.792  0.3756 -0.2310  0.0035
 8371TIP3    H125035   6.946   2.709   3.796  0.4129 -0.2810  1.8586
 8371TIP3    H225036   7.052   2.659   3.700 -1.3846  0.1152 -0.3780
 8372TIP3   OH225037   1.562   6.577   4.545  0.1923 -0.0185 -0.2315
 8372TIP3    H125038   1.469   6.580   4.567  0.6450  0.5021  1.7482
 8372TIP3    H225039   1.604   6.548   4.626  1.6276 -1.5983 -1.5123
 8373TIP3   OH225040   6.780   6.702   3.916  0.1045  0.3239  0.2662
 8373TIP3    H125041   6.867   6.703   3.876 -0.0543  0.3685 -0.0762
 8373TIP3    H225042   6.765   6.609   3.936  0.3385  0.3489  0.5631
 8374TIP3   OH225043   7.936   5.388   2.315  0.5262 -0.2925 -0.0611
 8374TIP3    H125044   7.884   5.314   2.281  0.3826 -0.0157 -0.4566
 8374TIP3    H225045   7.903   5.401   2.404 -1.0306  0.7353 -0.7726
 8375TIP3   OH225046   5.930   5.387   4.720 -0.1685  0.2801  0.0280
 8375TIP3    H125047   6.010   5.420   4.761  0.0336  0.6290 -0.6382
 8375TIP3    H225048   5.952   5.379   4.627 -1.1409  1.1213 -0.2860
 8376TIP3   OH225049   7.671   7.637   3.384 -0.7461 -0.2776  0.5265
 8376TIP3    H125050   7.668   7.708   3.320 -0.4665 -0.1978  0.5991
 8376TIP3    H225051   7.765   7.621   3.397 -0.7930  0.3486  1.6282
 8377TIP3   OH225052   6.636   6.405   4.735  0.3775 -0.3790 -0.5565
 8377TIP3    H125053   6.617   6.403   4.641  0.3777  0.1502 -0.5726
 8377TIP3    H225054   6.720   6.452   4.741 -0.2326  0.6867 -0.2077
 8378TIP3   OH225055   8.445   1.867   2.840  0.2231  0.2144  0.3132
 8378TIP3    H125056   8.371   1.863   2.781  1.0801 -1.7637 -0.6667
 8378TIP3    H225057   8.478   1.957   2.831 -1.2734  0.7180 -0.1868
 8379TIP3   OH225058   6.871   6.284   3.645 -0.1080  1.0622 -0.4160
 8379TIP3    H125059   6.937   6.323   3.588  1.1839 -1.9098 -1.0753
 8379TIP3    H225060   6.920   6.220   3.697 -1.9905  0.8515  1.1253
 8380TIP3   OH225061   7.406   4.443   1.792  0.0616 -0.2629 -0.2317
 8380TIP3    H125062   7.425   4.360   1.836  3.0265 -1.2310 -3.1358
 8380TIP3    H225063   7.313   4.437   1.768 -0.5341 -1.4212  2.2052
 8381TIP3   OH225064   6.572   5.374   5.614 -0.1464  0.5402 -0.2493
 8381TIP3    H125065   6.538   5.309   5.676 -2.1347 -0.3403 -2.1966
 8381TIP3    H225066   6.624   5.322   5.552  0.2705  1.1568 -0.4206
 8382TIP3   OH225067   5.002   7.526   3.863 -0.4076 -0.2899 -0.1696
 8382TIP3    H125068   5.056   7.471   3.805  2.0983  2.2045 -0.3101
 8382TIP3    H225069   4.927   7.550   3.809  0.1276 -0.8837 -1.2128
 8383TIP3   OH225070   3.446   0.474   2.761  0.1806 -0.0654  0.0237
 8383TIP3    H125071   3.372   0.426   2.724 -0.1068 -1.6089  2.4892
 8383TIP3    H225072   3.408   0.554   2.796 -0.0076  0.0260 -0.3866
 8384TIP3   OH225073   8.383   7.470   3.370 -0.1205 -0.3998  0.1746
 8384TIP3    H125074   8.451   7.430   3.424 -1.4814 -1.3918  1.1779
 8384TIP3    H225075   8.381   7.416   3.290  0.4704 -0.1780  0.0071
 8385TIP3   OH225076   0.158   6.865   2.559  0.8123 -0.1148  0.7068
 8385TIP3    H125077   0.127   6.829   2.476  0.9049 -0.7505  0.9437
 8385TIP3    H225078   0.248   6.833   2.567  0.4619 -0.9151  1.5411
 8386TIP3   OH225079   6.728   5.576   2.557  0.0626  0.2369 -0.2931
 8386TIP3    H125080   6.661   5.595   2.492 -0.5673  0.1402  0.3230
 8386TIP3    H225081   6.782   5.508   2.518 -1.5591 -1.3154  0.1281
 8387TIP3   OH225082   8.864   4.554   2.025  0.4217  0.3427  0.2969
 8387TIP3    H125083   8.869   4.459   2.036  2.8157  0.2799 -0.9829
 8387TIP3    H225084   8.912   4.589   2.100 -1.9358  0.6427  1.7217
 8388TIP3   OH225085   4.954   4.855   1.089  0.2371 -0.0317 -0.1955
 8388TIP3    H125086   4.894   4.928   1.071  1.2063  0.3979 -1.8492
 8388TIP3    H225087   4.909   4.778   1.054 -0.1621  0.0030  0.2441
 8389TIP3   OH225088   7.823   6.195   6.705  0.1819  0.1931  0.6114
 8389TIP3    H125089   7.917   6.192   6.718  0.3594 -0.0886 -0.6503
 8389TIP3    H225090   7.793   6.266   6.761  1.3226  1.1431  0.0434
 8390TIP3   OH225091   5.379   5.624   3.368  0.5265  0.6329  0.6131
 8390TIP3    H125092   5.420   5.664   3.445 -0.0446  0.6281  0.9231
 8390TIP3    H225093   5.299   5.676   3.354  0.0511 -0.0771  0.7020
 8391TIP3   OH225094   6.376   5.250   2.444  0.2053 -0.0998  0.0990
 8391TIP3    H125095   6.346   5.325   2.496 -1.3452 -0.8784  0.3841
 8391TIP3    H225096   6.347   5.173   2.495  1.1677 -0.8772 -0.5183
 8392TIP3   OH225097   1.087   3.874   4.268  0.2696 -0.3156  0.1806
 8392TIP3    H125098   1.175   3.842   4.289  0.8838  1.3435  0.1985
 8392TIP3    H225099   1.037   3.862   4.349  0.2514 -1.9502 -0.0481
 8393TIP3   OH225100   8.362   5.318   4.677  0.0697 -0.0873  0.8439
 8393TIP3    H125101   8.418   5.383   4.635 -0.0752  0.0197  0.8139
 8393TIP3    H225102   8.422   5.249   4.704  0.0037 -0.8138 -0.7815
 8394TIP3   OH225103   1.200   5.055   1.169 -0.3731 -0.4476  0.2382
 8394TIP3    H125104   1.247   4.972   1.164  1.1115  0.3514  0.5447
 8394TIP3    H225105   1.126   5.044   1.110  1.2506 -1.0741 -1.7666
 8395TIP3   OH225106   1.336   2.992   3.653 -0.0270  0.0606  0.2886
 8395TIP3    H125107   1.284   2.926   3.607 -0.1836 -0.9150  1.8198
 8395TIP3    H225108   1.330   2.967   3.746  1.3995  1.1952  0.7057
 8396TIP3   OH225109   8.454   5.865   3.730  0.0431 -0.0682  0.5067
 8396TIP3    H125110   8.511   5.919   3.784 -0.8938 -0.1223  1.5642
 8396TIP3    H225111   8.449   5.781   3.776  0.2583 -0.5499 -0.3259
 8397TIP3   OH225112   6.241   5.157   1.947  0.8648 -0.2167 -0.0501
 8397TIP3    H125113   6.244   5.124   2.037 -0.8990  1.1446  0.5259
 8397TIP3    H225114   6.331   5.146   1.915  0.9991 -2.8514  1.0799
 8398TIP3   OH225115   6.727   2.955   1.508  0.3001 -0.0452 -0.7179
 8398TIP3    H125116   6.716   2.869   1.469  3.6120 -1.8055  1.9188
 8398TIP3    H225117   6.641   2.995   1.504 -2.1399 -4.7886  0.9043
 8399TIP3   OH225118   8.058   2.176   2.964 -0.1072 -0.0141 -0.5874
 8399TIP3    H125119   8.064   2.122   3.044  0.6615  0.8636 -0.0422
 8399TIP3    H225120   7.972   2.219   2.971 -0.1365 -0.1094 -0.3388
 8400TIP3   OH225121   7.385   4.292   2.420  0.2318  0.3365  0.0397
 8400TIP3    H125122   7.294   4.307   2.448 -0.0836  0.8547 -1.2153
 8400TIP3    H225123   7.406   4.204   2.452 -0.2736  0.7153  1.4506
 8401TIP3   OH225124   7.147   6.006   4.997  0.8349  0.0075 -0.2239
 8401TIP3    H125125   7.130   5.993   4.904  0.3200 -1.1009  0.0066
 8401TIP3    H225126   7.220   6.067   5.000  0.5406  0.4300 -1.3445
 8402TIP3   OH225127   1.911   3.174   1.990 -0.0358 -0.2118  0.3206
 8402TIP3    H125128   1.858   3.223   2.053  0.6267  1.2500 -0.2326
 8402TIP3    H225129   1.991   3.226   1.981  0.5317 -1.2192 -0.5574
 8403TIP3   OH225130   7.659   2.475   4.493 -0.8641  0.2789 -0.2658
 8403TIP3    H125131   7.710   2.485   4.573 -0.9025 -1.1125 -0.0592
 8403TIP3    H225132   7.672   2.384   4.467 -3.5764 -0.2336  0.0218
 8404TIP3   OH225133   5.476   3.518   2.618  0.0816 -0.0037  0.2922
 8404TIP3    H125134   5.521   3.602   2.610 -0.9222  0.4618 -0.5665
 8404TIP3    H225135   5.388   3.540   2.645 -1.0671 -0.5213 -2.7550
 8405TIP3   OH225136   0.741   3.729   7.052  0.2773  0.2149 -0.6210
 8405TIP3    H125137   0.769   3.713   6.961 -1.0337  0.1102 -1.0217
 8405TIP3    H225138   0.818   3.710   7.105  0.3502 -2.1064 -1.5215
 8406TIP3   OH225139   4.358   3.374   5.123  0.4890  0.0502 -0.0809
 8406TIP3    H125140   4.439   3.349   5.078 -0.0919 -1.4190 -0.3580
 8406TIP3    H225141   4.386   3.435   5.190  1.8974 -0.7547  0.0924
 8407TIP3   OH225142   8.695   4.914   3.147  0.1957 -0.1808  0.2194
 8407TIP3    H125143   8.617   4.970   3.148 -0.0814 -0.5700  1.0986
 8407TIP3    H225144   8.663   4.830   3.114  0.4470 -0.0460 -0.3606
 8408TIP3   OH225145   0.239   2.340   1.473  0.2243 -0.7861 -0.7910
 8408TIP3    H125146   0.260   2.247   1.475 -0.4068 -0.9069  0.9167
 8408TIP3    H225147   0.171   2.349   1.406  1.5705 -1.2690 -2.2300
 8409TIP3   OH225148   0.350   3.746   3.036  0.2807 -0.1112  0.4015
 8409TIP3    H125149   0.389   3.673   2.989 -0.1961 -0.9350  1.2656
 8409TIP3    H225150   0.422   3.782   3.088  0.8955  1.0276 -1.2103
 8410TIP3   OH225151   7.456   2.865   2.120 -0.5345  0.1436  0.3244
 8410TIP3    H125152   7.444   2.939   2.061  0.0653  0.5120  0.6616
 8410TIP3    H225153   7.432   2.788   2.068  1.4911  0.3064 -0.9146
 8411TIP3   OH225154   5.823   6.822   2.354 -0.1455 -0.6248 -0.2644
 8411TIP3    H125155   5.844   6.729   2.354 -0.4488 -0.6989  0.3286
 8411TIP3    H225156   5.898   6.863   2.397 -1.1186 -0.8793  1.7698
 8412TIP3   OH225157   6.844   6.626   5.016 -0.1300  0.0423  0.1113
 8412TIP3    H125158   6.884   6.713   5.008 -1.1586  0.3513 -2.1947
 8412TIP3    H225159   6.868   6.597   5.104  0.9643  2.2898  0.6143
 8413TIP3   OH225160   8.909   5.061   5.138  0.0101  0.0953 -0.1846
 8413TIP3    H125161   8.954   5.114   5.072  0.4131 -0.2253 -0.1732
 8413TIP3    H225162   8.818   5.060   5.110 -0.0347  0.9752 -0.0587
 8414TIP3   OH225163   8.178   5.461   3.925 -0.0700 -0.3596  0.4339
 8414TIP3    H125164   8.204   5.470   3.834  0.2006  1.1755  0.6519
 8414TIP3    H225165   8.146   5.371   3.932  1.9328 -1.1822 -0.6486
 8415TIP3   OH225166   8.799   3.810   3.292  0.0961  0.4468 -0.1144
 8415TIP3    H125167   8.878   3.811   3.238  1.1070 -1.8804  1.2546
 8415TIP3    H225168   8.761   3.897   3.280  2.3113  1.2627 -1.5852
 8416TIP3   OH225169   7.137   4.595   2.273 -0.0557 -0.4047  0.3506
 8416TIP3    H125170   7.115   4.515   2.226  0.9362 -0.8348  0.5925
 8416TIP3    H225171   7.053   4.638   2.290 -0.6924 -1.9126  1.1421
 8417TIP3   OH225172   8.397   5.349   5.711 -0.1844 -0.4994  0.1859
 8417TIP3    H125173   8.330   5.340   5.779 -1.7891 -2.2544 -1.5797
 8417TIP3    H225174   8.378   5.279   5.649  1.1300  1.1722 -2.1986
 8418TIP3   OH225175   8.622   5.166   3.882 -0.7401  0.4587  0.0563
 8418TIP3    H125176   8.546   5.215   3.914  0.4405  1.8492  0.7701
 8418TIP3    H225177   8.594   5.130   3.798 -2.7594 -0.4459  1.0675
 8419TIP3   OH225178   7.272   5.381   4.258  0.4423  0.1776 -0.2937
 8419TIP3    H125179   7.363   5.381   4.286  0.3671 -0.3433 -0.0467
 8419TIP3    H225180   7.272   5.326   4.179 -0.2636 -2.8793  1.7347
 8420TIP3   OH225181   0.240   2.753   4.655  0.5845 -0.7188  0.0752
 8420TIP3    H125182   0.211   2.749   4.746  0.2432 -1.9807 -0.0810
 8420TIP3    H225183   0.280   2.667   4.639 -1.0653 -1.1982 -1.5336
 8421TIP3   OH225184   8.526   3.364   2.612 -0.4206 -0.5037 -0.6529
 8421TIP3    H125185   8.445   3.372   2.561 -1.9015  0.5847  1.7969
 8421TIP3    H225186   8.516   3.281   2.658 -0.3438 -0.1490  0.0009
 8422TIP3   OH225187   8.067   5.891   6.221 -0.2819 -0.0622  0.5211
 8422TIP3    H125188   7.985   5.929   6.251  0.1559  1.5818 -0.3164
 8422TIP3    H225189   8.134   5.933   6.275  0.0735 -0.8290  0.6781
 8423TIP3   OH225190   6.468   5.918   5.541  0.2314  0.0648  0.6502
 8423TIP3    H125191   6.453   5.859   5.614 -0.7005  0.1007  0.4887
 8423TIP3    H225192   6.452   5.866   5.463  0.3703  0.2649  0.4846
 8424TIP3   OH225193   7.849   6.718   3.506 -0.2938 -0.0775 -0.0590
 8424TIP3    H125194   7.802   6.635   3.515  0.4569 -0.6377 -1.1865
 8424TIP3    H225195   7.834   6.744   3.415  0.5432  0.3704 -0.0698
 8425TIP3   OH225196   7.913   6.323   3.620 -0.2488 -0.6373 -0.2931
 8425TIP3    H125197   7.918   6.398   3.679 -1.7666  0.0182 -0.9632
 8425TIP3    H225198   7.984   6.337   3.557  0.7900 -0.8605  0.8228
 8426TIP3   OH225199   8.082   3.704   2.995 -0.9424 -0.3012 -0.0763
 8426TIP3    H125200   8.043   3.778   2.949 -0.4390 -0.5311 -0.8817
 8426TIP3    H225201   8.155   3.676   2.939 -1.0174 -1.2897  0.3034
 8427TIP3   OH225202   8.687   7.999   0.682 -0.1421  0.3535  0.1597
 8427TIP3    H125203   8.591   8.003   0.681 -0.2010 -0.4598  1.3544
 8427TIP3    H225204   8.710   8.018   0.773  0.6281 -3.4813  0.8564
 8428TIP3   OH225205   0.003   6.717   2.745 -0.1301  0.0250  0.1025
 8428TIP3    H125206   0.033   6.629   2.724 -1.3865 -0.8257  1.7840
 8428TIP3    H225207   0.071   6.774   2.710  1.1195 -1.6459 -0.2511
 8429TIP3   OH225208   8.519   6.667   3.851  0.3886 -0.2883 -0.8560
 8429TIP3    H125209   8.529   6.577   3.818  0.0550  0.1495 -2.1588
 8429TIP3    H225210   8.428   6.689   3.832  0.4094  0.2553 -0.3340
 8430TIP3   OH225211   6.752   5.666   1.638 -0.2021 -0.6857  0.4812
 8430TIP3    H125212   6.730   5.730   1.706 -1.7332 -0.8304  0.1413
 8430TIP3    H225213   6.750   5.717   1.557  0.5097 -0.7484  0.4295
 8431TIP3   OH225214   0.709   6.222   5.609  0.1770  0.5602  0.5449
 8431TIP3    H125215   0.721   6.212   5.514 -0.7918 -0.4173  0.5198
 8431TIP3    H225216   0.766   6.156   5.647 -2.4100 -1.7512  0.5174
 8432TIP3   OH225217   0.022   5.640   3.253  0.3425  0.4644 -0.0698
 8432TIP3    H125218   0.075   5.683   3.186 -1.2218  1.2377 -0.8318
 8432TIP3    H225219   0.060   5.669   3.336  1.0069  1.1408 -0.6057
 8433TIP3   OH225220   7.002   6.414   2.310 -0.1358  0.3122 -0.2627
 8433TIP3    H125221   6.974   6.494   2.355 -0.3919 -1.0505  2.0993
 8433TIP3    H225222   7.095   6.426   2.294 -0.2987  1.3296 -0.4845
 8434TIP3   OH225223   7.865   5.802   3.405 -0.4356  0.7099 -0.0355
 8434TIP3    H125224   7.790   5.752   3.437  0.7544 -0.6130  0.7296
 8434TIP3    H225225   7.829   5.888   3.383 -1.7505  0.8148  2.4195
 8435TIP3   OH225226   8.610   5.229   4.522  0.3981 -0.5165  0.0052
 8435TIP3    H125227   8.685   5.192   4.475  0.6693  0.3154 -0.2173
 8435TIP3    H225228   8.616   5.190   4.610  0.3456 -1.4506 -0.3931
 8436TIP3   OH225229   7.418   3.785   3.303  0.3587 -0.2815 -0.1076
 8436TIP3    H125230   7.352   3.841   3.262 -0.1770  0.2295  1.4170
 8436TIP3    H225231   7.501   3.824   3.278 -0.0110  1.3088  1.0493
 8437TIP3   OH225232   7.671   8.133   3.059  0.2182  0.4979  0.1263
 8437TIP3    H125233   7.658   8.228   3.054  0.4651  0.5627  0.7425
 8437TIP3    H225234   7.626   8.107   3.140  0.6127  0.1668  0.2398
 8438TIP3   OH225235   8.803   6.147   3.316 -0.3284  0.2546  0.1550
 8438TIP3    H125236   8.764   6.078   3.370  0.1228  0.7280  1.0987
 8438TIP3    H225237   8.804   6.224   3.373 -0.1638  0.8512 -0.6473
 8439TIP3   OH225238   7.147   6.400   5.176  0.5402 -0.4526  0.1796
 8439TIP3    H125239   7.212   6.344   5.219  0.4258  0.0057  0.9666
 8439TIP3    H225240   7.198   6.468   5.134  0.6285 -0.6584 -0.0478
 8440TIP3   OH225241   8.765   6.136   1.706  0.4549 -0.1348 -0.7832
 8440TIP3    H125242   8.808   6.201   1.651  0.0229 -0.0617 -1.0336
 8440TIP3    H225243   8.837   6.087   1.746  0.7818  0.4080 -0.6969
 8441TIP3   OH225244   6.668   4.767   3.082  0.6826 -0.3469  0.4320
 8441TIP3    H125245   6.584   4.808   3.101  0.0518 -1.2521 -0.4080
 8441TIP3    H225246   6.674   4.694   3.143  0.1491 -1.2272 -0.5489
 8442TIP3   OH225247   7.828   5.259   3.145  0.6498  0.1855 -0.1793
 8442TIP3    H125248   7.786   5.173   3.157  1.2095 -0.1307 -0.4586
 8442TIP3    H225249   7.779   5.300   3.074 -0.6467  0.7627  1.0323
 8443TIP3   OH225250   2.452   5.565   1.297 -0.4781  0.3282  0.4041
 8443TIP3    H125251   2.502   5.613   1.231  0.2680  0.6034  1.1585
 8443TIP3    H225252   2.468   5.613   1.379  0.3792 -1.2508  1.1947
 8444TIP3   OH225253   8.527   3.699   2.434 -0.0620 -0.1373  0.5654
 8444TIP3    H125254   8.484   3.733   2.513 -0.2255 -0.9127  0.8075
 8444TIP3    H225255   8.480   3.618   2.413  0.6874 -0.5117  0.2984
 8445TIP3   OH225256   0.929   2.975   2.757  0.7885  0.0991 -0.0180
 8445TIP3    H125257   0.917   3.061   2.798  0.1003  0.2650 -0.5554
 8445TIP3    H225258   0.931   2.914   2.830  1.5133  0.5897  0.3878
 8446TIP3   OH225259   7.896   5.956   2.485  0.2941  0.0701  0.5833
 8446TIP3    H125260   7.878   5.933   2.394  1.6033 -0.5636  0.4708
 8446TIP3    H225261   7.989   5.938   2.497  0.4505  1.4524  1.6616
 8447TIP3   OH225262   7.315   4.402   2.950  0.5575  0.5003  0.0675
 8447TIP3    H125263   7.269   4.321   2.928  2.0228  0.5365 -3.5912
 8447TIP3    H225264   7.384   4.374   3.010  0.4001 -0.8147 -0.3321
 8448TIP3   OH225265   8.597   7.154   3.914 -0.1864 -0.0359 -0.5468
 8448TIP3    H125266   8.637   7.167   3.828  1.0520  0.5277  0.1131
 8448TIP3    H225267   8.593   7.241   3.952 -2.4172 -0.0073 -0.7480
 8449TIP3   OH225268   8.322   4.541   5.612 -0.2295  0.6318  0.0535
 8449TIP3    H125269   8.276   4.622   5.636  0.4920  0.7696  0.9953
 8449TIP3    H225270   8.297   4.526   5.521 -3.3148 -0.1034  0.9699
 8450TIP3   OH225271   0.703   4.298   2.527  0.3196  0.1125  0.1358
 8450TIP3    H125272   0.666   4.315   2.441 -0.1288  1.1875  0.5323
 8450TIP3    H225273   0.698   4.382   2.573 -0.3917 -0.6843  1.5595
 8451TIP3   OH225274   0.142   5.996   3.965  0.2900 -0.0031 -0.2961
 8451TIP3    H125275   0.137   5.947   4.047 -0.6259  0.0454 -0.3177
 8451TIP3    H225276   0.138   6.088   3.992 -2.0846 -0.0023 -0.4998
 8452TIP3   OH225277   7.914   7.931   3.584 -0.1753 -0.5414 -0.3590
 8452TIP3    H125278   7.867   8.003   3.627  0.6142 -0.8491  1.0470
 8452TIP3    H225279   7.845   7.878   3.544 -0.9036 -0.0172  0.1828
 8453TIP3   OH225280   6.893   4.722   4.217  0.5388  0.1475  0.1491
 8453TIP3    H125281   6.956   4.668   4.265  0.8153  0.3368  0.0006
 8453TIP3    H225282   6.815   4.723   4.273 -0.5529 -2.8334 -1.1898
 8454TIP3   OH225283   8.465   5.754   5.770  0.6812 -0.0716 -0.0852
 8454TIP3    H125284   8.417   5.734   5.850 -1.4690 -2.0893 -1.7894
 8454TIP3    H225285   8.408   5.814   5.722  0.7527 -0.8970 -1.2368
 8455TIP3   OH225286   8.547   5.135   1.676 -0.2037 -0.3779  0.2737
 8455TIP3    H125287   8.588   5.173   1.754 -0.8848  1.2380 -0.1531
 8455TIP3    H225288   8.621   5.113   1.619  0.2210 -0.3203  0.7846
 8456TIP3   OH225289   8.687   4.172   4.298 -0.0156 -0.8250  0.0706
 8456TIP3    H125290   8.617   4.236   4.288  0.3651 -0.1704  1.5102
 8456TIP3    H225291   8.648   4.089   4.271 -1.4404 -0.5114  1.1374
 8457TIP3   OH225292   6.551   6.075   2.938  0.6501 -0.1406  0.3936
 8457TIP3    H125293   6.490   6.004   2.955  0.3541 -0.0708 -0.3484
 8457TIP3    H225294   6.537   6.098   2.846  0.2918  1.3008  0.7913
 8458TIP3   OH225295   8.329   2.806   3.431  0.1305 -0.0524 -0.4500
 8458TIP3    H125296   8.311   2.751   3.507 -1.3119 -2.5459 -2.5450
 8458TIP3    H225297   8.246   2.849   3.413  0.1689 -0.3445 -1.3168
 8459TIP3   OH225298   7.380   3.098   1.924  0.8906  0.1447 -0.4897
 8459TIP3    H125299   7.443   3.063   1.861 -1.1987 -0.9743 -2.0049
 8459TIP3    H225300   7.294   3.078   1.886 -0.3968  0.8503  1.9581
 8460TIP3   OH225301   6.051   6.032   3.985  0.0742 -0.0709 -0.3331
 8460TIP3    H125302   5.975   6.013   4.041  0.3648  2.4041  0.9620
 8460TIP3    H225303   6.014   6.067   3.904 -0.1526  2.5806  0.8864
 8461TIP3   OH225304   7.534   7.163   3.312 -0.3830  0.3710  0.4349
 8461TIP3    H125305   7.616   7.189   3.272  1.3948 -2.8192  1.8251
 8461TIP3    H225306   7.528   7.216   3.392 -0.5318  1.8275 -0.5446
 8462TIP3   OH225307   8.654   6.530   1.632 -0.6304 -0.2904 -0.2552
 8462TIP3    H125308   8.727   6.565   1.683  0.2971 -1.5690 -0.6926
 8462TIP3    H225309   8.612   6.466   1.690 -0.4999 -0.6372 -0.5429
 8463TIP3   OH225310   6.592   5.344   4.740 -0.1146  0.3452 -0.1000
 8463TIP3    H125311   6.572   5.426   4.786 -0.1454  0.8665 -1.0204
 8463TIP3    H225312   6.600   5.370   4.648  0.8576 -0.5172 -0.2737
 8464TIP3   OH225313   8.189   6.401   3.123 -0.3747 -0.0845  0.0527
 8464TIP3    H125314   8.156   6.430   3.208 -0.0635 -2.0462  0.8586
 8464TIP3    H225315   8.164   6.471   3.063  0.9450  2.1875  2.0659
 8465TIP3   OH225316   8.135   4.768   5.387  0.2452  0.1574  0.0538
 8465TIP3    H125317   8.074   4.732   5.323 -0.4782  2.2786 -0.4724
 8465TIP3    H225318   8.219   4.726   5.365 -0.4661 -0.8514 -0.8178
 8466TIP3   OH225319   6.430   2.539   1.547  0.5330 -0.4886 -0.1450
 8466TIP3    H125320   6.466   2.566   1.631 -0.2865  0.7800 -0.1759
 8466TIP3    H225321   6.337   2.528   1.563  0.0246  1.7924 -1.3331
 8467TIP3   OH225322   6.962   5.135   6.739  0.0121 -0.3526 -0.3207
 8467TIP3    H125323   6.931   5.098   6.822  1.5605 -1.9489 -0.4156
 8467TIP3    H225324   7.015   5.211   6.764 -2.1803  1.1299 -0.0493
 8468TIP3   OH225325   7.779   5.831   3.894  0.4128  0.3103 -0.1410
 8468TIP3    H125326   7.757   5.908   3.841 -2.8700 -0.7559 -0.3902
 8468TIP3    H225327   7.746   5.852   3.981  0.8821 -0.2169  0.1676
 8469TIP3   OH225328   6.916   4.760   3.935  0.2561  0.4386 -0.2233
 8469TIP3    H125329   7.012   4.757   3.924  0.2364 -1.8129 -0.0974
 8469TIP3    H225330   6.903   4.759   4.030  0.1296  2.7284 -0.2052
 8470TIP3   OH225331   8.890   2.613   5.383  0.5367  0.1756 -0.5053
 8470TIP3    H125332   8.798   2.605   5.358  0.7627  2.2569 -2.1672
 8470TIP3    H225333   8.892   2.688   5.443  1.1864  0.3499 -0.7367
 8471TIP3   OH225334   7.431   5.478   3.403  0.3928  0.7612 -0.0542
 8471TIP3    H125335   7.360   5.468   3.466  0.8482 -2.1806  0.0195
 8471TIP3    H225336   7.501   5.523   3.451  0.1148  0.0123  1.0443
 8472TIP3   OH225337   8.053   2.908   4.265 -0.3325 -0.5811  0.3210
 8472TIP3    H125338   8.007   2.958   4.332  0.8732 -0.2802  0.9351
 8472TIP3    H225339   8.121   2.861   4.312 -0.9165 -2.1636 -0.3774
 8473TIP3   OH225340   7.635   6.015   4.862  0.2752 -0.1957  0.3932
 8473TIP3    H125341   7.711   6.058   4.901 -0.9601  0.5088  2.0507
 8473TIP3    H225342   7.603   5.956   4.930  0.8419 -2.4323 -1.2068
 8474TIP3   OH225343   0.641   6.485   6.143  0.0171 -0.0546 -0.0287
 8474TIP3    H125344   0.553   6.467   6.108 -0.7633  0.6752  1.5167
 8474TIP3    H225345   0.699   6.432   6.088 -1.5533 -1.9188  0.0373
 8475TIP3   OH225346   8.501   3.097   2.093  0.2113  0.4472 -0.3951
 8475TIP3    H125347   8.488   3.093   2.188  0.9675 -1.2199 -0.3507
 8475TIP3    H225348   8.585   3.142   2.082 -1.6123  4.0203 -0.4300
 8476TIP3   OH225349   6.374   6.364   4.842  0.0995 -0.9052  0.0213
 8476TIP3    H125350   6.445   6.354   4.780  0.9502 -0.2486  0.8734
 8476TIP3    H225351   6.387   6.451   4.879 -0.3674 -1.3079  1.1514
 8477TIP3   OH225352   7.440   2.940   2.811 -0.0600 -0.4409 -0.2948
 8477TIP3    H125353   7.498   2.895   2.872 -0.0807 -2.0584 -1.4265
 8477TIP3    H225354   7.499   2.970   2.741 -0.2667 -0.0723 -0.3112
 8478TIP3   OH225355   7.555   4.017   4.681 -0.0234 -0.1268  0.2383
 8478TIP3    H125356   7.574   3.964   4.604 -1.3198 -1.0615  0.5376
 8478TIP3    H225357   7.478   3.975   4.720  0.3256  0.6218  1.7630
 8479TIP3   OH225358   0.635   7.304   3.460 -0.4272  0.4520 -0.6525
 8479TIP3    H125359   0.702   7.239   3.441 -0.3393  0.1452  0.6651
 8479TIP3    H225360   0.674   7.358   3.530 -0.7180  1.5662 -1.3462
 8480TIP3   OH225361   1.170   4.437   6.933  0.6108  0.5700  0.0953
 8480TIP3    H125362   1.186   4.514   6.878  1.5658  0.4732  0.2339
 8480TIP3    H225363   1.077   4.418   6.920  0.3387  1.8038  0.1279
 8481TIP3   OH225364   0.117   4.347   5.056  0.6346  0.5799  0.0012
 8481TIP3    H125365   0.179   4.351   4.984  2.1987 -2.1666  1.1061
 8481TIP3    H225366   0.162   4.387   5.130  0.7558 -0.5636  0.5616
 8482TIP3   OH225367   8.097   2.764   3.689  0.4562  0.0838  0.2951
 8482TIP3    H125368   8.120   2.717   3.769 -0.4363  0.3916  0.7443
 8482TIP3    H225369   8.120   2.855   3.707 -1.2471  0.4281  0.8234
 8483TIP3   OH225370   7.257   6.766   3.871  0.5517  0.1635 -0.6571
 8483TIP3    H125371   7.245   6.810   3.955  0.8317 -2.4642  0.8227
 8483TIP3    H225372   7.214   6.823   3.807  0.0868  2.0581  1.2983
 8484TIP3   OH225373   8.901   4.169   5.226  0.1488 -0.2025  0.1033
 8484TIP3    H125374   8.846   4.221   5.284  1.0849  0.2642  0.5762
 8484TIP3    H225375   8.928   4.229   5.156 -0.1693 -0.5041 -0.2858
 8485TIP3   OH225376   1.586   4.514   4.504  0.1110  0.4103 -0.2477
 8485TIP3    H125377   1.628   4.433   4.534 -0.5922  0.3537  0.6009
 8485TIP3    H225378   1.657   4.579   4.502  0.6467 -0.1764 -0.7844
 8486TIP3   OH225379   6.264   7.759   4.604  0.1358 -0.1130  0.8856
 8486TIP3    H125380   6.314   7.825   4.651  0.5639  0.4896 -0.3700
 8486TIP3    H225381   6.317   7.680   4.609  1.9783  0.8880 -1.6588
 8487TIP3   OH225382   7.945   3.229   3.484 -0.0908  0.3852 -0.4595
 8487TIP3    H125383   7.940   3.198   3.575  1.1497  0.5828 -0.3140
 8487TIP3    H225384   7.855   3.252   3.462 -0.6467 -1.0495  0.2334
 8488TIP3   OH225385   0.108   3.802   6.503 -0.5801  0.3407  0.0148
 8488TIP3    H125386   0.088   3.887   6.543 -0.9003 -0.5661  1.8070
 8488TIP3    H225387   0.027   3.752   6.510 -0.2141 -0.3355 -0.5088
 8489TIP3   OH225388   7.853   4.712   2.377  0.0349 -0.9581  0.1330
 8489TIP3    H125389   7.871   4.687   2.468  0.6226  2.5084  1.0275
 8489TIP3    H225390   7.865   4.806   2.375  0.4693 -1.0260 -3.7010
 8490TIP3   OH225391   6.828   5.790   3.262 -0.4992  0.4871 -0.1013
 8490TIP3    H125392   6.757   5.737   3.225 -0.0020 -0.2087 -0.0737
 8490TIP3    H225393   6.886   5.809   3.188  0.1808 -0.3998  0.1927
 8491TIP3   OH225394   6.976   5.527   4.777  0.0941 -0.1548  0.5331
 8491TIP3    H125395   6.926   5.548   4.856  1.7578  2.5904  0.9448
 8491TIP3    H225396   6.931   5.574   4.707  2.1838  2.6159  0.9646
 8492TIP3   OH225397   8.368   4.589   5.302 -0.2036 -0.3476  0.3642
 8492TIP3    H125398   8.408   4.502   5.297 -2.6309 -1.5976  1.6835
 8492TIP3    H225399   8.399   4.634   5.224  0.7586 -2.5622 -0.5781
 8493TIP3   OH225400   0.575   3.783   4.005  0.1960  0.4481  0.6228
 8493TIP3    H125401   0.632   3.754   4.076 -0.4669  0.4744  1.1704
 8493TIP3    H225402   0.626   3.768   3.925  0.8942  0.3037  1.0941
 8494TIP3   OH225403   8.067   7.096   2.994 -0.3836  0.1461 -0.4373
 8494TIP3    H125404   8.056   7.191   3.001 -0.7757  0.0744 -0.0998
 8494TIP3    H225405   8.162   7.083   2.991 -0.2448  0.3467  2.2645
 8495TIP3   OH225406   8.364   5.205   2.755  0.0807  0.6128 -0.8779
 8495TIP3    H125407   8.352   5.126   2.703  1.5837  0.6443 -1.3089
 8495TIP3    H225408   8.279   5.221   2.796 -0.4274 -0.8023 -1.3728
 8496TIP3   OH225409   7.637   3.631   2.640  0.7324 -0.7028 -0.3013
 8496TIP3    H125410   7.626   3.582   2.559  0.5811  0.6402 -1.1063
 8496TIP3    H225411   7.624   3.722   2.615 -0.8964 -0.4026  1.5188
 8497TIP3   OH225412   7.760   4.544   1.620 -0.0745 -0.7576  0.6175
 8497TIP3    H125413   7.811   4.509   1.546 -0.5628 -0.0840 -0.0445
 8497TIP3    H225414   7.669   4.530   1.595 -0.2378 -1.0212  1.3441
 8498TIP3   OH225415   0.824   7.832   1.687  0.1898 -0.2514  0.1770
 8498TIP3    H125416   0.777   7.811   1.606 -0.1451  1.6862 -0.1562
 8498TIP3    H225417   0.907   7.786   1.679 -0.3958 -1.1988 -0.6376
 8499TIP3   OH225418   7.788   3.472   3.464 -0.6371 -0.2276 -0.1249
 8499TIP3    H125419   7.793   3.468   3.368  0.5395  1.0511 -0.1191
 8499TIP3    H225420   7.702   3.512   3.481 -0.2394  0.8930 -0.6842
 8500TIP3   OH225421   0.682   4.133   3.133  0.1508  0.1114 -0.2683
 8500TIP3    H125422   0.592   4.111   3.111  0.3372 -1.0022  0.0090
 8500TIP3    H225423   0.683   4.227   3.145 -1.4083 -0.1159  1.7799
 8501TIP3   OH225424   0.652   4.438   4.601 -0.3655 -0.1315 -0.2573
 8501TIP3    H125425   0.732   4.406   4.643  0.3844  1.0025 -0.7900
 8501TIP3    H225426   0.586   4.435   4.671 -0.3505 -2.8541 -0.3190
 8502TIP3   OH225427   7.374   4.896   3.094  0.1430  0.6657 -0.0307
 8502TIP3    H125428   7.340   4.888   3.004  0.0637 -0.4338  0.0916
 8502TIP3    H225429   7.304   4.942   3.141 -0.7352 -0.6475 -0.0327
 8503TIP3   OH225430   8.689   6.394   2.936  0.2178 -0.3283  0.2276
 8503TIP3    H125431   8.700   6.342   2.857  0.0236 -2.3761  1.4796
 8503TIP3    H225432   8.600   6.373   2.966 -0.4021  1.8713 -0.0185
 8504TIP3   OH225433   8.698   5.988   4.464 -0.0320  0.0992 -0.1334
 8504TIP3    H125434   8.630   6.005   4.530 -0.3804 -0.4856 -0.3406
 8504TIP3    H225435   8.776   5.966   4.515 -0.0545  0.5697  0.1016
 8505TIP3   OH225436   8.174   2.687   2.466  0.3792 -0.4998 -0.3682
 8505TIP3    H125437   8.260   2.681   2.508  1.0446  1.0688 -1.4426
 8505TIP3    H225438   8.171   2.613   2.405  0.7505 -0.8525  0.0413
 8506TIP3   OH225439   8.776   7.745   3.900  0.3501  0.7355  0.2637
 8506TIP3    H125440   8.839   7.675   3.886 -0.2071  0.2987 -0.0914
 8506TIP3    H225441   8.795   7.776   3.988  0.9000  0.4446  0.2532
 8507TIP3   OH225442   8.657   7.877   3.028 -0.0022 -0.3764  0.1421
 8507TIP3    H125443   8.649   7.971   3.043 -0.4078  0.1359 -2.9659
 8507TIP3    H225444   8.751   7.862   3.018  0.0188 -0.1981  0.0688
 8508TIP3   OH225445   2.364   4.372   5.942 -0.1702  0.7497 -0.2897
 8508TIP3    H125446   2.348   4.445   6.002 -0.4727  1.6760 -1.4671
 8508TIP3    H225447   2.447   4.334   5.970 -0.7376  0.6234  1.2435
 8509TIP3   OH225448   7.947   5.399   5.499 -0.1525 -0.6626  0.1346
 8509TIP3    H125449   8.005   5.357   5.436  1.0424  0.6559  0.3278
 8509TIP3    H225450   7.868   5.345   5.499  0.4192 -1.5241 -1.3687
 8510TIP3   OH225451   1.293   5.102   2.760  0.1212 -0.7551  0.2110
 8510TIP3    H125452   1.219   5.086   2.820  0.0435 -1.1542  0.0088
 8510TIP3    H225453   1.349   5.163   2.808 -0.3459 -0.4390  0.3622
 8511TIP3   OH225454   8.301   3.720   3.527 -0.4527 -0.2422 -0.2269
 8511TIP3    H125455   8.230   3.721   3.463 -0.6712  0.5291  0.0231
 8511TIP3    H225456   8.379   3.694   3.477 -0.5593  0.6741 -0.8673
 8512TIP3   OH225457   7.673   4.460   2.484 -0.1405 -0.2180  0.3647
 8512TIP3    H125458   7.612   4.389   2.463  2.2129 -2.1866  0.0302
 8512TIP3    H225459   7.709   4.485   2.399  0.0918  0.4115  0.6506
 8513TIP3   OH225460   0.239   6.476   5.476 -0.1287 -0.1063  0.8974
 8513TIP3    H125461   0.330   6.505   5.465  0.3874 -1.8380  0.5110
 8513TIP3    H225462   0.205   6.471   5.387 -0.8824  1.3515  1.0870
 8514TIP3   OH225463   6.373   5.524   4.438 -0.1451 -0.1441 -0.0576
 8514TIP3    H125464   6.367   5.613   4.402 -2.1455  0.0684  0.7179
 8514TIP3    H225465   6.387   5.537   4.532 -0.2038 -0.6320  0.0183
 8515TIP3   OH225466   6.739   6.845   2.242 -0.7971  0.7105  0.1925
 8515TIP3    H125467   6.655   6.836   2.196 -0.0648 -1.2851 -0.8240
 8515TIP3    H225468   6.805   6.825   2.175  0.4752  1.7034  1.1257
 8516TIP3   OH225469   6.412   6.887   5.632  0.7865  0.3401  0.3202
 8516TIP3    H125470   6.381   6.978   5.636  1.9746  0.7257  1.0609
 8516TIP3    H225471   6.480   6.882   5.700  1.1858 -0.9207 -0.1593
 8517TIP3   OH225472   8.571   0.053   3.338  0.4220  0.3993 -0.9054
 8517TIP3    H125473   8.496   0.047   3.280  0.0936  0.1837 -0.4602
 8517TIP3    H225474   8.644   0.074   3.280 -0.3492  2.7636 -1.0717
 8518TIP3   OH225475   8.887   6.714   3.829  0.0803  0.0887 -0.2663
 8518TIP3    H125476   8.847   6.792   3.868 -0.9769 -0.2323 -0.7044
 8518TIP3    H225477   8.911   6.741   3.741 -1.7837 -0.5593 -0.9818
 8519TIP3   OH225478   7.978   5.024   2.848 -0.0093 -0.0651 -0.1873
 8519TIP3    H125479   8.014   4.954   2.902 -0.9263 -0.5392 -0.1941
 8519TIP3    H225480   7.883   5.015   2.856 -0.1367  1.1325 -0.2370
 8520TIP3   OH225481   0.402   3.620   5.522 -0.2156  0.6747 -0.0524
 8520TIP3    H125482   0.497   3.628   5.533  0.2103  1.2082 -3.6751
 8520TIP3    H225483   0.366   3.679   5.589  2.0442  1.9340  0.1142
 8521TIP3   OH225484   6.471   5.151   2.207 -0.4346  0.6741  0.0690
 8521TIP3    H125485   6.404   5.107   2.155  0.9082 -1.9001  0.4347
 8521TIP3    H225486   6.427   5.174   2.289 -0.8068 -1.3352  0.4591
 8522TIP3   OH225487   6.911   4.712   2.329  0.4628  0.4260 -0.0163
 8522TIP3    H125488   6.828   4.686   2.288 -0.4907 -0.1941  2.2198
 8522TIP3    H225489   6.893   4.798   2.368  0.5545 -0.1312  1.2943
 8523TIP3   OH225490   0.659   5.850   2.698  1.1805 -0.6176 -0.2032
 8523TIP3    H125491   0.728   5.889   2.751  0.7644 -0.6230  0.3402
 8523TIP3    H225492   0.705   5.816   2.621  1.5913  0.6112 -0.5069
 8524TIP3   OH225493   7.069   6.669   4.279  0.1693 -0.3705 -0.3772
 8524TIP3    H125494   6.994   6.710   4.321 -0.5166  0.4911 -2.3743
 8524TIP3    H225495   7.049   6.575   4.282  0.3192 -0.3502  1.5203
 8525TIP3   OH225496   8.243   5.229   3.076 -0.1245  0.0552 -0.0692
 8525TIP3    H125497   8.205   5.252   2.991 -0.5430  1.8353  0.5686
 8525TIP3    H225498   8.196   5.285   3.139  0.9541 -0.4352  1.1991
 8526TIP3   OH225499   6.846   5.216   4.558  0.3184  0.3313  0.1624
 8526TIP3    H125500   6.836   5.188   4.649  0.5392 -2.7636 -0.7158
 8526TIP3    H225501   6.938   5.202   4.538  0.5293  2.0845 -0.2496
 8527TIP3   OH225502   8.385   3.572   3.911  0.0860  0.8032  0.1138
 8527TIP3    H125503   8.388   3.605   4.000 -0.2785  0.1965  0.3505
 8527TIP3    H225504   8.368   3.649   3.857  0.4467  1.1881  0.5538
 8528TIP3   OH225505   0.581   5.003   3.276  0.0165 -0.4565 -0.8068
 8528TIP3    H125506   0.666   4.982   3.237  0.5068 -1.1707  0.5919
 8528TIP3    H225507   0.532   4.921   3.273  1.4664 -1.6345  3.4981
 8529TIP3   OH225508   1.445   4.433   1.851 -0.1452  0.0998  0.1913
 8529TIP3    H125509   1.516   4.495   1.835 -0.5907  0.4383 -0.4918
 8529TIP3    H225510   1.484   4.347   1.839  0.0312  0.2973 -0.6254
 8530TIP3   OH225511   0.926   2.704   4.848 -0.2546 -0.5338  0.8369
 8530TIP3    H125512   0.907   2.621   4.892 -0.1034 -0.3537  1.2387
 8530TIP3    H225513   0.876   2.769   4.897  0.2469 -0.2695  0.9984
 8531TIP3   OH225514   5.645   2.767   3.807 -0.0544 -0.1730  0.3000
 8531TIP3    H125515   5.698   2.813   3.872  1.0620  0.8700 -1.3145
 8531TIP3    H225516   5.682   2.679   3.804  1.1277  0.3285 -0.2773
 8532TIP3   OH225517   8.613   4.523   3.936  0.3873 -0.4454  0.0140
 8532TIP3    H125518   8.527   4.509   3.897  1.1050 -1.8888 -1.1000
 8532TIP3    H225519   8.596   4.572   4.017 -1.2940  0.8539 -1.1087
 8533TIP3   OH225520   0.401   4.841   3.594  0.0792 -0.3423 -0.4947
 8533TIP3    H125521   0.370   4.804   3.511 -1.5459  0.2930 -0.1934
 8533TIP3    H225522   0.340   4.913   3.612  0.5951 -0.2900  1.0965
 8534TIP3   OH225523   1.108   2.453   2.973 -0.5148 -0.2011 -0.5634
 8534TIP3    H125524   1.154   2.537   2.979 -1.1211  0.1144 -0.2412
 8534TIP3    H225525   1.088   2.443   2.880  1.2439 -0.9098 -0.8734
 8535TIP3   OH225526   8.862   3.134   3.752 -0.3429 -0.1255  0.2237
 8535TIP3    H125527   8.907   3.210   3.715 -1.1452  0.7676  1.0030
 8535TIP3    H225528   8.787   3.120   3.694 -0.3293 -0.1586  0.2141
 8536TIP3   OH225529   7.173   4.759   3.853  0.2983  0.3797  0.4924
 8536TIP3    H125530   7.167   4.667   3.880 -0.6942 -0.0761 -1.1976
 8536TIP3    H225531   7.262   4.785   3.876  0.5692 -0.9879  1.0469
 8537TIP3   OH225532   8.443   2.013   4.076 -0.0762  0.1621 -0.3547
 8537TIP3    H125533   8.379   2.052   4.136  0.0521 -0.1081 -0.0436
 8537TIP3    H225534   8.528   2.044   4.108 -0.0392  0.3823 -0.6656
 8538TIP3   OH225535   1.171   5.329   5.281 -0.2916 -0.1704 -0.2819
 8538TIP3    H125536   1.256   5.324   5.236  0.3186  0.0934  0.8335
 8538TIP3    H225537   1.191   5.369   5.365 -1.4639 -0.5233  0.1676
 8539TIP3   OH225538   7.549   7.790   2.711 -0.0089  0.1283  0.3955
 8539TIP3    H125539   7.485   7.843   2.662  0.4839 -0.7439 -1.2330
 8539TIP3    H225540   7.605   7.853   2.754 -1.4533  0.9159  1.1729
 8540TIP3   OH225541   6.895   7.008   0.248 -0.1822  0.1518  0.1369
 8540TIP3    H125542   6.925   6.919   0.229  2.7635  1.4075 -1.5733
 8540TIP3    H225543   6.945   7.035   0.325 -0.3328  0.6586  0.0616
 8541TIP3   OH225544   0.750   4.316   5.248 -0.2202 -0.2099  0.1681
 8541TIP3    H125545   0.691   4.391   5.240 -1.0178 -0.8807 -0.4052
 8541TIP3    H225546   0.771   4.310   5.341 -1.4873 -0.2757  0.4571
 8542TIP3   OH225547   7.674   4.407   4.401 -0.1690 -0.1085  0.1433
 8542TIP3    H125548   7.598   4.374   4.352 -0.3091  3.0520 -1.9385
 8542TIP3    H225549   7.749   4.359   4.364 -0.6574 -0.0973 -0.8805
 8543TIP3   OH225550   0.449   7.187   2.423 -0.7759  0.3895 -0.1435
 8543TIP3    H125551   0.384   7.132   2.378 -1.6396  1.5375 -0.3431
 8543TIP3    H225552   0.528   7.134   2.426 -1.7655 -1.0889  0.2081
 8544TIP3   OH225553   7.752   2.852   5.664 -0.3454  0.1611  0.2401
 8544TIP3    H125554   7.795   2.776   5.625  0.1017  0.6117 -0.1491
 8544TIP3    H225555   7.811   2.925   5.647 -0.5120  0.5089  1.0853
 8545TIP3   OH225556   8.470   5.439   1.319  0.3281 -1.1517  0.2782
 8545TIP3    H125557   8.413   5.461   1.393 -1.8264  0.4075 -1.7487
 8545TIP3    H225558   8.555   5.477   1.342 -0.5223  0.0073  1.5995
 8546TIP3   OH225559   6.412   4.853   1.644 -0.4791 -0.3097 -0.4551
 8546TIP3    H125560   6.328   4.810   1.631 -1.1435  0.9634 -0.5224
 8546TIP3    H225561   6.411   4.880   1.736  0.5287 -1.6711 -0.0346
 8547TIP3   OH225562   8.593   6.462   4.318  0.5722  0.1389 -0.1288
 8547TIP3    H125563   8.514   6.410   4.336  0.8103 -1.1144 -2.4570
 8547TIP3    H225564   8.559   6.548   4.294 -0.3108 -1.0118 -3.3522
 8548TIP3   OH225565   3.454   5.148   5.025 -0.3711  0.6541  0.1122
 8548TIP3    H125566   3.468   5.227   5.076  1.5278 -0.7296  1.8195
 8548TIP3    H225567   3.366   5.118   5.050  0.3634  0.2316  2.2908
 8549TIP3   OH225568   7.354   4.628   5.304  0.5837  0.1174 -0.2922
 8549TIP3    H125569   7.269   4.590   5.281  1.2192 -0.5717 -1.5911
 8549TIP3    H225570   7.355   4.629   5.399  0.0899 -2.1464 -0.2266
 8550TIP3   OH225571   2.104   5.411   4.900  0.1939  0.3540 -0.3521
 8550TIP3    H125572   2.014   5.441   4.883  0.5580  1.0362 -1.1768
 8550TIP3    H225573   2.147   5.416   4.814  0.9356 -0.2423 -0.0186
 8551TIP3   OH225574   8.414   6.203   5.285 -0.5778  0.4777  0.0308
 8551TIP3    H125575   8.421   6.110   5.308 -2.4742  0.5494  0.9513
 8551TIP3    H225576   8.504   6.236   5.293 -0.5782 -0.2058  4.4381
 8552TIP3   OH225577  -0.017   5.402   3.639  0.3271  0.1108  0.2523
 8552TIP3    H125578   0.073   5.409   3.608  0.5876 -0.0695  0.9443
 8552TIP3    H225579  -0.034   5.485   3.683 -0.3096  0.6809 -1.0453
 8553TIP3   OH225580   8.611   8.184   4.165  0.2404  0.2995  0.1988
 8553TIP3    H125581   8.581   8.118   4.228 -0.6614  0.6746  0.1678
 8553TIP3    H225582   8.680   8.231   4.211 -0.5435  0.6951  0.9776
 8554TIP3   OH225583   8.769   5.647   4.224 -0.1231 -0.0841  0.4595
 8554TIP3    H125584   8.765   5.553   4.206  2.0435  0.0692 -0.9306
 8554TIP3    H225585   8.763   5.652   4.320  1.4172 -1.7599  0.6809
 8555TIP3   OH225586   8.301   6.025   5.009  0.5382  0.2293 -0.4779
 8555TIP3    H125587   8.324   6.040   4.917  1.0540 -0.2014 -0.4199
 8555TIP3    H225588   8.241   6.097   5.030 -2.8309 -1.9033 -2.3265
 8556TIP3   OH225589   0.093   7.315   2.369  0.1807  0.4614  0.1819
 8556TIP3    H125590   0.122   7.328   2.279 -1.1165 -0.2107 -0.3386
 8556TIP3    H225591   0.107   7.400   2.411 -0.7795  1.2569 -1.0814
 8557TIP3   OH225592   8.778   3.747   4.097  0.1429 -0.1581 -0.5242
 8557TIP3    H125593   8.792   3.704   4.181 -0.6276 -0.6566 -0.6456
 8557TIP3    H225594   8.832   3.698   4.035  0.5748  0.1016 -0.3609
 8558TIP3   OH225595   0.809   5.995   4.799  0.1656 -0.3614  0.4654
 8558TIP3    H125596   0.880   6.057   4.779 -0.0598 -0.8922 -2.1597
 8558TIP3    H225597   0.730   6.049   4.799  0.1142 -0.4281 -0.5945
 8559TIP3   OH225598   0.568   4.328   3.809 -0.2537 -0.1863  0.1133
 8559TIP3    H125599   0.549   4.333   3.902  0.3664  0.2698  0.2209
 8559TIP3    H225600   0.607   4.241   3.798  0.6662  0.1667  0.4782
 8560TIP3   OH225601   1.328   7.162   2.861  0.3523 -0.3323  0.1224
 8560TIP3    H125602   1.385   7.216   2.806  1.7459 -2.6119 -0.7572
 8560TIP3    H225603   1.387   7.102   2.906 -1.1829 -1.4481  0.7152
 8561TIP3   OH225604   1.470   5.323   4.506 -0.1118  0.0320  0.5880
 8561TIP3    H125605   1.381   5.315   4.474  0.6306  1.2017 -1.8410
 8561TIP3    H225606   1.512   5.240   4.483  0.2522  0.6388 -0.9750
 8562TIP3   OH225607   0.403   5.694   1.913  0.6472  0.4693 -0.1494
 8562TIP3    H125608   0.435   5.677   2.001 -0.7805  2.3341  0.7398
 8562TIP3    H225609   0.333   5.629   1.900  1.8928 -0.8401 -0.5396
 8563TIP3   OH225610   2.685   4.838   6.345  0.3510 -0.3612 -0.4716
 8563TIP3    H125611   2.752   4.774   6.370  0.8218  0.1034 -0.5284
 8563TIP3    H225612   2.603   4.800   6.375  0.5158 -1.4305 -1.3263
 8564TIP3   OH225613   7.114   4.227   3.125 -1.1633  0.9953 -0.3304
 8564TIP3    H125614   7.186   4.219   3.187 -0.8849  1.3513 -0.6080
 8564TIP3    H225615   7.110   4.142   3.082 -1.7386  0.5519  0.5924
 8565TIP3   OH225616   0.450   4.061   6.094  0.4130 -0.2309  0.1486
 8565TIP3    H125617   0.425   3.990   6.152 -0.3310 -0.6664 -0.6866
 8565TIP3    H225618   0.501   4.017   6.024 -0.5026 -0.0290 -0.6530
 8566TIP3   OH225619   8.345   5.989   6.384  0.3685  0.0853 -0.0078
 8566TIP3    H125620   8.362   6.066   6.331 -1.1025  0.5154  0.1213
 8566TIP3    H225621   8.392   5.918   6.340  0.4843  0.7627 -0.9698
 8567TIP3   OH225622   0.557   6.141   6.090 -0.2193  0.1065 -0.1721
 8567TIP3    H125623   0.560   6.152   6.185 -1.2480  0.0673 -0.1314
 8567TIP3    H225624   0.633   6.191   6.058 -0.8369  1.5446  0.5348
 8568TIP3   OH225625   1.407   5.668   4.730 -0.2026 -0.7779  0.3418
 8568TIP3    H125626   1.472   5.629   4.671 -0.9424  0.6186 -1.4616
 8568TIP3    H225627   1.326   5.621   4.711 -0.4764 -0.2236  0.1166
 8569TIP3   OH225628   1.349   4.404   5.378 -0.2960  0.0321 -0.3597
 8569TIP3    H125629   1.438   4.386   5.348  0.2636  0.6214  0.9356
 8569TIP3    H225630   1.340   4.499   5.370 -0.9298 -0.0646 -0.8090
 8570TIP3   OH225631   1.037   5.231   6.502 -0.1461  0.8446  0.4617
 8570TIP3    H125632   1.099   5.292   6.461 -0.1803  0.1760 -0.6026
 8570TIP3    H225633   1.077   5.145   6.488 -1.1929  0.4346 -0.0197
 8571TIP3   OH225634   5.041   0.628   0.167 -0.0281 -0.7322  0.4503
 8571TIP3    H125635   4.985   0.620   0.089 -0.1402 -0.9383  0.5499
 8571TIP3    H225636   4.982   0.653   0.237 -0.2036 -2.0807  0.8075
 8572TIP3   OH225637   8.378   6.689   4.123 -0.8803  0.1848  0.1269
 8572TIP3    H125638   8.434   6.629   4.075  0.6697  1.4225  0.3503
 8572TIP3    H225639   8.324   6.731   4.056 -0.6183 -0.0588 -0.2373
 8573TIP3   OH225640   2.590   5.808   4.217 -0.3016  0.4926  0.5976
 8573TIP3    H125641   2.589   5.871   4.145 -1.0112 -0.5372 -0.2928
 8573TIP3    H225642   2.671   5.759   4.205  0.2557  1.2122  1.2968
 8574TIP3   OH225643   1.700   8.232   5.629 -0.1229 -0.3125 -0.0612
 8574TIP3    H125644   1.627   8.179   5.660  0.2068 -1.0918 -0.6011
 8574TIP3    H225645   1.770   8.169   5.611 -0.3938  0.0744 -2.6907
 8575TIP3   OH225646   0.790   3.973   4.929  0.6008 -0.5121  0.8678
 8575TIP3    H125647   0.724   4.002   4.993  1.3319  2.4273  0.3791
 8575TIP3    H225648   0.769   4.021   4.849  1.2148 -2.2577 -0.3744
 8576TIP3   OH225649   0.833   4.816   5.270 -0.0682 -0.2511 -0.1743
 8576TIP3    H125650   0.929   4.813   5.262  0.0996  2.3172  0.3709
 8576TIP3    H225651   0.814   4.768   5.350  0.6930 -1.3906 -0.6654
 8577TIP3   OH225652   1.681   4.018   4.615  0.3049  0.3867 -0.0866
 8577TIP3    H125653   1.707   4.018   4.523  0.7655 -1.0060  0.0338
 8577TIP3    H225654   1.589   4.044   4.614 -0.2609 -1.5700 -1.1263
 8578TIP3   OH225655   1.309   4.203   7.286 -0.0115  0.4306 -0.6358
 8578TIP3    H125656   1.265   4.137   7.232  0.4918  0.7666 -1.4752
 8578TIP3    H225657   1.343   4.266   7.223  2.1428 -0.1034 -0.0434
 8579TIP3   OH225658   1.903   7.382   5.716  0.0380 -0.4023  0.2776
 8579TIP3    H125659   1.855   7.305   5.746 -0.8002 -0.4155 -1.0433
 8579TIP3    H225660   1.992   7.351   5.701 -0.3673 -1.1968 -0.5462
 8580TIP3   OH225661   0.936   5.863   5.332  0.2487  0.3184  0.5554
 8580TIP3    H125662   0.856   5.854   5.383  0.4601  1.4973  1.1033
 8580TIP3    H225663   0.906   5.881   5.243 -0.0947  0.0681  0.6171
 8581TIP3   OH225664   3.041   4.518   7.067  0.3348 -0.4630 -0.1549
 8581TIP3    H125665   3.058   4.543   6.976  1.5849 -1.2687 -0.1397
 8581TIP3    H225666   2.951   4.547   7.083  1.1598  2.5286 -0.6639
 8582TIP3   OH225667   1.985   5.464   5.593 -0.2200  0.1770 -0.0552
 8582TIP3    H125668   2.020   5.381   5.562 -1.1661 -0.1205 -0.3047
 8582TIP3    H225669   2.048   5.493   5.660  0.9956  0.0816 -1.1467
 8583TIP3   OH225670   7.943   6.514   3.841 -0.3989 -1.0872 -0.1748
 8583TIP3    H125671   7.897   6.451   3.896 -1.4691 -0.6539 -0.5716
 8583TIP3    H225672   7.907   6.599   3.866  2.1922 -0.4000  1.5444
 8584TIP3   OH225673   1.222   4.437   5.970  0.5773 -0.0613  0.0638
 8584TIP3    H125674   1.289   4.482   5.918  0.5515 -0.4157 -0.2810
 8584TIP3    H225675   1.269   4.371   6.020  0.7613  1.0459  1.3839
 8585TIP3   OH225676   6.794   6.304   6.056 -0.2278  0.1076 -0.6107
 8585TIP3    H125677   6.712   6.255   6.061  0.9360 -1.8229 -0.0308
 8585TIP3    H225678   6.861   6.238   6.044  1.2904  1.6552 -0.8955
 8586TIP3   OH225679   0.492   6.393   4.459 -0.1548  0.3411  0.5389
 8586TIP3    H125680   0.561   6.358   4.404  0.7866  0.4806  1.5955
 8586TIP3    H225681   0.423   6.327   4.458  0.5103 -0.3484  0.4530
 8587TIP3   OH225682   1.562   6.899   2.835 -0.0902 -0.5327  0.3246
 8587TIP3    H125683   1.495   6.833   2.853  1.5361 -1.6381  2.3874
 8587TIP3    H225684   1.623   6.856   2.775  1.1754 -1.0705  1.9646
 8588TIP3   OH225685   1.650   5.188   4.302 -0.1133 -0.4610 -0.0238
 8588TIP3    H125686   1.705   5.116   4.333 -1.2428  0.1937  3.7016
 8588TIP3    H225687   1.696   5.267   4.329 -0.4030  0.1850 -1.3909
 8589TIP3   OH225688   2.345   8.400   2.875  0.6381  0.3730 -0.2158
 8589TIP3    H125689   2.299   8.387   2.792 -0.5790  0.4832  0.4264
 8589TIP3    H225690   2.350   8.313   2.913  0.5327  0.4351 -0.0613
 8590TIP3   OH225691   8.907   5.479   5.436 -0.1659 -0.1439 -0.5323
 8590TIP3    H125692   8.874   5.517   5.354 -0.4980  0.3198 -0.1826
 8590TIP3    H225693   8.896   5.384   5.423 -0.0328 -0.0881 -1.1024
 8591TIP3   OH225694   0.247   7.819   2.408  0.1567 -0.0112 -0.0169
 8591TIP3    H125695   0.268   7.864   2.490 -1.3932  1.9103 -0.6298
 8591TIP3    H225696   0.170   7.865   2.375 -1.7112 -3.3716 -0.5388
 8592TIP3   OH225697   1.207   7.030   4.252  0.1099  0.1301 -0.0662
 8592TIP3    H125698   1.237   7.108   4.299  0.0438  1.0167 -1.4489
 8592TIP3    H225699   1.126   7.057   4.210  0.2897 -0.5589 -0.8723
 8593TIP3   OH225700   0.141   6.320   6.185 -0.4054  0.2717  0.0099
 8593TIP3    H125701   0.102   6.266   6.117  0.0154 -0.7831  0.6051
 8593TIP3    H225702   0.218   6.359   6.143 -1.7449  1.9282 -0.9959
 8594TIP3   OH225703   2.168   6.506   6.042 -0.6048 -0.0525 -0.1902
 8594TIP3    H125704   2.200   6.431   6.092 -2.1863 -0.5680  0.0588
 8594TIP3    H225705   2.238   6.525   5.980  0.8637 -0.1669  1.4002
 8595TIP3   OH225706   0.747   6.494   5.365  0.5981 -0.3620 -0.5288
 8595TIP3    H125707   0.811   6.550   5.409  2.1410 -1.7456 -0.9312
 8595TIP3    H225708   0.795   6.413   5.346 -1.2897 -1.4468 -0.8403
 8596TIP3   OH225709   0.201   4.398   4.798 -0.3113 -0.3682 -0.2174
 8596TIP3    H125710   0.295   4.406   4.809 -0.4957  0.3633  0.8662
 8596TIP3    H225711   0.184   4.431   4.710  0.4813 -0.8564 -0.5546
 8597TIP3   OH225712   0.446   5.635   5.360  0.2341  0.2984  0.4526
 8597TIP3    H125713   0.419   5.547   5.387  0.8739  1.0066  3.7313
 8597TIP3    H225714   0.539   5.625   5.338  0.5475  0.2777  1.7068
 8598TIP3   OH225715   8.268   6.809   3.311  0.0147  0.2979  0.1225
 8598TIP3    H125716   8.349   6.845   3.348 -0.5101  0.1060  1.4923
 8598TIP3    H225717   8.292   6.720   3.283  0.3680  0.3668  0.2049
 8599TIP3   OH225718   0.077   7.521   4.580  0.1965  0.1270 -0.1349
 8599TIP3    H125719   0.135   7.479   4.644 -0.7924 -0.1604  0.5707
 8599TIP3    H225720   0.075   7.613   4.607 -0.8760 -0.1504  0.7404
 8600TIP3   OH225721   0.519   4.405   4.925  0.4408  0.0810 -0.1000
 8600TIP3    H125722   0.599   4.440   4.964  0.0850  0.3690  0.3893
 8600TIP3    H225723   0.470   4.483   4.898 -0.8856  0.0505  2.0433
 8601TIP3   OH225724   0.258   4.055   5.265 -0.1040  0.0727 -0.6121
 8601TIP3    H125725   0.167   4.083   5.255 -0.2639 -0.7303 -1.4944
 8601TIP3    H225726   0.301   4.085   5.185  1.1745  3.3382  1.2379
 8602TIP3   OH225727   7.561   5.700   7.123  0.6563  0.6921  0.2761
 8602TIP3    H125728   7.611   5.681   7.044 -0.4016  0.1490 -0.2738
 8602TIP3    H225729   7.519   5.784   7.106  0.4220  0.5718  0.2496
 8603TIP3   OH225730   8.830   2.706   2.669  0.2793 -0.4590 -0.6181
 8603TIP3    H125731   8.899   2.766   2.641 -1.1092  0.4742 -2.1219
 8603TIP3    H225732   8.768   2.704   2.596 -0.4250 -2.6411 -0.0152
 8604TIP3   OH225733   1.131   8.028   3.231  0.3673 -0.3579 -0.1099
 8604TIP3    H125734   1.051   7.999   3.187  0.3993 -1.9323  0.8228
 8604TIP3    H225735   1.195   8.037   3.160 -0.9149  2.0015 -0.9951
 8605TIP3   OH225736   2.490   5.119   5.857  0.0619 -0.6610 -0.5170
 8605TIP3    H125737   2.557   5.187   5.870 -1.8246  0.9496  1.1775
 8605TIP3    H225738   2.488   5.071   5.939 -1.7566  0.1561 -0.0642
 8606TIP3   OH225739   8.681   6.727   4.591 -0.1431 -0.1395 -0.4656
 8606TIP3    H125740   8.651   6.764   4.508  0.3612  0.7639 -0.2554
 8606TIP3    H225741   8.772   6.754   4.598 -0.3085  0.1796  0.5902
 8607TIP3   OH225742   7.386   5.028   6.658 -0.6303 -0.1463 -0.1099
 8607TIP3    H125743   7.406   4.935   6.665  0.5358  0.0840 -0.2199
 8607TIP3    H225744   7.429   5.067   6.735  1.3496  0.6796 -1.5947
 8608TIP3   OH225745   8.619   5.055   4.141  0.4963  0.4113  0.6381
 8608TIP3    H125746   8.682   4.994   4.181  0.1987 -1.0592 -1.0753
 8608TIP3    H225747   8.666   5.092   4.066  0.4138  1.7445  1.2341
 8609TIP3   OH225748   1.159   4.486   6.516 -0.3960  0.4233 -0.0115
 8609TIP3    H125749   1.108   4.420   6.467 -0.2367  0.4052 -0.1544
 8609TIP3    H225750   1.219   4.523   6.450  1.4060 -1.1954  0.6572
 8610TIP3   OH225751   7.550   5.601   4.108  0.4348  0.0926 -0.5378
 8610TIP3    H125752   7.479   5.616   4.171 -0.1359 -2.3649 -0.5255
 8610TIP3    H225753   7.554   5.681   4.056 -3.4542 -0.2826 -1.5801
 8611TIP3   OH225754   1.781   6.040   4.942  0.8177  0.6662 -0.1961
 8611TIP3    H125755   1.694   6.070   4.916 -0.3708 -2.9611 -0.6725
 8611TIP3    H225756   1.793   6.076   5.030 -1.6816  0.2040  0.3688
 8612TIP3   OH225757   8.365   5.794   5.150 -0.4836 -0.6771  0.1333
 8612TIP3    H125758   8.324   5.869   5.106 -0.9915 -1.4823 -0.7698
 8612TIP3    H225759   8.308   5.720   5.130  1.0669 -1.7020 -0.6081
 8613TIP3   OH225760   0.428   6.096   5.322  0.1084  0.1591 -0.1162
 8613TIP3    H125761   0.402   6.020   5.373 -0.6488  0.4592 -0.0612
 8613TIP3    H225762   0.366   6.165   5.346 -0.0578  0.3923 -1.2044
 8614TIP3   OH225763   7.397   0.822   1.335 -0.1346  0.1599  0.0267
 8614TIP3    H125764   7.460   0.759   1.299  0.7672  1.0006  0.1352
 8614TIP3    H225765   7.418   0.827   1.428 -0.7574 -0.0060  0.1801
 8615TIP3   OH225766   8.050   7.250   3.844  0.2943 -0.2777  0.1519
 8615TIP3    H125767   7.964   7.213   3.827 -0.5244  1.3016  0.7828
 8615TIP3    H225768   8.042   7.292   3.930  1.3939  0.7349 -0.2216
 8616TIP3   OH225769   0.119   7.142   3.171 -0.5393 -0.8707  0.2142
 8616TIP3    H125770   0.183   7.150   3.241  0.3256 -0.7423 -0.5723
 8616TIP3    H225771   0.099   7.232   3.147  0.7783 -0.9036 -1.1185
 8617TIP3   OH225772   0.594   5.267   3.313 -0.3930  0.6896 -0.7134
 8617TIP3    H125773   0.688   5.287   3.317 -0.2113 -0.4750  1.5397
 8617TIP3    H225774   0.591   5.171   3.313 -1.6587  0.7085  1.7711
 8618TIP3   OH225775   1.246   5.283   3.984 -0.3392 -0.1683  0.0068
 8618TIP3    H125776   1.276   5.216   3.922 -2.6763 -0.9941 -0.3032
 8618TIP3    H225777   1.294   5.264   4.065 -0.7602 -2.0944 -0.1601
 8619TIP3   OH225778   1.721   5.889   5.292  0.1104  0.0375 -0.0908
 8619TIP3    H125779   1.678   5.874   5.377  0.3138 -0.9363 -0.1629
 8619TIP3    H225780   1.654   5.935   5.240 -0.3307 -0.1608  0.2940
 8620TIP3   OH225781   0.372   6.684   4.547  0.3219 -0.2770  0.7450
 8620TIP3    H125782   0.310   6.631   4.497  0.9197  0.7723 -1.1471
 8620TIP3    H225783   0.451   6.629   4.552  0.7619  0.1736 -0.7677
 8621TIP3   OH225784   2.046   5.607   3.839 -0.9570 -0.5507  0.7232
 8621TIP3    H125785   2.022   5.558   3.760 -0.7689  0.4198  0.0540
 8621TIP3    H225786   2.119   5.558   3.876  0.9832  0.6319 -1.4022
 8622TIP3   OH225787   0.704   5.385   4.882 -0.1843  0.1588 -0.0437
 8622TIP3    H125788   0.717   5.454   4.947  0.9006  0.7905 -0.9279
 8622TIP3    H225789   0.633   5.417   4.827  0.7255  0.8475 -0.8224
 8623TIP3   OH225790   8.789   5.636   4.510  0.6127  0.5911 -0.2956
 8623TIP3    H125791   8.837   5.596   4.582  0.3962 -0.2038 -0.5834
 8623TIP3    H225792   8.814   5.728   4.512 -1.0723  1.0439  2.1776
 8624TIP3   OH225793   0.548   7.025   5.166  0.6323  0.2887 -0.0528
 8624TIP3    H125794   0.611   7.043   5.237 -0.9667 -0.2989  1.5426
 8624TIP3    H225795   0.524   7.112   5.133 -1.2658  0.7966  2.5177
 8625TIP3   OH225796   0.472   6.047   5.683 -0.5778 -0.6123 -0.0842
 8625TIP3    H125797   0.529   6.124   5.691 -0.4366 -0.7294  0.0193
 8625TIP3    H225798   0.399   6.066   5.741 -0.7440 -0.3723 -0.3664
 8626TIP3   OH225799   2.569   4.489   4.596  0.1495 -0.0649 -0.5446
 8626TIP3    H125800   2.589   4.575   4.633  0.4705 -0.1031 -0.6325
 8626TIP3    H225801   2.603   4.492   4.507 -0.2165 -0.1367 -0.6902
 8627TIP3   OH225802   8.566   5.279   5.940  0.2156 -0.1194  0.2206
 8627TIP3    H125803   8.634   5.345   5.953 -1.1873  1.0968  1.5215
 8627TIP3    H225804   8.519   5.307   5.862 -1.3046  1.2641  1.5993
 8628TIP3   OH225805   5.569   0.581   0.365  0.3904  0.3841 -0.1163
 8628TIP3    H125806   5.555   0.505   0.422  2.6935 -1.4037 -1.8095
 8628TIP3    H225807   5.524   0.560   0.284  2.4488  0.0116 -1.2073
 8629TIP3   OH225808   7.184   5.746   4.669  0.0647 -0.3306 -0.2410
 8629TIP3    H125809   7.136   5.679   4.718  1.5110  0.1387  1.8877
 8629TIP3    H225810   7.133   5.758   4.588 -2.2491 -1.3085  1.0236
 8630TIP3   OH225811   8.288   6.191   3.716 -0.0340 -0.4855 -0.3745
 8630TIP3    H125812   8.233   6.268   3.706 -0.6775 -0.2952  3.6821
 8630TIP3    H225813   8.376   6.221   3.697 -0.7126  0.3645 -2.2653
 8631TIP3   OH225814   2.801   3.708   6.665  0.0997 -0.2104  0.4471
 8631TIP3    H125815   2.816   3.802   6.677 -0.8629 -0.2573  2.2787
 8631TIP3    H225816   2.885   3.668   6.687  0.8089  0.2730 -1.3234
 8632TIP3   OH225817   0.964   3.949   5.585  0.1775 -0.2141  0.0715
 8632TIP3    H125818   0.924   3.946   5.498  0.4574 -0.8172 -0.0355
 8632TIP3    H225819   0.903   4.002   5.637  0.3997  0.8046 -0.6852
 8633TIP3   OH225820   0.685   7.581   5.217  0.1673  0.2584  0.1777
 8633TIP3    H125821   0.725   7.506   5.172 -0.4895 -0.1797  0.3123
 8633TIP3    H225822   0.751   7.650   5.212  1.0936 -0.5831  0.7697
 8634TIP3   OH225823   1.229   7.796   5.195  0.5374 -0.5379 -0.1755
 8634TIP3    H125824   1.240   7.795   5.290 -0.4831 -1.3549 -0.0495
 8634TIP3    H225825   1.308   7.839   5.162  0.9777 -0.3938  1.0262
 8635TIP3   OH225826   1.283   7.739   5.836  0.1131 -0.0267  0.0409
 8635TIP3    H125827   1.316   7.767   5.921 -2.0987  2.0240  0.2787
 8635TIP3    H225828   1.361   7.724   5.784  1.4703  1.2430  1.6391
 8636TIP3   OH225829   0.929   6.096   4.336  0.3284 -0.4811  0.0086
 8636TIP3    H125830   0.965   6.152   4.405  0.7430 -1.8456  0.9296
 8636TIP3    H225831   0.994   6.099   4.266  0.1609  0.4863 -0.1084
 8637TIP3   OH225832   0.441   5.168   4.684  1.1854  0.3796  0.8384
 8637TIP3    H125833   0.455   5.168   4.778 -2.2633 -0.8475  1.4041
 8637TIP3    H225834   0.353   5.204   4.672  0.6495 -1.6342 -1.7371
 8638TIP3   OH225835   0.855   5.891   5.069  0.1959 -0.2180 -0.4556
 8638TIP3    H125836   0.892   5.977   5.053  0.5400  0.0316  1.6344
 8638TIP3    H225837   0.863   5.846   4.984  2.4746  0.8661 -0.8583
 8639TIP3   OH225838   6.259   5.005   3.768  0.5725  0.1637 -0.6244
 8639TIP3    H125839   6.165   4.987   3.774  0.8162 -0.6942  0.7633
 8639TIP3    H225840   6.265   5.076   3.704 -0.9359 -0.4053 -1.4272
 8640TIP3   OH225841   1.803   5.940   5.702  0.1511  0.2145  0.0772
 8640TIP3    H125842   1.841   6.027   5.712 -1.7263  0.9793  0.9032
 8640TIP3    H225843   1.871   5.888   5.659  1.8210  1.7032  0.8666
 8641TIP3   OH225844   1.107   4.754   5.267  0.8591 -0.0809 -0.0594
 8641TIP3    H125845   1.081   4.670   5.228 -0.3098  1.1126 -1.9107
 8641TIP3    H225846   1.114   4.814   5.193 -0.2773  1.9631  1.4430
 8642TIP3   OH225847   0.236   5.836   6.854 -1.2176  0.0563  0.3492
 8642TIP3    H125848   0.194   5.762   6.809 -1.4461 -0.9208  2.1287
 8642TIP3    H225849   0.279   5.796   6.930  0.0520  1.5356  0.4267
 8643TIP3   OH225850   8.820   2.309   5.116  0.2267  0.2173 -0.5569
 8643TIP3    H125851   8.900   2.302   5.168 -0.2945  2.2059  0.5369
 8643TIP3    H225852   8.788   2.397   5.132 -2.8832 -0.9479  0.0475
 8644TIP3   OH225853   6.326   1.709   0.042  0.1280 -0.4739 -0.1521
 8644TIP3    H125854   6.346   1.628   0.090 -1.4629 -0.1866  1.0485
 8644TIP3    H225855   6.333   1.684  -0.050  2.8873 -1.1336  0.1819
 8645TIP3   OH225856   2.454   3.294   6.525  0.5593 -0.1401  0.5705
 8645TIP3    H125857   2.537   3.338   6.544 -0.2687  1.8578 -0.2322
 8645TIP3    H225858   2.473   3.237   6.451  1.1670  0.4635  0.2564
 8646TIP3   OH225859   0.095   7.124   4.735  0.2293 -0.1417  0.3846
 8646TIP3    H125860   0.018   7.090   4.782  0.2015 -1.5690 -0.6525
 8646TIP3    H225861   0.073   7.112   4.643  0.9008  1.2644  0.0394
 8647TIP3   OH225862   1.281   4.806   5.774 -0.6369  0.2058 -0.0835
 8647TIP3    H125863   1.338   4.736   5.742 -1.0314 -0.7523  1.2639
 8647TIP3    H225864   1.218   4.818   5.704 -1.1768 -1.5066  0.0659
 8648TIP3   OH225865   1.566   4.090   5.354 -0.6386 -0.2533  0.0025
 8648TIP3    H125866   1.531   4.112   5.441 -1.5233  0.0460 -0.4244
 8648TIP3    H225867   1.528   4.156   5.296 -0.9329 -1.1266 -0.7979
 8649TIP3   OH225868   2.536   7.604   5.586  0.0694 -0.0695 -0.3966
 8649TIP3    H125869   2.445   7.616   5.559 -0.4245 -1.3314  0.6293
 8649TIP3    H225870   2.583   7.677   5.547 -0.8796 -0.9263 -3.2949
 8650TIP3   OH225871   2.213   4.625   7.182  1.0640  0.5276 -0.4431
 8650TIP3    H125872   2.265   4.703   7.202  1.5406  0.3212 -0.8482
 8650TIP3    H225873   2.217   4.618   7.087 -1.0359  1.4145 -0.6322
 8651TIP3   OH225874   0.559   2.712   5.989  0.1523  0.3703  0.7677
 8651TIP3    H125875   0.559   2.771   6.064  2.0387  0.2616  0.8755
 8651TIP3    H225876   0.625   2.646   6.010  0.8523  0.4678 -1.0789
 8652TIP3   OH225877   1.230   6.825   6.271 -0.3440 -0.1728 -0.1740
 8652TIP3    H125878   1.168   6.819   6.198  1.7919  0.6336 -2.1068
 8652TIP3    H225879   1.210   6.908   6.313  0.0598  0.5521 -1.3987
 8653TIP3   OH225880   7.845   7.612   3.088 -0.3078 -0.2911  0.3804
 8653TIP3    H125881   7.928   7.660   3.081 -0.0025 -0.7926  0.5433
 8653TIP3    H225882   7.806   7.642   3.170 -0.2170 -0.1615  0.3759
 8654TIP3   OH225883   7.828   1.846   0.018 -0.0087 -0.2167  0.3588
 8654TIP3    H125884   7.740   1.817  -0.005 -0.1713  1.4014 -1.1991
 8654TIP3    H225885   7.814   1.920   0.077  0.2696  0.5334 -0.4991
 8655TIP3   OH225886   0.431   5.733   5.077 -0.1225  1.0401  0.0106
 8655TIP3    H125887   0.385   5.700   5.155 -1.5330  1.9459 -0.4306
 8655TIP3    H225888   0.516   5.688   5.079 -0.5235  0.3115  1.5337
 8656TIP3   OH225889   0.794   5.242   5.739  0.2336 -0.2700  0.3750
 8656TIP3    H125890   0.876   5.247   5.788 -0.1020  0.9914  0.8319
 8656TIP3    H225891   0.781   5.149   5.722  2.2334 -0.3979 -0.5068
 8657TIP3   OH225892   8.577   4.803   5.468 -0.1593  0.0183 -0.3968
 8657TIP3    H125893   8.574   4.710   5.449 -0.7722  0.3221 -1.7872
 8657TIP3    H225894   8.670   4.825   5.468  0.0415 -0.7728  0.8908
 8658TIP3   OH225895   0.298   6.970   4.847 -0.1424 -0.2032 -0.1784
 8658TIP3    H125896   0.222   7.016   4.810 -0.1533 -0.3149 -0.2950
 8658TIP3    H225897   0.362   6.968   4.776  0.5477  1.2244  0.3941
 8659TIP3   OH225898   0.416   6.800   5.257  0.3454 -0.1451  0.1531
 8659TIP3    H125899   0.398   6.809   5.350  0.1208 -2.1401  0.3248
 8659TIP3    H225900   0.439   6.889   5.228 -3.1064  1.2198  1.3314
 8660TIP3   OH225901   1.554   3.694   4.848 -0.5388  0.0984  0.4560
 8660TIP3    H125902   1.598   3.754   4.908  1.6783 -0.5228 -0.4942
 8660TIP3    H225903   1.577   3.607   4.880  1.7429 -0.2546 -1.9789
 8661TIP3   OH225904   1.575   4.676   3.003 -0.1706 -0.0596 -0.0060
 8661TIP3    H125905   1.555   4.766   2.977 -0.5883 -0.0520  0.3355
 8661TIP3    H225906   1.627   4.641   2.931  0.9996  0.8316  0.4038
 8662TIP3   OH225907   1.648   4.796   5.407  0.0949  0.5213 -0.7300
 8662TIP3    H125908   1.695   4.731   5.356  2.1199  1.7415 -0.4921
 8662TIP3    H225909   1.687   4.789   5.495 -0.6228  1.1166 -0.3622
 8663TIP3   OH225910   3.586   4.445   5.232 -0.0662  0.8327 -0.8400
 8663TIP3    H125911   3.642   4.387   5.181 -1.2518  0.5875 -1.9008
 8663TIP3    H225912   3.602   4.532   5.196  0.0197  0.8339 -0.7977
 8664TIP3   OH225913   3.729   4.867   4.584 -0.0619 -0.1359 -0.1023
 8664TIP3    H125914   3.804   4.829   4.538  1.4801  1.9143  0.6290
 8664TIP3    H225915   3.689   4.926   4.520  0.7628  1.0414  0.4535
 8665TIP3   OH225916   0.389   5.953   4.931  0.1075 -1.0789  0.2567
 8665TIP3    H125917   0.391   5.864   4.967  1.3921 -1.7723 -1.4530
 8665TIP3    H225918   0.469   5.994   4.965 -0.0685 -0.8382  0.3796
 8666TIP3   OH225919   2.553   4.477   3.940  0.7838  0.3164 -0.2128
 8666TIP3    H125920   2.595   4.517   3.864  0.4238  0.0269 -0.5657
 8666TIP3    H225921   2.616   4.413   3.972  0.6181 -0.1045 -0.7298
 8667TIP3   OH225922   5.152   8.321   0.773  0.2902 -0.4752  0.3136
 8667TIP3    H125923   5.233   8.282   0.807  0.7774  0.8904  0.7241
 8667TIP3    H225924   5.178   8.358   0.688  0.5511  1.5999  1.2748
 8668TIP3   OH225925   2.175   5.115   5.326 -0.4843  0.2344  0.2233
 8668TIP3    H125926   2.120   5.040   5.301  1.2352 -0.7033 -0.9364
 8668TIP3    H225927   2.175   5.170   5.248  0.2295  0.2080  0.2035
 8669TIP3   OH225928   2.022   4.156   5.366  0.5153 -0.1546  0.3549
 8669TIP3    H125929   1.967   4.234   5.357  1.3949  0.5431  0.9462
 8669TIP3    H225930   2.071   4.152   5.284 -1.9566 -2.0197 -1.1127
 8670TIP3   OH225931   1.954   7.275   4.095 -0.1833  0.7923  0.1167
 8670TIP3    H125932   1.978   7.201   4.039 -1.4946  0.1246  0.4382
 8670TIP3    H225933   2.002   7.259   4.177  0.7682  1.1324 -0.3589
 8671TIP3   OH225934   2.641   4.036   5.270  0.3388 -0.1806  0.1958
 8671TIP3    H125935   2.625   3.948   5.235  0.1431  0.2661 -0.8681
 8671TIP3    H225936   2.708   4.023   5.337 -0.3159 -1.2635  0.6629
 8672TIP3   OH225937   0.748   4.609   5.069  0.2622 -0.1236 -0.5561
 8672TIP3    H125938   0.815   4.640   5.130  1.2936 -1.0221 -1.2082
 8672TIP3    H225939   0.744   4.677   5.001 -0.0784  0.3248 -0.0923
 8673TIP3   OH225940   8.498   6.621   5.057 -0.3678 -0.0920 -0.2091
 8673TIP3    H125941   8.567   6.613   4.991 -1.1122 -2.0545 -0.7845
 8673TIP3    H225942   8.521   6.557   5.124 -0.8174  0.3338  0.3588
 8674TIP3   OH225943   1.011   3.787   4.856 -0.8365 -0.0915  0.9371
 8674TIP3    H125944   0.965   3.868   4.882  0.7387  1.7799 -1.9189
 8674TIP3    H225945   1.099   3.797   4.892 -0.7462 -0.7297  0.8963
 8675TIP3   OH225946   0.161   5.561   5.649  0.2576  0.1057  0.0550
 8675TIP3    H125947   0.094   5.552   5.582 -0.4079 -0.2182  0.7520
 8675TIP3    H225948   0.222   5.489   5.632 -0.7162 -0.8819  0.7039
 8676TIP3   OH225949   0.183   6.590   5.741  0.0978  0.5568 -0.2485
 8676TIP3    H125950   0.161   6.547   5.659 -0.5447  1.1331 -0.3865
 8676TIP3    H225951   0.172   6.684   5.722 -1.2649  0.6282  0.8398
 8677TIP3   OH225952   8.125   4.760   6.269  0.0230  0.1094  0.1339
 8677TIP3    H125953   8.203   4.805   6.235  0.0121  0.7499  0.9553
 8677TIP3    H225954   8.080   4.729   6.190  0.9768 -0.0593 -0.3648
 8678TIP3   OH225955   0.108   2.161   6.790  0.0525 -0.3901 -0.0353
 8678TIP3    H125956   0.140   2.238   6.838  1.3354 -0.2610 -1.0486
 8678TIP3    H225957   0.187   2.111   6.771 -0.0673  0.7215 -4.0046
 8679TIP3   OH225958   1.347   4.238   6.562 -0.3935 -0.1087 -0.1997
 8679TIP3    H125959   1.366   4.213   6.472  2.0896 -1.6363  0.6823
 8679TIP3    H225960   1.339   4.333   6.559 -1.0920 -0.1999 -2.1418
 8680TIP3   OH225961   0.736   5.627   5.311 -0.5160 -0.2502 -0.5906
 8680TIP3    H125962   0.830   5.615   5.299 -0.7685 -1.4092 -1.5230
 8680TIP3    H225963   0.729   5.700   5.372  1.0178 -1.2105  0.7814
 8681TIP3   OH225964   1.159   3.813   6.621 -0.0406  0.0115 -0.3696
 8681TIP3    H125965   1.206   3.809   6.704  1.7326  0.4969 -1.3268
 8681TIP3    H225966   1.099   3.738   6.623  0.5293 -0.4109  1.0138
 8682TIP3   OH225967   1.962   3.779   3.664  0.6091 -0.3838 -0.4204
 8682TIP3    H125968   2.030   3.800   3.728 -0.7236  1.3583  0.4828
 8682TIP3    H225969   1.942   3.687   3.678  2.4816 -0.7979 -0.4177
 8683TIP3   OH225970   1.551   6.643   4.951  0.3561 -0.1648 -0.1757
 8683TIP3    H125971   1.470   6.593   4.959 -0.8680  1.0311 -4.1004
 8683TIP3    H225972   1.610   6.584   4.904  1.1667 -0.3497  1.0564
 8684TIP3   OH225973   1.808   4.655   4.479 -0.2497 -0.6195 -0.1343
 8684TIP3    H125974   1.820   4.715   4.553  1.1420 -1.9490  0.7565
 8684TIP3    H225975   1.897   4.623   4.460 -0.8338 -1.6152 -1.2583
 8685TIP3   OH225976   8.679   5.762   5.937 -0.3191 -0.1241 -0.5297
 8685TIP3    H125977   8.627   5.780   6.015 -0.2286 -0.9697 -0.2746
 8685TIP3    H225978   8.618   5.776   5.864 -0.7705 -0.6043 -0.2521
 8686TIP3   OH225979   1.042   5.599   6.118 -0.4876 -0.9626  0.0403
 8686TIP3    H125980   1.124   5.568   6.080  0.3077  0.0458  0.8898
 8686TIP3    H225981   1.008   5.661   6.054 -0.0326 -0.5759  0.1695
 8687TIP3   OH225982   2.329   5.559   6.034  0.4006 -0.3723  0.3689
 8687TIP3    H125983   2.331   5.486   6.096  1.1320  0.3118  1.1476
 8687TIP3    H225984   2.414   5.601   6.042  0.2878  0.0866 -0.6781
 8688TIP3   OH225985   2.307   4.752   4.424  0.2295  0.0940  0.4047
 8688TIP3    H125986   2.365   4.682   4.395  0.1479  0.7411 -1.3788
 8688TIP3    H225987   2.312   4.749   4.520  1.1150 -1.5826  0.3306
 8689TIP3   OH225988   2.661   7.550   5.295  0.3393 -0.1389  0.0765
 8689TIP3    H125989   2.626   7.475   5.343  0.9570  0.9812  2.3398
 8689TIP3    H225990   2.599   7.564   5.223 -0.2846 -2.2022  0.1830
 8690TIP3   OH225991   8.434   6.617   3.207  0.9643  0.1837 -0.0817
 8690TIP3    H125992   8.507   6.637   3.149  1.7041  1.3139  1.2052
 8690TIP3    H225993   8.471   6.624   3.295  0.0874 -2.3220  0.5428
 8691TIP3   OH225994   1.516   6.255   4.051 -0.9947 -0.1507 -0.0105
 8691TIP3    H125995   1.537   6.173   4.006 -1.0726  1.0504 -2.3145
 8691TIP3    H225996   1.432   6.239   4.093 -0.7946 -1.3906 -0.0715
 8692TIP3   OH225997   8.513   6.426   4.788 -0.3671  0.4306 -0.0966
 8692TIP3    H125998   8.513   6.472   4.704 -2.1558  1.7645  0.5904
 8692TIP3    H225999   8.603   6.429   4.818  0.1647  0.5113 -1.6644
 8693TIP3   OH226000   0.636   5.788   4.726  0.0959  0.0975 -0.1224
 8693TIP3    H126001   0.578   5.843   4.673 -1.9486 -1.9192 -0.0355
 8693TIP3    H226002   0.719   5.836   4.728 -0.7147  1.6962 -2.5790
 8694TIP3   OH226003   1.045   4.721   4.287  0.3364 -0.0001 -0.0264
 8694TIP3    H126004   1.121   4.672   4.255  1.2380  2.0988 -1.2024
 8694TIP3    H226005   1.081   4.782   4.352 -0.2997  1.0638 -0.6540
 8695TIP3   OH226006   1.907   6.572   4.572 -0.1012  0.3124  0.0055
 8695TIP3    H126007   1.880   6.495   4.522  0.5199 -0.0650  0.2526
 8695TIP3    H226008   1.997   6.553   4.598  0.5204  1.6971 -1.0837
 8696TIP3   OH226009   1.762   7.284   4.449 -0.2541  0.4628  0.3937
 8696TIP3    H126010   1.710   7.236   4.513 -0.0895 -0.1660  0.0625
 8696TIP3    H226011   1.848   7.241   4.451 -0.3967  0.1081 -0.6132
 8697TIP3   OH226012   3.863   4.566   5.289 -0.5153 -0.3031 -0.2326
 8697TIP3    H126013   3.838   4.505   5.220 -0.9591  0.6989 -0.9756
 8697TIP3    H226014   3.859   4.515   5.369 -0.0747 -1.4682 -0.9379
 8698TIP3   OH226015   1.312   5.546   4.364  0.2723  0.4295 -0.1349
 8698TIP3    H126016   1.254   5.477   4.329 -2.1195  1.7880  0.9960
 8698TIP3    H226017   1.310   5.532   4.458  1.1039  1.0482 -0.0275
 8699TIP3   OH226018   2.781   3.368   4.487 -0.4061  0.0543 -0.0368
 8699TIP3    H126019   2.850   3.433   4.496 -1.6011  1.0573  2.3808
 8699TIP3    H226020   2.710   3.415   4.444 -0.2398 -0.4688 -0.8855
 8700TIP3   OH226021   2.368   6.599   5.024 -0.0920  0.4916  0.3322
 8700TIP3    H126022   2.318   6.518   5.032  0.9164 -0.3144 -1.3406
 8700TIP3    H226023   2.309   6.660   4.979 -0.4869  0.3725  0.6859
 8701TIP3   OH226024   1.489   4.285   5.163  0.0623 -0.1181  0.0057
 8701TIP3    H126025   1.536   4.325   5.091 -1.8581 -0.5887 -1.5513
 8701TIP3    H226026   1.397   4.287   5.136 -0.4968 -1.9729  1.6183
 8702TIP3   OH226027   0.316   4.577   3.228 -0.4827 -0.1409 -0.1970
 8702TIP3    H126028   0.262   4.656   3.235 -1.3575 -0.7651  0.0450
 8702TIP3    H226029   0.403   4.606   3.258 -0.4376  1.0941 -1.4482
 8703TIP3   OH226030   3.033   7.077   3.331  0.0686 -0.2363 -0.6130
 8703TIP3    H126031   2.946   7.116   3.330 -0.6119 -1.7193 -1.6626
 8703TIP3    H226032   3.066   7.094   3.419 -1.8771 -0.9348  0.2863
 8704TIP3   OH226033   2.360   4.785   4.694  0.0526 -0.1432  0.2602
 8704TIP3    H126034   2.373   4.703   4.741 -0.4333 -0.5276 -0.2658
 8704TIP3    H226035   2.306   4.839   4.752 -1.1298 -0.8802 -0.1470
 8705TIP3   OH226036   3.882   7.527   5.662 -0.1360  0.5128  0.4548
 8705TIP3    H126037   3.977   7.522   5.675 -0.1653  2.3687  1.4506
 8705TIP3    H226038   3.849   7.445   5.699  0.8925  0.7589  1.9884
 8706TIP3   OH226039   0.737   5.068   4.414 -0.3795 -0.0502  0.0561
 8706TIP3    H126040   0.803   5.130   4.383  1.6495 -1.5729  1.2326
 8706TIP3    H226041   0.761   4.984   4.375 -1.5491 -0.6440  0.5785
 8707TIP3   OH226042   1.569   6.247   2.993 -0.3598 -0.6167 -0.1325
 8707TIP3    H126043   1.576   6.303   3.070  0.6117  1.5908 -1.7672
 8707TIP3    H226044   1.589   6.159   3.025  0.9759  0.4090  1.9446
 8708TIP3   OH226045   0.783   6.994   2.274 -0.2990  0.1709 -0.0622
 8708TIP3    H126046   0.823   6.977   2.189 -1.5012 -1.5707 -0.2996
 8708TIP3    H226047   0.727   6.918   2.290 -1.2725  1.2032  1.5809
 8709TIP3   OH226048   0.862   4.340   4.736 -0.2559 -0.1260  0.4864
 8709TIP3    H126049   0.944   4.382   4.707 -0.6069  1.0126  1.1287
 8709TIP3    H226050   0.890   4.279   4.804  0.0344  0.4688  0.9112
 8710TIP3   OH226051   0.695   5.625   5.017 -0.1088 -0.2737  0.1236
 8710TIP3    H126052   0.705   5.630   5.112 -1.2381 -0.1387  0.2306
 8710TIP3    H226053   0.700   5.716   4.987  1.3260 -0.3936 -0.0668
 8711TIP3   OH226054   2.674   5.452   4.065 -0.4668  0.0098  0.0687
 8711TIP3    H126055   2.755   5.471   4.113  0.0396  0.0287 -0.7846
 8711TIP3    H226056   2.687   5.363   4.031  0.1004  0.7931 -1.8547
 8712TIP3   OH226057   4.095   6.158   6.021 -0.0710 -0.4706 -0.3005
 8712TIP3    H126058   4.058   6.202   5.944 -0.8826 -1.6556 -0.5947
 8712TIP3    H226059   4.155   6.093   5.985  0.6214 -0.0628  0.1110
 8713TIP3   OH226060   2.105   6.430   5.630  0.5389 -0.1489 -0.4721
 8713TIP3    H126061   2.072   6.519   5.640 -0.0950 -0.1986 -1.9265
 8713TIP3    H226062   2.052   6.392   5.559  0.5941 -1.7903  0.3278
 8714TIP3   OH226063   1.479   5.431   3.186 -0.1981  0.0003  0.0895
 8714TIP3    H126064   1.405   5.391   3.232  1.2991  0.2641  2.8776
 8714TIP3    H226065   1.505   5.505   3.242  1.0119  1.0384 -1.7748
 8715TIP3   OH226066   3.669   5.277   2.554 -0.2461  0.4293  0.2308
 8715TIP3    H126067   3.581   5.303   2.580 -0.7365 -1.5690  0.6023
 8715TIP3    H226068   3.716   5.265   2.636 -0.1600 -0.3044  0.0790
 8716TIP3   OH226069   2.894   5.700   3.484 -0.0130  0.0206 -0.0048
 8716TIP3    H126070   2.849   5.783   3.469  1.2527  0.5213 -1.0916
 8716TIP3    H226071   2.866   5.644   3.411 -0.3557 -0.3069  0.3711
 8717TIP3   OH226072   2.498   5.040   5.401 -0.2874 -0.7113 -0.1201
 8717TIP3    H126073   2.524   4.980   5.471 -0.0578  0.7448  1.0745
 8717TIP3    H226074   2.402   5.042   5.406 -0.2693 -0.5672  0.1936
 8718TIP3   OH226075   2.141   4.157   2.990  0.2902  0.1731  0.0818
 8718TIP3    H126076   2.235   4.172   2.982  0.3708 -0.0900  0.5465
 8718TIP3    H226077   2.115   4.123   2.904  0.7312 -0.3483  0.1522
 8719TIP3   OH226078   2.432   5.309   4.655  0.3852 -0.3205 -0.1488
 8719TIP3    H126079   2.376   5.369   4.604  0.6584 -1.1694 -1.4565
 8719TIP3    H226080   2.413   5.223   4.619  1.5204 -0.7784  0.3544
 8720TIP3   OH226081   3.561   4.490   4.177 -0.3097 -0.5432 -0.2567
 8720TIP3    H126082   3.652   4.508   4.152 -0.9427  0.5157 -1.9133
 8720TIP3    H226083   3.530   4.427   4.113 -1.4401  0.8954 -1.1705
 8721TIP3   OH226084   2.473   5.079   6.601 -0.0165 -0.2219  0.0203
 8721TIP3    H126085   2.506   5.031   6.677  0.1472  0.5675  0.4504
 8721TIP3    H226086   2.550   5.094   6.547  0.4278  1.9564  1.2072
 8722TIP3   OH226087   1.424   6.858   4.266  0.0543  0.8152 -0.9715
 8722TIP3    H126088   1.483   6.893   4.332  0.1675 -0.4733 -0.3728
 8722TIP3    H226089   1.347   6.915   4.269  0.7847  1.8214 -0.9722
 8723TIP3   OH226090   1.863   5.252   5.022 -0.1117  0.0708  0.0930
 8723TIP3    H126091   1.859   5.198   4.943 -0.6744 -0.0507  0.2041
 8723TIP3    H226092   1.950   5.236   5.058  1.2045  2.1486 -1.9513
 8724TIP3   OH226093   1.053   6.642   3.116 -0.5152  0.4336 -0.1394
 8724TIP3    H126094   1.106   6.700   3.170  0.7741 -0.7298 -0.1271
 8724TIP3    H226095   1.112   6.571   3.092 -2.1954 -1.1516  0.2735
 8725TIP3   OH226096   2.296   7.091   4.043  0.7855  0.2101  0.3440
 8725TIP3    H126097   2.307   7.092   3.948 -0.2698 -0.0413  0.2059
 8725TIP3    H226098   2.359   7.154   4.076  0.5295  0.9659 -0.6050
 8726TIP3   OH226099   2.292   6.231   5.078  0.1088  0.0366  0.6765
 8726TIP3    H126100   2.361   6.172   5.107 -0.6757 -0.3974  1.7165
 8726TIP3    H226101   2.321   6.263   4.993  0.0419 -2.6748 -0.4161
 8727TIP3   OH226102   2.674   5.581   2.978  0.2355 -0.1686  0.0509
 8727TIP3    H126103   2.620   5.651   2.942  0.2249  1.0399  2.3607
 8727TIP3    H226104   2.735   5.560   2.907 -0.3854  1.4999 -1.0185
 8728TIP3   OH226105   2.561   6.629   6.311 -0.1554  0.3304 -0.2232
 8728TIP3    H126106   2.647   6.657   6.343 -0.1896  1.2144 -0.9072
 8728TIP3    H226107   2.527   6.704   6.264 -1.2446 -0.0744 -0.0956
 8729TIP3   OH226108   0.369   7.575   2.723  0.0489  0.4076 -0.5374
 8729TIP3    H126109   0.401   7.486   2.709  0.2523  0.6477 -1.6711
 8729TIP3    H226110   0.447   7.627   2.738  0.0649  0.6459 -1.3680
 8730TIP3   OH226111   2.072   6.849   6.914 -0.2494 -0.2023  0.2711
 8730TIP3    H126112   2.137   6.885   6.854 -0.5759  1.5686  0.9414
 8730TIP3    H226113   2.072   6.910   6.988 -0.7317 -1.6712  1.5167
 8731TIP3   OH226114   2.207   4.934   4.879  0.1564 -0.2464  0.3719
 8731TIP3    H126115   2.120   4.919   4.842  0.4452 -0.2946 -0.3067
 8731TIP3    H226116   2.219   5.029   4.875 -0.0574 -0.1960  0.9139
 8732TIP3   OH226117   0.258   4.563   6.469 -0.0235  0.3466  0.4612
 8732TIP3    H126118   0.210   4.603   6.541 -2.2723 -0.3709 -0.5856
 8732TIP3    H226119   0.256   4.628   6.399  0.9326  0.4781  0.5403
 8733TIP3   OH226120   7.641   7.423   3.084 -0.0833  0.2209  0.2748
 8733TIP3    H126121   7.678   7.383   3.163 -0.7905 -0.3508  0.3165
 8733TIP3    H226122   7.695   7.501   3.070  0.8597 -0.3676  0.5863
 8734TIP3   OH226123  -0.000   7.040   3.809 -0.2572  0.6099 -0.3030
 8734TIP3    H126124  -0.074   7.003   3.857  0.0411 -0.3048 -0.5244
 8734TIP3    H226125   0.075   7.027   3.867  0.2702 -1.3626 -1.3792
 8735TIP3   OH226126   4.814   1.144   4.340 -0.0246 -0.9135 -0.1161
 8735TIP3    H126127   4.819   1.070   4.401  2.9223 -0.1992  0.5524
 8735TIP3    H226128   4.869   1.117   4.266  0.5898  0.3789 -0.1274
 8736TIP3   OH226129   2.496   6.428   4.460  0.1925  0.3142  0.2055
 8736TIP3    H126130   2.484   6.445   4.553  0.3275  0.4861  0.1902
 8736TIP3    H226131   2.577   6.377   4.455  0.4237  0.6938  0.1370
 8737TIP3   OH226132   0.994   7.619   4.290 -0.1080 -0.1643 -0.5479
 8737TIP3    H126133   1.010   7.525   4.302 -1.9122 -0.5421 -1.0076
 8737TIP3    H226134   1.075   7.652   4.252  1.1672 -1.2240  1.1873
 8738TIP3   OH226135   2.253   6.491   4.059 -0.2431  0.3776 -0.6952
 8738TIP3    H126136   2.246   6.554   3.988  0.9639  0.9487 -0.3229
 8738TIP3    H226137   2.305   6.535   4.126 -0.0684 -0.7108 -0.0921
 8739TIP3   OH226138   8.833   5.631   5.193  0.1528  0.2624  0.4639
 8739TIP3    H126139   8.746   5.657   5.225  0.0182 -0.3024  0.5637
 8739TIP3    H226140   8.893   5.696   5.230 -0.1353  0.2263  0.9940
 8740TIP3   OH226141   3.131   4.460   3.892 -0.0556 -0.2626  0.1173
 8740TIP3    H126142   3.089   4.380   3.863  0.0014 -0.8593  1.6296
 8740TIP3    H226143   3.197   4.432   3.955  0.9198  0.8627 -0.3719
 8741TIP3   OH226144   1.870   6.845   3.790  0.3395  0.3065  0.3134
 8741TIP3    H126145   1.864   6.876   3.880  0.9404  0.7568  0.1980
 8741TIP3    H226146   1.906   6.919   3.741 -2.3743  0.9375 -0.7750
 8742TIP3   OH226147   3.414   4.592   4.912 -0.1220 -0.4877  0.1031
 8742TIP3    H126148   3.401   4.514   4.858 -0.6943 -1.7325  2.0168
 8742TIP3    H226149   3.382   4.664   4.858  0.0923 -1.5979 -1.5469
 8743TIP3   OH226150   8.115   4.659   4.919  0.0646 -0.2381 -0.1301
 8743TIP3    H126151   8.115   4.744   4.963  0.9779 -0.4395  0.2798
 8743TIP3    H226152   8.071   4.600   4.980 -1.4080  0.1284 -0.8151
 8744TIP3   OH226153   3.152   5.255   5.442  0.4040  0.3934 -0.5028
 8744TIP3    H126154   3.176   5.215   5.526  1.4508 -0.8306 -1.3596
 8744TIP3    H226155   3.225   5.313   5.422  0.5873 -0.0097 -1.0041
 8745TIP3   OH226156   2.334   4.789   3.738 -0.2928  0.0309  0.1583
 8745TIP3    H126157   2.254   4.827   3.775 -1.4821 -1.4775 -0.7917
 8745TIP3    H226158   2.310   4.698   3.719  1.5860 -0.3664 -0.3666
 8746TIP3   OH226159   1.510   6.211   4.905 -0.4523 -0.7831 -0.3175
 8746TIP3    H126160   1.526   6.204   4.811 -0.6705  1.5961 -0.5441
 8746TIP3    H226161   1.415   6.209   4.914 -0.4125 -3.0178  0.0598
 8747TIP3   OH226162   2.250   6.575   4.659 -0.0004  0.4239  0.0086
 8747TIP3    H126163   2.241   6.636   4.732 -1.2512 -0.5677  0.7002
 8747TIP3    H226164   2.254   6.631   4.581 -0.8624  1.4117  0.6575
 8748TIP3   OH226165   4.370   5.709   4.160  0.5079 -0.2726  0.1509
 8748TIP3    H126166   4.284   5.724   4.121  0.6358 -1.5590 -0.6437
 8748TIP3    H226167   4.366   5.620   4.195  1.3414 -0.1466  0.5793
 8749TIP3   OH226168   1.152   5.956   3.955 -0.3655  0.2287 -0.0377
 8749TIP3    H126169   1.181   5.981   3.867  0.5438 -0.1672  0.1455
 8749TIP3    H226170   1.223   5.984   4.012  0.1585 -1.7359  0.2995
 8750TIP3   OH226171   3.349   5.956   4.021 -0.1251  0.1936  0.6968
 8750TIP3    H126172   3.323   5.867   3.998 -0.2621  0.4603 -0.2185
 8750TIP3    H226173   3.391   5.990   3.942  0.9577  0.5543  1.4087
 8751TIP3   OH226174   0.296   6.502   0.765  0.1201  0.0515  0.3018
 8751TIP3    H126175   0.308   6.593   0.737  0.6535 -0.2144 -0.3503
 8751TIP3    H226176   0.335   6.450   0.694 -0.8627 -0.7027  0.3049
 8752TIP3   OH226177   1.644   6.361   5.209 -0.2847  0.2602 -0.2180
 8752TIP3    H126178   1.560   6.342   5.250 -0.3107 -1.0747 -0.8521
 8752TIP3    H226179   1.635   6.451   5.177 -1.2984  0.3001  0.1486
 8753TIP3   OH226180   2.034   6.120   3.386 -0.5595  0.1279  0.3411
 8753TIP3    H126181   1.950   6.139   3.343  0.9439  0.9166 -2.3555
 8753TIP3    H226182   2.041   6.024   3.383 -1.5447  0.0210  1.0069
 8754TIP3   OH226183   0.894   4.570   4.090 -0.1290  0.2631  0.1674
 8754TIP3    H126184   0.929   4.621   4.163  1.2615 -0.4321 -0.0082
 8754TIP3    H226185   0.799   4.581   4.097 -0.0419 -0.1661  2.3460
 8755TIP3   OH226186   1.851   6.013   2.352 -0.9190 -0.1567  0.1735
 8755TIP3    H126187   1.936   5.978   2.382 -0.3670  1.0587  0.0600
 8755TIP3    H226188   1.803   5.936   2.321  0.4257 -0.7670 -0.4315
 8756TIP3   OH226189   0.904   6.768   5.413  0.1968 -0.1930  0.1909
 8756TIP3    H126190   0.981   6.723   5.378 -1.2108  0.3431 -3.8172
 8756TIP3    H226191   0.926   6.861   5.404 -0.8882 -0.0402 -0.9861
 8757TIP3   OH226192   2.185   3.024   3.194 -0.0075  0.0290  0.1226
 8757TIP3    H126193   2.198   3.068   3.110 -0.8017 -2.2081 -1.1988
 8757TIP3    H226194   2.090   3.023   3.207 -0.1020 -2.2972 -0.4634
 8758TIP3   OH226195   1.926   4.445   5.664 -0.2394 -0.4039  0.2540
 8758TIP3    H126196   2.010   4.471   5.702 -0.7914 -0.2205  1.3569
 8758TIP3    H226197   1.915   4.353   5.690  0.2824 -0.8534 -1.0844
 8759TIP3   OH226198   3.333   4.930   5.369  0.1974 -0.2781 -0.2849
 8759TIP3    H126199   3.357   4.849   5.325 -1.8669 -0.4396 -1.1717
 8759TIP3    H226200   3.319   4.993   5.298 -0.9541  0.0768  0.2293
 8760TIP3   OH226201   1.158   4.650   6.737 -0.1480  0.1016  0.5989
 8760TIP3    H126202   1.234   4.706   6.722  1.1898 -0.8459  3.4199
 8760TIP3    H226203   1.159   4.588   6.664 -0.2117  2.1742 -1.2143
 8761TIP3   OH226204   1.135   6.593   2.616  0.1630 -0.0671  0.2857
 8761TIP3    H126205   1.215   6.634   2.584  0.7716 -0.8162  0.8419
 8761TIP3    H226206   1.065   6.651   2.585  0.9806  1.1843  0.7319
 8762TIP3   OH226207   0.567   5.448   5.741  0.0346 -0.3699 -0.1942
 8762TIP3    H126208   0.500   5.460   5.808  0.1137  0.0781 -0.1894
 8762TIP3    H226209   0.647   5.431   5.791 -0.3333 -2.2416 -0.2364
 8763TIP3   OH226210   1.270   5.602   3.646 -0.1806  0.4031  0.0977
 8763TIP3    H126211   1.286   5.691   3.616 -1.8337  1.0510  1.0738
 8763TIP3    H226212   1.190   5.608   3.698 -0.4403 -1.6852 -0.0036
 8764TIP3   OH226213   3.164   6.297   3.710  0.0070 -0.4310 -0.1275
 8764TIP3    H126214   3.215   6.374   3.684 -1.6185  0.5459 -0.5254
 8764TIP3    H226215   3.198   6.273   3.796  3.0624 -1.5501 -1.5722
 8765TIP3   OH226216   1.484   5.646   5.023 -0.1853  0.3590 -0.4768
 8765TIP3    H126217   1.555   5.587   5.000 -1.0855 -0.3975 -1.3689
 8765TIP3    H226218   1.440   5.664   4.940 -1.0459  0.8102  0.0657
 8766TIP3   OH226219   0.761   6.290   5.969  0.2056 -0.4190 -0.2756
 8766TIP3    H126220   0.856   6.293   5.982  0.2972  1.7063 -1.1546
 8766TIP3    H226221   0.748   6.327   5.882 -1.4453 -0.6457 -0.1413
 8767TIP3   OH226222   2.763   6.610   5.636  0.1540 -0.0269  0.1317
 8767TIP3    H126223   2.793   6.594   5.725 -0.6364 -3.3458 -0.1463
 8767TIP3    H226224   2.839   6.646   5.591  1.2168 -0.4585  1.5423
 8768TIP3   OH226225   1.952   5.601   4.481 -0.3113  0.0893 -0.3041
 8768TIP3    H126226   2.023   5.664   4.471  0.4722 -0.9247 -1.2733
 8768TIP3    H226227   1.940   5.592   4.575 -1.7368  3.1070 -0.1311
 8769TIP3   OH226228   2.133   7.101   2.791 -0.0766 -0.0433  0.0890
 8769TIP3    H126229   2.099   7.029   2.737  0.2096 -0.8257  0.9417
 8769TIP3    H226230   2.204   7.062   2.842 -1.1708  0.3210  1.9896
 8770TIP3   OH226231   2.746   5.952   3.432  0.0574  0.3547  0.0272
 8770TIP3    H126232   2.716   6.043   3.425  0.2029  0.3375 -0.7805
 8770TIP3    H226233   2.725   5.913   3.348 -0.4017 -0.4889  0.5221
 8771TIP3   OH226234   1.584   5.874   5.522  0.0748  0.2547  0.1255
 8771TIP3    H126235   1.648   5.892   5.591 -0.3746 -0.0959  0.6341
 8771TIP3    H226236   1.527   5.807   5.559  0.4625 -0.6954 -0.9796
 8772TIP3   OH226237   1.503   5.935   4.739 -0.3068  0.2668  0.3222
 8772TIP3    H126238   1.471   5.845   4.747  1.9513 -0.4809  1.0967
 8772TIP3    H226239   1.548   5.938   4.654 -0.3349  0.6711  0.3169
 8773TIP3   OH226240   0.863   6.521   4.417 -0.5304 -0.3746  0.2474
 8773TIP3    H126241   0.801   6.513   4.488  0.2656  0.2032  1.0196
 8773TIP3    H226242   0.810   6.517   4.337 -1.6356  0.8822  0.9005
 8774TIP3   OH226243   4.372   8.010   6.582  0.1361  0.1904 -0.1325
 8774TIP3    H126244   4.312   7.951   6.628  0.9235 -0.3617  0.2109
 8774TIP3    H226245   4.419   7.953   6.522  0.1658  0.6574 -0.5514
 8775TIP3   OH226246   0.830   7.138   3.502 -0.4326  0.1921 -0.0684
 8775TIP3    H126247   0.908   7.144   3.447 -1.1307 -0.0616 -1.1070
 8775TIP3    H226248   0.857   7.172   3.587  0.9219 -0.2887 -0.2987
 8776TIP3   OH226249   4.021   8.242   0.150 -0.1717 -0.7822 -0.6081
 8776TIP3    H126250   4.020   8.155   0.109  1.4290 -0.5081 -1.2392
 8776TIP3    H226251   3.932   8.253   0.182 -0.4173 -2.6478 -0.5583
 8777TIP3   OH226252   2.227   5.985   3.086 -0.3968  0.3445  0.3846
 8777TIP3    H126253   2.132   5.987   3.097 -0.1678  0.1857  2.8066
 8777TIP3    H226254   2.259   6.053   3.146  1.0317  0.0672 -0.0402
 8778TIP3   OH226255   2.544   5.847   4.676  0.0650 -0.1238 -0.6640
 8778TIP3    H126256   2.479   5.790   4.716  0.7465 -0.5770 -0.1747
 8778TIP3    H226257   2.504   5.878   4.595 -1.0125  0.1433 -0.0289
 8779TIP3   OH226258   2.283   7.908   4.992  0.1481 -0.6586 -0.7370
 8779TIP3    H126259   2.356   7.930   4.935  0.1716  0.5794 -0.2362
 8779TIP3    H226260   2.310   7.827   5.035  1.7898  0.4698  0.4068
 8780TIP3   OH226261   2.173   6.740   4.893  0.0600  0.1816  0.4150
 8780TIP3    H126262   2.147   6.816   4.840 -0.7151 -1.1985 -1.1970
 8780TIP3    H226263   2.095   6.717   4.943 -0.2230 -0.6584 -0.4221
 8781TIP3   OH226264   5.935   6.875   0.639 -0.2031  0.1818 -0.8270
 8781TIP3    H126265   5.971   6.910   0.721  0.9318  0.7283 -1.5591
 8781TIP3    H226266   5.894   6.950   0.596  0.4240  0.1813 -1.4241
 8782TIP3   OH226267   3.354   7.093   4.792  0.2095 -0.3676  0.1843
 8782TIP3    H126268   3.280   7.123   4.740  0.3348 -1.2242 -0.4865
 8782TIP3    H226269   3.325   7.011   4.832  0.0850  0.3187  1.5391
 8783TIP3   OH226270   1.607   6.557   1.691 -0.0697  0.0031  0.0902
 8783TIP3    H126271   1.521   6.588   1.718  0.3410 -0.1291  1.5830
 8783TIP3    H226272   1.653   6.538   1.773  1.6982  0.9553 -0.6458
 8784TIP3   OH226273   1.880   3.943   4.304 -0.5396  0.1397  0.5810
 8784TIP3    H126274   1.863   3.867   4.359 -2.1256 -0.3310 -0.5228
 8784TIP3    H226275   1.959   3.920   4.255 -0.3132 -0.2855  1.1449
 8785TIP3   OH226276   1.801   5.149   4.730  0.1322  0.1023 -0.2317
 8785TIP3    H126277   1.884   5.181   4.694 -0.2057  1.6337  0.3046
 8785TIP3    H226278   1.777   5.075   4.674  1.3300  0.3175 -1.0378
 8786TIP3   OH226279   1.854   7.521   4.528  0.4286  0.0826 -0.6196
 8786TIP3    H126280   1.800   7.451   4.491 -0.3187  0.1556  0.3023
 8786TIP3    H226281   1.886   7.485   4.610  0.9019  0.4434 -0.6489
 8787TIP3   OH226282   1.735   7.136   2.597  0.1905  0.1916 -0.3609
 8787TIP3    H126283   1.784   7.163   2.675 -2.8464  1.2050  1.2777
 8787TIP3    H226284   1.740   7.040   2.598  0.8628  0.2268  0.6487
 8788TIP3   OH226285   2.221   8.207   3.236 -0.4125 -0.0449  0.1653
 8788TIP3    H126286   2.161   8.197   3.310 -1.7304 -1.7647 -1.0792
 8788TIP3    H226287   2.303   8.167   3.265  0.2245  2.3997  1.9155
 8789TIP3   OH226288   3.748   0.489   2.740  0.2689  0.0750  0.5565
 8789TIP3    H126289   3.660   0.452   2.731 -0.0225  0.9944 -0.4765
 8789TIP3    H226290   3.806   0.418   2.712 -0.2231 -0.0515 -0.1693
 8790TIP3   OH226291   1.038   5.399   5.042  0.1564 -0.1903  0.3464
 8790TIP3    H126292   1.065   5.470   5.100 -0.8933  1.6864 -1.3913
 8790TIP3    H226293   0.965   5.358   5.087  0.6190 -0.0228  1.2648
 8791TIP3   OH226294   1.207   7.643   3.702  0.2989  0.4713 -0.1818
 8791TIP3    H126295   1.297   7.644   3.668  0.2380  1.9719 -0.3347
 8791TIP3    H226296   1.152   7.625   3.626  0.5193 -1.0885  0.0301
 8792TIP3   OH226297   6.852   0.819   0.069  0.2116 -0.0450 -0.2300
 8792TIP3    H126298   6.808   0.746   0.114 -3.3613  1.4647 -1.1458
 8792TIP3    H226299   6.906   0.776   0.003  0.7582 -2.0099  1.4315
 8793TIP3   OH226300   2.671   5.866   5.351 -0.4565  0.6386  0.5154
 8793TIP3    H126301   2.703   5.955   5.334  1.0026  0.0662  0.1854
 8793TIP3    H226302   2.716   5.839   5.430 -1.1454  0.3025  0.7945
 8794TIP3   OH226303   1.080   6.438   5.673 -0.2126  0.1295 -0.0098
 8794TIP3    H126304   1.174   6.442   5.654  0.1940  0.2783  1.9248
 8794TIP3    H226305   1.056   6.347   5.655 -0.1891  0.5946 -2.5814
 8795TIP3   OH226306   1.800   6.041   4.266 -0.0141  0.1158 -0.2278
 8795TIP3    H126307   1.876   6.068   4.214 -1.5674  0.5878 -2.3478
 8795TIP3    H226308   1.805   5.946   4.267  1.2059  0.1839  0.5843
 8796TIP3   OH226309   2.274   7.379   3.598  0.0314  0.2252  0.3413
 8796TIP3    H126310   2.326   7.338   3.528 -1.0500  0.0765 -0.3945
 8796TIP3    H226311   2.322   7.459   3.620  1.1911 -0.4981  0.5044
 8797TIP3   OH226312   1.424   4.078   4.651  0.5161  0.4330 -0.0436
 8797TIP3    H126313   1.380   3.993   4.656  2.0313 -0.3443  0.3246
 8797TIP3    H226314   1.363   4.139   4.692 -1.9931  0.1088 -3.1055
 8798TIP3   OH226315   1.467   6.489   6.421  0.1555 -0.0256  1.3056
 8798TIP3    H126316   1.497   6.575   6.393  1.4519 -0.5410  1.0950
 8798TIP3    H226317   1.544   6.448   6.461 -0.9020 -0.4201  3.0024
 8799TIP3   OH226318   2.430   4.551   4.229  0.1960 -0.5914 -0.2097
 8799TIP3    H126319   2.439   4.463   4.266  0.1811 -0.5018  0.0065
 8799TIP3    H226320   2.489   4.551   4.154 -0.6888 -1.1708 -0.9212
 8800TIP3   OH226321   1.365   4.813   4.866 -0.0454 -1.0420 -0.5639
 8800TIP3    H126322   1.438   4.834   4.925 -0.1802 -1.3857 -0.2747
 8800TIP3    H226323   1.399   4.743   4.810 -0.3786 -1.6740  0.0188
 8801TIP3   OH226324   1.313   7.320   4.597 -0.0065  0.4753 -0.8991
 8801TIP3    H126325   1.332   7.411   4.578  0.1746 -0.0818 -3.5916
 8801TIP3    H226326   1.254   7.322   4.672  1.8723  2.6898  0.5695
 8802TIP3   OH226327   0.076   4.727   5.586 -1.1494  0.1225 -0.2384
 8802TIP3    H126328   0.039   4.734   5.498 -0.3651  0.8931 -0.5038
 8802TIP3    H226329   0.138   4.799   5.592 -2.4863  1.1606  1.5689
 8803TIP3   OH226330   1.224   4.468   4.459 -0.1793 -0.0206 -0.4230
 8803TIP3    H126331   1.310   4.431   4.474  0.6625  1.7176 -0.8548
 8803TIP3    H226332   1.228   4.506   4.372 -0.7539  1.7579  0.2899
 8804TIP3   OH226333   1.296   4.672   2.015  0.6873 -0.3542 -0.3987
 8804TIP3    H126334   1.309   4.577   2.011  2.3020 -0.1575 -0.1761
 8804TIP3    H226335   1.321   4.703   1.928 -0.5722 -0.2095 -0.7138
 8805TIP3   OH226336   4.254   5.482   3.751 -0.2507 -0.1022  0.4511
 8805TIP3    H126337   4.275   5.456   3.840 -1.1627  0.4016  0.8199
 8805TIP3    H226338   4.243   5.577   3.755 -1.7904 -0.2471  0.1208
 8806TIP3   OH226339   2.666   5.105   4.536 -0.2908  0.3605  0.3852
 8806TIP3    H126340   2.710   5.189   4.528 -1.5042  0.9199 -0.6284
 8806TIP3    H226341   2.583   5.117   4.490 -0.7715 -1.1816  0.8132
 8807TIP3   OH226342   3.082   6.099   3.522  0.3560 -0.0978  0.3479
 8807TIP3    H126343   3.054   6.150   3.446 -0.1696 -0.3936  0.3366
 8807TIP3    H226344   3.136   6.160   3.573 -0.7305  0.6659  0.6227
 8808TIP3   OH226345   0.510   6.221   0.661  0.0634  0.0443  0.7882
 8808TIP3    H126346   0.538   6.300   0.705 -0.1724  1.3006 -1.2481
 8808TIP3    H226347   0.430   6.247   0.613 -0.1524 -1.4619  0.2891
 8809TIP3   OH226348   1.449   3.335   4.519  0.5417  0.7796  0.2337
 8809TIP3    H126349   1.503   3.411   4.541  2.5815 -0.9113  1.2433
 8809TIP3    H226350   1.361   3.361   4.545  1.1203  2.9685  0.1331
 8810TIP3   OH226351   0.788   6.652   2.949 -0.7905  0.1586 -0.2632
 8810TIP3    H126352   0.832   6.620   2.871 -1.5621  0.6432 -0.9053
 8810TIP3    H226353   0.858   6.662   3.013 -0.2526 -0.8934 -0.6692
 8811TIP3   OH226354   2.167   5.791   4.493 -0.1438  0.2005  0.1827
 8811TIP3    H126355   2.151   5.886   4.489  0.7270  0.3658  0.3242
 8811TIP3    H226356   2.263   5.784   4.497 -0.2210 -0.6759  0.5155
 8812TIP3   OH226357   1.930   7.666   4.283  0.2150 -0.7166 -0.5831
 8812TIP3    H126358   1.877   7.736   4.246  0.2049 -0.3860  0.0375
 8812TIP3    H226359   1.938   7.601   4.213 -1.2952 -0.9357 -0.5630
 8813TIP3   OH226360   1.828   7.076   5.755  0.3606  0.9282 -0.3438
 8813TIP3    H126361   1.860   7.025   5.829  0.5456 -0.0373 -1.0821
 8813TIP3    H226362   1.741   7.105   5.781  0.1081 -0.0757 -0.0657
 8814TIP3   OH226363   2.092   6.895   4.042 -0.4070 -0.4174  0.7218
 8814TIP3    H126364   2.008   6.927   4.010  0.6906  1.2964 -0.5347
 8814TIP3    H226365   2.149   6.972   4.041  1.2092 -1.5775  1.4305
 8815TIP3   OH226366   0.055   7.179   1.792 -0.0376 -0.1228  0.0100
 8815TIP3    H126367   0.028   7.268   1.816  0.9376  0.5717 -1.4090
 8815TIP3    H226368   0.059   7.180   1.697  1.3189 -1.2730  0.0352
 8816TIP3   OH226369   4.313   0.305   4.466  0.1047  0.2911 -0.3201
 8816TIP3    H126370   4.227   0.278   4.499  0.4898 -0.6136 -0.0344
 8816TIP3    H226371   4.296   0.336   4.377 -0.2745 -1.5330 -0.9187
 8817TIP3   OH226372   0.650   5.076   1.519 -0.1364  0.1437 -0.2900
 8817TIP3    H126373   0.689   5.162   1.502  0.4699 -0.5362 -2.4601
 8817TIP3    H226374   0.556   5.089   1.506 -0.2136  0.8330  0.9196
 8818TIP3   OH226375   6.484   0.522   0.195 -0.5618 -0.6640 -0.4432
 8818TIP3    H126376   6.454   0.433   0.210 -0.9698 -0.0156  2.9750
 8818TIP3    H226377   6.421   0.577   0.241  0.8972  1.2514 -0.6554
 8819TIP3   OH226378   1.489   7.791   3.035  0.4227 -0.3301 -0.3419
 8819TIP3    H126379   1.450   7.724   2.980 -2.1274 -0.1716  1.1908
 8819TIP3    H226380   1.423   7.861   3.038  2.1297  1.3308 -0.1868
 8820TIP3   OH226381   3.778   3.533   6.803  0.2860  0.2885 -0.0749
 8820TIP3    H126382   3.701   3.490   6.840  1.1673 -1.4546 -0.2037
 8820TIP3    H226383   3.851   3.497   6.853  1.0179  1.9218  0.0414
 8821TIP3   OH226384   2.563   6.757   2.959  0.0298  0.0168 -0.7195
 8821TIP3    H126385   2.492   6.716   3.009 -0.0028 -0.2704 -1.0009
 8821TIP3    H226386   2.555   6.851   2.979  0.4993 -0.1805  0.4193
 8822TIP3   OH226387   2.636   6.368   5.614  0.0804 -0.3209 -0.3450
 8822TIP3    H126388   2.705   6.434   5.607 -0.3797  0.0627 -1.3147
 8822TIP3    H226389   2.562   6.406   5.567 -0.8837 -0.6175  0.9139
 8823TIP3   OH226390   0.764   5.353   5.498 -0.1835  0.6318 -0.1401
 8823TIP3    H126391   0.672   5.379   5.508 -0.3809 -0.1480  0.1705
 8823TIP3    H226392   0.788   5.318   5.584  0.2878  0.4756 -0.3333
 8824TIP3   OH226393   4.421   5.377   2.190  0.2466  0.5280  0.0772
 8824TIP3    H126394   4.335   5.373   2.148  0.1575  2.6085 -0.0064
 8824TIP3    H226395   4.404   5.416   2.275  0.5656 -2.8133  1.7353
 8825TIP3   OH226396   8.650   6.508   3.677  0.4399 -0.0835 -0.3185
 8825TIP3    H126397   8.647   6.515   3.582  0.9422  1.0590 -0.2547
 8825TIP3    H226398   8.691   6.589   3.706 -0.6455  0.0331  0.9444
 8826TIP3   OH226399   1.366   7.041   4.003 -0.6226  0.1844 -0.0413
 8826TIP3    H126400   1.382   6.947   4.012 -1.3988 -0.0011 -0.5760
 8826TIP3    H226401   1.294   7.059   4.064 -0.5518  0.4113 -0.0244
 8827TIP3   OH226402   3.332   5.415   5.305 -0.3409 -0.6200 -0.1312
 8827TIP3    H126403   3.410   5.396   5.253  0.4293 -0.7875  1.0714
 8827TIP3    H226404   3.358   5.487   5.361 -1.8155  0.9297 -1.3940
 8828TIP3   OH226405   0.500   2.991   6.964  0.5317  0.1230 -0.1618
 8828TIP3    H126406   0.499   2.947   7.050 -0.4511 -0.5837 -0.5260
 8828TIP3    H226407   0.577   2.955   6.920 -0.4958 -1.5878 -0.6173
 8829TIP3   OH226408   1.939   4.234   6.029 -0.4394  0.5557  0.1475
 8829TIP3    H126409   1.883   4.230   5.951 -0.8155 -1.4263  0.5089
 8829TIP3    H226410   2.021   4.193   6.001 -0.2661  0.6297  0.5506
 8830TIP3   OH226411   1.832   6.098   3.820  0.1219  0.0688  0.9207
 8830TIP3    H126412   1.903   6.104   3.883  0.3404  0.3086  0.6543
 8830TIP3    H226413   1.831   6.183   3.776  2.0286 -1.1144 -1.5810
 8831TIP3   OH226414   1.558   7.085   5.099 -0.4309  0.0789 -0.8641
 8831TIP3    H126415   1.628   7.077   5.034  0.2538  0.1089 -0.1281
 8831TIP3    H226416   1.561   7.004   5.149 -0.4544  0.3856 -0.3630
 8832TIP3   OH226417   4.245   6.655   2.727  0.3492 -0.1601 -0.4765
 8832TIP3    H126418   4.193   6.606   2.791 -0.8690  0.1347 -1.2307
 8832TIP3    H226419   4.276   6.731   2.776  0.2534 -0.4418  0.0347
 8833TIP3   OH226420   2.045   5.161   3.727  0.2095  0.4590  0.0615
 8833TIP3    H126421   2.088   5.127   3.805 -2.9002 -1.8289  0.8778
 8833TIP3    H226422   1.975   5.218   3.761  0.4814  1.5407 -1.1446
 8834TIP3   OH226423   1.895   5.096   5.736 -0.3168 -0.2196  0.1216
 8834TIP3    H126424   1.970   5.141   5.696  0.8629 -2.6373 -0.4778
 8834TIP3    H226425   1.907   5.108   5.830  1.7529 -1.9275  0.1206
 8835TIP3   OH226426   2.146   4.824   4.201 -0.3671 -0.0798 -0.4361
 8835TIP3    H126427   2.203   4.796   4.273 -1.9647 -1.1273  0.4522
 8835TIP3    H226428   2.132   4.746   4.149 -0.5456  0.2971 -0.9555
 8836TIP3   OH226429   8.556   1.100   1.650  0.2705  0.1656  0.4709
 8836TIP3    H126430   8.465   1.077   1.671  0.2701  0.8437  1.2354
 8836TIP3    H226431   8.593   1.019   1.616 -0.7022 -0.0414 -0.1183
 8837TIP3   OH226432   0.975   7.443   6.095  0.8788  0.0978 -0.4675
 8837TIP3    H126433   1.006   7.389   6.022  0.0634  0.7032 -1.2889
 8837TIP3    H226434   0.924   7.383   6.149  0.3461 -0.0655 -1.1370
 8838TIP3   OH226435   1.588   3.425   5.170  0.1289 -0.4989 -0.0433
 8838TIP3    H126436   1.660   3.424   5.106 -0.0437 -1.1902 -0.2349
 8838TIP3    H226437   1.571   3.517   5.185 -1.7299 -0.2501 -3.1879
 8839TIP3   OH226438   1.647   6.623   5.377 -1.2432 -0.4661  0.1945
 8839TIP3    H126439   1.664   6.685   5.448  2.7211 -1.2557  0.0580
 8839TIP3    H226440   1.621   6.543   5.422 -2.4590  0.1154  0.5501
 8840TIP3   OH226441   2.374   5.863   5.838 -0.2242  0.2374  0.1949
 8840TIP3    H126442   2.460   5.895   5.865 -0.1050 -0.1799  0.3111
 8840TIP3    H226443   2.321   5.865   5.918  0.5277 -2.3390  0.8037
 8841TIP3   OH226444   2.399   6.386   6.263  0.1214 -0.6568  0.4837
 8841TIP3    H126445   2.446   6.468   6.251  1.2634 -1.2790  0.5284
 8841TIP3    H226446   2.353   6.396   6.346 -0.3736  0.2149  0.1140
 8842TIP3   OH226447   8.304   4.703   3.363 -0.2773 -0.2865  0.2536
 8842TIP3    H126448   8.364   4.629   3.351 -0.0121  0.1682 -1.2974
 8842TIP3    H226449   8.336   4.748   3.441  1.5675  0.0945 -0.7002
 8843TIP3   OH226450   2.177   7.459   5.457 -0.1786 -0.3027 -0.2052
 8843TIP3    H126451   2.093   7.412   5.452 -0.6458  0.3001  1.6544
 8843TIP3    H226452   2.200   7.457   5.550  1.6837 -0.1142 -0.6584
 8844TIP3   OH226453   1.446   6.913   3.305 -0.0875  0.5085  0.2656
 8844TIP3    H126454   1.426   6.993   3.353 -1.3748  0.1056  0.4193
 8844TIP3    H226455   1.522   6.935   3.251  1.0400  1.1234  2.0751
 8845TIP3   OH226456   3.129   7.893   3.882 -0.4301  0.0519 -0.1199
 8845TIP3    H126457   3.110   7.858   3.795 -0.4289 -0.6774  0.1694
 8845TIP3    H226458   3.225   7.899   3.885 -0.3683 -0.8772  0.1852
 8846TIP3   OH226459   3.392   5.503   2.978 -0.3760 -0.8341 -0.5253
 8846TIP3    H126460   3.412   5.566   3.047 -0.6032 -0.6063 -0.6703
 8846TIP3    H226461   3.344   5.433   3.023  0.8484 -1.4460 -0.1505
 8847TIP3   OH226462   0.398   4.583   4.727 -0.0912  0.0136  0.0108
 8847TIP3    H126463   0.441   4.618   4.649  1.3781  0.7236  1.1237
 8847TIP3    H226464   0.326   4.644   4.744 -0.1052  0.1410 -0.4921
 8848TIP3   OH226465   1.039   6.175   4.832  0.0619 -0.1129 -0.7965
 8848TIP3    H126466   1.100   6.113   4.792 -1.0673 -1.5450 -0.3300
 8848TIP3    H226467   1.046   6.253   4.777  2.5864 -0.0977 -0.5259
 8849TIP3   OH226468   2.406   7.197   3.781  0.0934  0.1676 -0.2690
 8849TIP3    H126469   2.344   7.225   3.713 -0.1699  0.4558  0.0888
 8849TIP3    H226470   2.477   7.262   3.777  0.4308 -0.2304 -0.7597
 8850TIP3   OH226471   4.643   5.750   4.377 -0.1800 -0.9045  0.3121
 8850TIP3    H126472   4.594   5.741   4.458 -1.0464 -0.9039 -0.1994
 8850TIP3    H226473   4.700   5.673   4.374  2.1690  0.7047  2.4448
 8851TIP3   OH226474   2.022   8.304   3.446  0.1955  0.4077 -0.1294
 8851TIP3    H126475   2.019   8.360   3.523  0.6061 -0.4423  0.5189
 8851TIP3    H226476   2.058   8.221   3.478  2.0234  0.5941 -1.5534
 8852TIP3   OH226477   2.864   5.777   1.755 -0.3390  0.0313 -0.4926
 8852TIP3    H126478   2.834   5.690   1.781 -1.1598  0.2629 -0.6502
 8852TIP3    H226479   2.928   5.760   1.686  1.8397 -0.5724  1.6195
 8853TIP3   OH226480   2.030   7.093   3.728  0.1658 -0.7301 -0.0353
 8853TIP3    H126481   2.093   7.028   3.696 -0.4549 -0.1939 -2.4161
 8853TIP3    H226482   1.975   7.113   3.652 -0.5804  1.5114  1.0584
 8854TIP3   OH226483   2.209   5.439   3.969  0.0464 -0.2094 -0.6343
 8854TIP3    H126484   2.255   5.457   4.050 -0.7019  2.1628 -0.6940
 8854TIP3    H226485   2.278   5.416   3.906  1.0296  1.7017 -0.3010
 8855TIP3   OH226486   1.535   7.029   4.443  0.1324  0.0311 -0.2195
 8855TIP3    H126487   1.626   7.051   4.424  0.5356  1.6959  3.1365
 8855TIP3    H226488   1.536   7.002   4.535 -2.6988 -0.2487 -0.2392
 8856TIP3   OH226489   2.689   6.881   4.639  0.2739  0.0358  0.0321
 8856TIP3    H126490   2.642   6.801   4.663  0.6479 -0.5187 -1.0336
 8856TIP3    H226491   2.781   6.855   4.635  0.5323  0.7983  0.7945
 8857TIP3   OH226492   3.297   5.660   4.543 -0.1821 -0.3561  0.3379
 8857TIP3    H126493   3.305   5.733   4.605  0.5806 -1.4154  1.4919
 8857TIP3    H226494   3.375   5.667   4.488 -0.0809 -0.3377  0.4831
 8858TIP3   OH226495   2.816   6.137   5.313 -0.5723 -0.6118  0.5059
 8858TIP3    H126496   2.782   6.200   5.248 -1.3331 -0.4681  1.0342
 8858TIP3    H226497   2.898   6.175   5.343  0.8195 -1.6439 -1.8332
 8859TIP3   OH226498   4.493   4.038   4.474  0.3448 -0.1119  0.1963
 8859TIP3    H126499   4.517   3.998   4.557 -0.9925  0.5235  0.9238
 8859TIP3    H226500   4.534   4.124   4.476  0.2600 -0.0720  0.2355
 8860TIP3   OH226501   1.935   6.164   5.761 -0.1009 -0.0644  0.6403
 8860TIP3    H126502   2.028   6.161   5.780 -0.1865  0.0285  1.0854
 8860TIP3    H226503   1.901   6.234   5.816 -0.3678  0.1649  0.1895
 8861TIP3   OH226504   0.827   4.320   5.519  0.2881  0.1036 -0.2515
 8861TIP3    H126505   0.790   4.251   5.574  0.3533 -1.1624 -1.7483
 8861TIP3    H226506   0.917   4.293   5.503  1.1075  1.8896  1.3025
 8862TIP3   OH226507   0.517   4.976   5.388 -0.0269 -0.2820 -0.3517
 8862TIP3    H126508   0.566   4.901   5.355  1.5376  0.1490  0.9265
 8862TIP3    H226509   0.564   5.053   5.356  2.3589  0.1747  3.8197
 8863TIP3   OH226510   3.293   4.616   4.146  0.2314  0.3098 -0.4969
 8863TIP3    H126511   3.347   4.539   4.160 -2.3045 -1.4638 -0.3182
 8863TIP3    H226512   3.348   4.674   4.092  1.9152 -1.8674 -1.1773
 8864TIP3   OH226513   3.861   4.735   6.010 -0.4002  0.4638 -0.0094
 8864TIP3    H126514   3.845   4.768   6.099 -0.6656 -2.0505  0.9038
 8864TIP3    H226515   3.956   4.737   6.001 -0.3037 -0.2851  0.7515
 8865TIP3   OH226516   2.079   4.742   3.884  0.4340  0.0727 -0.2147
 8865TIP3    H126517   2.101   4.674   3.948  0.5044  1.5580  1.3730
 8865TIP3    H226518   1.988   4.726   3.861  0.9495 -1.5962 -1.1670
 8866TIP3   OH226519   1.479   4.056   2.475 -0.2762 -0.0794  0.1102
 8866TIP3    H126520   1.516   4.108   2.547 -2.8279  1.6098  0.2487
 8866TIP3    H226521   1.407   4.008   2.514  1.0195 -2.5398 -0.4053
 8867TIP3   OH226522   2.858   4.243   1.876  0.0913 -0.1345  0.4554
 8867TIP3    H126523   2.780   4.270   1.924  0.5473 -0.5841  1.4658
 8867TIP3    H226524   2.930   4.292   1.917  0.5149 -0.6822  0.3777
 8868TIP3   OH226525   0.715   3.340   4.141  0.0214  0.0931 -0.2984
 8868TIP3    H126526   0.777   3.267   4.131 -1.5889 -1.4223  0.5380
 8868TIP3    H226527   0.699   3.370   4.052  0.3610 -0.8698 -0.6937
 8869TIP3   OH226528   1.193   8.328   3.283  0.0380 -0.2201  0.4083
 8869TIP3    H126529   1.163   8.323   3.374 -3.0809 -1.1315 -0.6039
 8869TIP3    H226530   1.161   8.248   3.243  0.7794  0.4990 -1.6859
 8870TIP3   OH226531   0.203   5.009   4.507 -0.9918  0.7272 -0.0989
 8870TIP3    H126532   0.235   5.085   4.556 -0.4918  0.6629 -0.3241
 8870TIP3    H226533   0.265   4.940   4.528 -1.8317  0.1782  0.6556
 8871TIP3   OH226534   2.455   7.760   7.086 -0.0470  0.3539 -0.3446
 8871TIP3    H126535   2.425   7.682   7.038 -0.1135 -0.4607  0.9987
 8871TIP3    H226536   2.398   7.830   7.055 -0.4659 -0.2795 -1.0339
 8872TIP3   OH226537   1.706   5.573   3.698  0.0294  0.2411  0.2312
 8872TIP3    H126538   1.647   5.549   3.627 -0.6081 -1.2131  1.2165
 8872TIP3    H226539   1.679   5.661   3.724 -0.5293  0.2856 -0.5043
 8873TIP3   OH226540   1.963   2.673   0.148 -0.3118 -0.4181 -0.2123
 8873TIP3    H126541   2.005   2.668   0.234 -1.1743  0.4961  0.2728
 8873TIP3    H226542   1.883   2.621   0.158 -1.2695  1.0926  0.0574
 8874TIP3   OH226543   2.940   6.918   5.240  0.0120 -0.0600 -0.2744
 8874TIP3    H126544   2.908   6.996   5.194  0.0936 -0.6018 -1.2467
 8874TIP3    H226545   2.863   6.861   5.247  0.1702 -0.2814 -0.3556
 8875TIP3   OH226546   4.554   6.265   4.635  0.4960  0.3691  0.0056
 8875TIP3    H126547   4.629   6.317   4.664  2.7194 -2.6703 -0.1195
 8875TIP3    H226548   4.497   6.328   4.590  3.2968  2.6155 -0.5121
 8876TIP3   OH226549   0.640   6.242   3.302  0.4664  0.9199  0.2136
 8876TIP3    H126550   0.650   6.188   3.380  1.5578 -0.2400 -0.7078
 8876TIP3    H226551   0.560   6.209   3.260  0.4078  0.9098  0.3325
 8877TIP3   OH226552   0.216   6.954   5.587 -0.2809 -0.0012  0.2288
 8877TIP3    H126553   0.196   7.036   5.631 -1.5011 -1.0025  1.5877
 8877TIP3    H226554   0.208   6.974   5.494  1.6965  1.9727  0.4256
 8878TIP3   OH226555   0.818   8.026   4.248 -0.0918  0.2690 -0.5666
 8878TIP3    H126556   0.843   8.020   4.340 -0.4224  0.0150 -0.4903
 8878TIP3    H226557   0.893   8.067   4.205  0.0602  0.3988 -0.1830
 8879TIP3   OH226558   7.788   6.758   3.878  0.1754 -0.2505  0.4241
 8879TIP3    H126559   7.709   6.714   3.847  0.1979  0.3134 -0.4466
 8879TIP3    H226560   7.811   6.819   3.808 -0.3379  1.7843  1.9955
 8880TIP3   OH226561   2.765   5.907   2.328 -0.3582  0.2778 -0.1482
 8880TIP3    H126562   2.703   5.977   2.305  1.6641  2.8090  1.8642
 8880TIP3    H226563   2.845   5.929   2.280 -0.7704 -2.6930 -2.3390
 8881TIP3   OH226564   2.184   4.747   5.081 -0.4493  0.4849  0.4772
 8881TIP3    H126565   2.215   4.795   5.004 -0.0112  1.0373  0.9842
 8881TIP3    H226566   2.240   4.670   5.086  0.2600  1.0179  0.8718
 8882TIP3   OH226567   1.990   6.699   6.141  0.2171  0.1855  0.0742
 8882TIP3    H126568   2.046   6.626   6.114 -1.1299 -0.4412 -1.0555
 8882TIP3    H226569   1.962   6.676   6.229 -0.3466 -0.7525 -0.3471
 8883TIP3   OH226570   1.460   7.773   2.595 -0.4286  0.0655  0.1458
 8883TIP3    H126571   1.414   7.780   2.678  0.2684  2.1905  0.3847
 8883TIP3    H226572   1.407   7.824   2.534  1.6107  2.7005  0.4659
 8884TIP3   OH226573   1.350   6.481   5.683 -0.0107  0.1547  0.0789
 8884TIP3    H126574   1.385   6.422   5.749 -0.4523 -0.6890 -0.4335
 8884TIP3    H226575   1.407   6.558   5.687  1.1810 -0.7135  0.0542
 8885TIP3   OH226576   2.268   4.248   4.731 -0.0054 -0.1517  0.0840
 8885TIP3    H126577   2.340   4.185   4.743 -1.9208 -1.9817  2.5570
 8885TIP3    H226578   2.242   4.272   4.820 -1.6436  1.4567 -0.7922
 8886TIP3   OH226579   3.737   5.809   6.506  0.8625 -0.0110  0.0239
 8886TIP3    H126580   3.715   5.750   6.579 -0.9443 -0.2946 -0.7128
 8886TIP3    H226581   3.733   5.897   6.544 -0.1837 -0.1498  0.2517
 8887TIP3   OH226582   2.974   4.097   4.265  0.0296  0.7504  0.5722
 8887TIP3    H126583   2.991   4.009   4.297 -0.2259  0.7958  0.8294
 8887TIP3    H226584   3.019   4.101   4.180  1.5498  0.9477  1.3675
 8888TIP3   OH226585   8.523   5.825   4.140  0.6819 -0.0534 -0.0620
 8888TIP3    H126586   8.575   5.755   4.180  1.0003  0.0549 -0.2874
 8888TIP3    H226587   8.455   5.843   4.205  0.1199 -1.1128 -0.3478
 8889TIP3   OH226588   1.149   5.327   4.332 -0.7020  0.0874 -0.5982
 8889TIP3    H126589   1.070   5.275   4.344 -0.0655 -0.7059  0.3070
 8889TIP3    H226590   1.214   5.264   4.301  0.6291 -0.1482  2.4110
 8890TIP3   OH226591   3.057   5.245   3.911  0.7737 -0.0531  0.2913
 8890TIP3    H126592   3.103   5.208   3.987 -0.2109  1.5791  1.7169
 8890TIP3    H226593   3.002   5.314   3.948  0.8962  1.3273 -2.0403
 8891TIP3   OH226594   2.974   5.979   4.279  0.3735 -0.0147 -0.2419
 8891TIP3    H126595   2.905   5.925   4.240  0.3193  0.3436 -0.6470
 8891TIP3    H226596   2.971   5.958   4.372 -1.4377  1.2654  0.0169
 8892TIP3   OH226597   2.364   7.625   4.619 -0.0074 -0.3245 -0.1823
 8892TIP3    H126598   2.442   7.680   4.611 -0.0116 -0.3168 -0.1706
 8892TIP3    H226599   2.361   7.602   4.712  0.2096 -0.6597 -0.2581
 8893TIP3   OH226600   3.346   4.141   4.187  0.1035  0.0251 -0.1466
 8893TIP3    H126601   3.302   4.060   4.213  1.1011 -0.5650 -0.2638
 8893TIP3    H226602   3.369   4.183   4.270  0.3545 -0.2371 -0.0838
 8894TIP3   OH226603   2.335   4.408   3.154 -0.2984 -0.0093 -0.2366
 8894TIP3    H126604   2.253   4.430   3.198  0.4024  0.1649  1.0098
 8894TIP3    H226605   2.376   4.492   3.134 -0.9638 -0.0668 -1.9345
 8895TIP3   OH226606   5.542   0.175   2.519 -0.0272  0.2367 -0.2782
 8895TIP3    H126607   5.524   0.100   2.462  0.0399  2.2687 -3.0850
 8895TIP3    H226608   5.461   0.226   2.518  0.3281  0.8336  0.5916
 8896TIP3   OH226609   4.009   6.058   4.137 -0.3197 -0.0797 -0.8714
 8896TIP3    H126610   3.972   6.024   4.219 -0.6100  0.0556 -0.9491
 8896TIP3    H226611   3.956   6.018   4.068 -0.6134  0.4762 -0.9679
 8897TIP3   OH226612   1.939   4.278   5.084  0.0653 -0.1411  0.3581
 8897TIP3    H126613   2.022   4.238   5.059 -0.6820 -0.5873 -1.5212
 8897TIP3    H226614   1.931   4.355   5.028 -0.5226  0.2196  0.9267
 8898TIP3   OH226615   0.575   3.915   6.420  0.2401  0.0303 -0.1773
 8898TIP3    H126616   0.530   3.999   6.420  0.6948  0.2747  0.2975
 8898TIP3    H226617   0.538   3.868   6.344 -0.9834  0.1236  0.3410
 8899TIP3   OH226618   1.832   7.452   3.010 -0.0877 -0.3319  0.0225
 8899TIP3    H126619   1.781   7.518   2.962  0.8865  1.4677  1.3827
 8899TIP3    H226620   1.783   7.437   3.090  0.2231 -0.4621  0.1900
 8900TIP3   OH226621   3.593   5.363   5.138  0.3056 -0.0540 -0.5769
 8900TIP3    H126622   3.603   5.402   5.052  2.5180 -0.4584 -0.5418
 8900TIP3    H226623   3.652   5.414   5.194 -1.8890  0.8836  0.9386
 8901TIP3   OH226624   2.372   8.312   4.054  0.1099  0.3150 -0.1849
 8901TIP3    H126625   2.308   8.241   4.054  0.0804  0.3132  1.7448
 8901TIP3    H226626   2.455   8.269   4.036 -0.1698  0.0575 -0.8814
 8902TIP3   OH226627   3.038   5.869   1.513  0.0295  0.1730  0.3815
 8902TIP3    H126628   3.026   5.821   1.432  0.1242 -1.9441  1.5787
 8902TIP3    H226629   3.089   5.947   1.488 -1.5530  0.5281 -1.8648
 8903TIP3   OH226630   2.525   6.472   3.863 -0.2434 -0.6944 -0.3699
 8903TIP3    H126631   2.597   6.410   3.873 -0.4635 -0.7322  1.0846
 8903TIP3    H226632   2.453   6.421   3.826  0.1441 -0.8949 -0.8402
 8904TIP3   OH226633   2.842   6.186   2.543 -0.1463  0.3311  0.3262
 8904TIP3    H126634   2.783   6.204   2.470  0.9222  0.6534 -0.4609
 8904TIP3    H226635   2.817   6.098   2.573 -1.9860  1.0277  0.9304
 8905TIP3   OH226636   4.162   6.101   1.082  0.1671  0.3396  0.2618
 8905TIP3    H126637   4.144   6.086   0.989 -0.7744 -1.2481  0.6826
 8905TIP3    H226638   4.076   6.097   1.124  0.4248  2.5184  1.0210
 8906TIP3   OH226639   2.662   5.493   3.463 -0.1524  0.0292  0.3067
 8906TIP3    H126640   2.640   5.500   3.370 -3.1920 -0.6560  0.9156
 8906TIP3    H226641   2.704   5.407   3.472  0.8167  0.4113 -0.5372
 8907TIP3   OH226642   3.141   5.157   2.344 -0.4737 -0.4259  0.5990
 8907TIP3    H126643   3.115   5.205   2.265 -1.0275  1.1083  1.6950
 8907TIP3    H226644   3.108   5.068   2.331 -2.8592  0.4913  0.2517
 8908TIP3   OH226645   3.136   5.943   3.741  0.1402  0.1484  0.0266
 8908TIP3    H126646   3.110   6.011   3.678 -0.9020  1.3029  1.6574
 8908TIP3    H226647   3.054   5.899   3.763  0.4615 -0.0543  0.8165
 8909TIP3   OH226648   3.754   5.876   5.417  0.1102  0.3234 -0.1018
 8909TIP3    H126649   3.791   5.822   5.347 -0.2617  0.7706 -0.6540
 8909TIP3    H226650   3.700   5.940   5.371 -0.0102  0.7219  0.5906
 8910TIP3   OH226651   6.008   5.338   2.511  0.0495 -0.2999 -0.5138
 8910TIP3    H126652   6.043   5.287   2.584  0.3683 -1.0841 -1.1969
 8910TIP3    H226653   5.930   5.289   2.484  0.6823 -0.7633 -1.5451
 8911TIP3   OH226654   3.918   4.699   3.789 -0.2461  0.4873 -0.1756
 8911TIP3    H126655   3.914   4.747   3.872  0.8290  1.1038 -0.4618
 8911TIP3    H226656   4.010   4.708   3.761 -0.0029 -1.7886 -0.2135
 8912TIP3   OH226657   4.795   5.017   2.829 -0.9653  0.5190 -0.4075
 8912TIP3    H126658   4.815   5.110   2.818  0.6899  0.2354  0.0552
 8912TIP3    H226659   4.809   5.000   2.922 -0.2427 -0.4216 -0.6792
 8913TIP3   OH226660   5.391   5.488   3.834  0.3279  0.0174  0.1005
 8913TIP3    H126661   5.303   5.507   3.865  0.5160  0.2433  0.4937
 8913TIP3    H226662   5.428   5.574   3.811  0.7351  0.0125  0.7137
 8914TIP3   OH226663   4.065   5.332   2.931 -0.5748 -0.3544 -0.7497
 8914TIP3    H126664   4.079   5.247   2.971 -1.1736 -0.0474  0.1071
 8914TIP3    H226665   4.152   5.360   2.903 -0.1703 -0.6117  0.2489
 8915TIP3   OH226666   1.258   6.820   4.901  0.0493  0.3554 -0.4340
 8915TIP3    H126667   1.320   6.854   4.837  1.1048  0.2301  0.4830
 8915TIP3    H226668   1.289   6.731   4.919  1.4836  1.3302  2.2978
 8916TIP3   OH226669   2.782   4.024   4.532  0.2423 -0.0409 -0.5025
 8916TIP3    H126670   2.742   4.036   4.445  0.7623  1.8591 -0.5129
 8916TIP3    H226671   2.749   4.098   4.583  0.7911 -0.5563  0.5996
 8917TIP3   OH226672   4.712   5.707   4.073  0.1488  0.1937  0.1999
 8917TIP3    H126673   4.720   5.801   4.090  1.3579  0.1619 -0.2106
 8917TIP3    H226674   4.674   5.701   3.986  1.8569  0.2888 -0.5566
 8918TIP3   OH226675   3.617   5.039   5.430  0.1075 -0.3543  0.2627
 8918TIP3    H126676   3.656   4.952   5.420 -0.0496 -0.5589  1.3110
 8918TIP3    H226677   3.524   5.025   5.414  0.3240 -0.0258 -1.3881
 8919TIP3   OH226678   2.679   6.004   1.690  0.3424  0.8424  0.0219
 8919TIP3    H126679   2.617   5.995   1.762  0.0136  0.3106 -0.3179
 8919TIP3    H226680   2.740   5.931   1.701  0.8983  1.3506  0.3429
 8920TIP3   OH226681   4.768   1.355   3.503  0.0875  0.5508 -0.3364
 8920TIP3    H126682   4.777   1.448   3.523  1.2381  0.7632 -1.7193
 8920TIP3    H226683   4.844   1.314   3.544 -0.1449  0.2980 -0.1611
 8921TIP3   OH226684   4.168   4.711   2.669  0.0613  0.4081  0.1846
 8921TIP3    H126685   4.143   4.639   2.610 -1.6299  1.0741  0.0507
 8921TIP3    H226686   4.261   4.697   2.685  0.6954  0.5078 -3.0612
 8922TIP3   OH226687   2.721   6.283   4.420  0.2842 -0.0415 -0.1899
 8922TIP3    H126688   2.809   6.251   4.439  0.1998 -0.8854 -1.1365
 8922TIP3    H226689   2.714   6.278   4.324 -0.5131  0.7544 -0.1795
 8923TIP3   OH226690   1.672   8.085   4.655  0.1685 -0.1284 -1.0107
 8923TIP3    H126691   1.731   8.011   4.636  0.4731  0.0128 -0.6178
 8923TIP3    H226692   1.727   8.149   4.700 -0.0959  0.3409 -1.3482
 8924TIP3   OH226693   2.925   5.553   2.492  0.2636 -0.0258  0.1519
 8924TIP3    H126694   2.924   5.458   2.502  1.7629  0.0871  1.5604
 8924TIP3    H226695   2.902   5.568   2.400 -1.3186 -1.6781  0.2466
 8925TIP3   OH226696   1.937   8.099   4.583 -0.3255 -0.1881 -0.3072
 8925TIP3    H126697   2.023   8.083   4.624 -1.0119 -0.8367  0.9187
 8925TIP3    H226698   1.916   8.190   4.605 -0.7052 -0.5439  0.8366
 8926TIP3   OH226699   5.623   5.762   4.315  0.3390  0.2688  0.1222
 8926TIP3    H126700   5.645   5.766   4.408 -0.8967  0.1072  0.4296
 8926TIP3    H226701   5.528   5.753   4.314  0.5472 -1.9633 -1.1078
 8927TIP3   OH226702   3.938   7.004   4.134 -0.3123  0.0120  0.1050
 8927TIP3    H126703   4.028   6.973   4.148 -0.4797 -0.5676 -0.0978
 8927TIP3    H226704   3.887   6.925   4.119 -1.0088  0.2812  1.0136
 8928TIP3   OH226705   3.503   6.484   4.467  0.0129  0.1219 -0.6680
 8928TIP3    H126706   3.454   6.408   4.436 -0.2115 -0.3941  0.9042
 8928TIP3    H226707   3.595   6.459   4.461 -0.0138  0.1607 -1.2453
 8929TIP3   OH226708   4.385   7.110   3.136  0.2126 -0.3570 -0.2272
 8929TIP3    H126709   4.315   7.046   3.144  0.6904 -0.7418  1.0013
 8929TIP3    H226710   4.356   7.185   3.188  1.1153 -0.8931  1.0847
 8930TIP3   OH226711   5.630   4.447   3.376  0.0525  0.0174  0.3283
 8930TIP3    H126712   5.631   4.488   3.462  2.1579  0.8524 -0.0806
 8930TIP3    H226713   5.605   4.356   3.393 -0.6009  0.4401  1.6835
 8931TIP3   OH226714   5.661   3.666   3.293 -0.2943 -0.1169  0.0718
 8931TIP3    H126715   5.626   3.672   3.204  0.5182  0.4179 -0.2081
 8931TIP3    H226716   5.638   3.749   3.334  0.8130  0.3119 -0.1704
 8932TIP3   OH226717   4.331   6.969   0.196 -0.0241  0.0318 -0.5039
 8932TIP3    H126718   4.357   6.905   0.129 -1.7032 -0.1647 -0.9968
 8932TIP3    H226719   4.327   6.918   0.277 -1.8915 -0.6397 -0.9911
 8933TIP3   OH226720   5.570   4.272   2.119 -0.1941 -0.3634  0.2935
 8933TIP3    H126721   5.501   4.221   2.077  0.2223 -0.7219  0.0406
 8933TIP3    H226722   5.535   4.294   2.205 -0.6939 -0.3958  0.0997
 8934TIP3   OH226723   3.790   5.127   1.149 -0.2651 -0.4505 -0.3292
 8934TIP3    H126724   3.723   5.152   1.213 -0.7589 -0.8398 -0.6840
 8934TIP3    H226725   3.829   5.210   1.122  0.5263 -0.3449  1.0822
 8935TIP3   OH226726   4.122   5.009   0.375  0.0888  0.1692  0.3300
 8935TIP3    H126727   4.172   5.083   0.410 -0.0952  0.0343  0.8776
 8935TIP3    H226728   4.039   5.010   0.423 -0.1496 -0.0493 -0.0642
 8936TIP3   OH226729   3.046   6.149   2.861  0.2217 -0.2144 -0.1072
 8936TIP3    H126730   3.040   6.079   2.927  0.5544 -1.4404 -1.3432
 8936TIP3    H226731   2.962   6.195   2.867  0.7807  0.5700  2.1192
 8937TIP3   OH226732   1.533   2.952   3.948  0.0468  0.0565 -0.1148
 8937TIP3    H126733   1.605   2.989   3.898  0.5350 -1.6041 -0.6966
 8937TIP3    H226734   1.471   3.024   3.959  1.6140  1.4002  0.0684
 8938TIP3   OH226735   1.060   7.162   4.059 -0.6242  0.9455  0.7188
 8938TIP3    H126736   0.996   7.117   4.004 -1.3352  1.7757  0.8447
 8938TIP3    H226737   1.126   7.193   3.997  0.5189 -1.2912  0.7697
 8939TIP3   OH226738   3.788   6.327   3.817  0.4510  0.3089  0.6095
 8939TIP3    H126739   3.852   6.398   3.811 -0.7175  1.2956 -0.4159
 8939TIP3    H226740   3.729   6.354   3.887  0.7349 -0.2656  1.0756
 8940TIP3   OH226741   4.065   6.195   5.244  0.9285  0.3645 -0.2614
 8940TIP3    H126742   4.146   6.196   5.294  1.3257  2.0264 -0.9110
 8940TIP3    H226743   4.001   6.238   5.301  0.6097 -0.5466  0.0716
 8941TIP3   OH226744   2.903   6.146   1.910  0.2798  0.1329 -0.3946
 8941TIP3    H126745   2.831   6.208   1.920  1.0469  0.7805  1.4431
 8941TIP3    H226746   2.978   6.200   1.886  0.2332 -0.4981 -1.9827
 8942TIP3   OH226747   2.092   6.612   3.510  0.1994  0.8663 -0.2531
 8942TIP3    H126748   2.092   6.525   3.469  2.0566 -0.0996  1.6192
 8942TIP3    H226749   2.007   6.618   3.554  0.5534 -0.6108  0.6971
 8943TIP3   OH226750   2.869   6.626   2.600  0.3907 -0.1251 -0.0402
 8943TIP3    H126751   2.901   6.536   2.592 -0.0031 -0.3040  0.3739
 8943TIP3    H226752   2.818   6.626   2.681  0.7876  0.5932  0.2113
 8944TIP3   OH226753   4.320   7.532   4.993  0.2420 -0.2461 -0.3200
 8944TIP3    H126754   4.413   7.554   4.992 -0.2923  2.1825  0.5549
 8944TIP3    H226755   4.280   7.593   4.931 -0.8483 -0.9622 -0.3441
 8945TIP3   OH226756   5.144   4.662   3.703  0.0504 -0.0497 -0.0890
 8945TIP3    H126757   5.053   4.670   3.729  0.3038 -0.8223  1.0783
 8945TIP3    H226758   5.143   4.605   3.626 -0.5095  0.5736 -0.5501
 8946TIP3   OH226759   3.471   6.201   3.535 -0.5434 -0.1380 -0.0097
 8946TIP3    H126760   3.540   6.173   3.475 -0.2003  2.0268 -0.6798
 8946TIP3    H226761   3.420   6.265   3.484 -0.6898  1.1851  1.7562
 8947TIP3   OH226762   1.657   7.567   0.960  0.1479  0.5057 -0.0149
 8947TIP3    H126763   1.740   7.522   0.972  0.1847  0.6489  0.2845
 8947TIP3    H226764   1.663   7.644   1.017 -0.3502  0.2917  0.3320
 8948TIP3   OH226765   2.901   5.678   4.665  0.2156 -0.0540  0.4946
 8948TIP3    H126766   2.819   5.713   4.699 -0.3997 -1.3341  0.3382
 8948TIP3    H226767   2.919   5.602   4.720  0.6434 -0.5193 -0.2777
 8949TIP3   OH226768   2.097   5.000   4.454 -0.1404 -0.0736 -0.3178
 8949TIP3    H126769   2.040   4.948   4.511  0.8796 -1.8638 -0.9158
 8949TIP3    H226770   2.136   4.937   4.393  0.9893  1.4028 -1.1739
 8950TIP3   OH226771   5.789   7.917   2.673  0.1400 -0.5834  0.3197
 8950TIP3    H126772   5.805   7.839   2.619 -2.2342 -0.8618 -0.0506
 8950TIP3    H226773   5.794   7.990   2.611 -1.1965 -0.7783 -0.0288
 8951TIP3   OH226774   3.283   5.965   4.298  0.1934 -0.7604  0.7798
 8951TIP3    H126775   3.282   5.955   4.203 -0.4361  2.6402  0.3718
 8951TIP3    H226776   3.200   5.927   4.327  0.3217 -1.6711 -0.0221
 8952TIP3   OH226777   3.239   3.498   1.879 -0.1807 -0.1461  1.5259
 8952TIP3    H126778   3.280   3.508   1.965 -1.3330 -0.8614  2.1636
 8952TIP3    H226779   3.194   3.582   1.864 -0.3510 -0.1849  1.8167
 8953TIP3   OH226780   2.137   6.151   2.418  0.3835 -0.1681 -0.0742
 8953TIP3    H126781   2.065   6.199   2.378  0.2733 -1.0556 -0.9744
 8953TIP3    H226782   2.215   6.202   2.396  0.1431  0.2201 -0.0198
 8954TIP3   OH226783   3.535   7.057   3.167  0.1561 -0.1656  0.9754
 8954TIP3    H126784   3.460   7.096   3.213  1.6237  0.3344  3.0084
 8954TIP3    H226785   3.531   7.095   3.079 -1.7920  0.0699  1.1278
 8955TIP3   OH226786   4.375   7.319   4.411 -0.0456  0.0447  0.1480
 8955TIP3    H126787   4.331   7.272   4.340 -0.8633  0.3982  0.4204
 8955TIP3    H226788   4.451   7.359   4.369 -0.7314  0.5704 -0.6112
 8956TIP3   OH226789   4.874   5.561   4.768  0.1286 -0.7803  0.0113
 8956TIP3    H126790   4.924   5.523   4.840 -0.3680  0.5811  1.0892
 8956TIP3    H226791   4.937   5.566   4.696  1.0987 -0.6291  0.8467
 8957TIP3   OH226792   5.080   0.574   6.346 -0.1374 -0.0950  0.3004
 8957TIP3    H126793   5.021   0.536   6.281  0.6213  1.0213 -1.0509
 8957TIP3    H226794   5.048   0.663   6.358  0.7504  0.2352  0.2108
 8958TIP3   OH226795   2.800   5.472   1.976 -0.3082  0.2663 -0.5397
 8958TIP3    H126796   2.781   5.382   1.949  0.7510 -0.1615  0.0746
 8958TIP3    H226797   2.750   5.527   1.916 -0.0211 -0.7112 -1.6880
 8959TIP3   OH226798   0.380   6.664   3.197 -0.0356  0.5429 -0.3361
 8959TIP3    H126799   0.453   6.690   3.253  0.0041  2.5745 -1.2684
 8959TIP3    H226800   0.334   6.597   3.247  1.6530  0.2353  0.8662
 8960TIP3   OH226801   2.703   4.724   4.704 -0.6232 -0.8500 -0.2831
 8960TIP3    H126802   2.663   4.810   4.697 -1.3671 -1.0921  0.9070
 8960TIP3    H226803   2.785   4.731   4.655 -0.1958  0.8278  0.6559
 8961TIP3   OH226804   2.621   4.165   2.213 -0.1879 -0.1445  0.4977
 8961TIP3    H126805   2.678   4.088   2.212 -0.6736 -0.5543  2.2246
 8961TIP3    H226806   2.618   4.194   2.122  0.6639 -1.6827 -0.0402
 8962TIP3   OH226807   2.823   5.262   5.539 -0.3359 -0.2667  0.4046
 8962TIP3    H126808   2.727   5.266   5.546 -0.3774 -1.3238  0.4057
 8962TIP3    H226809   2.852   5.347   5.571 -1.3591  0.6329 -0.9542
 8963TIP3   OH226810   3.425   5.106   1.459  0.1702  0.0206  0.4159
 8963TIP3    H126811   3.488   5.059   1.404 -0.2222 -1.0578  0.8616
 8963TIP3    H226812   3.457   5.091   1.548  0.6534  1.5284  0.4995
 8964TIP3   OH226813   4.834   4.627   3.460  0.0036  0.0200 -0.1092
 8964TIP3    H126814   4.798   4.541   3.480  1.1093  0.1646  2.8332
 8964TIP3    H226815   4.796   4.685   3.525  1.2148  1.2606 -0.4751
 8965TIP3   OH226816   3.459   6.038   3.240  0.6133 -0.3729  0.2843
 8965TIP3    H126817   3.375   5.992   3.226  0.3101  0.2409  0.0732
 8965TIP3    H226818   3.494   5.999   3.320 -0.8731  0.8223  1.5524
 8966TIP3   OH226819   4.130   3.740   3.910 -0.6476 -0.2243  0.0268
 8966TIP3    H126820   4.140   3.664   3.966 -0.7132  1.2768  2.1512
 8966TIP3    H226821   4.039   3.737   3.880 -1.1840 -0.0243  1.5850
 8967TIP3   OH226822   4.243   4.311   2.727  0.5225 -0.1231 -0.8920
 8967TIP3    H126823   4.219   4.379   2.664  0.6067  1.0413  0.3117
 8967TIP3    H226824   4.337   4.322   2.740  0.7797 -1.3137 -1.6620
 8968TIP3   OH226825   4.778   6.092   3.821  0.2363 -0.3265 -0.2607
 8968TIP3    H126826   4.775   6.183   3.792 -2.1233 -0.0451  0.7463
 8968TIP3    H226827   4.852   6.089   3.882  0.6557  0.7858 -0.6956
 8969TIP3   OH226828   2.609   5.442   3.202 -0.4779  0.0308  0.0176
 8969TIP3    H126829   2.638   5.468   3.114  0.2316 -0.5970  0.0664
 8969TIP3    H226830   2.540   5.378   3.186  0.5426 -1.0550 -0.0797
 8970TIP3   OH226831   2.662   5.061   3.583 -0.0540  0.6082 -0.6108
 8970TIP3    H126832   2.681   5.015   3.501  1.1961  2.0079 -1.1174
 8970TIP3    H226833   2.736   5.120   3.595 -0.8518  1.3151  0.8840
 8971TIP3   OH226834   3.336   5.896   2.840  0.8421 -0.3209 -0.4327
 8971TIP3    H126835   3.431   5.907   2.850  0.5181  0.0991  2.5802
 8971TIP3    H226836   3.317   5.812   2.883 -0.2093 -0.2843 -0.8097
 8972TIP3   OH226837   2.943   4.585   5.520 -0.3905  0.3189  0.5856
 8972TIP3    H126838   2.886   4.544   5.455 -0.4005  0.7881  0.3006
 8972TIP3    H226839   2.901   4.668   5.540 -0.1069  0.4112  0.8015
 8973TIP3   OH226840   2.431   5.553   4.163  0.5084 -0.0933 -0.1146
 8973TIP3    H126841   2.463   5.627   4.215  1.2788 -1.4710  1.4156
 8973TIP3    H226842   2.495   5.545   4.092  1.5807 -0.5454  0.8737
 8974TIP3   OH226843   3.088   4.749   3.886 -0.2713  0.2438 -0.0478
 8974TIP3    H126844   3.051   4.783   3.805 -1.1837 -0.5771  0.0206
 8974TIP3    H226845   3.091   4.654   3.874  0.6097  0.1983  0.4584
 8975TIP3   OH226846   4.559   2.613   3.155  0.6517  0.6555 -0.0278
 8975TIP3    H126847   4.650   2.588   3.171  0.9184  1.8372  0.3985
 8975TIP3    H226848   4.564   2.691   3.100 -0.1868 -0.8494 -2.3183
 8976TIP3   OH226849   5.778   5.172   2.499  0.1717  0.0876  0.0849
 8976TIP3    H126850   5.772   5.097   2.559  1.6640  1.3500  1.8680
 8976TIP3    H226851   5.689   5.184   2.468 -0.4938 -1.1067  1.4421
 8977TIP3   OH226852   2.348   5.130   3.073  0.2218 -0.0174 -0.2635
 8977TIP3    H126853   2.335   5.131   3.168  2.6827  1.8098  0.1399
 8977TIP3    H226854   2.380   5.218   3.053  2.9424 -1.3854 -2.2802
 8978TIP3   OH226855   3.841   5.960   5.897 -0.3121 -0.1349 -0.0466
 8978TIP3    H126856   3.875   5.972   5.808  0.0865  1.1545  0.2654
 8978TIP3    H226857   3.815   5.868   5.901 -0.0398 -0.2768 -1.3975
 8979TIP3   OH226858   4.701   5.787   4.728  0.4397 -0.2619 -0.9021
 8979TIP3    H126859   4.678   5.791   4.821 -1.6358 -2.6146 -1.2372
 8979TIP3    H226860   4.779   5.731   4.725  0.7916  0.2082 -0.5312
 8980TIP3   OH226861   5.512   7.955   6.534 -0.1715  0.0983  0.4410
 8980TIP3    H126862   5.601   7.960   6.499 -0.2183 -0.3724  0.2534
 8980TIP3    H226863   5.505   8.030   6.593  0.3563  0.1219  0.4733
 8981TIP3   OH226864   3.629   4.770   3.172 -0.1651  0.0869 -0.2523
 8981TIP3    H126865   3.708   4.757   3.120  1.3413 -0.4482  2.1237
 8981TIP3    H226866   3.647   4.727   3.256 -2.2268  1.5773  1.0110
 8982TIP3   OH226867   2.405   4.573   4.864 -0.0838 -0.2904  0.3197
 8982TIP3    H126868   2.427   4.480   4.867 -0.5341 -0.4092  0.0531
 8982TIP3    H226869   2.344   4.585   4.937  0.6387 -0.0216  0.8851
 8983TIP3   OH226870   3.630   4.621   3.416  0.0607 -0.1269  0.0092
 8983TIP3    H126871   3.682   4.688   3.460 -0.8584  0.3771  0.3326
 8983TIP3    H226872   3.633   4.546   3.475  0.3973 -0.0944  0.0370
 8984TIP3   OH226873   1.529   4.856   4.320 -0.1862  0.5266  0.0854
 8984TIP3    H126874   1.615   4.876   4.282  0.0371 -0.4602  0.0459
 8984TIP3    H226875   1.530   4.899   4.405  0.4758  0.2632  0.2130
 8985TIP3   OH226876   3.547   3.802   2.335 -0.2015 -0.1959  0.1862
 8985TIP3    H126877   3.497   3.871   2.292  1.2063 -1.2122 -3.2912
 8985TIP3    H226878   3.555   3.734   2.268  1.9702 -1.9488  2.1561
 8986TIP3   OH226879   2.869   4.366   3.661  0.0300  0.3420  0.2434
 8986TIP3    H126880   2.830   4.444   3.701  0.2039 -0.6693  2.4528
 8986TIP3    H226881   2.794   4.309   3.644  0.3151 -0.9225  2.9795
 8987TIP3   OH226882   5.319   5.267   3.065 -0.5328 -0.6732 -0.1211
 8987TIP3    H126883   5.398   5.317   3.045  0.9957 -3.2243 -0.5785
 8987TIP3    H226884   5.282   5.311   3.142  0.9426  0.9444 -0.3189
 8988TIP3   OH226885   2.363   5.195   4.911  0.2071 -0.1330  0.0028
 8988TIP3    H126886   2.371   5.232   4.824  0.6179 -1.5325 -0.5644
 8988TIP3    H226887   2.450   5.162   4.932 -0.8603 -3.7939 -0.9127
 8989TIP3   OH226888   4.356   4.121   1.424  0.1784 -0.1019  0.3937
 8989TIP3    H126889   4.440   4.078   1.411  0.4879 -0.5016  3.3097
 8989TIP3    H226890   4.356   4.193   1.361  2.5512 -0.2877  0.1228
 8990TIP3   OH226891   1.075   7.663   6.234 -0.1570  0.3012 -0.1688
 8990TIP3    H126892   1.064   7.584   6.181  1.6794 -0.0279 -0.1014
 8990TIP3    H226893   1.050   7.635   6.323 -1.8346  0.4603 -0.5855
 8991TIP3   OH226894   3.842   6.535   6.102  0.0726  0.5390 -0.0920
 8991TIP3    H126895   3.754   6.498   6.101  0.6410 -0.8339 -0.3281
 8991TIP3    H226896   3.892   6.474   6.156  1.1679  0.6376 -0.9860
 8992TIP3   OH226897   3.578   7.263   6.215  0.1900  0.2089  0.1364
 8992TIP3    H126898   3.579   7.180   6.262  0.7474 -0.2162 -0.6013
 8992TIP3    H226899   3.486   7.290   6.216 -0.4333 -1.6374 -1.6879
 8993TIP3   OH226900   2.976   5.492   3.659 -0.0795 -0.0571  0.5086
 8993TIP3    H126901   2.907   5.515   3.721 -1.5514  0.0150 -1.1281
 8993TIP3    H226902   2.975   5.562   3.594  0.3054 -0.9929 -0.5285
 8994TIP3   OH226903   4.100   4.549   1.380 -0.9108  0.2712  0.0034
 8994TIP3    H126904   4.070   4.519   1.466 -0.8540 -0.0477 -0.0874
 8994TIP3    H226905   4.182   4.595   1.398 -0.5372 -0.4108  0.0297
 8995TIP3   OH226906   4.693   8.037   2.612 -0.1457  0.2702 -0.1250
 8995TIP3    H126907   4.665   8.068   2.526 -0.9911 -0.7175 -0.2080
 8995TIP3    H226908   4.639   8.085   2.674 -1.0513 -0.5851 -0.2332
 8996TIP3   OH226909   4.460   4.451   2.433 -0.8079  0.1819  0.2967
 8996TIP3    H126910   4.404   4.452   2.355  1.9180 -0.6708 -1.7562
 8996TIP3    H226911   4.540   4.408   2.404  0.2256 -0.2816  3.6554
 8997TIP3   OH226912   4.298   7.062   0.559  0.1250  0.1605 -0.4562
 8997TIP3    H126913   4.333   7.141   0.601  2.6123 -0.4405 -1.2632
 8997TIP3    H226914   4.204   7.067   0.572  0.2397  3.2468 -0.4520
 8998TIP3   OH226915   2.929   6.220   4.127 -0.2516 -0.1216  0.0202
 8998TIP3    H126916   2.941   6.132   4.162  0.8510 -0.4895 -1.2178
 8998TIP3    H226917   2.954   6.278   4.199  0.3145 -0.8309  0.4031
 8999TIP3   OH226918   4.394   5.315   3.980 -0.3177 -0.4252  0.4179
 8999TIP3    H126919   4.470   5.298   3.923  0.1494 -1.5196  1.3501
 8999TIP3    H226920   4.347   5.232   3.983 -0.8720 -0.0996  0.8499
 9000TIP3   OH226921   3.832   6.630   4.499 -0.4108  0.5331 -0.0968
 9000TIP3    H126922   3.928   6.629   4.496 -0.3543  1.9782  0.8776
 9000TIP3    H226923   3.809   6.549   4.544  0.3567  0.2258 -0.2496
 9001TIP3   OH226924   3.286   6.078   1.380 -0.3129  0.3348 -0.0127
 9001TIP3    H126925   3.353   6.125   1.331  0.8088 -0.2932  0.8906
 9001TIP3    H226926   3.335   6.022   1.440 -1.5403 -3.6600 -2.5502
 9002TIP3   OH226927   5.627   5.422   2.087 -0.3158 -0.3834 -0.0370
 9002TIP3    H126928   5.620   5.481   2.162  1.2467  1.8448 -1.5954
 9002TIP3    H226929   5.680   5.349   2.119  1.1439  1.0076  0.7643
 9003TIP3   OH226930   4.001   4.291   3.500  1.0055  0.2368  0.0661
 9003TIP3    H126931   3.951   4.342   3.565  0.3821  0.2515 -0.4118
 9003TIP3    H226932   3.974   4.201   3.514  0.1685  0.3411 -0.7608
 9004TIP3   OH226933   1.300   3.688   5.513  0.1367  0.4945  0.0921
 9004TIP3    H126934   1.355   3.718   5.440 -0.5144 -1.0695 -1.0761
 9004TIP3    H226935   1.328   3.597   5.527 -1.5443 -0.0421  0.0522
 9005TIP3   OH226936   1.952   6.617   1.994  0.4840 -0.8175 -0.0863
 9005TIP3    H126937   1.879   6.560   1.975 -1.1401  1.3922 -0.6935
 9005TIP3    H226938   1.963   6.670   1.915 -0.7949  2.5417  1.8840
 9006TIP3   OH226939   2.818   3.936   4.926 -0.4780  0.7053  0.0293
 9006TIP3    H126940   2.882   3.950   4.996  0.1547  0.0146 -0.4153
 9006TIP3    H226941   2.797   4.024   4.895 -0.9478  1.0331  1.2518
 9007TIP3   OH226942   3.780   3.724   2.472 -0.2488  0.2806 -0.2592
 9007TIP3    H126943   3.724   3.732   2.395  0.9642  0.3996 -1.1282
 9007TIP3    H226944   3.774   3.809   2.515 -1.5303 -0.0348  0.2062
 9008TIP3   OH226945   1.715   5.466   5.467 -0.3183 -0.0251 -0.0337
 9008TIP3    H126946   1.755   5.480   5.381  1.9281  1.7966  1.2443
 9008TIP3    H226947   1.789   5.461   5.527 -1.8543 -1.2529  1.8144
 9009TIP3   OH226948   4.699   6.811   1.997 -0.5518 -0.2919  1.0859
 9009TIP3    H126949   4.621   6.852   1.959 -1.0854  0.0446  2.5016
 9009TIP3    H226950   4.701   6.843   2.087  3.2296  2.4957  0.1244
 9010TIP3   OH226951   3.890   5.487   1.235 -0.3196 -0.1252  0.5885
 9010TIP3    H126952   3.836   5.548   1.284  0.0562 -1.1187  2.2930
 9010TIP3    H226953   3.977   5.528   1.234 -0.3505 -0.0565  0.6788
 9011TIP3   OH226954   2.387   6.282   3.695  0.2048  0.2939 -0.5284
 9011TIP3    H126955   2.430   6.204   3.661  0.3533  0.3052 -0.3630
 9011TIP3    H226956   2.294   6.270   3.672  0.2466  0.1270 -0.6092
 9012TIP3   OH226957   4.119   4.839   5.455 -0.3642  0.5550  0.0423
 9012TIP3    H126958   4.204   4.881   5.449 -0.6475  1.1148 -0.1071
 9012TIP3    H226959   4.123   4.767   5.392 -0.1882  0.9055 -0.3480
 9013TIP3   OH226960   2.621   6.830   2.633 -0.6146  0.1251 -0.0376
 9013TIP3    H126961   2.551   6.894   2.631 -0.4188  0.3435  0.0872
 9013TIP3    H226962   2.583   6.752   2.593 -1.4672 -0.2872  1.4963
 9014TIP3   OH226963   1.502   6.272   2.727 -0.4731 -0.4881 -0.2110
 9014TIP3    H126964   1.511   6.243   2.818  0.4684  0.0252 -0.1293
 9014TIP3    H226965   1.577   6.234   2.682  1.0192  2.0679 -0.0125
 9015TIP3   OH226966   0.841   5.755   1.659  0.0998  0.4756 -0.1036
 9015TIP3    H126967   0.774   5.823   1.667 -0.7602 -0.2694 -0.8839
 9015TIP3    H226968   0.875   5.764   1.570  0.9284  0.7513  0.2397
 9016TIP3   OH226969   4.139   7.643   4.824  0.5364 -0.4391 -0.2711
 9016TIP3    H126970   4.103   7.664   4.738  0.8547 -0.5720 -0.4317
 9016TIP3    H226971   4.187   7.722   4.850  0.2184 -0.2974 -0.0956
 9017TIP3   OH226972   3.887   5.412   4.340  0.6679 -0.1448  0.1884
 9017TIP3    H126973   3.837   5.346   4.291 -0.3755  1.3823 -0.8150
 9017TIP3    H226974   3.910   5.368   4.422 -1.6842 -1.1147  0.3418
 9018TIP3   OH226975   2.051   5.735   1.791  0.2547 -0.5328  0.0816
 9018TIP3    H126976   2.052   5.731   1.696 -0.2453 -0.2236  0.0605
 9018TIP3    H226977   1.974   5.789   1.812  0.1382 -0.9227  0.6689
 9019TIP3   OH226978   1.580   6.516   4.072 -0.0798  0.1341  0.2222
 9019TIP3    H126979   1.612   6.512   4.163 -0.3237 -1.7912  0.2544
 9019TIP3    H226980   1.538   6.431   4.059  0.8008  0.0197 -2.0072
 9020TIP3   OH226981   4.618   5.455   4.721 -0.1842  0.2681 -0.5923
 9020TIP3    H126982   4.650   5.370   4.691  0.1555  1.2436 -3.1875
 9020TIP3    H226983   4.697   5.501   4.750 -0.4397 -0.4809  1.3299
 9021TIP3   OH226984   4.826   5.614   6.283  0.1152  0.3357  0.0608
 9021TIP3    H126985   4.840   5.548   6.214  0.5597 -0.2845  0.7290
 9021TIP3    H226986   4.823   5.697   6.236  0.3825 -0.0826 -0.7167
 9022TIP3   OH226987   3.042   7.433   3.433 -0.3069  0.1470 -0.1052
 9022TIP3    H126988   3.114   7.400   3.379 -0.9962 -0.5078 -0.6411
 9022TIP3    H226989   3.011   7.357   3.481 -1.6280  0.0734 -1.0212
 9023TIP3   OH226990   1.684   5.785   2.230  0.8931 -0.1422  0.2740
 9023TIP3    H126991   1.611   5.723   2.235  0.8230 -0.0542  0.3557
 9023TIP3    H226992   1.756   5.734   2.192  0.9837 -0.4107  0.8051
 9024TIP3   OH226993   5.599   5.451   3.457 -0.1712 -0.2105  0.3971
 9024TIP3    H126994   5.516   5.487   3.427 -0.6443 -0.0808  1.8360
 9024TIP3    H226995   5.640   5.523   3.505  0.8618 -0.2151 -0.4383
 9025TIP3   OH226996   2.510   6.704   4.014  0.9399  0.1883 -0.1413
 9025TIP3    H126997   2.553   6.621   3.992  2.0655  0.8746 -0.5846
 9025TIP3    H226998   2.427   6.702   3.966  1.4787 -0.1922 -1.0745
 9026TIP3   OH226999   2.525   7.318   5.527  0.2275 -0.0730 -0.3072
 9026TIP3    H127000   2.516   7.262   5.604  1.5323  0.4606  0.2358
 9026TIP3    H227001   2.541   7.405   5.562  0.2993  0.2688 -1.1835
 9027TIP3   OH227002   0.677   6.006   4.314 -0.3004  0.2670 -0.0823
 9027TIP3    H127003   0.632   6.026   4.396 -1.5091  0.0822 -0.6874
 9027TIP3    H227004   0.766   6.038   4.328 -0.1415 -0.8723  1.7565
 9028TIP3   OH227005   4.521   6.967   5.793 -0.0607 -0.4635  0.0425
 9028TIP3    H127006   4.533   7.007   5.707 -0.0905  0.3709  0.4149
 9028TIP3    H227007   4.465   6.891   5.777 -0.7978  0.1942 -0.5487
 9029TIP3   OH227008   5.897   6.355   1.796  0.0230  0.1091 -0.1539
 9029TIP3    H127009   5.880   6.294   1.724  0.1311 -2.6393  2.0620
 9029TIP3    H227010   5.982   6.394   1.775  1.1168 -2.3351 -0.4540
 9030TIP3   OH227011   4.594   5.290   3.055  0.3334 -0.3840 -0.0306
 9030TIP3    H127012   4.573   5.380   3.029 -0.5721 -0.7986 -0.7607
 9030TIP3    H227013   4.656   5.300   3.128 -0.6428  0.8446  0.6518
 9031TIP3   OH227014   3.332   6.552   2.968  0.7519  0.2729  0.9846
 9031TIP3    H127015   3.285   6.575   2.889 -0.1589 -0.2893  1.3488
 9031TIP3    H227016   3.310   6.621   3.030 -0.7580 -0.7257  1.5989
 9032TIP3   OH227017   3.343   5.571   3.862 -0.0204  0.4253 -0.3131
 9032TIP3    H127018   3.434   5.589   3.836 -0.4058  0.8077 -1.3868
 9032TIP3    H227019   3.349   5.491   3.914  0.9713  0.6065 -0.1339
 9033TIP3   OH227020   2.545   6.227   3.079  0.3279  0.1262  0.1531
 9033TIP3    H127021   2.539   6.220   3.174 -0.7134  2.0867  0.2613
 9033TIP3    H227022   2.487   6.159   3.046  0.8888 -0.7310  0.8945
 9034TIP3   OH227023   2.821   4.674   4.958 -0.6111 -0.3005 -0.0402
 9034TIP3    H127024   2.731   4.683   4.927 -0.2909  1.6089 -0.5025
 9034TIP3    H227025   2.875   4.711   4.888  0.4383 -0.2914  0.7506
 9035TIP3   OH227026   2.428   7.178   0.974 -0.0472 -0.1429  0.2624
 9035TIP3    H127027   2.422   7.121   0.898  0.3418  1.9856 -1.4226
 9035TIP3    H227028   2.479   7.128   1.038  2.0986 -0.8972 -1.9356
 9036TIP3   OH227029   2.755   6.685   1.871 -0.0859  0.0723 -0.2867
 9036TIP3    H127030   2.787   6.597   1.850 -0.8707 -0.1756 -0.4661
 9036TIP3    H227031   2.686   6.701   1.807  0.6371  1.1798 -0.8019
 9037TIP3   OH227032   4.171   6.416   4.349 -0.2105  0.0598 -0.1363
 9037TIP3    H127033   4.155   6.376   4.264  1.0260 -0.4604 -0.1336
 9037TIP3    H227034   4.226   6.353   4.396 -3.1059 -0.9197  2.0830
 9038TIP3   OH227035   3.967   4.875   2.764 -0.0930 -0.2950 -0.0124
 9038TIP3    H127036   4.011   4.961   2.764  1.4460 -1.0646  0.1371
 9038TIP3    H227037   4.033   4.815   2.729 -1.2574 -1.3707 -0.3502
 9039TIP3   OH227038   1.833   6.637   3.568 -0.5420  0.2890 -0.2493
 9039TIP3    H127039   1.752   6.633   3.518 -1.3102 -2.0955  1.1046
 9039TIP3    H227040   1.810   6.683   3.649 -0.1077  1.1924 -0.6350
 9040TIP3   OH227041   3.876   5.002   2.298 -0.1199  0.1463 -0.2597
 9040TIP3    H127042   3.846   5.090   2.277 -0.7340 -0.2956 -1.3021
 9040TIP3    H227043   3.889   4.960   2.213  0.3496 -0.7056  0.2208
 9041TIP3   OH227044   3.880   5.646   3.339 -0.0409 -0.1220 -0.5891
 9041TIP3    H127045   3.893   5.741   3.343  0.9796 -0.2850  0.3930
 9041TIP3    H227046   3.785   5.635   3.327 -0.2736  1.0075  0.1220
 9042TIP3   OH227047   2.407   5.487   1.807 -0.0654  0.7468  0.1570
 9042TIP3    H127048   2.317   5.499   1.835 -0.3895 -1.0914 -0.0283
 9042TIP3    H227049   2.407   5.404   1.759  1.7853  0.5288  0.4746
 9043TIP3   OH227050   4.805   5.505   7.147 -0.0827  0.1400  0.2576
 9043TIP3    H127051   4.881   5.544   7.105  0.5317  1.4607  2.4722
 9043TIP3    H227052   4.731   5.558   7.117  0.0065 -0.4743 -1.0634
 9044TIP3   OH227053   3.226   5.426   4.690 -0.0869 -0.7254  0.0442
 9044TIP3    H127054   3.240   5.498   4.629 -1.1610 -0.2929  0.2998
 9044TIP3    H227055   3.285   5.357   4.659  0.1744 -0.1228 -0.8293
 9045TIP3   OH227056   5.414   6.000   3.679  0.5953  0.1925  0.0954
 9045TIP3    H127057   5.440   6.021   3.769  0.5635  2.3394 -0.3658
 9045TIP3    H227058   5.319   5.984   3.685  0.1653  2.5803  0.1005
 9046TIP3   OH227059   6.184   4.981   6.024 -0.4046 -0.6041  0.2102
 9046TIP3    H127060   6.253   4.915   6.031 -0.7169 -0.8437  1.1307
 9046TIP3    H227061   6.217   5.055   6.075 -0.9266 -0.8076  0.8493
 9047TIP3   OH227062   4.057   6.772   3.838  0.1725  0.5588  0.1027
 9047TIP3    H127063   4.127   6.757   3.775  0.0135  1.4358 -0.2840
 9047TIP3    H227064   4.091   6.737   3.921  0.7969  0.3817 -0.2262
 9048TIP3   OH227065   2.917   7.219   6.829 -0.2341 -0.3589  0.3504
 9048TIP3    H127066   2.930   7.302   6.874 -0.5605  0.2837 -0.7110
 9048TIP3    H227067   2.860   7.241   6.754 -0.1842 -1.4983 -0.0324
 9049TIP3   OH227068   1.665   4.874   4.730  0.3735 -0.2485  0.2772
 9049TIP3    H127069   1.752   4.839   4.715 -0.8213 -2.7747 -1.0981
 9049TIP3    H227070   1.646   4.856   4.822  1.8380  1.6970  1.0096
 9050TIP3   OH227071   4.020   6.269   6.514  0.2683  0.4126 -0.2245
 9050TIP3    H127072   4.017   6.258   6.609  0.1711  0.4379 -0.2250
 9050TIP3    H227073   4.013   6.180   6.479  0.8030  0.3584 -0.1978
 9051TIP3   OH227074   3.730   4.810   5.640  0.3770  0.2179  0.4198
 9051TIP3    H127075   3.651   4.861   5.657  0.0519  0.4196 -1.6654
 9051TIP3    H227076   3.720   4.778   5.551  1.5866 -1.6976  0.9460
 9052TIP3   OH227077   5.478   5.751   6.643 -0.6520  0.1877  0.2974
 9052TIP3    H127078   5.397   5.753   6.590 -1.1340  1.3281  1.0550
 9052TIP3    H227079   5.546   5.778   6.582 -1.0938  0.7957  0.0614
 9053TIP3   OH227080   3.048   5.965   4.535  0.1435 -0.4979  0.0420
 9053TIP3    H127081   3.090   5.969   4.621  0.1820 -1.1640  0.0515
 9053TIP3    H227082   3.014   6.054   4.522 -0.4130 -0.5539  1.0296
 9054TIP3   OH227083   2.961   6.372   6.849 -0.1131  0.4132 -0.1367
 9054TIP3    H127084   2.895   6.366   6.780 -1.3035  2.0190  0.8166
 9054TIP3    H227085   2.919   6.336   6.926  0.5888  0.2549  0.1764
 9055TIP3   OH227086   3.248   5.072   3.811 -0.2933 -0.4787  0.0812
 9055TIP3    H127087   3.253   5.055   3.717 -0.4584 -1.4489  0.2384
 9055TIP3    H227088   3.170   5.127   3.821  1.5056  2.2844 -0.6881
 9056TIP3   OH227089   1.712   6.562   2.520 -0.4125  0.0888 -0.2267
 9056TIP3    H127090   1.773   6.560   2.446 -0.6051  1.5484 -0.4387
 9056TIP3    H227091   1.631   6.524   2.485 -0.0021 -0.7571 -0.2817
 9057TIP3   OH227092   1.955   8.327   3.158 -0.3550  0.3153 -0.2774
 9057TIP3    H127093   2.046   8.307   3.134 -0.0987  2.9886 -1.7067
 9057TIP3    H227094   1.953   8.319   3.254  1.4800  0.4913 -0.2096
 9058TIP3   OH227095   0.989   6.377   5.293 -0.5761  0.0641 -0.6054
 9058TIP3    H127096   1.012   6.469   5.283 -1.0295  0.2847  0.3178
 9058TIP3    H227097   1.050   6.330   5.236  0.4775  0.8337 -0.1143
 9059TIP3   OH227098   3.260   6.694   3.429 -0.2745  0.2269  0.2697
 9059TIP3    H127099   3.290   6.750   3.358 -0.1762  0.1897  0.2822
 9059TIP3    H227100   3.168   6.678   3.410  0.2442 -1.4399 -0.9410
 9060TIP3   OH227101   4.513   7.980   1.128 -0.0966  0.7290 -0.2063
 9060TIP3    H127102   4.521   8.075   1.137  0.3191  0.9943 -2.9991
 9060TIP3    H227103   4.549   7.961   1.041 -0.3872 -1.9581  0.2268
 9061TIP3   OH227104   2.641   8.148   2.657  0.5728 -0.0189 -0.6007
 9061TIP3    H127105   2.606   8.105   2.735  0.0363 -0.1934 -0.9299
 9061TIP3    H227106   2.602   8.100   2.584 -1.8303  2.4187 -0.9935
 9062TIP3   OH227107   1.176   6.828   3.300  0.1962  0.3564 -0.2377
 9062TIP3    H127108   1.267   6.836   3.274 -0.0823  0.3266 -1.2482
 9062TIP3    H227109   1.158   6.907   3.350  0.5950  0.6535 -0.5698
 9063TIP3   OH227110   2.629   6.697   3.702 -0.5516 -0.1316 -0.4940
 9063TIP3    H127111   2.598   6.649   3.779  1.2443 -1.4932 -0.5700
 9063TIP3    H227112   2.590   6.651   3.628  0.6548 -1.1273 -0.5364
 9064TIP3   OH227113   2.446   5.605   3.593 -0.4971 -0.1328  0.2046
 9064TIP3    H127114   2.521   5.568   3.545 -1.4227 -1.2750 -0.3831
 9064TIP3    H227115   2.400   5.528   3.628 -1.5750  0.5534  0.2930
 9065TIP3   OH227116   3.962   7.073   2.048  0.0532 -0.4497 -0.2606
 9065TIP3    H127117   3.870   7.091   2.031 -0.0240 -1.3978 -0.9030
 9065TIP3    H227118   3.968   6.977   2.051  0.9512 -0.3912  0.1361
 9066TIP3   OH227119   3.227   5.786   1.720  0.0278 -0.0509 -0.2720
 9066TIP3    H127120   3.197   5.816   1.805 -2.2740 -1.4163 -0.5672
 9066TIP3    H227121   3.158   5.813   1.659  0.1194 -1.8531 -1.2078
 9067TIP3   OH227122   4.464   4.641   3.363  0.3783 -0.1089  0.0619
 9067TIP3    H127123   4.384   4.654   3.313  0.0090  1.0955  0.9476
 9067TIP3    H227124   4.521   4.714   3.339  0.1177  0.6075  1.5279
 9068TIP3   OH227125   3.833   4.795   3.525 -0.7064  0.3773 -0.6725
 9068TIP3    H127126   3.863   4.886   3.534 -0.4556  0.4110 -1.8033
 9068TIP3    H227127   3.814   4.768   3.615 -2.9981  2.2904 -0.5359
 9069TIP3   OH227128   4.144   5.037   3.429  0.0354 -0.3152  0.0821
 9069TIP3    H127129   4.125   5.047   3.336  2.7622 -0.1944 -0.5117
 9069TIP3    H227130   4.105   5.114   3.470  1.7873  1.4561 -1.4534
 9070TIP3   OH227131   2.581   5.681   6.549 -0.0857  0.2089  0.5105
 9070TIP3    H127132   2.645   5.749   6.531 -1.0189  1.2515  1.0984
 9070TIP3    H227133   2.607   5.608   6.493  1.8117  0.4906  0.9802
 9071TIP3   OH227134   2.430   6.899   4.867 -0.2108  0.1704 -0.6793
 9071TIP3    H127135   2.431   6.847   4.947 -0.7292  1.5621  0.2559
 9071TIP3    H227136   2.427   6.835   4.796  2.6047 -1.1443  0.3150
 9072TIP3   OH227137   5.071   6.280   0.956 -0.4180  0.6077 -0.0242
 9072TIP3    H127138   5.058   6.356   0.899 -0.4783  1.2493  0.8338
 9072TIP3    H227139   4.987   6.269   1.001  0.2423  1.3235  1.3988
 9073TIP3   OH227140   5.879   4.191   3.463  0.4908 -0.6235  0.2334
 9073TIP3    H127141   5.921   4.115   3.504  1.0411 -1.3785 -1.6622
 9073TIP3    H227142   5.953   4.246   3.434  0.1486 -1.0016 -1.3754
 9074TIP3   OH227143   2.601   6.358   1.563  0.1420  0.3366  0.0750
 9074TIP3    H127144   2.595   6.332   1.655 -0.1020 -0.2848 -0.1118
 9074TIP3    H227145   2.680   6.315   1.531  0.1394  0.4212 -0.0459
 9075TIP3   OH227146   4.880   5.222   1.969  0.7223 -0.2772 -0.0616
 9075TIP3    H127147   4.820   5.177   1.909  1.3939 -0.3894 -0.6419
 9075TIP3    H227148   4.836   5.215   2.054  0.3877 -1.2510 -0.2994
 9076TIP3   OH227149   5.337   5.016   2.968  0.2374  0.3954 -0.6162
 9076TIP3    H127150   5.288   4.948   3.014  0.6954  1.1054  0.9309
 9076TIP3    H227151   5.314   5.097   3.012  2.1016  0.8567 -0.4410
 9077TIP3   OH227152   3.000   6.439   4.981  0.9773  0.2689 -0.6503
 9077TIP3    H127153   3.069   6.377   4.956  0.0826 -1.0702  0.1337
 9077TIP3    H227154   2.933   6.429   4.913 -0.2988 -1.4998  0.8101
 9078TIP3   OH227155   2.496   5.466   2.505 -0.3562 -0.0747 -0.0968
 9078TIP3    H127156   2.529   5.532   2.445 -1.5417  1.8844  1.3566
 9078TIP3    H227157   2.401   5.470   2.495 -0.4139 -2.6303 -1.0730
 9079TIP3   OH227158   3.418   6.303   3.282 -0.1700  0.2898 -0.0376
 9079TIP3    H127159   3.433   6.208   3.286  0.9229  0.4364 -0.5000
 9079TIP3    H227160   3.391   6.319   3.191 -2.2247  0.1666  0.5346
 9080TIP3   OH227161   1.218   6.890   3.621 -0.1539 -0.7127  0.1023
 9080TIP3    H127162   1.311   6.901   3.641 -0.3717  1.1841  0.1478
 9080TIP3    H227163   1.205   6.795   3.619  1.3919 -0.9922  1.9358
 9081TIP3   OH227164   4.302   5.063   3.975 -0.4032  0.5325  0.1954
 9081TIP3    H127165   4.212   5.047   3.945 -0.2910 -0.6493  0.4695
 9081TIP3    H227166   4.348   4.981   3.957  1.4368  2.1739 -2.8941
 9082TIP3   OH227167   2.354   5.393   2.987  0.4370  0.1282  0.0557
 9082TIP3    H127168   2.378   5.370   2.898  1.4883 -1.7546  0.7997
 9082TIP3    H227169   2.347   5.489   2.986  1.8845  0.2425 -1.6762
 9083TIP3   OH227170   2.658   4.738   5.422 -0.1966 -0.1013  0.0601
 9083TIP3    H127171   2.573   4.701   5.445  0.2063 -0.4881  0.9320
 9083TIP3    H227172   2.676   4.705   5.334  0.2823 -2.2087  0.9351
 9084TIP3   OH227173   2.466   6.796   2.050  0.4749 -0.3477  0.0355
 9084TIP3    H127174   2.424   6.757   1.974  1.7996 -0.9050 -0.4186
 9084TIP3    H227175   2.533   6.854   2.014 -1.7439  2.7795  0.6804
 9085TIP3   OH227176   3.349   4.830   3.956  0.3051  0.2456  0.1172
 9085TIP3    H127177   3.255   4.815   3.960  0.3054  0.4550  1.2038
 9085TIP3    H227178   3.359   4.907   3.901 -0.0929 -0.2807 -0.7059
 9086TIP3   OH227179   2.887   5.434   5.937 -0.0914  0.3989 -0.0251
 9086TIP3    H127180   2.962   5.378   5.917 -0.9765 -1.1738  0.8890
 9086TIP3    H227181   2.814   5.373   5.947 -1.0457  1.7040  1.2069
 9087TIP3   OH227182   5.436   5.095   3.406  0.2278  0.5122  0.0337
 9087TIP3    H127183   5.481   5.077   3.324 -0.1386 -0.5636  0.0641
 9087TIP3    H227184   5.493   5.057   3.473 -1.1089 -1.6100  0.0128
 9088TIP3   OH227185   4.194   7.144   4.309  0.6959 -0.3454  0.8038
 9088TIP3    H127186   4.179   7.106   4.396 -2.9936 -0.0136  0.4042
 9088TIP3    H227187   4.214   7.068   4.253  2.9088 -0.5755  1.8785
 9089TIP3   OH227188   4.229   6.069   4.967 -0.2927 -0.0207  0.2816
 9089TIP3    H127189   4.173   6.091   4.893 -0.3442 -0.8044  0.0869
 9089TIP3    H227190   4.173   6.080   5.044 -0.5882 -0.3746  0.1176
 9090TIP3   OH227191   6.168   3.859   5.085  0.1173 -1.1142  0.0326
 9090TIP3    H127192   6.113   3.809   5.145 -1.2522 -0.8128 -0.9563
 9090TIP3    H227193   6.107   3.897   5.022  1.3244  0.3611 -0.2730
 9091TIP3   OH227194   2.380   7.722   6.495 -0.1477  0.6516  0.4330
 9091TIP3    H127195   2.426   7.728   6.579  1.3971 -0.7325 -0.2921
 9091TIP3    H227196   2.395   7.806   6.453  1.9100  0.1524  0.1225
 9092TIP3   OH227197   1.631   6.417   5.580 -0.1997 -0.1074  0.1251
 9092TIP3    H127198   1.558   6.355   5.583 -1.4243  1.3348  0.7446
 9092TIP3    H227199   1.652   6.435   5.672 -0.5001  1.1189 -0.0300
 9093TIP3   OH227200   3.686   6.968   5.930 -0.3031  0.1536  0.1584
 9093TIP3    H127201   3.683   6.878   5.897  0.8848 -0.2422  1.0963
 9093TIP3    H227202   3.626   6.968   6.005  0.4137 -0.1048  0.7357
 9094TIP3   OH227203   2.791   6.678   2.861 -0.4164 -0.0896 -0.3129
 9094TIP3    H127204   2.708   6.723   2.877 -1.2817 -1.6544 -0.3860
 9094TIP3    H227205   2.845   6.700   2.937 -1.4317 -0.3192  0.4750
 9095TIP3   OH227206   4.118   6.460   2.547  0.6050 -0.8127 -0.3074
 9095TIP3    H127207   4.148   6.378   2.508 -0.1243 -0.5870 -1.3553
 9095TIP3    H227208   4.190   6.486   2.605  1.8609 -1.0171 -1.7177
 9096TIP3   OH227209   3.492   5.741   3.134 -0.1414 -0.1546 -0.0516
 9096TIP3    H127210   3.577   5.780   3.116  0.7658 -1.7417  0.6707
 9096TIP3    H227211   3.499   5.707   3.223 -1.7517  0.2646  0.2508
 9097TIP3   OH227212   1.881   6.377   6.264 -0.0156  0.1707  0.0952
 9097TIP3    H127213   1.832   6.421   6.195  1.1295  1.1970 -0.0984
 9097TIP3    H227214   1.886   6.441   6.335  2.1447  0.6020 -0.3976
 9098TIP3   OH227215   2.520   7.974   2.837 -0.1767 -0.2994  0.6361
 9098TIP3    H127216   2.531   7.883   2.809 -0.5519  0.0248 -0.5937
 9098TIP3    H227217   2.517   7.970   2.933 -1.5463 -1.7375  0.5460
 9099TIP3   OH227218   4.492   7.194   3.732 -0.9679  0.0879  0.1528
 9099TIP3    H127219   4.465   7.238   3.813  0.7616  0.6570  0.4275
 9099TIP3    H227220   4.478   7.101   3.750 -2.0561  0.3205  0.5510
 9100TIP3   OH227221   3.653   3.607   4.314  0.0085 -0.1069 -0.2296
 9100TIP3    H127222   3.625   3.516   4.307  1.3209 -0.5109 -0.4474
 9100TIP3    H227223   3.617   3.636   4.398 -1.5217 -0.4167 -0.7712
 9101TIP3   OH227224   4.618   4.456   3.518  0.0899 -0.1855 -0.1917
 9101TIP3    H127225   4.611   4.384   3.455 -1.8091 -1.5112  1.4754
 9101TIP3    H227226   4.564   4.526   3.481  1.1282  0.0397 -1.3173
 9102TIP3   OH227227   4.142   5.972   2.073  0.1081  0.1348 -0.5129
 9102TIP3    H127228   4.087   5.942   2.146  1.1230 -0.0468  0.1920
 9102TIP3    H227229   4.099   6.051   2.041 -1.1466 -0.5944 -0.6648
 9103TIP3   OH227230   4.254   4.816   4.318  0.1888  0.2799 -0.1651
 9103TIP3    H127231   4.287   4.862   4.241 -0.4608  0.6141 -0.2429
 9103TIP3    H227232   4.311   4.739   4.326  0.7137  0.6269 -0.5528
 9104TIP3   OH227233   3.575   3.751   4.537 -0.4090  0.3227  0.3636
 9104TIP3    H127234   3.569   3.750   4.633  1.2125 -0.8260  0.4668
 9104TIP3    H227235   3.568   3.843   4.514  1.2923  0.8116  1.7295
 9105TIP3   OH227236   5.232   6.033   4.074 -0.1436  0.2673 -0.5933
 9105TIP3    H127237   5.147   6.070   4.096 -0.2529  0.1173 -0.7591
 9105TIP3    H227238   5.215   5.940   4.062  0.2546  0.0364  0.5149
 9106TIP3   OH227239   3.942   5.016   4.233  0.0420  0.3512  0.2546
 9106TIP3    H127240   3.848   5.016   4.248  0.0833 -3.5926  1.3190
 9106TIP3    H227241   3.978   5.072   4.302 -1.5187  2.4517 -0.5886
 9107TIP3   OH227242   4.448   6.038   3.195 -0.3201  0.1497 -0.0752
 9107TIP3    H127243   4.389   5.974   3.155 -0.2454  0.7760 -1.1912
 9107TIP3    H227244   4.490   6.082   3.121  1.6435 -0.3570  0.6946
 9108TIP3   OH227245   1.666   5.278   3.623  0.0196 -0.3669 -0.1140
 9108TIP3    H127246   1.594   5.339   3.609  1.1441  0.9399 -0.2885
 9108TIP3    H227247   1.628   5.192   3.608 -0.6187  0.5063 -3.8504
 9109TIP3   OH227248   2.887   6.048   4.820  0.0751  0.2576  0.4008
 9109TIP3    H127249   2.868   6.111   4.751 -1.0567 -0.4027  0.0973
 9109TIP3    H227250   2.802   6.033   4.863  0.9069  1.3156  2.4962
 9110TIP3   OH227251   0.912   7.054   1.112  0.4788  0.4020 -0.3710
 9110TIP3    H127252   0.956   7.082   1.032  1.7777 -2.3542 -0.6635
 9110TIP3    H227253   0.824   7.031   1.083  0.4955  0.7935 -0.7488
 9111TIP3   OH227254   4.761   6.359   3.609  0.5827 -0.3339 -0.7440
 9111TIP3    H127255   4.839   6.369   3.664  1.3883 -2.9282 -1.3440
 9111TIP3    H227256   4.796   6.350   3.520 -0.5633  1.1823 -1.3649
 9112TIP3   OH227257   4.185   5.292   5.813 -0.0963 -0.7977  0.3025
 9112TIP3    H127258   4.263   5.328   5.769 -0.1837 -1.1320 -0.1287
 9112TIP3    H227259   4.157   5.220   5.756 -2.8408  1.5761 -1.4885
 9113TIP3   OH227260   2.532   4.792   4.959  0.6650 -0.6939  0.0413
 9113TIP3    H127261   2.505   4.708   4.922 -1.4168  0.0727 -0.2501
 9113TIP3    H227262   2.537   4.851   4.884  0.8155 -0.2301  0.4113
 9114TIP3   OH227263   5.377   4.879   1.930  0.9116 -0.7399  0.2021
 9114TIP3    H127264   5.318   4.951   1.952  2.6178  0.7175  0.1016
 9114TIP3    H227265   5.375   4.874   1.834 -0.5032 -1.9644  0.2749
 9115TIP3   OH227266   4.039   5.332   3.674  0.5527  0.1044  0.4040
 9115TIP3    H127267   4.111   5.387   3.705  0.0053  1.2213 -0.3200
 9115TIP3    H227268   4.023   5.361   3.584  0.2626 -1.2337  0.0128
 9116TIP3   OH227269   2.056   7.813   1.883  0.1559  0.0787 -0.2259
 9116TIP3    H127270   2.145   7.838   1.908 -0.0558  0.6589 -0.0325
 9116TIP3    H227271   2.064   7.781   1.794  0.3788  1.2270 -0.6268
 9117TIP3   OH227272   3.948   5.990   3.837  0.1355  0.2949  0.2094
 9117TIP3    H127273   3.883   6.059   3.823  0.5745  0.4207 -1.3065
 9117TIP3    H227274   3.897   5.915   3.867 -0.5823  0.7103  0.0486
 9118TIP3   OH227275   3.739   5.058   2.991 -0.0649  0.6385 -0.1232
 9118TIP3    H127276   3.717   4.975   3.033  0.6305 -0.3032 -1.5925
 9118TIP3    H227277   3.762   5.116   3.064  2.8898 -1.4667  0.7229
 9119TIP3   OH227278   5.145   5.791   3.320 -0.1201 -0.0052  0.2830
 9119TIP3    H127279   5.055   5.769   3.294  0.5807 -1.5277 -0.8993
 9119TIP3    H227280   5.148   5.887   3.315 -1.6895  0.0748  0.4056
 9120TIP3   OH227281   4.672   5.765   2.675  0.0248  0.1276  0.0678
 9120TIP3    H127282   4.648   5.845   2.628 -0.5495 -0.4583 -0.6593
 9120TIP3    H227283   4.710   5.708   2.608  0.8750 -0.0329  0.6743
 9121TIP3   OH227284   3.487   5.739   1.832  0.1344  0.0810 -0.0872
 9121TIP3    H127285   3.400   5.756   1.797 -0.0607 -0.2796  0.2315
 9121TIP3    H227286   3.504   5.647   1.813  1.2204  0.6241 -1.8567
 9122TIP3   OH227287   3.887   5.563   2.897 -0.1640  0.1080 -0.3624
 9122TIP3    H127288   3.948   5.491   2.913 -0.7176 -0.3424 -0.2612
 9122TIP3    H227289   3.804   5.532   2.931 -0.1473  1.2684  0.7658
 9123TIP3   OH227290   4.698   4.260   4.432  0.2775 -0.6127  0.4286
 9123TIP3    H127291   4.766   4.301   4.486 -1.2165  2.0483  0.3719
 9123TIP3    H227292   4.657   4.333   4.386 -0.3408 -2.5549 -2.2013
 9124TIP3   OH227293   5.291   4.389   3.680 -0.0381 -0.2911  0.3887
 9124TIP3    H127294   5.324   4.464   3.730 -0.3815 -0.5485  1.0071
 9124TIP3    H227295   5.239   4.428   3.610  2.5645  0.1741 -1.3643
 9125TIP3   OH227296   3.773   5.309   2.001 -0.6988 -0.0060 -0.2705
 9125TIP3    H127297   3.784   5.401   2.026 -0.2245 -0.1901  0.2083
 9125TIP3    H227298   3.849   5.265   2.040 -2.3377 -1.0612  1.8271
 9126TIP3   OH227299   3.191   0.041   4.127 -0.2481 -0.3222 -0.0458
 9126TIP3    H127300   3.180  -0.047   4.092  2.1092 -0.6638  0.0131
 9126TIP3    H227301   3.199   0.029   4.222  1.5328 -0.1979 -0.1728
 9127TIP3   OH227302   4.819   4.891   3.086  0.0611 -0.7375 -0.2251
 9127TIP3    H127303   4.803   4.889   3.181  1.1943  2.1819  0.0508
 9127TIP3    H227304   4.903   4.935   3.077 -1.7195  2.3345 -2.7729
 9128TIP3   OH227305   4.043   5.077   4.859  0.2429  0.0815 -0.6006
 9128TIP3    H127306   4.063   5.075   4.766 -1.7705 -0.8728 -1.0347
 9128TIP3    H227307   3.988   5.155   4.871 -0.8122 -0.6543 -0.5188
 9129TIP3   OH227308   5.217   6.838   2.861  0.2482 -0.0459  0.7000
 9129TIP3    H127309   5.166   6.758   2.876 -1.5986  1.1082  0.7149
 9129TIP3    H227310   5.203   6.891   2.939 -0.2708  1.2004 -0.2199
 9130TIP3   OH227311   4.997   5.325   2.303  0.4671  0.2143 -0.2072
 9130TIP3    H127312   5.072   5.314   2.244  0.9799 -0.9862  0.6653
 9130TIP3    H227313   5.022   5.280   2.383 -0.5892  1.0968  0.6321
 9131TIP3   OH227314   5.226   5.413   3.288  0.0398  0.1376 -0.1228
 9131TIP3    H127315   5.168   5.477   3.330  0.8331  0.6381  0.2283
 9131TIP3    H227316   5.293   5.395   3.353  0.0441 -0.7632 -0.3729
 9132TIP3   OH227317   7.165   6.934   2.251  0.2693 -0.2584  0.1944
 9132TIP3    H127318   7.162   6.857   2.308 -2.6208  0.8965  1.7053
 9132TIP3    H227319   7.102   6.995   2.289  1.8810  2.5653 -1.4380
 9133TIP3   OH227320   4.301   5.885   3.013  0.2287 -0.1476  0.2525
 9133TIP3    H127321   4.366   5.904   2.946  1.3645 -1.5700  0.9095
 9133TIP3    H227322   4.225   5.937   2.989  0.5627 -0.7538 -2.2241
 9134TIP3   OH227323   5.869   5.559   5.052  0.2292  0.5924 -0.4211
 9134TIP3    H127324   5.872   5.612   5.132  2.0364  0.3020 -0.2681
 9134TIP3    H227325   5.891   5.620   4.982  2.8977 -0.0238 -0.1779
 9135TIP3   OH227326   4.451   4.976   4.202  0.1488 -0.5941  0.3531
 9135TIP3    H127327   4.530   5.001   4.250  1.3111 -0.9528 -1.3236
 9135TIP3    H227328   4.444   5.041   4.132  0.7852 -2.4048 -1.4482
 9136TIP3   OH227329   6.043   6.567   1.739 -0.1247  0.4274  0.3093
 9136TIP3    H127330   6.048   6.659   1.765  1.3438  0.7297 -0.9154
 9136TIP3    H227331   5.963   6.561   1.687 -0.1983  1.0359  0.3418
 9137TIP3   OH227332   3.652   5.987   4.966  0.6608  0.1908  0.3054
 9137TIP3    H127333   3.727   5.981   5.025 -0.3262 -0.1930  1.5331
 9137TIP3    H227334   3.588   6.038   5.015 -0.7114 -1.3681  0.1466
 9138TIP3   OH227335   4.258   5.619   2.758 -0.3239 -0.0855 -0.1761
 9138TIP3    H127336   4.300   5.701   2.783 -0.3853 -0.4070  1.0640
 9138TIP3    H227337   4.175   5.645   2.718 -0.2439  0.4719  0.0161
 9139TIP3   OH227338   3.134   6.290   1.886  0.4798  0.1958 -0.0821
 9139TIP3    H127339   3.199   6.256   1.823  3.5693 -0.1935  3.1318
 9139TIP3    H227340   3.171   6.373   1.914 -1.0069  0.4821  1.0106
 9140TIP3   OH227341   3.014   6.816   1.890 -0.3969 -0.1214  0.3138
 9140TIP3    H127342   3.043   6.751   1.826 -1.0850 -0.5183  0.3997
 9140TIP3    H227343   2.920   6.827   1.872  0.0625  2.1752 -0.8708
 9141TIP3   OH227344   5.734   7.025   3.384  0.3044 -0.2419  0.6416
 9141TIP3    H127345   5.744   6.931   3.392  0.6503 -0.2911 -0.2919
 9141TIP3    H227346   5.643   7.042   3.408  0.2535 -0.8095  0.8424
 9142TIP3   OH227347   5.437   5.540   4.609  0.1125 -0.1250 -0.2343
 9142TIP3    H127348   5.410   5.506   4.694  2.1829  1.9412  1.2910
 9142TIP3    H227349   5.458   5.461   4.558 -2.1860 -1.4230  0.7521
 9143TIP3   OH227350   7.226   6.847   2.859  0.2214  0.2854 -0.1290
 9143TIP3    H127351   7.282   6.773   2.834  0.0990 -0.8290  2.7806
 9143TIP3    H227352   7.140   6.808   2.873  0.2886  0.8309  1.9778
 9144TIP3   OH227353   5.632   6.779   3.706 -0.3308 -0.2014  0.2913
 9144TIP3    H127354   5.663   6.728   3.781 -0.0670 -0.9699 -0.3366
 9144TIP3    H227355   5.572   6.843   3.744  0.4431 -0.0346  1.2604
 9145TIP3   OH227356   5.480   5.881   1.601  0.4826  0.1664 -0.1740
 9145TIP3    H127357   5.498   5.879   1.695  1.3461 -0.1598 -0.3377
 9145TIP3    H227358   5.385   5.879   1.595  0.4258 -0.1711  0.6926
 9146TIP3   OH227359   4.799   6.889   0.428  0.1258  0.3532  0.4361
 9146TIP3    H127360   4.892   6.910   0.431  0.1101  0.2592  1.6790
 9146TIP3    H227361   4.763   6.948   0.361  0.8429  1.2777  0.8605
 9147TIP3   OH227362   5.565   5.922   0.360 -0.1463 -0.0569  0.6254
 9147TIP3    H127363   5.526   6.001   0.396  1.4134  1.1818 -0.3253
 9147TIP3    H227364   5.610   5.882   0.435 -1.8896 -0.6889  1.3690
 9148TIP3   OH227365   6.597   7.788   4.031 -0.3648  0.1840 -0.0827
 9148TIP3    H127366   6.581   7.752   4.119 -0.6313  1.6825  0.4990
 9148TIP3    H227367   6.692   7.796   4.025 -0.4575  2.4310  1.0528
 9149TIP3   OH227368   5.985   6.332   4.030  0.0768  0.4100  0.0165
 9149TIP3    H127369   5.906   6.278   4.040  0.4403 -0.1890 -0.3113
 9149TIP3    H227370   5.990   6.382   4.112 -0.5111  0.2746  0.1389
 9150TIP3   OH227371   5.828   5.991   0.581 -0.4012 -0.1258  0.0638
 9150TIP3    H127372   5.790   6.078   0.574  2.7091  1.2487 -0.6857
 9150TIP3    H227373   5.854   5.984   0.673  0.7704  0.3941 -0.2177
 9151TIP3   OH227374   4.312   7.724   2.478 -0.1193 -0.3159 -0.2498
 9151TIP3    H127375   4.401   7.708   2.507 -0.3319 -0.3845  0.3787
 9151TIP3    H227376   4.285   7.804   2.524 -0.3933 -0.3237 -0.3923
 9152TIP3   OH227377   4.642   5.277   3.880  0.1015 -0.2837 -0.4102
 9152TIP3    H127378   4.730   5.244   3.897 -0.2130 -0.3102  1.2782
 9152TIP3    H227379   4.654   5.347   3.816  1.4030  0.0074  0.1449
 9153TIP3   OH227380   5.627   5.510   1.274 -0.0774 -0.3748  0.3671
 9153TIP3    H127381   5.567   5.450   1.318 -2.1518  1.6796  0.4704
 9153TIP3    H227382   5.606   5.596   1.311  2.3879  0.5232 -0.2191
 9154TIP3   OH227383   3.269   4.273   2.951  1.1039 -0.1860 -0.4480
 9154TIP3    H127384   3.358   4.308   2.944  1.7218 -1.2073  1.8630
 9154TIP3    H227385   3.269   4.198   2.892  1.1462  0.9513 -1.9470
 9155TIP3   OH227386   5.232   6.705   3.525  0.0346  0.0065 -0.0721
 9155TIP3    H127387   5.271   6.717   3.611  2.3788 -0.3835 -1.0532
 9155TIP3    H227388   5.147   6.751   3.531  0.1538 -0.0320  2.4080
 9156TIP3   OH227389   5.692   3.886   1.565 -0.0233 -0.7399  0.4841
 9156TIP3    H127390   5.722   3.927   1.646 -2.1542  2.6391 -0.3186
 9156TIP3    H227391   5.760   3.904   1.501 -0.6320  1.0744  0.3119
 9157TIP3   OH227392   4.997   5.555   2.655  0.5892  0.3617  0.2764
 9157TIP3    H127393   5.042   5.625   2.608 -0.4717  1.6668  1.1796
 9157TIP3    H227394   4.965   5.596   2.735  1.4839 -1.5734  1.6754
 9158TIP3   OH227395   4.493   4.467   1.626  0.1931  0.4032  0.1886
 9158TIP3    H127396   4.489   4.488   1.533  1.6011  1.6485  0.4004
 9158TIP3    H227397   4.570   4.409   1.634  1.1861  1.7973  0.8448
 9159TIP3   OH227398   3.785   5.805   2.615 -0.1044 -0.0446  0.2870
 9159TIP3    H127399   3.702   5.837   2.580  1.4619  0.7981 -2.8249
 9159TIP3    H227400   3.763   5.722   2.658 -2.5131  0.0930 -0.6286
 9160TIP3   OH227401   5.856   2.980   2.913  0.1301  0.1423 -0.0550
 9160TIP3    H127402   5.932   3.007   2.964 -0.3626  3.5528 -0.9757
 9160TIP3    H227403   5.885   2.983   2.822 -0.6018 -0.2396 -0.3096
 9161TIP3   OH227404   5.593   4.070   2.561 -0.0648  0.1236 -0.5391
 9161TIP3    H127405   5.603   4.044   2.653  0.1912  0.7540 -0.3896
 9161TIP3    H227406   5.654   4.012   2.514 -0.9876 -0.9483 -0.4490
 9162TIP3   OH227407   7.358   7.894   2.521 -0.2003  0.0817 -0.2981
 9162TIP3    H127408   7.344   7.883   2.427 -2.2834 -0.5937  0.0740
 9162TIP3    H227409   7.280   7.941   2.552  0.8766  1.0905  0.9435
 9163TIP3   OH227410   3.666   6.171   4.367  0.2113  0.4113 -0.1496
 9163TIP3    H127411   3.611   6.134   4.436  1.7193 -1.0462  0.3044
 9163TIP3    H227412   3.608   6.181   4.293 -0.9643  0.0748  0.7108
 9164TIP3   OH227413   2.650   5.920   2.904 -0.0509 -0.0764  0.1530
 9164TIP3    H127414   2.567   5.965   2.892  0.6116  1.0813 -0.1046
 9164TIP3    H227415   2.694   5.927   2.820  0.2354 -0.8422  0.2358
 9165TIP3   OH227416   6.679   8.068   5.846 -0.2012 -0.6801  0.1299
 9165TIP3    H127417   6.685   8.100   5.936 -0.2687  0.0148 -0.1074
 9165TIP3    H227418   6.768   8.038   5.826  0.2484  0.8409 -0.1802
 9166TIP3   OH227419   4.522   6.358   3.232 -0.2113  0.3680 -0.0811
 9166TIP3    H127420   4.497   6.414   3.159 -0.4602  0.4839  0.0956
 9166TIP3    H227421   4.547   6.275   3.190  2.4282  1.3406 -0.5502
 9167TIP3   OH227422   3.586   5.733   1.226  0.2866  0.3654 -0.0637
 9167TIP3    H127423   3.663   5.738   1.281  0.4117  0.1531 -0.2179
 9167TIP3    H227424   3.612   5.675   1.154  0.6721  1.9559 -1.2226
 9168TIP3   OH227425   2.751   7.907   1.324 -0.5334 -0.3611  0.0319
 9168TIP3    H127426   2.707   7.868   1.249  1.0960 -1.6141 -0.2944
 9168TIP3    H227427   2.706   7.991   1.338 -0.3128  0.2763 -2.8400
 9169TIP3   OH227428   8.885   5.584   3.838 -0.0138  0.5291  0.1300
 9169TIP3    H127429   8.854   5.675   3.841  0.5724  0.6881  1.6339
 9169TIP3    H227430   8.948   5.577   3.909  0.2683 -0.9490 -0.2410
 9170TIP3   OH227431   7.270   7.566   1.715  0.4039 -0.4141 -0.7904
 9170TIP3    H127432   7.259   7.613   1.633  0.8615  2.2661  0.6028
 9170TIP3    H227433   7.201   7.601   1.772 -0.3472 -2.7236 -0.2109
 9171TIP3   OH227434   5.251   5.871   0.935 -0.0776  0.0352  0.1258
 9171TIP3    H127435   5.275   5.797   0.880 -0.8321  0.2186 -0.4701
 9171TIP3    H227436   5.234   5.833   1.021  0.8397 -0.2926  0.1678
 9172TIP3   OH227437   4.836   6.394   1.740  0.6857  0.1662 -0.1639
 9172TIP3    H127438   4.794   6.356   1.817  0.5792 -1.3827 -0.9794
 9172TIP3    H227439   4.879   6.473   1.773 -1.4616  0.8821  0.9955
 9173TIP3   OH227440   5.420   4.464   3.032 -0.0894  0.4208 -0.3804
 9173TIP3    H127441   5.474   4.386   3.023 -1.6264 -0.7370  0.1716
 9173TIP3    H227442   5.446   4.502   3.116 -2.7879 -2.3175  1.8318
 9174TIP3   OH227443   4.236   6.941   2.108 -0.3409  0.2485  0.1281
 9174TIP3    H127444   4.309   6.880   2.100 -0.2770  0.3510 -0.0526
 9174TIP3    H227445   4.222   6.974   2.020  0.0891  1.0403  0.3511
 9175TIP3   OH227446   5.877   6.116   3.248 -0.0782  0.1528  0.2485
 9175TIP3    H127447   5.847   6.196   3.290  0.9821 -0.0717  1.4474
 9175TIP3    H227448   5.972   6.117   3.257 -0.0453 -1.2160  0.2304
 9176TIP3   OH227449   4.983   4.667   2.339  0.0773 -0.1764  0.2341
 9176TIP3    H127450   4.900   4.641   2.301 -0.1770 -0.2445  0.8221
 9176TIP3    H227451   4.985   4.762   2.332 -0.7762 -0.0432  1.6758
 9177TIP3   OH227452   5.935   4.975   2.111 -0.6395 -0.1153  0.2496
 9177TIP3    H127453   5.906   4.891   2.147 -0.0071  0.0541  1.1558
 9177TIP3    H227454   5.945   4.958   2.017 -0.7204 -0.9984  0.3965
 9178TIP3   OH227455   6.194   6.232   3.057  0.3818  0.3082 -0.0356
 9178TIP3    H127456   6.245   6.151   3.051 -0.0542  0.0484 -0.2770
 9178TIP3    H227457   6.246   6.297   3.010 -0.3908 -0.3990 -1.9279
 9179TIP3   OH227458   6.236   5.551   3.229  0.0916  0.2675  0.7786
 9179TIP3    H127459   6.292   5.475   3.219  1.3054  1.0652  1.4161
 9179TIP3    H227460   6.271   5.615   3.167 -1.1622  0.1825 -0.0377
 9180TIP3   OH227461   5.591   7.449   2.394 -0.2042  0.3100 -0.6484
 9180TIP3    H127462   5.604   7.355   2.409 -0.3312  0.5412  0.9744
 9180TIP3    H227463   5.599   7.459   2.299  2.3810 -0.9453 -0.6250
 9181TIP3   OH227464   3.016   4.287   3.091 -0.0867 -0.1995  0.5784
 9181TIP3    H127465   2.948   4.220   3.101  1.1476 -1.4707  0.5223
 9181TIP3    H227466   3.069   4.256   3.017  2.0841 -0.5234  2.2489
 9182TIP3   OH227467   6.392   4.403   2.982  0.1690 -0.2231 -0.4118
 9182TIP3    H127468   6.471   4.456   2.969 -0.2201  0.7806  1.2045
 9182TIP3    H227469   6.354   4.396   2.894  0.7850  1.2957 -0.8179
 9183TIP3   OH227470   4.979   5.057   3.944  0.1692  0.5838  0.4472
 9183TIP3    H127471   5.070   5.044   3.968 -0.2119 -2.4735  0.3259
 9183TIP3    H227472   4.982   5.081   3.851  0.7155 -1.8910 -0.1960
 9184TIP3   OH227473   5.187   5.565   4.179 -0.1886  0.2070  0.1556
 9184TIP3    H127474   5.185   5.495   4.113  2.1429  0.1354  0.0893
 9184TIP3    H227475   5.095   5.585   4.197 -0.8745 -0.3832 -2.4776
 9185TIP3   OH227476   3.542   3.522   3.378  0.1760 -0.4356  0.4922
 9185TIP3    H127477   3.581   3.542   3.463  0.7341  1.3216 -0.1525
 9185TIP3    H227478   3.523   3.428   3.382  2.9359 -0.9981  1.4668
 9186TIP3   OH227479   8.559   0.111   4.250 -0.3955 -0.4678 -0.4696
 9186TIP3    H127480   8.474   0.112   4.206 -0.5649  0.8201 -0.1319
 9186TIP3    H227481   8.598   0.027   4.225 -2.1758 -1.5043  0.1678
 9187TIP3   OH227482   6.380   4.932   3.459  0.0550 -0.8135 -0.1582
 9187TIP3    H127483   6.410   4.931   3.368  1.1395  0.6940  0.1672
 9187TIP3    H227484   6.312   4.999   3.461  0.0583 -0.8184  0.1362
 9188TIP3   OH227485   4.761   5.265   4.921 -0.1459  0.2626  0.2140
 9188TIP3    H127486   4.709   5.189   4.896 -1.0973  0.4519  1.4971
 9188TIP3    H227487   4.849   5.231   4.936  0.0641 -0.1067 -1.7651
 9189TIP3   OH227488   4.862   3.903   3.793 -0.2042  0.8470  0.1854
 9189TIP3    H127489   4.821   3.922   3.877  0.2008 -0.0689  0.5922
 9189TIP3    H227490   4.868   3.807   3.789  1.2316  0.9336 -0.1839
 9190TIP3   OH227491   5.975   6.275   0.561 -0.1197  0.0289 -0.3762
 9190TIP3    H127492   5.960   6.224   0.641 -0.7537 -0.4255 -0.7743
 9190TIP3    H227493   6.044   6.337   0.584  1.4025 -1.7121 -0.1831
 9191TIP3   OH227494   4.757   5.069   1.747 -0.4717  0.3918  0.3262
 9191TIP3    H127495   4.829   5.008   1.730 -0.5769  0.0318  1.1712
 9191TIP3    H227496   4.754   5.124   1.668 -1.1520 -1.4377 -0.9556
 9192TIP3   OH227497   5.623   6.210   0.598 -0.2271 -0.5398  0.1151
 9192TIP3    H127498   5.637   6.160   0.679 -0.2531 -1.1998 -0.2888
 9192TIP3    H227499   5.580   6.291   0.627  0.4433 -0.4383  0.8528
 9193TIP3   OH227500   3.180   5.650   2.281 -1.0211 -0.0907 -0.4231
 9193TIP3    H127501   3.209   5.582   2.341 -1.5594  0.6833  0.7462
 9193TIP3    H227502   3.104   5.612   2.235 -0.1250 -0.9628 -1.1946
 9194TIP3   OH227503   5.552   4.236   3.052  0.2919  0.4302 -0.3115
 9194TIP3    H127504   5.601   4.230   3.133  1.0407 -0.3084 -0.8107
 9194TIP3    H227505   5.496   4.159   3.051 -0.4254  0.9436 -0.0386
 9195TIP3   OH227506   5.605   6.748   1.879 -0.3442 -0.1634 -0.3895
 9195TIP3    H127507   5.528   6.758   1.934 -0.0588  2.1293 -0.3623
 9195TIP3    H227508   5.641   6.662   1.903 -0.0313  0.9050  3.2418
 9196TIP3   OH227509   4.854   5.870   3.192  0.0268  0.3996  0.3801
 9196TIP3    H127510   4.873   5.898   3.103  0.4970 -0.3434  0.2380
 9196TIP3    H227511   4.776   5.816   3.184  1.8913 -2.3488 -0.0868
 9197TIP3   OH227512   4.427   4.899   2.371  0.8101 -0.1392 -0.1234
 9197TIP3    H127513   4.478   4.829   2.330 -0.1565 -1.6004  1.1295
 9197TIP3    H227514   4.339   4.863   2.379  0.2887  1.2505  0.4939
 9198TIP3   OH227515   4.846   5.500   3.135  0.1610 -0.5411 -0.2199
 9198TIP3    H127516   4.781   5.570   3.132  0.1422 -0.4754  1.2823
 9198TIP3    H227517   4.813   5.439   3.202  0.7513 -1.4063 -0.6994
 9199TIP3   OH227518   5.720   4.410   3.875 -0.0937  0.4769  0.2868
 9199TIP3    H127519   5.672   4.339   3.917  0.9346 -0.3111  0.1457
 9199TIP3    H227520   5.709   4.485   3.933 -2.3047  0.5891 -0.2182
 9200TIP3   OH227521   3.290   4.433   2.581  0.2956 -0.2105  0.7439
 9200TIP3    H127522   3.238   4.508   2.612 -2.0354 -1.0184 -1.0245
 9200TIP3    H227523   3.337   4.467   2.505 -0.7420 -0.5065 -0.0432
 9201TIP3   OH227524   6.079   6.668   0.860  0.3635 -0.2333 -0.5376
 9201TIP3    H127525   6.117   6.672   0.772  0.2500 -0.1447 -0.5818
 9201TIP3    H227526   6.067   6.759   0.886 -0.3727 -0.2587 -0.7635
 9202TIP3   OH227527   3.837   7.613   1.735  0.8172  0.7352 -0.4755
 9202TIP3    H127528   3.871   7.532   1.697 -1.8008 -0.1594 -1.0468
 9202TIP3    H227529   3.808   7.664   1.659 -0.3247  0.8801  0.0422
 9203TIP3   OH227530   6.448   7.050   2.942  0.5904  0.4435  0.2626
 9203TIP3    H127531   6.375   7.090   2.893  0.2832  0.2019  0.5242
 9203TIP3    H227532   6.506   7.016   2.874  0.3402  0.4284  0.0539
 9204TIP3   OH227533   5.173   5.677   2.980  0.5865  0.3044 -0.0944
 9204TIP3    H127534   5.238   5.655   3.047 -0.7810 -2.5976  0.3405
 9204TIP3    H227535   5.223   5.681   2.898  1.5512 -0.4686  0.4522
 9205TIP3   OH227536   5.170   4.436   4.585  0.0099  0.7223  0.2075
 9205TIP3    H127537   5.102   4.503   4.584  1.6721  2.4970 -1.6351
 9205TIP3    H227538   5.191   4.423   4.492 -1.1841 -3.3623  0.4467
 9206TIP3   OH227539   6.116   7.481   3.493 -0.0307  0.3020 -0.3919
 9206TIP3    H127540   6.065   7.455   3.570 -0.7701  0.6912 -0.7365
 9206TIP3    H227541   6.204   7.496   3.526 -0.6438  1.7878  0.6514
 9207TIP3   OH227542   5.902   5.970   2.585  0.2814  0.7311  0.1922
 9207TIP3    H127543   5.882   6.019   2.505 -0.1839  2.0098  1.0678
 9207TIP3    H227544   5.974   5.912   2.560  1.3858  2.4269 -0.6936
 9208TIP3   OH227545   1.014   1.843   5.110  0.1216 -0.0992  0.2371
 9208TIP3    H127546   0.988   1.909   5.174  2.6051  0.6346  0.5466
 9208TIP3    H227547   0.969   1.763   5.139 -0.4038  0.6959  1.6998
 9209TIP3   OH227548   8.850   0.371   3.420  0.3272  0.0960  0.2688
 9209TIP3    H127549   8.811   0.453   3.451 -1.0174 -0.6639  0.6536
 9209TIP3    H227550   8.938   0.371   3.456 -0.0912  0.7824  1.3324
 9210TIP3   OH227551   6.055   7.830   2.341 -0.2045  0.3117 -0.1231
 9210TIP3    H127552   6.078   7.918   2.370  1.6027 -0.0418 -0.4578
 9210TIP3    H227553   6.011   7.843   2.257 -1.0740  0.9641  0.4170
 9211TIP3   OH227554   2.983   6.392   2.653  0.1484 -0.4815  0.1539
 9211TIP3    H127555   3.039   6.328   2.696 -2.1325 -2.0031  0.9853
 9211TIP3    H227556   2.936   6.342   2.586 -1.1613  0.4644  0.3436
 9212TIP3   OH227557   1.899   5.410   2.266  0.5986  0.0015  0.4108
 9212TIP3    H127558   1.939   5.456   2.339  1.2850  0.7195 -0.4026
 9212TIP3    H227559   1.822   5.368   2.303  1.8199 -0.9720  1.8803
 9213TIP3   OH227560   5.339   5.815   2.111  0.2463  0.2557 -0.3598
 9213TIP3    H127561   5.337   5.846   2.201 -0.7786  0.9127 -0.5978
 9213TIP3    H227562   5.247   5.810   2.085  0.5012 -0.5224 -1.1721
 9214TIP3   OH227563   4.488   6.959   1.194 -0.3746 -0.3701 -0.3028
 9214TIP3    H127564   4.549   6.941   1.122 -0.8127  1.2308 -1.1018
 9214TIP3    H227565   4.519   7.040   1.232 -0.2008 -1.1690  1.2963
 9215TIP3   OH227566   3.222   5.440   2.437 -0.1026  0.2000 -0.3265
 9215TIP3    H127567   3.182   5.366   2.391 -0.1977  0.0919 -0.0707
 9215TIP3    H227568   3.307   5.407   2.468  0.1101  0.3769 -0.7196
 9216TIP3   OH227569   5.953   6.284   2.872 -0.6407 -0.0604 -0.0663
 9216TIP3    H127570   5.904   6.202   2.879 -0.9741  0.1972  0.6735
 9216TIP3    H227571   6.025   6.274   2.935  0.5384 -0.6246 -1.4823
 9217TIP3   OH227572   5.404   6.602   1.036  0.1600 -0.7045 -0.2480
 9217TIP3    H127573   5.407   6.509   1.061 -1.0863 -0.6202  0.2601
 9217TIP3    H227574   5.331   6.607   0.974  1.3362 -0.3664 -1.6328
 9218TIP3   OH227575   5.951   5.530   2.895  0.1414 -0.3731 -0.7151
 9218TIP3    H127576   5.985   5.615   2.866  0.9677 -0.7630 -0.9081
 9218TIP3    H227577   5.864   5.524   2.855  0.7740 -0.3689 -2.1452
 9219TIP3   OH227578   6.115   6.968   4.333  0.4104  0.1597  0.4430
 9219TIP3    H127579   6.172   6.907   4.381  2.3269  0.9915 -0.7071
 9219TIP3    H227580   6.036   6.917   4.314  2.2032 -2.1839 -0.9801
 9220TIP3   OH227581   4.088   6.937   5.564  0.6111  0.5586 -0.2435
 9220TIP3    H127582   4.031   6.914   5.491  1.7440 -1.1304 -0.6216
 9220TIP3    H227583   4.077   6.865   5.627  0.1626  1.6543  0.9444
 9221TIP3   OH227584   4.878   4.038   2.861  0.3667  0.5019  0.5430
 9221TIP3    H127585   4.832   3.969   2.908  0.8817  0.8836  1.6269
 9221TIP3    H227586   4.822   4.059   2.787  0.8378 -2.0309 -0.5854
 9222TIP3   OH227587   3.390   7.506   2.624 -0.1915 -0.4134  0.0980
 9222TIP3    H127588   3.383   7.412   2.609 -0.9064 -0.3542  0.0693
 9222TIP3    H227589   3.445   7.513   2.702  0.1917 -0.8369 -0.1262
 9223TIP3   OH227590   2.724   6.621   2.364  0.2760  0.3743  0.0484
 9223TIP3    H127591   2.782   6.669   2.423 -0.4378  2.2037 -0.6942
 9223TIP3    H227592   2.636   6.641   2.396 -0.0209 -0.8467  0.0145
 9224TIP3   OH227593   4.725   6.316   1.969  0.0694  0.4790 -0.2586
 9224TIP3    H127594   4.697   6.344   2.056  2.0823 -1.0401  0.9451
 9224TIP3    H227595   4.650   6.269   1.932  0.0283 -1.0113  1.6807
 9225TIP3   OH227596   4.421   3.804   3.485  0.0753 -0.0282 -0.1945
 9225TIP3    H127597   4.495   3.805   3.424 -0.0342 -2.8548 -0.4551
 9225TIP3    H227598   4.453   3.846   3.564  1.3890  0.3827 -0.9434
 9226TIP3   OH227599   7.318   5.630   2.759  0.4634 -0.1383 -0.0992
 9226TIP3    H127600   7.336   5.546   2.716 -2.1306 -1.1164  0.6424
 9226TIP3    H227601   7.227   5.650   2.737  1.9834  4.2172 -3.0509
 9227TIP3   OH227602   7.082   5.088   3.679  0.2340 -0.0925  0.2669
 9227TIP3    H127603   7.002   5.102   3.628  0.3769 -1.1480 -0.2670
 9227TIP3    H227604   7.053   5.091   3.770 -0.2719  0.3421  0.0975
 9228TIP3   OH227605   4.525   6.707   2.391 -0.6564 -0.8027  0.2058
 9228TIP3    H127606   4.432   6.723   2.405 -0.8868 -1.2287 -0.7730
 9228TIP3    H227607   4.545   6.748   2.307 -0.2963 -1.9393 -0.2799
 9229TIP3   OH227608   4.908   5.617   2.903  0.7525  0.0126  0.0903
 9229TIP3    H127609   4.997   5.625   2.936  0.2515 -2.0633  2.1173
 9229TIP3    H227610   4.861   5.571   2.973 -1.5784 -0.1052 -1.4962
 9230TIP3   OH227611   3.861   4.799   3.021  0.2223  0.2876  0.9768
 9230TIP3    H127612   3.883   4.837   2.936  2.4272  0.7923  1.7337
 9230TIP3    H227613   3.925   4.729   3.034 -0.3539 -0.0600  2.0393
 9231TIP3   OH227614   5.853   6.866   2.023  0.3607 -0.2173  0.3852
 9231TIP3    H127615   5.787   6.798   2.029  0.5684 -0.5049 -0.5077
 9231TIP3    H227616   5.907   6.841   1.947  0.1659  1.1618 -0.2278
 9232TIP3   OH227617   0.083   0.142   2.781 -0.6134 -0.5018  0.1722
 9232TIP3    H127618   0.088   0.107   2.692 -0.1053  0.2368 -0.1016
 9232TIP3    H227619  -0.006   0.176   2.789 -0.1051  1.1141 -0.7217
 9233TIP3   OH227620   5.809   3.863   4.482  0.2235  0.6322  0.0690
 9233TIP3    H127621   5.794   3.771   4.459 -0.5986  0.2825  1.9770
 9233TIP3    H227622   5.898   3.881   4.450  0.2389 -0.6973 -0.6686
 9234TIP3   OH227623   7.649   7.916   4.774 -0.1568 -0.1504  0.8779
 9234TIP3    H127624   7.590   7.992   4.780 -0.2635 -0.0494 -1.0820
 9234TIP3    H227625   7.727   7.951   4.732  0.4423 -0.7807  1.4649
 9235TIP3   OH227626   5.520   5.777   3.542  0.0623 -0.8353 -0.0803
 9235TIP3    H127627   5.586   5.822   3.489  0.5622 -1.7369 -0.2423
 9235TIP3    H227628   5.477   5.847   3.591  0.6572 -0.1575 -0.5072
 9236TIP3   OH227629   5.097   6.282   1.396  0.1407 -0.1495  0.0569
 9236TIP3    H127630   5.192   6.277   1.399  0.1809 -0.1939 -0.9907
 9236TIP3    H227631   5.069   6.265   1.486  1.0900 -0.8013  0.2367
 9237TIP3   OH227632   5.170   4.414   3.214  0.5777 -0.4502  0.3182
 9237TIP3    H127633   5.090   4.401   3.164 -0.0565  1.0794  0.8915
 9237TIP3    H227634   5.236   4.437   3.149 -0.2498  1.5708  0.1517
 9238TIP3   OH227635   6.139   6.566   2.468  0.9170 -0.0091 -0.4011
 9238TIP3    H127636   6.186   6.487   2.442 -0.6580 -1.1205  0.0809
 9238TIP3    H227637   6.080   6.584   2.394 -0.1270 -0.4223  0.3200
 9239TIP3   OH227638   5.501   6.098   3.919  0.4060 -0.2258 -0.2901
 9239TIP3    H127639   5.464   6.104   4.007 -0.9804 -0.4298 -0.8517
 9239TIP3    H227640   5.586   6.141   3.926 -1.8956  4.5980 -0.0821
 9240TIP3   OH227641   4.923   7.176   1.248  0.1754 -0.5013 -0.1597
 9240TIP3    H127642   5.000   7.231   1.235  0.4231 -0.9244 -0.4817
 9240TIP3    H227643   4.893   7.155   1.160  0.3243 -1.2268 -0.0366
 9241TIP3   OH227644   5.530   7.823   6.157  0.1288 -0.5169  0.3447
 9241TIP3    H127645   5.485   7.907   6.150  0.2765 -0.4888 -0.2570
 9241TIP3    H227646   5.623   7.846   6.158  0.1460 -0.6082  1.0845
 9242TIP3   OH227647   4.766   7.353   1.921 -0.4833  0.2103 -0.4106
 9242TIP3    H127648   4.836   7.372   1.983 -1.1398  0.5023  0.2591
 9242TIP3    H227649   4.803   7.371   1.835  0.3726  0.0083 -0.0872
 9243TIP3   OH227650   3.967   6.230   1.589  0.2597  0.1230  0.0302
 9243TIP3    H127651   3.894   6.289   1.572  0.1783  0.2607  0.8532
 9243TIP3    H227652   3.940   6.178   1.664  1.2619  0.6326  0.7585
 9244TIP3   OH227653   5.335   6.017   5.074  0.3836  0.1328  0.8295
 9244TIP3    H127654   5.323   6.033   4.981  0.9491  0.5322  0.8264
 9244TIP3    H227655   5.249   6.034   5.113  0.2486  0.3438  0.4374
 9245TIP3   OH227656   2.825   2.605   6.979  0.3676  0.1795  0.3322
 9245TIP3    H127657   2.747   2.653   7.008 -1.5500 -0.2247 -3.8178
 9245TIP3    H227658   2.830   2.621   6.885  3.4505 -2.5036 -0.0728
 9246TIP3   OH227659   6.436   7.509   3.997  0.1296 -0.4295  0.0141
 9246TIP3    H127660   6.399   7.423   3.982  0.3905 -0.3870 -0.9070
 9246TIP3    H227661   6.414   7.530   4.088 -0.8019 -1.0293 -0.0765
 9247TIP3   OH227662   4.198   5.683   2.232 -0.3708  0.3434  0.0169
 9247TIP3    H127663   4.144   5.760   2.251  1.6330  1.5439  0.9982
 9247TIP3    H227664   4.217   5.645   2.318  0.3266 -0.0856 -0.3199
 9248TIP3   OH227665   4.459   3.899   2.448  0.3913  0.0102  0.8431
 9248TIP3    H127666   4.402   3.900   2.525  0.9751 -1.4575  1.3016
 9248TIP3    H227667   4.436   3.819   2.401  0.9714  0.2169  0.1939
 9249TIP3   OH227668   7.421   7.650   2.933  0.4036  0.9027  0.3460
 9249TIP3    H127669   7.349   7.591   2.911  1.6542 -0.8282  0.7614
 9249TIP3    H227670   7.443   7.693   2.850 -0.3336  0.5787 -0.0187
 9250TIP3   OH227671   6.174   4.938   3.003  0.0311 -0.0213 -0.6041
 9250TIP3    H127672   6.182   5.031   3.024 -0.7415  0.0225 -0.4906
 9250TIP3    H227673   6.081   4.918   3.014  0.1074 -0.6956 -1.0876
 9251TIP3   OH227674   5.630   6.074   4.900 -0.0479 -0.2657 -0.2137
 9251TIP3    H127675   5.537   6.054   4.903  0.0946 -1.1803 -1.4346
 9251TIP3    H227676   5.667   6.031   4.977 -0.5249 -0.5092 -0.1222
 9252TIP3   OH227677   4.048   6.216   1.989  0.2289  0.0478 -0.2814
 9252TIP3    H127678   4.017   6.214   1.899 -0.5377  0.5114 -0.0284
 9252TIP3    H227679   4.082   6.305   2.001  0.5884 -0.1005 -0.2010
 9253TIP3   OH227680   6.442   5.352   3.238  0.0652  0.3660 -0.0081
 9253TIP3    H127681   6.437   5.283   3.304  0.9146 -0.0497 -0.3834
 9253TIP3    H227682   6.516   5.328   3.183  0.3258  1.5342 -0.1829
 9254TIP3   OH227683   5.284   3.975   1.743 -0.9373 -0.3469  0.5672
 9254TIP3    H127684   5.256   4.059   1.709 -0.1366 -0.0669  0.6008
 9254TIP3    H227685   5.248   3.911   1.681 -1.8510 -0.0126  0.7415
 9255TIP3   OH227686   5.846   5.134   3.479 -0.4387  0.2151 -0.2329
 9255TIP3    H127687   5.771   5.079   3.504 -0.1806 -0.2213 -0.4163
 9255TIP3    H227688   5.909   5.073   3.441  0.4549  0.4390  0.8761
 9256TIP3   OH227689   7.109   6.429   3.561 -0.0119 -0.2191  0.9327
 9256TIP3    H127690   7.110   6.404   3.469 -1.8673  2.1807  0.1855
 9256TIP3    H227691   7.191   6.477   3.575 -0.7989  1.4725 -0.1258
 9257TIP3   OH227692   2.868   5.831   5.629  0.6533 -0.1850  0.1717
 9257TIP3    H127693   2.809   5.906   5.627  1.7244  0.6488 -0.4363
 9257TIP3    H227694   2.863   5.798   5.719  0.1976  0.6196  0.4409
 9258TIP3   OH227695   5.211   4.168   3.822 -1.0783  0.1690 -0.2806
 9258TIP3    H127696   5.259   4.244   3.789  0.7116 -0.9148 -0.1936
 9258TIP3    H227697   5.119   4.188   3.803 -0.6423  2.3911 -0.1842
 9259TIP3   OH227698   4.143   5.349   5.035 -0.1838 -0.2102  0.0670
 9259TIP3    H127699   4.181   5.262   5.050 -1.0518 -0.6604 -0.3037
 9259TIP3    H227700   4.213   5.410   5.059  0.8923 -1.0236 -0.9057
 9260TIP3   OH227701   3.679   6.508   4.877  0.7898 -0.3492  0.0371
 9260TIP3    H127702   3.679   6.584   4.818 -0.4845 -0.3715  0.0103
 9260TIP3    H227703   3.747   6.528   4.941 -0.3776  1.3990  0.7639
 9261TIP3   OH227704   7.078   6.906   3.608 -0.1826 -0.5810 -0.0522
 9261TIP3    H127705   7.061   6.960   3.685  0.9642  0.2275 -0.3401
 9261TIP3    H227706   7.007   6.842   3.606 -0.4837 -0.2980  1.3937
 9262TIP3   OH227707   5.967   7.129   5.766 -0.1257 -0.0203  0.5618
 9262TIP3    H127708   5.987   7.040   5.794  1.2927 -0.4044 -1.6155
 9262TIP3    H227709   6.000   7.184   5.837  3.2187 -0.9871 -0.1746
 9263TIP3   OH227710   4.120   4.602   4.075 -0.0622  0.2231 -0.2793
 9263TIP3    H127711   4.095   4.694   4.072 -0.3257  0.2578  2.4240
 9263TIP3    H227712   4.037   4.555   4.065 -0.8738  0.3454  4.6498
 9264TIP3   OH227713   7.142   7.842   3.833  0.2722  0.0144  0.2064
 9264TIP3    H127714   7.122   7.876   3.746 -0.0641  1.7015  0.9162
 9264TIP3    H227715   7.087   7.764   3.842  1.5907 -1.1848 -1.7364
 9265TIP3   OH227716   7.730   6.600   5.193 -0.2982 -0.4620  0.0730
 9265TIP3    H127717   7.779   6.540   5.249 -0.7437  0.4441  1.4571
 9265TIP3    H227718   7.796   6.638   5.135  0.5705  0.3280  1.5482
 9266TIP3   OH227719   8.841   8.255   3.369  0.5951 -0.2127 -0.4289
 9266TIP3    H127720   8.749   8.264   3.394  0.4558 -1.4566 -0.5120
 9266TIP3    H227721   8.854   8.161   3.358  1.9569 -0.0625 -0.1254
 9267TIP3   OH227722   5.764   6.120   1.650  0.4483 -0.6571 -0.2565
 9267TIP3    H127723   5.669   6.108   1.658  0.6262 -2.1806 -0.2811
 9267TIP3    H227724   5.801   6.056   1.712  1.4420  0.4360  0.2902
 9268TIP3   OH227725   6.124   5.962   4.295 -0.0725  0.2755  0.0746
 9268TIP3    H127726   6.137   6.047   4.338  0.2419  0.0538  0.4165
 9268TIP3    H227727   6.030   5.946   4.302  0.2338 -0.7497  2.5664
 9269TIP3   OH227728   5.348   6.885   3.803 -0.2534 -0.0217 -0.2474
 9269TIP3    H127729   5.383   6.901   3.890 -0.1518 -0.8574 -0.1282
 9269TIP3    H227730   5.327   6.792   3.802 -2.8822  0.5281 -0.1506
 9270TIP3   OH227731   5.378   5.942   4.300  0.4254  0.4016  0.3971
 9270TIP3    H127732   5.361   5.853   4.332  1.4391 -0.4428 -1.3091
 9270TIP3    H227733   5.408   5.929   4.210 -1.1158  2.6136 -0.4695
 9271TIP3   OH227734   7.835   6.479   1.743  0.0968  0.8654 -0.3732
 9271TIP3    H127735   7.868   6.505   1.829  1.6509 -0.8347 -0.4293
 9271TIP3    H227736   7.870   6.545   1.682 -0.1545  1.4764  0.1398
 9272TIP3   OH227737   3.177   5.543   4.205 -0.2782 -0.2945  0.3942
 9272TIP3    H127738   3.113   5.553   4.276  0.3514 -0.4094  0.9903
 9272TIP3    H227739   3.126   5.552   4.125 -1.1542 -1.0871  0.8569
 9273TIP3   OH227740   4.293   5.588   3.113 -0.2071  0.0381  0.1104
 9273TIP3    H127741   4.255   5.564   3.028 -2.7184  1.7771  0.7004
 9273TIP3    H227742   4.320   5.679   3.103 -2.0454  0.7892  1.6556
 9274TIP3   OH227743   7.066   7.354   3.446 -0.3401 -0.5826  0.2322
 9274TIP3    H127744   7.103   7.427   3.396 -2.1889 -0.1293 -0.5150
 9274TIP3    H227745   7.119   7.279   3.423  2.0426  0.6459  1.5424
 9275TIP3   OH227746   5.278   8.166   4.179 -0.2575 -0.4216 -0.0389
 9275TIP3    H127747   5.300   8.100   4.113 -3.9133  0.7311 -2.5764
 9275TIP3    H227748   5.302   8.250   4.138 -0.6280  0.1600  0.9125
 9276TIP3   OH227749   5.107   7.665   2.209  0.1757 -0.0255  0.0712
 9276TIP3    H127750   5.164   7.589   2.194  1.7993  1.6421 -2.5785
 9276TIP3    H227751   5.023   7.638   2.173  1.0445 -0.2085 -1.9125
 9277TIP3   OH227752   4.971   2.964   3.609 -0.0708  0.4953 -0.2476
 9277TIP3    H127753   4.932   3.048   3.587 -0.4886  0.7862  1.4817
 9277TIP3    H227754   4.895   2.906   3.625  0.2009 -0.4530 -2.2331
 9278TIP3   OH227755   7.183   6.067   3.212 -0.4748 -0.1514 -0.4524
 9278TIP3    H127756   7.205   5.984   3.167 -0.3826  0.5596 -1.7413
 9278TIP3    H227757   7.164   6.128   3.141  2.7665  1.8754  0.3260
 9279TIP3   OH227758   4.520   5.456   3.622 -0.1918 -0.3154  0.3683
 9279TIP3    H127759   4.433   5.479   3.653 -0.1865 -1.2883  1.1198
 9279TIP3    H227760   4.572   5.536   3.633 -0.1862 -0.6280  2.8443
 9280TIP3   OH227761   5.043   5.056   3.096 -0.1939 -0.5448 -0.2325
 9280TIP3    H127762   5.044   5.090   3.186 -0.6028  0.5321 -0.6325
 9280TIP3    H227763   5.014   5.130   3.043  0.3215 -1.1031 -1.2901
 9281TIP3   OH227764   7.154   6.321   3.041 -0.3150 -0.3658 -0.0901
 9281TIP3    H127765   7.172   6.393   2.981 -0.4304 -0.5657 -0.3684
 9281TIP3    H227766   7.130   6.248   2.984 -0.0884 -0.6566  0.1830
 9282TIP3   OH227767   5.655   6.038   4.626 -0.4546 -0.1104  0.2954
 9282TIP3    H127768   5.626   5.951   4.654 -2.0097  0.5904  0.9043
 9282TIP3    H227769   5.664   6.088   4.707 -2.1919  1.0826 -0.2264
 9283TIP3   OH227770   5.197   6.903   2.560 -0.3723 -0.1963 -0.0680
 9283TIP3    H127771   5.147   6.843   2.615 -3.2025  3.3543  1.4292
 9283TIP3    H227772   5.257   6.947   2.620  1.4724 -1.2840 -1.0936
 9284TIP3   OH227773   5.658   4.770   3.143  0.5140 -0.8217  0.6295
 9284TIP3    H127774   5.601   4.773   3.066 -0.2254 -0.8619  1.1770
 9284TIP3    H227775   5.658   4.860   3.176  2.8547 -0.2056 -0.8762
 9285TIP3   OH227776   5.582   5.750   2.257 -0.8361 -0.2396 -0.5722
 9285TIP3    H127777   5.504   5.772   2.206 -0.4116  1.3672 -0.5719
 9285TIP3    H227778   5.588   5.820   2.322 -0.9189 -1.8286  1.1893
 9286TIP3   OH227779   6.658   3.381   3.106 -0.1631  0.0617  0.2852
 9286TIP3    H127780   6.669   3.288   3.125  0.5791  0.0642 -0.1171
 9286TIP3    H227781   6.631   3.384   3.015 -0.2413  0.2381  0.3135
 9287TIP3   OH227782   7.093   4.793   3.294 -0.2159  0.1207 -0.3368
 9287TIP3    H127783   7.105   4.730   3.222  0.1057 -0.6093  0.3488
 9287TIP3    H227784   7.136   4.752   3.369 -2.0801  0.0661  0.7299
 9288TIP3   OH227785   5.720   5.866   2.762  0.4857 -0.0326 -0.4265
 9288TIP3    H127786   5.801   5.890   2.718  1.3911 -0.5550  0.9061
 9288TIP3    H227787   5.746   5.854   2.854 -1.0522 -0.4287 -0.0358
 9289TIP3   OH227788   5.772   7.325   4.199  0.3173  0.0811  0.3036
 9289TIP3    H127789   5.816   7.410   4.210  0.2605 -0.0536  1.6279
 9289TIP3    H227790   5.767   7.289   4.287 -0.2543 -1.0146 -0.1684
 9290TIP3   OH227791   6.234   5.182   3.046  0.3955 -0.4904  0.1079
 9290TIP3    H127792   6.294   5.227   2.986  1.8501  1.0348  2.6133
 9290TIP3    H227793   6.160   5.242   3.054  0.4209 -0.4722  0.2050
 9291TIP3   OH227794   5.042   6.247   4.097 -0.0357  0.1307  0.1056
 9291TIP3    H127795   5.094   6.327   4.100 -0.0979  0.1409  1.0356
 9291TIP3    H227796   5.044   6.214   4.186 -0.2886 -0.7316 -0.2066
 9292TIP3   OH227797   8.595   6.319   2.110  0.9832  0.3016  0.4247
 9292TIP3    H127798   8.592   6.256   2.039  0.9864  0.2011  0.5146
 9292TIP3    H227799   8.644   6.393   2.074 -0.2599  0.8528 -0.1538
 9293TIP3   OH227800   5.954   6.085   1.150 -0.3490  0.2007 -0.5347
 9293TIP3    H127801   5.980   6.005   1.105  0.1672  0.5479 -0.8701
 9293TIP3    H227802   5.886   6.058   1.211  0.8641 -0.7705  0.4243
 9294TIP3   OH227803   6.310   5.806   4.406  0.2169 -0.6751 -0.0078
 9294TIP3    H127804   6.275   5.800   4.494 -1.2478 -0.7893 -0.5933
 9294TIP3    H227805   6.247   5.860   4.358  0.8666 -0.8220 -1.0534
 9295TIP3   OH227806   4.577   2.545   5.801 -0.4546 -0.2559 -0.0482
 9295TIP3    H127807   4.576   2.450   5.799  0.5664 -0.2755 -0.1141
 9295TIP3    H227808   4.567   2.571   5.709 -1.4685 -0.2889  0.0559
 9296TIP3   OH227809   6.241   7.012   3.169 -0.2704  0.2745  0.6340
 9296TIP3    H127810   6.176   7.071   3.206  0.0271  0.0685  1.4810
 9296TIP3    H227811   6.213   6.925   3.195  0.2829  0.1748  0.8999
 9297TIP3   OH227812   4.993   5.905   2.673  0.2853 -0.0518  0.2169
 9297TIP3    H127813   4.976   5.840   2.605  1.7636 -1.0449  0.7635
 9297TIP3    H227814   5.084   5.889   2.699  0.4750  1.8172  0.8148
 9298TIP3   OH227815   6.417   5.432   3.606  0.6249  0.0157  0.9515
 9298TIP3    H127816   6.500   5.422   3.652  1.6871 -0.2715 -0.9552
 9298TIP3    H227817   6.403   5.526   3.601  2.4796  0.2172 -1.4833
 9299TIP3   OH227818   0.090   7.675   3.399  0.2023  0.3697 -0.5003
 9299TIP3    H127819   0.172   7.636   3.370  0.7078  0.0746  1.2191
 9299TIP3    H227820   0.114   7.764   3.426  0.1721 -0.0673  0.9998
 9300TIP3   OH227821   5.456   3.901   5.449  0.2793  0.5928  0.4151
 9300TIP3    H127822   5.517   3.974   5.463  1.8335 -0.6757  0.2844
 9300TIP3    H227823   5.407   3.925   5.371  1.7929  0.8291 -0.4678
 9301TIP3   OH227824   3.752   6.165   3.578  0.5684  0.3272 -0.3077
 9301TIP3    H127825   3.817   6.224   3.539 -0.3277  2.6589  1.5741
 9301TIP3    H227826   3.701   6.221   3.637 -1.8895 -1.8465 -0.2509
 9302TIP3   OH227827   4.564   7.374   4.229 -0.5509  0.0133 -0.2163
 9302TIP3    H127828   4.599   7.311   4.166 -0.4358  0.3492 -0.4885
 9302TIP3    H227829   4.519   7.440   4.175 -0.6062  0.2042  0.0613
 9303TIP3   OH227830   4.235   6.190   3.141  0.0147  0.3046 -0.1649
 9303TIP3    H127831   4.293   6.157   3.209  0.1919  1.2403  0.1555
 9303TIP3    H227832   4.219   6.281   3.166 -2.7349 -0.3254  0.5333
 9304TIP3   OH227833   6.033   6.967   2.478 -0.3789  0.5137 -0.0103
 9304TIP3    H127834   6.079   6.929   2.552 -1.0693  0.1190  0.2248
 9304TIP3    H227835   6.021   7.059   2.501  3.0683  1.4154 -1.4422
 9305TIP3   OH227836   5.894   6.019   4.912 -0.0813 -0.1007 -0.1860
 9305TIP3    H127837   5.813   6.070   4.902 -0.0874  0.4082  2.1584
 9305TIP3    H227838   5.945   6.040   4.834 -1.9469  0.0347 -1.4203
 9306TIP3   OH227839   3.426   7.697   4.458 -1.3079 -0.1553 -0.8766
 9306TIP3    H127840   3.331   7.681   4.459 -1.7073  1.8046 -2.4508
 9306TIP3    H227841   3.434   7.792   4.471  0.3931 -0.1857 -1.5707
 9307TIP3   OH227842   5.961   7.852   3.961  0.5437 -0.1411 -0.2193
 9307TIP3    H127843   6.055   7.854   3.980  0.2806 -0.1268  1.1007
 9307TIP3    H227844   5.950   7.773   3.908  1.2692 -0.2630 -0.2009
 9308TIP3   OH227845   6.141   6.751   3.957  0.9092 -0.0556 -0.2989
 9308TIP3    H127846   6.094   6.694   3.897 -0.6443  3.0673 -2.1591
 9308TIP3    H227847   6.090   6.747   4.038 -0.5218  0.5127 -1.1618
 9309TIP3   OH227848   4.467   5.965   4.295 -0.2847  0.4014  0.3850
 9309TIP3    H127849   4.455   5.873   4.270  1.3461  0.9760 -2.7274
 9309TIP3    H227850   4.507   5.961   4.381  0.2967 -1.8306  0.0495
 9310TIP3   OH227851   5.199   6.989   2.124  0.4352  0.3227  0.3521
 9310TIP3    H127852   5.137   7.035   2.068  1.9734  0.5314 -1.2364
 9310TIP3    H227853   5.189   7.030   2.210 -1.0526  0.8764 -0.0690
 9311TIP3   OH227854   5.166   5.323   4.022 -0.2832  0.0366 -0.3266
 9311TIP3    H127855   5.219   5.288   3.951  0.5302 -1.0048  0.7793
 9311TIP3    H227856   5.079   5.336   3.984  0.1454 -0.5228 -1.4925
 9312TIP3   OH227857   5.080   5.176   2.516  0.2768  0.4127 -0.4537
 9312TIP3    H127858   5.135   5.162   2.593  0.2575  1.2886 -0.2726
 9312TIP3    H227859   5.041   5.091   2.498 -1.4876  0.6862  1.8682
 9313TIP3   OH227860   5.732   7.212   4.457 -0.1207 -0.3005  0.5761
 9313TIP3    H127861   5.656   7.197   4.514  1.8240 -0.7489  3.1834
 9313TIP3    H227862   5.805   7.175   4.506  1.8801  0.6243 -1.6285
 9314TIP3   OH227863   5.313   4.171   3.281  0.1509  0.4017 -0.1980
 9314TIP3    H127864   5.287   4.263   3.288 -0.5907  0.2194 -0.4749
 9314TIP3    H227865   5.384   4.161   3.344 -0.4681  0.9096  0.5919
 9315TIP3   OH227866   7.931   5.333   1.798  0.2539  0.2951 -0.4096
 9315TIP3    H127867   7.913   5.375   1.882  0.1696  0.4538 -0.5058
 9315TIP3    H227868   7.972   5.402   1.745 -1.5224  0.7852 -1.1714
 9316TIP3   OH227869   6.824   5.991   2.868  0.0469 -0.0570  0.6625
 9316TIP3    H127870   6.746   6.018   2.916 -0.4454  2.9310 -1.7140
 9316TIP3    H227871   6.791   5.956   2.785  1.1722  0.2161  0.0927
 9317TIP3   OH227872   5.581   4.734   2.284 -0.2067 -0.0472  0.2637
 9317TIP3    H127873   5.623   4.806   2.237 -0.2648 -0.3880 -0.3090
 9317TIP3    H227874   5.519   4.697   2.222 -1.5692  0.6373  1.2030
 9318TIP3   OH227875   4.246   5.679   1.856  0.2178  1.0740  0.3244
 9318TIP3    H127876   4.294   5.658   1.936 -0.2656  1.6080  0.7609
 9318TIP3    H227877   4.261   5.604   1.798  0.4020  0.5902  0.9946
 9319TIP3   OH227878   3.829   4.960   1.872  0.4894  0.3927 -0.1394
 9319TIP3    H127879   3.748   5.006   1.893 -0.0129  0.2814 -1.7759
 9319TIP3    H227880   3.808   4.867   1.881  0.2490  0.3422 -1.1990
 9320TIP3   OH227881   6.415   7.285   4.887 -0.4860 -0.2714 -0.2878
 9320TIP3    H127882   6.390   7.374   4.914 -0.3252 -0.0920 -0.7314
 9320TIP3    H227883   6.333   7.236   4.890 -0.5406 -0.1573  0.1547
 9321TIP3   OH227884   6.707   5.903   2.627  0.4818  0.0958  0.4938
 9321TIP3    H127885   6.648   5.941   2.562 -0.3956 -1.2459  0.4811
 9321TIP3    H227886   6.745   5.827   2.584  3.1420  1.6016  0.1013
 9322TIP3   OH227887   3.654   7.775   2.700  0.2120  0.1165 -0.2952
 9322TIP3    H127888   3.573   7.772   2.648 -0.1606 -1.1219  0.3615
 9322TIP3    H227889   3.628   7.818   2.782  0.1215 -0.6584  0.0841
 9323TIP3   OH227890   2.626   6.286   2.704  0.1008 -0.5307  0.0787
 9323TIP3    H127891   2.718   6.286   2.730 -0.3660 -0.8528  1.7726
 9323TIP3    H227892   2.625   6.243   2.618  1.5776 -0.0304 -0.2033
 9324TIP3   OH227893   5.827   3.934   3.087 -0.5344 -0.6289  0.2893
 9324TIP3    H127894   5.902   3.874   3.087  0.3694  0.4831 -0.7718
 9324TIP3    H227895   5.787   3.922   3.173 -0.1435 -2.4673  0.2536
 9325TIP3   OH227896   5.265   5.015   2.700 -0.0687  0.8131  0.3155
 9325TIP3    H127897   5.177   4.977   2.701 -0.5385  1.8338 -0.8206
 9325TIP3    H227898   5.282   5.037   2.792 -0.1674 -1.2124  0.8473
 9326TIP3   OH227899   6.539   6.963   3.233  0.1936  0.2253 -0.1282
 9326TIP3    H127900   6.634   6.964   3.226  0.0935  2.3040 -1.7996
 9326TIP3    H227901   6.520   6.903   3.305  2.7123 -1.0264 -0.4720
 9327TIP3   OH227902   3.767   6.493   5.556  0.3905  0.9736 -0.0636
 9327TIP3    H127903   3.720   6.468   5.635  1.8272 -0.5333  0.3549
 9327TIP3    H227904   3.735   6.581   5.534 -3.0443 -0.2549 -0.1797
 9328TIP3   OH227905   3.712   3.859   3.487  0.7781  0.0909 -0.0534
 9328TIP3    H127906   3.619   3.836   3.493  0.7195  0.5674  0.8975
 9328TIP3    H227907   3.757   3.790   3.535  0.8675  0.2128  0.0363
 9329TIP3   OH227908   5.230   5.976   2.309 -0.4224  0.3825  0.0122
 9329TIP3    H127909   5.178   6.038   2.257 -0.3585  0.7544  0.3894
 9329TIP3    H227910   5.254   6.025   2.388  0.6257  0.2608 -0.2257
 9330TIP3   OH227911   8.804   8.028   5.222 -0.3957  0.8803  0.0548
 9330TIP3    H127912   8.892   8.066   5.225 -0.6469  1.6051 -1.5234
 9330TIP3    H227913   8.819   7.933   5.231  0.6233  0.9175 -1.2005
 9331TIP3   OH227914   6.945   7.657   3.783  0.0791  0.9029 -0.3857
 9331TIP3    H127915   6.945   7.627   3.692 -0.6342  0.0150 -0.1051
 9331TIP3    H227916   6.964   7.578   3.834 -2.3706  0.7749  0.4134
 9332TIP3   OH227917   8.839   7.712   0.331 -0.5001  0.0154 -0.2216
 9332TIP3    H127918   8.777   7.779   0.301  0.6148  1.1221 -0.0800
 9332TIP3    H227919   8.789   7.660   0.394 -0.5682  2.4660  1.8424
 9333TIP3   OH227920   0.984   0.094   3.748  0.2186 -0.5275  0.0854
 9333TIP3    H127921   0.941   0.126   3.828 -0.8891  0.7785 -1.0098
 9333TIP3    H227922   0.930   0.128   3.677  1.2586 -1.5937 -1.2363
 9334TIP3   OH227923   6.117   5.371   4.153  0.0114 -0.4717 -0.1172
 9334TIP3    H127924   6.131   5.406   4.064 -2.4088  0.3309 -0.2290
 9334TIP3    H227925   6.155   5.437   4.210  1.3418 -0.8581 -0.5391
 9335TIP3   OH227926   2.665   1.277   1.836  0.3363  0.4199 -0.2931
 9335TIP3    H127927   2.645   1.183   1.832  0.7698  0.2211  1.9094
 9335TIP3    H227928   2.584   1.319   1.807 -0.5720 -0.5922  0.7051
 9336TIP3   OH227929   6.048   7.665   3.765  0.1061 -0.0289  0.1563
 9336TIP3    H127930   6.067   7.581   3.723 -1.2773 -0.2508 -0.0468
 9336TIP3    H227931   6.065   7.730   3.697  0.5987 -0.1825  0.1286
 9337TIP3   OH227932   5.934   6.854   3.034 -0.0615  0.2387  0.1273
 9337TIP3    H127933   5.944   6.772   3.083  1.3653  0.9283  1.0257
 9337TIP3    H227934   5.850   6.845   2.990  0.0687 -1.7135  0.2118
 9338TIP3   OH227935   5.871   8.123   2.122  0.0796 -0.2046  0.4517
 9338TIP3    H127936   5.813   8.199   2.127  0.4153  0.1524 -0.7891
 9338TIP3    H227937   5.908   8.127   2.033  0.6037 -1.4448  0.6023
 9339TIP3   OH227938   2.193   1.151   3.795 -0.4430  0.4651  0.4244
 9339TIP3    H127939   2.170   1.059   3.795 -2.3566  0.9226  0.3641
 9339TIP3    H227940   2.175   1.181   3.706 -0.6886  1.0989  0.6805
 9340TIP3   OH227941   1.083   0.102   2.145 -0.3042  0.0363 -0.3441
 9340TIP3    H127942   1.037   0.018   2.144 -1.0348  0.4017  0.9108
 9340TIP3    H227943   1.051   0.148   2.067 -0.3591 -0.5998 -0.7009
 9341TIP3   OH227944   0.928   0.432   3.390 -0.0389 -0.4595 -0.5707
 9341TIP3    H127945   0.949   0.471   3.475 -1.3588 -1.3819  0.1970
 9341TIP3    H227946   0.965   0.493   3.326  0.6429  0.4378  0.6521
 9342TIP3   OH227947   8.166   7.166   4.418  0.1385 -0.6491  0.2013
 9342TIP3    H127948   8.231   7.233   4.398  0.5112 -1.1387 -0.2571
 9342TIP3    H227949   8.187   7.094   4.358 -1.1053 -0.6362 -0.2586
 9343TIP3   OH227950   7.321   7.088   2.832 -0.3331 -0.2479 -0.1222
 9343TIP3    H127951   7.268   7.009   2.839  0.7874 -0.9547  0.6537
 9343TIP3    H227952   7.363   7.082   2.746 -1.3938  0.2400 -0.6745
 9344TIP3   OH227953   1.902   1.033   2.335  0.3157  0.4111  0.0923
 9344TIP3    H127954   1.849   0.955   2.324  0.9164 -0.0161  0.2018
 9344TIP3    H227955   1.964   1.031   2.262  1.5648 -0.2263  1.1366
 9345TIP3   OH227956   7.640   5.788   3.566  0.0902 -0.6985  0.3337
 9345TIP3    H127957   7.625   5.694   3.574  0.6571 -0.8594 -0.5113
 9345TIP3    H227958   7.698   5.809   3.639  0.2142 -1.0557  0.3370
 9346TIP3   OH227959   7.143   6.641   3.297  0.2627 -0.4169 -0.2833
 9346TIP3    H127960   7.069   6.608   3.246 -0.1077 -0.7173  0.4431
 9346TIP3    H227961   7.135   6.736   3.292  0.6243 -0.4330 -1.3541
 9347TIP3   OH227962   0.860   5.919   3.299  0.2699  0.2653  0.5622
 9347TIP3    H127963   0.841   5.869   3.220  2.4324 -0.0155  0.1940
 9347TIP3    H227964   0.807   5.877   3.367 -2.0018  0.8372 -0.8023
 9348TIP3   OH227965   0.166   7.045   4.041  0.3981 -0.3516 -0.2880
 9348TIP3    H127966   0.110   6.981   4.084 -0.1649  0.5658  0.3452
 9348TIP3    H227967   0.172   7.118   4.102  0.5756  0.4534 -1.2482
 9349TIP3   OH227968   7.518   7.780   4.568  0.5278 -0.1046  0.6374
 9349TIP3    H127969   7.566   7.842   4.623 -1.1470  0.8633  1.0673
 9349TIP3    H227970   7.439   7.828   4.543  0.4703 -1.1372 -1.2357
 9350TIP3   OH227971   7.026   6.381   3.984 -0.2050 -0.3719 -0.0874
 9350TIP3    H127972   6.959   6.447   3.968  0.8059  0.7240  0.1216
 9350TIP3    H227973   6.978   6.298   3.988 -1.6379  0.4762  0.7936
 9351TIP3   OH227974   1.933   0.137   2.110 -0.3373 -0.2361  0.2216
 9351TIP3    H127975   1.961   0.073   2.176 -0.2531 -0.9478 -0.4974
 9351TIP3    H227976   1.839   0.147   2.125 -0.2621 -0.1691  0.6452
 9352TIP3   OH227977   5.568   5.388   3.027 -0.6876 -0.2909  0.2298
 9352TIP3    H127978   5.607   5.365   2.943 -0.1414 -0.9274  0.6564
 9352TIP3    H227979   5.624   5.346   3.093  0.2027  2.0607  1.0142
 9353TIP3   OH227980   6.472   6.568   2.276 -0.4447  0.2967 -0.1847
 9353TIP3    H127981   6.495   6.561   2.183 -0.0138  0.8562 -0.1265
 9353TIP3    H227982   6.403   6.634   2.278 -0.6030  0.1299 -0.1278
 9354TIP3   OH227983   8.125   1.146   3.679  0.4006 -0.3146 -0.0565
 9354TIP3    H127984   8.192   1.081   3.699 -1.1657 -1.8536  0.3977
 9354TIP3    H227985   8.094   1.122   3.592  0.5855  0.5142 -0.3494
 9355TIP3   OH227986   8.191   7.557   2.928  0.0161 -0.2465  0.1561
 9355TIP3    H127987   8.250   7.575   2.855  3.9704 -2.6047  2.5846
 9355TIP3    H227988   8.216   7.619   2.996  0.6567 -2.1372  1.6980
 9356TIP3   OH227989   0.147   5.140   1.285  0.7579  0.4804 -0.1326
 9356TIP3    H127990   0.189   5.085   1.351  1.6240  1.3654  0.0711
 9356TIP3    H227991   0.064   5.097   1.267  0.7663 -0.0764  1.1253
 9357TIP3   OH227992   6.601   5.838   3.794  0.3864 -0.0999 -0.0413
 9357TIP3    H127993   6.673   5.895   3.819 -0.1853  0.9956 -0.8641
 9357TIP3    H227994   6.565   5.878   3.715 -0.2866 -1.3671 -0.3887
 9358TIP3   OH227995   7.758   0.392   0.929 -0.3747  0.2114 -0.7880
 9358TIP3    H127996   7.770   0.403   1.024  1.1775  2.1687 -1.2040
 9358TIP3    H227997   7.664   0.377   0.919 -0.5416 -0.1367  1.0729
 9359TIP3   OH227998   3.209   0.394   2.259 -0.2567  0.3165  0.1736
 9359TIP3    H127999   3.179   0.440   2.181  2.1718 -0.4109 -1.2544
 9359TIP3    H228000   3.189   0.302   2.240  2.5178 -0.1490 -0.7033
 9360TIP3   OH228001   1.623   0.613   1.195  0.0255  0.1528  0.3325
 9360TIP3    H128002   1.695   0.613   1.258  2.3853  0.1152 -2.2517
 9360TIP3    H228003   1.623   0.525   1.158 -0.9284  0.3670 -0.1924
 9361TIP3   OH228004   1.811   0.822   0.461  0.5494  0.2910  0.1517
 9361TIP3    H128005   1.742   0.799   0.399  0.1944  2.4077 -0.2704
 9361TIP3    H228006   1.880   0.756   0.445 -1.4622 -2.0659  0.8422
 9362TIP3   OH228007   8.337   4.732   1.728  0.3748 -0.0360  0.4181
 9362TIP3    H128008   8.389   4.788   1.670  0.6128 -1.3878 -0.6910
 9362TIP3    H228009   8.256   4.714   1.679  0.3069 -0.6736  0.7562
 9363TIP3   OH228010   1.987   1.112   2.581 -0.8670  0.2902 -0.0271
 9363TIP3    H128011   1.951   1.059   2.510  0.0287 -0.7226  0.2512
 9363TIP3    H228012   2.044   1.175   2.537 -1.1110  0.3301 -0.2862
 9364TIP3   OH228013   1.008   1.060   3.957  0.3990 -0.0375 -0.2057
 9364TIP3    H128014   1.006   1.043   3.863  0.6087 -2.7470  0.2531
 9364TIP3    H228015   0.922   1.034   3.988  1.4812 -2.5192  0.8590
 9365TIP3   OH228016   5.814   8.188   3.710 -0.1240 -0.4606 -0.2000
 9365TIP3    H128017   5.858   8.116   3.665 -2.2556  0.0349 -3.2132
 9365TIP3    H228018   5.882   8.256   3.716  1.0123 -1.5827 -0.0830
 9366TIP3   OH228019   8.059   6.752   1.861  0.2818 -0.2090 -0.0080
 9366TIP3    H128020   8.063   6.754   1.766  2.4976 -1.9444  0.0123
 9366TIP3    H228021   8.116   6.824   1.889 -0.7844  0.6374  0.0264
 9367TIP3   OH228022   5.571   6.862   2.425 -0.3281 -0.0209  0.0403
 9367TIP3    H128023   5.521   6.936   2.390 -0.4489 -0.9734 -1.8371
 9367TIP3    H228024   5.662   6.884   2.405 -0.2625  0.1590  0.5270
 9368TIP3   OH228025   8.108   7.771   3.133 -0.1105  0.1540  0.0124
 9368TIP3    H128026   8.159   7.851   3.121  0.1935  0.1708  1.4199
 9368TIP3    H228027   8.154   7.723   3.201  0.4442 -1.8436 -1.7191
 9369TIP3   OH228028   2.933   1.372   2.520 -0.5874 -0.0689  0.2683
 9369TIP3    H128029   2.859   1.330   2.475 -0.1404  0.1204 -0.6467
 9369TIP3    H228030   2.952   1.314   2.593 -2.4536  0.5100  1.2626
 9370TIP3   OH228031   7.228   5.207   3.498 -0.3096  0.0295  0.6271
 9370TIP3    H128032   7.307   5.157   3.476 -0.0829  0.7645 -0.2740
 9370TIP3    H228033   7.186   5.157   3.568  0.7721 -0.5565  0.8661
 9371TIP3   OH228034   7.117   8.268   0.385 -0.1544 -0.1282  0.4061
 9371TIP3    H128035   7.022   8.258   0.394 -0.5470  1.4028 -1.7448
 9371TIP3    H228036   7.141   8.334   0.450 -0.5585 -0.4693  0.9060
 9372TIP3   OH228037   7.263   6.176   1.822 -0.3610 -0.1347 -0.1549
 9372TIP3    H128038   7.197   6.107   1.832  0.2011 -0.5562  0.6464
 9372TIP3    H228039   7.283   6.203   1.912  2.3892 -1.7316 -0.2358
 9373TIP3   OH228040   0.560   0.062   5.057  0.1091  0.0226 -0.1446
 9373TIP3    H128041   0.535   0.068   5.149 -0.4552 -0.4854 -0.2604
 9373TIP3    H228042   0.516   0.135   5.014 -0.9416 -0.6890 -0.2938
 9374TIP3   OH228043   5.971   8.069   1.817  0.6129  0.1084  0.1578
 9374TIP3    H128044   6.037   8.100   1.755  1.1860 -0.1527  0.6260
 9374TIP3    H228045   6.016   8.001   1.867 -0.1388 -0.3432  0.2157
 9375TIP3   OH228046   8.686   8.134   3.082 -0.0976  0.1284 -0.6818
 9375TIP3    H128047   8.617   8.194   3.110 -0.3438  0.3149 -1.6707
 9375TIP3    H228048   8.742   8.187   3.025  0.9181 -0.0003  0.2089
 9376TIP3   OH228049   0.300   5.809   4.357 -0.5033 -0.2380  0.0184
 9376TIP3    H128050   0.276   5.738   4.416 -0.0944  0.8655  1.5647
 9376TIP3    H228051   0.227   5.815   4.296 -0.6811 -1.7777  0.0594
 9377TIP3   OH228052   1.329   0.870   2.728 -0.6796 -0.2331 -0.2468
 9377TIP3    H128053   1.323   0.954   2.774  0.1815  0.4590 -1.3629
 9377TIP3    H228054   1.411   0.831   2.761 -0.7997 -0.3863 -0.1303
 9378TIP3   OH228055   5.074   7.816   3.081 -0.5440 -0.7354 -0.3884
 9378TIP3    H128056   5.112   7.765   3.153  0.6714  0.0554 -0.4412
 9378TIP3    H228057   5.030   7.889   3.125  1.0605  0.3069 -0.4620
 9379TIP3   OH228058   5.659   6.678   2.167 -0.5986  0.1981  0.2235
 9379TIP3    H128059   5.689   6.727   2.243 -1.8205  2.0985 -0.4975
 9379TIP3    H228060   5.682   6.587   2.187  0.0798  0.8086  2.3560
 9380TIP3   OH228061   2.568   0.009   2.009  0.5012  0.1552 -0.2524
 9380TIP3    H128062   2.646   0.060   1.990  0.9115  0.6997  2.6411
 9380TIP3    H228063   2.565   0.004   2.104 -3.4186  0.8281 -0.2402
 9381TIP3   OH228064   6.858   8.100   4.296  0.3319 -0.0379  0.3838
 9381TIP3    H128065   6.803   8.045   4.353  0.1009 -0.5994 -0.3711
 9381TIP3    H228066   6.801   8.172   4.270 -0.7502 -1.6917 -2.0604
 9382TIP3   OH228067   7.185   7.747   1.534 -0.0642 -0.2454  0.1961
 9382TIP3    H128068   7.215   7.756   1.444  1.5195 -0.2064  0.7129
 9382TIP3    H228069   7.137   7.828   1.551  0.8856  0.4060 -0.1536
 9383TIP3   OH228070   1.230   0.262   3.052  0.2797  0.1503 -0.3368
 9383TIP3    H128071   1.225   0.167   3.059  3.1597  0.0583  1.2075
 9383TIP3    H228072   1.204   0.294   3.138  1.6916  0.6258 -0.0717
 9384TIP3   OH228073   8.307   8.142   1.834 -0.2819  0.0917 -0.2759
 9384TIP3    H128074   8.357   8.206   1.784  0.6504 -0.0053  0.5222
 9384TIP3    H228075   8.236   8.192   1.872  0.0764  0.5268 -0.1748
 9385TIP3   OH228076   7.565   0.446   3.922 -0.0156  0.5315  0.4673
 9385TIP3    H128077   7.559   0.355   3.949 -2.3548  0.6168  0.3331
 9385TIP3    H228078   7.548   0.496   4.002 -1.2465  0.8186  0.0336
 9386TIP3   OH228079   0.903   6.685   3.543  0.2586 -0.3342 -0.4748
 9386TIP3    H128080   0.870   6.669   3.455  0.5258 -0.9123 -0.4738
 9386TIP3    H228081   0.842   6.639   3.601 -0.3010  0.6026 -0.3067
 9387TIP3   OH228082   6.924   8.324   4.033  0.0393  0.2972  0.3055
 9387TIP3    H128083   6.932   8.318   4.128 -1.9452 -0.3431  0.4584
 9387TIP3    H228084   6.934   8.233   4.002  0.9204  0.5349 -0.1262
 9388TIP3   OH228085   6.937   5.504   2.963 -0.8046  0.5245 -0.0272
 9388TIP3    H128086   6.941   5.589   3.007  0.3741  0.5857 -0.2425
 9388TIP3    H228087   6.893   5.447   3.027  1.5225  0.4294  1.5484
 9389TIP3   OH228088   7.085   6.906   2.633 -0.2885  0.5202 -0.0012
 9389TIP3    H128089   7.143   6.865   2.569  1.7681  2.1895  0.7402
 9389TIP3    H228090   7.120   6.880   2.718  0.8124  3.4048  0.4775
 9390TIP3   OH228091   7.601   7.774   3.120  0.5623  0.1386 -0.1952
 9390TIP3    H128092   7.527   7.833   3.132  1.6520  1.4718  0.2229
 9390TIP3    H228093   7.581   7.725   3.041 -0.8288  0.3802  0.0060
 9391TIP3   OH228094   6.922   5.788   2.372 -0.6119 -0.1037 -0.0649
 9391TIP3    H128095   6.981   5.864   2.377  0.3892 -0.7828 -1.1718
 9391TIP3    H228096   6.918   5.755   2.462 -1.4479  1.5319  0.5264
 9392TIP3   OH228097   5.845   6.473   0.974  0.2114 -0.4782  0.4040
 9392TIP3    H128098   5.926   6.474   0.922  0.7545  0.7194  1.2439
 9392TIP3    H228099   5.821   6.565   0.983  0.4308 -0.6024  2.7228
 9393TIP3   OH228100   5.043   4.552   1.863 -0.6875 -1.2454 -0.4356
 9393TIP3    H128101   5.110   4.593   1.918  0.1533 -2.6193 -0.4091
 9393TIP3    H228102   4.974   4.526   1.925 -0.9831 -0.3912 -0.3873
 9394TIP3   OH228103   6.989   5.689   3.472 -0.5063  0.1059  0.5683
 9394TIP3    H128104   7.063   5.749   3.472 -0.1039 -0.3613  1.7339
 9394TIP3    H228105   6.930   5.723   3.405 -0.1857  1.6556  1.0542
 9395TIP3   OH228106   8.083   6.827   3.623 -0.1285  0.2113 -0.0374
 9395TIP3    H128107   8.161   6.774   3.607  0.0464  0.8857 -1.4634
 9395TIP3    H228108   8.011   6.776   3.589 -0.2405 -0.1283  0.6981
 9396TIP3   OH228109   0.018   7.762   5.195 -0.3708  0.0636  0.3687
 9396TIP3    H128110   0.056   7.679   5.222 -0.5705 -0.0650  0.2495
 9396TIP3    H228111   0.084   7.801   5.137 -0.5669 -0.3144 -0.1094
 9397TIP3   OH228112   0.608   7.009   0.564 -0.3298 -0.0142  0.2315
 9397TIP3    H128113   0.700   7.036   0.569 -0.1933 -0.3054 -0.5989
 9397TIP3    H228114   0.562   7.085   0.528 -0.6025  0.5340  1.7172
 9398TIP3   OH228115   8.281   8.309   3.845 -0.2728 -0.2701 -0.2973
 9398TIP3    H128116   8.217   8.377   3.868 -0.4637 -0.2933 -0.7744
 9398TIP3    H228117   8.237   8.255   3.780 -0.7483 -1.8705  1.3243
 9399TIP3   OH228118   5.554   7.823   2.824 -0.1320 -0.0066 -0.1956
 9399TIP3    H128119   5.603   7.867   2.755  1.3882 -1.3708 -0.0041
 9399TIP3    H228120   5.537   7.735   2.790  2.1589 -1.2878  1.8029
 9400TIP3   OH228121   6.351   6.934   1.813  0.4275  0.3315 -0.5709
 9400TIP3    H128122   6.334   6.971   1.727  2.3856  0.4402 -0.9455
 9400TIP3    H228123   6.442   6.903   1.808  0.4999  0.1522  1.3815
 9401TIP3   OH228124   0.163   6.233   1.540  0.5971  0.5707  0.9182
 9401TIP3    H128125   0.105   6.303   1.571  0.0897  0.2168  0.7778
 9401TIP3    H228126   0.234   6.230   1.604  0.3558  0.8730  1.2001
 9402TIP3   OH228127   8.741   6.460   4.011  0.5825 -0.3540 -0.0471
 9402TIP3    H128128   8.746   6.486   3.919  1.5821  1.8724  0.5858
 9402TIP3    H228129   8.664   6.506   4.044  0.9603 -0.1279  0.5250
 9403TIP3   OH228130   7.482   6.408   3.713 -0.1104 -0.4237  0.1251
 9403TIP3    H128131   7.401   6.358   3.709  0.4648 -1.5134  1.4795
 9403TIP3    H228132   7.538   6.358   3.773  1.9121 -0.2123 -1.5249
 9404TIP3   OH228133   6.396   6.369   3.494  0.0790 -0.0561 -0.2753
 9404TIP3    H128134   6.465   6.434   3.487  0.1453 -0.2130 -1.0613
 9404TIP3    H228135   6.394   6.326   3.409  1.7043 -2.7545  0.9881
 9405TIP3   OH228136   8.110   7.632   2.574 -0.1617  0.2520 -0.0189
 9405TIP3    H128137   8.135   7.548   2.535  1.2189  1.2073 -1.2411
 9405TIP3    H228138   8.180   7.651   2.636 -1.2003 -0.1618  1.3112
 9406TIP3   OH228139   3.262   0.419   4.453 -0.5018  0.1517 -0.2191
 9406TIP3    H128140   3.207   0.450   4.525 -0.7081 -0.0049 -0.3061
 9406TIP3    H228141   3.337   0.477   4.453 -0.1011 -0.3562  0.6494
 9407TIP3   OH228142   5.353   5.669   4.353 -0.0861 -0.2112 -0.5955
 9407TIP3    H128143   5.344   5.622   4.436 -1.4235 -0.1263 -0.6822
 9407TIP3    H228144   5.294   5.623   4.293 -2.2213  2.1419 -0.4146
 9408TIP3   OH228145   8.026   8.165   3.024 -0.3006 -0.4238  0.3038
 9408TIP3    H128146   8.038   8.171   2.929 -1.0496  0.9714  0.2807
 9408TIP3    H228147   8.098   8.109   3.054  2.3695  2.3951 -0.6089
 9409TIP3   OH228148   8.858   7.785   4.156 -0.1907  0.1482 -0.0042
 9409TIP3    H128149   8.917   7.721   4.197  0.9533  0.7798 -0.6436
 9409TIP3    H228150   8.826   7.837   4.230 -2.9963 -2.6142  0.8336
 9410TIP3   OH228151   7.202   5.589   2.191  0.0303  0.1231  0.4216
 9410TIP3    H128152   7.251   5.609   2.270 -0.1508 -0.4544  0.6756
 9410TIP3    H228153   7.219   5.664   2.133 -0.5226  0.9506  1.3202
 9411TIP3   OH228154   7.227   5.460   3.581 -0.0069  0.5395  0.2708
 9411TIP3    H128155   7.229   5.371   3.544  0.5299  0.1084  1.3115
 9411TIP3    H228156   7.134   5.479   3.591 -0.2579  1.5350 -3.2966
 9412TIP3   OH228157   5.859   6.848   3.923 -0.2531 -0.3638  0.3801
 9412TIP3    H128158   5.892   6.832   4.011  0.5086 -0.2873  0.1108
 9412TIP3    H228159   5.769   6.878   3.936 -0.1697 -0.4377  1.1251
 9413TIP3   OH228160   7.832   7.348   1.847  0.8033 -0.0750  0.2084
 9413TIP3    H128161   7.807   7.331   1.756  0.8540  1.1021 -0.0398
 9413TIP3    H228162   7.877   7.433   1.844 -0.6220  0.7508  1.5655
 9414TIP3   OH228163   7.404   8.213   2.197  0.1640  0.2210 -0.5952
 9414TIP3    H128164   7.478   8.273   2.191  1.9736 -1.8438  0.3290
 9414TIP3    H228165   7.376   8.220   2.289  1.1726 -1.2242 -0.1622
 9415TIP3   OH228166   7.406   4.585   2.215 -0.1101 -0.2858 -0.2226
 9415TIP3    H128167   7.441   4.665   2.256  0.9090 -0.6845 -0.2992
 9415TIP3    H228168   7.319   4.574   2.254  0.9770 -0.8568  2.1084
 9416TIP3   OH228169   6.378   6.391   4.468 -0.0984 -0.0472 -0.2727
 9416TIP3    H128170   6.312   6.456   4.493 -0.1831 -0.4269  0.5391
 9416TIP3    H228171   6.394   6.406   4.375  0.8745  2.0366  0.1921
 9417TIP3   OH228172   6.680   6.148   1.842  0.3827 -0.3396 -0.2256
 9417TIP3    H128173   6.754   6.206   1.858 -1.3842  1.0771  3.4345
 9417TIP3    H228174   6.622   6.198   1.784  0.7829 -0.1568 -0.4716
 9418TIP3   OH228175   7.176   7.512   2.934  0.4581  0.4195 -0.4091
 9418TIP3    H128176   7.129   7.434   2.965 -0.8449  1.5565  0.5781
 9418TIP3    H228177   7.202   7.491   2.844 -0.0935 -1.0506 -0.2353
 9419TIP3   OH228178   8.827   1.035   3.986  0.2653 -0.4999 -0.1542
 9419TIP3    H128179   8.865   1.035   3.898  1.0295 -0.2774  0.1718
 9419TIP3    H228180   8.863   1.113   4.028  2.4338 -2.2928  1.4193
 9420TIP3   OH228181   5.703   7.430   3.470 -0.3110  1.0426  0.0913
 9420TIP3    H128182   5.767   7.490   3.432  0.7082  0.1131  0.3040
 9420TIP3    H228183   5.618   7.470   3.452  0.2970  1.9448 -0.8019
 9421TIP3   OH228184   0.983   6.818   4.983  0.2404 -0.1318 -0.2428
 9421TIP3    H128185   1.075   6.823   4.956 -0.2765  1.7153 -1.7859
 9421TIP3    H228186   0.936   6.793   4.903 -0.5267 -2.0378  0.7620
 9422TIP3   OH228187   6.767   5.045   2.700 -0.3103  0.1832  0.3766
 9422TIP3    H128188   6.676   5.019   2.710  0.1158 -2.0714 -1.2627
 9422TIP3    H228189   6.806   5.028   2.786 -0.7147 -1.9160  0.1625
 9423TIP3   OH228190   6.501   8.106   2.497  0.0662 -0.1912  0.0952
 9423TIP3    H128191   6.452   8.059   2.565 -0.3992  0.1167 -0.0305
 9423TIP3    H228192   6.434   8.148   2.443  0.5096  0.9787  0.4623
 9424TIP3   OH228193   2.456   0.823   2.304  0.1053 -0.5151  0.0045
 9424TIP3    H128194   2.467   0.910   2.265  0.5047  1.1005  3.5716
 9424TIP3    H228195   2.362   0.808   2.300  0.2939 -1.3273 -3.3819
 9425TIP3   OH228196   1.056   0.566   3.155  0.4726 -0.0826 -0.3297
 9425TIP3    H128197   1.026   0.653   3.127 -0.5529  0.0981  1.2630
 9425TIP3    H228198   1.151   0.569   3.143  0.2884  0.7075 -1.7685
 9426TIP3   OH228199   2.956   2.404   2.955 -0.0656 -0.3014 -0.1419
 9426TIP3    H128200   3.002   2.488   2.963 -2.8409  1.4279 -1.2929
 9426TIP3    H228201   2.977   2.375   2.866  0.7298 -0.7384  0.1842
 9427TIP3   OH228202   6.400   6.893   4.823 -0.0206 -0.3099  0.0906
 9427TIP3    H128203   6.470   6.853   4.771  2.2880  1.0006  2.0987
 9427TIP3    H228204   6.399   6.842   4.905 -0.3661  0.6420  0.6809
 9428TIP3   OH228205   6.875   6.179   2.375 -0.1261  0.1212 -0.6628
 9428TIP3    H128206   6.920   6.251   2.330 -0.5944  1.0546  0.3535
 9428TIP3    H228207   6.937   6.106   2.372  0.9983  1.0589 -0.2560
 9429TIP3   OH228208   7.431   7.008   2.588  0.3458 -0.2677 -0.3720
 9429TIP3    H128209   7.370   6.934   2.589  0.0361 -0.0283 -1.2582
 9429TIP3    H228210   7.517   6.968   2.581  0.2814 -0.6027  0.6829
 9430TIP3   OH228211   8.604   7.646   4.210  0.8083  0.3420 -0.1668
 9430TIP3    H128212   8.684   7.693   4.190  0.6906  1.5662  2.0261
 9430TIP3    H228213   8.535   7.711   4.203  0.2736 -0.2000 -0.0068
 9431TIP3   OH228214   6.596   5.627   3.161 -0.0917 -0.3795  0.5709
 9431TIP3    H128215   6.500   5.627   3.162 -0.1257  1.8156 -0.4400
 9431TIP3    H228216   6.620   5.557   3.100 -1.0354 -1.0341  0.9446
 9432TIP3   OH228217   7.909   7.825   2.714 -0.0360 -0.0658 -0.4670
 9432TIP3    H128218   7.948   7.891   2.657  1.2930 -0.5593 -0.1515
 9432TIP3    H228219   7.965   7.748   2.703 -0.9240 -0.7947  0.0058
 9433TIP3   OH228220   1.916   1.255   3.634  0.6076  0.2757 -0.6467
 9433TIP3    H128221   1.974   1.187   3.598  1.4422  0.4185  0.4014
 9433TIP3    H228222   1.971   1.333   3.637  0.7844  0.1085  1.5564
 9434TIP3   OH228223   6.765   7.732   3.397  0.0094  0.7268 -0.0356
 9434TIP3    H128224   6.672   7.711   3.395  0.1642  0.1159 -1.7474
 9434TIP3    H228225   6.804   7.662   3.450 -0.1171 -0.7636 -1.8481
 9435TIP3   OH228226   7.441   8.041   1.253 -0.0085 -0.4318  0.1219
 9435TIP3    H128227   7.410   8.131   1.265  0.1799 -0.0631 -1.9876
 9435TIP3    H228228   7.518   8.050   1.197 -0.6447 -1.9973 -1.0261
 9436TIP3   OH228229   7.302   8.274   1.329  0.0834 -0.6716  0.0221
 9436TIP3    H128230   7.312   8.326   1.408  4.1406 -1.2488 -0.0234
 9436TIP3    H228231   7.286   8.338   1.259  0.5927  0.1383  0.6519
 9437TIP3   OH228232   4.944   5.804   0.701 -0.4957  0.6853  0.3211
 9437TIP3    H128233   5.019   5.749   0.681 -1.3708 -0.2983 -0.3100
 9437TIP3    H228234   4.975   5.893   0.686  0.2800  0.2347 -0.8267
 9438TIP3   OH228235   7.189   6.585   2.911 -0.6686 -0.6833  0.3753
 9438TIP3    H128236   7.184   6.635   2.992 -0.2478 -2.3721  1.4468
 9438TIP3    H228237   7.283   6.585   2.889 -0.9138  0.8215 -0.8030
 9439TIP3   OH228238   6.022   5.755   2.308 -0.1120  0.0939  0.2553
 9439TIP3    H128239   6.106   5.727   2.273 -1.3093 -0.7491 -2.1184
 9439TIP3    H228240   5.975   5.674   2.327 -1.1755  0.5081 -0.4926
 9440TIP3   OH228241   0.848   7.212   4.346 -0.4558  0.5965 -0.3502
 9440TIP3    H128242   0.778   7.273   4.323 -0.1684  2.0182  2.2791
 9440TIP3    H228243   0.928   7.254   4.314 -0.5225  0.3612 -0.8202
 9441TIP3   OH228244   8.253   5.525   3.677  0.2508  0.2973  0.3202
 9441TIP3    H128245   8.349   5.526   3.680  0.2860  0.0461 -0.5379
 9441TIP3    H228246   8.232   5.445   3.628 -0.4083  0.1033  0.9204
 9442TIP3   OH228247   0.158   0.567   4.887  0.2175  0.2867  0.7526
 9442TIP3    H128248   0.066   0.576   4.910  0.1066  1.1839 -0.0279
 9442TIP3    H228249   0.206   0.596   4.964 -0.1543  0.7548  0.8057
 9443TIP3   OH228250   7.922   5.495   2.843 -0.5233  0.0012  1.1474
 9443TIP3    H128251   8.007   5.519   2.880 -0.3070  0.1446  0.5665
 9443TIP3    H228252   7.862   5.564   2.873 -0.1936  0.5251  0.6326
 9444TIP3   OH228253   4.534  -0.002   2.971  0.2025  0.2486  0.4543
 9444TIP3    H128254   4.456  -0.025   3.022 -0.4685 -0.0537 -0.6939
 9444TIP3    H228255   4.596   0.031   3.036 -0.2686 -1.0844  1.6010
 9445TIP3   OH228256   7.994   4.681   2.650 -0.0043 -0.4725  0.1313
 9445TIP3    H128257   8.036   4.725   2.724  0.3190 -0.0780 -0.2770
 9445TIP3    H228258   7.931   4.621   2.690  0.9704 -1.0933  0.7627
 9446TIP3   OH228259   6.658   6.164   3.424  0.3275  0.0829  0.1101
 9446TIP3    H128260   6.744   6.143   3.461  0.0757 -1.8319 -0.2993
 9446TIP3    H228261   6.628   6.239   3.474  2.1552  0.6532  0.3936
 9447TIP3   OH228262   7.683   6.447   3.517 -0.0297 -0.3780 -0.2128
 9447TIP3    H128263   7.739   6.396   3.576  1.4128  0.3543 -0.9049
 9447TIP3    H228264   7.597   6.445   3.558  0.6178 -1.0948  1.1650
 9448TIP3   OH228265   7.766   6.021   3.204 -0.2030 -0.5656  0.2168
 9448TIP3    H128266   7.691   5.961   3.210 -0.8430  0.4676  3.1877
 9448TIP3    H228267   7.731   6.096   3.155 -1.0626 -0.1878  1.3866
 9449TIP3   OH228268   6.990   8.005   4.969  0.5098  0.2728  0.2608
 9449TIP3    H128269   6.953   8.045   5.047  0.4539  2.2384 -0.7367
 9449TIP3    H228270   7.016   8.079   4.914 -0.5018 -1.0348 -2.0701
 9450TIP3   OH228271   8.114   6.112   4.126  0.2573 -0.1272  0.1536
 9450TIP3    H128272   8.063   6.190   4.144  0.8080 -0.0179  1.2923
 9450TIP3    H228273   8.082   6.081   4.041 -3.3119 -1.3795  1.8768
 9451TIP3   OH228274   0.120   6.700   3.373  0.1445 -0.0534  0.5072
 9451TIP3    H128275   0.087   6.710   3.284 -0.1132  1.5157  0.7517
 9451TIP3    H228276   0.142   6.608   3.381 -0.6084 -0.3701 -0.9139
 9452TIP3   OH228277   6.775   5.721   5.312  0.0303 -0.1893  0.0534
 9452TIP3    H128278   6.791   5.813   5.335 -0.4333  0.2177 -1.2226
 9452TIP3    H228279   6.680   5.714   5.306  0.1344 -0.2303 -1.8944
 9453TIP3   OH228280   6.405   8.136   3.457 -0.1933  0.4892  0.5227
 9453TIP3    H128281   6.440   8.070   3.517  0.0158 -1.6600 -1.8919
 9453TIP3    H228282   6.320   8.101   3.430  0.2712  0.8123 -1.3922
 9454TIP3   OH228283   6.714   7.454   4.068  0.3142  0.9483  0.5456
 9454TIP3    H128284   6.639   7.502   4.035 -1.0234 -0.9440  0.7793
 9454TIP3    H228285   6.737   7.497   4.150 -2.1082  0.0020  1.7604
 9455TIP3   OH228286   4.908   8.362   4.466 -0.8057 -0.2597 -0.4102
 9455TIP3    H128287   4.833   8.421   4.459  0.3154  1.6634  2.9795
 9455TIP3    H228288   4.956   8.375   4.384 -2.6705  0.5034 -1.4268
 9456TIP3   OH228289   8.609   7.381   3.169 -0.1457  0.1053 -0.1180
 9456TIP3    H128290   8.669   7.430   3.225 -0.8141 -0.0116  0.7036
 9456TIP3    H228291   8.648   7.385   3.082  0.3725  1.1587  0.1658
 9457TIP3   OH228292   4.487   0.545   2.887 -0.0837 -0.1964 -0.2444
 9457TIP3    H128293   4.530   0.483   2.946 -1.0251 -0.4015  0.2244
 9457TIP3    H228294   4.472   0.623   2.941 -1.2934 -0.5225 -0.0966
 9458TIP3   OH228295   1.684   0.031   2.682 -0.2171  0.3054  0.2471
 9458TIP3    H128296   1.606   0.029   2.626  2.0781 -0.8981 -2.9740
 9458TIP3    H228297   1.663  -0.029   2.754 -0.9358 -2.8402 -2.4784
 9459TIP3   OH228298   7.695   7.420   1.293 -0.7057 -0.1858 -0.0644
 9459TIP3    H128299   7.617   7.382   1.253  0.6358 -2.0103 -1.0006
 9459TIP3    H228300   7.767   7.393   1.236  0.8066  0.1263  1.6674
 9460TIP3   OH228301   1.899   0.453   4.081 -0.0321  0.3093 -0.1684
 9460TIP3    H128302   1.936   0.378   4.034 -0.7796  0.3489 -0.8134
 9460TIP3    H228303   1.892   0.422   4.172  1.3361  0.2121 -0.0849
 9461TIP3   OH228304   0.295   0.293   1.051  0.0079  1.1706  0.1046
 9461TIP3    H128305   0.204   0.313   1.029 -1.0646 -2.3271  1.0131
 9461TIP3    H228306   0.306   0.324   1.141 -1.7931 -2.5176  1.7017
 9462TIP3   OH228307   8.773   7.743   1.591  0.5739  0.3634  0.4766
 9462TIP3    H128308   8.764   7.808   1.522 -0.9947 -0.4072 -0.0790
 9462TIP3    H228309   8.735   7.663   1.554  1.9084 -0.7167  1.3602
 9463TIP3   OH228310   6.864   5.624   3.888 -0.1245 -0.5124  0.1275
 9463TIP3    H128311   6.859   5.653   3.979 -1.2772 -1.4455  0.3751
 9463TIP3    H228312   6.900   5.699   3.841 -0.3074  0.2738  1.2140
 9464TIP3   OH228313   6.198   7.882   1.747  0.1226  0.3412 -0.2329
 9464TIP3    H128314   6.171   7.847   1.832 -1.2303 -1.1476 -1.2173
 9464TIP3    H228315   6.208   7.804   1.692  0.9186  1.2885 -1.4456
 9465TIP3   OH228316   7.216   7.932   2.962 -0.0895 -0.2071  0.5682
 9465TIP3    H128317   7.294   7.958   2.913  1.3087 -0.9903  2.3304
 9465TIP3    H228318   7.246   7.863   3.021 -1.5124  1.3332  3.2062
 9466TIP3   OH228319   3.587   0.251   2.874 -0.1958 -0.4250 -0.1319
 9466TIP3    H128320   3.562   0.259   2.966  2.1989 -0.7524  0.5875
 9466TIP3    H228321   3.541   0.323   2.831  0.0207  0.8216  1.6297
 9467TIP3   OH228322   0.473   6.285   2.387  0.1311  0.4250 -0.2537
 9467TIP3    H128323   0.429   6.368   2.406 -2.4639 -1.0458  0.2907
 9467TIP3    H228324   0.419   6.244   2.320  1.1674 -1.0380 -0.2089
 9468TIP3   OH228325   7.875   6.900   1.628  0.1213 -0.2098  0.1288
 9468TIP3    H128326   7.868   6.921   1.721  1.1358  0.4534  0.0686
 9468TIP3    H228327   7.950   6.951   1.598 -1.3593  1.0848 -1.4810
 9469TIP3   OH228328   8.775   7.913   4.389 -0.2882  0.6003 -0.1401
 9469TIP3    H128329   8.789   7.839   4.448  0.8201 -1.4478 -2.8435
 9469TIP3    H228330   8.696   7.955   4.422 -0.6865 -1.5447  1.7579
 9470TIP3   OH228331   4.997   7.203   4.077  0.0916  0.4197 -0.7336
 9470TIP3    H128332   4.991   7.164   4.165  0.0427  0.1847 -0.8389
 9470TIP3    H228333   5.088   7.188   4.051  0.4201  1.5455 -0.2462
 9471TIP3   OH228334   0.839   0.832   6.445 -0.4796 -0.1981  0.0183
 9471TIP3    H128335   0.801   0.824   6.533 -2.7047 -1.6957 -1.0395
 9471TIP3    H228336   0.857   0.742   6.419  1.8886  0.3709 -0.3477
 9472TIP3   OH228337   7.548   6.204   2.552  0.0242 -0.2501 -0.7256
 9472TIP3    H128338   7.504   6.137   2.498  1.6861 -1.8615 -0.1388
 9472TIP3    H228339   7.562   6.160   2.636 -0.1530  1.3561  0.1528
 9473TIP3   OH228340   0.357   0.077   4.389 -0.3952  0.1442  0.1689
 9473TIP3    H128341   0.416   0.010   4.356 -1.2916 -1.5298  1.8237
 9473TIP3    H228342   0.271   0.034   4.391 -0.8648  1.0905  1.8572
 9474TIP3   OH228343   6.327   6.450   2.944 -0.2891  0.0953 -0.0436
 9474TIP3    H128344   6.264   6.520   2.961 -1.4951 -0.6344 -1.3793
 9474TIP3    H228345   6.367   6.473   2.860  2.2024  1.2313  1.4070
 9475TIP3   OH228346   7.971   6.943   5.189  0.3693 -0.1422  0.1258
 9475TIP3    H128347   7.976   7.030   5.227 -3.0544  0.5270 -0.7880
 9475TIP3    H228348   7.975   6.883   5.263  2.2404  0.7645  0.7904
 9476TIP3   OH228349   5.140   6.895   4.236  0.3209  0.2882 -0.1172
 9476TIP3    H128350   5.106   6.851   4.314 -0.9404 -0.1923 -0.9241
 9476TIP3    H228351   5.235   6.897   4.249  0.0071  1.7760  2.2449
 9477TIP3   OH228352   6.208   7.427   2.638 -0.1390 -0.5840  0.1908
 9477TIP3    H128353   6.280   7.443   2.700  0.3209 -2.0998  0.0576
 9477TIP3    H228354   6.219   7.495   2.571 -0.3356  0.7589  1.4761
 9478TIP3   OH228355   0.143   7.503   5.200  0.4083  0.0568  0.1060
 9478TIP3    H128356   0.123   7.410   5.200  0.2429  0.0694 -2.4009
 9478TIP3    H228357   0.232   7.508   5.166  0.5704  0.7829  0.6306
 9479TIP3   OH228358   6.818   5.742   4.244  0.2136  0.1850 -0.7811
 9479TIP3    H128359   6.847   5.830   4.222  0.3096 -0.2489 -2.4685
 9479TIP3    H228360   6.724   5.741   4.226 -0.0857  0.3874  0.7277
 9480TIP3   OH228361   6.645   4.836   2.319 -0.1608 -0.1400  0.0473
 9480TIP3    H128362   6.655   4.931   2.317  2.1272 -0.3145  1.2207
 9480TIP3    H228363   6.630   4.816   2.412 -1.0177 -0.8871 -0.2485
 9481TIP3   OH228364   6.457   7.184   6.172 -0.9363 -0.3369 -0.0547
 9481TIP3    H128365   6.362   7.189   6.169 -1.0205 -1.1101  1.0195
 9481TIP3    H228366   6.477   7.097   6.137 -0.5366  0.2977 -1.4646
 9482TIP3   OH228367   5.568   7.844   4.071 -0.1329 -0.2407  0.2167
 9482TIP3    H128368   5.540   7.759   4.036 -0.4512 -1.0022  2.2613
 9482TIP3    H228369   5.526   7.908   4.013  0.7521 -1.4697 -1.8253
 9483TIP3   OH228370   6.517   3.480   3.331 -0.5159  0.2959 -0.0546
 9483TIP3    H128371   6.522   3.572   3.305  0.3467  0.2901  0.0804
 9483TIP3    H228372   6.548   3.431   3.255 -1.9280  0.0491 -0.4930
 9484TIP3   OH228373   3.795   6.380   1.939 -0.1040  0.2818  0.1804
 9484TIP3    H128374   3.739   6.339   2.006  1.0799  0.5196  1.3428
 9484TIP3    H228375   3.848   6.308   1.905 -0.2245  0.2879 -0.0211
 9485TIP3   OH228376   6.459   7.372   2.196  0.0649  0.4573 -0.2475
 9485TIP3    H128377   6.509   7.319   2.259 -1.2655  2.0171  2.1487
 9485TIP3    H228378   6.379   7.322   2.181 -0.0394  0.5458  0.0168
 9486TIP3   OH228379   0.341   1.422   4.207  0.3416 -0.5467  0.2262
 9486TIP3    H128380   0.362   1.328   4.207  2.4148 -0.1015 -0.3568
 9486TIP3    H228381   0.402   1.460   4.270 -0.4347  0.4164  0.3964
 9487TIP3   OH228382   1.996   0.406   2.143  0.7029 -0.6663  0.4774
 9487TIP3    H128383   1.972   0.315   2.157 -0.4737 -0.5631 -0.7439
 9487TIP3    H228384   2.032   0.407   2.054  2.7614 -0.3207  1.2755
 9488TIP3   OH228385   6.137   8.154   3.069 -0.1026  0.2016 -0.1627
 9488TIP3    H128386   6.108   8.185   3.155 -2.3969 -1.3735 -0.3424
 9488TIP3    H228387   6.146   8.235   3.017 -3.0890  0.8922  0.2653
 9489TIP3   OH228388   5.115   0.458   2.708 -0.2145  0.6126  0.0425
 9489TIP3    H128389   5.164   0.505   2.775 -0.9101 -1.3959  2.0300
 9489TIP3    H228390   5.178   0.396   2.671 -0.1613  0.8736 -0.3067
 9490TIP3   OH228391   0.418   7.583   3.827  0.5419  0.1549  0.3617
 9490TIP3    H128392   0.488   7.619   3.772  0.5683 -0.2013  0.1641
 9490TIP3    H228393   0.386   7.508   3.778  2.7091 -2.1127  2.2974
 9491TIP3   OH228394   7.546   8.110   3.291  0.2611  0.0859  0.0187
 9491TIP3    H128395   7.593   8.151   3.363  1.9738  0.3964 -1.2473
 9491TIP3    H228396   7.466   8.162   3.281  1.3161  1.7089 -0.0826
 9492TIP3   OH228397   2.108   0.239   3.278 -0.6447 -0.0504 -0.1688
 9492TIP3    H128398   2.123   0.306   3.212 -0.5978  1.8675  1.7394
 9492TIP3    H228399   2.015   0.248   3.301 -0.2781  0.3815  1.1786
 9493TIP3   OH228400   6.177   4.718   1.634  0.5454  0.3233 -0.4053
 9493TIP3    H128401   6.139   4.711   1.547 -0.7685  0.8468  0.1039
 9493TIP3    H228402   6.161   4.633   1.675  0.9998  0.1380 -0.6173
 9494TIP3   OH228403   0.701   7.091   2.531  0.2024  0.3999 -0.0672
 9494TIP3    H128404   0.733   7.059   2.616  3.6794  1.4701 -0.8910
 9494TIP3    H228405   0.757   7.047   2.466 -0.6669  1.6044 -1.6632
 9495TIP3   OH228406   5.618   6.102   4.350 -0.2249 -0.0115  0.3357
 9495TIP3    H128407   5.553   6.036   4.326 -0.0818 -0.8426  2.1321
 9495TIP3    H228408   5.649   6.074   4.437  0.0825  2.2340  0.9681
 9496TIP3   OH228409   0.637   6.033   3.768  0.1366  0.5135  0.9370
 9496TIP3    H128410   0.627   5.941   3.744 -3.7956  1.1051 -0.0061
 9496TIP3    H228411   0.638   6.033   3.863 -0.3109 -0.4871  0.9546
 9497TIP3   OH228412   3.569   1.011   5.176  0.0345 -0.0171  0.5209
 9497TIP3    H128413   3.540   1.077   5.238  0.0450 -1.1902  1.7946
 9497TIP3    H228414   3.491   0.994   5.122 -0.6628 -0.6737  1.7146
 9498TIP3   OH228415   7.541   3.049   3.904 -0.1301  1.0819 -0.2110
 9498TIP3    H128416   7.620   3.095   3.932 -0.2670  1.8663 -1.1037
 9498TIP3    H228417   7.498   3.023   3.986  1.5104 -0.1744  0.2889
 9499TIP3   OH228418   0.577   6.646   3.387  0.2481  0.4557 -0.2525
 9499TIP3    H128419   0.553   6.599   3.466 -0.3540  0.6603 -0.3150
 9499TIP3    H228420   0.644   6.591   3.345  0.4529  0.2752  0.3131
 9500TIP3   OH228421   5.285   5.365   2.415  0.0701  0.0220 -0.5985
 9500TIP3    H128422   5.316   5.307   2.345 -0.0048  0.9207 -1.3845
 9500TIP3    H228423   5.205   5.323   2.447  1.8416 -2.1133  1.1837
 9501TIP3   OH228424   8.230   7.045   3.845  0.2554  0.5879  0.0688
 9501TIP3    H128425   8.180   7.127   3.848 -2.2014 -0.8928  1.4504
 9501TIP3    H228426   8.169   6.981   3.809  2.2895 -0.5641 -1.4197
 9502TIP3   OH228427   6.284   7.538   5.362 -0.5377  0.1647 -0.0949
 9502TIP3    H128428   6.298   7.469   5.298  0.6072 -0.2008  0.5398
 9502TIP3    H228429   6.211   7.507   5.415 -0.8523  0.0236 -0.6126
 9503TIP3   OH228430   0.668   6.500   6.432  0.1053 -0.2114 -0.4421
 9503TIP3    H128431   0.722   6.578   6.446  1.4109 -1.0261 -0.8751
 9503TIP3    H228432   0.663   6.491   6.337  4.5467 -3.7158 -0.4969
 9504TIP3   OH228433   7.836   6.763   3.204  0.9968  0.0260 -0.1421
 9504TIP3    H128434   7.809   6.705   3.132  2.5253  0.2119 -0.8987
 9504TIP3    H228435   7.821   6.851   3.170 -0.5041  0.1008  0.6796
 9505TIP3   OH228436   7.833   6.061   3.505  0.0327  0.7519  0.8917
 9505TIP3    H128437   7.918   6.032   3.473 -0.4278  0.1758  0.1673
 9505TIP3    H228438   7.802   6.124   3.440 -0.0649  1.0055  1.1827
 9506TIP3   OH228439   7.050   5.096   3.036 -0.1921 -0.3706  0.3051
 9506TIP3    H128440   7.096   5.105   3.119 -1.0003 -0.5314  0.7777
 9506TIP3    H228441   7.093   5.158   2.977  2.1199 -2.1280  0.0667
 9507TIP3   OH228442   6.550   6.893   3.880  0.2747 -0.5425 -0.0669
 9507TIP3    H128443   6.515   6.886   3.791 -0.5466 -1.7495  0.3399
 9507TIP3    H228444   6.626   6.836   3.880 -0.6568 -1.8164  0.4407
 9508TIP3   OH228445   0.109   3.745   2.854  0.1458 -0.4458  0.0354
 9508TIP3    H128446   0.103   3.834   2.887  0.5284 -0.2812 -0.3507
 9508TIP3    H228447   0.152   3.696   2.925  0.3132 -0.2426  0.0722
 9509TIP3   OH228448   4.938   5.279   2.967 -0.5122 -0.2045  0.4627
 9509TIP3    H128449   4.936   5.352   3.029 -2.8464  0.3137 -0.1709
 9509TIP3    H228450   4.914   5.317   2.883 -1.2738 -1.5768  0.0268
 9510TIP3   OH228451   2.086   0.088   2.897 -0.1310 -0.2188  0.1398
 9510TIP3    H128452   2.150   0.153   2.925  0.7607 -0.5170 -1.1321
 9510TIP3    H228453   2.139   0.013   2.871 -1.0366 -0.7030 -0.3172
 9511TIP3   OH228454   7.520   7.592   5.451  0.9239 -0.0867 -0.1005
 9511TIP3    H128455   7.512   7.499   5.471 -0.4551 -0.3264 -1.6680
 9511TIP3    H228456   7.586   7.595   5.381 -0.7540 -0.1601 -1.7373
 9512TIP3   OH228457   2.507   0.361   2.566 -0.3991 -0.2600 -0.7446
 9512TIP3    H128458   2.573   0.318   2.620 -0.3160 -1.2728 -1.6372
 9512TIP3    H228459   2.529   0.454   2.570 -1.1700 -0.1212  2.0352
 9513TIP3   OH228460   6.476   7.094   1.050 -0.1680  0.3608  0.3199
 9513TIP3    H128461   6.487   7.002   1.074 -3.1726 -0.3370 -0.7757
 9513TIP3    H228462   6.434   7.134   1.126 -2.8526 -0.2090 -0.7784
 9514TIP3   OH228463   6.093   7.277   3.055 -0.3508 -0.6545 -0.2925
 9514TIP3    H128464   6.086   7.367   3.088  0.4705 -0.8573  0.4645
 9514TIP3    H228465   6.040   7.226   3.116 -1.2186 -0.6174 -1.0121
 9515TIP3   OH228466   6.970   7.639   2.637 -0.3821  0.1645 -0.5754
 9515TIP3    H128467   7.064   7.620   2.636 -0.6995 -1.5713  0.1989
 9515TIP3    H228468   6.935   7.589   2.563 -0.9940 -0.9684  0.4667
 9516TIP3   OH228469   0.038   7.233   3.626  0.4036 -0.2417 -0.6178
 9516TIP3    H128470   0.070   7.173   3.693  0.4577 -1.0060 -1.3314
 9516TIP3    H228471  -0.057   7.232   3.636  0.4937  0.9233  0.5405
 9517TIP3   OH228472   5.136   6.216   3.154  0.2070 -0.0118  0.2239
 9517TIP3    H128473   5.198   6.160   3.201  0.9524  1.7347  1.4057
 9517TIP3    H228474   5.181   6.300   3.147 -1.1679  0.6508 -0.8861
 9518TIP3   OH228475   6.062   8.143   4.818 -0.2166  0.2821 -0.0545
 9518TIP3    H128476   5.986   8.149   4.876 -1.3229  1.2834 -1.5942
 9518TIP3    H228477   6.026   8.137   4.730  1.4922  1.4814 -0.8651
 9519TIP3   OH228478   8.120   0.015   3.824 -0.1423  0.1299  0.0999
 9519TIP3    H128479   8.207  -0.011   3.795 -0.7598 -0.1018 -1.5906
 9519TIP3    H228480   8.135   0.094   3.877  1.0025  0.6015 -0.9050
 9520TIP3   OH228481   3.047   0.728   1.140 -0.4320 -0.1405 -0.1236
 9520TIP3    H128482   3.115   0.795   1.138  1.3093 -1.6782  3.2767
 9520TIP3    H228483   2.976   0.764   1.086  1.3138  3.4375 -0.1631
 9521TIP3   OH228484   2.513   1.230   2.513  0.2077  0.1382  0.5974
 9521TIP3    H128485   2.584   1.194   2.460  0.3297  0.9093  0.2308
 9521TIP3    H228486   2.518   1.181   2.596 -1.0716 -2.2951 -0.7031
 9522TIP3   OH228487   6.896   0.738   3.222  1.3831  0.1433 -0.0998
 9522TIP3    H128488   6.824   0.689   3.183  1.1803 -0.3446  0.8677
 9522TIP3    H228489   6.887   0.826   3.187  0.8400 -0.1286 -0.6596
 9523TIP3   OH228490   6.416   8.337   2.954 -0.3204 -0.2520 -0.3161
 9523TIP3    H128491   6.435   8.244   2.960  0.9723 -0.1097 -1.8360
 9523TIP3    H228492   6.320   8.342   2.947 -0.2912 -1.5698 -1.8958
 9524TIP3   OH228493   0.143   1.346   3.473  0.5651 -0.0808 -0.7358
 9524TIP3    H128494   0.131   1.439   3.492 -1.3704 -0.6173  0.9013
 9524TIP3    H228495   0.201   1.344   3.397  0.1664  2.4781 -1.1555
 9525TIP3   OH228496   5.091   7.647   3.269 -0.3160  0.6569  0.4802
 9525TIP3    H128497   5.131   7.644   3.356 -1.3455  0.7472  0.9660
 9525TIP3    H228498   5.115   7.564   3.228  0.6501  0.8545  0.6317
 9526TIP3   OH228499   7.180   5.376   3.216 -0.0243  0.0535 -0.3367
 9526TIP3    H128500   7.127   5.344   3.288  0.6572  0.4853  0.3580
 9526TIP3    H228501   7.267   5.388   3.253 -0.3142  2.9938 -0.4871
 9527TIP3   OH228502   7.646   5.503   3.588 -0.3860 -0.1661 -0.2177
 9527TIP3    H128503   7.646   5.499   3.684 -0.9786  0.8032 -0.1709
 9527TIP3    H228504   7.658   5.412   3.561  1.0590 -0.2990  0.7754
 9528TIP3   OH228505   7.543   4.214   1.412  0.0722  0.6641 -0.2922
 9528TIP3    H128506   7.504   4.179   1.492  2.1158  0.9960  0.8818
 9528TIP3    H228507   7.547   4.309   1.426  0.0432  0.7670 -0.9574
 9529TIP3   OH228508   4.524   4.903   3.000  0.1537  0.1384 -0.1665
 9529TIP3    H128509   4.605   4.861   2.970  0.8256  1.1922  0.1257
 9529TIP3    H228510   4.534   4.908   3.096 -0.0078  0.7457 -0.1776
 9530TIP3   OH228511   6.171   7.623   2.441  0.0286 -0.4609  0.4879
 9530TIP3    H128512   6.116   7.692   2.404  2.0601  1.0339  0.1407
 9530TIP3    H228513   6.231   7.670   2.499  2.4085 -1.7356 -0.8866
 9531TIP3   OH228514   7.017   5.811   3.741  0.0494  0.3073  0.1400
 9531TIP3    H128515   7.112   5.811   3.730 -0.0551  1.9018 -0.9141
 9531TIP3    H228516   6.984   5.763   3.666 -0.0863  1.8373 -0.8046
 9532TIP3   OH228517   7.785   4.693   2.910 -0.4841 -0.6114 -0.2067
 9532TIP3    H128518   7.750   4.782   2.910  0.3541 -0.2583  0.9433
 9532TIP3    H228519   7.748   4.651   2.832 -1.8251  0.3727 -0.1077
 9533TIP3   OH228520   0.815   0.033   2.395  0.0028 -0.3943 -0.1669
 9533TIP3    H128521   0.817   0.009   2.303  0.0613  0.2557 -0.3369
 9533TIP3    H228522   0.866  -0.035   2.439 -2.1880 -2.1625 -0.2681
 9534TIP3   OH228523   4.730   5.688   1.516 -0.0524  0.5960  0.0404
 9534TIP3    H128524   4.738   5.608   1.568  0.8586 -0.5086 -1.7350
 9534TIP3    H228525   4.792   5.749   1.557  0.6559 -0.2510  0.2737
 9535TIP3   OH228526   7.050   4.385   3.526 -0.4458  0.7478  0.1173
 9535TIP3    H128527   6.990   4.312   3.542  1.8215 -1.0125  0.8689
 9535TIP3    H228528   7.075   4.416   3.613  1.1441  0.2499 -0.1402
 9536TIP3   OH228529   1.617   0.696   2.801  0.0360  0.5678  0.0644
 9536TIP3    H128530   1.697   0.662   2.842  1.0258  0.8801 -1.5510
 9536TIP3    H228531   1.575   0.619   2.763  0.2943  0.6112 -0.3045
 9537TIP3   OH228532   3.004   0.641   3.180 -0.0726 -0.3520 -0.1164
 9537TIP3    H128533   3.050   0.629   3.263 -3.2777 -0.0324  1.7945
 9537TIP3    H228534   2.973   0.554   3.156 -0.8287 -0.1317  0.0514
 9538TIP3   OH228535   7.555   5.684   2.200  0.1637 -0.1805  0.3648
 9538TIP3    H128536   7.577   5.598   2.165  0.3399 -0.5510  1.3539
 9538TIP3    H228537   7.631   5.739   2.179 -0.7082  0.2268 -1.8585
 9539TIP3   OH228538   7.927   5.169   5.047  0.0501  0.3181  0.5638
 9539TIP3    H128539   7.931   5.096   5.109  0.3520  0.6246  0.9100
 9539TIP3    H228540   7.929   5.248   5.102  0.4725  0.5958  0.1563
 9540TIP3   OH228541   7.105   6.685   1.801  0.4889 -0.3694  0.7265
 9540TIP3    H128542   7.072   6.737   1.874 -1.6588 -0.8440  0.1350
 9540TIP3    H228543   7.122   6.748   1.731  1.5710 -0.0317  1.2923
 9541TIP3   OH228544   7.286   6.718   3.529 -0.1142 -0.5950 -0.1068
 9541TIP3    H128545   7.227   6.792   3.547 -1.6813 -2.1170  1.1852
 9541TIP3    H228546   7.251   6.678   3.449  0.3873 -0.3107 -0.4750
 9542TIP3   OH228547   8.524   7.737   4.618  0.2675 -0.2609  0.1544
 9542TIP3    H128548   8.448   7.687   4.591 -0.1060  0.1316  0.4735
 9542TIP3    H228549   8.591   7.672   4.637 -0.1487 -0.6292  0.3598
 9543TIP3   OH228550   6.502   7.836   3.099  0.5134  0.2234 -0.1689
 9543TIP3    H128551   6.573   7.776   3.078  0.1943 -0.4623  0.6532
 9543TIP3    H228552   6.492   7.828   3.194  1.1336  2.3276  0.0898
 9544TIP3   OH228553   1.246   7.641   4.167 -0.5095  0.0600  0.3404
 9544TIP3    H128554   1.324   7.637   4.223 -1.9064 -2.9431  2.2655
 9544TIP3    H228555   1.271   7.593   4.088 -0.1313 -0.2291  0.6296
 9545TIP3   OH228556   8.627   7.642   2.364  0.2769  0.3543  0.1244
 9545TIP3    H128557   8.587   7.694   2.434  0.5278 -1.5314  1.6907
 9545TIP3    H228558   8.710   7.686   2.346 -0.5671  1.8398 -0.1950
 9546TIP3   OH228559   7.242   5.965   2.172 -0.1567  0.0876 -0.1462
 9546TIP3    H128560   7.332   5.958   2.202  0.0852  1.6768 -0.4265
 9546TIP3    H228561   7.234   5.899   2.103  1.4200  1.3338 -1.5615
 9547TIP3   OH228562   0.178   6.875   1.598  0.1473  0.5174 -0.6415
 9547TIP3    H128563   0.253   6.908   1.550  0.3483  0.4065 -0.4054
 9547TIP3    H228564   0.106   6.933   1.573  0.4111  0.9010 -0.5241
 9548TIP3   OH228565   3.313   0.318   2.588 -0.2549 -0.1993 -0.4369
 9548TIP3    H128566   3.234   0.271   2.616 -0.0414 -0.3863 -0.1506
 9548TIP3    H228567   3.369   0.251   2.549 -0.0490 -0.1401 -0.2408
 9549TIP3   OH228568   7.277   7.619   3.645  0.8260  0.1281  0.4429
 9549TIP3    H128569   7.338   7.598   3.574  0.6498 -1.6507  0.8078
 9549TIP3    H228570   7.254   7.711   3.629  0.7108 -0.2643 -1.8608
 9550TIP3   OH228571   8.169   8.165   3.631  0.0289 -0.8255  0.1658
 9550TIP3    H128572   8.127   8.224   3.569 -1.0324 -1.1924  0.5264
 9550TIP3    H228573   8.176   8.082   3.585  0.9719 -0.5935 -0.1258
 9551TIP3   OH228574   1.219   6.148   3.689  0.0634  0.1357 -0.4739
 9551TIP3    H128575   1.266   6.217   3.737 -1.0038 -0.2736  1.2086
 9551TIP3    H228576   1.141   6.191   3.655 -0.8852 -0.3534  1.0513
 9552TIP3   OH228577   8.347   7.082   2.996 -0.2768 -0.5793  0.5375
 9552TIP3    H128578   8.431   7.040   3.015 -0.1641 -0.1861  0.9168
 9552TIP3    H228579   8.353   7.107   2.904  1.2486  2.2302  1.3659
 9553TIP3   OH228580   0.099   6.477   2.699  0.0589 -0.3840  0.0107
 9553TIP3    H128581   0.158   6.409   2.732 -2.0756 -1.5902  1.4024
 9553TIP3    H228582   0.029   6.430   2.654 -1.6449  0.8375  1.3172
 9554TIP3   OH228583   5.632   7.115   1.213 -0.2820  0.1727 -0.2374
 9554TIP3    H128584   5.536   7.108   1.215 -0.3453  0.7179 -1.0059
 9554TIP3    H228585   5.650   7.171   1.138  0.4881  2.5958  1.6783
 9555TIP3   OH228586   0.781   5.419   3.654  0.5761  0.6181  0.1239
 9555TIP3    H128587   0.750   5.446   3.740 -1.6563  1.0597 -0.7982
 9555TIP3    H228588   0.821   5.498   3.617 -0.9754  1.2069 -0.3417
 9556TIP3   OH228589   6.779   7.310   2.217 -0.1912 -0.3732 -0.5491
 9556TIP3    H128590   6.711   7.250   2.245 -0.5301  0.4036  0.3143
 9556TIP3    H228591   6.817   7.269   2.139 -0.6249 -1.5372 -0.1530
 9557TIP3   OH228592   8.209   6.956   4.216 -0.1203  0.3356 -0.2316
 9557TIP3    H128593   8.268   6.960   4.141 -0.3328  1.9140 -0.3153
 9557TIP3    H228594   8.185   6.863   4.222  2.3040 -0.3131 -0.2200
 9558TIP3   OH228595   7.493   7.322   0.895  0.3335 -0.2597 -0.2157
 9558TIP3    H128596   7.526   7.303   0.807 -1.1902 -0.2223 -0.8046
 9558TIP3    H228597   7.410   7.275   0.901  0.7101 -0.7660  1.4425
 9559TIP3   OH228598   8.295   7.064   2.292  0.2582 -0.0888  0.2395
 9559TIP3    H128599   8.318   6.998   2.358  1.7925  0.6618  0.4637
 9559TIP3    H228600   8.237   7.124   2.339  1.3069  0.4154  0.8973
 9560TIP3   OH228601   7.761   7.492   2.403  0.1516 -0.0354 -0.0087
 9560TIP3    H128602   7.756   7.509   2.497  0.8419  3.1712 -0.5135
 9560TIP3    H228603   7.845   7.448   2.391  0.7869  0.9624  0.6895
 9561TIP3   OH228604   8.269   7.811   1.545 -0.2595 -0.3125 -0.1515
 9561TIP3    H128605   8.270   7.852   1.632 -1.7979 -1.8829  0.6349
 9561TIP3    H228606   8.317   7.729   1.557 -1.8154 -1.2724 -0.3973
 9562TIP3   OH228607   0.058   7.987   1.996  0.2706  0.0678  0.7293
 9562TIP3    H128608   0.022   7.899   1.982 -0.1278 -0.2200  3.2975
 9562TIP3    H228609   0.151   7.978   1.973  0.0825 -0.8478  0.3100
 9563TIP3   OH228610   6.790   6.833   4.208 -0.7165  0.0162  0.4288
 9563TIP3    H128611   6.716   6.883   4.175  0.2354  1.8990  1.0641
 9563TIP3    H228612   6.814   6.775   4.135 -0.5878  1.9082 -1.0808
 9564TIP3   OH228613   1.169   0.366   2.750 -0.6909 -0.5654 -0.2928
 9564TIP3    H128614   1.181   0.456   2.721 -1.0064 -0.0835  1.0262
 9564TIP3    H228615   1.114   0.373   2.828 -2.8609 -2.1079 -1.6379
 9565TIP3   OH228616   2.100   1.068   2.154  0.4143  0.5993 -0.0902
 9565TIP3    H128617   2.120   1.158   2.129 -2.7611  1.3137 -0.2154
 9565TIP3    H228618   2.107   1.019   2.072  0.8404  0.9695 -0.2765
 9566TIP3   OH228619   0.190   7.967   5.034 -0.4994  0.1520  0.2118
 9566TIP3    H128620   0.181   8.058   5.063 -0.1152  0.1876  0.2242
 9566TIP3    H228621   0.282   7.946   5.050 -0.7051 -0.4091  0.7037
 9567TIP3   OH228622   7.100   6.134   2.853  0.0822  0.3531 -0.5079
 9567TIP3    H128623   7.035   6.142   2.783 -0.4773  1.0267  0.0642
 9567TIP3    H228624   7.069   6.059   2.905 -0.5463  1.0018  0.0667
 9568TIP3   OH228625   0.345   5.845   1.165  0.0259  0.2009 -0.3880
 9568TIP3    H128626   0.397   5.897   1.226  0.9584 -2.0223  0.7620
 9568TIP3    H228627   0.380   5.866   1.079  2.5116 -0.8799  0.3269
 9569TIP3   OH228628   6.388   7.477   3.564  0.5148 -0.1061 -0.2251
 9569TIP3    H128629   6.452   7.474   3.635  1.3487 -1.8199 -1.0268
 9569TIP3    H228630   6.435   7.443   3.487 -0.7702  0.4645 -1.2871
 9570TIP3   OH228631   8.372   6.146   2.940  0.0417 -0.1884 -0.3562
 9570TIP3    H128632   8.396   6.237   2.960 -0.7576  0.1593 -0.9766
 9570TIP3    H228633   8.421   6.094   3.004  0.6656  0.6620 -0.1267
 9571TIP3   OH228634   8.483   2.597   2.146  0.4813 -0.1456 -0.3771
 9571TIP3    H128635   8.490   2.597   2.050  2.0417 -0.3381 -0.2718
 9571TIP3    H228636   8.572   2.584   2.177  0.3345  2.0722  1.1247
 9572TIP3   OH228637   8.399   7.129   2.727 -0.1303 -0.1750 -0.2587
 9572TIP3    H128638   8.490   7.147   2.702 -0.4362  0.3952 -0.9821
 9572TIP3    H228639   8.349   7.201   2.688 -0.9118 -0.5669  0.0151
 9573TIP3   OH228640   2.257   0.447   2.610 -1.0786 -0.5475  0.1896
 9573TIP3    H128641   2.329   0.390   2.585  0.6408  1.5080  0.2914
 9573TIP3    H228642   2.212   0.466   2.528  1.1584  1.6529 -0.5715
 9574TIP3   OH228643   8.186   5.818   3.721  0.2307  0.3112 -0.0426
 9574TIP3    H128644   8.137   5.876   3.780  0.7865 -0.1675  0.8960
 9574TIP3    H228645   8.272   5.860   3.712  0.0105  0.6077 -0.8708
 9575TIP3   OH228646   2.012   7.753   4.631  0.6603  0.0545 -0.2102
 9575TIP3    H128647   2.031   7.729   4.722  1.1157  1.1519 -0.0144
 9575TIP3    H228648   2.065   7.831   4.615  0.6178 -0.1562 -1.4361
 9576TIP3   OH228649   8.745   6.594   4.932  0.2336 -0.5369  0.0551
 9576TIP3    H128650   8.772   6.649   4.858 -1.6981 -0.7559 -0.8433
 9576TIP3    H228651   8.820   6.537   4.948  0.5752 -0.6946 -1.9319
 9577TIP3   OH228652   8.601   5.973   5.433  0.0907 -0.0312  0.3657
 9577TIP3    H128653   8.651   5.964   5.514  2.7065  1.1007 -1.0368
 9577TIP3    H228654   8.607   5.887   5.391  0.9182  0.1011  0.2003
 9578TIP3   OH228655   7.587   5.448   5.680 -0.2351 -0.4010 -0.2910
 9578TIP3    H128656   7.603   5.401   5.763 -3.9298  0.2109  0.8759
 9578TIP3    H228657   7.636   5.529   5.689 -1.7928  0.3481  2.0323
 9579TIP3   OH228658   1.057   7.351   4.263 -0.2526  0.0663  0.6442
 9579TIP3    H128659   1.149   7.376   4.271 -0.4136  0.4768  1.1745
 9579TIP3    H228660   1.053   7.301   4.181  0.4239  0.1226  0.5768
 9580TIP3   OH228661   1.224   7.396   5.645 -0.8609 -0.6338  0.1938
 9580TIP3    H128662   1.176   7.451   5.707  0.7678  0.1138  0.8114
 9580TIP3    H228663   1.247   7.318   5.696  0.5494  0.0169  0.5736
 9581TIP3   OH228664   8.370   7.379   3.763 -0.1018 -0.3984 -0.5553
 9581TIP3    H128665   8.333   7.411   3.845 -0.6033 -2.7356  0.1610
 9581TIP3    H228666   8.423   7.452   3.731 -1.5076  1.2692  0.8086
 9582TIP3   OH228667   0.172   6.576   3.963 -0.5682  0.1973  0.5505
 9582TIP3    H128668   0.254   6.624   3.975 -0.6331  0.5561 -0.4301
 9582TIP3    H228669   0.110   6.641   3.931 -0.5115 -0.6390 -1.3120
 9583TIP3   OH228670   2.414   2.662   5.622 -0.3700 -0.0653  0.0178
 9583TIP3    H128671   2.452   2.701   5.701 -1.7503 -0.5044  0.9017
 9583TIP3    H228672   2.337   2.715   5.603  0.2693  0.3890 -1.3777
 9584TIP3   OH228673   3.097   0.886   3.672 -0.1633  0.1022  0.9242
 9584TIP3    H128674   3.062   0.957   3.726 -0.2859  0.4843  0.3488
 9584TIP3    H228675   3.020   0.848   3.631  0.0107  0.4515  0.2524
 9585TIP3   OH228676   8.718   7.538   4.606  0.2654  0.3746  0.2867
 9585TIP3    H128677   8.806   7.536   4.568  0.9141  0.9520  1.7326
 9585TIP3    H228678   8.725   7.486   4.686 -0.8921 -0.1691  0.0484
 9586TIP3   OH228679   6.625   2.442   0.528  0.0922 -0.1877 -0.2368
 9586TIP3    H128680   6.547   2.385   0.524  0.6466 -1.1282  1.9764
 9586TIP3    H228681   6.590   2.529   0.544 -0.5597 -0.4970  0.0572
 9587TIP3   OH228682  -0.006   7.977   3.283 -0.4074  0.0420 -0.7848
 9587TIP3    H128683   0.087   7.954   3.280 -0.2723  0.6547 -1.1683
 9587TIP3    H228684  -0.028   8.003   3.194 -0.5741  1.3978 -0.3562
 9588TIP3   OH228685   2.529   1.183   4.107 -0.7066  0.0733  0.3052
 9588TIP3    H128686   2.434   1.177   4.109 -0.6804 -0.0105  2.4683
 9588TIP3    H228687   2.548   1.276   4.118 -0.5261 -0.1216  1.7575
 9589TIP3   OH228688   7.145   7.399   4.663  0.0648 -0.0258  0.3946
 9589TIP3    H128689   7.061   7.370   4.698  0.7407  0.1588  2.2631
 9589TIP3    H228690   7.209   7.368   4.727  1.3317  0.5730 -0.5660
 9590TIP3   OH228691   7.862   6.653   4.126 -0.3505 -0.3755  0.4263
 9590TIP3    H128692   7.838   6.725   4.068 -1.4983 -0.6136  0.6035
 9590TIP3    H228693   7.779   6.610   4.146  0.0439 -0.3599  2.1459
 9591TIP3   OH228694   7.115   5.829   6.259  0.3907 -0.0621  0.3479
 9591TIP3    H128695   7.142   5.748   6.217  0.5215  0.5643 -0.8110
 9591TIP3    H228696   7.019   5.826   6.259  0.4049 -0.4572  0.7888
 9592TIP3   OH228697   0.730   8.222   3.409 -0.2169  0.7033  0.1449
 9592TIP3    H128698   0.806   8.204   3.465 -1.1335 -0.5077  1.0289
 9592TIP3    H228699   0.662   8.251   3.470 -0.7065  1.0240 -0.5526
 9593TIP3   OH228700   5.017   0.955   1.902  0.4622  0.4057  0.7409
 9593TIP3    H128701   4.971   1.022   1.953 -0.1641  0.3043  0.3144
 9593TIP3    H228702   5.107   0.989   1.893  0.0297  1.4315  0.1099
 9594TIP3   OH228703   3.850   0.428   5.428 -0.5166  0.3103 -0.7908
 9594TIP3    H128704   3.923   0.490   5.427  0.2200 -0.5616 -1.8763
 9594TIP3    H228705   3.773   0.482   5.411 -0.0737  1.1554 -0.1847
 9595TIP3   OH228706   2.038   5.505   6.289 -0.1899 -0.3766  0.0823
 9595TIP3    H128707   2.124   5.537   6.317 -0.6617  0.0157  1.1228
 9595TIP3    H228708   2.025   5.543   6.203  0.8786 -0.8111 -0.2769
 9596TIP3   OH228709   0.457   8.113   3.297  0.0850  0.1507  0.0393
 9596TIP3    H128710   0.451   8.132   3.204  1.0523 -2.4823 -0.6084
 9596TIP3    H228711   0.551   8.113   3.315 -0.1423  2.0527  1.3489
 9597TIP3   OH228712   0.921   6.958   4.274 -0.1912  0.5932  0.2284
 9597TIP3    H128713   0.881   6.992   4.354 -0.2027  0.5062  0.2595
 9597TIP3    H228714   0.912   7.029   4.211  0.6681  1.0255  0.5796
 9598TIP3   OH228715   2.414   7.255   3.026 -0.5668 -0.2633  0.0457
 9598TIP3    H128716   2.341   7.293   3.074 -0.7541 -1.1399  0.4713
 9598TIP3    H228717   2.415   7.162   3.052 -0.1870 -0.5796 -1.0421
 9599TIP3   OH228718   2.091   1.427   1.156  0.0717  0.0719  0.3681
 9599TIP3    H128719   1.997   1.429   1.143  0.2059  0.8982 -0.5808
 9599TIP3    H228720   2.115   1.336   1.144 -0.5898 -0.1141  0.4560
 9600TIP3   OH228721   8.891   6.565   4.247  0.4451  0.2528 -0.2399
 9600TIP3    H128722   8.807   6.519   4.250  0.2185  0.5970 -1.1493
 9600TIP3    H228723   8.924   6.549   4.158  1.9739 -0.9915  0.5246
 9601TIP3   OH228724   2.749   0.149   0.231  0.3082 -0.1893  0.9844
 9601TIP3    H128725   2.754   0.245   0.224  0.8149 -0.2520  0.5101
 9601TIP3    H228726   2.692   0.122   0.160  1.2928 -0.3630  0.2565
 9602TIP3   OH228727   0.916   8.401   4.239 -0.1671 -0.4842 -0.4753
 9602TIP3    H128728   0.847   8.339   4.264  0.4611 -1.0932 -0.2523
 9602TIP3    H228729   0.939   8.376   4.150 -1.1501  0.5577 -1.0414
 9603TIP3   OH228730   4.236   1.033   2.046 -0.2932 -0.2420 -0.3220
 9603TIP3    H128731   4.174   1.088   2.094 -2.6150 -1.7623 -1.4982
 9603TIP3    H228732   4.297   1.095   2.006 -0.9502  1.2832  0.9868
 9604TIP3   OH228733   3.619   0.858   3.603  0.2486 -0.2551 -0.3968
 9604TIP3    H128734   3.547   0.902   3.649  0.9099  0.1189  0.2960
 9604TIP3    H228735   3.587   0.769   3.590 -0.9692  0.3152 -1.5088
 9605TIP3   OH228736   0.059   6.835   4.181 -0.1941 -0.5854  0.3205
 9605TIP3    H128737   0.116   6.829   4.258  0.1581  1.4689  0.2431
 9605TIP3    H228738   0.006   6.755   4.184  3.0425 -2.8416  0.1104
 9606TIP3   OH228739   1.839   7.868   5.223  0.1321  0.2097  0.4101
 9606TIP3    H128740   1.796   7.803   5.167 -0.7115  0.0988  1.1849
 9606TIP3    H228741   1.880   7.817   5.292 -0.4149  0.4852  0.9437
 9607TIP3   OH228742   8.064   6.057   7.103  0.2153 -0.2328 -0.2829
 9607TIP3    H128743   8.137   6.036   7.045  1.1045  0.5815  0.5026
 9607TIP3    H228744   7.992   6.003   7.073  0.4515  0.6971 -2.5930
 9608TIP3   OH228745   4.774   0.930   4.113  0.5578  0.1225 -0.1601
 9608TIP3    H128746   4.678   0.937   4.119  0.6018  0.3384  0.3311
 9608TIP3    H228747   4.801   0.902   4.200  0.9249 -0.1484 -0.3617
 9609TIP3   OH228748   1.438   6.987   4.725  0.2241  0.3386  0.3112
 9609TIP3    H128749   1.367   6.983   4.661  0.8193 -0.8303 -0.2765
 9609TIP3    H228750   1.413   7.058   4.784  0.2826  2.2627 -1.9314
 9610TIP3   OH228751   3.144   8.219   2.829  0.0015  0.0611 -0.0340
 9610TIP3    H128752   3.204   8.159   2.784  0.5848 -0.0282  0.8642
 9610TIP3    H228753   3.061   8.209   2.782  0.4640 -0.4227 -0.7601
 9611TIP3   OH228754   0.628   6.045   4.049  0.1152 -0.2388  0.0369
 9611TIP3    H128755   0.545   6.017   4.088  0.8126  0.2167  1.8798
 9611TIP3    H228756   0.693   6.034   4.119  1.5601 -0.3017 -1.2879
 9612TIP3   OH228757   3.762   0.720   3.266  0.0844  0.0716 -0.5937
 9612TIP3    H128758   3.695   0.750   3.204 -1.5879  1.6974  1.8784
 9612TIP3    H228759   3.755   0.624   3.264 -1.4793  0.1784 -1.2942
 9613TIP3   OH228760   2.349   7.002   3.137 -0.0798  0.3481  0.1232
 9613TIP3    H128761   2.262   6.973   3.164 -0.3782  0.3542 -0.8176
 9613TIP3    H228762   2.405   6.980   3.211 -1.3651  3.0248  1.9791
 9614TIP3   OH228763   8.335   5.927   3.311 -0.1517  0.2805 -0.1825
 9614TIP3    H128764   8.346   5.837   3.280 -0.4774  0.2042 -0.0830
 9614TIP3    H228765   8.309   5.976   3.233  0.6941  0.4230 -0.3760
 9615TIP3   OH228766   0.520   6.112   6.389  0.0166  0.6099 -0.2498
 9615TIP3    H128767   0.610   6.144   6.385 -0.3069  1.2619 -2.6284
 9615TIP3    H228768   0.528   6.017   6.375  0.1432  0.9967 -2.9555
 9616TIP3   OH228769   4.918   0.082   2.718  0.7647 -0.1223 -0.2104
 9616TIP3    H128770   4.918   0.138   2.641  0.3232  1.5990  1.0273
 9616TIP3    H228771   4.947   0.138   2.790 -0.3920 -1.2774  1.1928
 9617TIP3   OH228772   1.009   6.833   6.113 -0.2440 -0.4205 -0.0141
 9617TIP3    H128773   0.994   6.827   6.019 -1.2743  2.0404 -0.0524
 9617TIP3    H228774   0.927   6.805   6.153  0.2088 -1.5107  0.1697
 9618TIP3   OH228775   0.837   6.375   6.781  0.2953 -0.0795 -0.3331
 9618TIP3    H128776   0.835   6.289   6.824 -0.2272 -0.8883 -1.9218
 9618TIP3    H228777   0.747   6.388   6.751  0.8462  0.0017 -2.0377
 9619TIP3   OH228778   0.256   4.921   5.460  0.1353  0.0096  0.2371
 9619TIP3    H128779   0.345   4.943   5.436  0.3975  0.3063  1.4280
 9619TIP3    H228780   0.255   4.926   5.556 -1.3846  0.9211  0.2005
 9620TIP3   OH228781   1.178   7.574   5.031 -0.6026  0.2965 -0.3133
 9620TIP3    H128782   1.183   7.643   5.098 -3.4725  1.6021 -1.3737
 9620TIP3    H228783   1.210   7.615   4.951 -1.7420  0.2367 -0.8129
 9621TIP3   OH228784   0.430   8.195   4.179  0.0048 -0.1506 -0.4032
 9621TIP3    H128785   0.362   8.147   4.132 -0.0031  0.1433 -0.6853
 9621TIP3    H228786   0.384   8.234   4.254  0.0775 -0.8802  0.0338
 9622TIP3   OH228787   7.872   5.464   6.109 -0.3518 -0.3204 -0.0318
 9622TIP3    H128788   7.950   5.515   6.133 -0.4505  0.0292 -0.4591
 9622TIP3    H228789   7.877   5.387   6.165 -0.5597  0.4744  1.1008
 9623TIP3   OH228790   4.229   7.005   6.546  0.2220 -0.5444  0.3642
 9623TIP3    H128791   4.307   6.994   6.493  0.1030  0.5841 -0.0461
 9623TIP3    H228792   4.250   6.960   6.628  1.8072  0.8664  0.7570
 9624TIP3   OH228793   1.941   6.037   4.721  0.4298  0.8231  0.6172
 9624TIP3    H128794   1.881   6.030   4.796  0.8882 -0.2207  0.8918
 9624TIP3    H228795   1.994   5.958   4.725  1.3835  1.4184 -0.0188
 9625TIP3   OH228796   2.339   7.526   1.348  0.1785  0.1674 -0.6236
 9625TIP3    H128797   2.398   7.562   1.283  0.2789  0.7508 -0.2121
 9625TIP3    H228798   2.287   7.461   1.300  0.6734  0.1472 -1.1366
 9626TIP3   OH228799   1.773   6.831   4.272 -0.4611  0.3240 -0.2580
 9626TIP3    H128800   1.767   6.739   4.243  1.7412 -0.0759  0.4824
 9626TIP3    H228801   1.739   6.830   4.361  0.0290  0.1093 -0.0669
 9627TIP3   OH228802   3.005   7.896   2.601 -0.7728 -0.5829  0.4833
 9627TIP3    H128803   2.998   7.807   2.634 -0.8159 -0.6473  0.3011
 9627TIP3    H228804   2.954   7.949   2.663 -1.8180 -0.8662 -0.1244
 9628TIP3   OH228805   8.664   7.607   5.115 -0.4011  0.5967 -0.0612
 9628TIP3    H128806   8.717   7.685   5.129  0.2939  0.1011  0.0689
 9628TIP3    H228807   8.577   7.632   5.147  0.2665  0.6990  1.7579
 9629TIP3   OH228808   1.770   6.836   6.298  0.3480 -0.1404  0.3656
 9629TIP3    H128809   1.812   6.831   6.384 -2.7071  2.2419  2.1232
 9629TIP3    H228810   1.818   6.905   6.252  0.9605 -0.2939  0.7738
 9630TIP3   OH228811   6.767   0.321   3.409 -0.0966  0.1895  0.3849
 9630TIP3    H128812   6.761   0.245   3.467 -0.4476  0.6176  0.9120
 9630TIP3    H228813   6.753   0.396   3.466  1.9006  0.7530  0.1587
 9631TIP3   OH228814   5.891   0.323   4.344 -0.0354 -0.0455  0.5768
 9631TIP3    H128815   5.872   0.385   4.273 -0.9073 -1.7046 -0.6599
 9631TIP3    H228816   5.914   0.242   4.299  5.1163  0.4229  2.0651
 9632TIP3   OH228817   5.684   7.324   3.739  0.3200  0.7230 -0.2700
 9632TIP3    H128818   5.735   7.247   3.715 -1.2655 -0.1687 -0.8900
 9632TIP3    H228819   5.687   7.379   3.661  1.4768  1.3076  0.1831
 9633TIP3   OH228820   3.350   7.396   4.696  0.3629  0.0397 -0.5101
 9633TIP3    H128821   3.354   7.343   4.776  2.6805 -1.5002 -1.5762
 9633TIP3    H228822   3.275   7.362   4.648  0.5263 -0.8077 -0.1707
 9634TIP3   OH228823   3.228   6.873   2.767  0.1687 -0.5112  0.2692
 9634TIP3    H128824   3.205   6.785   2.798 -0.1889 -0.5494 -0.0998
 9634TIP3    H228825   3.144   6.915   2.750  0.3524 -0.3267 -0.1933
 9635TIP3   OH228826   2.382   7.710   3.081 -0.1053  0.1240  0.6067
 9635TIP3    H128827   2.290   7.704   3.059 -0.3567 -0.4370  1.7728
 9635TIP3    H228828   2.419   7.625   3.055  0.3980  0.8726 -1.2159
 9636TIP3   OH228829   0.235   6.869   4.407 -0.2463  1.3147 -0.0068
 9636TIP3    H128830   0.298   6.938   4.389  0.9228  0.1433 -0.4669
 9636TIP3    H228831   0.273   6.820   4.481 -0.8438  0.9061  0.0349
 9637TIP3   OH228832   2.051   7.720   4.915  0.0178  0.3386  0.3109
 9637TIP3    H128833   2.117   7.785   4.937  1.8291 -0.9997 -0.9695
 9637TIP3    H228834   2.047   7.662   4.991  2.5802 -1.3310 -0.7398
 9638TIP3   OH228835   3.218   5.081   5.161 -0.7873 -0.1472  0.5021
 9638TIP3    H128836   3.156   5.012   5.135 -0.4365  0.1355 -1.1660
 9638TIP3    H228837   3.163   5.158   5.176 -0.8960  0.0149 -0.6545
 9639TIP3   OH228838   1.710   8.130   3.054  0.0008 -0.3930 -0.2162
 9639TIP3    H128839   1.655   8.150   3.130  0.2387 -0.4347 -0.0338
 9639TIP3    H228840   1.704   8.209   2.999  0.1687 -0.1967  0.0465
 9640TIP3   OH228841   3.100   0.916   5.530 -0.2141  0.1600 -0.3652
 9640TIP3    H128842   3.176   0.858   5.532  0.0796  0.5886  2.6147
 9640TIP3    H228843   3.134   0.998   5.492  0.4510 -0.1087 -0.3535
 9641TIP3   OH228844   2.786   1.034   3.866 -0.3368  0.2292 -0.1565
 9641TIP3    H128845   2.791   1.109   3.808  0.4343  0.1570 -0.1848
 9641TIP3    H228846   2.704   0.990   3.841 -0.7756  1.0341 -0.1546
 9642TIP3   OH228847   5.305   1.498   3.782  0.0179 -0.0053 -0.2407
 9642TIP3    H128848   5.382   1.553   3.794 -0.1368  0.8534 -2.9102
 9642TIP3    H228849   5.328   1.439   3.711 -1.8722  0.4677 -1.2898
 9643TIP3   OH228850   3.583   5.916   3.442 -0.2831 -0.4485  0.6004
 9643TIP3    H128851   3.505   5.910   3.496 -0.9091 -1.5643 -0.4027
 9643TIP3    H228852   3.655   5.926   3.504 -0.9128 -2.4013  1.6983
 9644TIP3   OH228853   1.100   8.330   3.552 -0.2118  0.4356  0.1941
 9644TIP3    H128854   1.062   8.256   3.600  0.9563 -0.7061 -0.5997
 9644TIP3    H228855   1.182   8.349   3.598  0.0458  0.4911 -0.2865
 9645TIP3   OH228856   4.738   0.514   4.159 -0.0374  0.1884 -0.1248
 9645TIP3    H128857   4.677   0.534   4.088  0.4734  1.0313 -0.3339
 9645TIP3    H228858   4.808   0.463   4.117 -0.7235 -0.9977  0.1655
 9646TIP3   OH228859   2.291   5.722   3.409 -0.0097 -0.4046 -0.2306
 9646TIP3    H128860   2.355   5.676   3.462  0.9340 -0.2763 -1.2573
 9646TIP3    H228861   2.342   5.781   3.354 -1.0304  0.0268 -0.7410
 9647TIP3   OH228862   2.193   7.367   2.870  0.2057 -0.2891 -0.4250
 9647TIP3    H128863   2.288   7.356   2.861  0.1728 -0.6376 -0.3433
 9647TIP3    H228864   2.158   7.279   2.863 -0.0527 -0.2435  0.2949
 9648TIP3   OH228865   0.958   6.162   3.194  0.2128 -0.3548 -0.3735
 9648TIP3    H128866   0.918   6.074   3.193 -0.6231  0.0076  0.7501
 9648TIP3    H228867   0.910   6.210   3.126  0.8597 -0.8399 -1.1838
 9649TIP3   OH228868   1.685   8.045   2.717 -0.2846 -0.3813  0.0576
 9649TIP3    H128869   1.697   7.980   2.786 -1.2793  1.0979  1.6553
 9649TIP3    H228870   1.741   8.119   2.744  2.2136 -1.2122 -2.6224
 9650TIP3   OH228871   4.812   0.405   3.216 -0.3364 -0.1386  0.2329
 9650TIP3    H128872   4.876   0.341   3.245 -1.0486 -1.1256 -0.3542
 9650TIP3    H228873   4.861   0.460   3.154 -0.4465 -1.8605 -1.4287
 9651TIP3   OH228874   1.358   7.727   4.823 -0.4410  0.2926 -0.0281
 9651TIP3    H128875   1.448   7.709   4.850 -0.3874 -0.8396 -0.9147
 9651TIP3    H228876   1.358   7.819   4.799  0.3541  0.4354  0.4840
 9652TIP3   OH228877   1.175   7.078   3.431  0.4846 -0.3320  0.5367
 9652TIP3    H128878   1.214   7.159   3.465  0.4224 -0.3390  0.6263
 9652TIP3    H228879   1.186   7.015   3.502 -0.1588 -0.1886  0.7702
 9653TIP3   OH228880   1.803   6.504   3.922  0.6389 -0.8858 -0.8296
 9653TIP3    H128881   1.779   6.547   3.839  0.7197 -1.2767 -1.0566
 9653TIP3    H228882   1.722   6.506   3.974  1.5389  2.6859  0.5497
 9654TIP3   OH228883   6.182   1.975   4.879  0.1226  0.0601  0.0965
 9654TIP3    H128884   6.170   2.040   4.948  1.1209  0.9420 -0.5430
 9654TIP3    H228885   6.169   2.024   4.798  1.6211 -0.3640 -0.4128
 9655TIP3   OH228886   2.638   0.696   5.713  0.0895  0.2517 -0.1572
 9655TIP3    H128887   2.650   0.690   5.618  1.1430 -0.9562  0.0432
 9655TIP3    H228888   2.549   0.728   5.723  0.2349  1.1633 -1.5679
 9656TIP3   OH228889   4.052   0.687   6.366 -0.2051 -0.2735  1.0536
 9656TIP3    H128890   4.117   0.630   6.325 -1.3376 -0.4862 -0.5036
 9656TIP3    H228891   3.974   0.633   6.374 -0.9737  0.7371  0.5093
 9657TIP3   OH228892   4.473   1.529   4.611 -0.1011  0.4389 -0.6843
 9657TIP3    H128893   4.486   1.465   4.541 -1.4076  0.4865 -0.9887
 9657TIP3    H228894   4.415   1.484   4.673 -0.1375  0.9269 -0.3629
 9658TIP3   OH228895   4.419   0.281   3.736 -0.2336  0.0823  0.1272
 9658TIP3    H128896   4.384   0.341   3.801  1.3925  1.4513 -0.2308
 9658TIP3    H228897   4.361   0.291   3.660 -0.6691  0.3118  0.4877
 9659TIP3   OH228898   1.382   7.219   4.359 -0.0186 -0.1833 -0.6144
 9659TIP3    H128899   1.437   7.143   4.375  2.1952  1.4813  0.0065
 9659TIP3    H228900   1.362   7.253   4.446  0.6747  1.0473 -0.9135
 9660TIP3   OH228901   2.893   6.267   3.686 -0.2287  0.0118  0.2376
 9660TIP3    H128902   2.973   6.306   3.721  1.0682 -3.1340  0.9142
 9660TIP3    H228903   2.924   6.195   3.630 -2.5060  0.4072 -1.5911
 9661TIP3   OH228904   5.012   0.029   4.985  0.9685  0.2964 -0.2386
 9661TIP3    H128905   5.066  -0.050   4.985 -0.2866 -0.5602 -0.5826
 9661TIP3    H228906   4.995   0.047   5.077  1.0082  0.0161 -0.1784
 9662TIP3   OH228907   4.837   0.472   2.746  0.3388 -0.2312 -0.2466
 9662TIP3    H128908   4.924   0.462   2.709 -0.2190  0.7159 -1.8513
 9662TIP3    H228909   4.830   0.566   2.765 -0.4603 -0.2515 -0.4420
 9663TIP3   OH228910   1.753   7.512   3.615  0.0018  0.5293 -0.1548
 9663TIP3    H128911   1.767   7.427   3.655  0.9423 -0.6502 -2.8458
 9663TIP3    H228912   1.666   7.539   3.645 -0.9852 -2.1141 -0.4869
 9664TIP3   OH228913   4.074   0.627   3.101  0.1131 -0.0313 -0.0988
 9664TIP3    H128914   4.068   0.533   3.118  1.8219  0.1791  2.0009
 9664TIP3    H228915   3.984   0.656   3.089 -0.6639 -1.4564  2.0950
 9665TIP3   OH228916   3.572   2.301   5.100  0.3329 -0.7590 -0.0952
 9665TIP3    H128917   3.588   2.255   5.182 -1.3348  0.4270  0.9251
 9665TIP3    H228918   3.478   2.319   5.100  0.9520  2.8636 -0.2774
 9666TIP3   OH228919   2.320   8.016   3.774 -0.0592  0.3649  0.1382
 9666TIP3    H128920   2.402   7.983   3.811 -0.2018  0.0397  0.1625
 9666TIP3    H228921   2.261   7.941   3.776 -0.7253  0.9163  1.2074
 9667TIP3   OH228922   0.879   5.292   4.317 -0.4391  0.2773  0.2508
 9667TIP3    H128923   0.869   5.302   4.223  0.5018  1.5742  0.2791
 9667TIP3    H228924   0.843   5.372   4.355  1.2940  0.8175  0.8436
 9668TIP3   OH228925   2.447   8.114   1.157 -0.1661 -0.1969 -0.5604
 9668TIP3    H128926   2.517   8.162   1.200  0.3745 -1.6489  0.2313
 9668TIP3    H228927   2.374   8.175   1.153  1.1169  1.3129 -1.3503
 9669TIP3   OH228928   1.518   7.607   5.789 -0.3900  0.6327  0.0242
 9669TIP3    H128929   1.580   7.665   5.832 -0.9301  1.5061 -0.3701
 9669TIP3    H228930   1.556   7.519   5.800  0.0279  0.9663  1.2969
 9670TIP3   OH228931   5.150   0.976   3.270  0.4103  0.0187 -0.1188
 9670TIP3    H128932   5.140   0.920   3.347 -0.0080  0.8304  0.4150
 9670TIP3    H228933   5.069   1.026   3.265  0.9815  0.9504 -0.3013
 9671TIP3   OH228934   6.406   2.821   5.609 -0.1033  0.2457 -0.6103
 9671TIP3    H128935   6.398   2.742   5.556  0.8052  0.5776 -1.2483
 9671TIP3    H228936   6.412   2.789   5.699  1.4710 -0.4940 -0.9567
 9672TIP3   OH228937   1.927   6.810   6.546  0.2825  0.1980 -0.1185
 9672TIP3    H128938   1.999   6.874   6.545  1.7536 -1.3922  1.5775
 9672TIP3    H228939   1.886   6.822   6.631  1.2113 -1.8103  0.6286
 9673TIP3   OH228940   2.981   7.038   4.473  0.4527  0.3795  0.0593
 9673TIP3    H128941   2.914   6.971   4.485  0.7837  0.3006  1.5649
 9673TIP3    H228942   3.061   6.989   4.452  0.3595  0.3987 -0.3518
 9674TIP3   OH228943   4.881   0.761   2.365  0.5480  0.5639  0.1105
 9674TIP3    H128944   4.844   0.803   2.288 -1.2085 -1.6952 -0.3268
 9674TIP3    H228945   4.915   0.677   2.333 -1.3518 -0.9702  1.9789
 9675TIP3   OH228946   3.378   8.038   2.351 -0.0925 -0.1234  0.4097
 9675TIP3    H128947   3.333   7.982   2.288  0.7585 -0.1947 -0.1295
 9675TIP3    H228948   3.467   8.004   2.355  0.2305  0.7401  0.6189
 9676TIP3   OH228949   3.678   5.820   4.269  0.5915 -0.5086  0.2352
 9676TIP3    H128950   3.603   5.867   4.232  0.5874 -0.5981  0.1300
 9676TIP3    H228951   3.641   5.770   4.342  0.1262 -2.2846 -1.1766
 9677TIP3   OH228952   4.189   1.125   6.748 -0.1953 -0.0766 -0.1607
 9677TIP3    H128953   4.095   1.109   6.755 -0.2646 -1.1094 -2.8547
 9677TIP3    H228954   4.228   1.038   6.740  1.0250  0.3352  1.0988
 9678TIP3   OH228955   4.508   0.837   5.783  0.0542 -0.3208  0.0274
 9678TIP3    H128956   4.483   0.745   5.774  0.6472 -0.6073  1.2547
 9678TIP3    H228957   4.519   0.868   5.693 -0.9118 -1.2327 -0.4123
 9679TIP3   OH228958   8.756   5.481   4.968  0.3290 -0.0900  0.4067
 9679TIP3    H128959   8.819   5.520   5.028  0.5666 -0.4580  0.3991
 9679TIP3    H228960   8.706   5.555   4.933  0.2500  0.1303  0.9853
 9680TIP3   OH228961   3.214   1.972   5.784 -0.1485  0.9014  0.7446
 9680TIP3    H128962   3.276   1.959   5.713 -0.9418  0.6773  0.0815
 9680TIP3    H228963   3.194   2.066   5.782 -0.7334  0.7676  0.1911
 9681TIP3   OH228964   1.814   5.575   2.055  0.1050 -0.2262  0.4538
 9681TIP3    H128965   1.802   5.512   1.985  0.1551 -1.0788  1.2061
 9681TIP3    H228966   1.872   5.531   2.118 -1.6515 -0.3255  2.0662
 9682TIP3   OH228967   1.504   6.132   3.398 -0.4206 -0.6617 -0.3246
 9682TIP3    H128968   1.487   6.070   3.327 -0.7075  0.3767 -1.1773
 9682TIP3    H228969   1.517   6.216   3.353 -0.6320  0.0039  0.8572
 9683TIP3   OH228970   1.222   7.372   5.365  0.0462 -0.4493  0.6167
 9683TIP3    H128971   1.309   7.410   5.352 -0.0183 -0.3945  0.3276
 9683TIP3    H228972   1.203   7.387   5.457 -0.4533  1.2257  0.2543
 9684TIP3   OH228973   2.338   6.740   3.478 -0.1525 -0.0640 -0.0593
 9684TIP3    H128974   2.391   6.664   3.504 -2.4933 -1.6708  0.1119
 9684TIP3    H228975   2.248   6.708   3.475 -1.0171  2.3069 -1.5735
 9685TIP3   OH228976   0.510   6.759   2.944  0.4638 -0.2815  0.3001
 9685TIP3    H128977   0.560   6.679   2.963  0.9672 -0.1682 -0.5102
 9685TIP3    H228978   0.576   6.822   2.917  0.0634  0.4190  0.9405
 9686TIP3   OH228979   0.462   8.164   4.528 -0.2283  0.2922  0.3770
 9686TIP3    H128980   0.552   8.184   4.505 -0.6305  0.8596 -0.7697
 9686TIP3    H228981   0.448   8.076   4.494 -0.7082  0.9864 -1.2693
 9687TIP3   OH228982   4.706   1.872   3.975 -0.4299 -0.1592 -0.2047
 9687TIP3    H128983   4.698   1.952   3.924  1.9963  0.1435 -0.1902
 9687TIP3    H228984   4.713   1.802   3.909 -0.0124 -0.0611 -0.2697
 9688TIP3   OH228985   2.942   0.551   5.010  0.2796 -0.0419 -0.5693
 9688TIP3    H128986   2.962   0.623   5.071  0.1622  0.4382 -1.0881
 9688TIP3    H228987   2.878   0.589   4.950 -0.6750 -0.9467 -0.1346
 9689TIP3   OH228988   1.535   7.839   3.901 -0.0713 -0.0039  0.1795
 9689TIP3    H128989   1.486   7.847   3.819 -0.2593  0.8456  0.3618
 9689TIP3    H228990   1.503   7.912   3.955 -0.8243 -1.2709  1.4790
 9690TIP3   OH228991   8.320   8.007   3.420  0.0815 -0.3413  0.1444
 9690TIP3    H128992   8.381   8.068   3.462 -0.3006  0.2521 -0.1481
 9690TIP3    H228993   8.338   7.923   3.461 -0.3776  0.2564  1.5949
 9691TIP3   OH228994   0.965   7.260   3.719 -0.4731 -0.5070 -0.5697
 9691TIP3    H128995   0.997   7.188   3.773 -1.9696 -0.1245  0.8607
 9691TIP3    H228996   1.043   7.294   3.676  0.9542 -0.0613  2.2631
 9692TIP3   OH228997   1.306   7.797   3.347  0.4453  0.2300  0.5128
 9692TIP3    H128998   1.270   7.740   3.278  0.3314  0.3069  0.5082
 9692TIP3    H228999   1.257   7.879   3.338  0.8008  0.4273  0.3386
 9693TIP3   OH229000   1.420   8.140   2.770 -0.1279  0.5074 -0.2417
 9693TIP3    H129001   1.514   8.127   2.755  0.6173  1.5332  3.1514
 9693TIP3    H229002   1.400   8.221   2.724  0.4109 -0.2139 -1.7933
 9694TIP3   OH229003   1.126   7.243   5.120  0.6106 -0.2067 -0.4411
 9694TIP3    H129004   1.176   7.284   5.190  0.7098 -0.3925 -0.4013
 9694TIP3    H229005   1.047   7.296   5.112 -0.5997 -1.6814  1.5390
 9695TIP3   OH229006   2.906   0.084   4.993 -0.5515 -0.3017  0.1091
 9695TIP3    H129007   2.946   0.163   4.955 -0.5331 -0.3230  0.0839
 9695TIP3    H229008   2.937   0.012   4.937 -0.0171 -0.4100  0.5383
 9696TIP3   OH229009   2.480   7.618   3.343 -0.5832  0.8219 -0.3018
 9696TIP3    H129010   2.429   7.674   3.284 -1.3309 -0.6656 -1.0817
 9696TIP3    H229011   2.452   7.644   3.431 -1.2619  1.3569 -0.6691
 9697TIP3   OH229012   2.739   7.767   3.772  0.2693 -0.8527  0.5003
 9697TIP3    H129013   2.752   7.673   3.756 -1.6397 -1.1231  0.4053
 9697TIP3    H229014   2.825   7.806   3.757  0.8632 -2.4598 -0.4180
 9698TIP3   OH229015   2.168   4.711   5.573  0.5807  0.1991 -0.3868
 9698TIP3    H129016   2.167   4.656   5.652 -0.9526 -0.2501 -0.6979
 9698TIP3    H229017   2.259   4.708   5.543  0.6968 -1.5117  0.0613
 9699TIP3   OH229018   3.282   7.135   6.483 -0.0791 -0.2020  1.1240
 9699TIP3    H129019   3.327   7.051   6.476 -0.3763 -0.3428  0.9075
 9699TIP3    H229020   3.336   7.186   6.543 -0.4506 -0.9038  2.0636
 9700TIP3   OH229021   5.184   0.709   4.161  0.3370  0.6884  0.2502
 9700TIP3    H129022   5.185   0.654   4.082  0.4938  3.4920 -1.7531
 9700TIP3    H229023   5.262   0.683   4.209  2.7759  2.0777 -2.8039
 9701TIP3   OH229024   4.005   1.584   2.319  0.8560 -0.3208  0.1785
 9701TIP3    H129025   4.034   1.497   2.345  0.3733 -0.5690 -0.1240
 9701TIP3    H229026   4.004   1.634   2.401 -0.2266 -0.9764  0.5701
 9702TIP3   OH229027   2.700   8.180   6.624  0.0518  0.2348 -0.1414
 9702TIP3    H129028   2.608   8.158   6.635 -0.3285  0.4831 -2.5134
 9702TIP3    H229029   2.746   8.097   6.638 -0.6246 -0.1373 -0.0975
 9703TIP3   OH229030   3.519   0.190   2.004  0.4756 -0.0804 -0.2172
 9703TIP3    H129031   3.511   0.284   1.986  0.7551  0.0884  0.5003
 9703TIP3    H229032   3.470   0.148   1.934  0.0006  0.6181 -0.3138
 9704TIP3   OH229033   5.933   1.058   4.725 -0.0083 -0.6608 -0.5864
 9704TIP3    H129034   5.871   1.072   4.654 -1.0644 -1.6014  0.1319
 9704TIP3    H229035   5.969   1.145   4.743 -0.7400 -0.1898 -1.3597
 9705TIP3   OH229036   2.827   7.107   5.054 -0.0709  0.5271 -0.2928
 9705TIP3    H129037   2.739   7.119   5.089 -0.5033 -1.6280 -0.6099
 9705TIP3    H229038   2.856   7.196   5.031 -0.5883  1.7740  3.5174
 9706TIP3   OH229039   1.599   7.535   3.901  0.0454  0.1558 -0.2916
 9706TIP3    H129040   1.535   7.549   3.971  0.2794 -1.7614  0.3207
 9706TIP3    H229041   1.677   7.581   3.930 -0.5894  1.3186 -0.3854
 9707TIP3   OH229042   2.732   6.195   3.891 -0.5249 -0.1132 -0.4298
 9707TIP3    H129043   2.754   6.216   3.800 -1.6836 -1.8473 -1.1298
 9707TIP3    H229044   2.810   6.220   3.940  0.0396  1.0579 -1.8586
 9708TIP3   OH229045   3.950   2.148   3.083 -0.1048  0.3493  0.2448
 9708TIP3    H129046   3.892   2.133   3.008 -0.7870 -0.0489  0.8413
 9708TIP3    H229047   4.025   2.195   3.047 -0.1621 -0.3383 -0.7895
 9709TIP3   OH229048   0.092   6.210   5.927 -0.1968 -0.1829 -0.0735
 9709TIP3    H129049   0.103   6.249   5.841 -0.5524 -0.7518 -0.3837
 9709TIP3    H229050  -0.003   6.195   5.935 -0.0434 -1.2402 -0.0851
 9710TIP3   OH229051   3.078   6.509   5.914 -0.5682 -0.8951 -0.3046
 9710TIP3    H129052   3.119   6.480   5.995  0.7591  0.7709 -0.3459
 9710TIP3    H229053   3.095   6.438   5.851  2.1732 -0.2999 -0.2869
 9711TIP3   OH229054   2.020   7.817   3.178 -0.5173  0.2674 -0.1246
 9711TIP3    H129055   2.073   7.844   3.103  0.6065  0.3817  0.7041
 9711TIP3    H229056   2.023   7.722   3.177 -0.8174  0.2595 -0.4388
 9712TIP3   OH229057   3.309   6.541   5.097 -0.4865 -0.4413  0.5457
 9712TIP3    H129058   3.217   6.568   5.096 -0.4709 -0.3817 -0.8951
 9712TIP3    H229059   3.309   6.457   5.143 -0.9357  0.6307  2.5460
 9713TIP3   OH229060   8.031   6.231   2.691  0.6555 -0.2418  0.0473
 9713TIP3    H129061   8.039   6.326   2.681 -0.7235 -0.3109 -2.1587
 9713TIP3    H229062   8.099   6.195   2.634  0.2496 -0.5596 -0.2495
 9714TIP3   OH229063   6.199   0.601   2.143  0.7674 -0.5172 -0.0789
 9714TIP3    H129064   6.166   0.516   2.173 -1.3066  0.4147  0.3631
 9714TIP3    H229065   6.233   0.642   2.223  2.3509 -1.1797 -0.4048
 9715TIP3   OH229066   1.644   6.928   5.946 -0.0415 -0.1009 -0.6144
 9715TIP3    H129067   1.574   6.931   6.011  0.5775 -0.6496  0.0861
 9715TIP3    H229068   1.613   6.984   5.875 -0.7870  0.3856  0.0849
 9716TIP3   OH229069   2.432   7.023   2.652 -0.4798  0.7909 -0.1757
 9716TIP3    H129070   2.389   6.997   2.571 -0.6204 -1.3315  0.5575
 9716TIP3    H229071   2.375   6.990   2.721  2.1120 -1.8872  0.8198
 9717TIP3   OH229072   4.680   0.157   3.524  0.0263 -0.4570  0.2524
 9717TIP3    H129073   4.618   0.165   3.597 -0.0413  2.9463 -0.0992
 9717TIP3    H229074   4.667   0.237   3.472  2.4479 -1.2086 -1.6125
 9718TIP3   OH229075   2.401   7.779   5.397 -0.5640 -0.4413  0.1058
 9718TIP3    H129076   2.371   7.788   5.488 -0.0942  1.7526  0.0544
 9718TIP3    H229077   2.358   7.850   5.350  1.9367  0.5798 -0.6977
 9719TIP3   OH229078   6.103   0.430   5.258 -0.1004 -0.2152 -0.1319
 9719TIP3    H129079   6.122   0.336   5.260 -1.9635 -0.6342 -0.9627
 9719TIP3    H229080   6.177   0.469   5.213  0.2134 -1.4275 -0.6764
 9720TIP3   OH229081   3.120   8.095   2.451  0.1125  0.0705  0.4229
 9720TIP3    H129082   3.095   8.015   2.498  0.6725  0.1693  0.8972
 9720TIP3    H229083   3.214   8.085   2.435 -0.1911 -0.2410 -1.2241
 9721TIP3   OH229084   1.832   8.350   1.285  0.4705  0.7876 -0.0579
 9721TIP3    H129085   1.743   8.317   1.282  0.3624  0.8422  1.7359
 9721TIP3    H229086   1.837   8.397   1.369  2.6339 -0.5575  0.6059
 9722TIP3   OH229087   2.383   8.010   4.436 -0.0786 -1.0065  0.1727
 9722TIP3    H129088   2.354   7.984   4.349 -1.5916 -0.0633  0.3821
 9722TIP3    H229089   2.417   8.099   4.424 -2.0589 -0.1332  0.8851
 9723TIP3   OH229090   1.851   7.068   3.057 -0.4812 -0.0794  0.1494
 9723TIP3    H129091   1.864   7.113   2.973 -1.3792  1.3043  0.7347
 9723TIP3    H229092   1.899   7.120   3.120 -2.5324  0.7789  1.0413
 9724TIP3   OH229093   1.452   6.772   4.008  0.2505  0.1989 -0.0769
 9724TIP3    H129094   1.496   6.687   4.010  0.7748  0.4630 -0.3395
 9724TIP3    H229095   1.470   6.811   4.093  2.0097  1.0473 -0.8060
 9725TIP3   OH229096   4.565   1.244   2.614  0.5198 -0.1604  0.1054
 9725TIP3    H129097   4.510   1.175   2.650 -0.0886  1.3414  2.1622
 9725TIP3    H229098   4.565   1.228   2.519 -1.1136 -1.8684  0.3745
 9726TIP3   OH229099   3.894   0.832   3.479 -0.2178 -0.1073  0.4233
 9726TIP3    H129100   3.857   0.783   3.406 -0.8226  0.5212  0.3048
 9726TIP3    H229101   3.818   0.855   3.533 -0.0256  1.2585  0.1373
 9727TIP3   OH229102   5.164   0.278   3.723  0.3170 -0.3155  0.4118
 9727TIP3    H129103   5.232   0.266   3.790  1.7256  0.9171 -0.7658
 9727TIP3    H229104   5.212   0.276   3.640 -0.9100  1.7666 -0.3785
 9728TIP3   OH229105   4.581   0.359   3.351  0.1807  0.0005  0.7032
 9728TIP3    H129106   4.543   0.446   3.338  0.7522  0.1493 -0.0264
 9728TIP3    H229107   4.648   0.352   3.283 -1.8611 -2.1625 -1.2153
 9729TIP3   OH229108   0.919   6.412   3.769 -0.2698 -0.6066 -0.0737
 9729TIP3    H129109   0.935   6.374   3.682  0.9350 -3.6322  1.3949
 9729TIP3    H229110   0.996   6.388   3.820 -2.6407 -2.1488  2.9171
 9730TIP3   OH229111   2.931   6.710   5.025  0.0395  0.1281  0.1470
 9730TIP3    H129112   3.011   6.722   4.974  0.0504 -0.4732  0.0228
 9730TIP3    H229113   2.922   6.615   5.034 -0.3028  0.2124  0.7243
 9731TIP3   OH229114   1.574   5.631   3.339  0.0641 -0.4530  0.4552
 9731TIP3    H129115   1.666   5.636   3.364  0.3379 -1.5474 -0.2645
 9731TIP3    H229116   1.535   5.712   3.371  1.0382 -0.4709  1.7192
 9732TIP3   OH229117   4.312   0.074   2.394  0.2402 -0.2283  0.6482
 9732TIP3    H129118   4.287   0.093   2.485  1.1382  0.2564  0.7993
 9732TIP3    H229119   4.406   0.090   2.391 -0.0992  1.6883 -0.8476
 9733TIP3   OH229120   3.554   0.134   4.278 -0.0835 -0.4377  0.3279
 9733TIP3    H129121   3.543   0.135   4.373 -1.0422  0.2975  0.2203
 9733TIP3    H229122   3.589   0.047   4.259  1.3261 -0.1426  1.4750
 9734TIP3   OH229123   1.307   8.142   3.868  0.7208  0.1331  0.3927
 9734TIP3    H129124   1.307   8.059   3.821  0.6571  0.4962 -0.2710
 9734TIP3    H229125   1.272   8.205   3.804  1.8669  0.8742  0.4853
 9735TIP3   OH229126   0.274   2.618   0.322  0.3385  0.5193  0.4802
 9735TIP3    H129127   0.226   2.535   0.315  2.6662 -0.9341  0.9909
 9735TIP3    H229128   0.262   2.644   0.413  1.7785 -0.6943  1.0531
 9736TIP3   OH229129   1.455   8.152   4.479 -0.4692  0.4373 -0.3226
 9736TIP3    H129130   1.439   8.242   4.508  1.0257  0.6273 -0.0193
 9736TIP3    H229131   1.538   8.129   4.521 -0.4583 -0.8105 -1.0244
 9737TIP3   OH229132   5.437   1.842   4.579  0.2493 -0.2708  0.3613
 9737TIP3    H129133   5.376   1.836   4.652  0.2022 -1.5334  0.2247
 9737TIP3    H229134   5.508   1.782   4.602  0.7522  0.1267 -0.1348
 9738TIP3   OH229135   5.723   1.644   3.347 -0.3597  0.4868 -0.2178
 9738TIP3    H129136   5.801   1.606   3.308  0.5654  1.7819  0.3138
 9738TIP3    H229137   5.656   1.576   3.339  0.5397 -0.2557 -1.5975
 9739TIP3   OH229138   5.079   0.900   4.511  0.3531 -0.0120 -0.1538
 9739TIP3    H129139   5.027   0.915   4.432 -1.5409 -1.7416  0.7349
 9739TIP3    H229140   5.162   0.863   4.478 -0.3824 -0.6405 -1.3364
 9740TIP3   OH229141   0.905   8.071   3.023 -0.1425  0.2504 -0.1149
 9740TIP3    H129142   0.854   8.127   3.082  0.6554 -0.3878  1.1982
 9740TIP3    H229143   0.912   8.122   2.942 -1.1709  1.1754  0.3571
 9741TIP3   OH229144   7.894   5.819   4.575  0.4074 -0.0340  0.1460
 9741TIP3    H129145   7.974   5.792   4.529 -0.0767  0.1685 -0.8274
 9741TIP3    H229146   7.923   5.890   4.632  0.6346  1.1860 -1.4250
 9742TIP3   OH229147   5.852   1.479   2.612  0.0464 -0.3907 -0.4536
 9742TIP3    H129148   5.786   1.518   2.554  0.5032 -0.6392 -1.1464
 9742TIP3    H229149   5.802   1.444   2.685 -0.2971  2.3530  0.6754
 9743TIP3   OH229150   2.158   7.541   4.453  0.3381  0.7331 -0.2766
 9743TIP3    H129151   2.152   7.456   4.496  0.6554  0.4067 -0.8637
 9743TIP3    H229152   2.242   7.577   4.482  1.3682 -0.2354 -1.9276
 9744TIP3   OH229153   2.646   7.977   2.243 -0.4697  0.2195  0.2523
 9744TIP3    H129154   2.623   7.952   2.333  1.6326  0.2336  0.8238
 9744TIP3    H229155   2.709   8.048   2.254 -0.3374  0.3367 -1.2414
 9745TIP3   OH229156   4.426   0.515   4.571 -0.3488 -0.7287  0.4344
 9745TIP3    H129157   4.428   0.566   4.490 -0.3726  0.2412  1.0303
 9745TIP3    H229158   4.398   0.427   4.545  0.2911 -0.5952 -0.6982
 9746TIP3   OH229159   6.285   0.485   3.717 -0.7676 -0.7129 -0.5339
 9746TIP3    H129160   6.234   0.554   3.674 -2.1235 -0.3668  1.5466
 9746TIP3    H229161   6.219   0.422   3.746  0.0860 -0.7582  1.3183
 9747TIP3   OH229162   3.480   6.306   1.954 -0.5273  0.4022  0.0866
 9747TIP3    H129163   3.431   6.266   1.882 -0.0724  1.0836 -0.6076
 9747TIP3    H229164   3.490   6.235   2.018  0.9111 -0.8253 -1.4496
 9748TIP3   OH229165   1.810   8.381   6.006  0.3455  0.3351 -0.0622
 9748TIP3    H129166   1.772   8.413   5.924  3.9727  0.7480 -1.6527
 9748TIP3    H229167   1.877   8.319   5.979  1.5457  0.3879  2.6273
 9749TIP3   OH229168   1.291   8.331   4.279  0.4878  0.1894 -0.3263
 9749TIP3    H129169   1.385   8.312   4.279 -0.0891 -3.1801  1.2927
 9749TIP3    H229170   1.266   8.330   4.187  1.6892 -0.9803 -0.6626
 9750TIP3   OH229171   0.888   6.470   4.975 -0.4281  0.0152  0.5241
 9750TIP3    H129172   0.941   6.521   4.914 -1.0959  0.9078  0.6764
 9750TIP3    H229173   0.899   6.515   5.059 -0.8297 -0.2324  0.7075
 9751TIP3   OH229174   2.681   0.331   0.879 -0.0016  0.3201  0.3192
 9751TIP3    H129175   2.734   0.411   0.877  1.5236 -0.6693  0.2952
 9751TIP3    H229176   2.744   0.261   0.897 -1.2614 -0.9256 -0.0358
 9752TIP3   OH229177   4.976   0.136   6.777 -0.1296  0.2059 -0.5761
 9752TIP3    H129178   4.930   0.136   6.693  0.3384 -0.8868 -0.8517
 9752TIP3    H229179   4.987   0.043   6.798 -0.7604  0.4626  0.9908
 9753TIP3   OH229180   8.816   7.424   2.033  0.4707  0.2141  0.7402
 9753TIP3    H129181   8.733   7.452   1.994  0.6663  0.5957  0.6020
 9753TIP3    H229182   8.790   7.380   2.114  0.0910 -0.2618  0.3639
 9754TIP3   OH229183   5.981   1.182   4.199  0.1537 -0.3502 -0.1280
 9754TIP3    H129184   5.899   1.185   4.149 -0.0909  0.6123  0.3038
 9754TIP3    H229185   5.975   1.258   4.257  1.5402 -0.0575 -0.3727
 9755TIP3   OH229186   2.456   7.311   4.093 -0.6374 -0.0208 -0.2660
 9755TIP3    H129187   2.468   7.313   4.188 -0.3293 -1.3557 -0.2649
 9755TIP3    H229188   2.545   7.302   4.058 -0.8075 -0.2589 -0.6459
 9756TIP3   OH229189   1.737   6.886   5.533  0.0657  0.0869 -0.6760
 9756TIP3    H129190   1.745   6.927   5.619 -1.0955  2.0217 -1.4501
 9756TIP3    H229191   1.767   6.953   5.472 -0.4316 -0.7550 -1.8621
 9757TIP3   OH229192   2.508   5.994   1.927 -0.7952  0.1991  0.7779
 9757TIP3    H129193   2.438   5.996   1.862  0.2300 -1.3155 -0.4213
 9757TIP3    H229194   2.539   6.085   1.932 -1.0533  0.3710 -0.6712
 9758TIP3   OH229195   7.703   6.579   2.784  0.0092 -0.2641 -0.1137
 9758TIP3    H129196   7.748   6.643   2.839  0.2825 -0.5984  0.0549
 9758TIP3    H229197   7.727   6.601   2.695 -0.9115  0.6498 -0.1381
 9759TIP3   OH229198   2.820   7.657   4.558 -0.2768  0.2542 -0.1249
 9759TIP3    H129199   2.855   7.701   4.635 -1.4048  1.2292 -0.1609
 9759TIP3    H229200   2.746   7.711   4.530 -0.6103 -0.7217 -1.1965
 9760TIP3   OH229201   0.080   7.733   2.717  0.2948 -0.0933  0.8453
 9760TIP3    H129202   0.078   7.768   2.806  1.9445 -0.0756  0.8766
 9760TIP3    H229203   0.042   7.804   2.664  0.2947  0.3183  1.3851
 9761TIP3   OH229204   1.411   7.190   6.536  0.1164 -0.0005  0.2512
 9761TIP3    H129205   1.329   7.154   6.569 -1.5389 -0.3297 -3.8263
 9761TIP3    H229206   1.391   7.282   6.517  0.8991  0.1107 -0.0340
 9762TIP3   OH229207   0.107   8.065   2.319  0.2283  0.5312  0.7935
 9762TIP3    H129208   0.142   8.124   2.252  1.1056 -0.0330  0.7376
 9762TIP3    H229209   0.046   8.008   2.271  1.4653 -0.4042  0.2866
 9763TIP3   OH229210   0.833   7.019   4.559 -0.1878 -0.5625 -0.1877
 9763TIP3    H129211   0.811   7.075   4.484 -0.6216 -1.0217 -0.4045
 9763TIP3    H229212   0.824   7.076   4.635  1.6625  0.3098 -0.5938
 9764TIP3   OH229213   2.633   5.885   5.959  0.1027 -0.1061  0.5990
 9764TIP3    H129214   2.624   5.790   5.964 -0.9822 -0.1242 -1.1273
 9764TIP3    H229215   2.711   5.904   6.011 -0.1805 -1.8303  1.7246
 9765TIP3   OH229216   4.939   2.438   5.292 -1.4047  0.1937 -0.1347
 9765TIP3    H129217   4.943   2.377   5.366  0.9930  1.6964  1.0143
 9765TIP3    H229218   4.863   2.408   5.241 -1.0289 -2.9699  1.0584
 9766TIP3   OH229219   0.617   6.613   4.300 -0.5468  0.3927  0.1675
 9766TIP3    H129220   0.621   6.563   4.219 -1.4473  1.3479 -0.4741
 9766TIP3    H229221   0.565   6.558   4.359 -2.0685  0.8419 -0.7385
 9767TIP3   OH229222   1.813   7.342   2.112 -0.5887  0.0934 -0.1379
 9767TIP3    H129223   1.861   7.411   2.066  0.9290  0.5684  2.0453
 9767TIP3    H229224   1.863   7.263   2.094  0.3655  0.3825  1.1295
 9768TIP3   OH229225   1.232   6.367   4.676  0.1235  0.2797 -0.1829
 9768TIP3    H129226   1.259   6.280   4.705  1.1888  0.6983  0.1225
 9768TIP3    H229227   1.271   6.377   4.589 -0.8365  0.0647 -0.6422
 9769TIP3   OH229228   2.224   7.159   5.385 -0.0999 -0.4547  0.3245
 9769TIP3    H129229   2.226   7.255   5.389 -2.7548 -0.3222 -0.3199
 9769TIP3    H229230   2.181   7.133   5.467  1.2873 -1.1463  0.8453
 9770TIP3   OH229231   2.809   7.768   5.544 -0.4532  0.1130  0.2350
 9770TIP3    H129232   2.790   7.846   5.597  0.8760  1.0188 -0.5838
 9770TIP3    H229233   2.880   7.724   5.591  0.8913  1.0461 -0.8962
 9771TIP3   OH229234   2.713   5.906   6.496 -1.1301  0.5217  0.5216
 9771TIP3    H129235   2.720   5.990   6.450 -0.7578 -0.2838 -0.9283
 9771TIP3    H229236   2.749   5.923   6.583  1.1071  1.2987 -0.5211
 9772TIP3   OH229237   0.441   5.434   6.442 -0.1895  0.1899  0.7272
 9772TIP3    H129238   0.445   5.528   6.429 -0.9935  0.0803 -0.3677
 9772TIP3    H229239   0.349   5.415   6.457 -0.1104 -0.4754  0.4210
 9773TIP3   OH229240   1.300   5.956   6.035  0.4454 -0.2342 -0.2883
 9773TIP3    H129241   1.365   5.938   5.966 -0.4415 -1.5871 -0.8048
 9773TIP3    H229242   1.227   5.997   5.989 -0.3314 -1.5379 -0.2383
 9774TIP3   OH229243   1.546   7.327   2.790 -0.0548 -0.9003  1.1378
 9774TIP3    H129244   1.569   7.417   2.768 -2.7092 -0.6993 -1.0861
 9774TIP3    H229245   1.601   7.273   2.734  0.1125 -0.6080  1.0239
 9775TIP3   OH229246   0.203   7.353   2.116  0.0198  0.3094  0.1469
 9775TIP3    H129247   0.140   7.327   2.049 -0.7931  1.7456  0.3459
 9775TIP3    H229248   0.282   7.376   2.067 -0.2252  0.3199 -0.2412
 9776TIP3   OH229249   3.076   5.916   4.997  0.9111  0.2056 -0.1517
 9776TIP3    H129250   3.016   5.950   4.931  1.6874  0.8152 -0.5547
 9776TIP3    H229251   3.100   5.829   4.966 -0.7800 -0.5976  0.6827
 9777TIP3   OH229252   2.950   6.815   5.555 -0.2836 -0.2455 -0.0463
 9777TIP3    H129253   2.939   6.907   5.579  1.7197  0.4247 -1.5177
 9777TIP3    H229254   3.018   6.817   5.487 -1.6703 -2.6029 -1.5351
 9778TIP3   OH229255   6.453   2.671   5.870 -0.3223  0.1868  0.5990
 9778TIP3    H129256   6.444   2.746   5.929 -0.3675 -0.9283  2.0282
 9778TIP3    H229257   6.420   2.596   5.920  1.2434 -1.0719 -0.1974
 9779TIP3   OH229258   2.846   6.841   4.226  0.0813  0.3001 -0.0677
 9779TIP3    H129259   2.896   6.854   4.145  1.1446  0.4346  0.6006
 9779TIP3    H229260   2.765   6.890   4.211  0.2899  0.3788 -1.0234
 9780TIP3   OH229261   1.681   7.940   5.720 -0.1641  0.1988  0.2161
 9780TIP3    H129262   1.762   7.907   5.759 -0.6053 -1.1602  0.0122
 9780TIP3    H229263   1.679   7.903   5.632 -1.1209  0.0136  0.3026
 9781TIP3   OH229264   3.807   1.632   4.273 -0.2295 -0.3759 -0.3086
 9781TIP3    H129265   3.845   1.683   4.344 -1.1732  2.0768 -1.4867
 9781TIP3    H229266   3.882   1.591   4.230  0.7341  1.2904 -0.2675
 9782TIP3   OH229267   3.901   7.131   6.035  0.5311 -0.0380  0.0543
 9782TIP3    H129268   3.826   7.088   5.994 -0.4591  1.4124  0.3039
 9782TIP3    H229269   3.973   7.070   6.022 -0.2979 -0.6723 -1.7390
 9783TIP3   OH229270   5.244   5.819   2.646 -0.2557 -0.1717  0.1858
 9783TIP3    H129271   5.222   5.795   2.556 -1.6086 -0.4973  0.5948
 9783TIP3    H229272   5.298   5.746   2.677  1.2936  0.5511 -0.7661
 9784TIP3   OH229273   5.209   0.851   3.530  0.0852 -0.8722 -0.4191
 9784TIP3    H129274   5.260   0.872   3.608  1.2339 -2.0012 -0.8450
 9784TIP3    H229275   5.118   0.848   3.561  0.4695 -0.7219  0.7515
 9785TIP3   OH229276   2.177   7.388   3.137 -0.2389  0.4747  0.1728
 9785TIP3    H129277   2.103   7.433   3.176 -1.8487 -0.3373 -1.8652
 9785TIP3    H229278   2.156   7.382   3.044  2.8469  1.1247 -0.6321
 9786TIP3   OH229279   2.816   5.642   4.277  0.0321 -0.4760  0.4188
 9786TIP3    H129280   2.738   5.597   4.309  0.2031 -1.4317 -0.4843
 9786TIP3    H229281   2.879   5.635   4.349 -0.6887  0.3027  1.1529
 9787TIP3   OH229282   3.715   7.849   3.716  0.0731 -0.0686 -0.6096
 9787TIP3    H129283   3.727   7.873   3.808  0.9573  0.6748 -0.9177
 9787TIP3    H229284   3.799   7.809   3.690  0.2102  0.7318 -1.4044
 9788TIP3   OH229285   1.841   4.868   5.973  0.1435 -0.2090 -0.1412
 9788TIP3    H129286   1.761   4.830   5.936 -0.2884 -0.7136  1.2577
 9788TIP3    H229287   1.912   4.823   5.927 -0.3786  0.0584 -1.2174
 9789TIP3   OH229288   3.025   6.563   2.038  0.3794 -0.1381  0.4226
 9789TIP3    H129289   3.061   6.571   2.126  1.9953 -1.3741 -0.0789
 9789TIP3    H229290   3.015   6.653   2.007  0.4380  0.2858  1.6103
 9790TIP3   OH229291   1.883   6.256   2.682 -0.2274  0.4237 -0.4677
 9790TIP3    H129292   1.930   6.183   2.721 -1.9375  0.2190  1.3034
 9790TIP3    H229293   1.813   6.215   2.631 -0.5271  0.7721 -0.3425
 9791TIP3   OH229294   1.935   7.357   5.370  0.2891  0.0182  0.1839
 9791TIP3    H129295   1.888   7.293   5.423 -1.5735  1.5316  0.4076
 9791TIP3    H229296   1.867   7.404   5.322  1.7995  0.0864 -1.9918
 9792TIP3   OH229297   2.281   5.634   5.483  0.2671 -0.1274  0.0141
 9792TIP3    H129298   2.256   5.712   5.532 -0.1535 -0.8273  0.9166
 9792TIP3    H229299   2.213   5.625   5.416 -0.8618 -0.9156  1.2389
 9793TIP3   OH229300   0.943   6.337   4.032  0.3814 -0.2029 -0.1837
 9793TIP3    H129301   0.956   6.430   4.050  1.0675 -0.2682 -0.3268
 9793TIP3    H229302   1.014   6.293   4.078 -0.2937 -0.7085  0.3828
 9794TIP3   OH229303   3.048   7.001   7.136  0.2266  0.1094  0.2190
 9794TIP3    H129304   3.009   7.061   7.199  0.3657 -0.1668  0.5661
 9794TIP3    H229305   3.074   6.924   7.188  1.9566  0.6163  0.1306
 9795TIP3   OH229306   3.496   6.177   2.840  0.2208  0.8119 -0.2372
 9795TIP3    H129307   3.476   6.125   2.762  0.5593 -0.6939  0.6470
 9795TIP3    H229308   3.513   6.111   2.908  0.8057  2.1003  0.8762
 9796TIP3   OH229309   1.292   7.507   3.923 -0.5008  0.6705 -0.0506
 9796TIP3    H129310   1.303   7.416   3.897 -2.7805  0.4440 -0.3813
 9796TIP3    H229311   1.255   7.550   3.845 -1.2988  1.4263  0.7333
 9797TIP3   OH229312   3.892   7.437   6.114 -0.0047 -0.2359 -0.0508
 9797TIP3    H129313   3.875   7.343   6.106 -1.2788  0.0783 -1.3909
 9797TIP3    H229314   3.857   7.461   6.200 -1.4052 -0.6432 -0.4982
 9798TIP3   OH229315   1.123   6.565   4.092 -0.5851 -0.1602 -0.9465
 9798TIP3    H129316   1.173   6.602   4.164 -1.9288  0.0303 -0.0984
 9798TIP3    H229317   1.061   6.634   4.068 -1.2464 -0.8286 -1.1779
 9799TIP3   OH229318   3.770   0.658   2.234  0.2386  0.3569  0.4486
 9799TIP3    H129319   3.687   0.632   2.272  1.1694 -1.5387  1.2389
 9799TIP3    H229320   3.832   0.657   2.308  1.5269 -0.8711 -0.6258
 9800TIP3   OH229321   1.680   8.119   4.313  0.4202  0.8789  0.3649
 9800TIP3    H129322   1.685   8.085   4.403 -0.2287  2.2836  0.9520
 9800TIP3    H229323   1.614   8.189   4.318 -0.1547  0.4633 -1.3728
 9801TIP3   OH229324   5.861   1.793   0.089 -0.0978  0.4622  0.4767
 9801TIP3    H129325   5.801   1.810   0.016 -1.2302 -1.5947  0.8776
 9801TIP3    H229326   5.804   1.769   0.162  1.1356  0.2242  1.3801
 9802TIP3   OH229327   7.717   8.034   4.015 -0.3615  0.2754 -0.8562
 9802TIP3    H129328   7.793   8.002   4.062  0.2937 -1.2720 -2.8923
 9802TIP3    H229329   7.643   7.984   4.050  0.1866 -1.1905 -1.7621
 9803TIP3   OH229330   3.665   8.329   2.233  0.3630  0.1617 -0.1122
 9803TIP3    H129331   3.698   8.371   2.312  0.0505 -0.3812  0.3090
 9803TIP3    H229332   3.642   8.240   2.260 -0.2352  0.1316 -0.6837
 9804TIP3   OH229333   6.162   0.998   6.212 -0.8598  0.6460  0.0195
 9804TIP3    H129334   6.153   0.982   6.118 -0.2125 -0.4962  0.1418
 9804TIP3    H229335   6.092   0.947   6.252  0.9269 -1.5791  0.3821
 9805TIP3   OH229336   2.748   6.429   6.221  0.5593 -0.7696  0.2403
 9805TIP3    H129337   2.791   6.483   6.154  1.3309 -2.4516 -0.6467
 9805TIP3    H229338   2.694   6.491   6.270  0.2412  0.5581 -1.7212
 9806TIP3   OH229339   4.665   2.447   2.515  0.1385 -0.1757  0.4918
 9806TIP3    H129340   4.578   2.445   2.474  0.7670 -2.6579 -0.8083
 9806TIP3    H229341   4.664   2.373   2.575  2.0211 -1.4758 -1.0236
 9807TIP3   OH229342   5.534   1.845   2.912 -0.4804  0.2398 -0.3783
 9807TIP3    H129343   5.629   1.848   2.896 -0.5040  0.4579 -0.4702
 9807TIP3    H229344   5.522   1.889   2.996 -0.1379 -2.6181  1.2601
 9808TIP3   OH229345   4.359   2.056   3.499 -0.0371  0.7672 -0.1339
 9808TIP3    H129346   4.412   1.989   3.541 -0.1422  0.8898  0.1947
 9808TIP3    H229347   4.316   2.101   3.571  0.5073  1.5895 -0.3132
 9809TIP3   OH229348   2.675   8.255   4.996  0.4101 -0.4048 -0.8941
 9809TIP3    H129349   2.680   8.340   4.952 -3.2598  0.7880  0.8555
 9809TIP3    H229350   2.612   8.205   4.944 -1.5675 -0.0846  1.1349
 9810TIP3   OH229351   2.585   7.514   2.993  0.3847  0.0757  0.6464
 9810TIP3    H129352   2.623   7.491   3.078 -1.2204 -2.2789  0.7652
 9810TIP3    H229353   2.607   7.440   2.936  1.0624  1.4280 -0.8872
 9811TIP3   OH229354   5.192   0.857   3.893  0.1150  0.5631 -0.1874
 9811TIP3    H129355   5.177   0.842   3.986 -0.7000  1.3779 -0.1712
 9811TIP3    H229356   5.163   0.776   3.851  0.6615  0.1223  0.2807
 9812TIP3   OH229357   2.474   6.511   2.848  0.6651  0.1337 -0.0509
 9812TIP3    H129358   2.538   6.580   2.866 -0.1245  0.9974 -0.5184
 9812TIP3    H229359   2.514   6.460   2.777  0.7408  0.8196 -0.5105
 9813TIP3   OH229360   2.405   7.237   3.393  0.3579 -0.3521  0.3066
 9813TIP3    H129361   2.416   7.145   3.418  0.8734 -0.6418 -0.9178
 9813TIP3    H229362   2.460   7.247   3.315 -0.6173  0.6960 -0.2600
 9814TIP3   OH229363   3.180   0.958   3.284  0.2450  0.3820 -0.2540
 9814TIP3    H129364   3.196   0.915   3.200  0.2834 -1.2358  0.5587
 9814TIP3    H229365   3.254   0.933   3.338 -1.0309 -0.6809  1.0449
 9815TIP3   OH229366   4.071   6.991   2.581 -0.1257 -0.7298  0.1588
 9815TIP3    H129367   4.062   7.086   2.575  0.8448 -0.6697 -0.4670
 9815TIP3    H229368   4.045   6.959   2.494  1.0958 -0.9036 -0.1541
 9816TIP3   OH229369   2.779   6.927   3.585 -0.1052 -0.7784  0.1552
 9816TIP3    H129370   2.705   6.894   3.636 -0.8048 -0.0210 -0.3641
 9816TIP3    H229371   2.770   6.884   3.500 -1.0338  0.7525 -0.5321
 9817TIP3   OH229372   2.293   7.503   5.923  0.1275 -0.3340  0.2210
 9817TIP3    H129373   2.373   7.514   5.975 -0.3514  1.2085  0.6631
 9817TIP3    H229374   2.278   7.589   5.884 -1.5849 -0.4755  0.5266
 9818TIP3   OH229375   3.956   0.186   5.179  0.1650  0.3963  0.4850
 9818TIP3    H129376   4.031   0.170   5.237  0.5898 -0.1325 -0.2071
 9818TIP3    H229377   3.988   0.162   5.092 -1.3571 -1.4989  0.4208
 9819TIP3   OH229378   2.353   7.144   4.727 -0.7234 -0.3789 -0.1084
 9819TIP3    H129379   2.405   7.104   4.796 -0.9031  0.1959  0.3655
 9819TIP3    H229380   2.399   7.122   4.646  1.4963  1.9414  0.4614
 9820TIP3   OH229381   1.606   5.972   3.133  0.2463  0.0870  0.4365
 9820TIP3    H129382   1.602   5.890   3.082 -1.8385  0.6553 -0.3973
 9820TIP3    H229383   1.691   5.970   3.176  2.0263 -0.5267 -2.9490
 9821TIP3   OH229384   5.003   0.482   2.302 -0.2362  0.3599 -0.4850
 9821TIP3    H129385   5.011   0.487   2.207  1.9399  1.7724 -0.2611
 9821TIP3    H229386   5.090   0.456   2.332 -0.8095  0.2758  1.1589
 9822TIP3   OH229387   0.773   7.591   4.144  0.5691  0.3393 -0.0818
 9822TIP3    H129388   0.782   7.663   4.083  0.9857 -0.2852 -0.7679
 9822TIP3    H229389   0.842   7.605   4.209  1.4506 -0.1276 -0.9158
 9823TIP3   OH229390   1.395   6.161   5.271  0.0174 -0.8645 -0.0566
 9823TIP3    H129391   1.311   6.119   5.290 -0.9677  0.3383 -1.7478
 9823TIP3    H229392   1.443   6.097   5.218  0.9057 -2.2729  2.3481
 9824TIP3   OH229393   2.517   7.079   7.067  0.1532  0.3759 -0.2971
 9824TIP3    H129394   2.479   7.154   7.022  1.0205 -0.5419 -2.6671
 9824TIP3    H229395   2.611   7.085   7.048  0.2073 -1.3699 -0.6354
 9825TIP3   OH229396   4.146   0.927   4.793  0.4808 -0.0683  0.2427
 9825TIP3    H129397   4.207   0.881   4.851  0.2688 -0.6673 -0.0061
 9825TIP3    H229398   4.113   1.000   4.846  1.0723 -0.0018  0.5275
 9826TIP3   OH229399   1.703   5.783   5.903 -0.1081  0.3743  0.2295
 9826TIP3    H129400   1.739   5.853   5.848 -0.2861  1.9506  2.0452
 9826TIP3    H229401   1.608   5.792   5.893 -0.1134 -0.4662 -0.5449
 9827TIP3   OH229402   1.180   7.342   3.576  0.0883 -0.1702 -0.0854
 9827TIP3    H129403   1.246   7.356   3.644  1.0636 -1.6325 -0.7320
 9827TIP3    H229404   1.204   7.403   3.506  1.1449 -1.1881 -0.6066
 9828TIP3   OH229405   7.769   0.644   3.392 -0.5162  0.1178  0.0681
 9828TIP3    H129406   7.751   0.651   3.299 -3.1121  0.2548  0.5667
 9828TIP3    H229407   7.733   0.558   3.417  0.9722 -0.3244  0.7749
 9829TIP3   OH229408   4.895   5.902   2.920 -0.1062  0.4339  0.1303
 9829TIP3    H129409   4.887   5.807   2.932  0.1663  0.3154 -0.5927
 9829TIP3    H229410   4.944   5.912   2.838  0.0227  1.1989  0.2940
 9830TIP3   OH229411   2.649   5.110   3.253  0.1624 -0.2457  0.0276
 9830TIP3    H129412   2.653   5.080   3.162 -0.6370  1.0682 -0.4609
 9830TIP3    H229413   2.565   5.078   3.285 -0.2220  0.5544 -0.1679
 9831TIP3   OH229414   4.414   6.525   3.049  0.5250  0.0860  0.0352
 9831TIP3    H129415   4.405   6.619   3.037 -0.2195  0.1175  0.7579
 9831TIP3    H229416   4.329   6.497   3.083  0.8992 -0.7681  0.2879
 9832TIP3   OH229417   2.761   7.031   2.798 -1.0266 -0.4294  0.2141
 9832TIP3    H129418   2.736   6.971   2.727 -0.5974 -0.9685  0.5192
 9832TIP3    H229419   2.694   7.099   2.796 -3.1399 -2.3756  1.6760
 9833TIP3   OH229420   1.408   7.387   0.171  0.6161  0.0661  0.5387
 9833TIP3    H129421   1.343   7.437   0.122  0.3308 -1.0620 -0.2585
 9833TIP3    H229422   1.358   7.316   0.211  1.2859 -0.5517  0.2832
 9834TIP3   OH229423   3.400   6.517   3.694 -0.5422  0.0562 -0.0364
 9834TIP3    H129424   3.457   6.525   3.618  0.7618 -1.0357  0.8050
 9834TIP3    H229425   3.458   6.492   3.766 -1.9154 -0.0418  1.0724
 9835TIP3   OH229426   3.059   7.922   4.144 -0.1338 -0.3019  0.1205
 9835TIP3    H129427   3.124   7.868   4.190 -1.3505 -1.3429  0.6379
 9835TIP3    H229428   3.080   7.910   4.051  0.3980 -0.6587  0.2825
 9836TIP3   OH229429   3.169   7.988   4.663 -0.9414 -0.2584  0.1368
 9836TIP3    H129430   3.159   8.061   4.724  0.7726 -1.0355  1.4104
 9836TIP3    H229431   3.151   7.910   4.716  0.1345 -0.9148 -0.4378
 9837TIP3   OH229432   4.422   6.104   2.853  0.2167 -0.0210  0.2201
 9837TIP3    H129433   4.342   6.155   2.847  0.6149  0.5033 -0.7741
 9837TIP3    H229434   4.489   6.168   2.877  0.2925 -0.5035  1.3214
 9838TIP3   OH229435   5.223   0.812   2.138  0.2146 -0.0299 -0.2313
 9838TIP3    H129436   5.216   0.824   2.043  0.2888  0.8975 -0.1197
 9838TIP3    H229437   5.268   0.728   2.147  0.7161  0.1351 -1.0304
 9839TIP3   OH229438   3.300   7.448   3.303  0.5707  0.3146  0.6969
 9839TIP3    H129439   3.386   7.471   3.339  0.5231 -0.4847  1.3324
 9839TIP3    H229440   3.273   7.525   3.254  1.9586  0.3198 -0.0645
 9840TIP3   OH229441   1.503   8.135   2.210 -0.3528  0.0005  0.3096
 9840TIP3    H129442   1.538   8.132   2.299  0.2811  1.1025  0.1102
 9840TIP3    H229443   1.577   8.114   2.154 -0.6930 -0.4466  0.0183
 9841TIP3   OH229444   3.451   6.649   4.059  0.6254 -0.0538  0.8176
 9841TIP3    H129445   3.433   6.567   4.015 -0.1284 -0.5915  2.0995
 9841TIP3    H229446   3.545   6.663   4.046  0.7009 -0.9695  0.3635
 9842TIP3   OH229447   5.439   0.582   3.752  0.2976 -0.4778 -0.0776
 9842TIP3    H129448   5.528   0.611   3.775 -0.6524  1.3075  1.5470
 9842TIP3    H229449   5.393   0.577   3.836 -1.0475 -1.7350 -0.8645
 9843TIP3   OH229450   1.461   7.869   3.593 -0.1478 -0.3416 -0.4487
 9843TIP3    H129451   1.419   7.856   3.508  1.4632 -0.7936 -1.1892
 9843TIP3    H229452   1.539   7.921   3.573  0.6161 -1.0522  0.6540
 9844TIP3   OH229453   1.892   7.285   6.175 -0.3503  1.0242  0.6481
 9844TIP3    H129454   1.851   7.276   6.261  1.1862  1.2395  1.4101
 9844TIP3    H229455   1.972   7.335   6.191 -0.6427  2.0725 -1.0911
 9845TIP3   OH229456   5.692   1.431   0.944 -0.0961 -0.2889  0.1291
 9845TIP3    H129457   5.691   1.523   0.916  0.0706 -0.2474  0.2535
 9845TIP3    H229458   5.785   1.409   0.950 -0.1238 -0.2331  0.8441
 9846TIP3   OH229459   3.566   7.784   3.499 -0.4353  0.3213 -0.2471
 9846TIP3    H129460   3.477   7.820   3.502 -0.5413  0.0036  0.4725
 9846TIP3    H229461   3.597   7.792   3.589  0.3365  0.6120 -0.5416
 9847TIP3   OH229462   4.689   4.750   3.666 -0.2369 -0.1466 -0.6086
 9847TIP3    H129463   4.638   4.669   3.659  0.0588 -0.2222 -2.2260
 9847TIP3    H229464   4.689   4.771   3.759  0.6246 -2.6490  0.0198
 9848TIP3   OH229465   4.273   0.354   1.656 -0.1949  0.4955  0.5147
 9848TIP3    H129466   4.207   0.288   1.634 -0.5511  0.8142  0.6235
 9848TIP3    H229467   4.228   0.437   1.645  0.3271  0.7339  0.1399
 9849TIP3   OH229468   6.103   0.608   4.305 -0.0414 -0.2177 -0.9448
 9849TIP3    H129469   6.120   0.693   4.345  3.2244 -0.3360 -1.8836
 9849TIP3    H229470   6.094   0.548   4.379 -0.0374  0.5681 -0.2977
 9850TIP3   OH229471   4.717   1.605   4.728  0.4759  0.1704  0.1265
 9850TIP3    H129472   4.772   1.571   4.658  1.0365  0.9393  0.1991
 9850TIP3    H229473   4.627   1.595   4.695  0.6196 -1.5715  0.2252
 9851TIP3   OH229474   6.429   0.104   2.679  0.6205 -0.0464  0.3894
 9851TIP3    H129475   6.418   0.019   2.722 -1.9937 -0.3697 -0.8406
 9851TIP3    H229476   6.471   0.159   2.745 -1.8837 -0.9807  2.8328
 9852TIP3   OH229477   4.509   6.233   4.003  0.1064 -0.0705  0.8617
 9852TIP3    H129478   4.440   6.184   3.957  0.7346 -1.5373  1.4407
 9852TIP3    H229479   4.477   6.240   4.093 -0.2053  1.0385  0.6709
 9853TIP3   OH229480   6.878   0.825   4.419  0.3330  0.0919  0.3610
 9853TIP3    H129481   6.810   0.841   4.353  1.5104  0.1983 -0.8492
 9853TIP3    H229482   6.836   0.768   4.483 -0.7379 -0.3080 -0.6667
 9854TIP3   OH229483   4.268   0.869   1.613 -0.3609 -0.4736  0.1795
 9854TIP3    H129484   4.295   0.951   1.655 -0.0496 -1.9987  3.1260
 9854TIP3    H229485   4.175   0.883   1.591 -0.0296  1.0311 -0.3425
 9855TIP3   OH229486   4.039   0.416   0.138 -0.2528  0.2738  0.0353
 9855TIP3    H129487   3.979   0.344   0.158  1.2448 -1.2979 -0.9868
 9855TIP3    H229488   4.096   0.421   0.214  0.7492 -0.8160 -0.6163
 9856TIP3   OH229489   3.440   6.618   5.870  0.3182  0.7116  0.3529
 9856TIP3    H129490   3.410   6.632   5.780 -0.9876  1.4065  0.8807
 9856TIP3    H229491   3.419   6.526   5.888 -1.7897  1.2480  0.7952
 9857TIP3   OH229492   6.044   0.682   2.419 -0.2148 -0.1380  0.3030
 9857TIP3    H129493   6.016   0.648   2.504  2.1172 -1.0790  0.7316
 9857TIP3    H229494   6.098   0.758   2.441 -1.2826  0.8537 -0.4471
 9858TIP3   OH229495   2.042   7.166   3.236 -0.2230  0.5234 -0.7216
 9858TIP3    H129496   1.991   7.176   3.317 -0.5067  0.5714 -0.9040
 9858TIP3    H229497   2.118   7.222   3.248 -0.0231  0.1647 -0.2923
 9859TIP3   OH229498   1.486   7.605   3.664 -0.1004 -0.0088 -0.1243
 9859TIP3    H129499   1.518   7.582   3.751  0.2816 -1.4049 -0.6295
 9859TIP3    H229500   1.500   7.699   3.658  2.5017 -0.3396  0.2459
 9860TIP3   OH229501   3.414   5.342   2.080 -0.4003 -0.6453  0.7901
 9860TIP3    H129502   3.335   5.385   2.114  0.0280  0.4833  0.3764
 9860TIP3    H229503   3.448   5.292   2.155 -1.5683 -1.2333  0.9351
 9861TIP3   OH229504   2.302   8.019   4.175 -0.2464  0.3529  0.2361
 9861TIP3    H129505   2.220   8.026   4.127 -0.1196 -1.0495 -0.2016
 9861TIP3    H229506   2.340   7.936   4.147  1.0569  0.7143  0.8530
 9862TIP3   OH229507   6.518   0.784   3.256 -0.6799  0.0576  0.0729
 9862TIP3    H129508   6.458   0.851   3.223 -0.4729  0.2724  0.1280
 9862TIP3    H229509   6.504   0.708   3.200 -1.8544 -0.2919  0.8128
 9863TIP3   OH229510   5.087   1.690   3.546 -0.4302 -0.0322 -0.5007
 9863TIP3    H129511   5.071   1.784   3.537  0.4905  0.1142 -0.6840
 9863TIP3    H229512   5.057   1.669   3.634 -3.2809 -0.1432 -1.4683
 9864TIP3   OH229513   5.927   0.259   4.746  0.0962 -0.2563 -0.2057
 9864TIP3    H129514   5.963   0.340   4.782  0.0407  0.1581 -1.0684
 9864TIP3    H229515   5.839   0.282   4.715 -0.0760 -0.7380 -0.0870
 9865TIP3   OH229516   2.324   8.329   2.592  0.2070  0.4918 -0.4327
 9865TIP3    H129517   2.366   8.328   2.506  1.3995  0.4203  0.1384
 9865TIP3    H229518   2.285   8.242   2.600  1.3819 -0.0308 -0.2887
 9866TIP3   OH229519   5.242   6.072   3.367 -0.4518  0.6399  0.2385
 9866TIP3    H129520   5.333   6.085   3.395 -0.5149 -0.4833  0.9717
 9866TIP3    H229521   5.190   6.104   3.441 -0.6370  0.4241  0.2013
 9867TIP3   OH229522   3.769   7.976   1.755  0.4555 -0.1673 -0.1810
 9867TIP3    H129523   3.701   7.912   1.738  0.0130  0.3758 -0.4641
 9867TIP3    H229524   3.736   8.029   1.827  0.6150  0.0371 -0.2565
 9868TIP3   OH229525   1.729   7.885   2.944 -0.6920 -0.3325 -0.1664
 9868TIP3    H129526   1.723   7.974   2.979 -2.0860 -0.3714 -0.3002
 9868TIP3    H229527   1.659   7.837   2.987 -0.3990 -1.1932 -0.6283
 9869TIP3   OH229528   6.949   0.957   0.891  0.3498  0.0284 -0.2330
 9869TIP3    H129529   6.915   0.941   0.979 -0.3070 -1.5217 -0.7419
 9869TIP3    H229530   6.957   1.052   0.885  0.1427  0.1671  1.3949
 9870TIP3   OH229531   2.305   6.168   5.375  0.3017  0.1838  0.1526
 9870TIP3    H129532   2.275   6.158   5.285  1.8673  0.9779 -0.4641
 9870TIP3    H229533   2.255   6.102   5.424  0.7636 -1.4932 -1.5730
 9871TIP3   OH229534   5.050   0.612   3.900  0.1304  0.3601 -0.3755
 9871TIP3    H129535   4.966   0.571   3.882  0.4925  0.4515 -2.3778
 9871TIP3    H229536   5.108   0.539   3.924 -0.2263  0.1639 -0.1176
 9872TIP3   OH229537   5.439   0.138   3.090  0.3796  0.6086  0.0651
 9872TIP3    H129538   5.517   0.088   3.064 -0.5083 -0.3955 -0.6716
 9872TIP3    H229539   5.376   0.124   3.019 -0.1289  2.2301  0.1752
 9873TIP3   OH229540   4.947   7.225   0.582 -0.1269  0.0959  0.4494
 9873TIP3    H129541   4.967   7.300   0.525 -0.6392 -1.4201 -1.7746
 9873TIP3    H229542   4.853   7.233   0.599 -0.4146 -0.6834 -0.7483
 9874TIP3   OH229543   1.169   4.918   5.056 -0.1230 -0.4891 -0.2786
 9874TIP3    H129544   1.217   4.870   4.988  2.0012  0.9289  0.1881
 9874TIP3    H229545   1.210   5.004   5.059 -1.4071  0.0948  1.5445
 9875TIP3   OH229546   4.452   8.321   0.392  0.5275  0.8724  0.0945
 9875TIP3    H129547   4.361   8.343   0.372  0.4000 -0.3743 -0.7411
 9875TIP3    H229548   4.468   8.362   0.477 -1.4708 -0.6263  1.2669
 9876TIP3   OH229549   4.183   6.441   3.196  0.0305  0.0198  1.2159
 9876TIP3    H129550   4.092   6.429   3.224 -1.5314  1.2995 -2.9584
 9876TIP3    H229551   4.197   6.535   3.198 -0.3274  0.2116 -2.6009
 9877TIP3   OH229552   3.649   7.645   5.234 -0.4927  0.1322  0.2807
 9877TIP3    H129553   3.609   7.732   5.231  0.1253  0.4848  2.1011
 9877TIP3    H229554   3.579   7.586   5.206 -0.7081  1.2577 -1.6771
 9878TIP3   OH229555   7.647   4.342   6.893 -0.0305  0.6468  0.2787
 9878TIP3    H129556   7.624   4.344   6.800  0.7758 -0.0455  0.0542
 9878TIP3    H229557   7.655   4.434   6.918 -1.0594  0.8484 -0.1307
 9879TIP3   OH229558   4.269   2.357   1.319  0.1601 -0.1560 -0.2813
 9879TIP3    H129559   4.306   2.424   1.261  0.2981 -0.3524 -0.4233
 9879TIP3    H229560   4.326   2.281   1.305  1.3405  0.3645  1.5005
 9880TIP3   OH229561   8.816   1.147   2.795 -0.3890  0.0776 -0.2750
 9880TIP3    H129562   8.814   1.052   2.792 -0.0225 -0.0119  1.5741
 9880TIP3    H229563   8.820   1.174   2.703  0.3848 -1.6988 -0.7877
 9881TIP3   OH229564   2.514   8.248   4.441 -1.0525 -0.3398 -0.0869
 9881TIP3    H129565   2.499   8.289   4.526 -1.5859 -1.6909  0.4885
 9881TIP3    H229566   2.513   8.320   4.378 -0.2942  0.7061  1.0986
 9882TIP3   OH229567   3.861   5.536   3.935 -0.4177  0.1716  0.3201
 9882TIP3    H129568   3.847   5.442   3.927 -0.5903  0.2227  0.0447
 9882TIP3    H229569   3.909   5.560   3.856 -1.2111  0.4818 -0.0717
 9883TIP3   OH229570   3.147   6.721   4.785  0.5727  0.2764  0.3439
 9883TIP3    H129571   3.222   6.671   4.751  0.7093  0.5296  0.2671
 9883TIP3    H229572   3.182   6.810   4.797  0.9135 -0.1455  2.5404
 9884TIP3   OH229573   3.586   7.208   2.936 -0.5029  0.2718  0.0031
 9884TIP3    H129574   3.565   7.120   2.905  1.3248  0.3241 -1.4399
 9884TIP3    H229575   3.680   7.217   2.923 -0.2813  1.6159  2.2830
 9885TIP3   OH229576   2.616   5.745   2.065  0.2170  0.3541 -0.2868
 9885TIP3    H129577   2.612   5.714   1.974  0.0651  1.7495 -0.7684
 9885TIP3    H229578   2.688   5.808   2.066  0.3299  0.2211  0.6073
 9886TIP3   OH229579   5.341   6.484   1.986 -0.1415 -0.7050 -0.0970
 9886TIP3    H129580   5.405   6.472   1.915  0.4608  0.4030  0.2545
 9886TIP3    H229581   5.256   6.482   1.941  0.2308 -0.0719 -0.8520
 9887TIP3   OH229582   4.140   5.912   3.522 -0.3176 -0.1699  0.6826
 9887TIP3    H129583   4.044   5.909   3.529 -0.6624  2.5218 -2.0691
 9887TIP3    H229584   4.162   5.835   3.470 -1.2621  0.6844 -1.0108
 9888TIP3   OH229585   4.138   6.917   5.916  0.0579 -0.5435 -0.3516
 9888TIP3    H129586   4.201   6.889   5.849  1.0391 -0.4516  0.5198
 9888TIP3    H229587   4.083   6.841   5.931 -0.7865 -0.2778 -1.9454
 9889TIP3   OH229588   3.195   7.346   0.540 -0.3742  0.1860  0.6266
 9889TIP3    H129589   3.280   7.360   0.499  0.2841 -1.0753  1.5451
 9889TIP3    H229590   3.156   7.434   0.544 -0.0349  0.4925 -1.7229
 9890TIP3   OH229591   1.163   6.615   3.454  0.2569 -0.1670  0.2864
 9890TIP3    H129592   1.150   6.697   3.407 -1.3892 -0.3076  0.4688
 9890TIP3    H229593   1.080   6.599   3.498 -0.5364 -3.4607 -2.2002
 9891TIP3   OH229594   2.757   7.956   5.712  0.0589  0.3171 -0.0200
 9891TIP3    H129595   2.707   7.968   5.793  1.4211  1.1607  0.7011
 9891TIP3    H229596   2.817   8.030   5.709  1.5393 -0.8774 -0.6848
 9892TIP3   OH229597   3.421   7.322   6.672 -0.0485  0.1300 -0.2217
 9892TIP3    H129598   3.492   7.259   6.685 -0.2899 -0.2604 -0.7726
 9892TIP3    H229599   3.465   7.402   6.642 -0.1462 -1.3114 -4.5123
 9893TIP3   OH229600   4.769   7.048   1.652 -0.2970 -0.4507  0.2582
 9893TIP3    H129601   4.857   7.082   1.671 -0.6613  0.3753  0.5114
 9893TIP3    H229602   4.766   7.042   1.557  0.0750 -0.5831  0.2554
 9894TIP3   OH229603   2.780   5.871   3.162 -0.1021  0.2886 -0.1701
 9894TIP3    H129604   2.745   5.860   3.073  0.0987  0.9120 -0.3265
 9894TIP3    H229605   2.863   5.916   3.150 -0.2153  0.6442  0.3609
 9895TIP3   OH229606   2.210   6.964   6.262  0.5727 -0.1484  0.3627
 9895TIP3    H129607   2.157   6.969   6.182 -1.1901 -0.9755  1.4421
 9895TIP3    H229608   2.170   7.027   6.321  0.1280 -1.5085  1.5560
 9896TIP3   OH229609   2.538   7.302   5.040  0.0672  0.3100  0.4948
 9896TIP3    H129610   2.489   7.349   5.107 -0.5602  0.9637 -0.4104
 9896TIP3    H229611   2.524   7.209   5.062 -2.0280  0.4625 -0.0361
 9897TIP3   OH229612   2.835   5.375   4.543 -0.4631 -0.0507  0.3480
 9897TIP3    H129613   2.761   5.435   4.544  0.2283  0.8442 -0.7073
 9897TIP3    H229614   2.875   5.384   4.630 -0.5989  0.7090  0.3318
 9898TIP3   OH229615   2.218   5.539   6.809  0.1897 -0.2961 -0.5757
 9898TIP3    H129616   2.252   5.600   6.744 -1.7196  1.1095 -0.2826
 9898TIP3    H229617   2.245   5.453   6.777  3.3248  0.6794 -0.7457
 9899TIP3   OH229618   4.546   6.001   3.691  0.5082  0.6586 -0.7972
 9899TIP3    H129619   4.617   6.053   3.728  0.9414 -1.1871  1.1034
 9899TIP3    H229620   4.487   5.985   3.765  1.1451 -2.7569 -0.9092
 9900TIP3   OH229621   5.423   7.019   1.860 -0.1714 -0.2750  0.2332
 9900TIP3    H129622   5.460   7.064   1.936 -0.3107 -0.3821  0.3661
 9900TIP3    H229623   5.440   6.926   1.877  0.4789 -0.2449 -0.2370
 9901TIP3   OH229624   4.028   7.435   2.779  0.8476  0.1998  0.2750
 9901TIP3    H129625   3.985   7.518   2.799 -1.2691 -1.0628  1.1056
 9901TIP3    H229626   4.055   7.442   2.688 -1.9051  0.7079 -0.5186
 9902TIP3   OH229627   3.370   7.970   3.462 -0.7524 -0.0524 -0.7512
 9902TIP3    H129628   3.398   8.014   3.542  1.0826 -0.3681 -1.1877
 9902TIP3    H229629   3.304   8.028   3.424 -0.4275  0.9186  0.1395
 9903TIP3   OH229630   2.148   7.260   4.586  0.0539  0.0917 -0.3029
 9903TIP3    H129631   2.106   7.304   4.660 -0.5234  1.4311 -1.4010
 9903TIP3    H229632   2.214   7.203   4.626 -2.3307 -1.5636  1.4125
 9904TIP3   OH229633   7.556   0.099   4.209 -0.1715 -0.4317  0.4712
 9904TIP3    H129634   7.562   0.175   4.267 -1.4904 -0.8866  1.2232
 9904TIP3    H229635   7.647   0.076   4.190  0.3082 -0.7486  2.9893
 9905TIP3   OH229636   2.677   6.363   2.368  0.6063  0.3172  0.1220
 9905TIP3    H129637   2.712   6.450   2.386  0.2957  0.4624  0.0330
 9905TIP3    H229638   2.635   6.370   2.282  1.1864 -0.1049 -0.1995
 9906TIP3   OH229639   1.535   8.063   4.082  0.3315  0.1269 -0.6462
 9906TIP3    H129640   1.447   8.075   4.117 -0.1697  0.0259 -1.8436
 9906TIP3    H229641   1.593   8.083   4.156 -0.6071  3.5289 -0.7401
 9907TIP3   OH229642   4.082   5.065   1.862  0.2175 -0.3204  0.3441
 9907TIP3    H129643   3.998   5.020   1.857 -0.4618  0.9868 -0.2205
 9907TIP3    H229644   4.081   5.111   1.946 -1.1813  2.6332 -1.2050
 9908TIP3   OH229645   7.219   0.419   3.432  0.2186  0.3638  0.0896
 9908TIP3    H129646   7.250   0.435   3.521  2.4745 -0.1610 -0.5634
 9908TIP3    H229647   7.259   0.336   3.408 -2.3251 -0.7043 -0.5708
 9909TIP3   OH229648   2.367   5.669   1.597 -0.2081 -0.2864 -0.0853
 9909TIP3    H129649   2.373   5.608   1.670  1.7580 -1.3825 -1.1123
 9909TIP3    H229650   2.454   5.709   1.591 -0.4560  0.0942 -1.5377
 9910TIP3   OH229651   3.224   7.344   4.414  0.1302 -0.4547  0.2299
 9910TIP3    H129652   3.143   7.373   4.456  0.3763 -0.1330  0.4876
 9910TIP3    H229653   3.196   7.280   4.349 -0.3928  0.1119 -0.1037
 9911TIP3   OH229654   6.718   0.575   3.509  0.0575  0.0791  0.5437
 9911TIP3    H129655   6.768   0.562   3.590  0.4426  0.1468  0.3151
 9911TIP3    H229656   6.758   0.652   3.469  2.5735 -2.3288 -1.7870
 9912TIP3   OH229657   5.084   2.235   1.468  0.3129  0.2535 -0.1175
 9912TIP3    H129658   5.041   2.168   1.521 -0.8771  2.1257  1.3868
 9912TIP3    H229659   5.153   2.270   1.525  0.3247  0.9099 -0.5252
 9913TIP3   OH229660   3.316   6.977   2.426  0.5040  0.0479 -0.0341
 9913TIP3    H129661   3.225   6.969   2.396  0.2643  1.5505  0.2798
 9913TIP3    H229662   3.323   6.912   2.497 -1.0864  1.7173  1.7106
 9914TIP3   OH229663   4.851   1.383   4.524  0.2132 -0.1481 -0.4741
 9914TIP3    H129664   4.839   1.313   4.460 -0.1284 -0.3863 -0.1539
 9914TIP3    H229665   4.816   1.347   4.605  0.2762  0.3000 -0.2480
 9915TIP3   OH229666   4.285   8.200   3.518  0.6246  0.7478 -0.3839
 9915TIP3    H129667   4.327   8.264   3.575 -0.1409  0.6910  0.2501
 9915TIP3    H229668   4.329   8.117   3.538 -0.8307  0.3766  1.4231
 9916TIP3   OH229669   2.645   7.931   5.115  0.0177  0.2550 -0.3589
 9916TIP3    H129670   2.626   8.001   5.178  0.7503  0.1341  0.0027
 9916TIP3    H229671   2.733   7.901   5.138  0.6430  0.7846 -1.9552
 9917TIP3   OH229672   1.668   7.357   2.450 -0.5512  0.4472  0.4106
 9917TIP3    H129673   1.742   7.365   2.390  0.3452  2.0448  1.7031
 9917TIP3    H229674   1.669   7.265   2.476  0.2588  0.1942 -0.4765
 9918TIP3   OH229675   3.828   7.201   3.997  0.0904 -0.6687 -0.2251
 9918TIP3    H129676   3.885   7.181   3.923  1.2285  1.0704  0.1509
 9918TIP3    H229677   3.857   7.140   4.066  2.8629  1.4663  0.5973
 9919TIP3   OH229678   2.899   7.011   2.091  0.2322  0.4284 -0.0769
 9919TIP3    H129679   2.832   6.942   2.090  1.3625 -0.6914  0.1646
 9919TIP3    H229680   2.892   7.050   2.178 -0.9121  1.1402 -0.4701
 9920TIP3   OH229681   4.630   6.332   4.291 -0.1222  0.4411 -0.2613
 9920TIP3    H129682   4.581   6.386   4.353 -1.0747 -0.6000 -0.0862
 9920TIP3    H229683   4.672   6.394   4.232 -2.5082  1.3694 -1.0575
 9921TIP3   OH229684   5.227   1.566   4.295 -0.1949  0.2038  0.1309
 9921TIP3    H129685   5.239   1.539   4.204  0.1725 -1.0019  0.5275
 9921TIP3    H229686   5.289   1.638   4.307  0.0722  0.0758 -0.4495
 9922TIP3   OH229687   4.055   7.361   3.068  0.1665  0.2531  0.5477
 9922TIP3    H129688   4.026   7.398   2.984  0.6394 -2.3815 -0.8186
 9922TIP3    H229689   3.974   7.350   3.118  0.0077  3.1171  1.0402
 9923TIP3   OH229690   4.322   0.223   3.013 -0.4643  0.4158  0.4116
 9923TIP3    H129691   4.338   0.259   3.101  0.3777  0.8532  0.0933
 9923TIP3    H229692   4.247   0.165   3.023 -0.6348  0.7952  1.3384
 9924TIP3   OH229693   3.518   7.903   6.691  0.3242 -0.7781 -0.5568
 9924TIP3    H129694   3.454   7.894   6.621  0.4972 -0.1490 -0.7973
 9924TIP3    H229695   3.531   7.997   6.700  2.8909 -0.9607 -2.0224
 9925TIP3   OH229696   1.139   8.348   4.596  0.7989 -0.7097  0.1374
 9925TIP3    H129697   1.065   8.329   4.539  0.8382 -1.8040  0.4338
 9925TIP3    H229698   1.212   8.298   4.559  0.9585 -0.9917  0.8217
 9926TIP3   OH229699   4.771   0.299   4.594  0.3308 -0.1487 -0.5191
 9926TIP3    H129700   4.746   0.350   4.672  0.9967  0.8021 -0.9249
 9926TIP3    H229701   4.701   0.315   4.531 -0.3598 -1.1516 -0.0283
 9927TIP3   OH229702   3.314   7.849   2.136  0.3095 -0.9022  0.2428
 9927TIP3    H129703   3.272   7.813   2.058 -2.8859 -0.4734  1.6916
 9927TIP3    H229704   3.294   7.785   2.205  2.1963 -0.7497  0.9425
 9928TIP3   OH229705   7.708   0.903   3.315  0.3582  0.1855 -0.2975
 9928TIP3    H129706   7.742   0.977   3.364  4.5489  0.1388 -2.9251
 9928TIP3    H229707   7.727   0.827   3.369  0.2541  0.5967  0.3186
 9929TIP3   OH229708   5.113   1.379   0.206  0.3267  0.1396 -0.3933
 9929TIP3    H129709   5.122   1.459   0.257  0.2465 -0.1260  0.0365
 9929TIP3    H229710   5.123   1.308   0.269  1.5174 -0.2108 -0.9581
 9930TIP3   OH229711   5.041   1.966   3.494 -0.1685  0.1228  0.0880
 9930TIP3    H129712   5.097   2.030   3.450  0.3849  0.2772  0.9955
 9930TIP3    H229713   4.987   2.017   3.554  0.1273 -0.2133  0.6609
 9931TIP3   OH229714   3.863   6.096   1.799  0.1298 -0.1044 -0.1083
 9931TIP3    H129715   3.769   6.076   1.804  0.0651  0.3908  0.7865
 9931TIP3    H229716   3.906   6.015   1.824 -0.0323 -0.7085 -1.7388
 9932TIP3   OH229717   3.202   7.757   4.797 -0.2331  0.4157  0.3941
 9932TIP3    H129718   3.152   7.678   4.820  0.1897  0.0856  0.1868
 9932TIP3    H229719   3.255   7.730   4.722 -0.2436  0.9620  0.1920
 9933TIP3   OH229720   3.944   0.111   3.919 -0.6630 -0.4803  0.0877
 9933TIP3    H129721   4.022   0.068   3.955 -0.3309  0.0965  0.0621
 9933TIP3    H229722   3.881   0.040   3.906 -0.0715 -0.9779 -0.0775
 9934TIP3   OH229723   2.391   8.048   0.879  0.1231 -0.1908 -0.1523
 9934TIP3    H129724   2.366   8.027   0.969 -1.5595  2.0623 -0.0648
 9934TIP3    H229725   2.354   7.977   0.827  0.2650 -0.9820  0.7952
 9935TIP3   OH229726   3.933   7.007   3.765 -0.5802 -0.6172 -0.0507
 9935TIP3    H129727   3.843   6.990   3.791 -0.4908 -0.6526  0.2408
 9935TIP3    H229728   3.981   6.929   3.792 -0.6608 -1.0877 -1.2451
 9936TIP3   OH229729   1.996   5.044   3.476  0.0284  0.1029 -0.3326
 9936TIP3    H129730   1.997   5.074   3.567 -1.9528  0.9535 -0.5505
 9936TIP3    H229731   1.934   4.971   3.476 -0.8576  0.8303 -1.1775
 9937TIP3   OH229732   1.248   7.969   0.689  0.2298 -0.2076 -0.2938
 9937TIP3    H129733   1.328   8.022   0.679  1.1715 -1.6484 -0.6862
 9937TIP3    H229734   1.258   7.900   0.623 -2.2537  0.6605 -1.6657
 9938TIP3   OH229735   6.979   0.298   1.198 -0.4154  0.1294 -0.6806
 9938TIP3    H129736   6.953   0.355   1.126  0.9751  1.9034  0.1842
 9938TIP3    H229737   6.932   0.331   1.274  0.6233  0.3087 -0.1107
 9939TIP3   OH229738   2.083   6.443   2.755  0.2010 -0.4411  0.7070
 9939TIP3    H129739   2.137   6.385   2.702  0.8759 -0.4439  1.3952
 9939TIP3    H229740   1.996   6.403   2.754  0.4296 -0.9313  0.3692
 9940TIP3   OH229741   2.475   6.962   3.384  0.1621 -0.5203 -0.3781
 9940TIP3    H129742   2.431   6.886   3.421  0.6571  1.0267  3.7241
 9940TIP3    H229743   2.565   6.933   3.369  1.0070 -0.2158  3.4699
 9941TIP3   OH229744   3.609   5.990   1.829  0.0464  0.4373  0.7445
 9941TIP3    H129745   3.588   6.002   1.736  0.1617  0.6337  0.7432
 9941TIP3    H229746   3.578   5.901   1.849 -0.0066  0.4049  0.5262
 9942TIP3   OH229747   7.962   0.028   3.526  0.3908 -0.7302 -0.3347
 9942TIP3    H129748   8.052   0.027   3.558  0.0111  0.1149  0.7820
 9942TIP3    H229749   7.915   0.084   3.588 -1.1741 -2.2036 -0.1535
 9943TIP3   OH229750   2.691   7.455   3.244  0.3494 -0.3760  0.4775
 9943TIP3    H129751   2.606   7.492   3.266  1.4212  1.5782  1.4919
 9943TIP3    H229752   2.753   7.505   3.296  2.3037 -0.5064 -1.6214
 9944TIP3   OH229753   3.581   7.525   3.399  0.0861 -0.0845 -0.3572
 9944TIP3    H129754   3.579   7.605   3.451  1.5742  0.0123 -0.4265
 9944TIP3    H229755   3.670   7.522   3.363  0.5088 -2.5031  0.7884
 9945TIP3   OH229756   3.070   8.204   3.658  0.2099 -0.3567  0.0293
 9945TIP3    H129757   3.143   8.254   3.621 -0.7352  0.8837 -0.2234
 9945TIP3    H229758   3.023   8.170   3.582  0.7026 -1.4081  0.1977
 9946TIP3   OH229759   2.527   7.267   4.361 -0.1648  0.1526 -0.3803
 9946TIP3    H129760   2.621   7.258   4.372 -0.3589 -1.5229 -0.0303
 9946TIP3    H229761   2.489   7.204   4.422 -1.5480  1.8878  0.5863
 9947TIP3   OH229762   4.708   0.130   3.166  0.1336  0.0447  0.1746
 9947TIP3    H129763   4.782   0.077   3.137 -1.2608 -1.4096 -0.8242
 9947TIP3    H229764   4.690   0.100   3.255 -0.6963 -1.2437 -0.4156
 9948TIP3   OH229765   4.078   7.861   2.919  0.6461 -0.4140 -0.3407
 9948TIP3    H129766   4.090   7.926   2.850  1.3779  0.3100  0.4533
 9948TIP3    H229767   4.161   7.814   2.922  0.5253 -0.6151 -0.1373
 9949TIP3   OH229768   2.398   5.231   1.710  0.1668  0.0297 -0.1611
 9949TIP3    H129769   2.441   5.180   1.779  1.5737  0.2217 -0.8773
 9949TIP3    H229770   2.350   5.165   1.660  3.1729 -0.9147 -1.9871
 9950TIP3   OH229771   2.490   7.001   5.395 -0.6188 -0.4257  0.4131
 9950TIP3    H129772   2.495   6.964   5.484  3.3641  0.8945  0.8308
 9950TIP3    H229773   2.473   7.094   5.408  2.4819  0.2616 -0.0067
 9951TIP3   OH229774   1.475   7.880   5.146  0.3074  0.7546 -0.2223
 9951TIP3    H129775   1.447   7.968   5.118 -0.7589 -0.0448 -1.7436
 9951TIP3    H229776   1.548   7.859   5.087  0.4853  0.5743  0.0652
 9952TIP3   OH229777   6.211   0.071   3.942  0.1975 -0.1566 -0.3529
 9952TIP3    H129778   6.117   0.068   3.925  0.1722 -0.4963 -0.1512
 9952TIP3    H229779   6.251   0.069   3.855  0.0139  0.1545 -0.4437
 9953TIP3   OH229780   6.747   0.038   1.272  0.5104 -0.3988  0.1335
 9953TIP3    H129781   6.757   0.096   1.197 -0.6272  1.2010  1.1830
 9953TIP3    H229782   6.710  -0.042   1.236 -0.6290  0.5840 -0.9408
 9954TIP3   OH229783   6.591   0.310   6.139  0.7460  0.3341 -0.4488
 9954TIP3    H129784   6.531   0.239   6.163 -0.1052  1.1538 -0.1246
 9954TIP3    H229785   6.658   0.268   6.086 -1.3018 -0.2395 -2.6500
 9955TIP3   OH229786   2.841   7.845   2.943 -0.4019  0.2338  0.4567
 9955TIP3    H129787   2.786   7.768   2.926 -0.2990  0.1549  0.4791
 9955TIP3    H229788   2.920   7.830   2.890  0.3049 -0.4386  1.6831
 9956TIP3   OH229789   3.367   6.950   5.796 -0.0462  0.3558  0.0388
 9956TIP3    H129790   3.449   6.900   5.793 -0.1849  0.1501 -0.3322
 9956TIP3    H229791   3.299   6.886   5.780 -0.4409  0.1794  2.2630
 9957TIP3   OH229792   3.128   7.671   1.771 -0.4812 -0.5301 -0.1655
 9957TIP3    H129793   3.217   7.703   1.780 -0.5947  0.4418 -2.1010
 9957TIP3    H229794   3.133   7.578   1.792  0.1945  0.3383  3.7916
 9958TIP3   OH229795   4.291   7.861   4.909 -0.3930  0.0115 -0.0041
 9958TIP3    H129796   4.241   7.846   4.990  0.5540 -1.7314  0.2963
 9958TIP3    H229797   4.371   7.905   4.939 -0.6998  0.6953 -0.1862
 9959TIP3   OH229798   5.389   7.032   2.718 -0.2096  0.2059  0.0664
 9959TIP3    H129799   5.384   6.955   2.775  0.1498 -0.5385 -0.8855
 9959TIP3    H229800   5.394   7.106   2.778  1.2795 -0.6415  1.0217
 9960TIP3   OH229801   6.152   0.628   3.509  0.0770 -0.0574 -0.3748
 9960TIP3    H129802   6.187   0.716   3.527  0.2455 -0.6163  2.0982
 9960TIP3    H229803   6.060   0.643   3.490  0.0332  0.6191  0.3437
 9961TIP3   OH229804   7.040   0.929   4.037  0.3533 -0.1532 -0.7345
 9961TIP3    H129805   6.965   0.978   4.005  0.1746 -0.5884 -0.9884
 9961TIP3    H229806   7.067   0.875   3.963  2.2772  1.5941 -1.3588
 9962TIP3   OH229807   2.609   6.926   4.113  0.4374 -0.3564  0.1807
 9962TIP3    H129808   2.633   6.978   4.036 -2.8050  0.7168 -0.1867
 9962TIP3    H229809   2.570   6.847   4.077  0.4875 -0.6334  0.7282
 9963TIP3   OH229810   0.094   7.599   3.837 -0.1167  0.3247  0.1579
 9963TIP3    H129811   0.068   7.507   3.846  0.1803  0.1656 -0.5346
 9963TIP3    H229812   0.179   7.595   3.794  0.8071  0.8535  1.8728
 9964TIP3   OH229813   2.720   6.641   1.014  0.2218  0.0884  0.3202
 9964TIP3    H129814   2.741   6.702   1.085 -1.3124  0.7281  0.2359
 9964TIP3    H229815   2.769   6.674   0.938  1.2230 -0.1336  0.8662
 9965TIP3   OH229816   2.117   7.506   5.119  0.4971  0.1323  0.3076
 9965TIP3    H129817   2.081   7.515   5.207  1.7116  1.4775  0.6882
 9965TIP3    H229818   2.167   7.425   5.121 -0.5279 -0.5043  0.4728
 9966TIP3   OH229819   1.312   3.707   7.238  0.1396  0.3612  0.1759
 9966TIP3    H129820   1.345   3.743   7.320  0.8721  0.4299 -0.1539
 9966TIP3    H229821   1.269   3.781   7.195  2.1890  0.9991 -0.7929
 9967TIP3   OH229822   4.675   6.169   3.047 -0.6295 -0.2748  0.0847
 9967TIP3    H129823   4.637   6.243   3.000  1.5868  1.7296  1.2782
 9967TIP3    H229824   4.766   6.167   3.017  0.2890 -0.2049  2.6977
 9968TIP3   OH229825   1.020   7.631   5.396 -0.6466  0.3787 -0.6557
 9968TIP3    H129826   1.074   7.552   5.402 -1.6468 -0.3069 -0.7116
 9968TIP3    H229827   1.052   7.687   5.467  0.1790  0.0007 -0.7199
 9969TIP3   OH229828   3.298   6.805   3.187 -0.0996 -0.3660  0.6967
 9969TIP3    H129829   3.204   6.821   3.182 -0.0998 -0.1785  1.2229
 9969TIP3    H229830   3.338   6.883   3.147 -0.1942 -1.1081 -0.8706
 9970TIP3   OH229831   6.702   0.219   5.476 -0.2092  0.0896 -0.6647
 9970TIP3    H129832   6.737   0.307   5.488  0.5771 -0.1396 -1.2512
 9970TIP3    H229833   6.665   0.196   5.562  0.0965  0.7618 -0.3482
 9971TIP3   OH229834   3.455   8.193   1.047 -0.1289 -0.0186  0.3403
 9971TIP3    H129835   3.490   8.246   0.976 -0.3990 -1.0542 -0.5770
 9971TIP3    H229836   3.363   8.180   1.024  0.0366 -1.2524  0.3155
 9972TIP3   OH229837   4.792   7.838   4.843  0.1319 -0.2458 -0.0355
 9972TIP3    H129838   4.759   7.784   4.916  1.7346  0.6143  1.3536
 9972TIP3    H229839   4.883   7.854   4.865  1.2208 -1.6388 -3.2814
 9973TIP3   OH229840   3.063   5.854   6.151  0.0706 -0.8160 -0.1788
 9973TIP3    H129841   3.158   5.852   6.142 -0.0109  0.8023 -1.6085
 9973TIP3    H229842   3.047   5.916   6.222 -0.0052  1.2032 -1.9197
 9974TIP3   OH229843   1.489   7.389   4.885 -0.1691  0.5650  0.7380
 9974TIP3    H129844   1.417   7.326   4.882 -0.1795  0.6465 -0.8485
 9974TIP3    H229845   1.495   7.413   4.978 -0.6925 -1.1504  1.2353
 9975TIP3   OH229846   7.451   1.896   4.277  0.8415 -0.5159  0.2770
 9975TIP3    H129847   7.411   1.810   4.288  0.9403 -0.4154  1.4942
 9975TIP3    H229848   7.391   1.957   4.321  1.6140 -0.1859  0.8894
 9976TIP3   OH229849   3.866   6.935   6.728 -0.0685  0.6352 -0.2636
 9976TIP3    H129850   3.914   6.875   6.670  1.7128  1.8676 -0.1048
 9976TIP3    H229851   3.806   6.878   6.776  2.3171 -1.2429  0.6454
 9977TIP3   OH229852   2.080   6.393   3.343 -0.3372  0.1251  0.6644
 9977TIP3    H129853   2.062   6.436   3.259  1.3206  0.2459  0.3490
 9977TIP3    H229854   2.042   6.306   3.334  1.0662 -0.3536 -0.7457
 9978TIP3   OH229855   4.706   7.126   4.159 -0.5418  0.2060 -0.4385
 9978TIP3    H129856   4.663   7.110   4.242 -0.0694  1.3198  0.0356
 9978TIP3    H229857   4.639   7.109   4.093 -1.0491 -0.2385  0.1911
 9979TIP3   OH229858   0.634   7.999   2.437  0.1804 -0.3005 -0.5632
 9979TIP3    H129859   0.552   8.015   2.390  1.0810 -0.7341 -2.2920
 9979TIP3    H229860   0.639   7.904   2.445 -0.6546 -0.2047  1.7012
 9980TIP3   OH229861   4.579   1.283   0.945 -0.8174 -0.4893 -0.5190
 9980TIP3    H129862   4.586   1.273   1.040  0.5948 -2.8023 -0.8261
 9980TIP3    H229863   4.513   1.218   0.920 -0.5198 -0.5164 -1.2312
 9981TIP3   OH229864   4.196   0.071   5.035  0.0571 -0.0314 -0.5630
 9981TIP3    H129865   4.246   0.108   5.107  0.6499 -1.7039 -0.0975
 9981TIP3    H229866   4.260   0.056   4.965 -0.1534 -0.2895 -0.7032
 9982TIP3   OH229867   4.226   6.903   4.159 -0.2237 -0.3120 -0.1760
 9982TIP3    H129868   4.215   6.812   4.133 -0.1358 -1.2480  2.9152
 9982TIP3    H229869   4.320   6.919   4.153 -0.3702 -0.0023 -1.9582
 9983TIP3   OH229870   4.068   7.798   3.271  0.0030  0.4518  0.5216
 9983TIP3    H129871   4.013   7.736   3.222  1.3775 -1.4367  1.2965
 9983TIP3    H229872   4.008   7.865   3.301 -1.3345  0.1606 -1.3939
 9984TIP3   OH229873   3.512   7.450   4.358  0.1281  0.3808  0.7513
 9984TIP3    H129874   3.507   7.536   4.399  0.6739  0.3652  0.8480
 9984TIP3    H229875   3.420   7.425   4.344 -0.0519  0.5315  1.6502
 9985TIP3   OH229876   3.851   7.478   2.459  0.3072  0.0019  0.0491
 9985TIP3    H129877   3.836   7.384   2.450  1.5123 -0.3951  1.7359
 9985TIP3    H229878   3.873   7.508   2.371 -1.9896 -0.9221 -0.8520
 9986TIP3   OH229879   3.940   7.701   3.751  0.2528 -0.6042 -0.1068
 9986TIP3    H129880   3.904   7.630   3.804 -0.7930 -0.2897 -0.3753
 9986TIP3    H229881   4.021   7.666   3.715  0.2737 -1.2965  0.5947
 9987TIP3   OH229882   5.632   6.580   4.627  0.0591  0.7201 -0.4288
 9987TIP3    H129883   5.718   6.620   4.620 -1.2791  3.7573 -0.0698
 9987TIP3    H229884   5.643   6.510   4.691  2.5327  0.1536 -1.3917
 9988TIP3   OH229885   5.955   0.543   2.671 -0.3440 -1.0941 -0.4409
 9988TIP3    H129886   5.949   0.467   2.728  1.9186 -0.0889  1.2385
 9988TIP3    H229887   5.975   0.616   2.730 -2.4490  0.8108 -2.0124
 9989TIP3   OH229888   3.443   5.176   2.284  0.1770 -0.4578  0.0704
 9989TIP3    H129889   3.447   5.086   2.252 -0.7472 -1.1701  1.8535
 9989TIP3    H229890   3.366   5.177   2.341 -0.2500  1.6609 -0.5040
 9990TIP3   OH229891   4.368   6.299   2.584  0.1269 -0.5827 -0.1716
 9990TIP3    H129892   4.332   6.304   2.673 -1.0835 -0.1113 -0.6693
 9990TIP3    H229893   4.463   6.303   2.596 -0.0901  2.0579  0.9341
 9991TIP3   OH229894   2.621   7.356   1.463 -0.1192  0.0169  0.1033
 9991TIP3    H129895   2.622   7.452   1.453 -1.6351  0.2296  1.7730
 9991TIP3    H229896   2.694   7.337   1.521 -2.0742  0.5980  2.8866
 9992TIP3   OH229897   4.682   0.172   4.882 -0.2039 -0.7371  0.0136
 9992TIP3    H129898   4.689   0.265   4.902  1.0146 -0.5100 -1.3716
 9992TIP3    H229899   4.701   0.128   4.965  2.9876  0.2007 -0.1446
 9993TIP3   OH229900   2.743   7.277   4.058  0.1271  0.2431 -0.2099
 9993TIP3    H129901   2.751   7.261   4.153 -0.7786  0.3871 -0.1081
 9993TIP3    H229902   2.796   7.355   4.042  0.3570  0.1652  0.1656
 9994TIP3   OH229903   4.516   6.812   2.667  0.1690 -0.1288  0.1147
 9994TIP3    H129904   4.443   6.758   2.637 -0.2679  0.7141 -0.3949
 9994TIP3    H229905   4.583   6.801   2.599  0.4095 -0.6990  0.4479
 9995TIP3   OH229906   3.690   7.498   2.689  0.1000 -0.6550 -0.0513
 9995TIP3    H129907   3.709   7.591   2.689 -0.8950 -0.4458  0.2904
 9995TIP3    H229908   3.709   7.469   2.600  0.9480 -0.2418 -0.0061
 9996TIP3   OH229909   4.894   7.855   0.364 -0.1939 -0.1235  0.3030
 9996TIP3    H129910   4.823   7.810   0.410  0.8933 -0.4710  1.6799
 9996TIP3    H229911   4.884   7.947   0.388  0.0453 -0.2257  0.7997
 9997TIP3   OH229912   3.242   6.280   4.699  0.3062 -0.1795 -0.3821
 9997TIP3    H129913   3.314   6.314   4.752  0.3187 -1.0310  0.1470
 9997TIP3    H229914   3.190   6.358   4.678 -1.4360 -0.1963  3.4732
 9998TIP3   OH229915   2.785   7.241   3.559 -0.0750 -0.0210 -0.2104
 9998TIP3    H129916   2.830   7.267   3.640  2.4361 -0.6289 -1.3888
 9998TIP3    H229917   2.794   7.146   3.556 -1.5651 -0.1689 -0.4145
 9999TIP3   OH229918   2.015   7.659   5.636 -0.7064 -0.1439 -0.0581
 9999TIP3    H129919   1.978   7.572   5.641 -1.3974  0.0743 -1.3128
 9999TIP3    H229920   1.973   7.708   5.707 -0.3015 -0.8210  0.6548
10000TIP3   OH229921   3.477   6.176   4.141 -0.2437 -0.2490  0.0995
10000TIP3    H129922   3.417   6.180   4.216 -0.3399 -3.0647  0.2429
10000TIP3    H229923   3.446   6.101   4.090  3.7737 -2.5174  0.7767
10001TIP3   OH229924   4.764   7.518   2.795  0.3548 -0.3613 -0.2458
10001TIP3    H129925   4.723   7.462   2.729 -0.2481  0.5508 -0.6452
10001TIP3    H229926   4.790   7.597   2.747 -0.2075  0.3651  0.6413
10002TIP3   OH229927   2.487   6.532   5.274  0.1830 -0.1460  0.2220
10002TIP3    H129928   2.437   6.589   5.215 -0.3034 -1.1786 -0.3819
10002TIP3    H229929   2.438   6.534   5.357  0.0343  0.1355  0.1270
10003TIP3   OH229930   1.344   7.266   3.833  0.3659 -0.4524  0.0990
10003TIP3    H129931   1.356   7.209   3.909 -0.6110 -1.5621 -0.5531
10003TIP3    H229932   1.400   7.228   3.765 -1.8596 -1.9270 -0.9891
10004TIP3   OH229933   3.786   6.183   2.546  0.2113 -0.2727 -0.5085
10004TIP3    H129934   3.831   6.265   2.522 -0.3984  0.6146  1.2638
10004TIP3    H229935   3.727   6.166   2.473  1.3851  0.0873 -1.5611
10005TIP3   OH229936   3.440   4.915   2.183  0.5758  0.2700  0.1155
10005TIP3    H129937   3.501   4.845   2.160  2.9540  1.8654  1.3218
10005TIP3    H229938   3.356   4.888   2.145  1.3553 -3.3368  0.8019
10006TIP3   OH229939   1.113   7.910   1.416 -0.0724 -0.2097 -0.3982
10006TIP3    H129940   1.025   7.873   1.423  0.2536 -1.1462 -1.0653
10006TIP3    H229941   1.099   8.002   1.395 -0.9021 -0.0999  0.6047
10007TIP3   OH229942   5.778   1.290   2.143  0.7425 -0.9891  0.3940
10007TIP3    H129943   5.754   1.254   2.228  1.5082 -0.7250  0.7231
10007TIP3    H229944   5.789   1.384   2.159 -0.6222 -0.6894 -0.3213
10008TIP3   OH229945   2.065   8.087   2.932  0.3348  0.5005 -0.2795
10008TIP3    H129946   2.101   8.106   3.018  0.9225 -0.3415 -0.3267
10008TIP3    H229947   2.141   8.085   2.874  0.2996 -1.8252 -0.2883
10009TIP3   OH229948   3.653   6.863   5.145 -0.0048 -0.2542 -0.3562
10009TIP3    H129949   3.732   6.851   5.198 -0.3741  0.5045  0.3885
10009TIP3    H229950   3.586   6.812   5.191 -0.8202  2.0299  1.0729
10010TIP3   OH229951   5.564   1.315   3.912  0.0592  0.3892  0.0546
10010TIP3    H129952   5.515   1.278   3.838  0.6677  0.8283 -0.5653
10010TIP3    H229953   5.585   1.404   3.885  0.5007  0.4710  0.6612
10011TIP3   OH229954   6.407   0.549   3.162 -0.3201  0.0039 -0.1173
10011TIP3    H129955   6.449   0.470   3.196 -1.3907  1.4071  4.9775
10011TIP3    H229956   6.314   0.534   3.175 -0.8000  0.7221 -2.4675
10012TIP3   OH229957   2.050   7.344   3.759  0.3947 -0.6658 -0.1250
10012TIP3    H129958   2.042   7.249   3.762  2.6729 -0.8419  2.1952
10012TIP3    H229959   2.116   7.361   3.692  0.5408 -0.7751 -0.0096
10013TIP3   OH229960   1.853   7.684   2.769 -0.4778  0.4668  0.0779
10013TIP3    H129961   1.822   7.752   2.829  1.6277  1.6423 -0.1251
10013TIP3    H229962   1.772   7.644   2.735 -1.6997  0.7269  2.5740
10014TIP3   OH229963   7.079   1.751   3.137 -0.1432 -0.2853  0.1730
10014TIP3    H129964   7.128   1.728   3.058  1.2240  1.7351  0.3990
10014TIP3    H229965   7.051   1.841   3.123 -0.5555 -0.1600  1.6732
10015TIP3   OH229966   5.116   0.525   3.167  0.4247 -0.4134  0.0083
10015TIP3    H129967   5.191   0.507   3.110  0.4107  0.4615 -0.3031
10015TIP3    H229968   5.152   0.524   3.256  0.8410  0.1321 -0.1496
10016TIP3   OH229969   5.679   0.906   3.300 -0.3231  0.2470  0.1204
10016TIP3    H129970   5.622   0.967   3.253  0.4038  1.2777  0.5660
10016TIP3    H229971   5.736   0.869   3.232  0.5334  1.5181  0.1400
10017TIP3   OH229972   2.721   8.027   1.937  0.4953  0.3926  0.3139
10017TIP3    H129973   2.760   8.065   2.015  0.6354 -0.2624  0.5649
10017TIP3    H229974   2.789   7.971   1.901  0.1177 -0.0031  0.2129
10018TIP3   OH229975   3.035   6.536   3.373  0.5976  0.1634 -0.1300
10018TIP3    H129976   2.952   6.513   3.415  0.8437  0.6943  0.6495
10018TIP3    H229977   3.081   6.452   3.364  0.2506 -0.0446  0.0311
10019TIP3   OH229978   1.175   6.441   0.522 -0.3237  1.1249  0.0564
10019TIP3    H129979   1.103   6.442   0.459  0.8432 -2.1644 -1.4245
10019TIP3    H229980   1.153   6.371   0.583  0.9358  0.9971  0.3888
10020TIP3   OH229981   2.855   5.590   3.210 -0.2066 -0.4742 -0.1975
10020TIP3    H129982   2.784   5.527   3.219 -0.8704 -0.2721 -3.5029
10020TIP3    H229983   2.816   5.664   3.163  1.5653  0.7221  0.1471
10021TIP3   OH229984   3.086   7.325   2.355 -0.2195  0.7148 -0.3260
10021TIP3    H129985   3.151   7.284   2.412 -1.0018  0.2852  0.2726
10021TIP3    H229986   3.125   7.323   2.268  0.4342  0.1784 -0.0211
10022TIP3   OH229987   2.915   5.784   3.772  0.2967 -0.4752  0.0160
10022TIP3    H129988   2.847   5.725   3.806  0.0759  0.8506  1.9143
10022TIP3    H229989   2.926   5.757   3.681 -0.6153 -2.7050  0.5303
10023TIP3   OH229990   1.959   6.916   2.426 -0.1848  0.3005  0.7331
10023TIP3    H129991   2.024   6.965   2.376 -1.2423  0.1409 -0.8168
10023TIP3    H229992   2.011   6.850   2.473  0.9919  1.4886  1.1472
10024TIP3   OH229993   4.611   5.962   1.691  0.4014 -0.1295  0.2304
10024TIP3    H129994   4.523   5.999   1.679 -0.5482 -2.6596 -0.9459
10024TIP3    H229995   4.620   5.952   1.786  0.8592  3.3938  0.6355
10025TIP3   OH229996   5.425   1.941   3.941  0.4399 -0.3920  0.1925
10025TIP3    H129997   5.371   1.993   4.000  1.7233  0.2546  0.8188
10025TIP3    H229998   5.465   2.005   3.882 -1.0522 -1.0550 -1.6087
10026TIP3   OH229999   1.828   5.914   3.286 -0.2772  0.3057 -0.0014
10026TIP3    H130000   1.770   5.946   3.354 -1.2182  0.4761 -0.8706
10026TIP3    H230001   1.887   5.854   3.331 -0.7801  0.5432  0.9852
10027TIP3   OH230002   2.909   6.334   1.291 -0.0506  0.4815  0.1285
10027TIP3    H130003   2.873   6.329   1.379  0.3957 -0.2910  0.2701
10027TIP3    H230004   2.963   6.256   1.282 -0.7141  0.1431 -1.1019
10028TIP3   OH230005   5.056   0.972   4.223 -0.0904  0.6227 -0.3016
10028TIP3    H130006   5.129   1.006   4.172 -1.3029  0.6971 -2.0605
10028TIP3    H230007   5.058   0.877   4.206  1.4922  0.1830  2.1958
10029TIP3   OH230008   2.367   7.651   2.152  0.3510  0.7696 -0.3121
10029TIP3    H130009   2.385   7.563   2.185  0.4389  0.9152  0.0353
10029TIP3    H230010   2.453   7.693   2.149  0.2709  0.9424 -0.1881
10030TIP3   OH230011   3.770   6.484   6.714 -0.4975 -0.2649  0.6746
10030TIP3    H130012   3.757   6.395   6.747  1.3143 -0.3377  1.2473
10030TIP3    H230013   3.836   6.522   6.772 -0.0803  0.9066 -0.5440
10031TIP3   OH230014   5.136   7.398   4.388 -0.3612 -0.2981  0.1517
10031TIP3    H130015   5.108   7.488   4.369  1.7660  0.6873  1.5510
10031TIP3    H230016   5.207   7.381   4.326 -2.0351 -1.7679 -1.4450
10032TIP3   OH230017   4.762   1.979   4.233 -0.0238 -0.2140 -0.0701
10032TIP3    H130018   4.745   1.913   4.165  0.7542 -0.2633 -0.2150
10032TIP3    H230019   4.820   2.043   4.191 -0.6754  0.5037  0.1092
10033TIP3   OH230020   3.139   5.686   2.960  0.1938  0.0886 -0.0397
10033TIP3    H130021   3.181   5.688   3.046 -1.0808 -0.3839  0.6013
10033TIP3    H230022   3.150   5.595   2.931 -0.9018 -0.1931  0.4007
10034TIP3   OH230023   7.249   1.377   5.097  0.3526  0.3826 -0.5949
10034TIP3    H130024   7.245   1.472   5.085 -3.5358  0.4868  0.8007
10034TIP3    H230025   7.159   1.347   5.083  0.8187 -2.6453  2.2851
10035TIP3   OH230026   2.269   2.137   5.093  0.3372  0.1470 -0.0523
10035TIP3    H130027   2.235   2.050   5.117  0.5121  0.0724 -0.0726
10035TIP3    H230028   2.331   2.158   5.164 -1.1740  1.1239  1.0078
10036TIP3   OH230029   5.054   7.858   4.862 -0.0418 -0.5663  0.2598
10036TIP3    H130030   5.126   7.851   4.799 -0.2418  0.1662 -0.0555
10036TIP3    H230031   5.051   7.951   4.884  1.8997 -1.2109  3.5442
10037TIP3   OH230032   3.136   7.675   4.482  0.1586  0.0548  0.1581
10037TIP3    H130033   3.055   7.714   4.515 -0.3882  0.2088 -1.3151
10037TIP3    H230034   3.108   7.594   4.440  0.8120 -0.0277 -0.1214
10038TIP3   OH230035   7.258   0.554   2.984 -0.3921  0.4806  0.0487
10038TIP3    H130036   7.205   0.550   2.904  2.1269 -3.1426 -1.5525
10038TIP3    H230037   7.203   0.511   3.051 -1.5290  1.3664 -0.2989
10039TIP3   OH230038   2.463   6.867   1.727  0.6565  0.4906 -0.1279
10039TIP3    H130039   2.432   6.829   1.645  0.9516 -0.2244  0.0886
10039TIP3    H230040   2.512   6.945   1.701 -0.4454  1.0646 -0.5374
10040TIP3   OH230041   6.335   0.971   3.227  0.4087  0.3215 -0.3151
10040TIP3    H130042   6.340   1.042   3.162 -1.5184 -0.0546 -0.8859
10040TIP3    H230043   6.275   0.908   3.189  2.1481 -1.6839  0.1703
10041TIP3   OH230044   1.909   7.753   2.397  0.0177 -0.2152 -0.2544
10041TIP3    H130045   1.951   7.783   2.478 -2.3188 -1.3464  1.4363
10041TIP3    H230046   1.962   7.679   2.368  0.9494  0.2807  0.1772
10042TIP3   OH230047   8.649   2.705   2.473 -0.2812 -0.3908  0.4491
10042TIP3    H130048   8.574   2.694   2.532  0.4170 -0.2718  1.3747
10042TIP3    H230049   8.643   2.796   2.444 -1.1836 -0.7307 -0.4399
10043TIP3   OH230050   4.833   7.583   3.616 -0.2627  0.1138 -0.3267
10043TIP3    H130051   4.754   7.531   3.630 -0.2956  0.2765  0.0913
10043TIP3    H230052   4.802   7.665   3.578 -0.3961  0.5780  0.7657
10044TIP3   OH230053   8.231   0.293   4.263 -0.2022  0.4339 -0.3678
10044TIP3    H130054   8.241   0.262   4.353 -0.6885  0.1810 -0.3979
10044TIP3    H230055   8.318   0.324   4.239  0.1953 -0.4820 -0.1691
10045TIP3   OH230056   4.519   6.282   3.494 -0.3335 -0.9704 -0.1811
10045TIP3    H130057   4.612   6.282   3.517 -0.4300 -0.6839  0.2154
10045TIP3    H230058   4.518   6.294   3.399 -0.0642  3.4900  0.2884
10046TIP3   OH230059   6.144   0.974   2.723 -0.0138  0.0580  0.3155
10046TIP3    H130060   6.105   0.899   2.768 -0.1332 -0.2459 -0.2870
10046TIP3    H230061   6.069   1.023   2.688  0.1278 -0.3548 -0.5738
10047TIP3   OH230062   4.650   7.097   3.018  0.0909 -0.2288 -0.2397
10047TIP3    H130063   4.566   7.115   3.059  0.3700 -0.2537  0.3464
10047TIP3    H230064   4.676   7.012   3.053 -1.3326 -1.9305 -3.1614
10048TIP3   OH230065   3.346   7.239   2.525  0.5160  0.2177 -0.1348
10048TIP3    H130066   3.336   7.145   2.508 -2.1827  0.7405 -1.6596
10048TIP3    H230067   3.404   7.270   2.455  0.2904 -0.0794 -0.4571
10049TIP3   OH230068   2.609   6.013   4.913 -0.1361 -0.2547  0.4071
10049TIP3    H130069   2.586   5.954   4.841  1.0286 -0.9076  0.5634
10049TIP3    H230070   2.590   5.964   4.992  0.5420 -0.3215  0.5354
10050TIP3   OH230071   6.178   7.958   3.463 -0.3867 -0.1745  0.0045
10050TIP3    H130072   6.221   7.890   3.514  0.3488 -0.7735 -1.3949
10050TIP3    H230073   6.166   7.919   3.377 -0.7669  1.1545 -0.5533
10051TIP3   OH230074   4.257   7.817   4.056  0.6563  0.0906 -0.0093
10051TIP3    H130075   4.291   7.853   4.138 -1.6437  1.7856  0.2461
10051TIP3    H230076   4.184   7.762   4.083 -1.2677  2.1028 -1.0148
10052TIP3   OH230077   4.547   6.351   2.903  0.4885  0.0163  0.0775
10052TIP3    H130078   4.558   6.391   2.816 -1.3516 -0.4295 -0.3850
10052TIP3    H230079   4.518   6.423   2.958  2.0311  0.3864  0.4461
10053TIP3   OH230080   6.297   0.848   1.133 -0.0175 -0.3255 -0.1960
10053TIP3    H130081   6.247   0.864   1.213 -0.5204  1.4319 -0.8558
10053TIP3    H230082   6.260   0.908   1.069  3.6226  1.8191 -0.4357
10054TIP3   OH230083   5.108   7.580   3.542  0.5090 -0.5534  1.0510
10054TIP3    H130084   5.015   7.571   3.564  0.3887 -0.3671  0.6073
10054TIP3    H230085   5.132   7.495   3.505 -0.5395  0.7543 -2.8009
10055TIP3   OH230086   6.639   0.199   1.910  0.3757 -0.0982 -0.2138
10055TIP3    H130087   6.602   0.159   1.988 -0.9080  0.2883 -0.6170
10055TIP3    H230088   6.585   0.276   1.895  0.7667 -0.0392 -1.3436
10056TIP3   OH230089   5.952   0.351   3.528  0.0665  0.1777 -0.3261
10056TIP3    H130090   5.924   0.434   3.488 -1.0150  0.0296  0.1126
10056TIP3    H230091   6.038   0.371   3.565  0.5603  0.6408 -1.6980
10057TIP3   OH230092   3.915   6.813   2.084 -0.4090 -0.1226 -0.2036
10057TIP3    H130093   3.830   6.780   2.056 -0.4141 -0.0667 -0.2556
10057TIP3    H230094   3.971   6.735   2.090 -0.3635 -0.1141 -0.5296
10058TIP3   OH230095   4.590   7.697   2.535  0.5214 -0.5516 -0.2565
10058TIP3    H130096   4.676   7.733   2.558  1.6572 -3.0207 -0.4195
10058TIP3    H230097   4.603   7.602   2.538 -2.4007 -0.9706  0.3940
10059TIP3   OH230098   5.656   6.815   2.927 -0.2062 -0.5044 -0.4104
10059TIP3    H130099   5.620   6.885   2.981 -2.4916 -1.6107 -0.4222
10059TIP3    H230100   5.641   6.736   2.978  1.2404 -1.1272 -0.9319
10060TIP3   OH230101   3.891   7.101   4.675 -0.3399  0.0975 -0.0035
10060TIP3    H130102   3.951   7.073   4.744 -0.1735 -0.5210 -0.3955
10060TIP3    H230103   3.805   7.075   4.707 -0.5599  2.1293  1.1448
10061TIP3   OH230104   5.083   7.964   4.292 -0.0112 -0.2012  0.5378
10061TIP3    H130105   5.128   8.021   4.230 -2.2641  0.3705 -0.6352
10061TIP3    H230106   5.023   8.022   4.339  0.0764 -1.0263  1.7131
10062TIP3   OH230107   4.994   7.196   2.762 -0.3908  0.1778 -0.1940
10062TIP3    H130108   5.085   7.176   2.741  0.1967  1.7677  0.7387
10062TIP3    H230109   4.974   7.275   2.711 -0.8610  0.5352  0.5279
10063TIP3   OH230110   4.457   7.454   3.250 -0.0968  0.2371  0.6515
10063TIP3    H130111   4.518   7.408   3.308 -0.2351  1.1498  1.5197
10063TIP3    H230112   4.505   7.463   3.168  0.8747  0.7726  1.2639
10064TIP3   OH230113   3.445   8.234   3.260  0.0970 -0.1578 -0.4059
10064TIP3    H130114   3.459   8.255   3.167 -0.8639 -2.4382 -1.1206
10064TIP3    H230115   3.371   8.173   3.259 -0.5521  0.5742  1.9640
10065TIP3   OH230116   7.381   0.652   3.334  0.1523 -0.3101  0.1823
10065TIP3    H130117   7.340   0.566   3.345 -0.3993  0.1450  1.7909
10065TIP3    H230118   7.313   0.706   3.295  0.5685 -0.6597 -1.0299
10066TIP3   OH230119   4.469   7.069   2.524 -0.6934 -0.7265  0.1095
10066TIP3    H130120   4.504   7.061   2.613 -0.0471  0.7155 -0.0000
10066TIP3    H230121   4.374   7.067   2.537 -0.6058 -0.6074  0.8339
10067TIP3   OH230122   4.171   7.261   5.299  0.5218 -0.0948  0.3353
10067TIP3    H130123   4.254   7.297   5.266  1.4797 -2.8419 -0.3167
10067TIP3    H230124   4.119   7.242   5.221  0.4004 -1.0022  0.6331
10068TIP3   OH230125   4.927   5.624   4.218 -0.5826  0.6976 -0.0849
10068TIP3    H130126   4.866   5.650   4.150 -0.1259  0.0762 -0.7416
10068TIP3    H230127   4.874   5.571   4.278 -0.9384  1.0758 -0.0654
10069TIP3   OH230128   2.754   7.595   4.213  0.5768 -0.3067 -0.2290
10069TIP3    H130129   2.670   7.579   4.256  2.1910 -1.3309  2.6215
10069TIP3    H230130   2.773   7.687   4.231 -0.1748  0.1083 -1.4221
10070TIP3   OH230131   4.716   7.780   3.429 -0.1106 -0.0166  0.3526
10070TIP3    H130132   4.651   7.824   3.484 -0.4823 -0.5787  0.3645
10070TIP3    H230133   4.790   7.841   3.426 -0.6459  0.6335  0.3179
10071TIP3   OH230134   8.097   0.046   4.261  0.5974 -0.7089 -0.0228
10071TIP3    H130135   8.139   0.132   4.255  1.0057 -0.8733  0.5246
10071TIP3    H230136   8.156  -0.013   4.215  0.7852 -0.8728  0.4299
10072TIP3   OH230137   3.764   6.305   0.943 -0.2941  0.0349  0.1025
10072TIP3    H130138   3.736   6.391   0.910 -0.5720  0.2867  0.9777
10072TIP3    H230139   3.803   6.324   1.028  0.4252 -0.6119 -0.0747
10073TIP3   OH230140   4.476   7.460   2.723 -0.0273 -0.5664 -0.2001
10073TIP3    H130141   4.436   7.543   2.748 -1.7555 -0.9603 -1.5320
10073TIP3    H230142   4.465   7.403   2.799 -1.0716 -0.3438 -0.1875
10074TIP3   OH230143   6.907   0.058   3.518  0.1423  0.2967  0.6809
10074TIP3    H130144   6.844   0.015   3.577  1.8342  0.2100  2.4873
10074TIP3    H230145   6.950  -0.013   3.472  1.1231  0.1438  1.7871
10075TIP3   OH230146   2.728   7.434   2.312 -0.6150  0.3598 -0.4082
10075TIP3    H130147   2.772   7.355   2.344  1.0466  1.1995 -0.5572
10075TIP3    H230148   2.786   7.468   2.244 -1.0676  1.9539 -0.0255
10076TIP3   OH230149   6.321   5.950   2.881 -0.0138 -0.2865  0.3799
10076TIP3    H130150   6.323   6.017   2.812  0.1242 -0.0063  0.6545
10076TIP3    H230151   6.305   5.868   2.834 -2.2497  0.1876  0.2383
10077TIP3   OH230152   4.058   6.335   4.083 -0.0921  0.0566  0.2448
10077TIP3    H130153   4.129   6.321   4.020  0.6685 -0.3869  1.1801
10077TIP3    H230154   4.042   6.249   4.121  0.3158  0.5465  1.5476
10078TIP3   OH230155   1.323   0.308   2.308  0.1856  0.4309  0.3498
10078TIP3    H130156   1.357   0.379   2.253  0.5573 -0.1428 -0.1656
10078TIP3    H230157   1.348   0.228   2.262 -0.8412 -0.0220  0.5647
10079TIP3   OH230158   8.128   1.170   5.297 -0.3555 -0.0163 -0.0765
10079TIP3    H130159   8.151   1.259   5.324 -0.5275 -0.1181  0.3997
10079TIP3    H230160   8.097   1.128   5.376  0.4874 -0.7554 -0.1334
10080TIP3   OH230161   7.309   0.217   2.667  0.2285  0.0490  0.2252
10080TIP3    H130162   7.254   0.160   2.721 -1.7650  1.9440  0.2800
10080TIP3    H230163   7.381   0.244   2.724 -0.6739  0.2798  1.2584
10081TIP3   OH230164   0.159   0.244   1.694 -0.1275 -0.4101 -0.0720
10081TIP3    H130165   0.237   0.224   1.746  0.7530  1.8142 -0.5118
10081TIP3    H230166   0.120   0.319   1.738 -1.1846 -0.5507 -0.7577
10082TIP3   OH230167   4.162   6.648   4.086 -0.2964 -0.4894 -0.1621
10082TIP3    H130168   4.135   6.624   4.175 -1.1034 -2.7580 -0.9643
10082TIP3    H230169   4.207   6.570   4.053  0.1734  0.4050 -1.6746
10083TIP3   OH230170   5.195   0.938   1.224 -0.5823  0.6202  0.9746
10083TIP3    H130171   5.209   1.015   1.170 -0.9664  0.0531  0.0546
10083TIP3    H230172   5.212   0.864   1.166 -2.6278 -0.0267  1.1554
10084TIP3   OH230173   7.101   0.987   4.966 -0.5834  0.2954 -0.5144
10084TIP3    H130174   7.111   0.930   4.890 -1.6723  0.1644 -0.5685
10084TIP3    H230175   7.183   1.037   4.970  1.0056 -2.2666  0.3825
10085TIP3   OH230176   5.482   7.608   1.062 -0.4983  0.6037  0.0900
10085TIP3    H130177   5.459   7.531   1.114  1.8672  1.1800  2.0911
10085TIP3    H230178   5.411   7.670   1.078 -1.0070 -0.1219  0.6883
10086TIP3   OH230179   4.281   7.479   6.670  0.0369  0.3093  0.1843
10086TIP3    H130180   4.359   7.424   6.658  0.8821  1.4806  0.2112
10086TIP3    H230181   4.209   7.424   6.640  1.0864 -0.1494 -1.5981
10087TIP3   OH230182   5.559   0.323   4.053  0.1849 -0.3603  0.1244
10087TIP3    H130183   5.652   0.336   4.034 -0.3542  2.1236 -1.0263
10087TIP3    H230184   5.553   0.336   4.148  0.5739  2.7638 -0.2092
10088TIP3   OH230185   3.787   6.152   6.121 -0.4612  0.7872 -0.1961
10088TIP3    H130186   3.796   6.077   6.063 -0.7233 -0.7789  1.7606
10088TIP3    H230187   3.865   6.206   6.103  0.9247 -1.1012  0.0459
10089TIP3   OH230188   5.765   7.860   1.841  0.0861 -0.2186  0.2060
10089TIP3    H130189   5.830   7.925   1.815 -0.1210  0.2246  0.7690
10089TIP3    H230190   5.817   7.785   1.871  0.3249 -0.2724 -0.3397
10090TIP3   OH230191   3.986   5.675   3.713 -0.2932  0.4587  0.8362
10090TIP3    H130192   4.071   5.718   3.724 -0.2510  0.7153 -0.3867
10090TIP3    H230193   3.960   5.697   3.623 -0.0511 -2.4168 -0.0078
10091TIP3   OH230194   7.788   6.977   1.856  0.0275  0.2019 -0.0684
10091TIP3    H130195   7.770   7.063   1.895  0.7591  0.3690 -0.0848
10091TIP3    H230196   7.751   6.914   1.918 -1.3809  0.5557 -0.5378
10092TIP3   OH230197   3.719   6.976   2.531 -0.0055 -0.0031 -0.5339
10092TIP3    H130198   3.784   6.936   2.590  0.0648 -1.5866 -1.6567
10092TIP3    H230199   3.636   6.970   2.580  0.9980  4.2088  1.9303
10093TIP3   OH230200   3.157   7.239   1.628  0.0233  0.2172 -0.3210
10093TIP3    H130201   3.227   7.297   1.659  0.6969 -0.0867 -1.2553
10093TIP3    H230202   3.164   7.161   1.683 -0.0006  0.4504  0.0154
10094TIP3   OH230203   4.406   8.179   0.742  0.6296 -0.0310 -0.1939
10094TIP3    H130204   4.339   8.220   0.687 -0.2937 -1.2256  0.0217
10094TIP3    H230205   4.363   8.100   0.777  1.7085 -0.1016  1.0004
10095TIP3   OH230206   4.558   5.526   2.918 -0.1971  0.1339 -0.5242
10095TIP3    H130207   4.552   5.622   2.920  0.9604  0.2110  0.0384
10095TIP3    H230208   4.567   5.504   2.825 -2.3625  0.4212 -0.8253
10096TIP3   OH230209   1.602   7.408   3.230 -0.0707  0.5219 -0.2004
10096TIP3    H130210   1.597   7.498   3.264 -2.9864  0.1911  0.4061
10096TIP3    H230211   1.542   7.408   3.155 -1.4501 -1.3199  0.8661
10097TIP3   OH230212   3.328   5.587   3.439 -0.2078 -0.2023 -0.4529
10097TIP3    H130213   3.298   5.521   3.502 -2.9225  0.7819 -0.6257
10097TIP3    H230214   3.261   5.587   3.371 -0.5044  3.0081 -0.2417
10098TIP3   OH230215   4.608   7.450   3.009  0.0047 -0.1153  0.3457
10098TIP3    H130216   4.685   7.398   3.032  0.5954  1.2769  1.5966
10098TIP3    H230217   4.642   7.516   2.949 -0.1320  0.7563  1.2250
10099TIP3   OH230218   4.634   7.428   2.492  0.2118  0.0073 -0.5625
10099TIP3    H130219   4.585   7.388   2.563  0.8488  1.2851  0.6220
10099TIP3    H230220   4.690   7.358   2.458 -1.0094 -0.9351 -0.6475
10100TIP3   OH230221   7.426   0.030   4.511 -0.5387 -0.3022 -0.2079
10100TIP3    H130222   7.491   0.020   4.580  0.8239  0.4303 -1.3514
10100TIP3    H230223   7.452   0.109   4.464 -0.4828 -1.6373 -2.5344
10101TIP3   OH230224   8.110   0.217   4.026  0.0769 -0.4910 -0.1517
10101TIP3    H130225   8.103   0.277   4.101 -1.6980 -0.9393  0.0777
10101TIP3    H230226   8.076   0.268   3.952 -2.4371 -1.4887  0.2396
10102TIP3   OH230227   0.529   3.372   6.963  0.1067  0.3306  0.6920
10102TIP3    H130228   0.457   3.405   7.017 -1.2012  1.2385 -1.5297
10102TIP3    H230229   0.504   3.396   6.873  2.6548 -0.3306 -0.2238
10103TIP3   OH230230   2.104   6.782   2.167  0.1180 -0.2004 -0.0504
10103TIP3    H130231   2.038   6.719   2.138  0.7015 -1.2282  0.7904
10103TIP3    H230232   2.082   6.863   2.122 -1.9521 -0.4240  0.5395
10104TIP3   OH230233   4.814   7.828   4.321  0.3478  0.1503  0.1572
10104TIP3    H130234   4.839   7.920   4.312  1.2117  0.0357  1.2417
10104TIP3    H230235   4.819   7.793   4.233 -1.5043  1.5076 -0.5292
10105TIP3   OH230236   5.589   7.465   3.012  0.5248  0.7111  0.0645
10105TIP3    H130237   5.624   7.544   3.054  0.1568  0.4594  0.8636
10105TIP3    H230238   5.648   7.450   2.938  0.8358  1.5081  0.1365
10106TIP3   OH230239   3.449   5.608   2.750 -0.3251  0.4631  0.1603
10106TIP3    H130240   3.357   5.589   2.730 -0.1856 -0.6184  0.5155
10106TIP3    H230241   3.452   5.614   2.845 -0.3761  2.4166  0.0686
10107TIP3   OH230242   4.928   6.913   1.415 -0.0721 -0.6032  0.1540
10107TIP3    H130243   4.929   6.989   1.358  0.8721 -0.9378 -0.2843
10107TIP3    H230244   4.900   6.841   1.359 -4.3089 -0.0195  1.3258
10108TIP3   OH230245   2.835   7.413   2.828  0.4067 -0.7772 -0.1707
10108TIP3    H130246   2.763   7.352   2.810 -0.3079  0.3837 -1.3282
10108TIP3    H230247   2.897   7.398   2.757 -0.9022  1.5234 -1.8542
10109TIP3   OH230248   8.043   0.965   3.136  0.2349 -0.5450 -0.0649
10109TIP3    H130249   8.064   0.911   3.059 -0.2936 -1.9762  0.7789
10109TIP3    H230250   8.079   0.916   3.210 -1.5064 -0.4347  0.8626
10110TIP3   OH230251   0.405   1.163   3.458 -0.4404  0.0379 -0.4591
10110TIP3    H130252   0.492   1.158   3.496 -1.0120 -0.8869  0.7526
10110TIP3    H230253   0.361   1.233   3.507 -0.8003 -0.3740 -0.1865
10111TIP3   OH230254   3.673   7.017   1.129 -0.1311 -0.1305 -0.4303
10111TIP3    H130255   3.759   7.024   1.087  0.2904  2.0145  0.7195
10111TIP3    H230256   3.643   6.929   1.107  2.1887 -0.7782 -1.1814
10112TIP3   OH230257   2.345   0.310   1.646  0.1720 -0.4475 -0.0435
10112TIP3    H130258   2.278   0.378   1.647 -1.4489 -2.0101  0.6906
10112TIP3    H230259   2.307   0.240   1.593  2.2477 -0.3793 -1.6957
10113TIP3   OH230260   5.081   7.824   1.989 -0.6020  0.2996  0.0808
10113TIP3    H130261   5.103   7.778   2.070 -0.0735  0.4150  0.0075
10113TIP3    H230262   5.018   7.891   2.015  0.5505  1.1966  0.6333
10114TIP3   OH230263   6.342  -0.008   1.463  0.5184 -0.6131  0.1835
10114TIP3    H130264   6.384   0.032   1.539  0.0783 -1.2682  0.7693
10114TIP3    H230265   6.384   0.035   1.388  1.6433 -0.6634  0.7747
10115TIP3   OH230266   6.098   7.879   1.997 -0.1941  0.1404 -1.0326
10115TIP3    H130267   6.166   7.847   2.055  0.1061  1.1827 -0.8185
10115TIP3    H230268   6.017   7.843   2.033  0.0642  0.2218 -0.3720
10116TIP3   OH230269   3.862   8.263   5.132  0.2727 -0.1849  0.2188
10116TIP3    H130270   3.948   8.295   5.158  0.7660 -1.1732 -0.1764
10116TIP3    H230271   3.863   8.170   5.152 -1.1666  0.0331  1.3818
10117TIP3   OH230272   6.032   8.022   4.305  0.1823 -1.0228  0.1624
10117TIP3    H130273   6.011   8.069   4.224 -0.9387 -0.1475  0.9553
10117TIP3    H230274   6.117   7.982   4.287 -0.5832 -1.8340 -1.8846
10118TIP3   OH230275   4.292   8.321   3.005  0.1157  0.1001  0.1414
10118TIP3    H130276   4.331   8.393   3.054  0.7950 -0.7988  0.9540
10118TIP3    H230277   4.247   8.363   2.932  0.5172  1.3393  0.5914
10119TIP3   OH230278   0.841   0.222   2.821 -0.0639 -0.2540 -0.1042
10119TIP3    H130279   0.870   0.278   2.893 -0.0673  0.0293 -0.3206
10119TIP3    H230280   0.751   0.198   2.844  0.2989 -1.0229  0.4997
10120TIP3   OH230281   8.536   1.097   3.505 -0.2934 -0.6229 -0.6457
10120TIP3    H130282   8.527   1.132   3.594 -1.4007 -1.0292 -0.5932
10120TIP3    H230283   8.604   1.029   3.513 -1.0009 -1.2592  0.0787
10121TIP3   OH230284   7.185   8.130   3.178 -0.3941 -0.3391 -0.3474
10121TIP3    H130285   7.107   8.083   3.148  0.0084 -0.6335 -0.9599
10121TIP3    H230286   7.233   8.066   3.231  0.7550 -1.0255 -2.1757
10122TIP3   OH230287   3.968   7.041   1.636 -0.0286  0.1157  0.3145
10122TIP3    H130288   4.055   7.009   1.659 -0.0691  0.5613  1.1066
10122TIP3    H230289   3.912   6.964   1.643  1.0366 -1.3245 -4.7897
10123TIP3   OH230290   5.747   7.448   2.796 -0.1335 -0.8834  0.4224
10123TIP3    H130291   5.768   7.360   2.764  0.4431 -0.1746 -1.1774
10123TIP3    H230292   5.831   7.493   2.800 -0.6075  0.1017 -0.3400
10124TIP3   OH230293   1.537   2.514   6.780  0.3284  0.0524  0.5989
10124TIP3    H130294   1.528   2.609   6.787  0.8744  0.2631 -1.1430
10124TIP3    H230295   1.625   2.495   6.813  0.7940  0.3450 -0.4580
10125TIP3   OH230296   5.430   6.616   3.308 -0.2884  0.6456 -0.5273
10125TIP3    H130297   5.372   6.636   3.381  0.6565 -0.7429  0.6398
10125TIP3    H230298   5.373   6.614   3.232 -1.5626  0.6141  0.4027
10126TIP3   OH230299   5.450   7.611   3.675 -0.4697 -1.0008  0.4702
10126TIP3    H130300   5.473   7.615   3.582  1.1334  1.7777  0.9380
10126TIP3    H230301   5.360   7.645   3.679  0.5867  1.9320  0.2624
10127TIP3   OH230302   5.920   6.405   4.303  0.1642 -0.1548  0.9199
10127TIP3    H130303   5.839   6.422   4.350  0.5864  0.0450  1.5794
10127TIP3    H230304   5.955   6.491   4.282  0.9771 -0.2050  1.9851
10128TIP3   OH230305   5.470   5.903   2.997  0.1659 -0.2865  0.1309
10128TIP3    H130306   5.472   5.830   3.058 -0.1274 -0.2199  0.2190
10128TIP3    H230307   5.492   5.864   2.912 -0.8554 -0.6336  0.0159
10129TIP3   OH230308   8.281   0.725   2.303 -0.1239  0.0017  0.4118
10129TIP3    H130309   8.213   0.793   2.298 -1.7655 -1.5824  0.5254
10129TIP3    H230310   8.300   0.717   2.396 -1.1436 -0.8524  0.5505
10130TIP3   OH230311   6.929   0.146   3.234  0.3353  0.2845 -0.3917
10130TIP3    H130312   6.911   0.205   3.307  3.4610  0.9547 -0.0648
10130TIP3    H230313   6.976   0.072   3.273  2.1959  0.7286 -1.6664
10131TIP3   OH230314   8.498   1.271   4.076 -0.1152 -0.0345  0.7202
10131TIP3    H130315   8.481   1.295   4.167 -0.6964  0.5650  0.4503
10131TIP3    H230316   8.423   1.217   4.051  0.4228 -0.8462  0.8350
10132TIP3   OH230317   4.489   5.444   2.606 -0.2080  0.2459 -0.0922
10132TIP3    H130318   4.503   5.360   2.564 -1.2799  0.4372 -0.8510
10132TIP3    H230319   4.565   5.497   2.581 -0.9431  0.4319 -2.0033
10133TIP3   OH230320   4.094   5.713   4.060 -0.2736  0.7019 -0.0593
10133TIP3    H130321   4.038   5.681   4.131  1.3205 -0.7246  0.6037
10133TIP3    H230322   4.062   5.669   3.982 -1.8092  1.9992 -0.1743
10134TIP3   OH230323   7.683   0.198   4.449 -0.0809  0.2103  0.6126
10134TIP3    H130324   7.755   0.242   4.495 -0.9844  0.6952  1.5935
10134TIP3    H230325   7.611   0.261   4.452 -0.4730 -0.1775 -0.5717
10135TIP3   OH230326   3.630   6.717   0.070 -0.6299  0.0861  0.1921
10135TIP3    H130327   3.669   6.761  -0.007  1.4663  0.8963  1.6579
10135TIP3    H230328   3.555   6.772   0.093 -1.4132 -0.2885 -1.3954
10136TIP3   OH230329   4.034   7.670   1.943  0.6321  0.1494 -0.8022
10136TIP3    H130330   4.102   7.606   1.923 -0.2305 -0.8926 -0.4513
10136TIP3    H230331   3.965   7.651   1.880 -0.4344 -0.5380  0.5418
10137TIP3   OH230332   4.009   7.184   1.132 -0.6188 -0.8730 -0.1103
10137TIP3    H130333   3.996   7.237   1.211 -0.0988 -0.0569 -0.5673
10137TIP3    H230334   4.104   7.177   1.123 -0.6664 -0.3052 -1.0968
10138TIP3   OH230335   2.127   0.369   1.912 -0.0028 -0.0616 -0.1914
10138TIP3    H130336   2.075   0.308   1.859 -2.1253  0.6905  0.9807
10138TIP3    H230337   2.218   0.342   1.896 -0.7172 -1.4167 -2.2634
10139TIP3   OH230338   5.191   7.359   3.383 -0.9462 -0.1949 -0.4883
10139TIP3    H130339   5.255   7.370   3.313 -0.3963  0.0516  0.0432
10139TIP3    H230340   5.143   7.280   3.359  0.6004 -1.2889 -0.1230
10140TIP3   OH230341   7.834   0.450   2.693  1.0423 -0.4188  0.2291
10140TIP3    H130342   7.877   0.412   2.616  2.2897 -0.1567  0.7700
10140TIP3    H230343   7.906   0.463   2.755  0.2395  0.5478  0.9607
10141TIP3   OH230344   4.238   5.765   3.761  0.5343 -0.2190 -0.5439
10141TIP3    H130345   4.242   5.843   3.705  1.9895  0.4083  0.3827
10141TIP3    H230346   4.280   5.793   3.842  2.1217 -2.3017 -0.6081
10142TIP3   OH230347   3.155   7.664   3.511 -0.5062  0.5897  0.0486
10142TIP3    H130348   3.117   7.583   3.479  2.0161  0.3084 -2.5102
10142TIP3    H230349   3.228   7.636   3.567 -0.6524  1.0759  0.4831
10143TIP3   OH230350   0.424   1.354   3.675 -0.1568  0.0682 -0.1093
10143TIP3    H130351   0.384   1.371   3.760  0.2096  1.4297 -0.1996
10143TIP3    H230352   0.509   1.315   3.695 -0.2788 -0.0648  0.1432
10144TIP3   OH230353   4.454   7.710   2.883 -0.0793  0.8329  0.2237
10144TIP3    H130354   4.391   7.650   2.923  0.9069 -0.8711 -0.6776
10144TIP3    H230355   4.532   7.702   2.939 -0.0578  1.5597  0.2998
10145TIP3   OH230356   6.688   8.154   3.418  0.0307 -0.0215  0.2805
10145TIP3    H130357   6.655   8.093   3.484  0.8067  0.9746  1.6113
10145TIP3    H230358   6.626   8.146   3.345 -2.0229  0.3567  1.9285
10146TIP3   OH230359   3.173   6.613   3.868  0.3099 -0.2840 -0.2879
10146TIP3    H130360   3.220   6.606   3.784 -0.4885 -1.2508 -0.6720
10146TIP3    H230361   3.090   6.655   3.845  0.7183  0.8338  0.2805
10147TIP3   OH230362   6.033   1.689   1.411  0.0609 -0.3140  0.3768
10147TIP3    H130363   5.975   1.765   1.403 -0.8782 -0.9881  0.7182
10147TIP3    H230364   6.080   1.703   1.493 -0.7437 -0.5252  0.8808
10148TIP3   OH230365   3.658   7.761   1.918 -0.9225 -0.3009  0.2152
10148TIP3    H130366   3.722   7.719   1.861 -1.8160 -1.3311 -0.0463
10148TIP3    H230367   3.700   7.763   2.004  0.4483  1.2968 -0.4640
10149TIP3   OH230368   5.761   8.360   2.892  0.1578 -0.2337  0.5208
10149TIP3    H130369   5.836   8.307   2.865  0.9172  0.7851  0.5544
10149TIP3    H230370   5.748   8.422   2.820 -0.3743 -0.1251  0.7068
10150TIP3   OH230371   2.376   6.472   3.285 -0.1043  0.1245 -0.0938
10150TIP3    H130372   2.370   6.444   3.193 -2.2434  0.5546 -0.1023
10150TIP3    H230373   2.363   6.567   3.282 -3.7832 -0.2755  0.9558
10151TIP3   OH230374   3.478   7.520   2.178  0.0717 -0.2695  0.3118
10151TIP3    H130375   3.514   7.443   2.222 -0.4824  1.1212  3.3674
10151TIP3    H230376   3.547   7.586   2.185 -0.4711  0.3166  0.1428
10152TIP3   OH230377   3.598   5.912   2.856 -0.2066 -0.3336  0.3588
10152TIP3    H130378   3.670   5.957   2.811  0.1828 -0.1282  1.1703
10152TIP3    H230379   3.642   5.845   2.909 -0.5125  0.5595  1.7620
10153TIP3   OH230380   6.771   0.447   2.469  0.1613 -0.0597  0.3118
10153TIP3    H130381   6.835   0.380   2.492 -0.4665 -0.7796 -0.0047
10153TIP3    H230382   6.701   0.399   2.424 -0.4619  0.7523  0.3922
10154TIP3   OH230383   7.100   3.112   1.797 -0.0091  0.2291 -0.0338
10154TIP3    H130384   7.137   3.192   1.760 -0.1705  0.3888  0.1499
10154TIP3    H230385   7.065   3.139   1.882 -0.2059 -0.0040 -0.0406
10155TIP3   OH230386   8.645   1.473   2.788 -0.3866 -0.2629 -0.1006
10155TIP3    H130387   8.649   1.384   2.824  0.5464  0.1354  0.7849
10155TIP3    H230388   8.572   1.514   2.835 -0.5530 -0.4249 -0.2129
10156TIP3   OH230389   4.601   5.196   3.511  0.1854 -0.4880  0.5230
10156TIP3    H130390   4.574   5.276   3.556 -0.7856 -0.0603 -0.7956
10156TIP3    H230391   4.591   5.127   3.577 -0.1832  0.2942  1.2948
10157TIP3   OH230392   4.203   7.478   2.574 -0.6724 -0.5912  0.3116
10157TIP3    H130393   4.213   7.560   2.526 -1.9754 -0.9216 -0.5375
10157TIP3    H230394   4.293   7.450   2.593 -0.2216  1.1947  0.9129
10158TIP3   OH230395   5.861   5.796   3.549 -0.7678  0.8791 -0.1123
10158TIP3    H130396   5.805   5.732   3.592 -0.6911  0.1700 -1.0566
10158TIP3    H230397   5.915   5.745   3.489 -0.8402  1.8410 -1.0142
10159TIP3   OH230398   2.293   6.312   2.633  0.3512  0.5047 -0.8772
10159TIP3    H130399   2.324   6.260   2.560  0.4502  0.3752 -0.7437
10159TIP3    H230400   2.353   6.291   2.705  0.9566  1.5028 -1.0835
10160TIP3   OH230401   4.671   6.414   3.897 -0.1707 -0.3452  0.5462
10160TIP3    H130402   4.638   6.443   3.811 -1.0016  1.3287  1.4129
10160TIP3    H230403   4.611   6.344   3.922 -0.0132 -0.7467 -0.1613
10161TIP3   OH230404   3.619   6.714   3.687  0.2476 -0.2073 -0.0811
10161TIP3    H130405   3.676   6.666   3.748  0.9734  1.6959  0.7893
10161TIP3    H230406   3.670   6.720   3.606  0.7016  0.2347  0.2329
10162TIP3   OH230407   3.170   7.339   1.374  0.5499 -0.7595 -0.5507
10162TIP3    H130408   3.260   7.329   1.343  0.3854  0.3534 -1.4364
10162TIP3    H230409   3.168   7.291   1.456  1.6187 -1.8469 -1.1407
10163TIP3   OH230410   7.637   8.094   2.562  0.1180  0.0336  0.1094
10163TIP3    H130411   7.548   8.059   2.561 -0.2281  0.7330  2.8229
10163TIP3    H230412   7.668   8.078   2.651  2.1976  1.1053 -0.3861
10164TIP3   OH230413   4.207   7.974   0.879 -1.0957 -0.1494  0.0276
10164TIP3    H130414   4.244   7.896   0.921  0.8492  0.9348  0.3781
10164TIP3    H230415   4.140   8.004   0.939 -1.2925 -1.0771  0.2841
10165TIP3   OH230416   1.177   1.162   4.580  0.2963  0.1280  0.2664
10165TIP3    H130417   1.161   1.114   4.499  0.6804  0.3277  0.0702
10165TIP3    H230418   1.139   1.248   4.566  0.3835  0.1705  0.2896
10166TIP3   OH230419   7.574   0.513   1.280 -0.5263  0.5339  0.0352
10166TIP3    H130420   7.542   0.537   1.193  0.6549 -1.3589 -0.9536
10166TIP3    H230421   7.495   0.487   1.328 -1.0872  0.8009 -0.7374
10167TIP3   OH230422   3.551   5.089   3.862 -0.1637  0.4699  0.5074
10167TIP3    H130423   3.460   5.120   3.863 -0.5998 -0.7932  1.1124
10167TIP3    H230424   3.556   5.033   3.785 -0.0919 -0.0276  0.8734
10168TIP3   OH230425   4.139   5.442   2.087  0.3559  0.2719 -0.7931
10168TIP3    H130426   4.186   5.524   2.071  0.9761 -0.2296 -1.5780
10168TIP3    H230427   4.083   5.461   2.163  0.4475  1.4325 -1.0083
10169TIP3   OH230428   3.911   7.620   2.920  0.2809 -0.0294  0.3244
10169TIP3    H130429   3.924   7.711   2.892 -2.1871  0.5230  0.8052
10169TIP3    H230430   3.864   7.628   3.003  0.4379 -1.7471  0.5842
10170TIP3   OH230431   6.846   7.497   3.511  0.3935 -0.3884  0.2254
10170TIP3    H130432   6.836   7.456   3.597 -0.5008 -0.5387  0.0541
10170TIP3    H230433   6.905   7.439   3.463 -0.1796 -1.0187  0.2783
10171TIP3   OH230434   4.324   5.566   4.824  0.4548  0.2245  0.0384
10171TIP3    H130435   4.369   5.599   4.902  0.8184  0.4653 -0.2722
10171TIP3    H230436   4.233   5.596   4.835 -0.0649 -1.8366  1.5716
10172TIP3   OH230437   2.629   7.898   3.466 -0.5500  0.0491 -0.3239
10172TIP3    H130438   2.643   7.845   3.544 -0.9940 -1.2382 -1.0922
10172TIP3    H230439   2.709   7.885   3.413 -0.2667  0.8810 -0.1064
10173TIP3   OH230440   5.076   5.784   2.015  0.8232  0.1428 -0.6634
10173TIP3    H130441   4.988   5.764   2.046  0.9730 -1.8749 -1.4944
10173TIP3    H230442   5.076   5.880   2.005 -0.6358  0.3608  1.1741
10174TIP3   OH230443   8.279   0.912   5.132  0.0999  0.2745 -0.0629
10174TIP3    H130444   8.275   0.903   5.037 -0.9997 -2.2372  0.1768
10174TIP3    H230445   8.210   0.975   5.153  0.4056  0.9144 -0.9244
10175TIP3   OH230446   7.815   8.024   4.600  0.5871 -0.0855 -0.4182
10175TIP3    H130447   7.850   8.112   4.610 -2.1266  0.9481  0.3201
10175TIP3    H230448   7.773   8.024   4.514 -1.9385  0.3074  0.7565
10176TIP3   OH230449   5.075   7.325   3.689 -0.0409  0.0841  0.0846
10176TIP3    H130450   5.146   7.272   3.653  0.4859 -0.0519  1.2758
10176TIP3    H230451   5.008   7.262   3.714  0.0512  0.0846  0.3347
10177TIP3   OH230452   3.969   4.546   3.024 -0.3496 -0.2414  0.0855
10177TIP3    H130453   4.057   4.529   2.991 -0.2633 -0.7028  0.5437
10177TIP3    H230454   3.968   4.505   3.111 -0.6987  0.5995  0.4861
10178TIP3   OH230455   6.026   7.530   3.095 -0.5006  0.1259  0.2397
10178TIP3    H130456   6.039   7.624   3.111 -0.3891  0.2545 -0.5460
10178TIP3    H230457   6.006   7.525   3.001  0.4149 -0.7342  0.0860
10179TIP3   OH230458   5.645   7.014   2.112  0.1825  0.3803  0.1786
10179TIP3    H130459   5.596   6.937   2.140  0.9209  0.4230  1.6300
10179TIP3    H230460   5.727   6.979   2.078 -0.1707  0.4257 -0.7520
10180TIP3   OH230461   5.094   6.586   2.914  0.0427  0.0901  0.4291
10180TIP3    H130462   5.084   6.520   2.845 -2.3118  0.2308  0.5840
10180TIP3    H230463   5.185   6.578   2.942  0.5207 -1.2599 -1.3957
10181TIP3   OH230464   5.257   7.940   3.970 -0.5527 -0.0423 -0.6491
10181TIP3    H130465   5.270   7.845   3.968  1.3823  0.1981 -1.4073
10181TIP3    H230466   5.188   7.957   3.905 -2.0055 -1.0517  0.6052
10182TIP3   OH230467   7.289   0.286   4.066 -0.9693  0.5276 -0.3985
10182TIP3    H130468   7.227   0.343   4.021  0.2703  1.6523 -0.6834
10182TIP3    H230469   7.361   0.273   4.004 -0.9908 -0.9521 -0.1540
10183TIP3   OH230470   3.713   6.844   3.201 -0.1749 -0.0623  0.1108
10183TIP3    H130471   3.653   6.917   3.185 -0.7921 -0.7665 -0.8954
10183TIP3    H230472   3.768   6.842   3.122  0.3878 -0.1670  0.5064
10184TIP3   OH230473   2.668   1.191   4.774  0.4141  0.0560 -0.6195
10184TIP3    H130474   2.632   1.112   4.816  0.6923  0.8864  1.2440
10184TIP3    H230475   2.615   1.202   4.695 -1.2120 -0.6698  0.3286
10185TIP3   OH230476   8.483   0.721   3.930  0.2082 -0.1866  0.0646
10185TIP3    H130477   8.520   0.792   3.878  0.0816 -1.1020 -1.2949
10185TIP3    H230478   8.559   0.678   3.970  0.3304  0.3131  0.3726
10186TIP3   OH230479   6.091   8.355   3.722 -0.2565 -0.5663 -0.4269
10186TIP3    H130480   6.063   8.442   3.753  1.1417  0.2139 -1.2921
10186TIP3    H230481   6.142   8.373   3.643  3.0233 -1.8627  1.2699
10187TIP3   OH230482   4.681   7.388   3.737 -0.1622 -0.3097 -0.9396
10187TIP3    H130483   4.600   7.337   3.729 -0.6296  0.3426 -0.4090
10187TIP3    H230484   4.737   7.335   3.794 -1.5222  0.8279  1.5316
10188TIP3   OH230485   0.564   0.168   3.093  0.3820  0.1021  0.1780
10188TIP3    H130486   0.502   0.172   3.166  1.3440 -2.7579  1.2015
10188TIP3    H230487   0.538   0.090   3.045 -0.1518  1.8714 -2.5393
10189TIP3   OH230488   5.765   6.893   1.581 -0.5337 -0.0950  0.3481
10189TIP3    H130489   5.762   6.802   1.608 -0.3560  0.2700  1.6519
10189TIP3    H230490   5.764   6.891   1.486 -0.6654 -1.4483  0.3802
10190TIP3   OH230491   4.900   6.156   2.589 -0.0391 -0.4067  0.1378
10190TIP3    H130492   4.969   6.222   2.594  0.1122 -0.6951  2.1264
10190TIP3    H230493   4.935   6.081   2.637 -1.1934 -1.0418  0.0009
10191TIP3   OH230494   6.988   0.155   4.001  0.0299  0.2134  0.1829
10191TIP3    H130495   6.911   0.210   4.014 -1.3174 -1.2940 -1.2906
10191TIP3    H230496   7.029   0.190   3.922  1.0484  1.2000  1.1295
10192TIP3   OH230497   6.386   0.689   2.417 -0.3813 -0.0745  0.4409
10192TIP3    H130498   6.439   0.689   2.496 -0.6111 -0.0020  0.5947
10192TIP3    H230499   6.345   0.776   2.415  0.7276  0.4494 -0.4986
10193TIP3   OH230500   1.584   0.769   4.822 -0.0148 -0.3582 -0.2242
10193TIP3    H130501   1.594   0.731   4.909  1.3227 -1.1559 -0.7053
10193TIP3    H230502   1.592   0.694   4.762  2.1340  0.5721 -1.1687
10194TIP3   OH230503   6.252   6.007   3.697 -0.3118  0.2325 -0.1226
10194TIP3    H130504   6.305   6.085   3.714  1.4967 -0.6290 -1.6391
10194TIP3    H230505   6.171   6.041   3.659  0.4638  1.3732 -0.7676
10195TIP3   OH230506   5.559   8.085   2.516  0.0905  0.2908 -0.4736
10195TIP3    H130507   5.568   8.107   2.608 -1.2980 -0.5598 -0.1199
10195TIP3    H230508   5.647   8.092   2.480  0.1793  3.6428  0.2234
10196TIP3   OH230509   5.679   6.592   3.910  0.2890 -0.6659  0.1820
10196TIP3    H130510   5.712   6.589   4.000  0.6963 -0.1511  0.0578
10196TIP3    H230511   5.617   6.520   3.904 -0.2939 -0.2472  1.0966
10197TIP3   OH230512   0.853   0.950   2.324 -0.4486 -0.1995  0.1031
10197TIP3    H130513   0.865   0.859   2.352  0.9486  0.0054  0.1823
10197TIP3    H230514   0.940   0.990   2.332 -0.8725  0.9237 -0.7228
10198TIP3   OH230515   5.816   7.761   3.590 -0.3447  0.2336  0.2431
10198TIP3    H130516   5.844   7.718   3.509  1.0690 -0.0108  0.8420
10198TIP3    H230517   5.770   7.693   3.639  1.0016 -0.3319  0.7412
10199TIP3   OH230518   7.739   6.626   4.660  0.9352 -0.8227 -0.5416
10199TIP3    H130519   7.671   6.619   4.728  0.2143 -0.3112 -1.2103
10199TIP3    H230520   7.739   6.718   4.635  2.8633 -0.5307  0.4528
10200TIP3   OH230521   6.464   5.715   1.832  0.7525 -0.3394 -0.2885
10200TIP3    H130522   6.388   5.751   1.877  0.6553 -1.3589  0.3836
10200TIP3    H230523   6.519   5.791   1.812 -0.5119  0.4273 -0.9410
10201TIP3   OH230524   4.991   7.275   2.403 -0.1159 -0.4287 -0.3897
10201TIP3    H130525   4.999   7.333   2.478  0.2582 -0.9866  0.0077
10201TIP3    H230526   4.903   7.237   2.412 -1.5289  2.2360 -2.2418
10202TIP3   OH230527   3.903   3.838   4.071 -0.1502  0.0983  0.5135
10202TIP3    H130528   3.914   3.778   3.997  0.7061 -0.3277  0.9803
10202TIP3    H230529   3.809   3.834   4.091 -0.2812 -0.2474 -0.1641
10203TIP3   OH230530   5.606   6.367   3.381  0.1370  0.3723 -0.2121
10203TIP3    H130531   5.583   6.277   3.405 -1.0756  0.4642 -1.0041
10203TIP3    H230532   5.522   6.408   3.360  0.7851  1.4208 -0.7480
10204TIP3   OH230533   3.036   5.335   1.837  0.3173  0.1527 -0.4260
10204TIP3    H130534   2.945   5.304   1.840  0.2976  0.1670 -0.8056
10204TIP3    H230535   3.028   5.429   1.825  0.3785  0.2916  0.5941
10205TIP3   OH230536   4.062   6.048   2.984  0.4045 -0.0438  0.6567
10205TIP3    H130537   3.968   6.066   2.996  0.0910 -1.6834  0.7621
10205TIP3    H230538   4.105   6.102   3.050 -0.5268  0.1577  1.1087
10206TIP3   OH230539   5.347   6.618   2.969  0.0021 -0.0277  0.3064
10206TIP3    H130540   5.399   6.679   2.916 -1.3503 -0.7302 -1.8925
10206TIP3    H230541   5.399   6.538   2.972  0.8575  0.5588  1.4982
10207TIP3   OH230542   7.501   0.223   4.933 -0.3365 -0.2297 -0.2638
10207TIP3    H130543   7.469   0.168   5.005 -0.5222  0.9479  0.5793
10207TIP3    H230544   7.558   0.287   4.976 -0.9535  0.8769 -1.0804
10208TIP3   OH230545   4.766   1.343   2.325 -0.6559  0.1707 -0.6173
10208TIP3    H130546   4.753   1.401   2.400 -0.2785  1.1265 -1.2673
10208TIP3    H230547   4.708   1.269   2.341 -0.4594  0.2868  0.6915
10209TIP3   OH230548   5.994   7.335   2.261  0.1817  0.8214 -0.1621
10209TIP3    H130549   5.902   7.316   2.244  0.0322  1.0473  0.3828
10209TIP3    H230550   6.005   7.318   2.355  1.3380 -1.8968 -0.7400
10210TIP3   OH230551   1.523   1.501   4.148 -0.0032  0.7907 -0.1222
10210TIP3    H130552   1.452   1.515   4.211  0.7816 -2.5340  1.6256
10210TIP3    H230553   1.600   1.539   4.191 -0.0523  1.3280 -0.5016
10211TIP3   OH230554   6.492   7.251   4.466  0.7429  0.0991 -0.1597
10211TIP3    H130555   6.522   7.281   4.551 -1.3286  1.3826  0.1511
10211TIP3    H230556   6.572   7.247   4.412  1.7790  1.1946  1.2615
10212TIP3   OH230557   8.082   0.738   3.279  0.3295 -0.3118 -0.6520
10212TIP3    H130558   8.115   0.648   3.269 -0.4985 -0.6022 -0.8395
10212TIP3    H230559   7.988   0.731   3.262  0.1035  0.4333  0.2468
10213TIP3   OH230560   2.995   8.151   3.937 -0.4452 -0.4617  0.4439
10213TIP3    H130561   3.041   8.068   3.935 -0.4599 -0.4533 -0.6061
10213TIP3    H230562   3.020   8.194   3.855 -1.9525 -0.2625  0.0690
10214TIP3   OH230563   7.342   0.037   3.695 -0.1650 -0.1611 -0.0679
10214TIP3    H130564   7.421   0.041   3.641 -1.1194  1.1908 -1.4370
10214TIP3    H230565   7.373   0.013   3.782  1.4365 -2.3930 -1.1932
10215TIP3   OH230566   5.038   7.711   2.480  0.0069 -0.1619 -0.0292
10215TIP3    H130567   5.076   7.798   2.488  0.9494 -0.4685 -1.0402
10215TIP3    H230568   5.025   7.699   2.386 -0.3032 -1.0226  0.1221
10216TIP3   OH230569   4.633   6.350   2.633  0.5332  0.2522 -0.5522
10216TIP3    H130570   4.659   6.430   2.587  0.3391  0.9849  0.6005
10216TIP3    H230571   4.698   6.285   2.605 -0.1028  0.4532 -2.5339
10217TIP3   OH230572   0.312   1.151   4.153 -0.5094  0.1678  0.3490
10217TIP3    H130573   0.355   1.100   4.085  0.9363 -0.4777  1.7223
10217TIP3    H230574   0.318   1.097   4.232  1.0062  2.4011  1.8389
10218TIP3   OH230575   4.609   5.834   2.942  0.2471 -0.1029 -0.5053
10218TIP3    H130576   4.642   5.920   2.966 -1.9928  0.9604 -1.0964
10218TIP3    H230577   4.632   5.824   2.850  2.8153 -1.2853  0.2225
10219TIP3   OH230578   3.289   7.175   3.272  0.1394  0.2919 -0.3186
10219TIP3    H130579   3.264   7.267   3.266 -0.6742  0.1274  0.5679
10219TIP3    H230580   3.207   7.127   3.263  0.5052 -0.3434 -0.3012
10220TIP3   OH230581   4.571   6.716   4.020  0.3446  0.2027  0.2982
10220TIP3    H130582   4.546   6.774   4.091 -0.1496 -0.2034  0.4614
10220TIP3    H230583   4.601   6.636   4.063  1.7089  0.5790  0.1010
10221TIP3   OH230584   3.711   7.213   0.619 -0.4752  0.4792 -0.0450
10221TIP3    H130585   3.741   7.141   0.563 -0.1405  0.4792  0.1347
10221TIP3    H230586   3.616   7.203   0.622 -0.6359  1.3251 -1.7797
10222TIP3   OH230587   5.004   7.177   3.257 -0.2663 -0.3893  0.0570
10222TIP3    H130588   4.913   7.158   3.278  0.1051 -0.2902  1.8442
10222TIP3    H230589   5.001   7.222   3.173 -1.9120  0.1428  0.3878
10223TIP3   OH230590   5.172   5.851   3.733  0.2830  0.1832  0.1818
10223TIP3    H130591   5.152   5.797   3.809 -1.0430  0.2720 -0.0990
10223TIP3    H230592   5.091   5.853   3.683 -0.1724  3.6373  0.9422
10224TIP3   OH230593   6.376   0.034   1.744 -0.5958  0.4824 -0.5476
10224TIP3    H130594   6.286   0.063   1.756  0.0439  2.4356 -0.3571
10224TIP3    H230595   6.428   0.088   1.804  0.5138 -1.8629  0.7119
10225TIP3   OH230596   3.008   5.675   1.025  0.3286  0.9316 -0.2313
10225TIP3    H130597   3.050   5.635   0.949 -0.7204 -1.4075  0.3982
10225TIP3    H230598   2.928   5.714   0.991  0.1297  0.3629 -0.4138
10226TIP3   OH230599   4.825   6.082   1.815  0.4817  0.2062 -0.1442
10226TIP3    H130600   4.764   6.051   1.748  0.9930 -1.3915  0.0975
10226TIP3    H230601   4.778   6.152   1.859 -1.3989 -1.3276  0.3725
10227TIP3   OH230602   7.827   0.071   4.135 -0.5616  0.4830 -0.5398
10227TIP3    H130603   7.917   0.063   4.166 -0.4999  0.5884 -0.6948
10227TIP3    H230604   7.806   0.164   4.144 -0.9197  0.3354  0.2318
10228TIP3   OH230605   7.448   1.416   1.973 -0.4548 -0.1702 -0.4634
10228TIP3    H130606   7.467   1.414   2.067 -1.3874  0.8646 -0.2391
10228TIP3    H230607   7.530   1.445   1.933  0.1555 -1.2780 -0.0386
10229TIP3   OH230608   3.761   6.362   4.541  0.4902  0.0384 -0.3693
10229TIP3    H130609   3.754   6.320   4.628  0.7365  0.3766 -0.1861
10229TIP3    H230610   3.746   6.290   4.479 -0.8794  0.0268 -0.0327
10230TIP3   OH230611   4.722   8.161   3.759 -0.4528  0.6495 -0.1941
10230TIP3    H130612   4.655   8.189   3.821 -1.6270 -0.7946 -0.8009
10230TIP3    H230613   4.803   8.200   3.792 -1.4605  1.8257  0.9312
10231TIP3   OH230614   5.239   0.468   0.242 -0.4485  0.4617  0.0779
10231TIP3    H130615   5.173   0.529   0.209 -0.1487  1.4797  1.3044
10231TIP3    H230616   5.195   0.423   0.315 -0.0393  0.5953  0.4072
10232TIP3   OH230617   6.514   7.563   2.007 -0.0239 -0.2893 -0.3196
10232TIP3    H130618   6.476   7.500   2.068 -0.1130  0.6219  0.5675
10232TIP3    H230619   6.594   7.593   2.049  0.1355  0.0204 -0.8414
10233TIP3   OH230620   8.095   1.662   5.063  0.0711  0.6650  0.4034
10233TIP3    H130621   8.028   1.598   5.039  1.4265 -0.2833 -0.9679
10233TIP3    H230622   8.094   1.725   4.991  1.0995  0.2809  0.0508
10234TIP3   OH230623   0.962   1.064   2.011 -0.1682 -0.2699 -0.1632
10234TIP3    H130624   0.995   1.052   1.922  0.5581 -2.2297  0.3521
10234TIP3    H230625   0.883   1.011   2.015 -1.4873  1.6288 -0.3121
10235TIP3   OH230626   5.710   7.764   5.351 -0.4337 -0.0939  0.0999
10235TIP3    H130627   5.744   7.745   5.439  0.9409 -2.9727 -1.0020
10235TIP3    H230628   5.766   7.835   5.319  0.4755 -0.5077  0.7351
10236TIP3   OH230629   6.435   8.272   4.869 -0.2695  0.7475 -0.3627
10236TIP3    H130630   6.345   8.304   4.858 -0.0688  1.7045  0.6526
10236TIP3    H230631   6.466   8.317   4.948  0.9186  0.0126 -0.4129
10237TIP3   OH230632   3.374   7.051   0.768  0.3585  0.1071  0.2130
10237TIP3    H130633   3.354   7.137   0.804  2.2698 -0.2197  2.1058
10237TIP3    H230634   3.467   7.039   0.783  0.3936 -1.7445 -1.2650
10238TIP3   OH230635   5.359   6.333   3.659 -0.1556  0.2157 -0.2951
10238TIP3    H130636   5.438   6.364   3.615  0.6777  0.1663  1.1209
10238TIP3    H230637   5.383   6.247   3.694 -1.0675 -0.1107 -0.4560
10239TIP3   OH230638   2.659   1.178   3.446  0.5688 -0.9592  0.0586
10239TIP3    H130639   2.702   1.125   3.380  1.6671 -0.2280  0.1770
10239TIP3    H230640   2.607   1.242   3.396  2.1387  0.1994 -0.1281
10240TIP3   OH230641   6.323   7.963   4.814 -0.1212 -0.0562 -0.1727
10240TIP3    H130642   6.338   8.058   4.816  0.9474 -0.2328  1.1505
10240TIP3    H230643   6.228   7.954   4.815 -0.3152  1.0365 -3.2604
10241TIP3   OH230644   2.829   2.069   2.404  0.0696 -0.0076 -0.3412
10241TIP3    H130645   2.826   2.129   2.329 -0.6946  0.8276  0.3364
10241TIP3    H230646   2.849   1.984   2.366  0.2043  0.4994 -1.4379
10242TIP3   OH230647   8.634   7.351   2.257  0.1404 -0.2062 -0.0821
10242TIP3    H130648   8.553   7.331   2.209 -0.3281  1.4278 -0.0203
10242TIP3    H230649   8.614   7.434   2.302  2.1156  0.6074 -0.6761
10243TIP3   OH230650   5.423   8.203   3.277  0.2947 -0.2646 -0.0499
10243TIP3    H130651   5.507   8.210   3.323  0.1044 -3.3284  0.8760
10243TIP3    H230652   5.359   8.186   3.346 -0.5485 -1.3679 -1.0772
10244TIP3   OH230653   0.551   0.198   2.780 -0.3514 -0.4054  0.4464
10244TIP3    H130654   0.535   0.117   2.828 -0.9408 -0.1739  0.6442
10244TIP3    H230655   0.473   0.251   2.795 -0.1848 -0.0007 -0.0922
10245TIP3   OH230656   6.545   7.604   2.848  0.2797  0.1578 -0.2664
10245TIP3    H130657   6.637   7.578   2.851 -0.1157 -1.1963  2.2060
10245TIP3    H230658   6.546   7.699   2.860  1.3256  0.0551  0.5325
10246TIP3   OH230659   4.895   7.264   3.012 -0.1691 -0.0041  0.1414
10246TIP3    H130660   4.930   7.246   2.925  1.3329 -3.7973  1.4035
10246TIP3    H230661   4.816   7.209   3.017 -1.0089  1.2385  0.7161
10247TIP3   OH230662   4.655   7.060   0.276 -0.0526 -0.1677  0.0809
10247TIP3    H130663   4.673   7.146   0.239  0.6648 -0.1691  0.4044
10247TIP3    H230664   4.565   7.041   0.252 -0.2290  0.6994  0.0553
10248TIP3   OH230665   7.205   6.147   3.527  0.2551 -0.5262  0.3301
10248TIP3    H130666   7.160   6.192   3.598  0.9464  1.8488 -0.6913
10248TIP3    H230667   7.201   6.207   3.453  1.3100 -2.0961 -1.0576
10249TIP3   OH230668   2.614   0.571   3.910  0.0457  0.4350 -0.0954
10249TIP3    H130669   2.538   0.617   3.945 -0.8061 -1.2979  0.3997
10249TIP3    H230670   2.609   0.484   3.949  0.8080 -0.5444 -2.1008
10250TIP3   OH230671   5.435   8.352   3.828  0.1148 -0.0781 -0.4210
10250TIP3    H130672   5.500   8.296   3.871 -0.8020 -0.2616  0.7266
10250TIP3    H230673   5.471   8.365   3.740  0.0412 -3.0028 -0.9413
10251TIP3   OH230674   0.775   0.405   2.255  0.3329  0.1717 -0.2554
10251TIP3    H130675   0.742   0.319   2.229 -1.7828  0.6310  0.8162
10251TIP3    H230676   0.849   0.386   2.313 -1.0364 -0.9416  1.1440
10252TIP3   OH230677   5.689   7.158   2.696  0.1438 -0.1506 -0.1369
10252TIP3    H130678   5.599   7.138   2.722 -0.4955  0.4603 -1.7643
10252TIP3    H230679   5.689   7.148   2.601  1.9370 -0.6339 -0.1029
10253TIP3   OH230680   8.007   0.144   0.280  0.1274  0.0305 -0.0379
10253TIP3    H130681   8.089   0.192   0.291  0.3953  0.2707 -2.7013
10253TIP3    H230682   8.034   0.054   0.262 -0.0337  0.5564 -3.2506
10254TIP3   OH230683   7.970   7.158   2.236 -0.0193  0.6002  0.1856
10254TIP3    H130684   8.016   7.183   2.315  1.4404  1.3234 -0.8704
10254TIP3    H230685   8.007   7.214   2.167 -2.2673  1.0107 -0.7478
10255TIP3   OH230686   4.862   7.660   1.195  0.2560  0.5436  0.2434
10255TIP3    H130687   4.883   7.644   1.103  2.0726  2.0347  0.3621
10255TIP3    H230688   4.768   7.679   1.196  0.3243  1.0276 -1.3823
10256TIP3   OH230689   5.101   8.141   3.680 -0.0958 -0.1027 -0.2021
10256TIP3    H130690   5.079   8.215   3.737 -0.0765 -0.5144  0.3389
10256TIP3    H230691   5.051   8.068   3.715  0.3724 -0.4994 -0.3650
10257TIP3   OH230692   7.499   7.879   4.098  0.3238 -0.2266  0.1683
10257TIP3    H130693   7.504   7.791   4.062 -0.1347  0.2912 -1.1974
10257TIP3    H230694   7.426   7.920   4.051  0.4495  0.8236  0.8839
10258TIP3   OH230695   8.331   0.749   4.614 -0.3132 -0.3085  0.2306
10258TIP3    H130696   8.357   0.710   4.697  0.2363  2.3723  1.3682
10258TIP3    H230697   8.395   0.716   4.551  0.6519 -0.5854  1.3338
10259TIP3   OH230698   1.506   1.672   3.417  0.7689 -0.7155 -0.4233
10259TIP3    H130699   1.565   1.657   3.491 -0.1214 -0.1854  0.4086
10259TIP3    H230700   1.564   1.695   3.344  1.6690 -1.4363  0.0494
10260TIP3   OH230701   7.103   0.479   3.859 -0.4246 -0.0749  0.0303
10260TIP3    H130702   7.024   0.513   3.818 -0.4589 -0.3436 -0.1255
10260TIP3    H230703   7.127   0.402   3.806  0.3251  0.4081 -0.3346
10261TIP3   OH230704   7.719   7.215   1.012  0.0489  0.1862 -0.2851
10261TIP3    H130705   7.775   7.257   0.946  1.4427 -0.6037  0.3726
10261TIP3    H230706   7.631   7.245   0.991  0.4272 -0.2402 -2.6789
10262TIP3   OH230707   6.152   6.109   3.325  0.0555  0.1462 -0.9751
10262TIP3    H130708   6.184   6.025   3.359 -0.3726 -0.2181 -1.4666
10262TIP3    H230709   6.214   6.131   3.256  0.0931  0.1770 -0.9322
10263TIP3   OH230710   0.494   0.420   3.040 -0.2302 -0.2972  0.2613
10263TIP3    H130711   0.417   0.364   3.042  0.0178 -0.7420 -1.4033
10263TIP3    H230712   0.568   0.360   3.033  0.1160  0.1914 -0.3839
10264TIP3   OH230713   0.313   3.130   1.714 -0.0020  0.5887  0.6697
10264TIP3    H130714   0.394   3.078   1.709  0.5937  1.5875 -0.1906
10264TIP3    H230715   0.307   3.154   1.806  1.6337  1.9719  0.4433
10265TIP3   OH230716   5.423   7.835   3.232 -0.2974 -0.3657 -0.1023
10265TIP3    H130717   5.510   7.842   3.193  0.0141 -1.7824  0.3286
10265TIP3    H230718   5.365   7.881   3.171  0.9563  1.8399  0.3152
10266TIP3   OH230719   1.281  -0.027   3.968 -0.1411  0.5473  0.4885
10266TIP3    H130720   1.310   0.059   3.999 -0.8275 -0.2952  3.7072
10266TIP3    H230721   1.188  -0.030   3.991 -0.9285  0.1267 -2.4882
10267TIP3   OH230722   8.562   1.065   2.350 -0.2662 -0.5814  0.5972
10267TIP3    H130723   8.473   1.060   2.384  0.5697 -0.4033  2.8888
10267TIP3    H230724   8.618   1.059   2.427  1.6882  0.5590 -0.6767
10268TIP3   OH230725   6.236   8.282   5.169  0.2746 -0.3428 -0.1735
10268TIP3    H130726   6.244   8.192   5.138  0.0507 -0.6005  0.5224
10268TIP3    H230727   6.242   8.335   5.089  1.0323 -0.9400 -0.5189
10269TIP3   OH230728   0.205   0.352   3.538 -0.1716  0.5442 -0.4315
10269TIP3    H130729   0.220   0.437   3.579  0.0840  0.0854  0.4391
10269TIP3    H230730   0.290   0.329   3.499  0.2031 -0.0459  0.7217
10270TIP3   OH230731   2.096   1.141   1.460  0.2205 -0.2151  0.0669
10270TIP3    H130732   2.100   1.054   1.500  0.8145  0.6184  1.8764
10270TIP3    H230733   2.171   1.188   1.496 -0.4853  1.2695 -0.3637
10271TIP3   OH230734   3.568   6.970   4.272 -0.3165 -0.6933  0.0848
10271TIP3    H130735   3.569   6.886   4.318 -2.3193  0.0205  1.5119
10271TIP3    H230736   3.615   7.030   4.331  1.1863 -0.8138 -0.9711
10272TIP3   OH230737   1.356   1.363   2.749 -0.0529 -0.3929 -0.0137
10272TIP3    H130738   1.290   1.294   2.754  1.5143 -2.0160 -0.6977
10272TIP3    H230739   1.396   1.351   2.662 -2.1107  3.6603 -1.6163
10273TIP3   OH230740   3.546   0.863   2.226  0.0164  0.3064  0.0481
10273TIP3    H130741   3.482   0.916   2.179 -1.9793 -1.9787  0.0810
10273TIP3    H230742   3.586   0.807   2.159 -2.2797 -2.4088  0.8460
10274TIP3   OH230743   2.098   0.363   0.929  0.3460  0.0240  0.3924
10274TIP3    H130744   2.034   0.292   0.923  0.0814  0.0182  2.9141
10274TIP3    H230745   2.055   0.438   0.888 -0.7204 -0.3540  0.7959
10275TIP3   OH230746   5.862   7.629   3.321 -0.0712  0.8932 -0.7449
10275TIP3    H130747   5.823   7.665   3.242 -0.2982 -1.7003 -1.8732
10275TIP3    H230748   5.939   7.582   3.290 -0.9534 -1.3507  0.3572
10276TIP3   OH230749   6.817   7.403   2.919  0.2335 -0.0822 -0.6182
10276TIP3    H130750   6.865   7.485   2.931  1.0427 -0.6970  0.3809
10276TIP3    H230751   6.865   7.356   2.851  0.9763 -0.6283  0.2712
10277TIP3   OH230752   7.595   6.904   1.591  0.0986  0.3405 -0.5406
10277TIP3    H130753   7.676   6.934   1.631  0.4384 -1.5644  0.2760
10277TIP3    H230754   7.526   6.938   1.647  0.4878 -0.5444  0.4983
10278TIP3   OH230755   7.298   8.061   3.984 -0.5620 -0.0709  0.0809
10278TIP3    H130756   7.296   8.154   3.959  0.1629 -0.0952 -0.0587
10278TIP3    H230757   7.250   8.017   3.914 -0.1779  0.0927 -0.2815
10279TIP3   OH230758   6.543   7.217   2.639 -0.4270 -0.5218 -0.0969
10279TIP3    H130759   6.493   7.255   2.711 -1.1692  0.0290 -0.8775
10279TIP3    H230760   6.527   7.123   2.645 -2.1565 -0.2941 -0.7478
10280TIP3   OH230761   0.907   0.481   2.945  0.4503 -0.1419  0.1486
10280TIP3    H130762   0.895   0.475   3.040  0.7660 -0.2665  0.1800
10280TIP3    H230763   0.940   0.570   2.930 -0.4764  0.1985  0.0630
10281TIP3   OH230764   7.071   8.140   2.369 -0.6251  0.3188 -0.0323
10281TIP3    H130765   6.990   8.143   2.419  0.2208 -0.5789  1.4345
10281TIP3    H230766   7.044   8.121   2.279 -2.0646  0.6212  0.3348
10282TIP3   OH230767   6.380   8.234   1.098  0.1500  0.0798  0.1000
10282TIP3    H130768   6.348   8.176   1.029 -2.0184 -0.4932  1.5414
10282TIP3    H230769   6.315   8.304   1.103  0.8667  0.7049  0.8028
10283TIP3   OH230770   5.345   5.315   3.528  0.6751  0.4292  0.0466
10283TIP3    H130771   5.266   5.282   3.572  0.5894 -0.1576 -0.5372
10283TIP3    H230772   5.388   5.236   3.495  1.6074  0.7364  0.5306
10284TIP3   OH230773   8.338   0.748   2.559  0.3054 -0.7981 -0.3901
10284TIP3    H130774   8.254   0.726   2.599 -0.4458  0.2749 -1.3420
10284TIP3    H230775   8.396   0.764   2.633 -0.2303 -1.8834  0.2794
10285TIP3   OH230776   7.102   6.633   0.721 -0.2151  0.3526  0.6581
10285TIP3    H130777   7.140   6.643   0.808 -1.0240  1.1032  0.9266
10285TIP3    H230778   7.015   6.597   0.736  0.2780 -1.1531  0.0511
10286TIP3   OH230779   0.163   2.204   7.162 -0.8042 -0.1586 -0.0068
10286TIP3    H130780   0.206   2.176   7.243  0.9896 -2.0876 -1.5534
10286TIP3    H230781   0.144   2.122   7.116 -3.4791  0.8365 -0.7185
10287TIP3   OH230782   1.336   0.787   3.429  0.1510 -0.3525 -0.1472
10287TIP3    H130783   1.403   0.719   3.438 -0.3456 -0.8247  0.0696
10287TIP3    H230784   1.257   0.747   3.466 -0.0753  0.4577  0.2399
10288TIP3   OH230785   4.506   7.608   3.542 -0.3877  0.5727  0.1209
10288TIP3    H130786   4.425   7.632   3.496 -0.2732  0.6744 -0.0252
10288TIP3    H230787   4.518   7.515   3.522 -2.1814 -0.2859  2.6962
10289TIP3   OH230788   2.828   0.367   5.303 -0.1372  0.0253  0.2043
10289TIP3    H130789   2.910   0.333   5.266 -0.5653  0.9575 -1.6303
10289TIP3    H230790   2.850   0.456   5.332  0.3785 -0.9432  2.8725
10290TIP3   OH230791   0.162   0.935   4.925 -0.5455  0.2694  0.1248
10290TIP3    H130792   0.118   0.936   4.840  0.2171  1.3206 -0.2548
10290TIP3    H230793   0.185   1.026   4.942 -1.6747  0.2426  1.9790
10291TIP3   OH230794   5.467   7.155   2.475  0.1748  0.5573 -0.5341
10291TIP3    H130795   5.387   7.180   2.428 -1.7922 -3.9377  0.1643
10291TIP3    H230796   5.436   7.132   2.563  2.3672 -0.5040 -0.0163
10292TIP3   OH230797   3.845   6.458   4.150 -0.3440 -0.0570  0.3004
10292TIP3    H130798   3.921   6.413   4.112  0.0153 -0.9410  2.0385
10292TIP3    H230799   3.848   6.437   4.243 -2.4148  0.3417  0.4884
10293TIP3   OH230800   0.181   0.290   4.894  0.5542 -0.1214  0.0105
10293TIP3    H130801   0.168   0.385   4.901  1.1413  0.0242 -0.7525
10293TIP3    H230802   0.094   0.255   4.873  0.0808  0.1031  1.5679
10294TIP3   OH230803   0.617   1.899   4.060 -0.6487 -0.2840  0.7920
10294TIP3    H130804   0.617   1.992   4.037 -1.3797 -0.4697  0.0104
10294TIP3    H230805   0.698   1.886   4.109 -0.5125  0.7521  0.8465
10295TIP3   OH230806   2.283   0.148   1.393  0.4577  0.1937  0.0529
10295TIP3    H130807   2.271   0.233   1.351  1.1597  0.0751 -0.3835
10295TIP3    H230808   2.301   0.088   1.321  0.1472 -0.2991  0.3778
10296TIP3   OH230809   8.016   0.039   2.932  0.8949 -0.0144  0.1437
10296TIP3    H130810   8.098   0.037   2.883 -0.0356 -1.1212 -1.4327
10296TIP3    H230811   7.963  -0.032   2.893 -0.2375 -0.2915  2.1139
10297TIP3   OH230812   1.867   0.597   3.293 -0.0411  0.1799 -0.2424
10297TIP3    H130813   1.838   0.559   3.376 -0.4591 -0.4914 -0.6894
10297TIP3    H230814   1.955   0.630   3.311  0.0166 -0.2985  0.3648
10298TIP3   OH230815   7.171   7.863   3.573  0.4373 -0.8801 -0.2295
10298TIP3    H130816   7.212   7.945   3.598 -2.1432  0.1156  0.9665
10298TIP3    H230817   7.118   7.885   3.496 -0.6279 -1.2726  0.3704
10299TIP3   OH230818   3.221   7.384   2.120 -0.2356  0.0596  0.0528
10299TIP3    H130819   3.220   7.292   2.094 -1.1087  0.2899 -0.7459
10299TIP3    H230820   3.314   7.407   2.123 -0.0574 -0.4681 -1.1185
10300TIP3   OH230821   1.421   1.463   1.029 -0.3655  0.3646 -0.0269
10300TIP3    H130822   1.500   1.487   0.980 -1.0330  1.7068 -0.4712
10300TIP3    H230823   1.418   1.524   1.102 -0.4112 -0.3908  0.6067
10301TIP3   OH230824   1.019   0.567   1.079 -0.2104  0.1063  0.0413
10301TIP3    H130825   1.032   0.577   1.173 -1.7478  4.0937 -0.0860
10301TIP3    H230826   0.928   0.594   1.064 -0.5790 -2.1987 -2.4079
10302TIP3   OH230827   6.768   7.240   1.294 -0.0806 -0.3514  0.3876
10302TIP3    H130828   6.758   7.153   1.332 -0.9268 -0.3314  0.2253
10302TIP3    H230829   6.766   7.225   1.199 -0.8701 -0.0889  0.3599
10303TIP3   OH230830   2.036   0.658   4.380 -0.3745  0.4611  0.1319
10303TIP3    H130831   2.033   0.706   4.462 -0.7997  1.5118 -0.4801
10303TIP3    H230832   1.948   0.668   4.343 -0.0142  0.5207 -0.7320
10304TIP3   OH230833   8.075   0.675   2.639  0.2341  0.0101  0.2440
10304TIP3    H130834   8.048   0.587   2.665  0.5866 -0.1510  0.0556
10304TIP3    H230835   8.000   0.709   2.589 -0.5626  0.4178  1.6706
10305TIP3   OH230836   7.411   7.775   2.242 -0.1818  0.4924  0.3005
10305TIP3    H130837   7.374   7.690   2.265 -1.4457  0.9027 -0.1702
10305TIP3    H230838   7.505   7.763   2.248 -0.3986 -0.1881  2.8911
10306TIP3   OH230839   1.772   1.417   4.935  0.1820 -0.2647 -0.1082
10306TIP3    H130840   1.809   1.454   5.015  1.0912 -1.7682  0.1876
10306TIP3    H230841   1.731   1.335   4.963 -1.5199  0.3154 -0.8089
10307TIP3   OH230842   1.078   0.078   1.465  0.4695 -0.2260  0.0363
10307TIP3    H130843   1.063   0.006   1.404  0.6905 -0.5818  0.3960
10307TIP3    H230844   1.131   0.141   1.416  0.6727 -0.5225 -0.1286
10308TIP3   OH230845   4.894   8.034   3.194  0.0091 -0.4547  0.2638
10308TIP3    H130846   4.905   8.082   3.276 -0.2087  2.6972 -1.4798
10308TIP3    H230847   4.814   7.982   3.208 -0.2168  0.2800  1.9159
10309TIP3   OH230848   2.324   1.279   2.238  0.2972  0.3148  0.1832
10309TIP3    H130849   2.287   1.365   2.255  0.6419  0.4167  0.4103
10309TIP3    H230850   2.302   1.228   2.316  0.8796  0.4555  0.4394
10310TIP3   OH230851   6.612   6.283   2.689  0.0726 -0.3777 -0.1835
10310TIP3    H130852   6.639   6.375   2.692  0.0865 -0.4159  2.0139
10310TIP3    H230853   6.598   6.265   2.597  0.4851  1.7174 -0.6851
10311TIP3   OH230854   6.756   8.153   2.839  0.1781  0.3745  0.9934
10311TIP3    H130855   6.662   8.140   2.846 -0.0749  0.6510 -1.4119
10311TIP3    H230856   6.767   8.248   2.834  0.3821  0.2556 -1.0276
10312TIP3   OH230857   1.735   1.036   4.031 -0.5057  0.1669  0.4709
10312TIP3    H130858   1.656   1.055   4.081 -0.0584 -0.8033  1.5584
10312TIP3    H230859   1.718   1.074   3.944 -3.2380 -2.2112 -0.1325
10313TIP3   OH230860   7.724   8.337   4.147  0.1315 -0.3889  0.2820
10313TIP3    H130861   7.663   8.326   4.220 -0.2919 -1.0526 -0.1595
10313TIP3    H230862   7.801   8.287   4.172  0.3571  0.1753  0.6968
10314TIP3   OH230863   1.898   1.133   4.630 -0.3922  0.3437 -0.0376
10314TIP3    H130864   1.968   1.189   4.666 -0.1904  0.7493 -1.0234
10314TIP3    H230865   1.817   1.180   4.652 -0.4058 -0.4080  1.5970
10315TIP3   OH230866   7.889   0.135   2.600 -0.7865 -0.5455  0.2546
10315TIP3    H130867   7.908   0.211   2.544 -0.9693  0.6287  1.7470
10315TIP3    H230868   7.893   0.060   2.541  1.4577  0.4058 -0.8540
10316TIP3   OH230869   5.649   7.702   2.479  0.9030  0.0376 -0.3818
10316TIP3    H130870   5.563   7.743   2.486  1.7366  1.5623  1.2409
10316TIP3    H230871   5.631   7.614   2.446 -1.3678 -0.0278  0.9336
10317TIP3   OH230872   4.377   6.290   3.720 -0.0433  0.2477 -0.5101
10317TIP3    H130873   4.435   6.265   3.648 -0.5323 -0.5793 -0.6264
10317TIP3    H230874   4.311   6.220   3.723  0.1653  0.0862  0.9621
10318TIP3   OH230875   5.649   7.742   0.884  0.0814 -0.4027  0.2882
10318TIP3    H130876   5.598   7.704   0.956  1.2822 -1.3677  0.6487
10318TIP3    H230877   5.589   7.744   0.810 -0.7755 -0.6094  0.9701
10319TIP3   OH230878   0.940   0.685   3.920  0.8319 -0.4931 -0.0933
10319TIP3    H130879   1.004   0.714   3.855  0.6092  0.1172 -0.0479
10319TIP3    H230880   0.861   0.667   3.869  0.2176  1.3783  0.1758
10320TIP3   OH230881   7.106   7.674   0.880 -0.4003  0.2359  0.1666
10320TIP3    H130882   7.085   7.636   0.965 -2.4110  1.3065  0.1721
10320TIP3    H230883   7.035   7.645   0.823  1.3610 -1.1623 -1.3962
10321TIP3   OH230884   8.607   1.931   5.472 -0.5009  0.1977 -0.1724
10321TIP3    H130885   8.643   1.864   5.414 -0.6713  1.2580 -1.5396
10321TIP3    H230886   8.649   2.012   5.443 -2.7918  1.2062 -0.7519
10322TIP3   OH230887   8.602   5.821   3.387 -0.1136 -0.3052 -0.1413
10322TIP3    H130888   8.669   5.870   3.435  0.4025 -1.0556 -0.0824
10322TIP3    H230889   8.520   5.866   3.407 -0.2000 -1.7019  2.9828
10323TIP3   OH230890   6.265   7.217   2.838 -0.4014  0.0801  0.1491
10323TIP3    H130891   6.218   7.236   2.919 -0.4947  0.6763 -0.0464
10323TIP3    H230892   6.205   7.245   2.768 -0.5126 -0.8464 -0.1413
10324TIP3   OH230893   7.174   7.752   4.144 -0.2592  0.4194  0.1015
10324TIP3    H130894   7.236   7.707   4.202  0.9094  1.7182 -0.0986
10324TIP3    H230895   7.156   7.689   4.074  1.9608  0.5136 -0.5895
10325TIP3   OH230896   3.368   0.841   5.069 -0.3520  0.6484 -0.3261
10325TIP3    H130897   3.290   0.896   5.061 -0.7959  0.0113 -0.4369
10325TIP3    H230898   3.333   0.752   5.080  0.3680  0.2541 -1.2102
10326TIP3   OH230899   6.701   7.859   2.833 -0.0050 -0.1544  0.3873
10326TIP3    H130900   6.710   7.950   2.807  1.5132  0.1565  1.9815
10326TIP3    H230901   6.761   7.811   2.775 -0.0457 -0.0308  0.2418
10327TIP3   OH230902  -0.002   0.878   2.742  0.0545  0.0271  0.5808
10327TIP3    H130903  -0.034   0.805   2.688 -0.7008  0.7621  0.0275
10327TIP3    H230904   0.090   0.887   2.719  0.1665 -0.7812  0.6881
10328TIP3   OH230905   7.125   7.588   3.308 -0.1544 -0.7002 -0.0675
10328TIP3    H130906   7.199   7.587   3.247 -0.1750 -0.4651 -0.0970
10328TIP3    H230907   7.150   7.652   3.375 -0.8266  0.2302 -0.6911
10329TIP3   OH230908   8.085   0.755   3.772 -0.3654 -0.4261 -0.8680
10329TIP3    H130909   8.064   0.662   3.771  1.1327 -0.8586  2.1734
10329TIP3    H230910   8.148   0.765   3.700  0.7049 -2.1025 -0.2092
10330TIP3   OH230911   7.199   8.360   3.000 -0.7121 -0.3776 -0.6406
10330TIP3    H130912   7.191   8.281   3.054 -1.4714 -1.2029 -1.9114
10330TIP3    H230913   7.252   8.332   2.925 -1.5429  0.1400 -1.4243
10331TIP3   OH230914   1.960   0.598   5.290  0.3363  0.2735  0.2837
10331TIP3    H130915   2.053   0.610   5.308  0.5793 -1.1585  0.0116
10331TIP3    H230916   1.946   0.644   5.208  0.6079  1.2416  0.7653
10332TIP3   OH230917   0.797   1.438   4.034  0.5811  0.3569  0.0133
10332TIP3    H130918   0.771   1.348   4.015  0.3356  0.2018  1.0639
10332TIP3    H230919   0.725   1.491   3.998  0.3448  0.0971  0.0998
10333TIP3   OH230920   2.751   3.880   6.915 -0.9357 -0.5045  0.1757
10333TIP3    H130921   2.687   3.828   6.866  0.3022 -1.7250 -0.1633
10333TIP3    H230922   2.757   3.962   6.867  1.0736 -2.0968 -2.3657
10334TIP3   OH230923   5.779   7.428   1.578 -0.1139 -0.1198  0.3532
10334TIP3    H130924   5.869   7.402   1.556 -0.6025 -2.1973  0.6589
10334TIP3    H230925   5.765   7.390   1.665 -0.7725  1.5552  1.0059
10335TIP3   OH230926   5.241   6.590   1.582 -0.2392  0.1403 -0.2966
10335TIP3    H130927   5.329   6.553   1.583 -0.1180  0.4365  0.0938
10335TIP3    H230928   5.253   6.682   1.559 -0.3663  0.3845  0.6156
10336TIP3   OH230929   6.406   6.290   1.302 -0.1040 -0.1864 -0.1676
10336TIP3    H130930   6.364   6.370   1.333  1.3270  0.8621 -0.9124
10336TIP3    H230931   6.337   6.223   1.310 -2.3469  1.7310 -2.4692
10337TIP3   OH230932   6.293   7.722   2.103  0.1291  0.5381 -0.4400
10337TIP3    H130933   6.253   7.670   2.173 -1.0635  0.6259 -1.0422
10337TIP3    H230934   6.330   7.658   2.043 -0.3328  0.4086 -0.5903
10338TIP3   OH230935   7.520   0.173   3.933 -0.4392 -0.5275  0.3076
10338TIP3    H130936   7.607   0.149   3.902  0.6625  2.4578  0.8664
10338TIP3    H230937   7.506   0.119   4.011  1.5022 -0.1187  0.9725
10339TIP3   OH230938   4.342   5.964   5.264  0.3391  0.3167 -0.4251
10339TIP3    H130939   4.351   5.972   5.359  0.6877  1.7542 -0.5709
10339TIP3    H230940   4.433   5.959   5.232  0.2179 -0.4242 -0.6757
10340TIP3   OH230941   7.082   5.384   2.580  0.4349 -0.1323  0.3846
10340TIP3    H130942   7.177   5.389   2.573  0.2729  0.3310 -2.0683
10340TIP3    H230943   7.062   5.291   2.570  0.5353 -0.0365 -0.7643
10341TIP3   OH230944   0.975   0.024   3.043 -0.0904  0.5478  0.9961
10341TIP3    H130945   1.068   0.006   3.062  0.2175  1.4023  0.3078
10341TIP3    H230946   0.977   0.091   2.976 -1.2015 -0.9902 -0.6097
10342TIP3   OH230947   8.544   0.124   4.519 -0.0453 -0.5219  0.1851
10342TIP3    H130948   8.533   0.123   4.423 -1.4052 -0.9281  0.3289
10342TIP3    H230949   8.537   0.032   4.545 -2.8657 -0.1444  0.9747
10343TIP3   OH230950   8.772   0.472   3.079 -0.5069 -0.1987 -0.2522
10343TIP3    H130951   8.701   0.424   3.121 -1.3058  1.0839 -0.0986
10343TIP3    H230952   8.851   0.431   3.112 -1.1516 -2.4926 -1.4029
10344TIP3   OH230953   1.549   0.882   3.258  0.0267  0.0262 -0.5302
10344TIP3    H130954   1.610   0.848   3.323 -0.6942 -1.7015 -0.7452
10344TIP3    H230955   1.463   0.856   3.289 -0.6032  2.0563 -0.4765
10345TIP3   OH230956   4.693   5.357   3.313 -0.6288  0.0863 -0.0064
10345TIP3    H130957   4.697   5.269   3.351 -0.5150 -1.2110 -2.8643
10345TIP3    H230958   4.616   5.397   3.354 -0.3556 -1.1305  1.7548
10346TIP3   OH230959   6.751   7.994   1.018  0.2514 -0.0896 -0.4221
10346TIP3    H130960   6.796   8.022   0.939  1.1913 -0.3879  0.0041
10346TIP3    H230961   6.818   7.948   1.069 -0.4513 -0.2641  0.3519
10347TIP3   OH230962   4.444   7.692   2.112 -0.6061  0.1095  0.1872
10347TIP3    H130963   4.488   7.630   2.171  1.0248  1.3000  0.2691
10347TIP3    H230964   4.427   7.642   2.032  0.5887 -0.4857  0.2952
10348TIP3   OH230965   8.421   8.085   4.343  0.2101  0.4638 -0.1229
10348TIP3    H130966   8.335   8.128   4.352 -1.0649 -1.8744 -0.7346
10348TIP3    H230967   8.448   8.068   4.433 -0.5231  0.1414  0.0422
10349TIP3   OH230968   7.283   8.115   3.659 -0.1540  0.1163 -0.1524
10349TIP3    H130969   7.258   8.207   3.658  0.8865  0.4034 -0.7004
10349TIP3    H230970   7.348   8.107   3.589  0.5427 -0.8095  0.5827
10350TIP3   OH230971   5.945   5.378   1.686  0.0521  0.2235  0.4630
10350TIP3    H130972   5.964   5.288   1.663 -0.3386  0.4662 -0.8240
10350TIP3    H230973   5.976   5.387   1.777  0.1174 -1.1780  0.5804
10351TIP3   OH230974   8.265   6.473   2.095  0.0629  0.4216 -0.0592
10351TIP3    H130975   8.179   6.469   2.051 -0.4020 -0.0610  0.8793
10351TIP3    H230976   8.279   6.384   2.128 -0.1156  1.0477  1.7444
10352TIP3   OH230977   8.278   1.178   3.927 -0.4415 -0.4941 -0.5348
10352TIP3    H130978   8.240   1.206   3.843 -0.7168  1.4336  0.2046
10352TIP3    H230979   8.204   1.139   3.974 -0.6707 -0.0806 -0.5465
10353TIP3   OH230980   7.459   7.048   1.173  0.0016  0.0770  0.0943
10353TIP3    H130981   7.542   7.028   1.129  0.2497  1.2900 -0.0108
10353TIP3    H230982   7.460   6.993   1.252  0.5618 -0.4698 -0.2822
10354TIP3   OH230983   0.388   1.760   4.124 -0.0740  0.1800 -0.5150
10354TIP3    H130984   0.353   1.806   4.200  0.4611 -1.0732  0.5012
10354TIP3    H230985   0.474   1.800   4.110  0.1189 -0.0637 -0.0374
10355TIP3   OH230986   6.085   6.620   2.184  0.0723  0.0135 -1.0817
10355TIP3    H130987   6.015   6.683   2.166  0.3163  0.5362 -0.2697
10355TIP3    H230988   6.163   6.656   2.141  0.6012  1.1435  0.7571
10356TIP3   OH230989   5.515   8.283   2.309 -0.5221 -0.6582 -0.0306
10356TIP3    H130990   5.534   8.214   2.372 -0.9592  0.0867  0.9412
10356TIP3    H230991   5.593   8.339   2.311 -0.1170 -1.1879 -0.9053
10357TIP3   OH230992   0.409   2.511   4.646  0.1004  0.1832  0.1881
10357TIP3    H130993   0.417   2.421   4.614 -0.0841  0.0938  0.3943
10357TIP3    H230994   0.471   2.561   4.593 -0.6518  0.1466 -0.7322
10358TIP3   OH230995   7.989   0.107   7.075  0.4587 -0.0799  0.0459
10358TIP3    H130996   7.899   0.135   7.059  0.7324  2.2648  2.2923
10358TIP3    H230997   8.043   0.172   7.031  1.0758 -1.1570 -0.7982
10359TIP3   OH230998   7.406   7.438   3.215 -0.6528 -0.1252 -0.0375
10359TIP3    H130999   7.387   7.346   3.197 -0.5234  0.0347 -1.0218
10359TIP3    H231000   7.486   7.456   3.166 -0.3273  0.3536  0.6554
10360TIP3   OH231001   7.309   6.489   2.583 -0.1018 -0.1261 -0.1043
10360TIP3    H131002   7.316   6.400   2.617  1.2535  0.7772  2.1255
10360TIP3    H231003   7.216   6.511   2.593 -0.6890 -1.6919 -1.8428
10361TIP3   OH231004   4.510   6.767   0.961 -0.1366 -0.2738 -0.5165
10361TIP3    H131005   4.415   6.754   0.959 -0.0786 -0.9963  0.9176
10361TIP3    H231006   4.543   6.695   1.014  0.8668  2.0009  2.0757
10362TIP3   OH231007   5.331   4.986   0.441 -0.5678 -0.0725 -0.7014
10362TIP3    H131008   5.260   5.044   0.412 -0.4454  0.7390  0.5762
10362TIP3    H231009   5.299   4.949   0.523 -0.7877 -2.1064 -1.6607
10363TIP3   OH231010   4.187   1.826   6.656 -0.4866  0.8080 -0.1122
10363TIP3    H131011   4.125   1.895   6.634 -0.0913  1.4229  0.6887
10363TIP3    H231012   4.204   1.837   6.750 -1.6381 -1.3678  0.3841
10364TIP3   OH231013   7.192   7.836   6.391  0.3128 -0.2776  0.0990
10364TIP3    H131014   7.264   7.866   6.446  0.5243 -1.1702  0.3166
10364TIP3    H231015   7.228   7.761   6.344 -0.3488 -0.4748 -0.0972
10365TIP3   OH231016   5.473   5.288   1.444 -0.3676 -0.1417  0.0510
10365TIP3    H131017   5.390   5.244   1.425  0.1758 -2.0798  1.8992
10365TIP3    H231018   5.457   5.337   1.524  0.5479 -1.4658  1.0815
10366TIP3   OH231019   4.794   1.272   1.145  0.3682 -0.4304  0.3669
10366TIP3    H131020   4.812   1.298   1.055  2.1768 -1.7903  0.3126
10366TIP3    H231021   4.854   1.326   1.198  1.9797 -2.2409  0.4593
10367TIP3   OH231022   5.882   4.503   1.006 -0.1082 -0.0895 -0.0233
10367TIP3    H131023   5.824   4.519   0.932  0.0685 -1.2062 -0.4117
10367TIP3    H231024   5.891   4.589   1.048 -0.3912  0.5048 -1.1477
10368TIP3   OH231025   3.336   0.875   3.495 -0.0119  0.4390 -0.3903
10368TIP3    H131026   3.381   0.792   3.480  1.2627  1.1310 -0.4434
10368TIP3    H231027   3.261   0.852   3.550  1.5445 -0.4407  1.4176
10369TIP3   OH231028   3.653   4.546   0.549 -0.1189  0.1450  0.1930
10369TIP3    H131029   3.674   4.452   0.551  1.1239  0.3879 -0.6134
10369TIP3    H231030   3.716   4.586   0.609 -0.6691  0.4597  0.5601
10370TIP3   OH231031   1.343   1.631   6.061 -0.1505  0.4266  0.2120
10370TIP3    H131032   1.347   1.535   6.060  2.1552  0.4860  1.8477
10370TIP3    H231033   1.260   1.651   6.104 -1.3169 -0.8161 -1.4003
10371TIP3   OH231034   5.778   7.014   0.459 -0.6735  0.4274 -0.1036
10371TIP3    H131035   5.737   7.072   0.523 -0.2654  2.2751 -1.4845
10371TIP3    H231036   5.705   6.969   0.417 -1.0491  0.6160  0.3364
10372TIP3   OH231037   5.407   6.669   2.308  0.3830 -0.2640 -0.8010
10372TIP3    H131038   5.449   6.714   2.382  1.1068 -1.6830 -0.3194
10372TIP3    H231039   5.430   6.721   2.232  0.3245  0.7603 -0.1358
10373TIP3   OH231040   5.710   6.248   0.322 -0.2344  0.2029 -0.1691
10373TIP3    H131041   5.636   6.236   0.262  1.0301 -3.2947 -1.1556
10373TIP3    H231042   5.670   6.253   0.409 -1.8187  1.4476 -0.9407
10374TIP3   OH231043   5.795   5.761   1.086 -0.1235  0.2068 -0.2680
10374TIP3    H131044   5.729   5.692   1.089  1.5643 -1.6098 -3.0374
10374TIP3    H231045   5.857   5.738   1.155  0.3747 -1.0211 -1.1086
10375TIP3   OH231046   4.197   2.224   6.373 -0.0162  0.6918  0.0413
10375TIP3    H131047   4.118   2.252   6.325 -0.5387 -1.8743 -0.6896
10375TIP3    H231048   4.260   2.294   6.357 -1.4940  1.8246 -1.0667
10376TIP3   OH231049   4.008   2.348   6.224 -0.0435  0.0216  0.6132
10376TIP3    H131050   3.950   2.280   6.189 -0.0820  0.1611  0.4042
10376TIP3    H231051   4.011   2.414   6.155 -0.2860  0.3973  0.9636
10377TIP3   OH231052   4.096   2.785   6.180 -0.1321  0.2088  0.1369
10377TIP3    H131053   4.007   2.820   6.169 -0.3669 -0.2702  0.4619
10377TIP3    H231054   4.136   2.841   6.246 -0.8884 -0.8199  1.4829
10378TIP3   OH231055   3.651   1.314   4.239 -0.5132 -0.5635 -0.2619
10378TIP3    H131056   3.692   1.318   4.153 -0.6847 -0.2261 -0.3274
10378TIP3    H231057   3.629   1.222   4.250  0.3310 -0.7648 -0.1956
10379TIP3   OH231058   3.106   2.561   6.154  0.1559  0.5717  0.0017
10379TIP3    H131059   3.156   2.579   6.074  0.1162  0.1315 -0.1258
10379TIP3    H231060   3.100   2.646   6.198  0.7850  0.6772 -0.1129
10380TIP3   OH231061   2.659   0.886   5.932 -0.4101  0.2490 -0.3678
10380TIP3    H131062   2.666   0.834   5.852  1.1363 -0.8778  0.4808
10380TIP3    H231063   2.699   0.970   5.911 -0.4040  0.1132 -0.8949
10381TIP3   OH231064   3.334   3.192   5.675 -0.4422  0.0787  0.7575
10381TIP3    H131065   3.359   3.279   5.642 -2.8379  0.5048 -0.0050
10381TIP3    H231066   3.335   3.202   5.770  0.4642  0.5934  0.7029
10382TIP3   OH231067   2.280   7.739   5.665 -0.6158  0.0208 -0.0920
10382TIP3    H131068   2.306   7.789   5.742 -0.5866  0.3693 -0.3282
10382TIP3    H231069   2.186   7.726   5.676 -0.5480 -0.2505  0.1868
10383TIP3   OH231070   4.386   5.308   1.228  0.1807 -0.0712 -0.0388
10383TIP3    H131071   4.320   5.242   1.209  1.0234 -0.2888 -2.3826
10383TIP3    H231072   4.336   5.387   1.249 -0.8313 -0.3337 -1.4357
10384TIP3   OH231073   6.458   4.451   1.163 -0.0036 -0.3776  1.0967
10384TIP3    H131074   6.528   4.416   1.108 -2.1782 -2.2751 -0.5520
10384TIP3    H231075   6.439   4.537   1.126 -0.2600 -0.9213 -0.0634
10385TIP3   OH231076   4.763   4.304   1.772  0.3058 -0.0044  0.4731
10385TIP3    H131077   4.819   4.325   1.697 -0.2413 -0.7700 -0.1530
10385TIP3    H231078   4.824   4.299   1.846  0.8121  1.0463  0.1441
10386TIP3   OH231079   5.517   7.479   1.448  0.1284  0.3276 -0.3311
10386TIP3    H131080   5.581   7.443   1.509 -0.0914  0.1856 -0.1791
10386TIP3    H231081   5.495   7.565   1.484 -0.2862  0.0854  0.0054
10387TIP3   OH231082   5.704   4.504   2.015 -0.0526  0.2377  0.6052
10387TIP3    H131083   5.612   4.530   2.008  0.1141  1.1620  1.6824
10387TIP3    H231084   5.703   4.424   2.067 -0.3200 -0.2356 -0.1280
10388TIP3   OH231085   2.951   1.172   6.718  0.6394  0.0112  0.3806
10388TIP3    H131086   2.869   1.191   6.763  1.3035  0.1866  1.5340
10388TIP3    H231087   3.018   1.178   6.786  1.4787 -1.2772 -0.3026
10389TIP3   OH231088   6.383   7.482   1.778 -0.4260  0.4888  0.1953
10389TIP3    H131089   6.298   7.527   1.786 -1.0987 -1.0838  2.6042
10389TIP3    H231090   6.433   7.514   1.854  1.1697  1.4081 -1.2214
10390TIP3   OH231091   3.973   4.791   2.111  0.1763 -0.1579 -0.0883
10390TIP3    H131092   3.952   4.708   2.153  0.0384 -0.0527  0.0499
10390TIP3    H231093   4.052   4.773   2.060 -0.2284 -0.5485 -0.5853
10391TIP3   OH231094   6.020   5.922   0.398  0.3393  0.4906 -0.2816
10391TIP3    H131095   5.971   6.004   0.406  0.9117  0.5977  2.4507
10391TIP3    H231096   5.960   5.854   0.430  0.1733 -0.0801 -1.7445
10392TIP3   OH231097   3.259   3.139   6.590  0.1877 -0.0704  0.7139
10392TIP3    H131098   3.303   3.057   6.612  0.8881  0.6404  2.0484
10392TIP3    H231099   3.267   3.145   6.495  1.0398 -1.0477  0.7053
10393TIP3   OH231100   1.115   2.251   6.925  0.2082 -0.4720 -0.0759
10393TIP3    H131101   1.059   2.323   6.955 -0.3278 -2.6410  4.4915
10393TIP3    H231102   1.196   2.293   6.898 -1.1274  2.1027 -0.2243
10394TIP3   OH231103   4.306   0.897   5.258 -0.5733 -0.4103 -0.0517
10394TIP3    H131104   4.276   0.979   5.219 -0.1574 -1.1184 -1.9483
10394TIP3    H231105   4.249   0.884   5.334 -0.8812  1.4321  0.0545
10395TIP3   OH231106   2.648   4.430   1.669  0.5185 -0.1138 -0.0223
10395TIP3    H131107   2.694   4.508   1.699  0.4207  1.1753 -3.0289
10395TIP3    H231108   2.707   4.392   1.604 -0.5194 -1.1909 -0.3433
10396TIP3   OH231109   4.434   6.926   1.468  0.4759 -0.6715  0.0223
10396TIP3    H131110   4.342   6.952   1.472  0.2779 -1.4621  0.7228
10396TIP3    H231111   4.448   6.901   1.377 -0.3495 -1.7792  0.1873
10397TIP3   OH231112   0.662   1.784   5.419 -0.0557  0.4530 -0.1681
10397TIP3    H131113   0.627   1.872   5.402  0.4990  0.6634 -0.2208
10397TIP3    H231114   0.731   1.798   5.484  0.1975  0.0787 -0.3572
10398TIP3   OH231115   6.735   2.046   6.562  0.0153 -0.3687  0.2688
10398TIP3    H131116   6.780   1.962   6.553 -0.2525 -0.4702 -0.1630
10398TIP3    H231117   6.802   2.112   6.545  0.1659 -0.5051  0.3342
10399TIP3   OH231118   7.038   0.590   1.853 -0.1533 -0.0603  0.4946
10399TIP3    H131119   7.094   0.579   1.777  0.8404  0.0840  1.2038
10399TIP3    H231120   6.997   0.504   1.865 -1.2359  0.2369 -0.9082
10400TIP3   OH231121   3.475   0.901   7.234 -0.3563  0.0058  0.6929
10400TIP3    H131122   3.417   0.851   7.176 -0.5445  0.6936  0.2802
10400TIP3    H231123   3.427   0.906   7.316 -0.7443  0.2890  0.4530
10401TIP3   OH231124   4.842   1.390   5.175  0.7780 -0.3346 -0.1802
10401TIP3    H131125   4.800   1.307   5.197  0.7670  0.2320  1.9707
10401TIP3    H231126   4.787   1.427   5.105 -1.0029 -0.6581  1.0228
10402TIP3   OH231127   6.005   0.924   6.912 -0.1959 -0.0170 -0.0153
10402TIP3    H131128   6.009   0.916   7.007  0.3198  0.8302  0.0320
10402TIP3    H231129   6.093   0.903   6.882 -0.5835 -1.2049 -0.3865
10403TIP3   OH231130   3.174   2.757   6.389  0.3709  0.5406  0.2076
10403TIP3    H131131   3.174   2.679   6.444  0.1367  0.0350 -0.5168
10403TIP3    H231132   3.105   2.813   6.427 -0.9400 -0.5181 -0.5831
10404TIP3   OH231133   4.543   0.104   6.848 -0.2143  0.6794  0.5780
10404TIP3    H131134   4.465   0.099   6.793 -0.5747  2.2017  0.9345
10404TIP3    H231135   4.583   0.017   6.840 -0.6039  0.6607 -1.5521
10405TIP3   OH231136   2.242   1.539   6.838  0.0302 -0.3495 -0.1738
10405TIP3    H131137   2.273   1.616   6.791 -0.3864  1.1692  1.9428
10405TIP3    H231138   2.321   1.495   6.869  0.2326  0.1360  0.0001
10406TIP3   OH231139   6.571   6.170   0.351  0.2274 -0.9271 -0.5596
10406TIP3    H131140   6.549   6.245   0.407  0.1277 -0.4448 -1.2390
10406TIP3    H231141   6.504   6.171   0.283  0.6673 -1.1931 -0.9945
10407TIP3   OH231142   1.390   6.969   7.067  0.1267 -0.5927  0.0433
10407TIP3    H131143   1.366   7.060   7.083  1.6752 -0.0433 -0.6234
10407TIP3    H231144   1.465   6.954   7.125  0.0937 -1.3417 -0.1021
10408TIP3   OH231145   7.219   3.940   3.200 -0.0712  0.2566  0.3309
10408TIP3    H131146   7.182   3.874   3.142 -0.0403 -0.1790  0.8020
10408TIP3    H231147   7.156   3.945   3.272  0.1986  0.3514  0.5593
10409TIP3   OH231148   5.283   4.178   5.018  0.1242 -0.4336 -0.4844
10409TIP3    H131149   5.207   4.158   5.073  0.3897 -1.8254 -0.5976
10409TIP3    H231150   5.358   4.153   5.072  0.3695 -2.4988 -1.7117
10410TIP3   OH231151   4.315   3.217   0.336 -0.7485  0.5428 -0.3316
10410TIP3    H131152   4.357   3.231   0.251 -2.8995  0.3772 -1.4456
10410TIP3    H231153   4.374   3.159   0.383 -0.4726 -0.9353 -2.4491
10411TIP3   OH231154   4.142   0.226   5.975 -0.1240 -0.4919 -0.0242
10411TIP3    H131155   4.218   0.169   5.966  0.1408  0.1154 -1.7596
10411TIP3    H231156   4.179   0.314   5.975 -0.5361 -0.2823  2.5922
10412TIP3   OH231157   8.754   5.089   1.504  0.0470  1.0462 -0.2314
10412TIP3    H131158   8.827   5.045   1.548  0.5067  1.3356 -0.7077
10412TIP3    H231159   8.768   5.071   1.411 -0.8424  0.5669 -0.2754
10413TIP3   OH231160   2.852   7.864   7.237 -0.3501 -0.2600 -0.4755
10413TIP3    H131161   2.868   7.941   7.292 -0.4597  0.4162 -1.3625
10413TIP3    H231162   2.938   7.823   7.228 -0.4102 -0.6274  0.5560
10414TIP3   OH231163   7.240   6.413   0.965 -0.1055 -0.3792 -0.4020
10414TIP3    H131164   7.172   6.438   1.028 -0.8585  0.2831 -1.4409
10414TIP3    H231165   7.202   6.339   0.918 -1.2093  1.5141 -2.6616
10415TIP3   OH231166   0.402   2.821   0.816 -0.1290  0.2993 -0.7711
10415TIP3    H131167   0.475   2.878   0.794  0.1269 -0.0885 -0.9328
10415TIP3    H231168   0.381   2.843   0.907  0.0919  0.5148 -0.7721
10416TIP3   OH231169   5.203   4.826   1.003  0.3222  0.2697  0.6427
10416TIP3    H131170   5.237   4.805   1.090  0.0455  3.2312  1.5065
10416TIP3    H231171   5.110   4.845   1.017  0.1398  0.1867 -0.3986
10417TIP3   OH231172   1.473   0.421   6.034  0.7764 -0.2479 -0.2835
10417TIP3    H131173   1.377   0.422   6.038  0.8148  0.5513  0.7066
10417TIP3    H231174   1.500   0.456   6.119  1.9488 -1.0165 -0.3426
10418TIP3   OH231175   8.047   3.077   0.691  0.1839 -0.1015  0.2395
10418TIP3    H131176   8.010   3.156   0.730 -1.5974 -0.4871 -0.6377
10418TIP3    H231177   8.066   3.020   0.766 -0.6563  0.2558  0.7368
10419TIP3   OH231178   4.698   0.960   6.018 -0.5466 -0.2563 -0.6819
10419TIP3    H131179   4.637   0.962   5.944  1.5758  2.6155 -2.4400
10419TIP3    H231180   4.774   0.912   5.985  1.4315  3.1225 -1.3177
10420TIP3   OH231181   0.109   2.238   5.317  0.0453 -0.0312  0.4376
10420TIP3    H131182   0.130   2.269   5.405  0.8027 -0.9239  0.5843
10420TIP3    H231183   0.161   2.158   5.307 -1.7224 -1.1638  0.0198
10421TIP3   OH231184   7.275   5.779   0.518  0.2930  0.2117 -0.3485
10421TIP3    H131185   7.332   5.763   0.442  1.4614  0.7976  0.3948
10421TIP3    H231186   7.330   5.828   0.579 -1.2001  1.2780  0.1530
10422TIP3   OH231187   2.010   0.825   7.129  0.5818 -0.0201 -0.1990
10422TIP3    H131188   1.944   0.838   7.061  0.9700 -2.7216 -1.1483
10422TIP3    H231189   1.962   0.834   7.212 -0.8027 -1.0521 -0.8730
10423TIP3   OH231190   8.294   6.685   1.008 -0.3370  0.6337 -0.6604
10423TIP3    H131191   8.389   6.691   0.995  0.0070 -1.1225  0.7340
10423TIP3    H231192   8.263   6.634   0.933  0.0146  0.1827 -0.5072
10424TIP3   OH231193   0.314   3.936   0.586 -0.3310  0.0153  0.1859
10424TIP3    H131194   0.248   3.889   0.534 -0.9649  0.1106  0.8929
10424TIP3    H231195   0.272   4.018   0.609 -0.2888 -0.2912  1.3753
10425TIP3   OH231196   5.612   0.666   6.556 -0.1811  1.1144 -0.0684
10425TIP3    H131197   5.594   0.577   6.525 -1.2723  0.5004  2.2799
10425TIP3    H231198   5.537   0.718   6.526 -1.7616  0.3030  2.3954
10426TIP3   OH231199   8.033   4.287   0.093  0.3076  0.0111  0.1147
10426TIP3    H131200   7.943   4.319   0.099  1.0269  2.0758  0.4501
10426TIP3    H231201   8.025   4.192   0.089 -2.0645  0.2824 -3.3793
10427TIP3   OH231202   4.336   0.857   6.736  0.3525  0.3464  0.1196
10427TIP3    H131203   4.295   0.847   6.650  2.3503 -2.3299 -0.5888
10427TIP3    H231204   4.430   0.862   6.718  0.7902 -0.0105  2.1329
10428TIP3   OH231205   6.472   5.837   0.989 -0.4780 -0.5404  0.2281
10428TIP3    H131206   6.486   5.872   1.076 -1.1180  0.6636 -0.1508
10428TIP3    H231207   6.377   5.825   0.982 -0.5332  0.3501 -0.6706
10429TIP3   OH231208   5.961   1.168   6.786 -0.2325  0.1978  0.1134
10429TIP3    H131209   5.976   1.085   6.831 -0.6299 -0.5435 -1.0838
10429TIP3    H231210   5.978   1.235   6.852  1.4414 -0.7976  0.7264
10430TIP3   OH231211   0.068   0.073   1.467  0.1487  0.6402  0.6396
10430TIP3    H131212   0.093   0.157   1.505  0.8921  1.5579 -1.8222
10430TIP3    H231213  -0.003   0.094   1.406 -0.2276 -0.6556  0.6097
10431TIP3   OH231214   5.476   5.749   3.859  0.5944 -0.3111 -0.3814
10431TIP3    H131215   5.533   5.826   3.866 -0.6897  0.5333  0.8212
10431TIP3    H231216   5.392   5.783   3.828 -0.5468 -0.9490  1.9159
10432TIP3   OH231217   4.930   0.244   6.482  0.0748  0.2968  0.3997
10432TIP3    H131218   4.927   0.330   6.523 -0.2010 -0.4340  1.9311
10432TIP3    H231219   4.853   0.242   6.425 -0.6682  0.5766  1.3744
10433TIP3   OH231220   4.915   1.235   6.919 -0.7214  0.1953 -0.0999
10433TIP3    H131221   4.999   1.246   6.962 -0.2792  0.5483 -1.0411
10433TIP3    H231222   4.937   1.219   6.827 -1.5988 -1.7189 -0.0039
10434TIP3   OH231223   2.767   1.431   6.880  0.3825 -0.0145  0.1382
10434TIP3    H131224   2.752   1.352   6.932 -0.3561  0.9294  1.3779
10434TIP3    H231225   2.803   1.494   6.942 -0.9882  1.2986 -0.3771
10435TIP3   OH231226   7.366   4.296   2.148  0.5224 -0.4235  0.5028
10435TIP3    H131227   7.385   4.297   2.242 -1.8204  1.6450  0.9985
10435TIP3    H231228   7.407   4.376   2.115 -1.5816  0.6230  0.4027
10436TIP3   OH231229   4.807   5.387   0.657 -0.1518  0.0035  0.1210
10436TIP3    H131230   4.872   5.387   0.728 -2.0922  0.2807  1.9363
10436TIP3    H231231   4.745   5.456   0.682 -1.4657 -0.6605 -1.2867
10437TIP3   OH231232   2.182   1.273   7.000  0.7364 -0.0519  0.2823
10437TIP3    H131233   2.175   1.179   6.989  0.9834 -0.2404  1.6193
10437TIP3    H231234   2.096   1.299   7.035  0.2582  0.3957 -1.2009
10438TIP3   OH231235   2.056   2.750   6.936  0.0249  0.7394  0.2112
10438TIP3    H131236   2.056   2.683   7.004  0.6393  0.5052 -0.0124
10438TIP3    H231237   2.107   2.822   6.974  0.6640  0.4724 -0.1226
10439TIP3   OH231238   7.490   4.680   0.161  0.1135 -0.3378 -0.2608
10439TIP3    H131239   7.473   4.658   0.069  2.2331  0.8674 -0.9702
10439TIP3    H231240   7.556   4.616   0.189  2.4871  1.7682 -0.8205
10440TIP3   OH231241   6.434   5.606   0.595  0.0084 -0.6427  0.6317
10440TIP3    H131242   6.362   5.550   0.623  1.0162 -1.8752  0.8188
10440TIP3    H231243   6.496   5.547   0.553  0.0455  0.6899 -1.2399
10441TIP3   OH231244   5.003   1.840   6.921  0.0091  0.1640 -0.0424
10441TIP3    H131245   5.070   1.907   6.902  0.2598  0.5890  2.1855
10441TIP3    H231246   5.040   1.759   6.884  1.2830  0.5970  0.2319
10442TIP3   OH231247   4.249   0.853   6.482  0.4628  0.2353  0.4800
10442TIP3    H131248   4.295   0.876   6.401 -1.1218  0.0608 -0.4896
10442TIP3    H231249   4.184   0.788   6.455 -2.0657  2.3283  1.3474
10443TIP3   OH231250   6.824   5.548   0.774  0.7072  0.1588 -0.0207
10443TIP3    H131251   6.811   5.454   0.781 -0.2112  0.3076  0.4986
10443TIP3    H231252   6.753   5.585   0.828  0.3464  1.1628 -1.1704
10444TIP3   OH231253   5.968   5.688   1.273  0.2671 -0.8906 -0.0415
10444TIP3    H131254   6.021   5.757   1.314 -0.0041 -0.0234 -1.1399
10444TIP3    H231255   5.945   5.629   1.345  1.5493 -0.5118  0.6910
10445TIP3   OH231256   3.493   2.936   6.274 -0.0656  0.2868 -1.1701
10445TIP3    H131257   3.445   2.897   6.201  2.0752  0.0067 -2.4568
10445TIP3    H231258   3.509   3.026   6.246 -0.2083  0.5056 -0.5579
10446TIP3   OH231259   7.950   4.597   0.328 -0.2008 -0.3442  0.1982
10446TIP3    H131260   7.934   4.563   0.416 -0.4443 -0.1157  0.2446
10446TIP3    H231261   8.035   4.561   0.302 -0.0126 -0.2086  0.6282
10447TIP3   OH231262   7.109   5.253   0.708  0.2379 -0.1813 -0.1312
10447TIP3    H131263   7.154   5.323   0.662 -0.0245  0.0603 -0.0224
10447TIP3    H231264   7.047   5.218   0.644  0.7691 -0.6985 -0.3706
10448TIP3   OH231265   7.713   6.688   1.458 -0.0996 -0.0794 -0.1361
10448TIP3    H131266   7.788   6.715   1.405 -0.2018 -0.4966 -0.4928
10448TIP3    H231267   7.688   6.768   1.505 -0.6091  0.5555 -1.4427
10449TIP3   OH231268   5.154   3.210   6.947 -0.6265  0.0909  0.2368
10449TIP3    H131269   5.117   3.297   6.962 -0.3834 -0.1803  2.5895
10449TIP3    H231270   5.238   3.212   6.992  0.7722 -0.3895 -2.2716
10450TIP3   OH231271   7.316   3.129   0.724  0.5174  0.3369 -0.1382
10450TIP3    H131272   7.247   3.064   0.736 -0.6179  1.3420 -1.1399
10450TIP3    H231273   7.350   3.145   0.812 -1.1957  0.5668  0.4893
10451TIP3   OH231274   7.313   5.691   1.277 -0.2695  0.2716 -0.0274
10451TIP3    H131275   7.364   5.768   1.252 -1.9346  0.8847 -1.5837
10451TIP3    H231276   7.331   5.627   1.208 -1.1018  0.2711 -0.2496
10452TIP3   OH231277   4.776   0.987   6.384 -0.3330  0.2476  0.1356
10452TIP3    H131278   4.849   0.994   6.445  0.8221  1.7201 -1.3869
10452TIP3    H231279   4.739   1.075   6.380  0.4822  0.5123 -2.3270
10453TIP3   OH231280   1.666   7.478   6.949  0.1029  0.1080 -0.0287
10453TIP3    H131281   1.661   7.383   6.958 -2.3378  0.3688  1.4771
10453TIP3    H231282   1.678   7.511   7.038  0.7325  1.2427 -0.5165
10454TIP3   OH231283   5.144   2.744   6.253  0.1856  0.4339 -0.2259
10454TIP3    H131284   5.058   2.737   6.296 -1.5636  2.1481 -3.2804
10454TIP3    H231285   5.206   2.754   6.326 -2.1134 -1.2452  2.0619
10455TIP3   OH231286   8.305   4.252   0.019  0.0911 -0.1905  0.2181
10455TIP3    H131287   8.270   4.182  -0.037 -0.3716  1.0303 -1.0558
10455TIP3    H231288   8.228   4.300   0.049  0.4327  0.0609  0.7005
10456TIP3   OH231289   4.261   2.674   0.990 -0.5447  0.3289  0.0558
10456TIP3    H131290   4.303   2.724   1.060  0.4876 -1.8057  1.0170
10456TIP3    H231291   4.175   2.651   1.025 -0.4034  0.0910  0.2511
10457TIP3   OH231292   3.253   2.199   6.916  0.3624  0.3603  0.4403
10457TIP3    H131293   3.305   2.274   6.944 -1.4068  2.4852 -1.7715
10457TIP3    H231294   3.309   2.152   6.854  1.4500 -0.1686  1.7900
10458TIP3   OH231295   8.696   5.058   0.655  0.0617 -0.1724  0.3424
10458TIP3    H131296   8.633   4.987   0.640 -0.9160  0.9247 -0.9823
10458TIP3    H231297   8.653   5.114   0.720 -0.0890  0.2822 -0.1455
10459TIP3   OH231298   7.591   4.969   2.064 -0.0420 -0.2353  0.4337
10459TIP3    H131299   7.618   4.882   2.034  0.5376 -0.4386  1.5082
10459TIP3    H231300   7.549   5.009   1.988  1.6360 -0.6351 -0.7219
10460TIP3   OH231301   5.846   4.719   1.182 -0.2277  0.2337 -0.0035
10460TIP3    H131302   5.811   4.701   1.270 -1.5595  1.3500 -0.2909
10460TIP3    H231303   5.850   4.815   1.178 -0.3808  0.1828 -1.2549
10461TIP3   OH231304   4.910   1.881   6.673  0.1173 -0.2301 -0.0864
10461TIP3    H131305   4.890   1.878   6.766  0.9181 -2.1903  0.0504
10461TIP3    H231306   4.875   1.799   6.638 -1.0331  0.9117 -1.7093
10462TIP3   OH231307   8.757   6.304   1.120  0.0181  0.4925 -0.1250
10462TIP3    H131308   8.720   6.360   1.188  2.0328  0.5887  0.9016
10462TIP3    H231309   8.741   6.352   1.039  1.1617  2.2762  0.6790
10463TIP3   OH231310   5.199   3.489   1.512  0.0620  0.4842 -0.3609
10463TIP3    H131311   5.187   3.478   1.418 -2.0947  1.4774 -0.2466
10463TIP3    H231312   5.218   3.582   1.523  2.1082  0.0259  0.0310
10464TIP3   OH231313   1.937   7.267   7.190 -0.3224  0.3624  0.4633
10464TIP3    H131314   1.883   7.188   7.198 -0.4335  0.5447  1.6109
10464TIP3    H231315   1.987   7.254   7.110  0.1554 -1.1815  0.9924
10465TIP3   OH231316   1.515   6.013   5.096 -0.7224 -0.3402  0.3300
10465TIP3    H131317   1.514   6.083   5.031 -0.7514 -0.7412 -0.1100
10465TIP3    H231318   1.509   5.933   5.044 -0.1262 -0.6896  0.7960
10466TIP3   OH231319   4.678   0.119   5.761  0.1121  0.0253  0.3896
10466TIP3    H131320   4.591   0.109   5.722 -0.0444  1.3894  0.3669
10466TIP3    H231321   4.684   0.212   5.782  1.9001  0.1129 -0.4111
10467TIP3   OH231322   7.390   6.204   4.164 -0.1162 -0.5974  0.5114
10467TIP3    H131323   7.427   6.126   4.205 -1.0255 -1.0609  0.4693
10467TIP3    H231324   7.336   6.243   4.233  1.4536  0.7858  0.9899
10468TIP3   OH231325   1.795   8.193   6.665  0.2714 -0.2717 -0.5627
10468TIP3    H131326   1.889   8.213   6.665  0.6896 -2.1386  0.2448
10468TIP3    H231327   1.789   8.108   6.707 -1.7049 -0.6342 -1.5387
10469TIP3   OH231328   5.926   5.457   0.608 -0.4176 -0.4212  0.2962
10469TIP3    H131329   5.907   5.365   0.625  1.4327 -0.9216 -0.2214
10469TIP3    H231330   5.957   5.491   0.692  0.1393 -0.6047  0.1667
10470TIP3   OH231331   4.990   0.736   5.236 -0.0017 -0.3097  0.2631
10470TIP3    H131332   4.972   0.767   5.324 -0.7595 -1.3969  0.5092
10470TIP3    H231333   5.078   0.699   5.241  0.9043  1.7523 -0.0352
10471TIP3   OH231334   7.172   5.141   1.482 -0.4943 -0.3077 -0.1101
10471TIP3    H131335   7.086   5.152   1.442 -0.7101  0.5449  0.5613
10471TIP3    H231336   7.232   5.191   1.427 -0.3129 -1.3889 -0.9193
10472TIP3   OH231337   8.485   5.567   1.889 -0.4388 -0.4649  0.0235
10472TIP3    H131338   8.516   5.484   1.923 -0.3174 -0.0567  0.9440
10472TIP3    H231339   8.564   5.616   1.866 -0.5033 -0.5560 -0.3990
10473TIP3   OH231340   8.687   6.070   0.907 -0.4244  0.5050 -0.8524
10473TIP3    H131341   8.635   6.145   0.936  0.3647  1.0799 -0.9108
10473TIP3    H231342   8.777   6.091   0.933 -0.0644 -0.0371 -1.6151
10474TIP3   OH231343   7.362   6.263   0.523 -0.0028  0.3249 -0.0528
10474TIP3    H131344   7.369   6.234   0.614  0.2492  1.7746  0.4027
10474TIP3    H231345   7.310   6.195   0.480  0.2200 -0.5791  1.0722
10475TIP3   OH231346   0.626   2.275   0.790 -0.1909 -0.7473 -0.7853
10475TIP3    H131347   0.604   2.230   0.871  0.1133  0.4087 -0.0467
10475TIP3    H231348   0.721   2.270   0.784  0.0260  1.3877  0.2777
10476TIP3   OH231349   3.046   2.281   6.410 -0.1069  0.6826 -0.0809
10476TIP3    H131350   3.037   2.294   6.316  1.5224  1.6721 -0.1189
10476TIP3    H231351   2.998   2.353   6.450 -2.1897 -0.6464 -0.1041
10477TIP3   OH231352   5.591   1.515   6.751  0.3321  0.5995  0.0172
10477TIP3    H131353   5.526   1.583   6.730 -1.0518  0.3068  3.0707
10477TIP3    H231354   5.657   1.561   6.803  1.0562  0.2585 -0.5944
10478TIP3   OH231355   1.811   7.223   6.443 -0.8568 -0.1784  0.2568
10478TIP3    H131356   1.741   7.287   6.460 -2.4270 -1.5364 -0.8874
10478TIP3    H231357   1.891   7.268   6.470 -2.0601  1.7750  0.7424
10479TIP3   OH231358   3.631   0.377   5.963 -0.0939  0.5795 -0.0185
10479TIP3    H131359   3.586   0.348   5.884 -0.5705  0.6841  0.2114
10479TIP3    H231360   3.711   0.326   5.966 -0.4672 -0.0144 -0.1342
10480TIP3   OH231361   4.497   6.302   0.478  0.5200 -0.0324 -0.1199
10480TIP3    H131362   4.521   6.350   0.398  2.0578  0.3794  0.5698
10480TIP3    H231363   4.567   6.322   0.539 -0.0111 -1.3588  0.9357
10481TIP3   OH231364   4.549   1.440   6.205  0.3116 -1.0545  0.5468
10481TIP3    H131365   4.496   1.497   6.149  0.6739 -0.0119  1.2469
10481TIP3    H231366   4.547   1.355   6.162  1.3755 -0.0477 -1.5565
10482TIP3   OH231367   7.674   4.028   0.678  0.0473 -0.2574 -0.2163
10482TIP3    H131368   7.585   4.048   0.708  0.2452  1.6606 -0.8104
10482TIP3    H231369   7.674   3.933   0.663 -2.1995 -0.1482 -1.1495
10483TIP3   OH231370   4.658   1.273   5.863 -0.1343  0.0538 -0.0988
10483TIP3    H131371   4.690   1.360   5.838  2.2412 -0.1382  2.0939
10483TIP3    H231372   4.657   1.274   5.958 -0.5108 -2.1808 -0.0566
10484TIP3   OH231373   6.078   5.395   0.121 -0.1770 -0.4941 -0.8408
10484TIP3    H131374   5.994   5.440   0.107  0.6959  1.1956 -0.7103
10484TIP3    H231375   6.104   5.421   0.209 -1.2354 -3.8916  0.5745
10485TIP3   OH231376   4.958   0.711   4.718  0.5061  0.4166 -0.2645
10485TIP3    H131377   4.955   0.734   4.625 -1.0830 -1.1666 -0.6367
10485TIP3    H231378   4.895   0.769   4.759  2.1033  1.9683  0.0481
10486TIP3   OH231379   0.434   4.824   0.477 -0.5507 -0.3994 -0.3854
10486TIP3    H131380   0.452   4.747   0.423 -0.3576  1.1988 -2.6109
10486TIP3    H231381   0.520   4.862   0.493 -0.6783 -0.4635  0.4899
10487TIP3   OH231382   5.496   4.555   1.767  0.1854  0.7576  0.4942
10487TIP3    H131383   5.459   4.554   1.678 -1.1010  1.6958  0.9980
10487TIP3    H231384   5.491   4.464   1.795  0.1075  0.5412 -0.1968
10488TIP3   OH231385   6.254   6.471   0.354  0.3501  0.0623  0.0675
10488TIP3    H131386   6.294   6.391   0.320  0.1857 -0.0640  0.1687
10488TIP3    H231387   6.305   6.542   0.316  0.1208 -0.0729 -0.5024
10489TIP3   OH231388   7.271   4.527   0.639  0.1124 -0.0857 -0.7420
10489TIP3    H131389   7.213   4.578   0.697  0.2746 -1.8574  1.0254
10489TIP3    H231390   7.234   4.439   0.640  1.5825 -0.7263 -1.3508
10490TIP3   OH231391   3.746   2.506   6.433 -0.3884  0.5966  0.3086
10490TIP3    H131392   3.840   2.522   6.430 -0.2950  0.3988  1.7967
10490TIP3    H231393   3.707   2.582   6.390  0.5754 -0.8835 -3.3237
10491TIP3   OH231394   6.595   6.627   0.573  0.1467 -0.6256 -0.4635
10491TIP3    H131395   6.566   6.686   0.643 -1.5846 -0.4090 -1.3456
10491TIP3    H231396   6.651   6.682   0.518  1.5483 -0.8027  0.7283
10492TIP3   OH231397   5.017   4.941   1.759 -0.2522  0.4211 -0.1850
10492TIP3    H131398   5.070   4.921   1.836 -0.5330 -0.8554 -0.3102
10492TIP3    H231399   5.054   5.022   1.725 -0.2673  1.1194  1.4127
10493TIP3   OH231400   4.029   0.940   7.037  0.6617  0.8465  0.2025
10493TIP3    H131401   3.963   0.882   6.999  0.4042  0.7845  0.7355
10493TIP3    H231402   4.110   0.888   7.034  0.3684  0.3346  0.9611
10494TIP3   OH231403   1.328   7.136   6.836  0.4490  0.4329  0.6410
10494TIP3    H131404   1.242   7.123   6.798  1.1896 -0.6264 -0.6978
10494TIP3    H231405   1.370   7.050   6.834  2.3790  1.3491 -0.8591
10495TIP3   OH231406   3.805   2.241   6.509 -0.0359  0.4856  0.4380
10495TIP3    H131407   3.783   2.309   6.446  2.2899  0.7482 -0.1529
10495TIP3    H231408   3.747   2.168   6.488  0.8146  0.5044 -2.1332
10496TIP3   OH231409   1.906   2.079   5.549 -0.1427  0.2539  0.5606
10496TIP3    H131410   1.838   2.102   5.485 -0.4325 -2.0617 -0.0092
10496TIP3    H231411   1.869   2.104   5.633 -0.4850  1.6966  0.0026
10497TIP3   OH231412   6.200   5.205   0.386 -0.0910 -0.3282  0.6041
10497TIP3    H131413   6.290   5.199   0.417  0.3413  0.2162 -0.5260
10497TIP3    H231414   6.179   5.298   0.388  0.8590  0.0327 -3.2043
10498TIP3   OH231415   6.672   0.453   6.355 -0.0092 -0.8119  0.1073
10498TIP3    H131416   6.645   0.409   6.275 -0.3849  0.9723 -0.7701
10498TIP3    H231417   6.627   0.538   6.353  3.6603  1.2556 -0.1739
10499TIP3   OH231418   3.309   3.387   7.167  0.3360 -0.5002 -0.1464
10499TIP3    H131419   3.326   3.476   7.136 -0.5919  0.4340  1.9209
10499TIP3    H231420   3.288   3.398   7.260  0.1206 -2.8712  0.1061
10500TIP3   OH231421   2.849   5.541   0.110  0.1288 -0.1356  0.4601
10500TIP3    H131422   2.910   5.471   0.088  0.5882  0.9693 -1.9999
10500TIP3    H231423   2.773   5.524   0.054  0.3574  1.4622 -0.3569
10501TIP3   OH231424   2.954   1.145   6.432  0.5885  0.1128 -0.4750
10501TIP3    H131425   2.941   1.182   6.519  0.8772 -1.5337  0.2875
10501TIP3    H231426   2.899   1.198   6.375 -1.3949 -0.2311  1.0594
10502TIP3   OH231427   6.405   6.673   3.995 -0.7738  0.3564  0.3166
10502TIP3    H131428   6.434   6.762   3.977  1.1382  0.3471  3.0600
10502TIP3    H231429   6.310   6.679   4.003 -0.5011  2.5206  2.3880
10503TIP3   OH231430   7.794   5.807   0.561  0.0071  0.5444  0.6034
10503TIP3    H131431   7.794   5.868   0.635  1.2697  0.9381  0.3003
10503TIP3    H231432   7.877   5.760   0.569  1.1101  1.9737 -1.6597
10504TIP3   OH231433   7.271   3.731   0.661  0.2329  0.1473 -0.4973
10504TIP3    H131434   7.215   3.678   0.718  1.0458  1.2523  1.3786
10504TIP3    H231435   7.332   3.668   0.623  0.9813 -0.3381  1.4570
10505TIP3   OH231436   8.567   1.865   1.485  0.2064 -0.1813 -0.5013
10505TIP3    H131437   8.645   1.819   1.452  0.9513  1.0608 -0.5262
10505TIP3    H231438   8.498   1.844   1.422  0.7149 -0.7125 -0.8856
10506TIP3   OH231439   2.151   7.571   6.415  0.1470  0.5195 -0.2210
10506TIP3    H131440   2.225   7.620   6.452 -0.8853  1.1128  1.0896
10506TIP3    H231441   2.112   7.631   6.351  1.0357  0.0467 -1.2294
10507TIP3   OH231442   7.254   5.669   0.194 -0.2710  0.2554 -0.5329
10507TIP3    H131443   7.193   5.602   0.162  0.2792 -0.0731 -0.9100
10507TIP3    H231444   7.252   5.738   0.128  1.8237 -0.9970 -1.9586
10508TIP3   OH231445   1.547   6.962   6.623 -0.8486  0.2785 -0.2114
10508TIP3    H131446   1.573   6.918   6.542 -1.6892  0.3024 -0.4970
10508TIP3    H231447   1.507   7.044   6.595 -4.5680 -1.3611 -0.0340
10509TIP3   OH231448   8.251   3.331   2.513  0.6764 -0.2767 -0.3840
10509TIP3    H131449   8.174   3.322   2.456  0.2238 -0.3150  0.2276
10509TIP3    H231450   8.225   3.289   2.595  1.4666 -0.5573 -0.2792
10510TIP3   OH231451   0.597   6.017   5.099 -0.2355 -0.5707  0.3360
10510TIP3    H131452   0.666   5.958   5.128  1.1536  1.3546  1.0658
10510TIP3    H231453   0.541   6.028   5.176  1.5719  1.9025  1.3577
10511TIP3   OH231454   7.381   2.507   0.460 -0.1499  0.0175  0.1859
10511TIP3    H131455   7.331   2.563   0.401 -1.1344 -2.0913 -1.0327
10511TIP3    H231456   7.395   2.560   0.538 -1.6537  1.6970 -0.6652
10512TIP3   OH231457   3.405   7.900   6.932 -0.4698 -0.1026 -0.5480
10512TIP3    H131458   3.477   7.922   6.991 -0.9461  0.6553 -0.2428
10512TIP3    H231459   3.447   7.885   6.847  0.2590 -1.5250  0.0422
10513TIP3   OH231460   0.377   2.800   1.312  0.1476  0.1789  0.2233
10513TIP3    H131461   0.462   2.817   1.353 -0.2208 -2.0777  2.0439
10513TIP3    H231462   0.336   2.886   1.305  1.8469  1.0833  0.9729
10514TIP3   OH231463   7.467   5.202   0.723  0.2648  0.4311 -0.0382
10514TIP3    H131464   7.464   5.292   0.754  1.4328  0.4817 -0.0539
10514TIP3    H231465   7.435   5.206   0.633 -1.4816  0.5372  0.5590
10515TIP3   OH231466   7.785   5.190   2.150  0.1602  0.2249 -0.2182
10515TIP3    H131467   7.732   5.112   2.134  2.1892 -1.5194  1.2425
10515TIP3    H231468   7.865   5.176   2.099  1.6979  0.0358  2.1799
10516TIP3   OH231469   2.169   2.184   5.569  0.0015  0.2267  0.3273
10516TIP3    H131470   2.080   2.158   5.546  0.6911 -0.3589 -1.8521
10516TIP3    H231471   2.169   2.280   5.559  0.0750  0.0592 -1.4796
10517TIP3   OH231472   4.897   4.406   1.559 -0.2349 -0.2897  0.1232
10517TIP3    H131473   4.911   4.402   1.465  2.1005 -0.0331  0.4204
10517TIP3    H231474   4.869   4.496   1.576 -0.7610 -0.3680 -0.3343
10518TIP3   OH231475   1.132   1.082   6.683  0.8492 -0.5498 -0.0931
10518TIP3    H131476   1.091   1.148   6.739 -0.8807 -1.6616  0.0092
10518TIP3    H231477   1.191   1.034   6.742  2.5796  1.2365 -0.2998
10519TIP3   OH231478   7.475   7.800   0.739 -0.3012 -0.4170  0.0815
10519TIP3    H131479   7.404   7.857   0.709 -0.1760 -0.0456  0.4924
10519TIP3    H231480   7.551   7.829   0.689  0.1394  0.8677  1.4749
10520TIP3   OH231481   7.141   1.694   5.633  1.1253  0.1511  0.0679
10520TIP3    H131482   7.214   1.641   5.665  0.6358  0.8306  2.4109
10520TIP3    H231483   7.082   1.700   5.708 -0.5729  0.9568 -1.3036
10521TIP3   OH231484   0.940   5.785   1.399  0.1578 -0.2372 -0.2653
10521TIP3    H131485   0.901   5.850   1.340 -0.9164 -0.4447  0.2254
10521TIP3    H231486   0.907   5.701   1.368  1.2958 -0.5447 -0.6979
10522TIP3   OH231487   3.936   7.045   7.133  0.2089 -0.4008  0.1159
10522TIP3    H131488   3.989   7.001   7.067 -0.8149  0.0284 -1.0121
10522TIP3    H231489   3.871   7.095   7.083  0.0497  0.7333  1.4239
10523TIP3   OH231490   2.026   1.813   5.517 -0.3088  0.3076 -0.4876
10523TIP3    H131491   2.009   1.907   5.518  2.3185  0.8273 -1.0155
10523TIP3    H231492   2.008   1.785   5.607  1.7364  1.9130  0.4780
10524TIP3   OH231493   2.684   7.247   6.639  0.4465 -0.2130 -0.2007
10524TIP3    H131494   2.591   7.245   6.615  0.1230 -1.1343  1.0724
10524TIP3    H231495   2.723   7.176   6.588  0.0189 -1.2703  0.9123
10525TIP3   OH231496   3.804   8.075   6.539 -0.1633  0.4728 -0.1621
10525TIP3    H131497   3.830   8.047   6.452 -0.5274 -1.9543  0.4929
10525TIP3    H231498   3.857   8.153   6.556  2.1756 -0.8285 -1.3200
10526TIP3   OH231499   6.466   4.934   0.673  0.0346 -0.3085  0.3492
10526TIP3    H131500   6.522   4.902   0.744  0.9103  0.6221  0.0901
10526TIP3    H231501   6.508   4.901   0.593 -1.1209 -1.6212  0.2532
10527TIP3   OH231502   6.117   2.208   6.905 -0.0444 -0.0135 -0.1956
10527TIP3    H131503   6.123   2.113   6.912  1.5199  0.0609 -0.3118
10527TIP3    H231504   6.037   2.224   6.856  0.0617 -1.2974 -0.7994
10528TIP3   OH231505   2.478   8.347   6.550  0.3337 -0.3701  0.0880
10528TIP3    H131506   2.565   8.387   6.543  0.9917 -1.6723  0.7114
10528TIP3    H231507   2.453   8.328   6.460  0.2883  0.8580 -0.1668
10529TIP3   OH231508   3.309   0.107   5.105  0.1938 -0.5225 -0.4797
10529TIP3    H131509   3.229   0.071   5.142 -0.6017 -0.3190 -2.0015
10529TIP3    H231510   3.355   0.144   5.181 -1.5946  0.2408  0.2556
10530TIP3   OH231511   8.396   7.854   4.193  0.1472  0.0486 -0.0381
10530TIP3    H131512   8.397   7.931   4.136  0.3218  0.9575  1.1521
10530TIP3    H231513   8.410   7.890   4.281 -0.4596 -1.2765  0.6200
10531TIP3   OH231514   0.283   4.249   2.177 -0.3142 -0.1131 -0.1403
10531TIP3    H131515   0.278   4.187   2.103 -0.4121 -0.0518 -0.1848
10531TIP3    H231516   0.280   4.335   2.136  0.0711 -0.0757 -0.0974
10532TIP3   OH231517   5.812   1.577   7.246 -0.3161  0.0350  0.0181
10532TIP3    H131518   5.799   1.603   7.155  0.5997  0.7876  0.1001
10532TIP3    H231519   5.850   1.489   7.240  0.2947  0.3225 -0.3324
10533TIP3   OH231520   6.441   6.222   0.818 -0.4000  0.3997  0.2860
10533TIP3    H131521   6.453   6.296   0.759 -1.0673 -0.4179 -0.8969
10533TIP3    H231522   6.448   6.260   0.906  2.2761  1.3374 -0.2905
10534TIP3   OH231523   4.654   0.898   7.187 -0.2289 -0.2652  0.5436
10534TIP3    H131524   4.587   0.861   7.244 -0.3885 -1.5817 -0.4634
10534TIP3    H231525   4.703   0.958   7.243 -1.0447 -0.7284  1.7779
10535TIP3   OH231526   0.919   5.703   0.950  0.4778 -0.2341  0.8192
10535TIP3    H131527   0.864   5.629   0.923 -0.9544  1.7233 -1.8813
10535TIP3    H231528   0.982   5.713   0.880 -0.4623  2.1634  0.2550
10536TIP3   OH231529   8.459   3.945   0.357  0.9205 -0.4383  0.1995
10536TIP3    H131530   8.486   3.898   0.278  1.6913  0.1684  0.0960
10536TIP3    H231531   8.367   3.968   0.340  1.3106  0.3754 -0.8516
10537TIP3   OH231532   6.600   1.834   5.449  0.2682  0.1070 -0.2763
10537TIP3    H131533   6.670   1.898   5.434  0.2991  0.3108  0.6662
10537TIP3    H231534   6.546   1.873   5.518  0.1845 -0.7952  0.1839
10538TIP3   OH231535   7.103   7.211   0.755  0.1603 -0.0793  0.1738
10538TIP3    H131536   7.134   7.300   0.737 -2.4435  0.8552  0.0194
10538TIP3    H231537   7.146   7.186   0.837  1.3733  1.0776 -0.0964
10539TIP3   OH231538   7.270   6.770   1.174 -0.1176  0.2111  0.5668
10539TIP3    H131539   7.340   6.775   1.238  0.9477  1.0233 -0.6339
10539TIP3    H231540   7.221   6.852   1.185  0.9720  1.0481 -0.6528
10540TIP3   OH231541   6.574   7.883   0.511  0.3250  0.1240  0.7423
10540TIP3    H131542   6.668   7.887   0.492  0.5509  2.3469  2.1565
10540TIP3    H231543   6.532   7.917   0.432  0.6372 -1.5933 -0.1923
10541TIP3   OH231544   3.614   3.095   6.729  0.0398  0.1732  0.0615
10541TIP3    H131545   3.594   3.104   6.636  2.0565 -1.5883 -0.5974
10541TIP3    H231546   3.692   3.149   6.742 -0.7082  1.0534  0.9137
10542TIP3   OH231547   4.658   5.359   1.328 -0.3817 -0.5126  0.0196
10542TIP3    H131548   4.728   5.296   1.312 -0.3832 -0.9425  1.6529
10542TIP3    H231549   4.577   5.309   1.315 -0.3932 -0.1943 -1.1750
10543TIP3   OH231550   6.391   4.401   1.894  0.4278  0.0083  0.3859
10543TIP3    H131551   6.347   4.464   1.837 -1.3318  0.3165  2.0425
10543TIP3    H231552   6.417   4.330   1.835 -1.3184  0.3383 -0.8138
10544TIP3   OH231553   3.604   1.865   5.978  0.0851 -0.1713  0.1722
10544TIP3    H131554   3.688   1.825   5.956 -0.1342 -0.0219 -0.9689
10544TIP3    H231555   3.539   1.796   5.961 -0.1813  0.2748 -0.6660
10545TIP3   OH231556   5.890   1.287   7.230 -0.2002  0.2102 -0.0751
10545TIP3    H131557   5.920   1.305   7.141 -1.1971  0.1709 -0.4208
10545TIP3    H231558   5.821   1.222   7.220  1.2712 -1.5602  0.9246
10546TIP3   OH231559   7.849   4.451   1.353  0.1447 -0.4802 -0.2876
10546TIP3    H131560   7.888   4.511   1.289  0.7677  1.3722  1.7694
10546TIP3    H231561   7.754   4.461   1.340  0.1916  2.3850  1.2620
10547TIP3   OH231562   6.080   5.392   1.165  0.8183 -0.4013 -0.3064
10547TIP3    H131563   6.142   5.394   1.238 -0.1624  2.1855  0.4963
10547TIP3    H231564   6.040   5.478   1.165 -0.1192 -0.7873 -3.1465
10548TIP3   OH231565   1.766   2.421   6.902  0.0142 -0.4262 -0.3267
10548TIP3    H131566   1.742   2.443   6.992 -0.5731 -2.9390  0.1593
10548TIP3    H231567   1.860   2.437   6.898  0.0363 -0.2534  0.7103
10549TIP3   OH231568   5.442   0.769   7.110  0.6400 -0.5904  0.0273
10549TIP3    H131569   5.479   0.759   7.022 -1.2748 -0.0340 -0.8669
10549TIP3    H231570   5.380   0.696   7.118 -1.1209  0.8382 -0.1233
10550TIP3   OH231571   2.656   1.520   7.125  0.3397  0.5074 -0.2619
10550TIP3    H131572   2.646   1.614   7.137 -1.4159  0.3804 -0.6268
10550TIP3    H231573   2.567   1.488   7.112  0.7898 -1.3858  1.1423
10551TIP3   OH231574   3.644   1.234   5.328 -0.6634  0.4388 -0.0692
10551TIP3    H131575   3.697   1.290   5.271 -0.1318 -0.9889 -1.0324
10551TIP3    H231576   3.670   1.258   5.417  0.5409  0.7792 -0.4952
10552TIP3   OH231577   2.044   7.717   6.165  0.1877 -0.2341  0.0387
10552TIP3    H131578   2.099   7.781   6.210  0.0013  0.1545 -0.2847
10552TIP3    H231579   2.039   7.748   6.075 -0.3180 -0.4304 -0.0034
10553TIP3   OH231580   2.925   3.229   5.874  0.1897  0.0323 -0.6678
10553TIP3    H131581   2.997   3.284   5.905  0.5155  0.4274 -2.1350
10553TIP3    H231582   2.859   3.236   5.943  1.0833  0.5829  0.1464
10554TIP3   OH231583   0.590   5.079   1.204  0.7295 -0.0543 -0.0060
10554TIP3    H131584   0.664   5.069   1.263 -1.4795 -0.7744  2.7337
10554TIP3    H231585   0.551   5.163   1.228 -0.2271 -0.3736 -0.4179
10555TIP3   OH231586   8.292   4.918   0.665 -0.5073  0.3016  0.0455
10555TIP3    H131587   8.374   4.895   0.619 -0.6351  0.3978 -0.2324
10555TIP3    H231588   8.250   4.982   0.607 -0.0553  1.4035  0.9107
10556TIP3   OH231589   6.789   5.021   1.736 -0.2137 -0.0888 -0.0428
10556TIP3    H131590   6.841   5.099   1.752  0.5230 -0.4942 -0.4094
10556TIP3    H231591   6.831   4.953   1.789  0.8096 -0.8789 -1.8153
10557TIP3   OH231592   6.177   0.229   4.983 -0.7002  0.0793 -0.4879
10557TIP3    H131593   6.182   0.179   5.064 -1.0627 -0.1454 -0.6040
10557TIP3    H231594   6.085   0.225   4.957 -1.1876  2.6569  0.6719
10558TIP3   OH231595   7.103   5.616   0.771 -0.4850 -0.0419  0.2841
10558TIP3    H131596   7.016   5.576   0.784  0.4168 -2.1596  0.0122
10558TIP3    H231597   7.136   5.574   0.691  0.9742  0.4166  0.6421
10559TIP3   OH231598   8.369   5.738   0.092 -0.9469 -0.6066 -0.0628
10559TIP3    H131599   8.445   5.796   0.080 -1.5192  0.1745  0.0808
10559TIP3    H231600   8.332   5.728   0.005  0.7122 -2.9233 -0.5456
10560TIP3   OH231601   6.446   1.681   6.109 -0.5382 -0.1150  0.0323
10560TIP3    H131602   6.525   1.700   6.159  1.1748 -2.1194 -1.8234
10560TIP3    H231603   6.424   1.591   6.132 -1.3072 -0.1434 -0.7749
10561TIP3   OH231604   5.913   3.857   6.792  0.1048 -0.1708  0.0272
10561TIP3    H131605   5.940   3.826   6.705  0.0410 -0.0943 -0.0193
10561TIP3    H231606   5.972   3.812   6.853 -0.6187 -1.1331  0.0238
10562TIP3   OH231607   0.154   3.800   1.006  0.1920 -0.1234  0.1584
10562TIP3    H131608   0.073   3.749   1.008  0.0504  0.1191  2.8267
10562TIP3    H231609   0.125   3.890   0.993  0.2892 -0.3813 -2.1267
10563TIP3   OH231610   1.036   2.507   2.660 -0.0735 -0.0682 -0.2785
10563TIP3    H131611   0.975   2.580   2.669  1.1416  0.9121  0.1930
10563TIP3    H231612   1.017   2.470   2.573 -2.8773 -1.2495  0.8113
10564TIP3   OH231613   5.774   0.659   6.287  0.0646 -0.5173 -0.7510
10564TIP3    H131614   5.856   0.634   6.329  0.1506 -2.0814 -1.8233
10564TIP3    H231615   5.706   0.612   6.335 -0.0117 -0.8193 -1.1510
10565TIP3   OH231616   6.054   1.373   6.298 -0.0550  0.4440 -0.3906
10565TIP3    H131617   6.041   1.321   6.378 -0.2887  0.6805 -0.2739
10565TIP3    H231618   5.992   1.446   6.307 -1.2953 -0.4458 -1.5891
10566TIP3   OH231619   8.411   5.224   0.126 -0.2089  0.0831  0.0640
10566TIP3    H131620   8.439   5.133   0.131  0.4323  0.2471 -0.5233
10566TIP3    H231621   8.458   5.268   0.197 -0.9856 -0.1606  0.7375
10567TIP3   OH231622   0.164   5.761   0.551 -0.2009  0.3200 -0.2651
10567TIP3    H131623   0.225   5.687   0.542  0.3675  0.5820  1.2738
10567TIP3    H231624   0.147   5.766   0.645 -0.9101  1.6097 -0.4623
10568TIP3   OH231625   0.112   6.216   2.449 -0.2641  0.6138 -0.7120
10568TIP3    H131626   0.129   6.136   2.499  3.3510  2.2714  0.8047
10568TIP3    H231627   0.179   6.215   2.380 -0.6898  1.9693 -1.1455
10569TIP3   OH231628   4.191   7.880   6.912  0.7148  0.5057 -0.1031
10569TIP3    H131629   4.263   7.819   6.923 -0.6001 -0.9320  0.6796
10569TIP3    H231630   4.151   7.856   6.828  0.6228  0.7518 -0.1315
10570TIP3   OH231631   7.854   3.200   1.190 -0.2539 -0.6906  0.1516
10570TIP3    H131632   7.780   3.239   1.144  0.5662  0.4888 -0.1699
10570TIP3    H231633   7.824   3.112   1.212 -1.7130 -0.2660 -0.0775
10571TIP3   OH231634   7.016   5.637   0.048  0.2219  0.2391  0.0243
10571TIP3    H131635   7.022   5.577  -0.026 -0.9244 -0.7771  0.7574
10571TIP3    H231636   6.930   5.677   0.040  0.4394  0.7761  0.3277
10572TIP3   OH231637   5.813   1.930   6.551 -0.2971 -0.1096  0.0624
10572TIP3    H131638   5.737   1.981   6.580 -1.6470 -0.5419 -2.5588
10572TIP3    H231639   5.850   1.981   6.478  0.4439 -1.1244 -0.2891
10573TIP3   OH231640   7.014   1.767   6.678  0.5850  0.2438 -0.6022
10573TIP3    H131641   7.033   1.853   6.640  1.3816 -0.2964 -1.4230
10573TIP3    H231642   6.981   1.715   6.604  3.7586 -1.3362 -0.9670
10574TIP3   OH231643   8.629   5.831   0.643  0.2487  0.2927 -0.1996
10574TIP3    H131644   8.706   5.883   0.621  0.2619  1.4872  2.4687
10574TIP3    H231645   8.643   5.806   0.735 -1.3820 -1.5331 -0.4292
10575TIP3   OH231646   6.637   1.051   6.804  0.6682  0.8120 -0.0945
10575TIP3    H131647   6.707   1.049   6.739  0.5711  1.4009 -0.2221
10575TIP3    H231648   6.598   1.137   6.794  1.1020  1.1706  1.2236
10576TIP3   OH231649   0.089   5.288   2.339  0.2094 -0.2442  0.1201
10576TIP3    H131650   0.118   5.346   2.410 -0.6729 -2.0727  2.0345
10576TIP3    H231651   0.169   5.252   2.302  0.8596  3.3083 -2.1180
10577TIP3   OH231652   4.676   3.476   6.171 -0.6366 -0.6468  0.6414
10577TIP3    H131653   4.583   3.476   6.146 -0.7811  1.4607  1.0136
10577TIP3    H231654   4.701   3.569   6.168  1.3208 -1.1310  1.0891
10578TIP3   OH231655   0.664   4.848  -0.003  0.4883 -0.1446 -0.5801
10578TIP3    H131656   0.636   4.851   0.088 -0.2756  1.9513 -0.8730
10578TIP3    H231657   0.585   4.828  -0.053  0.9780 -1.6845 -0.7759
10579TIP3   OH231658   8.102   1.480   6.836 -0.2121  0.4991 -0.0698
10579TIP3    H131659   8.079   1.569   6.863  1.2088  0.7053  0.5089
10579TIP3    H231660   8.038   1.458   6.769 -0.5484  1.9800 -0.2519
10580TIP3   OH231661   5.711   1.646   6.110  0.2862  0.0833 -0.6324
10580TIP3    H131662   5.777   1.696   6.063  0.4856 -0.3626 -0.8280
10580TIP3    H231663   5.757   1.611   6.187 -0.1640  1.2391  0.1829
10581TIP3   OH231664   8.063   4.158   0.401  0.4316  0.9141  0.0933
10581TIP3    H131665   8.006   4.094   0.443  1.5262  1.2284  2.1481
10581TIP3    H231666   8.013   4.240   0.404  0.1094  0.7236 -0.0844
10582TIP3   OH231667   1.715   8.380   5.126 -0.1310 -0.4850 -0.2590
10582TIP3    H131668   1.795   8.332   5.149  1.3043  1.2199 -1.5488
10582TIP3    H231669   1.645   8.334   5.173  1.5541 -2.2082  0.6335
10583TIP3   OH231670   4.814   1.596   7.215 -0.3062 -0.1337  0.3350
10583TIP3    H131671   4.904   1.621   7.237  0.2210 -1.2001 -0.5819
10583TIP3    H231672   4.768   1.679   7.208  0.4423  0.4062  1.4649
10584TIP3   OH231673   0.128   4.588   0.335  0.1517 -0.5003  0.0705
10584TIP3    H131674   0.136   4.675   0.374  0.9868  0.0265 -1.2637
10584TIP3    H231675   0.157   4.529   0.405  0.6460  0.3638  0.6156
10585TIP3   OH231676   6.030   3.947   4.305  0.2081 -0.1935  0.2020
10585TIP3    H131677   6.071   3.909   4.382  0.7621  1.6199  0.8362
10585TIP3    H231678   6.091   4.014   4.276  0.1440 -1.0595 -2.0166
10586TIP3   OH231679   5.111   2.318   7.071  0.0255  0.2793 -0.2565
10586TIP3    H131680   5.195   2.363   7.064  1.8718 -3.2306 -1.9036
10586TIP3    H231681   5.056   2.360   7.005  1.0686  1.3730 -0.4467
10587TIP3   OH231682   8.747   4.986   0.975  0.2073  0.0413 -0.2043
10587TIP3    H131683   8.661   5.010   0.940 -0.2480 -0.6788  0.4200
10587TIP3    H231684   8.806   5.055   0.944 -0.4742  0.1928 -1.1628
10588TIP3   OH231685   1.148   3.910   0.868  0.2192 -0.1352 -0.1715
10588TIP3    H131686   1.160   3.862   0.786  0.5704  1.4638 -1.0651
10588TIP3    H231687   1.160   4.002   0.845  0.4098  0.3356  1.6889
10589TIP3   OH231688   4.317   1.993   6.899 -0.1384 -0.0197 -0.0323
10589TIP3    H131689   4.352   2.076   6.866  0.6878  0.1510  1.2076
10589TIP3    H231690   4.243   2.018   6.954 -0.3980 -0.1628 -0.3178
10590TIP3   OH231691   7.384   1.666   6.241 -0.7438 -0.2565 -0.0286
10590TIP3    H131692   7.352   1.663   6.331 -1.5960 -0.5076 -0.3388
10590TIP3    H231693   7.460   1.725   6.245 -1.1580  0.2344  0.7253
10591TIP3   OH231694   5.294   2.397   6.486 -0.3144  0.1448  0.0981
10591TIP3    H131695   5.364   2.333   6.474 -0.0185  0.3657  0.6220
10591TIP3    H231696   5.247   2.367   6.565 -1.3661 -0.5072 -0.7573
10592TIP3   OH231697   5.316   2.073   6.300  1.0128  0.4154 -0.4661
10592TIP3    H131698   5.240   2.067   6.357  1.4227  0.9664  0.1464
10592TIP3    H231699   5.309   2.159   6.259  1.5918  0.7025  0.0175
10593TIP3   OH231700   7.746   6.691   0.582 -0.8024 -0.0712 -0.1618
10593TIP3    H131701   7.694   6.648   0.650  0.1062 -0.7997  0.0704
10593TIP3    H231702   7.799   6.621   0.543  0.2418  0.7235 -0.1855
10594TIP3   OH231703   5.694   0.822   5.666  0.3946 -0.4541  0.7097
10594TIP3    H131704   5.620   0.879   5.686  2.3258  2.1341  0.6496
10594TIP3    H231705   5.679   0.795   5.575 -0.1818  0.5142  0.5068
10595TIP3   OH231706   0.841   5.105   1.309 -0.2624 -0.0828  0.2201
10595TIP3    H131707   0.924   5.139   1.343  0.6365 -0.9078 -1.0594
10595TIP3    H231708   0.865   5.066   1.225 -2.2800  1.2053 -0.9771
10596TIP3   OH231709   3.419   8.188   6.594 -0.3758  0.3615 -0.2603
10596TIP3    H131710   3.375   8.253   6.649  1.3958  0.7564  0.7362
10596TIP3    H231711   3.473   8.240   6.534  1.0018 -0.1650  0.5008
10597TIP3   OH231712   6.304   1.152   5.647 -0.5716  0.8421  0.4304
10597TIP3    H131713   6.232   1.192   5.695 -0.9997 -2.2233  2.4671
10597TIP3    H231714   6.264   1.078   5.601  1.2174 -0.7848  1.4369
10598TIP3   OH231715   5.245   7.723   1.419 -0.5271 -0.0692 -0.0381
10598TIP3    H131716   5.158   7.763   1.428 -0.0143  0.8986  0.7308
10598TIP3    H231717   5.301   7.795   1.391 -0.2140 -0.9730 -1.7498
10599TIP3   OH231718   6.001   0.051   4.590  0.3030  0.3131  0.0226
10599TIP3    H131719   6.002   0.111   4.664  0.3392  0.2018  0.1115
10599TIP3    H231720   5.914   0.064   4.551  0.0906  0.0036  0.3842
10600TIP3   OH231721   0.672   6.698   1.159 -0.2003  0.7428 -0.7905
10600TIP3    H131722   0.590   6.744   1.176  0.5272  1.6117  0.5037
10600TIP3    H231723   0.739   6.755   1.198  1.0338  0.1553 -2.0223
10601TIP3   OH231724   8.024   4.221   1.362 -0.1999 -0.1250  0.3526
10601TIP3    H131725   8.109   4.263   1.347 -0.4402  0.3040  0.1831
10601TIP3    H231726   7.960   4.289   1.341 -0.6352 -1.3522 -2.5093
10602TIP3   OH231727   0.035   1.869   0.211  0.5038 -0.1873  0.9382
10602TIP3    H131728   0.037   1.934   0.141  0.4830 -0.0243  1.0892
10602TIP3    H231729   0.027   1.920   0.291 -0.3502 -0.4171  0.9995
10603TIP3   OH231730   6.815   2.026   5.158  0.8374 -0.4430 -0.1116
10603TIP3    H131731   6.811   2.122   5.160 -0.1736 -0.4735 -0.3261
10603TIP3    H231732   6.739   2.001   5.105  0.9938 -1.3668  0.1075
10604TIP3   OH231733   8.063   3.369   1.077  0.0886  0.0982  0.2584
10604TIP3    H131734   8.156   3.391   1.078  0.5191 -1.6264  0.0776
10604TIP3    H231735   8.051   3.312   1.153 -1.1006  1.3919  1.0475
10605TIP3   OH231736   1.806   8.375   6.281  0.3420  0.0211 -0.4416
10605TIP3    H131737   1.858   8.295   6.268  1.7339  0.5441  1.7438
10605TIP3    H231738   1.793   8.409   6.192  1.1699 -1.7412 -1.2709
10606TIP3   OH231739   2.728   8.307   6.088  0.2706  0.4961  0.1286
10606TIP3    H131740   2.763   8.374   6.147 -1.1329  1.6706 -0.3201
10606TIP3    H231741   2.744   8.343   6.000  0.7875 -0.4287 -0.1605
10607TIP3   OH231742   1.094   5.466   0.109  0.1748  0.0766  0.0668
10607TIP3    H131743   1.070   5.439   0.197  1.2699  0.7330  0.5689
10607TIP3    H231744   1.025   5.429   0.053  0.7901 -2.4134  0.9000
10608TIP3   OH231745   0.225   6.134   0.407 -0.1861  0.2201  0.1328
10608TIP3    H131746   0.217   6.134   0.502  1.4493 -0.0477  0.2945
10608TIP3    H231747   0.220   6.226   0.382  0.6300  0.3956  0.6056
10609TIP3   OH231748   1.322   6.701   1.770  0.1357  0.2245 -0.2839
10609TIP3    H131749   1.364   6.697   1.856 -2.6179 -1.3090  1.0536
10609TIP3    H231750   1.327   6.794   1.745  1.8679  0.5065  1.0304
10610TIP3   OH231751   0.950   2.951   0.859  0.4279 -0.3346 -0.1127
10610TIP3    H131752   1.043   2.957   0.880  0.3428  0.5323 -0.0001
10610TIP3    H231753   0.913   2.897   0.929  1.1000 -1.9038 -0.9404
10611TIP3   OH231754   7.415   5.978   0.631 -0.3049 -0.5909 -0.3220
10611TIP3    H131755   7.403   5.952   0.722  0.7744 -3.1718 -0.8757
10611TIP3    H231756   7.509   5.980   0.618 -0.4488 -0.2910 -1.4017
10612TIP3   OH231757   8.320   3.379   0.749 -0.1638  0.0813 -0.4560
10612TIP3    H131758   8.314   3.306   0.687 -0.9819  0.3416 -0.6965
10612TIP3    H231759   8.253   3.441   0.719 -2.5431 -1.0087  2.2817
10613TIP3   OH231760   8.771   2.401   0.947  0.2409 -0.2902  0.2055
10613TIP3    H131761   8.866   2.415   0.941  0.1711  1.8654  3.1636
10613TIP3    H231762   8.736   2.484   0.979 -2.3325 -1.8928  1.7473
10614TIP3   OH231763   6.617   2.886   6.075 -0.3787  0.0250 -0.2895
10614TIP3    H131764   6.543   2.894   6.135 -1.8338 -0.6822 -1.9459
10614TIP3    H231765   6.689   2.855   6.130 -1.7666 -0.9362  1.0340
10615TIP3   OH231766   0.246   6.881   0.098  0.0346 -0.2433  0.0942
10615TIP3    H131767   0.245   6.788   0.121 -0.2348 -0.3259 -0.2471
10615TIP3    H231768   0.305   6.887   0.023  1.4348  0.1236  1.2027
10616TIP3   OH231769   0.148   5.879   1.357  0.0444 -0.2963  0.3086
10616TIP3    H131770   0.105   5.965   1.353  0.8550  0.0465 -1.4968
10616TIP3    H231771   0.205   5.877   1.280  0.6528 -2.1344  0.7841
10617TIP3   OH231772   0.069   5.871   0.821  0.0253 -0.3349 -0.3355
10617TIP3    H131773   0.153   5.846   0.859 -0.7347 -1.3570  0.6930
10617TIP3    H231774   0.048   5.955   0.862  1.3635  0.8214 -1.9108
10618TIP3   OH231775   7.802   4.975   3.229 -0.2245  0.3761 -0.1647
10618TIP3    H131776   7.778   4.903   3.287  0.4374  0.2563 -0.0337
10618TIP3    H231777   7.898   4.977   3.232 -0.2868  2.2504  1.0115
10619TIP3   OH231778   6.026   0.766   5.652 -0.0614 -0.2624  0.0043
10619TIP3    H131779   6.009   0.721   5.570 -0.5241  1.8001 -1.0649
10619TIP3    H231780   5.939   0.786   5.687  0.1322 -0.2391  0.4786
10620TIP3   OH231781   6.829   3.299   5.063 -0.3087  0.1369 -0.4258
10620TIP3    H131782   6.849   3.307   4.970  2.1185  0.1249  0.0707
10620TIP3    H231783   6.914   3.291   5.106 -1.3987 -0.0850  1.7840
10621TIP3   OH231784   0.320   2.991   1.080 -0.1325  0.3805  0.0962
10621TIP3    H131785   0.229   2.971   1.061 -0.0579 -0.7761  0.8860
10621TIP3    H231786   0.339   3.071   1.031 -0.7942 -0.8333 -2.1519
10622TIP3   OH231787   8.585   7.510   1.893  0.0133 -0.2553 -0.2504
10622TIP3    H131788   8.534   7.535   1.970  0.0736  1.8468 -0.8748
10622TIP3    H231789   8.581   7.414   1.892 -2.3773 -0.1995  0.7628
10623TIP3   OH231790   8.266   4.404   0.265  0.4795  0.1638  0.2849
10623TIP3    H131791   8.318   4.335   0.224  0.1663 -0.4583  0.9144
10623TIP3    H231792   8.177   4.390   0.232  0.5253  0.6356 -0.0470
10624TIP3   OH231793   2.628   5.621   5.011  0.2549 -0.2749 -0.0529
10624TIP3    H131794   2.719   5.646   5.027 -0.2833  1.3809  0.5929
10624TIP3    H231795   2.577   5.695   5.044 -1.2883 -0.6882 -1.4417
10625TIP3   OH231796   1.142   7.530   0.271  0.4188  0.1792 -0.6374
10625TIP3    H131797   1.210   7.592   0.246 -1.1442  2.3191  0.2823
10625TIP3    H231798   1.167   7.501   0.359  0.4205  0.5370 -0.5216
10626TIP3   OH231799   7.270   4.464   1.371  0.1027  0.2707 -0.1348
10626TIP3    H131800   7.304   4.504   1.291  1.1335  0.3842  0.3457
10626TIP3    H231801   7.210   4.529   1.408 -0.2241  0.2960 -0.7065
10627TIP3   OH231802   0.366   6.286   1.747 -0.0927 -0.0805 -0.2436
10627TIP3    H131803   0.440   6.294   1.807  0.9390 -3.1505 -0.9862
10627TIP3    H231804   0.296   6.337   1.787  1.8600  1.3522  1.4229
10628TIP3   OH231805   7.786   6.612   2.492  0.2232 -0.1796 -0.4742
10628TIP3    H131806   7.749   6.621   2.405 -1.0627 -1.8387 -0.1408
10628TIP3    H231807   7.762   6.692   2.538  0.8293  0.6541 -1.5997
10629TIP3   OH231808   0.791   4.008   0.111  0.2057 -0.3159  0.0925
10629TIP3    H131809   0.764   4.089   0.067 -0.8212 -1.4072 -1.3152
10629TIP3    H231810   0.879   4.026   0.142 -0.5330  1.8466  1.0629
10630TIP3   OH231811   1.096   6.309   0.741 -0.0334  0.3506 -0.4080
10630TIP3    H131812   1.099   6.392   0.789 -0.7969 -0.1389  0.5006
10630TIP3    H231813   1.165   6.256   0.781 -0.6926 -0.0702  0.1640
10631TIP3   OH231814   0.903   7.049   0.628  0.5515  0.1897 -0.0554
10631TIP3    H131815   0.925   7.134   0.588  0.5593 -0.3374 -1.2030
10631TIP3    H231816   0.972   6.990   0.596  0.0804 -0.4292  0.0741
10632TIP3   OH231817   1.288   4.828   3.208  0.0186  0.4781  0.0188
10632TIP3    H131818   1.310   4.736   3.223  2.0507  0.8519 -0.5060
10632TIP3    H231819   1.346   4.855   3.136 -0.7531  2.0929 -0.0152
10633TIP3   OH231820   5.869   1.615   5.162  0.2433 -0.4818  0.0760
10633TIP3    H131821   5.911   1.698   5.182 -0.7904 -0.1192  0.7999
10633TIP3    H231822   5.939   1.551   5.164  0.7575  0.1117  1.2492
10634TIP3   OH231823   1.836   7.930   6.750 -0.0031 -0.1006 -0.5460
10634TIP3    H131824   1.892   7.963   6.820  0.0354  0.1215 -0.6824
10634TIP3    H231825   1.832   7.835   6.766 -2.3705  0.2881  1.5079
10635TIP3   OH231826   8.490   4.710   1.132 -0.1095 -0.5123 -0.3594
10635TIP3    H131827   8.409   4.711   1.081 -0.1727  0.0629 -0.2492
10635TIP3    H231828   8.489   4.793   1.180  0.4955 -0.5481 -0.2811
10636TIP3   OH231829   6.540   2.448   6.387 -0.1883  0.1930  0.2017
10636TIP3    H131830   6.549   2.353   6.380 -0.6289  0.1675 -0.0501
10636TIP3    H231831   6.469   2.470   6.327  1.4604  0.9803 -1.5248
10637TIP3   OH231832   4.221   3.219   5.741  0.1814  0.3194 -0.1690
10637TIP3    H131833   4.236   3.191   5.831 -1.1389  0.5764  0.1400
10637TIP3    H231834   4.275   3.160   5.688 -2.1618 -2.5623  0.4971
10638TIP3   OH231835   0.042   5.427   1.317 -0.1309 -0.5691  0.7561
10638TIP3    H131836   0.087   5.343   1.304  0.6037 -0.1904  0.8362
10638TIP3    H231837   0.102   5.492   1.282  0.1316  0.1107  2.4294
10639TIP3   OH231838   5.919   1.300   6.022  0.1088 -0.2576  0.2371
10639TIP3    H131839   5.845   1.268   5.970  0.1066 -0.6108  0.4546
10639TIP3    H231840   5.905   1.262   6.109  1.5125 -1.8440 -0.1875
10640TIP3   OH231841   5.811   4.273   4.432 -0.7712 -0.6259 -0.2316
10640TIP3    H131842   5.889   4.249   4.482 -0.6481  1.3615  0.5647
10640TIP3    H231843   5.846   4.304   4.348 -0.5847  1.3604  0.5440
10641TIP3   OH231844   1.034   4.732   0.142 -0.4088 -0.2374  0.2346
10641TIP3    H131845   1.038   4.786   0.064  0.4085  2.2758  1.9593
10641TIP3    H231846   0.954   4.759   0.187 -0.4479 -1.0871  0.7056
10642TIP3   OH231847   6.600   1.560   6.901  0.0779  0.4743 -0.6505
10642TIP3    H131848   6.693   1.542   6.917 -0.2594 -0.7039  0.0259
10642TIP3    H231849   6.557   1.475   6.910 -1.2203  1.2002  0.2140
10643TIP3   OH231850   8.680   4.515   1.069  0.3606  0.7135  0.6211
10643TIP3    H131851   8.707   4.455   1.138 -1.2217 -0.2571  0.4203
10643TIP3    H231852   8.616   4.573   1.111 -1.3667 -0.5217 -0.2554
10644TIP3   OH231853   1.599   6.304   0.281  0.0917 -0.0266 -0.1775
10644TIP3    H131854   1.571   6.311   0.373  0.5682 -0.7739  0.0309
10644TIP3    H231855   1.526   6.341   0.231 -0.4583 -0.2257  0.4656
10645TIP3   OH231856   5.244   0.622   6.573 -0.7467  0.2820 -0.4059
10645TIP3    H131857   5.312   0.662   6.519 -2.1706  1.5086 -1.3383
10645TIP3    H231858   5.183   0.582   6.511 -1.7634  0.6599  0.3169
10646TIP3   OH231859   6.137   0.400   6.851 -0.3130 -0.3323  0.3167
10646TIP3    H131860   6.225   0.381   6.885 -1.1855 -0.8093  2.3871
10646TIP3    H231861   6.078   0.373   6.921 -2.1346 -0.0645 -1.0696
10647TIP3   OH231862   1.974   8.086   5.407  0.7938  0.0122 -0.4057
10647TIP3    H131863   2.038   8.019   5.381  1.0237  0.3620 -0.7467
10647TIP3    H231864   1.969   8.145   5.332 -0.2227 -0.2250 -0.5241
10648TIP3   OH231865   4.108   7.259   6.526  0.3293  0.5804 -0.2311
10648TIP3    H131866   4.117   7.165   6.540 -2.2607  0.3752  0.4325
10648TIP3    H231867   4.114   7.270   6.431 -0.6731 -0.4517 -0.4329
10649TIP3   OH231868   4.363   0.327   6.551 -0.2482 -0.6162 -0.4149
10649TIP3    H131869   4.458   0.326   6.561 -0.2980 -1.0337  0.0255
10649TIP3    H231870   4.348   0.311   6.458  0.1063 -0.6442 -0.4675
10650TIP3   OH231871   4.775   2.498   7.174  0.7030  0.3508 -0.8893
10650TIP3    H131872   4.794   2.576   7.123  1.6602 -0.7395 -2.2201
10650TIP3    H231873   4.785   2.425   7.112  2.1584 -1.0175  0.8909
10651TIP3   OH231874   7.733   4.648   0.659 -0.1794  0.1602  0.0134
10651TIP3    H131875   7.736   4.598   0.740  0.7474  0.2882  0.0648
10651TIP3    H231876   7.785   4.598   0.597 -2.2092 -0.7695 -1.0034
10652TIP3   OH231877   5.626   1.739   6.415 -0.3933  0.1557 -0.0013
10652TIP3    H131878   5.666   1.777   6.493 -0.8577  0.5190  0.0614
10652TIP3    H231879   5.536   1.772   6.415 -0.5013 -0.1280 -0.4963
10653TIP3   OH231880   5.381  -0.005   6.206  0.4497  0.0202  0.1700
10653TIP3    H131881   5.308   0.054   6.224  1.5706  1.3077  0.5917
10653TIP3    H231882   5.396   0.003   6.112  0.7673  0.6299  0.2672
10654TIP3   OH231883   5.788   3.465   5.899  0.1638 -0.0764 -0.5902
10654TIP3    H131884   5.738   3.516   5.962 -0.0546  0.2304 -1.0086
10654TIP3    H231885   5.828   3.531   5.841  1.0534 -0.3151 -0.2531
10655TIP3   OH231886   7.677   2.912   1.348  0.2313 -0.0929  0.1094
10655TIP3    H131887   7.607   2.882   1.290  0.5396 -0.8792  0.1404
10655TIP3    H231888   7.663   2.864   1.429  1.0186 -0.5335 -0.0067
10656TIP3   OH231889   6.480   6.953   2.619 -0.1475 -0.3880  0.0010
10656TIP3    H131890   6.545   6.896   2.576  0.6333  0.1248  0.4815
10656TIP3    H231891   6.408   6.894   2.642  1.5108 -1.6183  2.2696
10657TIP3   OH231892   0.260   6.498   1.892  0.0101  0.0932  0.0758
10657TIP3    H131893   0.164   6.496   1.894 -0.0315 -0.4462 -1.6241
10657TIP3    H231894   0.285   6.528   1.980 -1.6782 -0.7670  0.8880
10658TIP3   OH231895   6.937   0.854   6.173 -0.4829 -0.3996  0.0371
10658TIP3    H131896   6.945   0.759   6.185 -0.1592 -0.4237 -0.3510
10658TIP3    H231897   6.963   0.891   6.257  1.8159 -0.5651 -0.5771
10659TIP3   OH231898   6.830   0.956   7.044  0.0440  0.0006 -0.0871
10659TIP3    H131899   6.829   1.033   7.102  1.6828 -1.4691  1.9696
10659TIP3    H231900   6.773   0.980   6.971  1.6783  3.7339 -0.2317
10660TIP3   OH231901   6.567   0.201   5.824  0.8466 -0.3540  0.1637
10660TIP3    H131902   6.483   0.215   5.868  0.4756 -1.6113 -0.1298
10660TIP3    H231903   6.609   0.131   5.873  1.7449  0.3027  0.3323
10661TIP3   OH231904   7.477   4.953   1.397  1.0925 -0.1748 -0.2100
10661TIP3    H131905   7.525   4.961   1.314 -1.1966 -1.8179 -1.7606
10661TIP3    H231906   7.428   5.035   1.404  1.6952  0.1856 -0.2301
10662TIP3   OH231907   6.896   4.782   1.065 -0.2595 -0.0115  0.0086
10662TIP3    H131908   6.937   4.700   1.093 -3.0817 -1.2114  0.7983
10662TIP3    H231909   6.955   4.850   1.095  1.8866 -1.7136 -0.1992
10663TIP3   OH231910   7.089   0.222   7.131 -0.3203 -0.3437 -0.0306
10663TIP3    H131911   7.086   0.127   7.119  0.6524 -0.2592 -1.1053
10663TIP3    H231912   7.099   0.256   7.042  0.1233  0.7262  0.4291
10664TIP3   OH231913   5.176   1.977   5.729  0.2850 -0.4415  0.5815
10664TIP3    H131914   5.264   1.987   5.694  0.3387 -0.0272  0.8247
10664TIP3    H231915   5.179   2.021   5.814  0.4262 -2.2823  1.5511
10665TIP3   OH231916   8.223   5.312   0.985 -0.1817 -0.6827  0.5422
10665TIP3    H131917   8.291   5.263   1.033  1.1216  0.5576  0.0050
10665TIP3    H231918   8.239   5.403   1.009  0.0682 -0.1126 -1.7625
10666TIP3   OH231919   7.641   3.848   2.265 -0.1266  0.2075  0.3344
10666TIP3    H131920   7.669   3.910   2.198 -0.0234  1.8071  1.8315
10666TIP3    H231921   7.563   3.807   2.229  1.9781 -1.6452 -2.3254
10667TIP3   OH231922   5.643   0.053   5.822 -0.4355  0.1013 -0.1277
10667TIP3    H131923   5.674   0.116   5.887 -3.1910  0.8197  0.5832
10667TIP3    H231924   5.618   0.106   5.747 -2.5538 -0.1023  0.3858
10668TIP3   OH231925   0.315   4.733   1.682 -0.4845  0.7150 -0.0703
10668TIP3    H131926   0.350   4.658   1.634  1.1791  0.9023  0.8128
10668TIP3    H231927   0.231   4.702   1.718  0.2054 -0.7246  0.3138
10669TIP3   OH231928   5.968   0.618   5.433  0.2427 -0.0594  0.3533
10669TIP3    H131929   5.993   0.539   5.384 -1.5252 -0.4030 -0.0400
10669TIP3    H231930   5.928   0.675   5.368  2.1468  1.4779  0.5039
10670TIP3   OH231931   0.983   4.417   3.869  0.1293  0.3254 -0.0234
10670TIP3    H131932   0.921   4.463   3.814 -0.6317  0.7754  1.1888
10670TIP3    H231933   0.956   4.437   3.959  0.9445 -0.9113  0.5248
10671TIP3   OH231934   2.313   8.254   4.739 -0.3186  0.0238  0.2033
10671TIP3    H131935   2.262   8.308   4.678  1.6834  0.0172 -1.5253
10671TIP3    H231936   2.396   8.302   4.750 -0.5128 -0.1406  2.6869
10672TIP3   OH231937   8.849   2.068   0.707 -0.1033  0.4051 -0.2525
10672TIP3    H131938   8.932   2.109   0.681  0.4790 -1.0238 -0.6637
10672TIP3    H231939   8.809   2.042   0.624 -1.2932  1.7113 -0.0963
10673TIP3   OH231940   8.524   3.800   0.791 -0.1618  0.2193 -0.2767
10673TIP3    H131941   8.497   3.736   0.857 -0.9565  1.7672  0.9335
10673TIP3    H231942   8.443   3.843   0.765  0.4830  1.3845 -0.3909
10674TIP3   OH231943   0.303   5.965   1.582  0.2843 -0.3530  0.2512
10674TIP3    H131944   0.343   6.048   1.556 -1.2564  0.5395  0.6726
10674TIP3    H231945   0.254   5.937   1.504 -1.4853  0.5672  1.0056
10675TIP3   OH231946   8.138   4.427   3.327 -0.3541 -0.1715  0.2133
10675TIP3    H131947   8.100   4.468   3.249 -0.0565 -0.1712  0.0673
10675TIP3    H231948   8.232   4.420   3.308 -0.1712  0.4844  0.8673
10676TIP3   OH231949   6.714   5.096   1.082 -0.3452  0.6230  0.0603
10676TIP3    H131950   6.785   5.033   1.089  0.2684  1.2425 -0.4876
10676TIP3    H231951   6.745   5.173   1.131 -1.3088  0.3061  1.1799
10677TIP3   OH231952   2.050   4.492   3.589  0.3237  0.1536 -0.6092
10677TIP3    H131953   2.113   4.489   3.660  0.3814  0.2599 -0.6547
10677TIP3    H231954   2.002   4.574   3.604  1.4173  1.0053 -1.6079
10678TIP3   OH231955   7.217   3.919   5.705  0.1081  0.8210 -0.2168
10678TIP3    H131956   7.127   3.889   5.713  0.1436  0.1806 -1.9742
10678TIP3    H231957   7.222   3.997   5.761 -2.1737  2.2186 -1.9069
10679TIP3   OH231958   4.510   2.703   4.279  0.2612 -0.2336 -0.1251
10679TIP3    H131959   4.539   2.641   4.346  0.4899  0.0294  0.0155
10679TIP3    H231960   4.559   2.783   4.296 -0.9008  0.3731  0.4247
10680TIP3   OH231961   8.281   5.964   1.440  0.2644 -0.3276 -0.1894
10680TIP3    H131962   8.191   5.986   1.464 -0.5600 -3.4999 -0.2185
10680TIP3    H231963   8.322   5.937   1.523  1.0993  0.7759 -0.2354
10681TIP3   OH231964   4.667   3.147   7.292 -0.6667  0.3370  0.9458
10681TIP3    H131965   4.614   3.084   7.243  0.9912 -1.3352  1.2556
10681TIP3    H231966   4.757   3.132   7.263 -0.0646  1.5742  2.0838
10682TIP3   OH231967   5.848   3.234   5.646 -0.1758 -0.9046 -0.1221
10682TIP3    H131968   5.843   3.263   5.738 -0.2929 -1.4351  0.0412
10682TIP3    H231969   5.897   3.303   5.602 -0.7482 -0.2866  0.1919
10683TIP3   OH231970   7.769   1.439   7.207  0.3039  0.3088  0.4194
10683TIP3    H131971   7.772   1.508   7.272 -1.2856  0.8203 -0.0311
10683TIP3    H231972   7.686   1.394   7.223  0.9206 -0.9477  0.1594
10684TIP3   OH231973   6.458   1.630   7.134 -0.2207  0.1630  0.5005
10684TIP3    H131974   6.491   1.562   7.192  0.2797  1.2204  1.4871
10684TIP3    H231975   6.518   1.630   7.059  1.9042  1.8770  2.1494
10685TIP3   OH231976   6.174   4.310   6.290 -0.2587 -0.0659  0.1146
10685TIP3    H131977   6.242   4.285   6.227 -0.0194  0.4400  0.1676
10685TIP3    H231978   6.177   4.405   6.290  0.7634 -0.0730  1.9949
10686TIP3   OH231979   6.173   0.379   5.690 -0.0367  0.3512  0.1085
10686TIP3    H131980   6.088   0.365   5.648  0.5762  2.9254 -2.1907
10686TIP3    H231981   6.212   0.450   5.639  3.2318 -0.3687  1.5218
10687TIP3   OH231982   6.322   0.046   6.244  0.3192  0.3538 -0.0838
10687TIP3    H131983   6.231   0.036   6.273  0.7220 -0.4202  0.9391
10687TIP3    H231984   6.344  -0.039   6.206  0.9869  0.1656  0.7259
10688TIP3   OH231985   8.625   1.665   5.278 -0.3236  0.1399  0.2310
10688TIP3    H131986   8.603   1.619   5.359 -0.6553 -0.9641 -0.4765
10688TIP3    H231987   8.548   1.720   5.261  0.0154  0.8697  0.9974
10689TIP3   OH231988   5.884   1.831   5.528 -0.1277  0.1905 -0.4477
10689TIP3    H131989   5.906   1.921   5.553  0.5575  0.0096 -0.3728
10689TIP3    H231990   5.959   1.779   5.559 -0.4163 -0.3715 -0.6878
10690TIP3   OH231991   3.736   8.294   4.367  0.1326  0.4643 -0.4909
10690TIP3    H131992   3.798   8.222   4.352  0.8243  1.1293 -0.8544
10690TIP3    H231993   3.773   8.368   4.319 -1.0870  0.8022 -0.9159
10691TIP3   OH231994   3.918   7.584   6.991 -0.1304 -0.5406 -0.4361
10691TIP3    H131995   3.907   7.512   6.928  1.1603 -0.4412 -0.7881
10691TIP3    H231996   4.011   7.585   7.010 -0.5473 -0.8687  1.8595
10692TIP3   OH231997   8.056   6.103   0.429  0.2399 -0.1994  0.1356
10692TIP3    H131998   8.096   6.034   0.482  2.1823  0.3054 -0.6134
10692TIP3    H231999   7.987   6.060   0.380  1.7657 -1.7219 -0.7037
10693TIP3   OH232000   0.561   4.703   1.879 -0.3297 -0.1105  0.1452
10693TIP3    H132001   0.586   4.774   1.938 -1.5772  0.3614  0.1247
10693TIP3    H232002   0.520   4.747   1.805  0.1883 -0.7741 -0.5412
10694TIP3   OH232003   6.136   1.869   7.197 -0.0688  0.1856  0.8265
10694TIP3    H132004   6.128   1.797   7.260 -0.2215 -1.2912 -0.8255
10694TIP3    H232005   6.126   1.827   7.112 -1.3686  2.3766 -0.1356
10695TIP3   OH232006   0.093   5.416   0.449 -0.5502 -0.0041  0.4223
10695TIP3    H132007   0.111   5.502   0.412 -0.0815  0.3713  1.5234
10695TIP3    H232008   0.017   5.429   0.506 -1.0940 -0.5276 -0.1656
10696TIP3   OH232009   8.356   4.973   0.313 -0.2967 -0.1074 -0.1390
10696TIP3    H132010   8.405   4.955   0.233 -1.0020  0.5379 -0.7071
10696TIP3    H232011   8.277   4.920   0.305 -1.1746  1.2726 -0.6497
10697TIP3   OH232012   2.085   5.350   2.939  0.0093  0.0863  0.0149
10697TIP3    H132013   2.018   5.365   3.006 -0.5138 -2.1633  0.0226
10697TIP3    H232014   2.166   5.379   2.980 -0.4327 -0.4773  1.3276
10698TIP3   OH232015   1.994   7.950   6.996 -0.6854  0.2946 -0.1609
10698TIP3    H132016   2.062   7.966   7.061 -0.6655  0.9746 -0.3416
10698TIP3    H232017   1.984   7.855   6.995 -0.7625  0.2823  0.9067
10699TIP3   OH232018   2.715   6.733   7.271 -0.5202  0.5140 -0.3456
10699TIP3    H132019   2.761   6.664   7.319  0.8521  2.5106  1.2691
10699TIP3    H232020   2.775   6.758   7.201 -1.0966 -0.0431 -1.0466
10700TIP3   OH232021   7.322   2.016   5.062  0.0204 -0.1626  0.0672
10700TIP3    H132022   7.341   1.983   4.974 -1.8210 -0.9111 -0.0781
10700TIP3    H232023   7.369   1.957   5.120  0.4748 -0.2486 -0.3826
10701TIP3   OH232024   7.648   6.319   2.132 -0.4140 -0.3590  0.0353
10701TIP3    H132025   7.739   6.349   2.132 -0.4547 -0.2278 -0.7643
10701TIP3    H232026   7.616   6.337   2.221 -0.0950  0.8909 -0.1058
10702TIP3   OH232027   5.347   2.753   6.475  0.3480  0.2606  0.1883
10702TIP3    H132028   5.386   2.802   6.548  1.0369 -0.0799  0.0522
10702TIP3    H232029   5.411   2.685   6.455 -1.1672 -1.5142  1.2144
10703TIP3   OH232030   6.178   3.582   6.278 -0.3405  0.2165  0.0201
10703TIP3    H132031   6.196   3.530   6.356  2.5999  1.2371  0.0800
10703TIP3    H232032   6.168   3.519   6.208 -0.4396 -0.5859  0.7515
10704TIP3   OH232033   6.703   3.507   5.738 -0.4196  0.2376 -0.1418
10704TIP3    H132034   6.630   3.474   5.685  0.0900 -0.5973 -0.3369
10704TIP3    H232035   6.696   3.460   5.821 -0.1865  0.2609 -0.1093
10705TIP3   OH232036   6.580   0.686   6.302  0.0722 -0.2670 -0.7899
10705TIP3    H132037   6.655   0.742   6.285 -0.1641  0.0002 -0.9574
10705TIP3    H232038   6.505   0.746   6.305  0.1204 -0.2694  1.3274
10706TIP3   OH232039   7.784   5.528   0.097  0.2597 -0.2215  0.5771
10706TIP3    H132040   7.846   5.554   0.165  2.1000  0.0682 -1.1752
10706TIP3    H232041   7.799   5.589   0.026 -1.3520 -0.7857 -0.2780
10707TIP3   OH232042  -0.003   5.172   0.216  0.3567  0.5963  0.3013
10707TIP3    H132043   0.001   5.207   0.306  1.6868  1.7115 -0.1636
10707TIP3    H232044   0.086   5.182   0.183  0.0545 -0.5171 -0.8966
10708TIP3   OH232045   5.496   1.509   7.037 -0.7260 -0.1010 -0.2313
10708TIP3    H132046   5.582   1.527   6.998 -0.6394  2.0435  0.8622
10708TIP3    H232047   5.509   1.431   7.089  0.8325  0.7495  0.6952
10709TIP3   OH232048   5.113   1.603   6.778  0.1843 -0.1269 -0.1660
10709TIP3    H132049   5.201   1.573   6.755 -0.1113 -1.4120  0.3144
10709TIP3    H232050   5.070   1.620   6.695  0.5312 -0.5933 -0.4431
10710TIP3   OH232051   6.254   1.957   6.832  0.2006 -0.0928  0.2575
10710TIP3    H132052   6.329   1.955   6.773  0.8259 -0.9043  1.0867
10710TIP3    H232053   6.186   1.907   6.786  0.2217  0.4509 -0.3848
10711TIP3   OH232054   2.069   2.119   7.123 -0.4018 -0.0263  0.1804
10711TIP3    H132055   2.088   2.123   7.216  0.9685  1.5797 -0.1425
10711TIP3    H232056   2.011   2.194   7.106 -0.3156 -0.0706 -0.3311
10712TIP3   OH232057   7.712   5.811   2.625 -0.3215 -0.2616  0.0548
10712TIP3    H132058   7.783   5.850   2.573 -0.3238 -1.5792 -0.9766
10712TIP3    H232059   7.633   5.857   2.595  0.0952  1.4031  1.4048
10713TIP3   OH232060   2.258   2.528   7.187  0.2225  0.3531 -0.2681
10713TIP3    H132061   2.225   2.545   7.275  0.1959 -0.1460 -0.1772
10713TIP3    H232062   2.281   2.614   7.153  0.2449  0.5498  0.2317
10714TIP3   OH232063   3.986   1.516   5.617  0.0281 -0.1004 -0.2168
10714TIP3    H132064   3.995   1.610   5.601  0.3750 -0.3003 -1.2474
10714TIP3    H232065   4.056   1.476   5.566 -0.6066 -0.9722 -0.4215
10715TIP3   OH232066   1.690   5.095   0.658 -0.5756  0.1474 -0.6856
10715TIP3    H132067   1.634   5.161   0.699 -0.4598  1.4323 -2.4967
10715TIP3    H232068   1.629   5.035   0.616 -0.6463  0.9929 -1.8265
10716TIP3   OH232069   5.162   1.294   5.755  0.2948  0.2108 -0.3179
10716TIP3    H132070   5.134   1.361   5.818  0.6076 -0.0349  0.0825
10716TIP3    H232071   5.148   1.335   5.670  0.3242  0.7279 -0.0804
10717TIP3   OH232072   3.539   0.265   1.170  0.9925  0.0989  0.3535
10717TIP3    H132073   3.557   0.275   1.077  1.0615 -1.6312  0.1511
10717TIP3    H232074   3.562   0.174   1.189  1.8511  0.6844  2.2638
10718TIP3   OH232075   6.034   2.899   5.600 -0.6085 -0.2297 -0.2239
10718TIP3    H132076   6.096   2.972   5.602 -2.3941  1.2896  2.1711
10718TIP3    H232077   5.957   2.935   5.555 -1.6921 -0.4623  1.4255
10719TIP3   OH232078   1.715   1.413   5.481  0.1118  0.0580  0.3744
10719TIP3    H132079   1.695   1.343   5.543 -0.0229  1.6513  2.1807
10719TIP3    H232080   1.801   1.446   5.509  0.1170  0.6900 -0.3793
10720TIP3   OH232081   4.760   7.497   6.696  0.1719  0.2006 -0.4562
10720TIP3    H132082   4.703   7.441   6.643 -0.3036  0.3610 -0.1123
10720TIP3    H232083   4.800   7.438   6.759  0.9909 -0.0516 -1.1909
10721TIP3   OH232084   8.075   1.781   6.585 -0.0185  0.0363 -0.1851
10721TIP3    H132085   8.094   1.695   6.623  0.7576 -0.6494 -2.0859
10721TIP3    H232086   8.027   1.762   6.505  0.7656  1.3526 -0.9829
10722TIP3   OH232087   3.711   7.664   5.505  0.1613  0.4044  0.1058
10722TIP3    H132088   3.777   7.604   5.539 -0.0891  0.4696  0.7254
10722TIP3    H232089   3.701   7.641   5.413  0.7604  0.1346  0.1118
10723TIP3   OH232090   1.200   4.161   0.863 -0.2678 -0.2748  0.1076
10723TIP3    H132091   1.238   4.175   0.950 -2.3136  1.7047  0.7364
10723TIP3    H232092   1.249   4.220   0.806  1.2041 -1.7131 -0.1654
10724TIP3   OH232093   5.429   0.950   6.784 -0.0896  0.7369 -0.0867
10724TIP3    H132094   5.371   0.927   6.857  0.0844  2.8845  0.7690
10724TIP3    H232095   5.497   0.883   6.786 -1.6345 -0.8727 -0.0873
10725TIP3   OH232096   7.796   1.068   5.878 -0.4119 -0.0738 -0.0734
10725TIP3    H132097   7.796   1.141   5.940 -1.1666  1.4679 -1.8795
10725TIP3    H232098   7.860   1.006   5.915 -0.8382  0.8007  2.2330
10726TIP3   OH232099   8.004   1.310   5.743  0.5777  0.0945  0.0878
10726TIP3    H132100   7.945   1.357   5.803  1.7622 -0.8455  2.0514
10726TIP3    H232101   8.066   1.376   5.713 -0.2826  0.6683 -0.4555
10727TIP3   OH232102   1.827   5.491   0.418 -0.2623  0.3091 -0.0264
10727TIP3    H132103   1.872   5.522   0.339  1.1514  2.5893  1.6049
10727TIP3    H232104   1.880   5.416   0.448  0.5217  0.8715  0.0120
10728TIP3   OH232105   8.600   2.862   0.148 -0.2382  0.3328  0.4164
10728TIP3    H132106   8.504   2.865   0.141 -0.3191  0.4522  1.5242
10728TIP3    H232107   8.629   2.945   0.110 -0.4990 -0.1949 -0.9695
10729TIP3   OH232108   8.161   3.738   7.082  0.0583 -0.4965  0.1361
10729TIP3    H132109   8.250   3.729   7.116  0.2320 -0.0393 -0.1967
10729TIP3    H232110   8.169   3.799   7.009 -0.1011 -2.5191 -1.6032
10730TIP3   OH232111   3.715   7.191   6.966 -0.4800  0.0829 -0.2426
10730TIP3    H132112   3.662   7.250   7.019 -0.8975 -1.8328  1.5536
10730TIP3    H232113   3.661   7.112   6.957  0.7953 -0.7242 -1.0230
10731TIP3   OH232114   2.206   5.631   0.203  0.6218  0.1530 -0.5922
10731TIP3    H132115   2.196   5.599   0.293 -3.4672  0.1202 -0.9523
10731TIP3    H232116   2.213   5.726   0.213 -0.4390  0.2037 -0.2560
10732TIP3   OH232117   7.447   3.420   5.038 -0.3328 -0.8593  0.0766
10732TIP3    H132118   7.396   3.490   5.079  0.3156 -0.3161 -0.0339
10732TIP3    H232119   7.490   3.376   5.112 -1.2885 -1.5893  0.2075
10733TIP3   OH232120   5.700   1.529   5.818  0.6364 -0.0039 -0.0270
10733TIP3    H132121   5.612   1.501   5.841  0.8412 -0.6314 -0.0036
10733TIP3    H232122   5.702   1.622   5.840  0.4569 -0.3253  1.3695
10734TIP3   OH232123   8.781   4.311   0.043  0.4660  0.0281  0.5154
10734TIP3    H132124   8.825   4.286  -0.038 -1.2097  0.0043 -0.4194
10734TIP3    H232125   8.746   4.399   0.025 -0.1589 -0.0960  1.1000
10735TIP3   OH232126   0.304  -0.016   5.635  1.3126  0.0686  0.4670
10735TIP3    H132127   0.307   0.071   5.596  1.2889  1.0634  2.6045
10735TIP3    H232128   0.212  -0.027   5.663  1.1904 -0.8648 -0.2912
10736TIP3   OH232129   6.032   0.295   6.239 -0.0160 -0.0896 -0.0759
10736TIP3    H132130   6.046   0.218   6.185 -1.9261 -0.0973 -0.5861
10736TIP3    H232131   6.029   0.368   6.177 -0.8546  0.0701  0.1547
10737TIP3   OH232132   8.605   3.236   4.613  0.1035 -0.8272  0.1300
10737TIP3    H132133   8.621   3.172   4.681 -0.1548 -0.8534  0.1633
10737TIP3    H232134   8.619   3.188   4.531 -0.1296 -0.9333  0.1546
10738TIP3   OH232135   1.406   2.083   4.312  0.1350  0.1956 -0.4044
10738TIP3    H132136   1.439   2.172   4.317 -0.9137  0.6476 -1.4219
10738TIP3    H232137   1.413   2.059   4.220 -2.6593  0.4356 -0.7152
10739TIP3   OH232138   0.244   0.495   3.815 -0.4813 -0.1573  0.0040
10739TIP3    H132139   0.245   0.577   3.766  0.4581 -1.4052 -2.1201
10739TIP3    H232140   0.153   0.468   3.815 -0.5435  0.0447 -0.7314
10740TIP3   OH232141   0.096   0.810   5.690 -0.0336 -0.3623 -0.2865
10740TIP3    H132142   0.168   0.763   5.648 -0.0368 -0.5530 -0.0796
10740TIP3    H232143   0.017   0.775   5.649 -0.0549 -0.8060  0.1350
10741TIP3   OH232144   6.596   1.116   5.657  0.1490 -0.1206 -0.0312
10741TIP3    H132145   6.505   1.141   5.638 -1.4703 -3.3282  2.8748
10741TIP3    H232146   6.621   1.171   5.732  0.0660 -0.2751  0.1107
10742TIP3   OH232147   0.742   0.535   7.152  0.2314 -0.2990 -0.0177
10742TIP3    H132148   0.827   0.565   7.119  0.9995 -2.0127  0.3304
10742TIP3    H232149   0.681   0.605   7.129  1.3806  0.0969 -1.9798
10743TIP3   OH232150   8.297   0.449   7.133  0.2358  0.0009  0.4457
10743TIP3    H132151   8.266   0.469   7.222 -0.3557  2.2118 -0.2427
10743TIP3    H232152   8.392   0.438   7.143  0.4273  2.0107  1.0695
10744TIP3   OH232153   4.846   8.103   4.409 -0.6057 -0.1573  0.1379
10744TIP3    H132154   4.804   8.060   4.483 -0.6901 -0.1895  0.0709
10744TIP3    H232155   4.863   8.192   4.439 -1.6581  0.1602 -0.1907
10745TIP3   OH232156   7.531   0.665   4.997  0.2808  0.3104  0.2863
10745TIP3    H132157   7.602   0.726   4.976  0.8685 -0.3360  0.3906
10745TIP3    H232158   7.503   0.631   4.912 -0.5798  1.3210  0.1636
10746TIP3   OH232159   3.195   8.189   4.399 -0.1569 -0.0514 -0.2268
10746TIP3    H132160   3.289   8.206   4.395 -0.2676  1.4876  2.7312
10746TIP3    H232161   3.155   8.266   4.360 -0.2462 -0.1915 -0.4139
10747TIP3   OH232162   6.929   0.584   6.301 -0.6508  0.5592  0.4079
10747TIP3    H132163   6.854   0.529   6.325  1.4229 -1.6419  2.0180
10747TIP3    H232164   6.960   0.621   6.384  0.3151  1.1395 -0.1969
10748TIP3   OH232165   4.891   3.871   6.254  0.1246  0.0259  0.5452
10748TIP3    H132166   4.847   3.811   6.194  1.3114  0.7139 -1.0164
10748TIP3    H232167   4.969   3.824   6.283  1.3542  0.9757 -1.1095
10749TIP3   OH232168   8.826   2.273   6.360 -0.6788  0.2506 -0.1952
10749TIP3    H132169   8.817   2.251   6.453 -1.1675  0.9484 -0.0726
10749TIP3    H232170   8.853   2.192   6.318 -1.7623 -0.3937  0.3487
10750TIP3   OH232171   1.684   4.122   0.920 -0.6143  0.5354 -0.3033
10750TIP3    H132172   1.625   4.171   0.978 -0.4801  1.6311 -1.0701
10750TIP3    H232173   1.626   4.084   0.854 -0.5752  0.7273 -0.4471
10751TIP3   OH232174   5.774   8.002   4.125 -0.3030  0.0331 -0.0566
10751TIP3    H132175   5.848   7.960   4.082 -0.0743 -1.1196  1.3854
10751TIP3    H232176   5.703   7.937   4.119 -0.1156 -0.3687  1.6888
10752TIP3   OH232177   3.702   8.055   5.395  0.7935 -0.0270  0.1690
10752TIP3    H132178   3.645   7.978   5.393 -0.5287  0.9527 -1.0754
10752TIP3    H232179   3.747   8.054   5.310  1.2517  0.2201  0.4093
10753TIP3   OH232180   7.304   0.148   6.461 -0.2377  0.1795  0.2597
10753TIP3    H132181   7.265   0.174   6.378  1.8012  0.6954 -0.5512
10753TIP3    H232182   7.289   0.053   6.466 -2.3412  0.4884  0.3958
10754TIP3   OH232183   8.004   3.306   5.032  0.5298 -0.5159 -0.7123
10754TIP3    H132184   8.097   3.313   5.011  0.5323  2.1053 -0.0287
10754TIP3    H232185   7.959   3.339   4.954  0.2635  0.3969 -0.1836
10755TIP3   OH232186   7.337   7.638   6.235  0.2559  0.3680 -0.2470
10755TIP3    H132187   7.337   7.659   6.142  0.3212  1.1355 -0.0734
10755TIP3    H232188   7.319   7.544   6.239 -0.3083  0.4520 -1.0000
10756TIP3   OH232189   8.284   2.811   4.431  0.3528  0.0486 -0.1929
10756TIP3    H132190   8.251   2.722   4.418 -0.4280  0.1633  0.9177
10756TIP3    H232191   8.371   2.811   4.391 -0.2554 -0.7809 -1.5618
10757TIP3   OH232192   8.051   0.977   5.979  0.1449  0.4664  0.1089
10757TIP3    H132193   8.071   0.916   6.050  0.9242  0.5908  0.0008
10757TIP3    H232194   8.101   0.944   5.905 -0.1463  0.7190 -0.2023
10758TIP3   OH232195   8.529   5.153   0.414 -0.8387  0.0297 -0.6003
10758TIP3    H132196   8.462   5.089   0.388  0.6948 -1.7067 -0.4061
10758TIP3    H232197   8.597   5.100   0.457  0.3000  1.8486 -0.1191
10759TIP3   OH232198   7.636   2.053   5.211  0.2454  0.2640 -0.0225
10759TIP3    H132199   7.618   2.097   5.128 -0.8676 -1.7114 -0.8566
10759TIP3    H232200   7.698   1.984   5.189 -0.8332 -0.9252  0.5798
10760TIP3   OH232201   7.077   3.369   5.177 -0.2029 -0.4362  0.0983
10760TIP3    H132202   7.104   3.346   5.266 -0.0439  0.0682  0.1850
10760TIP3    H232203   7.113   3.299   5.122 -1.1458 -1.2804  0.5391
10761TIP3   OH232204   7.077   2.532   6.035  0.2438 -0.6315  0.2350
10761TIP3    H132205   7.028   2.515   6.116  0.2787 -1.9053  0.0085
10761TIP3    H232206   7.167   2.506   6.055  0.2646 -0.9001 -0.1871
10762TIP3   OH232207   7.974   0.560   6.412 -0.5264  0.0591  0.6070
10762TIP3    H132208   8.054   0.514   6.388 -0.0745  2.3736 -2.7281
10762TIP3    H232209   7.906   0.493   6.411  0.8434 -1.3508  0.2760
10763TIP3   OH232210   1.229   0.135   2.640  0.1033 -0.4523 -0.3408
10763TIP3    H132211   1.212   0.222   2.677  0.1216 -1.1270  1.2850
10763TIP3    H232212   1.170   0.130   2.565 -1.3126  0.2238  0.7012
10764TIP3   OH232213   5.699   7.604   6.575  0.2454  0.6062 -0.3016
10764TIP3    H132214   5.761   7.677   6.587  0.0559  0.6910  0.1785
10764TIP3    H232215   5.752   7.534   6.538  0.5928  0.7358 -0.0534
10765TIP3   OH232216   1.974   4.154   0.595  0.1939 -0.2352  0.1764
10765TIP3    H132217   1.985   4.208   0.517  0.0977  0.9323  0.9514
10765TIP3    H232218   1.984   4.064   0.564  0.1676  0.2159 -1.1705
10766TIP3   OH232219   6.990   4.123   5.590 -0.1502 -0.1133  0.0928
10766TIP3    H132220   7.075   4.112   5.632  0.6186  0.3128 -1.3186
10766TIP3    H232221   6.980   4.218   5.581 -0.2403 -0.2090 -0.8107
10767TIP3   OH232222   2.144   5.569   0.500  0.4497  0.0127 -0.0217
10767TIP3    H132223   2.060   5.614   0.509  0.1913 -0.8244  1.8440
10767TIP3    H232224   2.207   5.627   0.542  0.3461 -0.6853  1.1066
10768TIP3   OH232225   3.147   7.207   4.670 -0.2219 -0.2270  0.6333
10768TIP3    H132226   3.083   7.265   4.712 -0.1527 -0.6666  1.3496
10768TIP3    H232227   3.097   7.162   4.602 -0.7628 -0.8202  1.4107
10769TIP3   OH232228   8.651   1.330   5.234 -0.5222  0.3991 -0.1541
10769TIP3    H132229   8.662   1.338   5.139  0.3894  0.1881 -0.0729
10769TIP3    H232230   8.556   1.326   5.247 -0.6207 -2.9086 -1.3664
10770TIP3   OH232231   8.265   1.253   6.922  0.4278 -0.5621 -0.5370
10770TIP3    H132232   8.194   1.197   6.954 -0.2953 -0.3865 -1.8172
10770TIP3    H232233   8.222   1.335   6.897  0.9894 -0.6475 -1.8361
10771TIP3   OH232234   7.818   0.170   4.817 -0.9231  0.0554  0.2785
10771TIP3    H132235   7.839   0.253   4.774  0.4412 -0.2488  0.3111
10771TIP3    H232236   7.763   0.123   4.755 -0.4220  0.3541 -0.3999
10772TIP3   OH232237   1.466   5.611   1.730  0.0488  0.2296  0.4047
10772TIP3    H132238   1.484   5.517   1.738  0.9356  0.4583  1.1565
10772TIP3    H232239   1.477   5.646   1.818 -0.6098  0.9887  0.1937
10773TIP3   OH232240   1.778   5.192   0.016 -0.2615  0.1263  0.2329
10773TIP3    H132241   1.721   5.147  -0.046 -0.3604 -0.9917  1.1069
10773TIP3    H232242   1.760   5.149   0.100 -1.2062  2.5568  1.3333
10774TIP3   OH232243   0.616   2.614   0.901  0.5317  0.1578  0.1896
10774TIP3    H132244   0.691   2.635   0.845  0.2417 -1.6008 -0.8919
10774TIP3    H232245   0.540   2.622   0.844  0.1888 -1.2184  0.4337
10775TIP3   OH232246   6.843   1.216   6.052 -0.5378 -0.4956 -0.0824
10775TIP3    H132247   6.896   1.268   6.113  0.2223 -1.6925  0.2836
10775TIP3    H232248   6.901   1.201   5.977 -0.2191 -2.1526  0.4935
10776TIP3   OH232249   7.706   0.167   5.926 -0.0669 -0.1050 -0.1845
10776TIP3    H132250   7.717   0.144   5.833 -0.3493 -1.0276  0.0050
10776TIP3    H232251   7.670   0.255   5.924  1.1548  0.3975 -0.9268
10777TIP3   OH232252   0.518   4.490   1.685  0.1532 -0.7984  0.3304
10777TIP3    H132253   0.603   4.518   1.651 -0.3687 -0.0353 -0.3501
10777TIP3    H232254   0.504   4.546   1.762  0.1339 -0.7161  0.2677
10778TIP3   OH232255   5.397   0.778   6.406  0.3450 -0.1453 -0.1959
10778TIP3    H132256   5.396   0.773   6.311  2.0314  0.8727 -0.2910
10778TIP3    H232257   5.353   0.861   6.426  1.2382  0.3311 -0.1703
10779TIP3   OH232258   4.768   7.610   6.433 -0.6735  0.7799  0.3748
10779TIP3    H132259   4.686   7.568   6.406 -0.0259 -0.3439  0.1095
10779TIP3    H232260   4.780   7.583   6.524 -0.1372  0.1906  0.1331
10780TIP3   OH232261   2.551   5.939   0.148  0.1323 -0.6540  0.0500
10780TIP3    H132262   2.581   5.983   0.227 -1.3352 -0.0249  0.2889
10780TIP3    H232263   2.547   5.847   0.171  1.4265 -0.6926  0.1409
10781TIP3   OH232264   5.927   0.901   6.425  0.3213  0.1927 -0.0156
10781TIP3    H132265   5.845   0.887   6.473  0.8754  1.0869  1.2168
10781TIP3    H232266   5.901   0.899   6.333 -1.0301  0.1045  0.3481
10782TIP3   OH232267   6.519   3.477   6.297 -0.1233 -0.4247 -0.1300
10782TIP3    H132268   6.519   3.460   6.203  1.3280  0.9637 -0.4136
10782TIP3    H232269   6.544   3.394   6.336 -1.7544 -1.3041 -0.8851
10783TIP3   OH232270   7.084   8.282   5.316  0.4633  0.5709 -0.0075
10783TIP3    H132271   7.169   8.319   5.338 -0.4575  1.8978  1.3388
10783TIP3    H232272   7.087   8.192   5.349  2.3792 -0.3699 -2.5322
10784TIP3   OH232273   0.305   0.228   5.558 -0.3588 -0.2937  0.0183
10784TIP3    H132274   0.270   0.309   5.521  0.3527  0.4240  0.8544
10784TIP3    H232275   0.336   0.254   5.645 -0.7623 -1.6314  0.5661
10785TIP3   OH232276   8.205   1.017   4.859  0.5389 -0.2186 -0.6684
10785TIP3    H132277   8.169   0.977   4.780 -0.1922 -1.3722  0.2338
10785TIP3    H232278   8.299   1.021   4.844  0.2977  0.4999 -2.0164
10786TIP3   OH232279   4.526   6.832   4.256 -0.6427 -0.2613 -0.7516
10786TIP3    H132280   4.534   6.887   4.335  0.6123 -1.7443  0.1824
10786TIP3    H232281   4.459   6.768   4.278 -2.1605  0.9085 -1.8707
10787TIP3   OH232282   6.018   0.214   0.197 -0.5116  0.3977  0.8798
10787TIP3    H132283   5.994   0.214   0.104  0.1438  0.5215  0.7106
10787TIP3    H232284   6.086   0.280   0.204 -2.1136  1.9907  1.8601
10788TIP3   OH232285   6.048   5.018   5.040  0.0166  0.3182 -0.4508
10788TIP3    H132286   5.975   5.069   5.004 -0.7180 -1.2253 -1.1696
10788TIP3    H232287   6.103   4.996   4.965  1.2306  1.4490  0.0846
10789TIP3   OH232288   6.470   0.629   5.855 -0.5347 -0.1550  0.1805
10789TIP3    H132289   6.486   0.680   5.935 -0.8870  0.5181 -0.1744
10789TIP3    H232290   6.414   0.558   5.883  1.4705 -1.4466  1.0662
10790TIP3   OH232291   7.845   0.364   4.605  0.2671 -0.1808 -0.4113
10790TIP3    H132292   7.794   0.442   4.582 -1.0481 -0.7734  0.4257
10790TIP3    H232293   7.936   0.391   4.593 -0.1643  1.4617 -0.2203
10791TIP3   OH232294   7.590   1.355   5.099 -0.8756  0.3331 -0.4426
10791TIP3    H132295   7.593   1.289   5.029  1.1057 -2.3556  2.0652
10791TIP3    H232296   7.518   1.328   5.155  0.4834 -0.2787  1.0671
10792TIP3   OH232297   1.749   6.944   0.463 -0.2349  0.4770 -0.0443
10792TIP3    H132298   1.703   6.979   0.539  0.4704  0.3880  0.4291
10792TIP3    H232299   1.745   7.014   0.398 -1.2547  0.3768 -0.1068
10793TIP3   OH232300   7.715   2.356   5.748  0.3339 -0.6238  0.1991
10793TIP3    H132301   7.739   2.347   5.656 -1.4961  1.2738 -0.5157
10793TIP3    H232302   7.778   2.418   5.784 -0.2474  0.2835 -0.3310
10794TIP3   OH232303   8.247   7.653   4.612 -0.1596 -0.2941  0.2257
10794TIP3    H132304   8.256   7.569   4.659  1.1532  0.0427  0.6025
10794TIP3    H232305   8.177   7.637   4.548  0.7533 -2.0066 -0.3992
10795TIP3   OH232306   5.976   8.171   4.541 -0.0577 -0.5589  0.7883
10795TIP3    H132307   5.943   8.107   4.478  0.8946 -0.3159  0.0261
10795TIP3    H232308   6.007   8.244   4.488 -1.0945  0.5234  1.6490
10796TIP3   OH232309   0.671   1.149   4.796  0.5632 -0.2242  0.7141
10796TIP3    H132310   0.762   1.118   4.795  0.5958 -0.2090  2.6503
10796TIP3    H232311   0.618   1.070   4.792  0.6543 -0.2636  0.2381
10797TIP3   OH232312   0.612   0.501   4.826 -0.1184  0.7182 -0.2684
10797TIP3    H132313   0.598   0.417   4.870  0.5995 -0.1126 -1.5720
10797TIP3    H232314   0.527   0.524   4.790  0.1521 -0.6096 -1.8408
10798TIP3   OH232315   6.854   1.582   4.486 -0.3834 -0.2169  0.5699
10798TIP3    H132316   6.776   1.569   4.539 -0.7659 -1.5604 -0.2960
10798TIP3    H232317   6.840   1.665   4.441 -1.2797 -0.4232  0.4709
10799TIP3   OH232318   3.859   7.488   5.222 -0.4544  0.1719 -0.8908
10799TIP3    H132319   3.846   7.442   5.139 -0.7653 -0.0014 -0.7485
10799TIP3    H232320   3.781   7.543   5.232  0.1791  1.1674 -1.3360
10800TIP3   OH232321   8.891   5.168   0.508  0.2256 -0.3155  0.2892
10800TIP3    H132322   8.920   5.254   0.538  1.1560 -1.2689  2.2104
10800TIP3    H232323   8.827   5.140   0.572  1.0445 -1.7009  0.5396
10801TIP3   OH232324   6.732   2.050   4.833  0.3684  0.2710 -0.1374
10801TIP3    H132325   6.757   1.970   4.786 -0.7986 -0.2350  0.0727
10801TIP3    H232326   6.669   2.020   4.898 -1.9465  1.6661 -1.6579
10802TIP3   OH232327   6.339   1.111   5.169  0.3778 -0.1627 -0.2003
10802TIP3    H132328   6.397   1.072   5.235 -1.1008 -1.2701  0.4459
10802TIP3    H232329   6.386   1.098   5.087  1.2112 -0.7504  0.3494
10803TIP3   OH232330   1.297   3.665   0.311  0.3820  0.3088 -0.0352
10803TIP3    H132331   1.220   3.644   0.258  2.2730 -3.7562 -1.3838
10803TIP3    H232332   1.363   3.693   0.248  1.2970 -0.2577  0.6630
10804TIP3   OH232333   3.820   8.129   5.818  0.2888 -0.8622  0.1664
10804TIP3    H132334   3.793   8.190   5.749  0.7049  0.0809  0.8289
10804TIP3    H232335   3.806   8.042   5.780 -0.7755 -0.3633 -0.6118
10805TIP3   OH232336   1.256   5.289   0.644 -0.1913 -0.1368  0.3640
10805TIP3    H132337   1.314   5.310   0.717 -0.2468  0.3259  0.2800
10805TIP3    H232338   1.297   5.214   0.601  0.8681  0.7906 -0.2743
10806TIP3   OH232339   7.764   1.601   4.277 -0.1664 -0.0404  0.2981
10806TIP3    H132340   7.793   1.541   4.346  0.7430 -2.2829 -1.9651
10806TIP3    H232341   7.675   1.625   4.303  1.0682  1.2530  3.5978
10807TIP3   OH232342   7.129   0.709   4.575 -0.1105  0.7999  0.0589
10807TIP3    H132343   7.180   0.784   4.606  0.7865  0.9444 -1.6706
10807TIP3    H232344   7.061   0.748   4.519 -1.3610  0.5160  1.3705
10808TIP3   OH232345   4.985   1.958   5.224  0.5361  0.2231  0.2285
10808TIP3    H132346   4.943   1.986   5.142  0.3951  0.0811  0.2518
10808TIP3    H232347   4.912   1.942   5.283  0.6947  2.7078  1.1615
10809TIP3   OH232348   4.134   7.909   3.798  0.5701  0.4463  0.4895
10809TIP3    H132349   4.178   7.908   3.883  1.8204 -0.5761 -0.1326
10809TIP3    H232350   4.073   7.836   3.801  0.3171  0.6662  0.6601
10810TIP3   OH232351   0.611   0.669   5.401 -0.4585  0.0474 -0.1841
10810TIP3    H132352   0.625   0.760   5.373  1.2038  0.0377  0.5580
10810TIP3    H232353   0.525   0.646   5.364 -0.3250  1.4857 -1.4651
10811TIP3   OH232354   7.356   0.961   6.866  0.4023 -0.5275 -0.3869
10811TIP3    H132355   7.365   1.044   6.914  1.4000 -1.6349  1.4023
10811TIP3    H232356   7.287   0.978   6.802  3.3302  2.9291 -2.8144
10812TIP3   OH232357   6.476   1.415   6.121  0.6570  0.0386 -0.0704
10812TIP3    H132358   6.415   1.348   6.152 -1.2462  1.5664 -0.4131
10812TIP3    H232359   6.462   1.417   6.026 -0.4170  1.9689  0.1149
10813TIP3   OH232360   8.374   1.377   6.207  0.3427  0.5580  0.2673
10813TIP3    H132361   8.350   1.303   6.151 -0.0395  1.3004 -0.5589
10813TIP3    H232362   8.454   1.348   6.252 -0.9574 -1.1598  1.5300
10814TIP3   OH232363   2.664   5.319   1.258  0.6700  0.0125 -0.1369
10814TIP3    H132364   2.578   5.277   1.254  1.3683 -1.3632 -1.0567
10814TIP3    H232365   2.662   5.384   1.188  0.3714 -0.0180 -0.1574
10815TIP3   OH232366   1.828   5.393   0.712 -0.3329  0.2491  0.2124
10815TIP3    H132367   1.752   5.448   0.730  0.4937  0.8549  1.9255
10815TIP3    H232368   1.902   5.442   0.747  0.7260 -0.8313 -0.4717
10816TIP3   OH232369   0.295   5.276   0.322  0.3994  0.7002  0.2426
10816TIP3    H132370   0.232   5.322   0.377 -0.0170  1.8218 -1.1285
10816TIP3    H232371   0.295   5.326   0.240 -0.1403 -1.8010 -1.3240
10817TIP3   OH232372   7.223   2.292   3.608  0.1202 -0.5705  0.0335
10817TIP3    H132373   7.170   2.297   3.688  1.3713  0.8218  0.8037
10817TIP3    H232374   7.277   2.214   3.620  0.2554 -0.4063  0.5325
10818TIP3   OH232375   6.036   0.519   4.791  0.0629 -0.1054 -0.0295
10818TIP3    H132376   6.080   0.589   4.839 -1.2351 -0.5810  1.9209
10818TIP3    H232377   6.067   0.528   4.701  1.7277  1.4862  0.6762
10819TIP3   OH232378   0.317   2.111   4.892  0.7891  0.2623 -0.2454
10819TIP3    H132379   0.309   2.015   4.885 -0.3792  0.4654 -1.7966
10819TIP3    H232380   0.237   2.138   4.936  0.8770  0.5999 -0.2929
10820TIP3   OH232381   8.439   2.877   0.504 -0.3095  0.0868  0.1851
10820TIP3    H132382   8.503   2.924   0.451  0.2318  0.4767  1.1695
10820TIP3    H232383   8.422   2.796   0.455 -0.5253  0.8637 -1.0355
10821TIP3   OH232384   1.377   6.102   0.490  0.5176 -0.3099 -0.4897
10821TIP3    H132385   1.393   6.066   0.577  1.8499  0.6252 -0.3398
10821TIP3    H232386   1.417   6.189   0.491 -0.2182  0.0622 -1.7520
10822TIP3   OH232387   2.720   7.467   0.491 -0.2999  0.0733 -0.0731
10822TIP3    H132388   2.724   7.412   0.570 -0.8856 -0.1027 -0.1563
10822TIP3    H232389   2.747   7.409   0.420  2.1835  0.8023  0.2607
10823TIP3   OH232390   8.651   1.463   6.825  0.1111  0.3317  0.4503
10823TIP3    H132391   8.607   1.382   6.850 -0.7204  0.3460 -0.9013
10823TIP3    H232392   8.709   1.437   6.753 -0.7757  1.0733 -0.5502
10824TIP3   OH232393   8.377   3.095   5.625  0.1941 -0.4454  0.3496
10824TIP3    H132394   8.365   3.092   5.720 -1.2357  0.0745  0.2079
10824TIP3    H232395   8.466   3.128   5.613  0.3948 -0.5374  1.5074
10825TIP3   OH232396   7.838   3.375   4.483  0.5688 -0.3384 -0.1923
10825TIP3    H132397   7.872   3.429   4.412  1.1104  0.0038  0.3173
10825TIP3    H232398   7.775   3.432   4.528  0.4395 -0.4564 -0.2229
10826TIP3   OH232399   5.273   3.096   6.052 -0.0928  0.6994  0.2881
10826TIP3    H132400   5.285   3.028   5.986  1.0605 -0.0111  1.2164
10826TIP3    H232401   5.339   3.077   6.118 -1.9462  0.7409  2.1888
10827TIP3   OH232402   7.146   0.490   5.008  0.1717 -0.4850 -0.6952
10827TIP3    H132403   7.130   0.566   5.065 -0.5592 -0.9230 -0.3054
10827TIP3    H232404   7.166   0.528   4.923 -2.1272  0.1185 -0.9971
10828TIP3   OH232405   4.554   7.710   4.462 -0.0167  0.1675 -0.1270
10828TIP3    H132406   4.527   7.733   4.551  0.0677 -1.2664  0.2768
10828TIP3    H232407   4.474   7.679   4.420  0.3238 -1.0276  0.0759
10829TIP3   OH232408   8.499   2.679   6.716  0.3153  0.0600 -0.5764
10829TIP3    H132409   8.414   2.638   6.697 -0.8597  2.6274 -1.2044
10829TIP3    H232410   8.510   2.669   6.810 -0.0644 -1.4143 -0.6778
10830TIP3   OH232411   8.105   0.834   6.912  0.2474 -0.2248 -0.2575
10830TIP3    H132412   8.124   0.901   6.846 -0.5872 -0.0273 -0.2936
10830TIP3    H232413   8.076   0.758   6.862 -0.6608  0.0183 -0.0986
10831TIP3   OH232414   1.086   4.524   0.616 -0.6471 -0.1897  0.2834
10831TIP3    H132415   1.141   4.571   0.555 -0.3581  0.0644  0.7365
10831TIP3    H232416   1.095   4.432   0.592  2.5292 -0.4916  2.3773
10832TIP3   OH232417   1.447   4.375   0.116 -0.4700 -0.4767  0.3610
10832TIP3    H132418   1.406   4.457   0.091  0.3971  0.4153  1.8401
10832TIP3    H232419   1.538   4.384   0.086 -0.1602 -0.5596  1.2789
10833TIP3   OH232420   3.170   8.186   7.094  0.5918  0.3630 -0.3007
10833TIP3    H132421   3.243   8.191   7.033  0.6846 -0.6355 -0.2800
10833TIP3    H232422   3.130   8.100   7.077  0.0203  0.4931  0.3571
10834TIP3   OH232423   7.073   2.789   3.445 -0.0661  0.2593 -0.5052
10834TIP3    H132424   7.062   2.694   3.448 -0.7403  0.3953  1.9692
10834TIP3    H232425   6.990   2.825   3.475  0.2921  1.6489 -1.1113
10835TIP3   OH232426   8.802   2.459   6.861 -0.2322 -0.1901 -0.2940
10835TIP3    H132427   8.737   2.389   6.856  1.0366 -1.4628  0.5445
10835TIP3    H232428   8.754   2.535   6.892 -1.7453 -0.5392 -1.7260
10836TIP3   OH232429   1.261   1.814   4.881 -0.5871 -0.1592  0.8101
10836TIP3    H132430   1.325   1.748   4.908 -1.6937 -1.0116  1.3602
10836TIP3    H232431   1.215   1.838   4.962 -1.3112  0.0821  0.3340
10837TIP3   OH232432   8.277   7.602   0.458 -0.1164 -0.2145 -0.7378
10837TIP3    H132433   8.217   7.556   0.399 -0.9926  0.3916 -0.3291
10837TIP3    H232434   8.292   7.687   0.416 -0.2162 -0.0364 -0.4149
10838TIP3   OH232435   8.579   0.353   6.481  0.0802  0.5440  0.1855
10838TIP3    H132436   8.539   0.434   6.514  0.4660  0.8406 -0.0632
10838TIP3    H232437   8.582   0.365   6.386 -0.9508 -0.2731  0.0413
10839TIP3   OH232438   3.260   8.046   5.408 -0.5536  0.2230  0.6008
10839TIP3    H132439   3.307   8.063   5.490 -1.0262  0.0039  0.9129
10839TIP3    H232440   3.290   7.958   5.382 -0.3371  0.3281  0.4948
10840TIP3   OH232441   4.230   7.936   5.674  0.2075 -0.4982 -0.3626
10840TIP3    H132442   4.173   7.868   5.639 -0.1575  0.4975 -1.7483
10840TIP3    H232443   4.210   7.940   5.767  0.9821 -3.0010 -0.0486
10841TIP3   OH232444   6.569   1.283   6.965  0.1354  0.2178  0.1930
10841TIP3    H132445   6.520   1.220   7.017 -0.1427 -0.5414 -0.9783
10841TIP3    H232446   6.660   1.251   6.969 -0.1178 -0.6736 -0.9926
10842TIP3   OH232447   5.120   4.918   6.204 -0.3570  0.2429 -0.7717
10842TIP3    H132448   5.104   4.825   6.185 -1.0439  0.1800  0.0951
10842TIP3    H232449   5.034   4.959   6.196 -0.5530  0.3313  1.5184
10843TIP3   OH232450   3.629   8.280   6.219 -0.2892 -0.5724  0.1911
10843TIP3    H132451   3.688   8.206   6.231  1.9138  1.1135  0.0641
10843TIP3    H232452   3.613   8.312   6.308  0.4257  0.0427  0.1060
10844TIP3   OH232453   5.721   0.209   6.096  0.0840 -0.1781  0.0866
10844TIP3    H132454   5.748   0.298   6.073  1.6344 -0.3893  1.0320
10844TIP3    H232455   5.707   0.212   6.191  0.6794 -1.0796  0.2042
10845TIP3   OH232456   8.000   1.271   7.204  0.2603 -0.2574 -0.2942
10845TIP3    H132457   7.977   1.197   7.148  0.5016  0.7795 -1.7957
10845TIP3    H232458   7.939   1.340   7.179  1.5698  0.8056 -0.5954
10846TIP3   OH232459   8.133   2.271   4.965 -0.1680  0.5808 -0.4261
10846TIP3    H132460   8.108   2.337   4.901  0.2626  1.2741  0.1093
10846TIP3    H232461   8.217   2.302   5.000 -1.1285  1.0209  1.5586
10847TIP3   OH232462   0.115   1.349   5.678  0.1896 -0.3425  0.0257
10847TIP3    H132463   0.080   1.304   5.755 -0.6818  0.0798 -0.1266
10847TIP3    H232464   0.210   1.338   5.686  0.0889 -0.5662  0.9926
10848TIP3   OH232465   6.467   7.535   7.266 -0.3113 -0.0783  0.4125
10848TIP3    H132466   6.553   7.557   7.230 -0.0881 -1.4338  0.1109
10848TIP3    H232467   6.449   7.447   7.234 -1.4774 -0.0977  1.1025
10849TIP3   OH232468   5.378   7.878   4.399 -0.3331  0.1631 -0.3838
10849TIP3    H132469   5.383   7.846   4.489 -0.6465  0.9685 -0.0786
10849TIP3    H232470   5.287   7.865   4.373 -0.0782 -0.7437 -0.8391
10850TIP3   OH232471   3.648   8.244   5.605 -0.4610 -0.3800  0.0045
10850TIP3    H132472   3.694   8.317   5.564 -0.7298  0.1062  0.5636
10850TIP3    H232473   3.650   8.175   5.539 -1.1288  0.4891 -0.9590
10851TIP3   OH232474   1.152   2.484   5.463 -0.3876 -1.2386 -0.3065
10851TIP3    H132475   1.177   2.503   5.554 -1.3478  2.2676 -0.7345
10851TIP3    H232476   1.235   2.461   5.420  0.4429 -0.4225  0.8433
10852TIP3   OH232477   8.325   3.836   5.248  0.4848  0.5171 -0.3955
10852TIP3    H132478   8.389   3.827   5.177  2.8518 -0.7959  1.7981
10852TIP3    H232479   8.376   3.869   5.322 -1.5673  0.2497  1.1897
10853TIP3   OH232480   7.498   7.593   4.773  0.3856 -0.3378  0.2914
10853TIP3    H132481   7.504   7.511   4.725  1.3088 -0.0722 -0.0562
10853TIP3    H232482   7.491   7.660   4.705  1.1482 -0.0050  0.5407
10854TIP3   OH232483   0.513   0.698   5.705  0.2491 -0.7154  0.5851
10854TIP3    H132484   0.483   0.788   5.707  2.3222 -0.0279  2.2329
10854TIP3    H232485   0.526   0.679   5.612  0.6919  1.0058  0.2733
10855TIP3   OH232486   6.827   1.569   5.165 -0.2101 -0.2292 -0.1205
10855TIP3    H132487   6.883   1.597   5.237 -0.7095 -1.0580  0.6006
10855TIP3    H232488   6.845   1.475   5.156 -1.3678 -0.4709  0.0257
10856TIP3   OH232489   0.033   4.623   1.172  0.3333 -0.4983 -0.3401
10856TIP3    H132490  -0.013   4.647   1.091 -0.1377 -0.7230 -0.1385
10856TIP3    H232491   0.093   4.553   1.145 -3.5958 -4.3892  0.5049
10857TIP3   OH232492   8.689   3.075   6.355  0.5488 -0.1728  0.8828
10857TIP3    H132493   8.678   3.025   6.436 -2.5614 -0.7761  0.1443
10857TIP3    H232494   8.700   3.008   6.287 -0.3783  0.2287  0.3310
10858TIP3   OH232495   3.095   4.628   0.105 -0.1654 -0.2082 -0.3507
10858TIP3    H132496   3.187   4.617   0.132  0.6348  0.2184 -2.7798
10858TIP3    H232497   3.063   4.538   0.094  0.5839 -0.3433 -1.4886
10859TIP3   OH232498   0.142   1.955   5.298 -0.3525  0.0045  0.3719
10859TIP3    H132499   0.095   1.904   5.232 -1.4980  2.0712 -0.4605
10859TIP3    H232500   0.094   1.939   5.379 -1.2590  0.4723 -0.0660
10860TIP3   OH232501   0.074   0.978   6.907 -0.0394  0.3745  0.3922
10860TIP3    H132502   0.042   0.888   6.904  0.4150  0.2284 -0.0702
10860TIP3    H232503   0.053   1.014   6.820 -1.8864  1.2928  1.1768
10861TIP3   OH232504   1.825   4.236   2.918 -0.0935  0.1721  0.0494
10861TIP3    H132505   1.860   4.268   3.001 -1.0425  1.0575  0.1195
10861TIP3    H232506   1.856   4.298   2.852  1.5092 -1.0973 -0.4227
10862TIP3   OH232507   0.671   4.465   0.430  0.6000  0.3350  0.3088
10862TIP3    H132508   0.717   4.487   0.511  2.0975 -1.2009 -0.0844
10862TIP3    H232509   0.738   4.425   0.374 -0.8592 -0.5230 -0.8870
10863TIP3   OH232510   8.661   1.275   4.896  0.7655 -0.2420  0.0449
10863TIP3    H132511   8.755   1.269   4.912  0.2985  0.5891  3.4085
10863TIP3    H232512   8.639   1.367   4.910 -0.9922 -0.9357  2.2531
10864TIP3   OH232513   7.929   8.349   0.596 -0.4577  0.1860  0.6095
10864TIP3    H132514   8.021   8.355   0.571 -0.2826  2.3848  1.6701
10864TIP3    H232515   7.881   8.373   0.518 -0.1167 -0.3794  0.2229
10865TIP3   OH232516   6.703   3.484   6.642  0.7248  0.2321 -0.2177
10865TIP3    H132517   6.685   3.463   6.734  0.2062  1.5218 -0.0108
10865TIP3    H232518   6.619   3.515   6.608  0.1343 -2.9987 -1.9679
10866TIP3   OH232519   0.804   1.816   6.060  0.5668  0.1388 -0.0667
10866TIP3    H132520   0.710   1.800   6.071  0.6967 -0.6271 -0.0264
10866TIP3    H232521   0.832   1.853   6.143 -0.2083  2.8824 -0.9768
10867TIP3   OH232522   5.996   4.464   6.945  0.2576 -0.0318 -0.1858
10867TIP3    H132523   6.020   4.555   6.959  0.8427  0.0550 -1.6615
10867TIP3    H232524   6.079   4.419   6.933 -0.1061 -0.3941 -1.4851
10868TIP3   OH232525   8.569   3.877   6.568 -0.0267 -0.0661  0.4103
10868TIP3    H132526   8.561   3.810   6.500  2.0300  0.7469 -0.6865
10868TIP3    H232527   8.623   3.837   6.636  0.3477  0.1225  0.2248
10869TIP3   OH232528   7.215   1.892   5.450 -0.1204 -0.5832  0.6533
10869TIP3    H132529   7.211   1.811   5.502  1.3802  0.4104  2.3879
10869TIP3    H232530   7.308   1.903   5.429 -0.3683  0.4514  0.0604
10870TIP3   OH232531   4.264   8.275   6.423  0.1614  0.1266 -0.2885
10870TIP3    H132532   4.324   8.207   6.454  0.1746 -0.3327 -1.2953
10870TIP3    H232533   4.199   8.228   6.370  0.2186  0.8945 -1.0604
10871TIP3   OH232534   5.287   1.023   6.398  0.6660  0.1506 -0.1370
10871TIP3    H132535   5.297   1.109   6.440 -0.7051 -0.1767  0.9081
10871TIP3    H232536   5.314   1.037   6.308  0.9706  1.5535  0.1588
10872TIP3   OH232537   8.486   1.430   3.355  0.2892  0.1243 -0.0398
10872TIP3    H132538   8.441   1.515   3.353  0.6319  0.2894 -1.5025
10872TIP3    H232539   8.542   1.435   3.433 -1.6947  0.1664  1.4133
10873TIP3   OH232540   6.419   1.068   3.484 -0.3119 -0.4933 -0.1474
10873TIP3    H132541   6.511   1.044   3.491  0.0570  0.2765 -1.9436
10873TIP3    H232542   6.391   1.030   3.401 -1.0011  1.1520 -0.6916
10874TIP3   OH232543   7.326   1.300   6.686  0.2465 -0.3512 -0.4195
10874TIP3    H132544   7.311   1.223   6.632  1.5569 -0.9094 -0.0102
10874TIP3    H232545   7.352   1.265   6.771 -0.4534  0.5303  0.1607
10875TIP3   OH232546   1.418   6.168  -0.000  0.6521  0.0010  0.6454
10875TIP3    H132547   1.357   6.241  -0.013  0.9311  0.0339 -0.5836
10875TIP3    H232548   1.395   6.132   0.085 -1.1246  0.0065  0.1873
10876TIP3   OH232549   5.484   2.381   6.798 -0.1907 -0.2223 -0.0717
10876TIP3    H132550   5.482   2.361   6.705  1.3893  1.7548 -0.5686
10876TIP3    H232551   5.574   2.361   6.825  0.8359  3.9549 -0.1338
10877TIP3   OH232552   0.506   1.920   4.359  0.5435  0.5477  0.2018
10877TIP3    H132553   0.572   1.953   4.420  2.4882 -0.0828 -1.5190
10877TIP3    H232554   0.537   1.947   4.273 -0.9135 -0.6420 -0.7209
10878TIP3   OH232555   7.812   0.899   4.633  0.3866 -0.1145  0.2673
10878TIP3    H132556   7.895   0.855   4.618  1.1805  0.5264  2.5165
10878TIP3    H232557   7.836   0.984   4.670 -1.2543  0.0623  0.9731
10879TIP3   OH232558   6.101   3.878   5.954  0.1216  0.1430 -0.0253
10879TIP3    H132559   6.187   3.918   5.963 -0.5679  1.6601 -0.1036
10879TIP3    H232560   6.119   3.788   5.925  1.6680  0.4006  0.1150
10880TIP3   OH232561   8.819   3.298   6.310 -0.4629  0.0671 -0.4710
10880TIP3    H132562   8.843   3.284   6.219  1.8742 -0.3492  0.1694
10880TIP3    H232563   8.784   3.214   6.339  1.0809 -0.5430 -0.3269
10881TIP3   OH232564   1.123   0.202   6.758 -0.6471  0.4441  0.2976
10881TIP3    H132565   1.061   0.173   6.692 -0.5769 -0.6678  0.7168
10881TIP3    H232566   1.205   0.159   6.737  0.2822  2.6659 -0.8256
10882TIP3   OH232567   7.312   0.905   6.188 -0.3330 -0.5084 -0.1107
10882TIP3    H132568   7.351   0.832   6.142  0.7926  1.0634 -1.6834
10882TIP3    H232569   7.239   0.932   6.132  1.2634  1.6360 -1.2173
10883TIP3   OH232570   6.463   7.967   5.682  0.1573 -0.0088  0.4889
10883TIP3    H132571   6.421   8.045   5.646 -1.1308 -0.5521  0.7811
10883TIP3    H232572   6.504   7.997   5.763  0.8403  0.6557 -0.0962
10884TIP3   OH232573   2.268   2.269   6.327  0.2181 -0.3544 -0.3967
10884TIP3    H132574   2.290   2.335   6.261  0.3030  1.8853  1.8020
10884TIP3    H232575   2.296   2.186   6.288  1.0741  1.0156 -2.7962
10885TIP3   OH232576   6.439   5.895   6.376  0.1533  0.3769 -0.2285
10885TIP3    H132577   6.478   5.929   6.457 -1.1517  2.7710 -0.5597
10885TIP3    H232578   6.471   5.954   6.308 -2.7157  1.4322 -0.7292
10886TIP3   OH232579   0.633   2.421   4.404 -0.2172  0.4561 -0.4024
10886TIP3    H132580   0.684   2.375   4.471  0.7084 -0.3553 -1.6241
10886TIP3    H232581   0.699   2.463   4.349 -1.0127  2.0755 -0.1523
10887TIP3   OH232582   1.204   0.572   6.949 -0.2494  0.2826  0.1796
10887TIP3    H132583   1.198   0.606   6.860 -0.3051  0.8284  0.3877
10887TIP3    H232584   1.288   0.605   6.982  0.2066 -0.6925  0.0114
10888TIP3   OH232585   1.887   1.982   6.948 -0.1234  0.0754 -0.7636
10888TIP3    H132586   1.848   1.933   7.021  1.5380 -1.2680 -0.7451
10888TIP3    H232587   1.968   2.018   6.984 -0.1909  0.9094 -1.4438
10889TIP3   OH232588   6.226   0.201   4.508  0.0383  0.2185 -0.2164
10889TIP3    H132589   6.296   0.202   4.574  0.5120 -1.1131 -0.6904
10889TIP3    H232590   6.162   0.139   4.542 -1.3298  2.0286  0.6088
10890TIP3   OH232591   0.358   0.739   3.929 -0.5710  0.3669 -0.0466
10890TIP3    H132592   0.314   0.654   3.920 -0.5028  0.4757 -1.4137
10890TIP3    H232593   0.431   0.735   3.867  0.3091  0.8645  0.9498
10891TIP3   OH232594   1.077   1.626   5.506  0.4968 -0.2943  0.0553
10891TIP3    H132595   1.119   1.554   5.458  0.3169 -2.2737  2.7240
10891TIP3    H232596   1.148   1.687   5.524  1.1261 -0.9013 -0.3029
10892TIP3   OH232597   0.265   3.144   7.077  0.0234 -0.0219  0.3528
10892TIP3    H132598   0.332   3.094   7.032  0.7528  1.3641 -0.1227
10892TIP3    H232599   0.313   3.197   7.141 -0.6710  0.5557  0.4039
10893TIP3   OH232600   4.332   5.166   0.451  0.0780  0.0354  0.2094
10893TIP3    H132601   4.402   5.103   0.435 -0.9582 -1.0362 -0.2029
10893TIP3    H232602   4.377   5.246   0.478  1.3653 -1.4276  2.5895
10894TIP3   OH232603   0.706   0.348   5.814  0.3591 -0.0903 -0.2955
10894TIP3    H132604   0.800   0.346   5.833  0.5989  1.1619 -1.2671
10894TIP3    H232605   0.695   0.283   5.744  0.1391 -1.7375  1.2213
10895TIP3   OH232606   7.328   2.738   3.540 -0.2459  0.4509  0.0960
10895TIP3    H132607   7.336   2.755   3.633 -0.6932  0.9399  0.0459
10895TIP3    H232608   7.253   2.791   3.512  0.1914  0.6938 -0.6278
10896TIP3   OH232609   2.266   2.944   4.336  0.3591 -0.3984  0.1100
10896TIP3    H132610   2.220   2.969   4.416  0.5672 -0.9251  0.3990
10896TIP3    H232611   2.197   2.940   4.270  0.2791  0.6137  0.1311
10897TIP3   OH232612   8.845   1.627   5.681 -0.2117  0.0704 -0.1940
10897TIP3    H132613   8.775   1.689   5.701 -1.1769 -1.0710  0.0301
10897TIP3    H232614   8.868   1.590   5.766 -1.0299 -1.3432 -0.5860
10898TIP3   OH232615   8.058   2.023   3.207  0.4367 -0.2333 -0.0023
10898TIP3    H132616   8.056   1.928   3.218 -0.3833 -0.0426  1.6790
10898TIP3    H232617   7.974   2.052   3.242  1.4317  1.2691  1.1848
10899TIP3   OH232618   8.831   0.430   2.827 -0.1722  0.4532  0.1089
10899TIP3    H132619   8.786   0.468   2.903  0.1045 -0.2846  0.6418
10899TIP3    H232620   8.915   0.476   2.824 -0.6158  1.2546 -0.4045
10900TIP3   OH232621   0.949   2.582   4.582 -0.2255  0.5580  0.2626
10900TIP3    H132622   0.863   2.624   4.587  0.0291  0.9398  1.5011
10900TIP3    H232623   0.982   2.583   4.672  0.5924 -0.6144 -0.0135
10901TIP3   OH232624   0.515   3.547   4.738  0.4569  0.1200  0.5146
10901TIP3    H132625   0.522   3.624   4.794  0.8409  0.1621  0.4080
10901TIP3    H232626   0.548   3.475   4.791  2.1149  0.3869 -0.1229
10902TIP3   OH232627   1.884   0.873   6.487 -0.2009 -0.0805 -0.5075
10902TIP3    H132628   1.837   0.816   6.426 -0.5776 -0.3882  0.0705
10902TIP3    H232629   1.977   0.852   6.474 -0.2936 -0.2881 -0.8259
10903TIP3   OH232630   4.897   6.558   4.861  1.0695  0.2190 -0.4950
10903TIP3    H132631   4.971   6.512   4.900  0.4030  0.8207  1.5268
10903TIP3    H232632   4.888   6.639   4.912 -1.4056 -0.1600 -0.2384
10904TIP3   OH232633   6.060   7.609   6.554 -0.1543 -0.0022 -0.3811
10904TIP3    H132634   5.990   7.669   6.582  0.1187  0.3400 -0.4254
10904TIP3    H232635   6.137   7.665   6.546  0.4667 -0.6406  1.0622
10905TIP3   OH232636   8.235   2.403   5.936 -0.8050 -0.2119  0.2226
10905TIP3    H132637   8.246   2.402   6.031  1.3045 -1.9558 -0.0217
10905TIP3    H232638   8.285   2.479   5.907  1.2059 -1.4971  0.2334
10906TIP3   OH232639   8.190   0.955   6.296 -0.3320  0.6710  0.4429
10906TIP3    H132640   8.183   0.888   6.227  0.8349 -0.3636  1.3078
10906TIP3    H232641   8.118   0.934   6.356  0.4723 -0.2774  1.0946
10907TIP3   OH232642   7.757   2.526   4.764  0.3428  0.3088 -0.0175
10907TIP3    H132643   7.835   2.575   4.737 -0.0338  0.2791 -1.1934
10907TIP3    H232644   7.774   2.503   4.855 -0.1250  3.9045  1.0693
10908TIP3   OH232645   8.368   3.009   4.014  0.5485  0.3151  0.1140
10908TIP3    H132646   8.376   3.095   3.973  2.4069 -0.5427 -1.4332
10908TIP3    H232647   8.443   3.005   4.074  0.6485 -0.3442 -0.0532
10909TIP3   OH232648   0.840   3.308   6.098  0.1831 -0.2838 -0.4031
10909TIP3    H132649   0.781   3.253   6.047 -1.3965 -0.2551  1.3410
10909TIP3    H232650   0.865   3.379   6.038 -1.8594 -0.0830 -1.0507
10910TIP3   OH232651   0.097   1.481   4.324 -0.2613  0.1835 -0.6559
10910TIP3    H132652   0.184   1.461   4.290 -0.1746 -1.5665  0.5471
10910TIP3    H232653   0.106   1.568   4.364  1.1181 -0.2703  0.0525
10911TIP3   OH232654   1.381   0.241   3.983 -0.2457  0.2872 -0.7890
10911TIP3    H132655   1.384   0.285   3.898  1.4591  0.6570 -0.5585
10911TIP3    H232656   1.472   0.219   4.001 -0.7204 -0.6337  0.5145
10912TIP3   OH232657   0.950   0.477   6.531  0.0388 -0.0489  0.5459
10912TIP3    H132658   0.906   0.496   6.449  0.8209  1.3174  0.4255
10912TIP3    H232659   0.923   0.388   6.553 -1.1129  0.0153 -0.5745
10913TIP3   OH232660   0.476   1.462   6.922  0.6480 -0.1189  0.2062
10913TIP3    H132661   0.529   1.514   6.862  0.4721  0.8742  0.8916
10913TIP3    H232662   0.420   1.526   6.966  1.9067 -0.6244  2.5964
10914TIP3   OH232663   0.379   1.906   5.141 -0.2837 -0.1530  0.2011
10914TIP3    H132664   0.309   1.934   5.199 -0.8434  0.7632 -0.8988
10914TIP3    H232665   0.458   1.948   5.175 -0.4365 -0.4085  0.8671
10915TIP3   OH232666   8.178   0.410   5.190 -0.3157 -0.4027  0.1114
10915TIP3    H132667   8.142   0.499   5.184 -1.4305 -0.7959  0.8774
10915TIP3    H232668   8.231   0.411   5.270 -1.9640 -1.0013  1.2195
10916TIP3   OH232669   7.599   0.477   5.253 -0.2845  0.1742  0.4521
10916TIP3    H132670   7.622   0.392   5.215 -0.2640 -0.3368  1.6007
10916TIP3    H232671   7.576   0.531   5.177  1.6831 -0.2257 -0.4529
10917TIP3   OH232672   0.831   0.838   5.596 -0.5971  0.2785 -0.2723
10917TIP3    H132673   0.847   0.747   5.620  0.3423  0.4248 -0.3257
10917TIP3    H232674   0.792   0.877   5.675  2.6128  0.7941  1.1652
10918TIP3   OH232675   8.833   0.115   4.851 -0.1273  0.7770  0.0565
10918TIP3    H132676   8.816   0.068   4.933  0.2705  0.9705  0.2580
10918TIP3    H232677   8.747   0.126   4.810 -0.3399  0.7520  0.4945
10919TIP3   OH232678   7.009   8.157   4.524  0.1137 -0.0510  0.4098
10919TIP3    H132679   6.952   8.085   4.497  0.2486  0.7405 -2.1552
10919TIP3    H232680   7.010   8.216   4.448  1.1737  1.9168  1.9139
10920TIP3   OH232681   7.951   1.812   4.590 -0.6203 -0.4676 -0.7162
10920TIP3    H132682   7.989   1.730   4.556 -1.6744 -1.1644 -0.2312
10920TIP3    H232683   7.905   1.849   4.516  0.2059 -0.0917 -1.0529
10921TIP3   OH232684   3.988   4.994   0.614  0.0675  0.6678  0.1858
10921TIP3    H132685   3.958   5.025   0.699  3.1979  0.2268  1.5411
10921TIP3    H232686   3.943   4.911   0.601 -0.5353  0.8053  1.3698
10922TIP3   OH232687   1.527   2.145   6.441  0.4929  0.2066  0.2166
10922TIP3    H132688   1.527   2.235   6.472  3.1251  0.5150 -0.5608
10922TIP3    H232689   1.612   2.110   6.467 -0.2319 -1.8456 -0.0776
10923TIP3   OH232690   1.657   2.905   4.489  0.2266  0.4836 -0.5832
10923TIP3    H132691   1.715   2.957   4.545  0.7711 -1.2973  0.5364
10923TIP3    H232692   1.587   2.966   4.464  0.6955  1.6781  0.9242
10924TIP3   OH232693   7.552   0.936   3.097  1.0192 -0.0547 -0.2748
10924TIP3    H132694   7.610   0.929   3.172  2.1422 -0.3466 -1.1581
10924TIP3    H232695   7.527   0.845   3.077  2.0729 -0.1310 -1.2861
10925TIP3   OH232696   8.146   2.375   4.284  0.2008 -0.4309 -0.4798
10925TIP3    H132697   8.185   2.416   4.206  0.6642  1.8784  0.9011
10925TIP3    H232698   8.052   2.373   4.266  0.4221 -1.0752 -1.6085
10926TIP3   OH232699   8.331   1.882   5.467  0.1613 -0.1278  0.5702
10926TIP3    H132700   8.417   1.923   5.459 -1.2334  2.8620  0.5180
10926TIP3    H232701   8.350   1.795   5.505  3.3635 -0.4053 -1.4959
10927TIP3   OH232702   7.187   1.603   4.425  0.1612 -0.0356 -0.7661
10927TIP3    H132703   7.207   1.680   4.478 -2.7253  1.0189 -1.1048
10927TIP3    H232704   7.098   1.579   4.451  0.9288 -3.1824 -0.8013
10928TIP3   OH232705   1.269   1.161   5.652  0.4329  0.4669 -0.1109
10928TIP3    H132706   1.277   1.066   5.664 -0.5960  0.1682 -1.5789
10928TIP3    H232707   1.316   1.179   5.571 -0.7455  0.9534 -0.7074
10929TIP3   OH232708   6.946   2.726   4.799 -0.8060 -0.8029 -0.1737
10929TIP3    H132709   6.928   2.677   4.719 -0.1597 -0.6815 -0.4018
10929TIP3    H232710   6.861   2.735   4.842 -0.9601 -1.9679 -0.2178
10930TIP3   OH232711   8.275   0.215   6.428  0.6673 -0.1521  0.5078
10930TIP3    H132712   8.250   0.232   6.518  0.0576  0.0519  0.3001
10930TIP3    H232713   8.193   0.195   6.383  1.0210 -0.7474  0.1075
10931TIP3   OH232714   0.587   2.145   3.930  0.0684 -0.0433 -0.1880
10931TIP3    H132715   0.570   2.077   3.865 -0.1741 -1.3172  1.1905
10931TIP3    H232716   0.643   2.209   3.884  1.2098 -1.7112 -1.1611
10932TIP3   OH232717   5.328   7.946   4.755  0.3166  0.0037  0.4272
10932TIP3    H132718   5.396   7.879   4.765 -1.4782 -1.7435  1.3406
10932TIP3    H232719   5.332   7.996   4.836  1.1970  0.5727  0.0392
10933TIP3   OH232720   6.096   8.038   5.602  0.1845 -0.5776 -0.1660
10933TIP3    H132721   6.190   8.058   5.599 -0.1088  0.6808 -2.1481
10933TIP3    H232722   6.054   8.124   5.607 -0.8555 -1.1626  1.3366
10934TIP3   OH232723   1.029   0.973   5.820 -0.6936 -0.6011  0.2936
10934TIP3    H132724   1.039   0.999   5.912  0.2977 -0.6101  0.1911
10934TIP3    H232725   0.934   0.968   5.807 -0.8293 -1.4984  1.5693
10935TIP3   OH232726   7.720   0.187   6.194  0.2683  0.3899 -0.3434
10935TIP3    H132727   7.815   0.179   6.190  0.4341  1.4474  0.9791
10935TIP3    H232728   7.694   0.214   6.106  0.9467 -2.0381 -1.3203
10936TIP3   OH232729   8.471   1.089   5.975  0.4870 -0.3378  0.2761
10936TIP3    H132730   8.390   1.139   5.988  1.7659  1.6077  1.0921
10936TIP3    H232731   8.471   1.066   5.882 -1.6705 -1.6005  0.5512
10937TIP3   OH232732   8.845   0.433   4.446 -0.4999  0.3346  0.6668
10937TIP3    H132733   8.868   0.341   4.457  1.8264  0.6405 -1.2023
10937TIP3    H232734   8.778   0.433   4.378 -0.6533  0.0088  0.8152
10938TIP3   OH232735   7.810   2.987   6.487  0.1489  0.2858 -0.2130
10938TIP3    H132736   7.820   3.075   6.521  0.9326  0.3599 -0.6325
10938TIP3    H232737   7.883   2.976   6.426  0.4762 -0.9155  0.3844
10939TIP3   OH232738   4.234   7.595   3.818 -0.2637 -0.0958 -0.2160
10939TIP3    H132739   4.314   7.632   3.856  0.9438 -2.0021 -0.8359
10939TIP3    H232740   4.173   7.591   3.892  1.4652 -2.0701  1.1906
10940TIP3   OH232741   0.716   0.938   5.313  0.4939 -0.1982  0.2053
10940TIP3    H132742   0.810   0.955   5.304  0.1014  2.8911  1.3786
10940TIP3    H232743   0.674   0.992   5.246 -0.4907 -1.2117 -0.0160
10941TIP3   OH232744   4.793   6.015   0.422 -0.0289 -0.5635  0.4054
10941TIP3    H132745   4.814   5.928   0.388 -1.1517 -0.5696 -0.3073
10941TIP3    H232746   4.733   6.052   0.357 -1.0736 -0.0062  1.6726
10942TIP3   OH232747   8.618   0.120   1.511  0.2838 -0.0585  0.4753
10942TIP3    H132748   8.663   0.167   1.441  3.0179  2.6580  3.9031
10942TIP3    H232749   8.540   0.172   1.529  1.1952  0.9703  1.5104
10943TIP3   OH232750   7.185   6.987   1.405  0.5213  0.1901 -0.1635
10943TIP3    H132751   7.167   7.070   1.449  1.4474  1.0645 -1.4067
10943TIP3    H232752   7.108   6.971   1.351 -0.4683 -0.7144  1.4937
10944TIP3   OH232753   0.368   2.924   6.694  0.3368  0.1459  0.2524
10944TIP3    H132754   0.418   2.967   6.764 -0.4291 -0.0788  0.9477
10944TIP3    H232755   0.286   2.897   6.737 -0.6523  1.0740 -1.0263
10945TIP3   OH232756   3.651   3.402   0.361  0.0520 -0.1726  0.4150
10945TIP3    H132757   3.657   3.308   0.380 -0.6714  0.1981  2.6109
10945TIP3    H232758   3.583   3.408   0.295 -1.8636 -0.9778  2.2459
10946TIP3   OH232759   4.564   7.283   2.101  0.4772 -0.1481 -0.5849
10946TIP3    H132760   4.625   7.293   2.028  0.6493 -1.8629 -0.7084
10946TIP3    H232761   4.595   7.205   2.147 -1.6615 -1.0982 -0.7064
10947TIP3   OH232762   5.716   5.311   0.419 -0.1351 -0.2508 -0.1160
10947TIP3    H132763   5.783   5.379   0.431  0.4306 -0.6072 -1.1695
10947TIP3    H232764   5.764   5.236   0.383 -0.8440 -1.0265  0.5431
10948TIP3   OH232765   3.554   1.547   4.579  0.4604  0.1639  0.5952
10948TIP3    H132766   3.602   1.547   4.496 -1.6535 -1.6935 -0.6654
10948TIP3    H232767   3.500   1.626   4.575 -1.4590 -1.1864 -0.9207
10949TIP3   OH232768   4.444   1.361   7.234 -0.3307  0.2764 -0.0926
10949TIP3    H132769   4.399   1.445   7.232 -0.3350  0.2544 -2.1064
10949TIP3    H232770   4.383   1.302   7.278 -0.3060  1.3256  1.3701
10950TIP3   OH232771   2.081   6.334   1.954 -0.1272  0.3364  0.6054
10950TIP3    H132772   1.998   6.289   1.965 -0.0431 -0.1397 -0.5759
10950TIP3    H232773   2.067   6.392   1.878  0.8211 -0.2574 -0.0333
10951TIP3   OH232774   6.019   5.205   0.973  0.0575  0.3420  0.2144
10951TIP3    H132775   6.013   5.121   1.019 -0.4599  0.5418  0.5195
10951TIP3    H232776   5.994   5.270   1.038 -1.6413  0.5498 -0.5975
10952TIP3   OH232777   4.980   8.294   1.148 -0.9288  0.4598  0.0479
10952TIP3    H132778   5.049   8.301   1.214 -1.0595  1.0496  0.1284
10952TIP3    H232779   5.003   8.361   1.083  0.1619 -1.2845 -1.4026
10953TIP3   OH232780   3.928   2.871   5.626 -0.0530  0.1257 -0.3641
10953TIP3    H132781   3.871   2.928   5.575 -0.8692  0.4877  0.9242
10953TIP3    H232782   3.999   2.928   5.656 -0.1178  0.1460 -0.2479
10954TIP3   OH232783   3.398   5.024   0.460 -0.0421  0.1435  0.4073
10954TIP3    H132784   3.327   4.963   0.441  0.7217 -0.4122 -0.7343
10954TIP3    H232785   3.394   5.087   0.388 -0.0145  0.6941  0.8879
10955TIP3   OH232786   3.721   7.066   0.062  0.2189  0.0294  0.0935
10955TIP3    H132787   3.749   6.982   0.027  2.0310  0.2736  0.8814
10955TIP3    H232788   3.800   7.120   0.062 -0.3834  0.9639  1.7863
10956TIP3   OH232789   4.617   7.220   1.296  0.1999 -0.4908 -0.0587
10956TIP3    H132790   4.564   7.293   1.328  0.0847  0.0823 -1.4757
10956TIP3    H232791   4.707   7.243   1.319  0.3853  1.0610 -2.1319
10957TIP3   OH232792   3.498   7.625   0.985 -0.0822 -0.5595 -0.2198
10957TIP3    H132793   3.415   7.616   1.032  0.9666 -0.4037  1.7215
10957TIP3    H232794   3.501   7.550   0.926 -0.6910 -1.7038  1.1691
10958TIP3   OH232795   3.588   8.041   2.082  0.4974  0.0674 -0.1880
10958TIP3    H132796   3.522   7.980   2.049 -0.0770  0.0359  1.0075
10958TIP3    H232797   3.611   8.094   2.006 -0.7489 -0.0611 -0.6620
10959TIP3   OH232798   6.880   2.774   5.550 -0.0484 -0.6223 -0.0668
10959TIP3    H132799   6.878   2.679   5.550 -0.1831 -0.6242 -0.6375
10959TIP3    H232800   6.971   2.797   5.570  0.4249 -0.8992 -1.8027
10960TIP3   OH232801   2.801   7.382   0.241  0.6913  0.1476 -0.5376
10960TIP3    H132802   2.777   7.475   0.238 -2.1050 -0.4673  1.1604
10960TIP3    H232803   2.729   7.337   0.198  1.8910 -1.2783 -1.0797
10961TIP3   OH232804   0.758   2.412   6.375  0.0801 -0.2801 -0.2786
10961TIP3    H132805   0.758   2.505   6.400 -2.1145 -0.4428  0.4663
10961TIP3    H232806   0.809   2.369   6.444  0.7297  0.3187 -0.3820
10962TIP3   OH232807   3.972   4.269   0.462 -0.4071  0.2572  0.1921
10962TIP3    H132808   3.943   4.182   0.434  0.5348 -0.3722  1.1104
10962TIP3    H232809   3.967   4.323   0.383 -1.6991 -0.4384 -0.2211
10963TIP3   OH232810   4.603   5.293   0.997 -0.3723  0.0127  0.3332
10963TIP3    H132811   4.543   5.350   1.046 -2.4427 -2.1914  0.4455
10963TIP3    H232812   4.573   5.297   0.907  0.6770  0.5725 -0.0041
10964TIP3   OH232813   3.076   7.258   0.273 -0.1508 -0.3181 -0.4770
10964TIP3    H132814   2.983   7.278   0.269 -0.2362 -0.8735 -1.6649
10964TIP3    H232815   3.110   7.313   0.343 -1.7183 -1.4957  1.2831
10965TIP3   OH232816   6.191   6.771   0.399 -0.3251 -0.5832 -0.2180
10965TIP3    H132817   6.238   6.726   0.329 -1.7421 -0.1393 -1.4862
10965TIP3    H232818   6.099   6.752   0.382 -0.8372  1.4232  0.1811
10966TIP3   OH232819   0.483   1.221   6.698 -0.7589  0.1602  0.6028
10966TIP3    H132820   0.429   1.292   6.732 -0.5395  1.8252 -2.3316
10966TIP3    H232821   0.572   1.256   6.699 -0.8489  0.5687 -2.3420
10967TIP3   OH232822   3.002   1.775   5.983 -0.6599  0.4459  0.1077
10967TIP3    H132823   3.083   1.817   6.010 -1.1417  1.4213  0.0564
10967TIP3    H232824   2.958   1.840   5.929 -0.6352 -0.7486 -1.3687
10968TIP3   OH232825   4.640   6.583   1.090  0.2330  0.6508 -0.3886
10968TIP3    H132826   4.710   6.553   1.032  0.1112 -1.0613  0.3180
10968TIP3    H232827   4.684   6.638   1.154  1.3553 -2.0816  1.3090
10969TIP3   OH232828   8.517   2.258   6.050  0.3193 -0.7165  0.2893
10969TIP3    H132829   8.529   2.351   6.026  1.6415 -0.9082  0.1726
10969TIP3    H232830   8.556   2.251   6.137  1.7728 -1.5230 -0.4108
10970TIP3   OH232831   4.486   6.779   1.691 -0.2336  0.0763  0.2790
10970TIP3    H132832   4.579   6.754   1.686 -0.3034 -0.1795  0.2532
10970TIP3    H232833   4.474   6.840   1.618 -0.0513  0.2203  0.3695
10971TIP3   OH232834   8.374   0.310   1.235  0.0694 -0.2205  0.4975
10971TIP3    H132835   8.281   0.292   1.229  0.2338 -0.9241 -0.0606
10971TIP3    H232836   8.404   0.311   1.144  0.8120 -1.1206  0.7230
10972TIP3   OH232837   4.612   6.705   0.207  0.4913 -0.2466  0.0339
10972TIP3    H132838   4.548   6.725   0.138  0.1179  0.0517  0.4608
10972TIP3    H232839   4.589   6.764   0.279  1.7655  0.4359 -0.1068
10973TIP3   OH232840   0.076   0.768   6.230 -0.1767  0.2531 -0.3555
10973TIP3    H132841   0.158   0.818   6.224 -0.3587  0.7382  0.9335
10973TIP3    H232842   0.083   0.722   6.314 -0.2952 -1.4091 -1.2294
10974TIP3   OH232843   6.862   5.531   0.506  0.5850  0.2757  0.2649
10974TIP3    H132844   6.918   5.589   0.454  0.4904  0.1862  0.0631
10974TIP3    H232845   6.844   5.580   0.586  3.8951 -1.0769  1.9248
10975TIP3   OH232846   3.237   6.707   0.368  0.5621 -0.6007  0.3881
10975TIP3    H132847   3.306   6.772   0.362 -0.9336  0.8399 -2.1831
10975TIP3    H232848   3.276   6.626   0.335  0.8288  0.4271 -1.9489
10976TIP3   OH232849   4.480   0.579   7.138 -0.0052 -0.2849 -0.2735
10976TIP3    H132850   4.462   0.494   7.098 -2.7868  0.8998 -1.7334
10976TIP3    H232851   4.412   0.637   7.103 -0.1423  1.7863  3.1293
10977TIP3   OH232852   1.843   2.138   6.177 -0.1209 -0.7513  0.5782
10977TIP3    H132853   1.748   2.132   6.190 -0.1599 -0.2618  0.5348
10977TIP3    H232854   1.871   2.047   6.165 -0.7095 -0.8297 -0.2619
10978TIP3   OH232855   2.383   1.825   4.958  0.0451  0.1652 -0.3321
10978TIP3    H132856   2.339   1.893   4.906 -0.8650  0.2778  0.5793
10978TIP3    H232857   2.476   1.839   4.940 -0.1626  1.3339 -0.5639
10979TIP3   OH232858   5.091   6.516   0.364  0.1538  0.4766  0.0645
10979TIP3    H132859   5.033   6.554   0.298  0.6403  1.4824  0.1940
10979TIP3    H232860   5.040   6.445   0.403 -0.5249  0.5506 -0.6713
10980TIP3   OH232861   5.988   7.031   0.286  0.0164 -0.1361 -0.2088
10980TIP3    H132862   5.928   7.029   0.361 -0.4669 -0.8468 -0.5999
10980TIP3    H232863   5.952   6.965   0.226  1.3356 -0.7396 -0.3437
10981TIP3   OH232864   8.278   4.333   6.804  0.4034  0.2618 -0.2715
10981TIP3    H132865   8.307   4.311   6.892 -0.3735 -0.4400 -0.1811
10981TIP3    H232866   8.343   4.292   6.746  1.2865  1.2886 -0.0244
10982TIP3   OH232867   4.523   6.916   2.201  0.2353 -0.3013  0.2549
10982TIP3    H132868   4.587   6.976   2.162  1.9808 -1.0972  1.8130
10982TIP3    H232869   4.504   6.954   2.287 -0.2891 -0.8335  0.3768
10983TIP3   OH232870   2.731   8.294   0.744  1.0341 -0.0416 -0.5208
10983TIP3    H132871   2.790   8.344   0.801  0.2496  0.9761 -0.5872
10983TIP3    H232872   2.667   8.255   0.804 -0.5917  2.1223 -0.7838
10984TIP3   OH232873   4.253   7.478   0.788 -0.5737 -0.1387 -0.6625
10984TIP3    H132874   4.178   7.435   0.829  1.1187 -3.3521 -0.7810
10984TIP3    H232875   4.300   7.519   0.861 -1.3047  0.0837 -0.3111
10985TIP3   OH232876   3.587   8.163   1.465  0.2718  0.6566  0.0251
10985TIP3    H132877   3.657   8.228   1.470  1.3302 -0.3406 -1.4126
10985TIP3    H232878   3.507   8.212   1.482  1.1829  2.0970  0.2046
10986TIP3   OH232879   1.597   3.579   5.841  0.2740  0.3072 -0.2206
10986TIP3    H132880   1.629   3.489   5.846 -0.1878  0.0123 -2.2839
10986TIP3    H232881   1.674   3.632   5.821  0.6377  0.4596  1.4920
10987TIP3   OH232882   3.024   4.836   6.107  0.0540 -0.3757 -0.8498
10987TIP3    H132883   3.083   4.861   6.037 -0.9054 -0.7304 -1.7919
10987TIP3    H232884   2.937   4.841   6.068 -0.4277 -1.3494  0.0798
10988TIP3   OH232885   5.240   6.036   1.790  0.0832  0.6751  0.1688
10988TIP3    H132886   5.219   5.946   1.767 -0.0332  0.6933  0.2038
10988TIP3    H232887   5.195   6.051   1.874  0.5048  0.6095  0.4095
10989TIP3   OH232888   2.129   1.418   6.251 -0.6909  0.3326  0.2059
10989TIP3    H132889   2.215   1.461   6.256 -0.2413 -0.6394  1.1285
10989TIP3    H232890   2.142   1.336   6.298 -1.9766 -0.0824 -0.1735
10990TIP3   OH232891   0.822   1.650   4.900 -0.3191  0.5544 -0.2290
10990TIP3    H132892   0.803   1.743   4.917  0.4641  0.6745 -0.0226
10990TIP3    H232893   0.854   1.617   4.984  1.3894  0.5980 -0.8547
10991TIP3   OH232894   1.961   1.639   6.173  0.1447 -0.2209 -0.0593
10991TIP3    H132895   1.908   1.600   6.243 -0.6540  0.9674  0.0110
10991TIP3    H232896   2.045   1.593   6.179  0.0918 -0.1211  1.7041
10992TIP3   OH232897   3.195   5.599   0.781  0.2235  0.2445 -0.0402
10992TIP3    H132898   3.288   5.584   0.802  0.3934  0.8354 -0.3794
10992TIP3    H232899   3.159   5.511   0.771  0.5534 -0.0058  0.9436
10993TIP3   OH232900   4.674   7.268   0.595  0.0467  0.8428 -0.3360
10993TIP3    H132901   4.586   7.292   0.624 -0.5028 -1.5650  0.1551
10993TIP3    H232902   4.680   7.301   0.505 -2.5604 -1.5528 -1.4874
10994TIP3   OH232903   1.026   2.179   4.509 -0.1229 -0.4548 -0.2324
10994TIP3    H132904   1.059   2.238   4.442 -1.2719 -1.1181 -1.4008
10994TIP3    H232905   1.063   2.093   4.486 -0.0011 -0.5691  0.3609
10995TIP3   OH232906   4.463   8.028   0.451  0.2497 -0.3246  0.1607
10995TIP3    H132907   4.480   8.117   0.480  1.1234 -0.4680  0.1097
10995TIP3    H232908   4.476   7.974   0.529 -1.8133 -0.2485  0.5629
10996TIP3   OH232909   4.714   6.951   0.863  0.3271 -0.0213 -0.6409
10996TIP3    H132910   4.685   6.969   0.774  0.8703 -0.5329 -0.9282
10996TIP3    H232911   4.652   6.886   0.896  0.0650  0.2463 -0.6136
10997TIP3   OH232912   8.219   1.939   6.423 -0.0318 -0.0219  0.1040
10997TIP3    H132913   8.171   1.895   6.493 -0.2536 -1.4943 -0.9428
10997TIP3    H232914   8.299   1.889   6.414 -0.3752 -0.3442 -1.2457
10998TIP3   OH232915   2.646   5.695   1.472  0.1876  0.6249 -0.7922
10998TIP3    H132916   2.704   5.619   1.482 -1.7512 -0.9600 -1.2350
10998TIP3    H232917   2.683   5.745   1.399  1.5266  0.1446 -0.4479
10999TIP3   OH232918   2.804   0.940   5.393 -0.0098  0.8694  0.1636
10999TIP3    H132919   2.859   0.861   5.391 -1.1105  0.1011 -0.1959
10999TIP3    H232920   2.860   1.008   5.356  0.7600  0.1347 -0.0658
11000TIP3   OH232921   4.202   7.520   1.476  0.1038  0.4486  0.0473
11000TIP3    H132922   4.267   7.578   1.516  0.5538  0.0134 -0.0440
11000TIP3    H232923   4.156   7.481   1.550  0.1051  0.5789  0.1177
11001TIP3   OH232924   8.426   1.070   6.404  0.2219  0.8047 -0.3932
11001TIP3    H132925   8.478   1.010   6.350  1.2861  3.0870 -1.9929
11001TIP3    H232926   8.335   1.051   6.380  0.3819 -1.8030  0.9108
11002TIP3   OH232927   3.898   8.111   0.782 -0.2842 -0.2917  0.1710
11002TIP3    H132928   3.925   8.024   0.752 -0.6891 -0.8143  1.3093
11002TIP3    H232929   3.925   8.115   0.874  0.2936  1.0271 -0.0450
11003TIP3   OH232930   5.882   0.009   1.226  0.0841 -0.1254 -0.3645
11003TIP3    H132931   5.971   0.036   1.202  0.2446  0.1425  0.5124
11003TIP3    H232932   5.891  -0.029   1.313 -0.5730 -0.6216 -0.5128
11004TIP3   OH232933   4.168   5.399   0.838 -0.0510 -0.0840  0.0686
11004TIP3    H132934   4.223   5.329   0.803 -0.2513 -0.4554  0.4914
11004TIP3    H232935   4.195   5.478   0.790  1.0069 -0.2212  0.4398
11005TIP3   OH232936   2.549   2.518   5.966  0.4709 -0.5860 -0.4070
11005TIP3    H132937   2.569   2.611   5.952  0.7505 -0.4727  0.6973
11005TIP3    H232938   2.593   2.473   5.895  2.4057 -0.0830  0.4352
11006TIP3   OH232939   2.341   6.555   0.766  0.0088  0.5509  0.2418
11006TIP3    H132940   2.408   6.497   0.728 -0.1296  0.3208  0.3516
11006TIP3    H232941   2.352   6.545   0.861 -0.3360  0.3361  0.2591
11007TIP3   OH232942   8.763   0.400   0.748 -0.0105 -0.2425 -0.1789
11007TIP3    H132943   8.763   0.496   0.748 -0.5900 -0.2450 -0.4797
11007TIP3    H232944   8.808   0.376   0.667  1.8094 -0.2293  0.7828
11008TIP3   OH232945   3.377   6.204   1.715 -0.6510 -0.4574  0.0884
11008TIP3    H132946   3.356   6.127   1.663  2.0659 -2.0705  1.3019
11008TIP3    H232947   3.398   6.271   1.650 -1.9710 -1.0327 -0.9500
11009TIP3   OH232948   1.361   3.729   6.867  0.2367 -0.4610 -0.0026
11009TIP3    H132949   1.346   3.659   6.803 -1.3038  1.7639 -2.1674
11009TIP3    H232950   1.428   3.784   6.826 -0.8264  1.0360  0.2490
11010TIP3   OH232951   3.394   2.470   6.950  0.3710  0.6475  0.5721
11010TIP3    H132952   3.383   2.559   6.981 -0.0542  0.5099  0.8292
11010TIP3    H232953   3.488   2.460   6.938  0.2981  1.6030 -0.8944
11011TIP3   OH232954   1.481   1.508   6.314 -0.6242 -0.1000  0.3754
11011TIP3    H132955   1.436   1.441   6.262 -1.3911 -0.0338  0.9392
11011TIP3    H232956   1.413   1.572   6.334  0.0956  0.8094 -0.0928
11012TIP3   OH232957   1.045   3.657   5.637 -0.0514 -0.3348  0.2643
11012TIP3    H132958   1.134   3.668   5.603 -1.0013  2.0507 -1.6676
11012TIP3    H232959   1.002   3.741   5.618 -2.4475 -1.1171  1.9889
11013TIP3   OH232960   2.054   2.409   6.978  0.2038  0.0171  0.1153
11013TIP3    H132961   2.134   2.395   7.029  0.2445  0.5676  0.2086
11013TIP3    H232962   2.085   2.420   6.888  0.1789 -0.3904  0.0562
11014TIP3   OH232963   3.313   3.691   7.044  0.0188  0.5597 -0.6135
11014TIP3    H132964   3.401   3.716   7.073  0.8902 -1.5664 -1.3233
11014TIP3    H232965   3.321   3.684   6.949 -0.2796 -1.9236 -0.4817
11015TIP3   OH232966   4.168   7.731   0.638  0.3511  0.3650 -0.2749
11015TIP3    H132967   4.184   7.713   0.730 -2.4535  1.5710  0.5083
11015TIP3    H232968   4.232   7.677   0.591 -0.2764 -2.7325  2.2816
11016TIP3   OH232969   5.388   6.791   0.222  0.2104  0.6097  0.1932
11016TIP3    H132970   5.389   6.726   0.293  0.6052  0.5848  0.1653
11016TIP3    H232971   5.297   6.791   0.191  0.5450 -1.0407 -0.8323
11017TIP3   OH232972   3.521   6.741   1.738 -0.3194  0.2008  0.5870
11017TIP3    H132973   3.449   6.730   1.677  0.3564 -0.8009 -0.0523
11017TIP3    H232974   3.554   6.652   1.752  2.2635  0.8486 -0.9618
11018TIP3   OH232975   2.536   1.824   6.217  0.0207 -0.0484 -0.3815
11018TIP3    H132976   2.537   1.850   6.309  0.5421  2.0982 -0.9491
11018TIP3    H232977   2.605   1.759   6.209  0.7552  0.6009  0.5417
11019TIP3   OH232978   7.930   4.739   5.210 -0.0900  0.4590  0.9832
11019TIP3    H132979   7.923   4.652   5.171 -1.2027  0.9701  0.0326
11019TIP3    H232980   7.840   4.771   5.215  0.4596  2.3755 -0.5726
11020TIP3   OH232981   1.365   3.897   5.258  0.0496  0.2735 -0.1456
11020TIP3    H132982   1.457   3.915   5.242 -0.1315  1.1493 -0.2399
11020TIP3    H232983   1.318   3.954   5.196 -0.5363 -0.6808 -0.5873
11021TIP3   OH232984   7.146   4.511   5.184  0.1917 -0.3159  0.3416
11021TIP3    H132985   7.127   4.478   5.096  0.5056 -2.5029  1.0556
11021TIP3    H232986   7.093   4.456   5.242 -0.5903  1.6031  1.4854
11022TIP3   OH232987   4.142   5.456   0.308 -0.3985 -0.0992 -0.0282
11022TIP3    H132988   4.066   5.456   0.367  0.0359 -1.7593  0.5551
11022TIP3    H232989   4.196   5.528   0.339 -0.1464 -0.9848  1.6706
11023TIP3   OH232990   2.635   1.748   6.461 -0.4079 -0.2960  0.0289
11023TIP3    H132991   2.604   1.658   6.449 -2.3338  0.1538  1.3356
11023TIP3    H232992   2.722   1.738   6.498  0.0868 -1.6111 -1.4027
11024TIP3   OH232993   5.860   7.830   2.135  0.3171 -0.2488  0.3879
11024TIP3    H132994   5.837   7.921   2.150  0.7730 -0.3485  1.7541
11024TIP3    H232995   5.778   7.782   2.143  0.4409 -0.2181  1.9524
11025TIP3   OH232996   7.879   0.061   1.978  0.6442  0.3359 -0.2099
11025TIP3    H132997   7.794   0.098   1.957 -0.4192 -2.1677 -0.5084
11025TIP3    H232998   7.922   0.050   1.893 -0.1813 -1.6718 -0.4052
11026TIP3   OH232999   6.335   7.074   0.056  0.1408  0.5288  0.7135
11026TIP3    H133000   6.263   7.034   0.008 -0.0161  1.7990 -0.1325
11026TIP3    H233001   6.403   7.088  -0.010  1.3693 -1.0959  1.5973
11027TIP3   OH233002   6.453   0.091   0.446  0.1097 -0.1445 -0.1080
11027TIP3    H133003   6.395   0.050   0.510  0.2005 -1.0581 -0.6133
11027TIP3    H233004   6.536   0.044   0.454  0.6182  0.7842  0.2121
11028TIP3   OH233005   2.241   3.150   5.261 -0.5445 -0.0416  0.1235
11028TIP3    H133006   2.214   3.241   5.249  0.8027  0.2383 -0.9577
11028TIP3    H233007   2.311   3.153   5.326  0.9433 -0.0312 -1.4440
11029TIP3   OH233008   3.688   6.060   0.438 -0.5869  0.1228 -0.4758
11029TIP3    H133009   3.685   6.155   0.425 -1.1596 -0.0666 -1.8550
11029TIP3    H233010   3.638   6.045   0.519  0.0805  1.0541  0.1111
11030TIP3   OH233011   5.889   7.877   5.713 -0.1018 -0.0920  0.3172
11030TIP3    H133012   5.922   7.790   5.736  1.2247  0.2595 -0.1727
11030TIP3    H233013   5.966   7.923   5.679 -1.3774  0.3939 -1.9590
11031TIP3   OH233014   4.095   3.532   0.651  0.5235 -0.5712  0.0577
11031TIP3    H133015   4.042   3.514   0.573  1.7097 -0.2908 -0.8258
11031TIP3    H233016   4.141   3.613   0.630 -0.6351  0.6063  1.8459
11032TIP3   OH233017   1.273   2.496   5.738 -0.2730  0.5198  0.3668
11032TIP3    H133018   1.225   2.547   5.802  0.3010  0.4502  0.8571
11032TIP3    H233019   1.359   2.537   5.734 -0.8562  1.5932 -1.6344
11033TIP3   OH233020   0.855   2.104   6.829  0.1639  0.0018  0.2660
11033TIP3    H133021   0.947   2.094   6.801  0.3066  0.4465  0.5722
11033TIP3    H233022   0.805   2.072   6.754  0.5192  2.9242 -1.2835
11034TIP3   OH233023   6.615   5.424   0.514  0.0455 -0.2444 -0.0140
11034TIP3    H133024   6.704   5.455   0.499  0.6478 -0.5745  2.7184
11034TIP3    H233025   6.617   5.387   0.602 -2.1238 -2.7407 -0.9762
11035TIP3   OH233026   0.647   0.077   5.734 -0.1459  0.1639  0.6311
11035TIP3    H133027   0.654  -0.005   5.685  1.3850  1.3762 -1.2725
11035TIP3    H233028   0.593   0.055   5.809 -2.5608 -1.8045 -1.5627
11036TIP3   OH233029   1.227   0.867   5.627 -0.1249  0.0020 -0.0371
11036TIP3    H133030   1.222   0.771   5.631 -1.6512  0.1400  2.2595
11036TIP3    H233031   1.149   0.897   5.672 -0.4107  2.3664 -1.9969
11037TIP3   OH233032   3.608   7.024   2.251 -0.1867 -0.2234 -0.2334
11037TIP3    H133033   3.641   7.005   2.339 -0.2790 -0.4257 -0.2436
11037TIP3    H233034   3.549   6.952   2.231 -0.7163  0.1938 -0.1768
11038TIP3   OH233035   3.766   5.748   0.401  0.5065  0.2794  0.2627
11038TIP3    H133036   3.771   5.711   0.489  2.7583 -1.5369 -0.5753
11038TIP3    H233037   3.789   5.841   0.413  0.5837  0.0926  1.6143
11039TIP3   OH233038   4.420   7.223   0.150  0.2724 -0.4907 -0.0900
11039TIP3    H133039   4.443   7.219   0.057  0.8173 -1.8596  0.1005
11039TIP3    H233040   4.379   7.138   0.168  0.3321 -0.2965  0.9626
11040TIP3   OH233041   1.840   3.113   4.681  0.4860 -0.0424  0.1192
11040TIP3    H133042   1.817   3.203   4.705  0.2279  0.1211 -0.7355
11040TIP3    H233043   1.871   3.074   4.763 -0.5072  0.4733  0.7513
11041TIP3   OH233044   2.692   7.781   0.437 -0.1460  0.5313 -0.0657
11041TIP3    H133045   2.688   7.688   0.459 -0.1150  0.6009  0.2435
11041TIP3    H233046   2.617   7.796   0.379 -0.0404  0.2746 -0.2668
11042TIP3   OH233047   8.046   1.747   5.582  0.6340 -0.1615  0.2654
11042TIP3    H133048   7.988   1.754   5.506  0.9998 -0.6208 -0.0608
11042TIP3    H233049   8.056   1.837   5.613 -0.6529 -0.1330  0.6371
11043TIP3   OH233050   3.231   2.845   5.593 -0.2905 -0.5044 -0.2138
11043TIP3    H133051   3.276   2.812   5.515 -2.9244 -0.4855 -1.8012
11043TIP3    H233052   3.281   2.922   5.619  0.1886 -0.0721 -2.3409
11044TIP3   OH233053   7.287   0.287   0.521  0.2135 -0.1876 -0.1101
11044TIP3    H133054   7.298   0.302   0.428  0.4764  0.9951  0.1072
11044TIP3    H233055   7.236   0.205   0.526 -2.3962  1.2924 -1.3533
11045TIP3   OH233056   2.352   3.473   6.188 -0.4434  0.1059  0.4633
11045TIP3    H133057   2.418   3.436   6.129 -0.0597  0.2686  0.7831
11045TIP3    H233058   2.306   3.397   6.223 -2.5552  0.1321 -2.1837
11046TIP3   OH233059   0.808   0.581   5.616 -0.3509  0.5599 -0.1622
11046TIP3    H133060   0.855   0.531   5.550  1.6886 -0.7748  2.2170
11046TIP3    H233061   0.728   0.610   5.572  0.3162 -1.4214 -2.7786
11047TIP3   OH233062   8.300   2.155   5.817  0.0479  0.7813  0.2576
11047TIP3    H133063   8.300   2.239   5.863  0.0252  1.3688 -0.7815
11047TIP3    H233064   8.309   2.179   5.725  1.8417 -0.4427  0.0959
11048TIP3   OH233065   3.521   5.413   0.662  0.1829  0.0692  0.0699
11048TIP3    H133066   3.594   5.352   0.671 -0.9057 -1.4697 -1.0370
11048TIP3    H233067   3.517   5.431   0.568 -1.0781 -0.1909  0.0572
11049TIP3   OH233068   3.573   7.174   0.373 -0.6006 -0.2510  0.0300
11049TIP3    H133069   3.655   7.218   0.349 -0.5073 -0.2007  0.4349
11049TIP3    H233070   3.530   7.156   0.290 -0.5377  0.4215 -0.1473
11050TIP3   OH233071   2.711   4.510   4.340  0.0083  0.6465 -0.1751
11050TIP3    H133072   2.735   4.547   4.255 -0.1405  0.7410 -0.1746
11050TIP3    H233073   2.768   4.433   4.349 -1.0034 -0.2165 -1.0178
11051TIP3   OH233074   2.257   3.231   6.208  0.1390  0.3107 -0.3385
11051TIP3    H133075   2.272   3.212   6.115 -1.4535  0.1646 -0.5653
11051TIP3    H233076   2.176   3.186   6.229  2.2693 -2.6192  2.0568
11052TIP3   OH233077   1.348   2.855   7.173 -0.1034 -0.6168  0.0137
11052TIP3    H133078   1.439   2.881   7.156 -0.5458 -0.8197 -3.0729
11052TIP3    H233079   1.350   2.760   7.176 -0.3956 -0.6913 -1.5446
11053TIP3   OH233080   4.406   2.813   6.453  0.4512  0.2779  0.5718
11053TIP3    H133081   4.372   2.743   6.508 -0.1491 -1.2494 -1.6662
11053TIP3    H233082   4.327   2.855   6.417  0.8269  1.5182  1.1613
11054TIP3   OH233083   3.015   8.146   1.483  0.2836  0.5342  0.5367
11054TIP3    H133084   3.086   8.175   1.426 -1.1252  0.2874 -1.4284
11054TIP3    H233085   2.994   8.058   1.452 -0.8184  0.5777  1.1306
11055TIP3   OH233086   0.484   2.223   7.134 -0.2094 -0.0157  0.1382
11055TIP3    H133087   0.538   2.221   7.212  4.3769  0.5195 -2.8639
11055TIP3    H233088   0.426   2.299   7.147  1.1739  0.6832  2.5353
11056TIP3   OH233089   7.450   3.857   6.263 -0.4504 -0.2201 -0.3946
11056TIP3    H133090   7.364   3.900   6.260 -0.5145 -0.3984 -1.3651
11056TIP3    H233091   7.444   3.788   6.196 -0.2198 -1.4991  0.8697
11057TIP3   OH233092   5.446   0.213   1.447 -0.3615  0.4925 -0.1602
11057TIP3    H133093   5.416   0.235   1.359 -2.7003 -0.6885  0.2777
11057TIP3    H233094   5.541   0.207   1.439 -0.6590 -1.8579 -3.1800
11058TIP3   OH233095   1.292   3.804   6.377 -0.0094 -0.6739  0.4372
11058TIP3    H133096   1.272   3.807   6.470 -0.4689 -1.8983  0.3886
11058TIP3    H233097   1.388   3.803   6.373  0.0107 -0.5213  0.8893
11059TIP3   OH233098   6.089   0.712   0.062  0.4471 -0.0630  0.2159
11059TIP3    H133099   6.031   0.773   0.107  0.6828  1.4521 -1.4817
11059TIP3    H233100   6.146   0.768   0.008  1.6844 -1.6822 -0.2030
11060TIP3   OH233101   3.382   7.637   0.667  0.2822 -0.2628  0.7038
11060TIP3    H133102   3.309   7.684   0.707  2.2339  0.6206  3.3976
11060TIP3    H233103   3.378   7.550   0.705  0.0464 -0.5168  0.0970
11061TIP3   OH233104   4.610   8.247   1.091  0.1921 -0.5526  0.0918
11061TIP3    H133105   4.678   8.305   1.056  0.0712  1.0995  2.4939
11061TIP3    H233106   4.528   8.291   1.069 -0.0174 -1.2371 -0.5176
11062TIP3   OH233107   2.101   2.634   5.344 -0.9342 -0.0944  0.1754
11062TIP3    H133108   2.139   2.566   5.287 -0.2367 -0.0891  0.6299
11062TIP3    H233109   2.146   2.714   5.319 -1.3636  0.1008  0.0247
11063TIP3   OH233110   2.751   2.521   6.311 -0.6429  0.5486  0.1595
11063TIP3    H133111   2.742   2.599   6.255 -0.9805 -0.0744 -0.6624
11063TIP3    H233112   2.688   2.534   6.382 -2.5417 -0.1599 -1.3535
11064TIP3   OH233113   4.473   7.843   1.744  0.1620  0.2119  0.5731
11064TIP3    H133114   4.565   7.848   1.769 -0.2456 -1.7671  2.5199
11064TIP3    H233115   4.430   7.908   1.798  0.0555 -0.5313  1.3849
11065TIP3   OH233116   3.113   2.011   7.069  0.1344  0.4263 -0.1185
11065TIP3    H133117   3.093   2.046   7.156  1.4567  0.7790  0.0471
11065TIP3    H233118   3.127   2.088   7.014  0.6081  0.1915 -0.3312
11066TIP3   OH233119   4.883   1.064   4.890  0.2500 -0.3476 -0.4631
11066TIP3    H133120   4.850   1.150   4.864 -0.6451 -1.0619 -1.7411
11066TIP3    H233121   4.917   1.078   4.979 -2.0710  0.7778  0.3121
11067TIP3   OH233122   1.243   1.850   6.800 -0.0891 -0.0389 -0.1134
11067TIP3    H133123   1.295   1.780   6.841  0.4064  0.6479  0.4399
11067TIP3    H233124   1.308   1.907   6.760 -0.5561 -0.5166 -1.5638
11068TIP3   OH233125   0.752   2.391   6.873 -0.6553 -0.0277  0.0797
11068TIP3    H133126   0.808   2.314   6.881 -0.0462  0.1785 -1.9436
11068TIP3    H233127   0.663   2.356   6.872 -0.4101 -0.6564 -0.0568
11069TIP3   OH233128   4.974   5.049   0.756 -0.0899 -0.3828  0.1849
11069TIP3    H133129   4.879   5.061   0.763  0.0403  0.8683 -0.0805
11069TIP3    H233130   4.998   5.094   0.675  0.7737 -0.4528  0.3963
11070TIP3   OH233131   5.965   5.135   1.568  0.0909 -0.2701  0.3318
11070TIP3    H133132   6.017   5.084   1.506  0.5715 -0.3369  0.7923
11070TIP3    H233133   5.901   5.181   1.513  1.7827  1.2395 -0.4218
11071TIP3   OH233134   2.407   0.669   6.333  0.9376 -0.0901  0.6642
11071TIP3    H133135   2.409   0.602   6.265 -0.6944  0.0166  0.4860
11071TIP3    H233136   2.472   0.733   6.305  0.3750 -0.1090 -0.7418
11072TIP3   OH233137   1.060   1.702   6.660 -0.7171  0.2229 -0.3317
11072TIP3    H133138   1.142   1.746   6.683 -1.1259  0.2527  1.1185
11072TIP3    H233139   0.992   1.757   6.700 -1.4722  0.3698 -1.7925
11073TIP3   OH233140   4.588   2.403   6.904 -0.3595 -0.0237  0.1097
11073TIP3    H133141   4.649   2.440   6.840 -1.6757 -0.8608 -1.6569
11073TIP3    H233142   4.640   2.337   6.951  1.1317  1.8774  1.2062
11074TIP3   OH233143   5.194   8.340   1.328 -0.2511 -0.2519 -0.4886
11074TIP3    H133144   5.269   8.288   1.298  1.2605  1.2597  0.5634
11074TIP3    H233145   5.188   8.320   1.422  0.0571  1.1114 -0.1733
11075TIP3   OH233146   5.450   5.384   0.360 -0.2844  0.1728 -0.2682
11075TIP3    H133147   5.485   5.470   0.335 -2.7984  1.5270  0.6094
11075TIP3    H233148   5.526   5.335   0.390  1.1350  2.2988 -0.2376
11076TIP3   OH233149   4.286   6.407   1.106 -0.3007  0.8285  0.2781
11076TIP3    H133150   4.225   6.336   1.127  0.4056  0.2528  0.4285
11076TIP3    H233151   4.300   6.451   1.189  0.4678  0.1706  0.5045
11077TIP3   OH233152   4.779   2.756   7.107  0.2277  0.1058  0.4501
11077TIP3    H133153   4.735   2.787   7.186 -2.0112 -1.1146 -0.2671
11077TIP3    H233154   4.823   2.833   7.071  0.0761  0.9696  2.1054
11078TIP3   OH233155   4.472   1.786   7.008 -0.5370 -0.3428 -0.0846
11078TIP3    H133156   4.430   1.872   6.997 -0.4011 -0.7044 -4.5327
11078TIP3    H233157   4.537   1.800   7.077 -1.3337  2.8298  0.1222
11079TIP3   OH233158   3.880   6.446   1.176  0.3614 -0.0012  0.3105
11079TIP3    H133159   3.852   6.492   1.256  2.6806  0.5371  0.8560
11079TIP3    H233160   3.913   6.516   1.119  0.2026 -0.5673 -0.4785
11080TIP3   OH233161   3.823   7.231   1.510  0.0121  0.3104 -0.6018
11080TIP3    H133162   3.868   7.161   1.557  0.2184  1.3154  0.7417
11080TIP3    H233163   3.730   7.211   1.520  0.0326  0.8507  0.8026
11081TIP3   OH233164   5.007   6.508   2.333  0.6268 -0.5529  0.0599
11081TIP3    H133165   5.011   6.483   2.241 -1.2664 -0.9997  0.0670
11081TIP3    H233166   5.064   6.584   2.341  2.5714 -1.8594 -1.0059
11082TIP3   OH233167   3.197   4.609   1.892 -0.0257  0.1715 -0.4984
11082TIP3    H133168   3.166   4.693   1.858  2.6635  0.9780 -1.0631
11082TIP3    H233169   3.191   4.549   1.818 -2.0916 -0.2382 -0.0561
11083TIP3   OH233170   8.699   3.498   7.172  0.0351 -0.4344 -0.6515
11083TIP3    H133171   8.712   3.519   7.264 -0.2714 -1.2983 -0.4064
11083TIP3    H233172   8.778   3.530   7.129  1.3184 -2.2588  0.2831
11084TIP3   OH233173   2.120   7.264   1.715 -0.1951  0.4108  0.2749
11084TIP3    H133174   2.160   7.339   1.672  1.0312 -0.9826 -1.0602
11084TIP3    H233175   2.056   7.232   1.652 -1.3851  0.8781  1.2230
11085TIP3   OH233176   6.337   0.252   0.242 -0.0464  0.1487  0.3105
11085TIP3    H133177   6.376   0.188   0.182  2.0671  2.2287 -0.6034
11085TIP3    H233178   6.371   0.227   0.328 -0.5127 -0.9081  0.1966
11086TIP3   OH233179   5.867   0.565   0.847 -0.2591 -0.7011  0.9730
11086TIP3    H133180   5.779   0.590   0.821  0.1486 -0.3980 -0.1516
11086TIP3    H233181   5.912   0.649   0.863  0.5352 -0.7565 -0.8713
11087TIP3   OH233182   1.611   1.702   5.962  0.1166 -0.3967 -0.0356
11087TIP3    H133183   1.564   1.751   5.894  0.9753  0.3988 -0.0559
11087TIP3    H233184   1.543   1.650   6.005 -1.0181  1.7108  0.7803
11088TIP3   OH233185   1.007   1.707   6.375 -0.8932  0.1985  0.0099
11088TIP3    H133186   0.957   1.787   6.362  2.3074  2.9430  3.4717
11088TIP3    H233187   1.007   1.694   6.470  1.5138 -2.0082 -0.2329
11089TIP3   OH233188   0.879   3.643   4.387  0.3618  0.2233  0.1052
11089TIP3    H133189   0.835   3.558   4.382 -0.0861  0.3798  1.1024
11089TIP3    H233190   0.817   3.704   4.346 -0.4676  0.4695  1.6460
11090TIP3   OH233191   7.162   3.614   5.437  0.1284 -0.1462  0.0395
11090TIP3    H133192   7.127   3.526   5.452 -1.9286  0.5205 -0.6531
11090TIP3    H233193   7.183   3.646   5.525 -0.7121 -0.7005  0.4545
11091TIP3   OH233194   5.518   6.647   1.565 -0.1563  0.3305  0.2296
11091TIP3    H133195   5.552   6.615   1.648 -2.5672  0.2666  1.2376
11091TIP3    H233196   5.500   6.740   1.581 -0.2025  0.4211 -0.3422
11092TIP3   OH233197   2.103   3.641   6.270  0.0205  0.1931 -0.5788
11092TIP3    H133198   2.126   3.550   6.287 -0.6032  0.0601 -0.4502
11092TIP3    H233199   2.176   3.691   6.308 -1.4033 -0.0826  2.6614
11093TIP3   OH233200   8.560   0.576   1.279  0.7530  0.4723  0.4178
11093TIP3    H133201   8.504   0.505   1.250  1.2069 -0.2515  1.2899
11093TIP3    H233202   8.504   0.631   1.333  0.0466  1.5281 -1.3528
11094TIP3   OH233203   1.365   2.367   6.947  0.4971  0.0326  0.3281
11094TIP3    H133204   1.428   2.384   6.877 -0.0388 -1.6962 -0.5819
11094TIP3    H233205   1.362   2.449   6.996  1.0250  1.2090 -1.5536
11095TIP3   OH233206   4.823   6.927   0.065 -0.9085 -0.4200 -0.0761
11095TIP3    H133207   4.914   6.956   0.066 -0.5016 -1.6124 -1.2885
11095TIP3    H233208   4.783   6.971   0.140 -0.1864  2.7651 -1.4802
11096TIP3   OH233209   2.346   2.020   6.193 -0.0525 -0.2640 -0.6682
11096TIP3    H133210   2.416   1.955   6.195 -0.5843 -0.8205  0.6128
11096TIP3    H233211   2.318   2.022   6.102 -0.1535 -2.0063 -0.7066
11097TIP3   OH233212   0.085   2.520   7.100 -0.0652 -0.0707  0.7184
11097TIP3    H133213   0.121   2.609   7.101  0.6820 -0.3727  0.7328
11097TIP3    H233214   0.019   2.522   7.030 -0.5730  0.6964  1.2129
11098TIP3   OH233215   0.758   1.322   6.653 -0.6695 -0.1756 -0.0003
11098TIP3    H133216   0.778   1.280   6.569  0.9197 -0.1084  0.3354
11098TIP3    H233217   0.839   1.365   6.678 -0.7296 -1.3707  2.2881
11099TIP3   OH233218   8.207   2.548   6.401  0.0770 -0.0810  0.1196
11099TIP3    H133219   8.212   2.628   6.453  0.2412  0.2476 -0.3891
11099TIP3    H233220   8.188   2.479   6.464  0.5697  0.2631  0.6518
11100TIP3   OH233221   3.251   7.537   1.070  0.4345  0.3313 -0.3139
11100TIP3    H133222   3.208   7.452   1.081 -1.7509  1.6229  1.5248
11100TIP3    H233223   3.217   7.570   0.986 -0.6813  0.4709  0.1806
11101TIP3   OH233224   3.194   7.782   0.401  0.9734  0.7330  0.0698
11101TIP3    H133225   3.146   7.725   0.461  0.1827  1.2566 -0.0607
11101TIP3    H233226   3.286   7.766   0.422  0.6944  2.2014  2.6269
11102TIP3   OH233227   6.848   0.446   1.399  0.2770  0.3815 -0.5232
11102TIP3    H133228   6.836   0.401   1.482 -2.1364 -0.7206 -1.4200
11102TIP3    H233229   6.903   0.522   1.420  2.3784 -1.6283  1.4440
11103TIP3   OH233230   2.662   2.291   6.118  0.6554  0.0434 -0.5155
11103TIP3    H133231   2.623   2.362   6.067 -4.7338 -1.3640  1.3302
11103TIP3    H233232   2.721   2.334   6.179 -1.1052  2.8197 -0.7038
11104TIP3   OH233233   3.479   7.796   0.454  0.0246 -0.1044  0.2264
11104TIP3    H133234   3.465   7.736   0.527 -0.7763  0.2726  0.3895
11104TIP3    H233235   3.568   7.827   0.465  0.0293 -0.3317  0.8416
11105TIP3   OH233236   3.435   6.889   0.157 -0.2503  0.3318 -0.7191
11105TIP3    H133237   3.357   6.938   0.133 -1.8305 -1.4123  0.6866
11105TIP3    H233238   3.449   6.909   0.250  1.7731  1.6784 -1.2876
11106TIP3   OH233239   4.418   5.406   5.720  0.0185 -0.0928  0.5287
11106TIP3    H133240   4.433   5.330   5.663  1.0204  0.1194  0.4950
11106TIP3    H233241   4.405   5.479   5.660 -2.7519 -0.5378  0.5315
11107TIP3   OH233242   5.379   7.937   0.924 -0.1332  0.3266  0.4164
11107TIP3    H133243   5.437   7.863   0.910  0.6528  0.5481  2.3844
11107TIP3    H233244   5.291   7.901   0.915  0.2460 -0.7962  1.1656
11108TIP3   OH233245   1.392   2.982   6.220 -0.3050  0.1664 -0.3349
11108TIP3    H133246   1.460   3.020   6.165 -1.1140 -0.0754 -1.5397
11108TIP3    H233247   1.436   2.957   6.301  0.7867  1.0906 -0.6414
11109TIP3   OH233248   0.819   3.839   6.535 -0.6811 -0.4053  0.3345
11109TIP3    H133249   0.731   3.829   6.499 -0.8400 -0.6144  0.7858
11109TIP3    H233250   0.826   3.770   6.601 -0.2262 -0.3048  0.3900
11110TIP3   OH233251   2.124   3.420   5.934 -0.5378  0.1716  0.1170
11110TIP3    H133252   2.126   3.514   5.914  1.3716  0.3756  1.1237
11110TIP3    H233253   2.173   3.412   6.016  0.8106 -1.9024 -0.8464
11111TIP3   OH233254   5.699   7.531   1.227  0.0505 -0.5899 -0.3440
11111TIP3    H133255   5.653   7.501   1.305  1.3209 -4.1590 -0.8363
11111TIP3    H233256   5.630   7.552   1.164 -0.9808  2.2559  1.6648
11112TIP3   OH233257   8.289   5.697   0.817  0.2967 -0.2043  0.0772
11112TIP3    H133258   8.232   5.768   0.847  0.6244 -0.0098  0.2408
11112TIP3    H233259   8.308   5.646   0.896 -0.3632 -0.7786 -0.1323
11113TIP3   OH233260   4.502   2.755   6.027  0.0134  0.3005  0.0140
11113TIP3    H133261   4.588   2.729   5.994  0.8149  0.0603  2.2018
11113TIP3    H233262   4.519   2.832   6.082 -1.2503  0.6095 -0.0064
11114TIP3   OH233263   6.679   6.882   1.893  0.1989  0.6706  0.0895
11114TIP3    H133264   6.742   6.824   1.935 -0.2033 -0.3131 -0.6368
11114TIP3    H233265   6.620   6.910   1.963 -0.1860 -0.5701  0.2633
11115TIP3   OH233266   6.074   2.482   6.691 -0.4602  0.4295  0.1148
11115TIP3    H133267   6.134   2.408   6.684 -0.9395  0.0984 -0.5468
11115TIP3    H233268   6.028   2.484   6.607 -1.7068  0.3878  0.7799
11116TIP3   OH233269   2.004   2.920   5.714 -0.5931 -0.0035  0.0702
11116TIP3    H133270   2.041   2.963   5.791  1.0576  2.8209 -2.1503
11116TIP3    H233271   1.910   2.915   5.732 -0.5503  2.6957  1.3436
11117TIP3   OH233272   6.398   4.817   2.189 -0.2382 -0.4769 -0.6482
11117TIP3    H133273   6.467   4.823   2.255 -0.0516 -1.0619 -0.7915
11117TIP3    H233274   6.444   4.810   2.105 -0.4671 -1.0598 -0.7299
11118TIP3   OH233275   6.902   7.421   1.021 -0.3785  0.4481 -0.1370
11118TIP3    H133276   6.887   7.474   0.942  0.6661 -0.7108 -1.1434
11118TIP3    H233277   6.919   7.333   0.987 -1.1084 -0.3214  1.4633
11119TIP3   OH233278   1.719   3.510   7.216 -0.4478 -0.2562  0.5007
11119TIP3    H133279   1.647   3.545   7.164 -0.4017 -0.0679  0.5657
11119TIP3    H233280   1.748   3.583   7.270  0.5379 -0.0218 -0.3349
11120TIP3   OH233281   8.359   6.536   1.418  0.2400  0.0674  0.2532
11120TIP3    H133282   8.435   6.593   1.427  1.2100 -1.0447 -0.5912
11120TIP3    H233283   8.354   6.519   1.324 -0.7583 -0.2627  0.3661
11121TIP3   OH233284   5.074   0.261   5.692  0.3796 -0.1665 -0.4651
11121TIP3    H133285   5.085   0.235   5.783  0.2862  0.4050 -0.2880
11121TIP3    H233286   5.004   0.206   5.659 -0.8803  0.9316  0.3425
11122TIP3   OH233287   2.641   8.037   5.382  0.1376  0.4152 -0.0015
11122TIP3    H133288   2.704   7.965   5.388 -1.8580 -1.2214  2.0993
11122TIP3    H233289   2.611   8.049   5.472 -2.1823  1.5179 -0.8956
11123TIP3   OH233290   7.573   0.398   0.629  0.2335  0.2534 -0.3051
11123TIP3    H133291   7.552   0.365   0.716  0.0548  2.0799  0.3784
11123TIP3    H233292   7.666   0.379   0.618  0.4045  0.5563  0.5510
11124TIP3   OH233293   5.289   7.111   0.429 -0.0476  0.1108  0.2459
11124TIP3    H133294   5.318   7.131   0.340  1.3728 -1.3528  0.3535
11124TIP3    H233295   5.370   7.101   0.479 -0.8242  0.0959  1.5213
11125TIP3   OH233296   4.896   2.942   6.119  0.0181  0.5460  0.1843
11125TIP3    H133297   4.917   2.961   6.211  0.9895 -1.5992  0.4389
11125TIP3    H233298   4.804   2.964   6.111 -0.3015 -0.0467  1.9180
11126TIP3   OH233299   4.303   0.803   7.002 -0.5790  0.3401 -0.2776
11126TIP3    H133300   4.340   0.890   7.018 -2.1630  1.0505 -0.4100
11126TIP3    H233301   4.303   0.795   6.906  3.5134 -1.5692 -0.2385
11127TIP3   OH233302   5.920   2.729   6.666  0.1497  0.2132 -0.2440
11127TIP3    H133303   5.842   2.695   6.622 -0.1238  1.7532 -0.9905
11127TIP3    H233304   5.952   2.656   6.719 -1.7625 -0.4486  0.0255
11128TIP3   OH233305   4.933   7.475   0.487 -0.2435 -0.3153  0.6070
11128TIP3    H133306   4.843   7.507   0.495 -0.5637 -1.2824  1.0321
11128TIP3    H233307   4.988   7.550   0.510 -0.9222  0.4714 -0.3219
11129TIP3   OH233308   0.706   2.722   6.289 -0.3070 -0.3456 -0.2953
11129TIP3    H133309   0.782   2.740   6.233 -0.1831 -0.4114 -0.1472
11129TIP3    H233310   0.647   2.796   6.274  1.0022  1.1408  1.7297
11130TIP3   OH233311   2.161   3.821   6.827 -0.1804  0.2194 -0.3740
11130TIP3    H133312   2.203   3.848   6.909 -2.2580  2.1598  0.1066
11130TIP3    H233313   2.223   3.847   6.759  1.4512 -1.1786  0.5445
11131TIP3   OH233314   1.232   1.937   5.738 -0.5512 -0.5918 -1.0523
11131TIP3    H133315   1.141   1.960   5.756 -0.5380 -0.4934 -1.1134
11131TIP3    H233316   1.234   1.917   5.645 -0.4489 -0.3062 -1.1109
11132TIP3   OH233317   0.862   2.490   6.635 -0.0261 -0.2715  0.3349
11132TIP3    H133318   0.950   2.514   6.665 -0.3239 -0.5506  1.4901
11132TIP3    H233319   0.811   2.484   6.716 -0.9520 -0.7234 -0.2779
11133TIP3   OH233320   8.286   7.215   1.157 -0.7875  0.4712  0.2903
11133TIP3    H133321   8.266   7.300   1.196  0.5858  0.9782 -0.0853
11133TIP3    H233322   8.317   7.161   1.230  0.0733  0.8675  0.2289
11134TIP3   OH233323   4.289   0.671   5.677  0.3000  0.2242 -0.1437
11134TIP3    H133324   4.226   0.725   5.630 -1.7396 -1.2026  0.8568
11134TIP3    H233325   4.264   0.679   5.769  1.1934 -0.8599  0.2090
11135TIP3   OH233326   6.590   3.423   2.868 -0.3688 -0.4418 -0.4709
11135TIP3    H133327   6.646   3.410   2.791 -0.6315  0.1899 -0.7768
11135TIP3    H233328   6.501   3.422   2.832 -0.4398  1.4174 -0.4274
11136TIP3   OH233329   1.638   3.192   5.009 -0.1316 -0.0918  0.0527
11136TIP3    H133330   1.585   3.270   5.020  0.8829  1.1418 -3.2226
11136TIP3    H233331   1.628   3.169   4.916  1.6112 -2.3365  0.3817
11137TIP3   OH233332   4.884   7.137   1.007  0.3039 -0.2614 -0.2528
11137TIP3    H133333   4.852   7.055   0.970 -0.6111  0.8922 -2.1363
11137TIP3    H233334   4.899   7.193   0.930 -0.5075  1.8043  1.0459
11138TIP3   OH233335   2.569   3.419   5.526 -0.1611  0.1388 -0.2559
11138TIP3    H133336   2.631   3.399   5.596 -1.8286  0.0724  1.2469
11138TIP3    H233337   2.603   3.499   5.487  1.3953 -0.4257 -0.1035
11139TIP3   OH233338   6.508   3.697   2.714  0.7083  0.6148  0.2664
11139TIP3    H133339   6.530   3.678   2.805  2.6513  0.3665 -0.2210
11139TIP3    H233340   6.437   3.637   2.692  0.1631  0.7532  1.6468
11140TIP3   OH233341   1.463   2.013   6.758  0.6223  0.0580 -0.4158
11140TIP3    H133342   1.557   1.997   6.762  0.8427  0.9896 -1.6422
11140TIP3    H233343   1.441   2.055   6.841  1.0757 -1.1499  0.3394
11141TIP3   OH233344   3.768   1.015   4.906 -0.3115  0.5802 -0.3141
11141TIP3    H133345   3.683   1.059   4.918 -0.5051  0.2865 -0.5928
11141TIP3    H233346   3.746   0.922   4.904 -0.2087  0.5681 -2.2103
11142TIP3   OH233347   3.743   2.521   6.711  0.3368 -0.5850 -0.2332
11142TIP3    H133348   3.692   2.602   6.718 -0.7696 -1.3404  0.7861
11142TIP3    H233349   3.719   2.485   6.626 -1.5232 -1.3435  0.5685
11143TIP3   OH233350   4.817   3.264   6.643  0.7982 -0.3368  0.1527
11143TIP3    H133351   4.827   3.305   6.729 -0.0610 -0.3890  0.2835
11143TIP3    H233352   4.874   3.188   6.646  0.4804 -0.5599  0.8282
11144TIP3   OH233353   4.775   2.583   6.775  0.0665 -0.0547  0.1439
11144TIP3    H133354   4.765   2.537   6.692 -1.1284 -1.8417  1.2337
11144TIP3    H233355   4.700   2.643   6.779 -0.3177 -0.5338  0.2606
11145TIP3   OH233356   4.087   2.642   5.766  0.3506  0.0160  0.4877
11145TIP3    H133357   4.058   2.663   5.677 -0.1465  0.1985  0.6904
11145TIP3    H233358   4.170   2.688   5.776  0.1161  0.4727  0.3232
11146TIP3   OH233359   0.522   1.642   5.824  0.2562  0.7653  0.0480
11146TIP3    H133360   0.511   1.723   5.873  1.4922 -0.4525  2.4520
11146TIP3    H233361   0.611   1.613   5.846 -0.4888 -1.6906 -0.0196
11147TIP3   OH233362   4.003   3.419   6.901 -0.5620 -0.1963 -0.2110
11147TIP3    H133363   4.062   3.488   6.870 -0.3477 -0.3879 -0.2301
11147TIP3    H233364   4.025   3.409   6.994  0.5054 -1.3362 -0.5699
11148TIP3   OH233365   0.788   3.245   6.716  0.6826  0.1077 -0.0000
11148TIP3    H133366   0.868   3.226   6.667 -0.6037 -1.2232 -1.6447
11148TIP3    H233367   0.819   3.278   6.800  2.9314  1.8652 -1.4673
11149TIP3   OH233368   5.303   6.804   1.256 -0.6458 -0.7608 -0.0110
11149TIP3    H133369   5.234   6.739   1.241 -1.9709  0.3512  1.0238
11149TIP3    H233370   5.383   6.763   1.224 -1.0992 -3.6658  2.3392
11150TIP3   OH233371   8.052   7.582   0.287  0.3836 -0.0984  0.0027
11150TIP3    H133372   8.095   7.570   0.203 -1.1709  1.1742 -0.9901
11150TIP3    H233373   7.970   7.533   0.280  0.2191  0.0515  0.7548
11151TIP3   OH233374   8.173   6.743   1.415 -0.2238 -0.6199 -0.2819
11151TIP3    H133375   8.261   6.710   1.434  0.3165  0.8916 -0.0068
11151TIP3    H233376   8.179   6.775   1.325 -0.1243  0.5777  0.1344
11152TIP3   OH233377   2.640   1.880   5.249  0.4475 -0.1463  0.1444
11152TIP3    H133378   2.555   1.923   5.238  0.9592  0.7703 -0.2234
11152TIP3    H233379   2.639   1.847   5.339 -0.3269 -0.1989  0.1179
11153TIP3   OH233380   2.486   2.077   5.547 -0.8058  0.4672 -0.4196
11153TIP3    H133381   2.578   2.051   5.553 -0.6118  1.3689  0.6384
11153TIP3    H233382   2.480   2.124   5.464 -0.6680 -0.9567 -1.2533
11154TIP3   OH233383   5.820   7.285   0.262  0.4464  0.2811 -0.1299
11154TIP3    H133384   5.873   7.212   0.229 -1.1491 -0.4355 -1.2057
11154TIP3    H233385   5.825   7.351   0.193 -1.6496 -0.6049 -1.1986
11155TIP3   OH233386   2.813   3.761   5.193  0.3388  0.2797 -0.0047
11155TIP3    H133387   2.786   3.672   5.172  1.5250 -0.2187  0.5504
11155TIP3    H233388   2.754   3.817   5.142 -0.6636 -0.8098 -0.0507
11156TIP3   OH233389   5.197   1.348   7.221 -0.3963  0.0379 -0.1938
11156TIP3    H133390   5.199   1.282   7.152  1.1344  1.6106 -1.7017
11156TIP3    H233391   5.195   1.432   7.175  0.8977  1.1329  1.6372
11157TIP3   OH233392   3.176   3.688   5.779  0.4987  0.2305 -0.1938
11157TIP3    H133393   3.176   3.734   5.863 -1.3574 -1.9031  1.0497
11157TIP3    H233394   3.158   3.756   5.715 -0.5187  1.5302  1.4102
11158TIP3   OH233395   3.663   2.717   6.280 -0.0381 -0.2034 -0.0071
11158TIP3    H133396   3.619   2.705   6.195 -1.0514 -0.7701  0.5918
11158TIP3    H233397   3.616   2.790   6.321  2.0407  1.7138 -0.9634
11159TIP3   OH233398   8.527   4.539   1.446  0.0248  0.9947  0.1161
11159TIP3    H133399   8.522   4.479   1.372  0.6265  1.1670 -0.0632
11159TIP3    H233400   8.442   4.529   1.490  0.5719 -0.9041  0.7974
11160TIP3   OH233401   6.910   3.919   1.044  0.2589 -0.4766  0.4661
11160TIP3    H133402   6.962   3.966   1.109 -1.7792 -0.1365  1.8925
11160TIP3    H233403   6.882   3.839   1.088 -1.6169  0.0187  0.2481
11161TIP3   OH233404   4.361   1.863   4.227 -0.2301 -0.7660  0.6240
11161TIP3    H133405   4.426   1.800   4.257  2.2264  1.8109  0.8939
11161TIP3    H233406   4.342   1.916   4.304  1.3768  1.8735 -0.7225
11162TIP3   OH233407   4.060   1.771   7.204  0.4288  0.1676 -0.2154
11162TIP3    H133408   4.087   1.863   7.197 -1.4913  0.7213 -0.7615
11162TIP3    H233409   4.025   1.763   7.292  0.2146  0.0605 -0.3118
11163TIP3   OH233410   4.437   8.112   1.426 -0.0960  0.1773 -0.2258
11163TIP3    H133411   4.531   8.128   1.431 -0.3069  2.1511 -2.0769
11163TIP3    H233412   4.399   8.171   1.491 -0.2903  1.7839 -1.7751
11164TIP3   OH233413   3.515   3.610   6.029 -0.0363 -0.3822  0.0315
11164TIP3    H133414   3.498   3.595   5.936 -3.0190  0.9362  0.3317
11164TIP3    H233415   3.429   3.620   6.068  1.2077 -0.3181  2.8692
11165TIP3   OH233416   1.341   3.334   5.901 -0.5531 -0.2595  0.0250
11165TIP3    H133417   1.254   3.311   5.933 -0.2268 -0.7706  0.5447
11165TIP3    H233418   1.376   3.393   5.968  0.1931 -1.4607  0.7165
11166TIP3   OH233419   5.801   5.494   0.045  0.2461 -0.5926 -0.4873
11166TIP3    H133420   5.780   5.576   0.091 -2.8373 -0.8720 -1.2806
11166TIP3    H233421   5.772   5.509  -0.045  0.9298 -2.0965 -0.9698
11167TIP3   OH233422   3.540   2.801   6.741  0.0589 -0.0948 -0.0448
11167TIP3    H133423   3.495   2.804   6.657  0.1260  0.6517 -0.0537
11167TIP3    H233424   3.612   2.863   6.732  1.3627 -1.5884 -0.1838
11168TIP3   OH233425   5.885   6.910   0.947 -0.5766 -0.5098  0.2895
11168TIP3    H133426   5.828   6.861   1.006 -1.5855 -1.1919 -1.2043
11168TIP3    H233427   5.910   6.988   0.997 -0.1398 -1.8278  2.1453
11169TIP3   OH233428   4.679   1.796   6.128  0.2330  0.1929  0.8698
11169TIP3    H133429   4.751   1.763   6.182  0.5366  0.9162  0.9089
11169TIP3    H233430   4.629   1.853   6.186  0.8617  1.3898  0.2537
11170TIP3   OH233431   2.335   2.642   6.564 -0.0812  0.1170  0.0014
11170TIP3    H133432   2.252   2.606   6.534  0.4500 -1.3434  0.2015
11170TIP3    H233433   2.334   2.734   6.537 -0.9627 -0.3724 -1.6593
11171TIP3   OH233434   2.245   2.802   7.153  0.0541  0.6481  0.1674
11171TIP3    H133435   2.202   2.839   7.230 -1.5945  0.7353 -0.7995
11171TIP3    H233436   2.327   2.851   7.146  0.7983 -0.1809  2.5746
11172TIP3   OH233437   5.593   6.973   0.255  0.1895 -0.3624 -0.3955
11172TIP3    H133438   5.538   7.025   0.197  0.1866 -0.0991 -0.1550
11172TIP3    H233439   5.545   6.890   0.266 -0.3038 -0.0274  0.0433
11173TIP3   OH233440   4.771   0.507   6.823  0.4445  0.2751 -0.1054
11173TIP3    H133441   4.746   0.586   6.870  0.7130 -0.4818  1.3465
11173TIP3    H233442   4.834   0.464   6.881 -0.3852 -1.4538 -0.4502
11174TIP3   OH233443   1.479   1.465   6.629  0.0337  0.4440  0.5849
11174TIP3    H133444   1.469   1.484   6.536  1.8928 -1.2629  0.0019
11174TIP3    H233445   1.399   1.417   6.653 -0.6905  1.3568  0.0107
11175TIP3   OH233446   8.429   6.029   0.603  0.3365  0.1355 -0.4272
11175TIP3    H133447   8.477   5.947   0.611 -0.4192 -0.2025  0.9107
11175TIP3    H233448   8.491   6.096   0.630  0.6878 -0.0882 -0.6786
11176TIP3   OH233449   7.050   5.726   0.377 -0.6410  0.1830  0.3641
11176TIP3    H133450   7.105   5.731   0.299 -1.8358 -1.5622 -0.6210
11176TIP3    H233451   7.109   5.747   0.450  0.6521  1.0798 -0.9308
11177TIP3   OH233452   1.816   2.612   5.261  0.4116  0.3107  0.0677
11177TIP3    H133453   1.835   2.531   5.214  0.6126 -0.0542  0.7618
11177TIP3    H233454   1.896   2.629   5.312  0.2574  0.7775  0.1544
11178TIP3   OH233455   8.365   0.246   0.586  0.0368  0.4860 -0.4701
11178TIP3    H133456   8.447   0.284   0.557  0.0773  1.1423  0.5163
11178TIP3    H233457   8.354   0.276   0.676 -0.8053 -0.3786 -0.2725
11179TIP3   OH233458   6.486   6.941   2.111  0.3427  0.2376 -0.3995
11179TIP3    H133459   6.408   6.889   2.131  0.5166  0.8387  2.0074
11179TIP3    H233460   6.457   7.032   2.123  1.6401  0.4306  1.4228
11180TIP3   OH233461   4.298   3.477   5.786 -0.2510 -0.0665 -0.2739
11180TIP3    H133462   4.392   3.471   5.768  0.0719 -0.3828  1.4567
11180TIP3    H233463   4.265   3.389   5.770 -0.1269 -0.1335 -0.1562
11181TIP3   OH233464   4.666   2.205   6.134 -0.2692  0.1122 -0.1393
11181TIP3    H133465   4.610   2.145   6.183 -0.2550 -0.4099 -0.7528
11181TIP3    H233466   4.621   2.290   6.140 -0.9061 -0.2091 -0.2580
11182TIP3   OH233467   4.109   3.829   6.399  0.3592 -0.9282  0.1273
11182TIP3    H133468   4.016   3.821   6.420 -0.3389  0.2148 -2.3643
11182TIP3    H233469   4.113   3.818   6.305  2.2724  2.6628 -0.2842
11183TIP3   OH233470   3.364   2.154   7.196 -0.0738 -0.0742  0.3720
11183TIP3    H133471   3.307   2.115   7.130 -0.9722 -0.3393  1.2850
11183TIP3    H233472   3.329   2.242   7.209 -0.5652 -0.3885  1.2501
11184TIP3   OH233473   0.331   7.287   0.701  0.6944  0.0430  0.1255
11184TIP3    H133474   0.393   7.283   0.629  1.8235 -0.4724  1.1166
11184TIP3    H233475   0.306   7.380   0.706 -0.3613 -0.1148 -1.7101
11185TIP3   OH233476   3.825   2.028   7.037  0.3380 -0.0165 -0.0524
11185TIP3    H133477   3.836   1.934   7.053 -1.4873 -0.3286 -0.5923
11185TIP3    H233478   3.905   2.067   7.074  1.3840 -1.8136 -0.3306
11186TIP3   OH233479   7.305   6.992   0.297 -0.1182 -0.2852 -0.5172
11186TIP3    H133480   7.289   6.935   0.373 -1.4956  0.7083 -0.0395
11186TIP3    H233481   7.278   6.939   0.222 -0.2438 -0.7012 -0.1859
11187TIP3   OH233482   5.447   2.150   5.730  0.1599 -0.0371 -0.1990
11187TIP3    H133483   5.504   2.116   5.661 -0.9819  0.3277 -1.3367
11187TIP3    H233484   5.503   2.207   5.782  0.7022  0.7583 -1.6420
11188TIP3   OH233485   5.542   4.935   1.197 -0.0352 -0.5040 -0.4440
11188TIP3    H133486   5.623   4.950   1.245 -1.0457  0.4041  1.0340
11188TIP3    H233487   5.540   5.003   1.131 -0.8630  1.1838  1.2632
11189TIP3   OH233488   5.338   4.352   6.064 -0.4423 -0.5100  0.4914
11189TIP3    H133489   5.251   4.369   6.099 -0.8253 -0.0560 -0.6488
11189TIP3    H233490   5.381   4.298   6.130 -1.4873 -0.4912  1.1912
11190TIP3   OH233491   0.521   2.222   6.865 -0.4984 -0.1584 -0.3744
11190TIP3    H133492   0.533   2.218   6.960  0.9337  2.3333 -0.4219
11190TIP3    H233493   0.432   2.255   6.854 -1.0727 -1.5048  0.0612
11191TIP3   OH233494   3.496   1.748   5.407  0.0008  0.0221 -0.0429
11191TIP3    H133495   3.587   1.723   5.425 -0.7097 -0.9484  2.3138
11191TIP3    H233496   3.499   1.784   5.318  2.7508  0.3880  0.1534
11192TIP3   OH233497   2.459   2.353   7.098 -0.3845  0.0898 -0.4879
11192TIP3    H133498   2.480   2.401   7.018  0.6663  0.7173  0.1442
11192TIP3    H233499   2.384   2.399   7.135 -0.5561  0.1042 -0.8573
11193TIP3   OH233500   0.484   7.255   0.492 -0.0163 -0.3558  0.1641
11193TIP3    H133501   0.563   7.307   0.480  0.1262 -1.0301 -2.0228
11193TIP3    H233502   0.420   7.296   0.433 -0.8018 -0.7947  0.7162
11194TIP3   OH233503   7.483   7.211   0.639 -0.7364 -0.3485 -0.3886
11194TIP3    H133504   7.421   7.281   0.620 -1.7360 -1.2794 -0.6432
11194TIP3    H233505   7.539   7.207   0.562 -1.3156 -0.4839 -0.8101
11195TIP3   OH233506   1.891   3.899   4.816 -0.1839 -0.0751 -0.8120
11195TIP3    H133507   1.808   3.922   4.774  0.0727 -0.6695 -1.6726
11195TIP3    H233508   1.950   3.971   4.793 -0.5848  0.5941  0.2108
11196TIP3   OH233509   5.510   6.549   0.123 -0.2125 -0.0749  0.3716
11196TIP3    H133510   5.499   6.644   0.134 -0.4381 -0.1068  0.4122
11196TIP3    H233511   5.474   6.530   0.037  4.0600  0.6117 -1.6782
11197TIP3   OH233512   7.249   6.997   0.022 -0.4069 -0.2260 -0.2232
11197TIP3    H133513   7.236   7.091   0.018  0.1786 -0.0390  1.6934
11197TIP3    H233514   7.163   6.959   0.005 -0.7491  0.6634 -0.4687
11198TIP3   OH233515   0.129   7.364   0.059 -0.3502 -0.5870  0.1288
11198TIP3    H133516   0.110   7.273   0.080 -1.1164 -0.3388  0.5096
11198TIP3    H233517   0.063   7.415   0.106  0.3622  0.1948  0.3078
11199TIP3   OH233518   3.009   3.695   4.625  0.0721 -0.2405  0.0279
11199TIP3    H133519   2.986   3.633   4.556  0.8406  0.2708 -0.7096
11199TIP3    H233520   3.056   3.765   4.579 -1.5550  1.3205  0.7007
11200TIP3   OH233521   5.348   6.946   0.899  0.7445 -0.4091  0.1325
11200TIP3    H133522   5.281   6.997   0.854  0.5971  0.6894  1.5473
11200TIP3    H233523   5.299   6.886   0.955  0.9304 -1.3866 -0.7338
11201TIP3   OH233524   3.072   1.797   5.041  0.1843 -0.6904  0.4840
11201TIP3    H133525   2.995   1.836   5.083  1.5827 -0.4103  2.8401
11201TIP3    H233526   3.039   1.767   4.956 -1.6761  2.6741 -0.0795
11202TIP3   OH233527   6.350   3.207   6.139 -0.4145 -0.2685  0.2611
11202TIP3    H133528   6.392   3.199   6.225  1.0199 -1.8994 -0.5692
11202TIP3    H233529   6.414   3.251   6.084 -0.9364 -0.1478 -0.2623
11203TIP3   OH233530   1.884   2.644   6.233 -0.0553  0.3132 -0.0181
11203TIP3    H133531   1.977   2.662   6.225  0.1333 -0.4399  0.4639
11203TIP3    H233532   1.868   2.570   6.173 -0.1775 -0.1029  0.5263
11204TIP3   OH233533   7.494   6.197   1.425 -0.0124  0.0856 -0.0126
11204TIP3    H133534   7.579   6.226   1.458 -0.2914 -0.5970  1.3120
11204TIP3    H233535   7.438   6.275   1.429  0.4328  0.4395 -0.5428
11205TIP3   OH233536   4.329   3.593   7.091  0.2793 -0.3748  0.2073
11205TIP3    H133537   4.374   3.595   7.007  0.4096 -0.9992  0.2565
11205TIP3    H233538   4.256   3.654   7.082  0.4807 -0.2077 -0.2521
11206TIP3   OH233539   5.990   5.616   2.609 -0.4678  0.1507  0.4793
11206TIP3    H133540   5.898   5.615   2.584 -0.6864 -1.8813  1.2376
11206TIP3    H233541   6.025   5.535   2.571  0.7537  0.4061  1.0485
11207TIP3   OH233542   5.760   6.478   0.543 -0.0347 -0.2218  0.7739
11207TIP3    H133543   5.742   6.443   0.456 -0.1054 -0.7707  1.0046
11207TIP3    H233544   5.804   6.406   0.589 -0.7258 -0.2196  1.4462
11208TIP3   OH233545   0.853   1.550   5.627 -0.1767  0.0591 -0.7586
11208TIP3    H133546   0.803   1.630   5.646  1.1028  0.3680  1.5432
11208TIP3    H233547   0.910   1.574   5.554  0.4373  1.3937  0.1279
11209TIP3   OH233548   2.531   3.284   5.305 -0.1900 -0.0313 -0.6007
11209TIP3    H133549   2.510   3.304   5.396 -2.7069 -1.5689 -0.7876
11209TIP3    H233550   2.596   3.213   5.310  1.3532  1.3889 -0.0267
11210TIP3   OH233551   3.541   7.295   2.328 -0.3515 -0.1011  0.2830
11210TIP3    H133552   3.620   7.276   2.379 -1.2247 -0.1061  1.6652
11210TIP3    H233553   3.533   7.222   2.267 -0.3641 -1.1241  1.4821
11211TIP3   OH233554   3.749   6.614   0.309  0.2713  0.1660 -0.2744
11211TIP3    H133555   3.697   6.630   0.388  0.8058  0.6657 -0.0195
11211TIP3    H233556   3.709   6.670   0.243 -0.9045 -1.1060 -0.6862
11212TIP3   OH233557   8.457   6.177   1.414 -0.8989  0.0443 -0.6312
11212TIP3    H133558   8.407   6.107   1.456 -1.6028  0.9156  0.0188
11212TIP3    H233559   8.548   6.154   1.427 -1.1139 -0.0878  0.7342
11213TIP3   OH233560   5.286   2.566   6.788 -0.0180  0.4874 -0.2158
11213TIP3    H133561   5.350   2.495   6.788  1.6084  1.9038  1.4469
11213TIP3    H233562   5.336   2.644   6.765 -1.6236  1.2370 -1.2189
11214TIP3   OH233563   1.338   2.752   6.446 -0.4459  0.2872 -0.4792
11214TIP3    H133564   1.421   2.797   6.430 -0.2080 -0.6457 -1.9796
11214TIP3    H233565   1.331   2.688   6.376 -0.5372 -2.3945  1.8851
11215TIP3   OH233566   4.893   1.353   6.569  0.3832 -0.0134 -0.1537
11215TIP3    H133567   4.847   1.271   6.585  0.7056 -0.3819 -1.0410
11215TIP3    H233568   4.983   1.336   6.596  0.3123  0.2545  0.2586
11216TIP3   OH233569   8.238   4.644   2.193  0.0441 -0.7396  0.5103
11216TIP3    H133570   8.230   4.549   2.199  0.0815 -0.8221 -0.7171
11216TIP3    H233571   8.209   4.666   2.105  1.6364  0.2194  0.1969
11217TIP3   OH233572   3.992   1.335   5.230  0.0012  0.1006 -0.0542
11217TIP3    H133573   3.922   1.400   5.233 -0.1337 -0.0173 -0.6268
11217TIP3    H233574   3.978   1.288   5.147  0.5744 -0.1204 -0.0271
11218TIP3   OH233575   2.231   2.728   6.032  0.4039  0.4523  0.0665
11218TIP3    H133576   2.208   2.780   6.108  1.3186 -0.4168  0.9630
11218TIP3    H233577   2.284   2.786   5.977 -1.4739  1.5388 -0.6255
11219TIP3   OH233578   3.704   1.345   7.147 -0.0940  0.1529 -0.4856
11219TIP3    H133579   3.628   1.290   7.129 -1.1875  1.6994 -0.6830
11219TIP3    H233580   3.779   1.288   7.132 -1.1976 -1.1114 -1.2656
11220TIP3   OH233581   3.924   1.649   6.426  0.1036 -0.1765 -0.3300
11220TIP3    H133582   3.972   1.586   6.372  1.6609 -0.0001  0.8191
11220TIP3    H233583   3.978   1.660   6.503 -1.1015  1.1474  0.3406
11221TIP3   OH233584   4.350   2.271   6.859 -0.2834 -0.0944 -0.6158
11221TIP3    H133585   4.441   2.300   6.865 -0.9685  1.8944  0.7115
11221TIP3    H233586   4.309   2.331   6.797 -1.3557  0.8695  0.9855
11222TIP3   OH233587   5.532   6.054   1.300  0.0262  0.5755 -0.1173
11222TIP3    H133588   5.597   6.097   1.245 -0.4594 -1.8376 -2.7005
11222TIP3    H233589   5.461   6.031   1.239 -1.6459  0.0255  1.9908
11223TIP3   OH233590   8.867   2.068   6.175  0.2089  0.2615  1.0293
11223TIP3    H133591   8.915   1.988   6.198  1.5283  1.1524  1.4190
11223TIP3    H233592   8.776   2.039   6.168  0.9775 -1.7951 -1.3165
11224TIP3   OH233593   3.252   3.255   5.943 -0.2117  0.2205  0.3600
11224TIP3    H133594   3.240   3.218   6.031 -1.5508  0.0467  0.1152
11224TIP3    H233595   3.226   3.347   5.952 -1.6805 -0.1341 -0.1548
11225TIP3   OH233596   3.992   6.592   0.901  0.1482  0.0942  0.3492
11225TIP3    H133597   3.907   6.587   0.856 -0.1847  0.2470  0.9491
11225TIP3    H233598   3.981   6.662   0.965  0.8911  0.4376  0.1000
11226TIP3   OH233599   6.730   6.019   0.159  0.1314 -0.1324  0.4337
11226TIP3    H133600   6.744   6.083   0.090 -2.3293  0.2330  0.2339
11226TIP3    H233601   6.686   6.068   0.229  2.8418 -0.4237  2.4130
11227TIP3   OH233602   4.353   7.618   0.486 -0.3983  0.3797 -0.2452
11227TIP3    H133603   4.404   7.671   0.424 -0.7083  1.8937  0.7535
11227TIP3    H233604   4.343   7.533   0.443 -0.3450  1.2982 -2.1270
11228TIP3   OH233605   5.872   8.332   1.093 -0.1275 -0.2888 -0.6783
11228TIP3    H133606   5.840   8.261   1.150 -3.1812  1.7813  0.2973
11228TIP3    H233607   5.841   8.308   1.006  2.2890 -2.1015 -1.1290
11229TIP3   OH233608   2.817   3.996   6.609  0.0522  0.4403  0.0528
11229TIP3    H133609   2.830   4.035   6.696 -1.6026 -0.5355  0.7686
11229TIP3    H233610   2.765   4.060   6.561 -1.9079 -0.4729  0.9290
11230TIP3   OH233611   7.760   6.495   1.005 -0.1617 -0.3550  0.2507
11230TIP3    H133612   7.808   6.440   1.067  0.7350 -0.3338 -0.4050
11230TIP3    H233613   7.682   6.523   1.052 -0.0605 -1.2778  0.9688
11231TIP3   OH233614   4.226   1.419   6.079  0.0462 -0.3660 -0.2403
11231TIP3    H133615   4.232   1.326   6.058  2.1962 -0.9187  2.5797
11231TIP3    H233616   4.166   1.454   6.013  1.4651 -3.1490 -3.1402
11232TIP3   OH233617   5.299   6.855   1.519  0.1992  1.0172  0.2921
11232TIP3    H133618   5.332   6.858   1.429 -1.2560  0.6321 -0.2783
11232TIP3    H233619   5.281   6.947   1.541 -0.7659  0.9809 -0.3258
11233TIP3   OH233620   5.375   0.836   1.823  0.0228  0.3982 -0.4999
11233TIP3    H133621   5.346   0.902   1.886  0.3648 -0.0008  0.0846
11233TIP3    H233622   5.465   0.861   1.802  0.0204  0.3444 -0.5753
11234TIP3   OH233623   7.635   7.488   0.528  0.2298  0.4182  0.0033
11234TIP3    H133624   7.631   7.443   0.443 -0.8195  1.0895 -0.3108
11234TIP3    H233625   7.720   7.531   0.528  0.0116  0.8770 -0.9594
11235TIP3   OH233626   5.936   6.683   0.388 -0.2507  0.0141  0.3960
11235TIP3    H133627   5.878   6.607   0.380 -1.8940  1.3729 -0.9964
11235TIP3    H233628   5.934   6.703   0.482  0.6774 -1.9929  0.8772
11236TIP3   OH233629   5.462   6.208   1.685 -0.3824  0.2035  0.1384
11236TIP3    H133630   5.417   6.142   1.737  0.4082 -0.3362  0.1396
11236TIP3    H233631   5.407   6.219   1.607 -0.9369  0.1362  0.5223
11237TIP3   OH233632   2.950   2.256   7.156  0.1137  0.2579  0.0001
11237TIP3    H133633   2.970   2.322   7.223 -0.1669  1.4390 -1.0494
11237TIP3    H233634   2.919   2.307   7.081  0.1558 -1.0628 -0.9354
11238TIP3   OH233635   1.104   1.413   4.489 -0.0033  0.0194  0.3317
11238TIP3    H133636   1.036   1.402   4.423 -1.3453 -0.3659  1.7317
11238TIP3    H233637   1.059   1.457   4.562  1.5822  0.9715  0.7543
11239TIP3   OH233638   1.748   1.777   7.134 -0.4773  0.0800 -0.7533
11239TIP3    H133639   1.727   1.870   7.139 -2.7754 -0.3421 -2.0117
11239TIP3    H233640   1.673   1.737   7.090  0.2998 -2.4320  0.0917
11240TIP3   OH233641   2.480   1.975   6.577 -0.0291  0.3096 -0.1974
11240TIP3    H133642   2.542   1.902   6.582 -0.8826 -0.4881 -0.8053
11240TIP3    H233643   2.522   2.038   6.519  0.3432 -0.0939 -0.3731
11241TIP3   OH233644   8.818   5.579   0.269  0.2534 -0.2102 -0.1108
11241TIP3    H133645   8.772   5.499   0.294  2.1840 -1.6493 -0.9629
11241TIP3    H233646   8.831   5.570   0.174  0.8905  0.8841 -0.1344
11242TIP3   OH233647   3.949   2.414   5.392  0.1613 -0.0438  0.3643
11242TIP3    H133648   3.999   2.496   5.400  0.3651 -0.3727  2.9616
11242TIP3    H233649   3.865   2.433   5.433 -0.5324 -0.5520 -0.8127
11243TIP3   OH233650   7.308   6.366   1.601 -0.5975  0.3791 -0.2554
11243TIP3    H133651   7.307   6.299   1.670  2.9530 -0.9111 -1.3382
11243TIP3    H233652   7.391   6.411   1.612 -1.2677  2.0839 -1.9065
11244TIP3   OH233653   6.017   5.895   0.965  0.3123 -0.2333  0.1056
11244TIP3    H133654   6.076   5.824   0.941  0.3797 -0.7115  1.6501
11244TIP3    H233655   5.939   5.851   0.999  0.6153  0.4452  1.6799
11245TIP3   OH233656   3.688   6.167   1.436 -0.0935  0.1883  0.0488
11245TIP3    H133657   3.625   6.178   1.365 -0.7695 -0.6999  0.5036
11245TIP3    H233658   3.704   6.256   1.467 -2.9333  0.2405  1.4861
11246TIP3   OH233659   8.394   4.609   0.398  0.0995 -0.2408  0.5058
11246TIP3    H133660   8.347   4.614   0.315 -0.4656  1.2242  0.9036
11246TIP3    H233661   8.423   4.518   0.404  1.5817  0.0210 -2.0965
11247TIP3   OH233662   7.107   5.820   0.988 -0.3310  0.4041  0.1594
11247TIP3    H133663   7.105   5.744   0.930  2.0461 -0.1033  0.7172
11247TIP3    H233664   7.015   5.834   1.011 -0.7679 -2.6102  0.4438
11248TIP3   OH233665   4.492   6.885   0.397  0.2098 -0.0707 -0.4214
11248TIP3    H133666   4.552   6.958   0.392 -0.4647  0.3564 -2.6934
11248TIP3    H233667   4.496   6.857   0.489  1.4366  1.9608  0.1733
11249TIP3   OH233668   6.528   0.925   5.913 -0.3234 -0.7186 -0.2982
11249TIP3    H133669   6.550   0.988   5.981 -0.7820 -2.1649  1.1969
11249TIP3    H233670   6.589   0.945   5.842  0.5706  0.3979  0.7668
11250TIP3   OH233671   7.033   3.642   0.774 -0.1225  0.6883 -0.2220
11250TIP3    H133672   6.976   3.711   0.740  0.5638  1.1603 -0.4315
11250TIP3    H233673   6.996   3.561   0.740 -1.5527  0.8604  0.8873
11251TIP3   OH233674   7.082   5.522   1.073 -0.0454  0.2487 -0.2473
11251TIP3    H133675   7.158   5.579   1.080  0.1130  0.0357 -0.2204
11251TIP3    H233676   7.007   5.581   1.069 -0.1358  0.4466  2.6677
11252TIP3   OH233677   8.835   7.503   0.167  0.0222 -0.4152 -0.2987
11252TIP3    H133678   8.779   7.537   0.097 -0.0038 -0.7033 -0.4211
11252TIP3    H233679   8.839   7.573   0.231 -0.2656 -0.2930 -0.4138
11253TIP3   OH233680   3.447   6.449   1.086  0.0724  0.4407 -0.6100
11253TIP3    H133681   3.457   6.511   1.158  0.6344 -0.0764 -0.2415
11253TIP3    H233682   3.469   6.499   1.008 -0.6221  1.0301 -0.4401
11254TIP3   OH233683   4.833   7.770   1.615  0.3605  0.1711  0.5299
11254TIP3    H133684   4.794   7.767   1.702  2.2699 -1.0786  1.3806
11254TIP3    H233685   4.759   7.766   1.555 -0.9115 -0.0343  2.0916
11255TIP3   OH233686   8.645   5.788   1.208 -0.0642 -0.4210  0.6924
11255TIP3    H133687   8.635   5.702   1.248 -0.7595 -0.3096  0.7588
11255TIP3    H233688   8.740   5.802   1.204 -0.0004  0.1125  3.4345
11256TIP3   OH233689   6.814   6.742   0.837 -0.0504 -0.3438 -0.0228
11256TIP3    H133690   6.792   6.649   0.843 -0.4567 -0.1815  0.9920
11256TIP3    H233691   6.825   6.770   0.927  1.5363  0.2598 -0.3818
11257TIP3   OH233692   3.151   0.810   6.162 -0.0342  0.3556  0.2621
11257TIP3    H133693   3.177   0.792   6.252  0.7340  3.4535  0.7084
11257TIP3    H233694   3.215   0.872   6.130 -0.5820 -0.3266 -2.3016
11258TIP3   OH233695   0.093   7.120   0.680  0.1046  0.1877  0.2318
11258TIP3    H133696   0.117   7.037   0.722 -0.5462 -0.9612 -1.5993
11258TIP3    H233697   0.169   7.176   0.692  1.1714 -1.2138  0.1416
11259TIP3   OH233698   4.144   6.396   0.029 -0.4090 -0.1652 -0.0712
11259TIP3    H133699   4.140   6.485  -0.008  0.6222 -0.6577 -1.4526
11259TIP3    H233700   4.059   6.383   0.070 -0.7452  1.3018 -0.2531
11260TIP3   OH233701   7.400   7.268   1.612  0.1629 -0.1509 -0.5361
11260TIP3    H133702   7.384   7.343   1.669  0.6258  0.2227 -0.9005
11260TIP3    H233703   7.373   7.297   1.525 -1.2269 -0.9659 -0.3911
11261TIP3   OH233704   5.501   4.732   6.921 -0.1553 -0.2255 -0.1126
11261TIP3    H133705   5.407   4.719   6.929 -0.3328  0.7674 -0.4943
11261TIP3    H233706   5.525   4.780   7.000 -0.0466 -0.0613 -0.2461
11262TIP3   OH233707  -0.001   7.417   1.502 -0.4823  1.0358 -0.4339
11262TIP3    H133708   0.085   7.434   1.464 -0.5315  1.0377 -0.5446
11262TIP3    H233709   0.010   7.436   1.596  0.1928 -1.0190 -0.0835
11263TIP3   OH233710   4.294   1.626   7.243 -0.3674 -0.2096  0.0778
11263TIP3    H133711   4.335   1.668   7.167 -0.0092  0.8314  0.8376
11263TIP3    H233712   4.201   1.648   7.234 -0.2331  0.4586  0.2812
11264TIP3   OH233713   4.526   3.283   6.502 -0.5988 -0.5339 -0.4308
11264TIP3    H133714   4.491   3.368   6.531  0.3372  0.2080 -1.4307
11264TIP3    H233715   4.605   3.271   6.554 -0.6722 -0.7453 -0.3687
11265TIP3   OH233716   8.683   7.405   0.455  0.0402  0.4998 -0.0826
11265TIP3    H133717   8.615   7.370   0.513 -2.2387  1.8119 -1.8468
11265TIP3    H233718   8.634   7.455   0.389  2.8347  2.5056 -0.7122
11266TIP3   OH233719   6.246   7.528   0.482  0.2990  0.3862 -0.1294
11266TIP3    H133720   6.283   7.440   0.472 -0.4286  0.1526 -0.8410
11266TIP3    H233721   6.313   7.577   0.530  0.0733 -0.9660  1.6113
11267TIP3   OH233722   1.926   3.033   7.076  0.1426 -0.3014 -0.0119
11267TIP3    H133723   2.010   3.078   7.069 -0.0925  0.1069 -0.2234
11267TIP3    H233724   1.901   3.043   7.168 -0.4306  0.9553 -0.2906
11268TIP3   OH233725   4.217   1.502   6.337 -0.3490  0.2150 -0.4156
11268TIP3    H133726   4.234   1.470   6.249 -1.0351 -1.1066 -0.0766
11268TIP3    H233727   4.197   1.424   6.388  3.2171  0.5540  1.6966
11269TIP3   OH233728   2.883   3.588   6.964  0.1373  0.0085  0.0561
11269TIP3    H133729   2.927   3.609   6.881 -0.1587  0.0004 -0.1023
11269TIP3    H233730   2.901   3.495   6.977  0.4350  0.0782  0.1529
11270TIP3   OH233731   0.721   7.401   0.510 -0.1612 -0.5021 -0.2588
11270TIP3    H133732   0.746   7.493   0.512 -1.3963 -0.1481 -0.5992
11270TIP3    H233733   0.804   7.353   0.502  0.5951  0.5089  1.4007
11271TIP3   OH233734   7.279   6.839   1.633 -0.1664 -0.4800  0.7677
11271TIP3    H133735   7.278   6.901   1.561  0.9218  0.5140  1.5786
11271TIP3    H233736   7.312   6.889   1.708  0.6971 -2.0038  1.4506
11272TIP3   OH233737   1.289   7.939   6.561 -0.6391 -0.0175 -0.3541
11272TIP3    H133738   1.270   7.919   6.469  0.1037 -0.2041 -0.4661
11272TIP3    H233739   1.330   7.859   6.594 -1.3061 -0.1060  0.2533
11273TIP3   OH233740   3.701   3.523   5.568 -0.0698  0.4158 -0.2301
11273TIP3    H133741   3.668   3.434   5.573 -0.3728  0.5023 -0.6787
11273TIP3    H233742   3.742   3.530   5.482  1.1573  0.3026  0.3315
11274TIP3   OH233743   6.939   1.378   6.657 -0.2490  0.3399  0.1459
11274TIP3    H133744   6.975   1.420   6.735  0.5161  1.9908 -1.0460
11274TIP3    H233745   6.934   1.449   6.593  0.9391 -1.3695 -1.9038
11275TIP3   OH233746   6.480   0.946   5.355  0.1506  0.1613  0.9407
11275TIP3    H133747   6.405   0.906   5.400 -0.1147 -2.1325 -1.4525
11275TIP3    H233748   6.549   0.880   5.361  0.6366  0.5251 -0.5470
11276TIP3   OH233749   4.472   6.579   0.712  0.4059 -0.1372  0.0544
11276TIP3    H133750   4.473   6.659   0.763  0.4609  0.4665 -0.8841
11276TIP3    H233751   4.399   6.590   0.651 -0.4563 -1.3870  0.8299
11277TIP3   OH233752   5.572   5.635   0.367  0.4878 -0.0571  0.0228
11277TIP3    H133753   5.656   5.659   0.328  1.8006  0.9831  3.2262
11277TIP3    H233754   5.536   5.719   0.398 -1.0360 -0.6730 -0.0582
11278TIP3   OH233755   4.418   4.474   7.077 -0.2676 -0.1889  0.1891
11278TIP3    H133756   4.461   4.390   7.091 -1.0059 -0.8755 -1.5455
11278TIP3    H233757   4.489   4.538   7.080  0.7623 -1.2130 -1.6832
11279TIP3   OH233758   4.237   1.577   4.916 -0.1774 -0.7222 -0.2262
11279TIP3    H133759   4.307   1.542   4.861  0.7047 -1.3948  1.2820
11279TIP3    H233760   4.245   1.529   4.998 -2.7929 -1.2147 -0.2104
11280TIP3   OH233761   8.000   5.358   1.347  0.3974  0.0502 -0.8631
11280TIP3    H133762   8.026   5.448   1.331  0.4778  0.8744  3.5188
11280TIP3    H233763   7.904   5.358   1.336 -0.1908  1.7606  3.3037
11281TIP3   OH233764   5.047   2.717   3.956 -0.1688 -0.3044 -0.1750
11281TIP3    H133765   5.020   2.703   4.047 -0.6915  1.2144 -0.0828
11281TIP3    H233766   5.143   2.714   3.959 -0.0885  2.1802  0.8741
11282TIP3   OH233767   7.462   0.242   1.454 -0.3610 -0.5768 -0.4542
11282TIP3    H133768   7.387   0.253   1.512  0.4368  1.5631  0.2331
11282TIP3    H233769   7.488   0.150   1.465 -0.8156 -0.4534  1.8875
11283TIP3   OH233770   2.507   3.773   6.723 -0.0668  0.4014 -0.7230
11283TIP3    H133771   2.553   3.782   6.640  0.6110  1.1163 -0.2776
11283TIP3    H233772   2.511   3.680   6.744  0.1957  0.2966 -1.2479
11284TIP3   OH233773   3.448   0.619   6.674  0.2224 -0.6493 -0.2283
11284TIP3    H133774   3.495   0.648   6.752 -0.3487 -0.1578 -0.0603
11284TIP3    H233775   3.507   0.557   6.632  0.6382 -0.7276  0.4615
11285TIP3   OH233776   4.028   8.068   1.766 -0.4712 -0.3815  0.2002
11285TIP3    H133777   4.085   8.024   1.829 -0.6757  0.3672  0.9167
11285TIP3    H233778   3.954   8.008   1.756  1.1729 -2.1630 -2.0137
11286TIP3   OH233779   4.283   3.659   6.550  0.3716  0.0484 -0.6663
11286TIP3    H133780   4.207   3.608   6.577  1.0658 -1.1146 -0.8515
11286TIP3    H233781   4.248   3.730   6.497 -0.6776  0.1981  0.2223
11287TIP3   OH233782   3.534   2.474   7.232  0.1813 -0.2957 -0.3173
11287TIP3    H133783   3.580   2.473   7.148  2.0993  1.2970  0.6801
11287TIP3    H233784   3.441   2.476   7.208  0.6973  0.0597 -2.3921
11288TIP3   OH233785   6.543   6.571   1.315  0.0630  0.6324 -0.1689
11288TIP3    H133786   6.595   6.521   1.252 -1.6482 -0.5587 -0.6771
11288TIP3    H233787   6.586   6.557   1.399 -0.9481 -2.6065 -0.1075
11289TIP3   OH233788   6.657   6.887   0.420 -0.1551  0.2550  0.5708
11289TIP3    H133789   6.741   6.923   0.391 -0.2964 -0.3688 -0.6187
11289TIP3    H233790   6.597   6.903   0.347 -1.1015  0.7761  1.4542
11290TIP3   OH233791   3.032   2.916   7.024 -0.0150  0.2715 -0.1048
11290TIP3    H133792   2.997   2.884   6.941 -1.1450  1.4312 -0.0875
11290TIP3    H233793   3.083   2.994   7.000  0.0880  0.3020  0.2182
11291TIP3   OH233794   2.258   1.938   7.137  0.2189  0.1428  0.1730
11291TIP3    H133795   2.285   1.964   7.225  0.1500 -1.0089  0.5434
11291TIP3    H233796   2.188   1.999   7.114 -0.8679 -0.5342  1.5683
11292TIP3   OH233797   7.771   0.121   1.523 -0.4609  0.0498 -0.1024
11292TIP3    H133798   7.766   0.060   1.449  3.3527 -0.4340 -0.0524
11292TIP3    H233799   7.723   0.078   1.593 -0.9761 -1.1787 -1.1841
11293TIP3   OH233800   2.393   3.247   6.910  0.4711  0.1482 -0.1065
11293TIP3    H133801   2.485   3.264   6.928  0.5882 -0.0783 -0.4842
11293TIP3    H233802   2.355   3.334   6.897  0.1709  0.3935  2.1858
11294TIP3   OH233803   8.399   0.287   1.496  0.2818  0.1271 -0.0519
11294TIP3    H133804   8.345   0.355   1.535 -0.2088  0.7368 -1.7588
11294TIP3    H233805   8.401   0.308   1.403  1.3533 -1.3478 -0.3837
11295TIP3   OH233806   3.403   2.741   7.036  0.1126  0.2382 -0.0211
11295TIP3    H133807   3.474   2.773   6.981 -0.0905 -0.3901 -0.6657
11295TIP3    H233808   3.324   2.782   7.000  0.1955  1.3381  1.0114
11296TIP3   OH233809   2.412   8.163   0.563  0.5649 -0.2621 -0.0963
11296TIP3    H133810   2.437   8.255   0.554  0.4138 -0.3769 -1.8306
11296TIP3    H233811   2.495   8.116   0.569  0.6645 -0.1541 -0.6444
11297TIP3   OH233812   6.885   6.335   0.162 -0.0441 -0.7998  0.1724
11297TIP3    H133813   6.876   6.416   0.112 -1.9280  0.1004  1.9008
11297TIP3    H233814   6.968   6.345   0.210 -1.4619  1.2670  2.3219
11298TIP3   OH233815   3.810   1.553   7.287  0.5605 -0.1947  0.1147
11298TIP3    H133816   3.758   1.487   7.242 -0.0820  0.1165  0.3867
11298TIP3    H233817   3.794   1.634   7.238  1.9675 -0.3947 -0.6960
11299TIP3   OH233818   5.103   0.667   6.810 -0.2528 -0.0643 -0.3192
11299TIP3    H133819   5.153   0.701   6.884 -0.7472 -3.8717  1.8600
11299TIP3    H233820   5.169   0.634   6.749  0.0503 -1.1155  0.5645
11300TIP3   OH233821   5.241   1.436   4.873 -0.0788  0.3250 -0.0155
11300TIP3    H133822   5.269   1.505   4.933  0.4938  0.9491 -0.9725
11300TIP3    H233823   5.244   1.355   4.924 -2.3040  1.2034  1.6004
11301TIP3   OH233824   4.640   7.292   1.620 -0.2099 -0.2070 -0.4070
11301TIP3    H133825   4.700   7.363   1.643 -1.2628  1.1665 -1.7495
11301TIP3    H233826   4.684   7.212   1.648  0.5385  1.0521  2.0864
11302TIP3   OH233827   3.334   3.491   5.034 -0.3125 -0.0030  0.3341
11302TIP3    H133828   3.381   3.458   5.110 -0.5937 -0.2662  0.3930
11302TIP3    H233829   3.317   3.413   4.981  1.0789  0.3487 -0.6678
11303TIP3   OH233830   5.337   1.928   6.051 -0.1923 -0.6259  0.0277
11303TIP3    H133831   5.426   1.905   6.080 -0.6478 -1.3700  0.8624
11303TIP3    H233832   5.297   1.969   6.128 -0.5018 -0.1185 -0.4074
11304TIP3   OH233833   4.412   3.457   6.051 -0.4802 -0.1563  0.2378
11304TIP3    H133834   4.337   3.493   6.098 -0.0403  0.8635  0.1904
11304TIP3    H233835   4.435   3.525   5.988 -0.2565 -0.9670 -0.5625
11305TIP3   OH233836   2.325   1.145   5.772 -0.4999 -0.9113 -0.2635
11305TIP3    H133837   2.310   1.139   5.866 -1.2781  1.7281 -0.1694
11305TIP3    H233838   2.238   1.156   5.735 -0.2606 -2.5943 -1.3815
11306TIP3   OH233839   3.167   2.509   4.102 -0.2183 -0.1213 -0.4553
11306TIP3    H133840   3.134   2.537   4.187  1.5432 -0.0165  0.2044
11306TIP3    H233841   3.196   2.590   4.060 -1.8941 -0.0486 -1.5500
11307TIP3   OH233842   5.196   6.337   0.684 -0.2567 -0.0560 -0.5110
11307TIP3    H133843   5.101   6.341   0.675 -0.1684  0.0557 -1.5666
11307TIP3    H233844   5.211   6.303   0.772 -1.2994 -1.6182 -0.9128
11308TIP3   OH233845   0.692   3.317   5.528  0.3440  0.6306 -0.2712
11308TIP3    H133846   0.741   3.373   5.467  1.0747  0.1332 -0.1427
11308TIP3    H233847   0.759   3.279   5.585 -0.2722  0.5557  0.4087
11309TIP3   OH233848   4.054   3.519   6.631  0.1432  0.3583 -0.0288
11309TIP3    H133849   3.973   3.564   6.610 -1.2345 -0.9388  2.2615
11309TIP3    H233850   4.029   3.427   6.642  2.5341 -0.6699 -2.5917
11310TIP3   OH233851   7.576   5.504   1.807  0.3991  0.0897 -0.1883
11310TIP3    H133852   7.578   5.596   1.833  1.4003 -0.0135  0.1222
11310TIP3    H233853   7.627   5.459   1.875  0.8857 -0.5279 -0.9513
11311TIP3   OH233854   6.382   6.072   2.327 -0.1824 -0.4396 -0.5916
11311TIP3    H133855   6.420   5.985   2.312 -0.5463 -0.4073 -1.7650
11311TIP3    H233856   6.421   6.127   2.260 -0.6059  0.1145 -0.3860
11312TIP3   OH233857   6.165   6.460   0.605  0.7093 -0.4016  0.3636
11312TIP3    H133858   6.196   6.467   0.515 -1.4216  0.9647 -0.2910
11312TIP3    H233859   6.181   6.547   0.643  0.1944 -0.5099  0.8328
11313TIP3   OH233860   2.614   4.301   6.025  0.4409  0.2952 -0.0776
11313TIP3    H133861   2.645   4.390   6.042  0.5422  0.2318  0.0730
11313TIP3    H233862   2.694   4.251   6.009  0.3520  0.3442 -0.7004
11314TIP3   OH233863   7.138   6.231   0.790  0.6200 -0.1571 -0.2760
11314TIP3    H133864   7.108   6.172   0.859  0.0516  1.6085  1.0218
11314TIP3    H233865   7.107   6.191   0.708  0.7289 -1.9178  0.5082
11315TIP3   OH233866   8.163   6.866   1.160 -0.0295  0.5220 -0.1731
11315TIP3    H133867   8.216   6.799   1.118 -0.1045  1.6371 -2.1038
11315TIP3    H233868   8.146   6.930   1.091  0.2327  2.6515  1.6959
11316TIP3   OH233869   4.720   1.422   6.798  1.2378 -0.0275  0.1897
11316TIP3    H133870   4.696   1.512   6.823  0.8436  0.7756 -2.7966
11316TIP3    H233871   4.763   1.432   6.713 -0.7624 -2.8293 -1.2462
11317TIP3   OH233872   2.570   0.043   0.048  0.2209  0.1872 -0.2856
11317TIP3    H133873   2.512   0.048  -0.028  0.5047  0.2443 -0.4998
11317TIP3    H233874   2.609  -0.044   0.043  0.3951  0.2664 -0.3225
11318TIP3   OH233875   5.263   5.401   0.901  0.5912 -0.6331 -0.1514
11318TIP3    H133876   5.175   5.400   0.863 -0.0091 -2.1800  1.2066
11318TIP3    H233877   5.289   5.308   0.903  1.3169 -0.4007  1.5666
11319TIP3   OH233878   5.194   3.399   5.712 -0.2815  0.2781 -0.0943
11319TIP3    H133879   5.185   3.421   5.619 -0.8279 -1.1234 -0.3871
11319TIP3    H233880   5.194   3.303   5.714 -0.1645  0.2976  1.3457
11320TIP3   OH233881   6.160   4.138   6.995  0.1079  0.5960  0.3725
11320TIP3    H133882   6.118   4.168   7.076  0.2885  0.9875  0.3221
11320TIP3    H233883   6.102   4.069   6.963 -0.0290  0.5212  0.7720
11321TIP3   OH233884   4.872   3.899   6.714 -0.1475  0.3192 -0.3190
11321TIP3    H133885   4.861   3.848   6.634  1.0247  0.6609 -0.6967
11321TIP3    H233886   4.861   3.990   6.686 -1.7337  0.3337  0.2671
11322TIP3   OH233887   5.731   3.610   6.432 -0.5882 -0.2901  0.2254
11322TIP3    H133888   5.746   3.656   6.350 -1.2649  0.0103  0.2645
11322TIP3    H233889   5.661   3.660   6.475 -0.0121 -0.2438  1.1361
11323TIP3   OH233890   7.112   3.702   6.214  0.0835  0.3002  0.0175
11323TIP3    H133891   7.147   3.790   6.200 -0.5108  0.4220 -0.7759
11323TIP3    H233892   7.028   3.703   6.168  0.1206 -0.7128 -0.0767
11324TIP3   OH233893   3.744   3.928   5.957 -0.2195 -0.2848 -0.2066
11324TIP3    H133894   3.801   3.853   5.973  0.9491  0.7588  0.6532
11324TIP3    H233895   3.657   3.899   5.986  0.4735 -0.8953  1.3026
11325TIP3   OH233896   6.428   1.946   6.626 -0.0855 -0.6467 -0.5697
11325TIP3    H133897   6.518   1.955   6.658  0.1514 -0.4133 -1.2726
11325TIP3    H233898   6.409   1.852   6.635  0.8859 -1.0213 -2.0632
11326TIP3   OH233899   4.255   1.052   6.224  0.2665 -0.0778 -0.3137
11326TIP3    H133900   4.163   1.030   6.212  0.6601 -2.2297  0.5199
11326TIP3    H233901   4.297   1.022   6.143  0.2558  0.9023 -0.6938
11327TIP3   OH233902   3.219   2.646   5.888 -0.3676 -0.7456  0.2588
11327TIP3    H133903   3.242   2.727   5.933  1.9777 -1.0280 -0.3303
11327TIP3    H233904   3.301   2.618   5.846 -1.6866 -2.2177 -1.4401
11328TIP3   OH233905   1.792   3.977   1.590  0.0518 -0.0977 -0.5207
11328TIP3    H133906   1.856   3.927   1.641 -0.3225  0.6426  0.6730
11328TIP3    H233907   1.803   3.944   1.501 -1.8667 -4.0603  0.6170
11329TIP3   OH233908   6.339   2.030   7.091 -0.6210  0.1612  0.4021
11329TIP3    H133909   6.336   2.017   6.997  0.5037 -1.1764  0.5349
11329TIP3    H233910   6.276   1.968   7.127 -0.7625  0.3931  0.5599
11330TIP3   OH233911   5.520   4.815   6.384 -0.4063 -0.1135  0.4085
11330TIP3    H133912   5.481   4.902   6.398 -0.4967  0.3555 -2.3698
11330TIP3    H233913   5.447   4.762   6.352  0.4711 -0.1065 -1.7113
11331TIP3   OH233914   0.524   7.925   0.606 -0.4272  0.0092  0.1332
11331TIP3    H133915   0.616   7.951   0.610 -0.2915 -0.3214 -0.6671
11331TIP3    H233916   0.480   7.982   0.669  0.3281  0.1603  0.5270
11332TIP3   OH233917   8.223   7.477   1.288 -0.1894  0.1768 -0.2108
11332TIP3    H133918   8.297   7.450   1.342 -1.2165 -1.0380  0.6170
11332TIP3    H233919   8.249   7.563   1.253  0.6484  0.8092  1.8972
11333TIP3   OH233920   3.439   3.908   5.955 -0.2442 -0.3302 -0.2080
11333TIP3    H133921   3.355   3.863   5.963 -1.1616  1.5685  1.3056
11333TIP3    H233922   3.436   3.950   5.869 -0.6784 -0.6073 -0.3278
11334TIP3   OH233923   0.563   7.032   0.241  0.5164  0.1214 -0.3035
11334TIP3    H133924   0.528   7.034   0.330  1.6348 -1.5629  0.1991
11334TIP3    H233925   0.501   6.978   0.192  0.1339  0.6855 -0.4431
11335TIP3   OH233926   5.495   3.782   6.279  0.6325  0.0791 -0.4089
11335TIP3    H133927   5.477   3.843   6.207 -0.8479 -0.8864 -0.8972
11335TIP3    H233928   5.422   3.794   6.339  0.4595 -1.0147 -0.3857
11336TIP3   OH233929   4.975   2.789   6.877  0.4484  0.1814 -0.4421
11336TIP3    H133930   5.026   2.846   6.821 -0.0281  0.2241 -0.8410
11336TIP3    H233931   4.912   2.747   6.818  0.3846 -0.2810 -0.0527
11337TIP3   OH233932   8.418   5.734   2.214  0.2977 -0.0288 -0.5005
11337TIP3    H133933   8.463   5.763   2.135  2.1021  1.7418  1.1057
11337TIP3    H233934   8.480   5.674   2.256  0.2137  0.6019  0.5480
11338TIP3   OH233935   3.856   2.860   6.142 -0.1176  0.3490  0.0225
11338TIP3    H133936   3.785   2.813   6.185  0.6304  0.9667  1.9689
11338TIP3    H233937   3.843   2.842   6.049 -1.1746 -1.8232  0.5551
11339TIP3   OH233938   4.860   5.499   5.472  0.1161 -0.1120 -0.1011
11339TIP3    H133939   4.845   5.406   5.457  0.7790 -0.3265  0.5162
11339TIP3    H233940   4.822   5.516   5.558 -0.8925  0.4116 -0.6435
11340TIP3   OH233941   8.491   4.352   4.265 -0.0598 -0.4482  0.1407
11340TIP3    H133942   8.487   4.439   4.223  2.6620 -0.1809  0.3524
11340TIP3    H233943   8.432   4.359   4.340 -0.0677  1.1573  0.0067
11341TIP3   OH233944   4.574   0.561   6.305 -0.2753  0.2374 -0.2040
11341TIP3    H133945   4.556   0.648   6.268 -0.9659  0.8269  1.4812
11341TIP3    H233946   4.631   0.578   6.380  0.7046 -0.9137 -0.6621
11342TIP3   OH233947   4.741   3.141   5.883 -0.3476  0.3186 -0.3541
11342TIP3    H133948   4.795   3.211   5.918  0.4523 -1.3700  1.8757
11342TIP3    H233949   4.651   3.168   5.901 -0.1319  1.6243 -1.1879
11343TIP3   OH233950   4.637   2.664   6.473 -0.8655 -0.0790  0.3424
11343TIP3    H133951   4.570   2.732   6.460 -0.5861  0.1391  0.0590
11343TIP3    H233952   4.603   2.589   6.424 -1.6006 -0.4304  1.3690
11344TIP3   OH233953   5.701   2.719   6.925 -0.6041 -1.0605  0.7150
11344TIP3    H133954   5.774   2.659   6.910 -1.1910 -1.7130  0.4446
11344TIP3    H233955   5.742   2.805   6.936  0.2361 -1.5062  1.0690
11345TIP3   OH233956   4.207   2.870   4.672 -0.2392 -0.4297 -0.4920
11345TIP3    H133957   4.183   2.955   4.708 -0.1235 -0.4626 -0.3341
11345TIP3    H233958   4.287   2.886   4.622 -1.0505 -0.1571 -1.7292
11346TIP3   OH233959   6.251   3.373   5.331  0.0173 -0.5907  0.0825
11346TIP3    H133960   6.244   3.350   5.424  2.3643 -0.2918  0.3698
11346TIP3    H233961   6.336   3.338   5.304  1.8004  3.8456 -0.5295
11347TIP3   OH233962   4.659   4.165   3.043 -0.1942 -0.0792 -0.6449
11347TIP3    H133963   4.728   4.103   3.067 -1.1542 -0.7671  0.4113
11347TIP3    H233964   4.598   4.114   2.991 -0.8471  0.0359 -0.0075
11348TIP3   OH233965   4.647   1.819   7.228 -0.3721 -0.5929 -0.7204
11348TIP3    H133966   4.633   1.821   7.323 -0.7594 -0.2409 -0.7816
11348TIP3    H233967   4.730   1.864   7.215  0.4483 -1.9857 -0.4216
11349TIP3   OH233968   5.070   2.993   7.091 -0.3370 -0.3003 -0.1878
11349TIP3    H133969   5.058   2.916   7.035 -3.1238  0.5366 -0.8073
11349TIP3    H233970   5.102   3.061   7.031 -0.1547 -0.3183 -0.1100
11350TIP3   OH233971   4.774   3.467   7.017  0.7356  1.2218  0.1307
11350TIP3    H133972   4.715   3.512   6.957 -0.1689 -0.7310 -0.4779
11350TIP3    H233973   4.727   3.462   7.100  0.1696 -0.0263 -0.2571
11351TIP3   OH233974   4.793   1.649   4.156 -0.4972 -0.2795 -0.3993
11351TIP3    H133975   4.866   1.677   4.212  0.0946 -0.9673 -0.8161
11351TIP3    H233976   4.792   1.712   4.085 -0.2365 -0.3264 -0.4474
11352TIP3   OH233977   8.207   5.765   0.324  0.3311  0.3518 -0.5572
11352TIP3    H133978   8.225   5.703   0.395  1.1545  0.2774 -0.8312
11352TIP3    H233979   8.279   5.753   0.262 -0.3181  0.5050 -1.3494
11353TIP3   OH233980   8.581   6.650   1.231 -0.9032  0.1165 -0.3103
11353TIP3    H133981   8.609   6.741   1.236 -2.2098  0.4007  2.8691
11353TIP3    H233982   8.560   6.636   1.139 -0.6903  3.0385 -0.8281
11354TIP3   OH233983   2.603   3.486   6.316 -0.4087 -0.6944 -0.5197
11354TIP3    H133984   2.618   3.408   6.263  1.0418  0.7477 -2.3266
11354TIP3    H233985   2.516   3.517   6.289 -1.3878 -2.1331  0.8619
11355TIP3   OH233986   0.686   5.970   0.186  0.5073 -0.1157  0.3755
11355TIP3    H133987   0.600   6.000   0.214 -0.4231 -1.9469 -0.4141
11355TIP3    H233988   0.711   6.029   0.116  0.1977  0.8308  1.0576
11356TIP3   OH233989   7.547   3.596   5.441 -0.0294  0.1557 -0.3135
11356TIP3    H133990   7.576   3.686   5.455 -0.6826  0.3433 -0.1918
11356TIP3    H233991   7.490   3.577   5.515  0.6328 -0.5842  0.0131
11357TIP3   OH233992   2.916   0.655   5.514  0.2806 -0.1680  0.4575
11357TIP3    H133993   2.946   0.730   5.565 -0.1416  1.3697 -1.5040
11357TIP3    H233994   2.883   0.593   5.580  0.8081  1.2676  2.1108
11358TIP3   OH233995   7.039   4.060   7.151  0.8170  0.5253 -0.0455
11358TIP3    H133996   7.121   4.010   7.142 -0.2660 -1.4407  0.6504
11358TIP3    H233997   7.061   4.129   7.213  1.6814 -0.6819  1.0381
11359TIP3   OH233998   6.662   5.287   0.854 -0.6613  0.3764 -0.2593
11359TIP3    H133999   6.622   5.268   0.938 -0.3189 -0.0731 -0.1963
11359TIP3    H234000   6.731   5.220   0.844 -0.4077  0.6965 -0.6878
11360TIP3   OH234001   5.474   2.796   6.767 -0.1951 -0.0656  0.3526
11360TIP3    H134002   5.556   2.786   6.816 -1.0918 -1.0048  1.6844
11360TIP3    H234003   5.465   2.891   6.754  1.4704  0.0031 -0.4752
11361TIP3   OH234004   3.801   5.634   6.156  0.3526 -0.3492  0.7949
11361TIP3    H134005   3.712   5.602   6.170  1.2391 -2.3725  2.0525
11361TIP3    H234006   3.831   5.659   6.243  0.9235  0.6378  0.3277
11362TIP3   OH234007   1.638   6.920   1.371  0.1392 -0.1841 -0.2343
11362TIP3    H134008   1.689   6.882   1.442  0.2261  0.4002  0.0168
11362TIP3    H234009   1.640   7.014   1.387 -0.3620 -0.0957 -0.6605
11363TIP3   OH234010   4.046   2.695   5.403 -0.5677 -0.3276  0.5778
11363TIP3    H134011   4.119   2.754   5.386  1.0891 -1.7952  2.3179
11363TIP3    H234012   3.976   2.752   5.434 -0.1575  1.1020 -1.0587
11364TIP3   OH234013   6.298   4.090   5.689 -0.4804  0.5328  0.1462
11364TIP3    H134014   6.342   4.132   5.615 -2.1453  0.3527 -0.9660
11364TIP3    H234015   6.363   4.029   5.725 -0.2141 -0.6524 -2.2594
11365TIP3   OH234016   7.957   3.863   5.751 -0.1822 -0.2106  0.8570
11365TIP3    H134017   7.950   3.950   5.713  2.7438 -0.0897  0.4293
11365TIP3    H234018   7.915   3.805   5.688  0.5852  0.5393 -0.3677
11366TIP3   OH234019   5.624   5.146   5.514  0.4788  0.7700 -0.0287
11366TIP3    H134020   5.564   5.220   5.501 -0.4382  0.3943  1.8852
11366TIP3    H234021   5.706   5.187   5.542 -0.4856  1.0148  2.5633
11367TIP3   OH234022   8.278   7.234   1.805  0.0220 -0.5909  0.6465
11367TIP3    H134023   8.253   7.175   1.733  0.0605 -1.4255  1.3174
11367TIP3    H234024   8.373   7.236   1.803  0.0123 -0.1059  0.2829
11368TIP3   OH234025   8.893   6.176   0.239 -0.0852 -0.6393 -0.2220
11368TIP3    H134026   8.965   6.118   0.265 -0.9529 -1.7428 -0.2659
11368TIP3    H234027   8.830   6.170   0.311 -0.5029 -0.2846 -0.5539
11369TIP3   OH234028   2.760   0.804   0.183  0.4937  0.0054 -0.3411
11369TIP3    H134029   2.676   0.759   0.183 -0.1516  1.1560 -1.7046
11369TIP3    H234030   2.777   0.825   0.275 -0.7307 -0.1973 -0.0668
11370TIP3   OH234031   8.093   7.703   2.047  0.2727  0.1299  0.0893
11370TIP3    H134032   8.086   7.744   1.961 -0.4650  0.3564  0.2508
11370TIP3    H234033   8.029   7.751   2.101  0.3991 -0.3175  0.6363
11371TIP3   OH234034   5.617   3.186   5.957  0.5833  0.7249 -0.2269
11371TIP3    H134035   5.649   3.216   6.043  1.3040 -0.6771  0.0109
11371TIP3    H234036   5.545   3.246   5.936  1.3403  1.9836  0.6905
11372TIP3   OH234037   4.029   2.566   6.037  0.3450  0.4925  0.4028
11372TIP3    H134038   4.068   2.624   6.103  1.6431 -1.3051  1.2451
11372TIP3    H234039   4.060   2.602   5.953  1.3638  0.8682  0.9264
11373TIP3   OH234040   3.054   2.016   6.204  0.3119  0.2757  0.2352
11373TIP3    H134041   3.048   2.110   6.187 -1.0816 -0.0424 -1.1602
11373TIP3    H234042   3.133   1.988   6.159  0.7223  0.7665  0.6397
11374TIP3   OH234043   0.417   5.589   0.201 -0.0972 -0.1822 -0.8044
11374TIP3    H134044   0.480   5.579   0.130  0.1450 -0.3235 -0.5682
11374TIP3    H234045   0.343   5.533   0.175  0.5733 -1.3256 -0.2706
11375TIP3   OH234046   0.091   6.651   0.919 -0.1937  0.1632 -0.3659
11375TIP3    H134047   0.175   6.615   0.890 -0.7711 -0.2956 -1.4974
11375TIP3    H234048   0.079   6.617   1.007 -0.1639 -1.4922 -0.9727
11376TIP3   OH234049   8.041   5.339   3.327 -0.4653 -0.7896 -0.0407
11376TIP3    H134050   7.978   5.291   3.273  0.7434 -0.5831 -1.6785
11376TIP3    H234051   8.008   5.429   3.328 -0.7319 -0.8862 -0.0605
11377TIP3   OH234052   4.619   1.504   6.481  0.2904  0.5438 -0.1497
11377TIP3    H134053   4.549   1.472   6.538  0.8238 -0.4912 -0.0749
11377TIP3    H234054   4.579   1.506   6.393  0.4258 -0.8544 -0.2426
11378TIP3   OH234055   7.095   2.355   6.893  0.4390 -0.9748 -0.3516
11378TIP3    H134056   7.133   2.302   6.823 -0.0750  0.0365 -1.4242
11378TIP3    H234057   7.000   2.351   6.877  0.3798 -0.0241 -0.2455
11379TIP3   OH234058   4.671   2.073   6.700 -0.1802  0.5313 -0.3424
11379TIP3    H134059   4.758   2.102   6.729 -0.1669 -0.8094  1.0016
11379TIP3    H234060   4.688   1.991   6.654 -0.9171 -0.8246  1.7107
11380TIP3   OH234061   4.089   1.376   6.950 -0.4544 -0.6111 -0.1413
11380TIP3    H134062   4.183   1.390   6.935 -0.2459 -1.4319  0.3208
11380TIP3    H234063   4.053   1.464   6.962  0.6423 -0.3967  1.8470
11381TIP3   OH234064   2.955   1.791   6.992  0.2300 -0.2514  0.3816
11381TIP3    H134065   2.950   1.827   6.904 -0.0363  0.4996  0.7005
11381TIP3    H234066   2.993   1.862   7.045 -0.8472 -0.2185  1.1235
11382TIP3   OH234067   3.444   4.006   7.138  0.6679 -0.3744 -0.0247
11382TIP3    H134068   3.469   4.074   7.201 -0.3462 -0.7602  0.8007
11382TIP3    H234069   3.518   3.946   7.137  0.8668 -0.1404  0.4753
11383TIP3   OH234070   6.702   2.112   5.527  0.4107  0.3060 -0.4222
11383TIP3    H134071   6.723   2.143   5.615 -0.7254 -0.1856  0.0278
11383TIP3    H234072   6.785   2.078   5.493  0.8645  0.5571  0.4268
11384TIP3   OH234073   6.560   3.038   5.538 -0.2393  0.6978 -0.3938
11384TIP3    H134074   6.509   2.972   5.584 -0.1851  1.2585  0.4655
11384TIP3    H234075   6.634   2.990   5.501  0.7900  0.5907  1.7752
11385TIP3   OH234076   5.244   3.258   6.662  0.2357  0.1747 -0.0269
11385TIP3    H134077   5.233   3.276   6.568 -0.1515 -0.7472 -0.1590
11385TIP3    H234078   5.215   3.338   6.705 -2.0794 -0.3433 -0.5845
11386TIP3   OH234079   4.614   3.582   5.866 -0.3149 -0.1607  0.3873
11386TIP3    H134080   4.709   3.595   5.868 -0.1396 -1.6141  1.7163
11386TIP3    H234081   4.597   3.541   5.781 -0.0485  2.1672 -0.8294
11387TIP3   OH234082   7.132   1.056   6.742  0.3413 -0.1321 -0.1328
11387TIP3    H134083   7.093   1.098   6.665 -0.4666 -1.3856 -0.4266
11387TIP3    H234084   7.103   1.109   6.816  0.1616  0.4016 -0.5788
11388TIP3   OH234085   3.854   3.947   5.665 -0.4953  0.2848  0.4663
11388TIP3    H134086   3.923   3.883   5.688  0.3270  0.8287 -0.4442
11388TIP3    H234087   3.837   3.994   5.746  0.5464  0.4572  0.5890
11389TIP3   OH234088   5.682   5.154   7.193 -0.0213  0.2463 -0.0025
11389TIP3    H134089   5.755   5.102   7.160  0.5290  1.3162 -0.4784
11389TIP3    H234090   5.645   5.101   7.264  0.3736 -0.9004 -0.6549
11390TIP3   OH234091   7.912   6.553   0.390 -0.2864  0.3774  0.5059
11390TIP3    H134092   7.919   6.624   0.327  0.9903  0.0508  0.2560
11390TIP3    H234093   7.893   6.475   0.338 -0.9662  0.4150  0.7014
11391TIP3   OH234094   7.352   5.015   7.149 -0.4635  0.3448 -0.0930
11391TIP3    H134095   7.351   5.109   7.165 -1.1306  0.0736  1.5745
11391TIP3    H234096   7.274   5.000   7.094 -1.6988  0.4557  1.5995
11392TIP3   OH234097   4.323   2.752   5.801 -0.2808  0.0734 -0.0394
11392TIP3    H134098   4.376   2.727   5.877  0.7585  2.6017  0.1388
11392TIP3    H234099   4.364   2.707   5.727 -1.4144 -2.5644  0.8864
11393TIP3   OH234100   5.133   2.346   6.240  0.2079  0.3386 -0.2756
11393TIP3    H134101   5.152   2.395   6.160  0.9118 -1.3489 -1.1715
11393TIP3    H234102   5.169   2.400   6.310 -3.2433  3.3892 -0.7404
11394TIP3   OH234103   5.151   4.103   6.816  0.2523  0.0390  0.3076
11394TIP3    H134104   5.093   4.107   6.740 -0.1322  0.5671  0.6332
11394TIP3    H234105   5.094   4.118   6.891  0.7285  0.0636  0.6656
11395TIP3   OH234106   8.542   6.099   0.024  0.0494  0.7692  0.5416
11395TIP3    H134107   8.448   6.114   0.037 -0.5598 -1.2454 -1.2269
11395TIP3    H234108   8.566   6.040   0.095 -0.5758 -0.5862 -0.3474
11396TIP3   OH234109   7.948   7.305   0.029 -1.0259  0.4625 -0.2025
11396TIP3    H134110   7.954   7.275  -0.062 -0.0373 -2.1528  0.6873
11396TIP3    H234111   8.015   7.373   0.036  0.0686 -0.5110 -1.0030
11397TIP3   OH234112   6.573   4.003   6.333 -0.1956 -0.2305  0.2315
11397TIP3    H134113   6.572   3.907   6.339 -3.0653 -0.3152 -0.8485
11397TIP3    H234114   6.635   4.022   6.263 -0.4952 -1.3795 -0.3601
11398TIP3   OH234115   3.679   2.482   6.973 -0.1390  0.2494 -0.0228
11398TIP3    H134116   3.708   2.486   6.882  1.5734 -0.9569  0.4584
11398TIP3    H234117   3.654   2.391   6.987 -1.2315  0.6077  0.4848
11399TIP3   OH234118   8.657   5.769   0.922 -0.2652  0.2496  0.0001
11399TIP3    H134119   8.687   5.858   0.906 -0.9772  0.4437 -0.2207
11399TIP3    H234120   8.620   5.772   1.010 -0.4515  0.2087 -0.0776
11400TIP3   OH234121   5.887   0.572   6.609 -0.3092 -0.2303 -0.7874
11400TIP3    H134122   5.934   0.577   6.526 -2.0521 -2.0061 -1.9504
11400TIP3    H234123   5.797   0.598   6.587 -0.2164  1.8139  1.0990
11401TIP3   OH234124   5.028   4.111   4.193 -0.0073 -0.0535  0.0048
11401TIP3    H134125   4.942   4.096   4.154  0.6250 -0.4713 -1.2743
11401TIP3    H234126   5.020   4.194   4.240 -0.3477  1.3068 -2.3704
11402TIP3   OH234127   4.337   0.641   5.380  0.4701  0.0295 -0.0926
11402TIP3    H134128   4.363   0.719   5.330 -1.9960 -1.0165 -3.1531
11402TIP3    H234129   4.385   0.569   5.338  0.7490 -0.4826  1.0776
11403TIP3   OH234130   6.207   4.181   5.099 -0.2254  0.1814  0.1419
11403TIP3    H134131   6.228   4.235   5.176 -0.1962 -0.9924  0.9754
11403TIP3    H234132   6.136   4.124   5.129 -0.5559  0.0571 -0.8658
11404TIP3   OH234133   5.232   3.839   5.601  0.0501 -0.0504  0.0390
11404TIP3    H134134   5.308   3.781   5.599 -0.1479 -0.4565  2.6169
11404TIP3    H234135   5.269   3.927   5.599  0.3964 -0.2242 -2.7931
11405TIP3   OH234136   8.569   4.715   5.077 -0.6299 -0.4957 -0.1634
11405TIP3    H134137   8.663   4.703   5.087 -0.9167 -2.1662  0.7226
11405TIP3    H234138   8.556   4.810   5.080  0.9677 -0.2750  0.1553
11406TIP3   OH234139   4.989   4.146   7.130 -0.0813 -0.0199  0.2138
11406TIP3    H134140   5.071   4.191   7.112 -1.0619  1.4614 -0.6710
11406TIP3    H234141   4.927   4.216   7.152 -1.3864 -1.0158 -0.1929
11407TIP3   OH234142   2.593   2.884   6.327 -0.7214  0.0082  0.4561
11407TIP3    H134143   2.528   2.950   6.301 -0.7112 -0.0651  0.2427
11407TIP3    H234144   2.608   2.900   6.420  1.1345  1.9689 -0.1125
11408TIP3   OH234145   7.524   6.771   0.442  0.7215  0.0204  0.2972
11408TIP3    H134146   7.589   6.720   0.492  1.5698  1.2649  0.4971
11408TIP3    H234147   7.488   6.832   0.506 -0.5915 -0.5935  0.1522
11409TIP3   OH234148   4.210   4.083   5.239 -0.6833 -0.5146  0.0111
11409TIP3    H134149   4.256   4.118   5.163  0.1743 -0.8009  0.3930
11409TIP3    H234150   4.166   4.158   5.277  1.3388  0.2348  0.9671
11410TIP3   OH234151   7.011   7.071   0.527  0.7539  0.4732  0.0414
11410TIP3    H134152   7.077   7.002   0.522  0.6355  0.4624 -1.6916
11410TIP3    H234153   7.041   7.128   0.597  1.2437 -0.9279  0.9938
11411TIP3   OH234154   6.301   4.031   6.692 -0.0348  0.2539 -0.0488
11411TIP3    H134155   6.292   4.014   6.786 -2.0035  2.1201  0.1477
11411TIP3    H234156   6.214   4.015   6.656  0.5038  0.3196 -1.4200
11412TIP3   OH234157   4.933   2.874   4.483 -0.5923  0.4067  0.4889
11412TIP3    H134158   4.905   2.870   4.392  1.0849  0.9467 -0.0795
11412TIP3    H234159   4.944   2.782   4.509  0.7632  0.2821 -0.4640
11413TIP3   OH234160   4.457   3.558   5.265  0.1100 -0.1986 -0.0804
11413TIP3    H134161   4.528   3.569   5.329  0.3645 -0.0072 -0.3952
11413TIP3    H234162   4.406   3.639   5.272  1.0987  0.5372 -1.3056
11414TIP3   OH234163   5.536   6.592   5.054 -0.1379 -0.0371  0.3535
11414TIP3    H134164   5.459   6.544   5.086 -0.2397  0.0470  0.2328
11414TIP3    H234165   5.507   6.634   4.974 -0.5692  1.6970  1.3964
11415TIP3   OH234166   3.673   0.577   6.161  0.1365  0.8772 -0.0731
11415TIP3    H134167   3.586   0.616   6.146 -0.2915  0.1635  0.5315
11415TIP3    H234168   3.681   0.511   6.092 -1.2368 -1.4102  1.8552
11416TIP3   OH234169   4.688   2.885   5.023  0.1645  0.2951 -0.3364
11416TIP3    H134170   4.764   2.844   4.983 -1.4141 -1.9112 -1.1718
11416TIP3    H234171   4.653   2.942   4.953 -0.0294 -0.1454 -0.6013
11417TIP3   OH234172   7.861   7.060   1.257 -0.5621 -0.0211  0.2465
11417TIP3    H134173   7.846   6.995   1.188  0.8120 -0.8736  0.7229
11417TIP3    H234174   7.869   7.143   1.211 -0.6394 -0.4351 -0.5325
11418TIP3   OH234175   4.168   1.853   5.184  0.3783 -0.7976  0.5192
11418TIP3    H134176   4.243   1.910   5.196  1.3115 -1.4941 -1.7655
11418TIP3    H234177   4.183   1.810   5.100 -1.9937 -1.8298  0.5703
11419TIP3   OH234178   4.449   2.869   7.023 -0.0774 -0.1953 -0.2071
11419TIP3    H134179   4.441   2.792   7.079  0.6864  0.8358  1.3362
11419TIP3    H234180   4.424   2.942   7.079  2.4172  1.0604 -0.6959
11420TIP3   OH234181   4.060   3.319   7.201  0.3177  0.0505  0.0230
11420TIP3    H134182   4.065   3.231   7.165  0.1185  0.2455 -0.4856
11420TIP3    H234183   3.983   3.317   7.258  0.1905 -0.0439 -0.1518
11421TIP3   OH234184   8.440   6.882   0.397  0.5366 -0.1999 -0.1085
11421TIP3    H134185   8.456   6.836   0.480 -0.0975  0.0178  0.1430
11421TIP3    H234186   8.397   6.817   0.341  2.9035 -1.0050 -1.0402
11422TIP3   OH234187   7.164   2.754   6.224 -0.2246 -0.1992 -0.4070
11422TIP3    H134188   7.234   2.717   6.169  2.3836 -0.9772  3.2261
11422TIP3    H234189   7.111   2.678   6.249  0.0146 -0.2140  0.0597
11423TIP3   OH234190   5.643   4.072   5.980  0.6009 -1.2185  0.2976
11423TIP3    H134191   5.612   4.049   5.892 -4.4693  1.7063  1.0595
11423TIP3    H234192   5.630   3.993   6.031 -2.7246 -1.1181 -0.2452
11424TIP3   OH234193   1.990   0.583   0.595 -0.5998 -0.2576 -0.3082
11424TIP3    H134194   2.042   0.513   0.554 -0.3169  1.2638 -2.6011
11424TIP3    H234195   2.055   0.645   0.628 -0.9049  0.2310 -0.6245
11425TIP3   OH234196   6.247   3.615   5.863  0.1591 -0.4225  0.2896
11425TIP3    H134197   6.215   3.552   5.798 -0.2900 -0.5158  0.6041
11425TIP3    H234198   6.243   3.569   5.946 -0.2246  0.0353  0.5314
11426TIP3   OH234199   7.091   0.991   4.433  0.1409  0.2289  0.6127
11426TIP3    H134200   7.008   0.948   4.410  0.8734 -1.1095  0.4441
11426TIP3    H234201   7.128   1.019   4.350  0.1557  0.2730  0.6342
11427TIP3   OH234202   3.810   2.129   5.842 -0.1330 -0.2690  0.2376
11427TIP3    H134203   3.905   2.130   5.826 -0.3142  0.8172 -0.8992
11427TIP3    H234204   3.776   2.195   5.782 -1.5734 -0.3797  0.9297
11428TIP3   OH234205   3.529   1.881   7.179 -0.3569  0.2501  0.1690
11428TIP3    H134206   3.509   1.968   7.215  1.2030  1.8771 -2.6815
11428TIP3    H234207   3.460   1.865   7.115  0.6568  0.4958 -1.0119
11429TIP3   OH234208   2.074   6.194   0.596  0.0506  0.1768  0.0457
11429TIP3    H134209   2.119   6.231   0.672 -0.9691 -2.2987  1.8851
11429TIP3    H234210   2.010   6.261   0.571  2.1962  2.1553 -0.3431
11430TIP3   OH234211   5.075   2.013   6.477  0.1450 -0.0203 -0.2859
11430TIP3    H134212   5.029   1.946   6.528  0.5107 -0.7049 -0.8430
11430TIP3    H234213   5.006   2.060   6.431 -0.1178 -0.0001  0.1263
11431TIP3   OH234214   2.514   4.211   6.301 -0.1354  0.4241 -0.5461
11431TIP3    H134215   2.511   4.234   6.208 -0.9879 -1.6865 -1.0559
11431TIP3    H234216   2.528   4.117   6.302  0.5842  0.5328  1.4905
11432TIP3   OH234217   7.182   5.246   5.061  0.2664  0.3840 -0.2402
11432TIP3    H134218   7.238   5.322   5.045 -1.0946  1.6068  0.6292
11432TIP3    H234219   7.191   5.228   5.154 -1.0986  0.8538 -0.0127
11433TIP3   OH234220   5.876   7.382   6.162  0.2192  0.2649  0.3438
11433TIP3    H134221   5.822   7.380   6.083 -0.3201 -1.6651  0.7375
11433TIP3    H234222   5.916   7.295   6.167 -1.3542 -0.3561  3.2686
11434TIP3   OH234223   7.827   6.237   0.526  0.5057  0.5483 -0.0872
11434TIP3    H134224   7.911   6.201   0.553  0.3589  1.0990  1.1640
11434TIP3    H234225   7.846   6.281   0.442  1.3523  0.2416 -0.0655
11435TIP3   OH234226   5.473   3.076   6.276  0.1188  0.1855 -0.1629
11435TIP3    H134227   5.518   3.160   6.284 -1.5734  1.0327  0.7934
11435TIP3    H234228   5.532   3.013   6.319  1.4848  0.8275 -1.0495
11436TIP3   OH234229   3.784   3.870   5.216  0.3640  0.0800  0.0287
11436TIP3    H134230   3.761   3.946   5.162 -1.9180 -1.5791 -1.4055
11436TIP3    H234231   3.770   3.900   5.306  0.0263  1.5502 -0.4939
11437TIP3   OH234232   8.293   8.319   1.559 -0.5484  0.4803 -0.0595
11437TIP3    H134233   8.272   8.403   1.517 -0.3995  0.9276  0.7500
11437TIP3    H234234   8.208   8.283   1.583 -0.7192 -0.3251 -1.7517
11438TIP3   OH234235   3.846   3.749   6.428 -0.2768  0.9140 -0.5285
11438TIP3    H134236   3.820   3.709   6.346  0.3650 -0.5350 -0.0542
11438TIP3    H234237   3.796   3.701   6.495  0.0756  1.2897  0.0079
11439TIP3   OH234238   6.399   4.405   6.107  0.1711  0.3379  0.3922
11439TIP3    H134239   6.430   4.366   6.026 -0.9813 -2.2519  1.1477
11439TIP3    H234240   6.335   4.471   6.080 -1.0970 -1.3272 -0.8106
11440TIP3   OH234241   7.222   1.094   5.483  0.2353  0.5881 -0.5681
11440TIP3    H134242   7.138   1.136   5.498 -0.1180 -0.6768  1.2707
11440TIP3    H234243   7.275   1.118   5.560 -0.1299 -2.5684  0.7716
11441TIP3   OH234244   7.790   6.724   0.192 -0.7930 -0.0983  0.0521
11441TIP3    H134245   7.733   6.661   0.236 -0.5262  1.8061  3.2613
11441TIP3    H234246   7.765   6.718   0.100 -3.4830 -2.0616  0.8500
11442TIP3   OH234247   7.053   7.315   0.346 -0.0247  0.7265  0.2028
11442TIP3    H134248   7.009   7.378   0.290 -0.0341  1.8617  1.4742
11442TIP3    H234249   6.983   7.260   0.381 -0.1740  0.9378  0.2368
11443TIP3   OH234250   7.282   6.757   2.481  0.2903  0.1552  0.2463
11443TIP3    H134251   7.306   6.748   2.389  1.2915  1.0008  0.4135
11443TIP3    H234252   7.303   6.673   2.520  1.9341  0.5036  0.1489
11444TIP3   OH234253   4.246   3.090   6.007 -0.3250 -0.2313  0.2897
11444TIP3    H134254   4.165   3.088   6.058 -0.0274 -2.1073  0.7539
11444TIP3    H234255   4.272   2.998   6.002  0.6287  0.1272 -1.6901
11445TIP3   OH234256   7.465   2.293   6.873 -0.1312  0.1695  0.6500
11445TIP3    H134257   7.472   2.315   6.966 -2.0742 -0.5268  0.9806
11445TIP3    H234258   7.408   2.216   6.871  1.6887 -1.1922 -0.9498
11446TIP3   OH234259   7.102   7.898   0.203  0.6538 -0.0491  0.0449
11446TIP3    H134260   7.168   7.965   0.187 -0.0069  0.3603 -1.0405
11446TIP3    H234261   7.151   7.823   0.237  1.6571  0.2979 -0.6177
11447TIP3   OH234262   6.898   7.056   0.889 -0.3676  0.2527 -0.1282
11447TIP3    H134263   6.852   6.995   0.832 -1.6301 -0.4240  1.5709
11447TIP3    H234264   6.980   7.074   0.843  0.2716 -3.0963 -0.4802
11448TIP3   OH234265   6.556   8.271   0.842 -0.0663 -0.3494  0.1911
11448TIP3    H134266   6.527   8.192   0.796  1.2073 -0.9759  0.4416
11448TIP3    H234267   6.490   8.284   0.911  0.4811 -2.0262  1.0621
11449TIP3   OH234268   0.304   6.949   0.808  0.0811 -0.1617  0.3109
11449TIP3    H134269   0.233   6.972   0.869 -0.7896  1.5178 -1.2845
11449TIP3    H234270   0.380   6.997   0.842  0.6868 -2.4856  2.4087
11450TIP3   OH234271   5.720   3.211   4.682 -0.1761  0.4728  0.3350
11450TIP3    H134272   5.768   3.264   4.746 -1.3157 -1.3060  2.7585
11450TIP3    H234273   5.787   3.154   4.644  0.3127  0.7158  0.8094
11451TIP3   OH234274   5.333   4.642   6.229 -0.0831 -0.2056 -0.0656
11451TIP3    H134275   5.392   4.572   6.258  0.5185  0.0559 -0.6328
11451TIP3    H234276   5.248   4.600   6.221 -0.0327 -0.5329  1.0201
11452TIP3   OH234277   4.875   1.649   6.544 -0.2919 -0.4456  0.1326
11452TIP3    H134278   4.962   1.615   6.521 -0.2491 -0.1278 -0.1616
11452TIP3    H234279   4.817   1.574   6.532 -0.2768 -0.2790 -1.0220
11453TIP3   OH234280   5.933   3.052   5.981  0.4382 -0.3168 -0.0804
11453TIP3    H134281   5.998   2.989   5.949  0.1893 -0.1236 -0.9673
11453TIP3    H234282   5.967   3.079   6.067  2.0567  0.5646 -0.9740
11454TIP3   OH234283   6.209   3.435   6.070  0.1846  0.5098  0.4469
11454TIP3    H134284   6.143   3.391   6.016 -1.8931  0.1602  3.1165
11454TIP3    H234285   6.269   3.366   6.096 -0.0286  0.2680  0.2986
11455TIP3   OH234286   8.290   6.926   2.025  0.3613  0.0099  1.0855
11455TIP3    H134287   8.292   6.846   2.078 -0.4473  0.3526  1.6398
11455TIP3    H234288   8.317   6.996   2.085  0.5629  0.2381  0.7353
11456TIP3   OH234289   6.010   0.845   7.186 -0.5922 -0.4192  0.3625
11456TIP3    H134290   6.006   0.801   7.271  0.2814 -2.0655 -0.4266
11456TIP3    H234291   6.068   0.791   7.133 -0.6973  0.8765 -1.1316
11457TIP3   OH234292   6.432   6.388   1.038 -0.7292 -0.3084 -0.0157
11457TIP3    H134293   6.526   6.400   1.056 -1.3557  3.1185  1.4162
11457TIP3    H234294   6.394   6.368   1.124 -1.7190  1.3672 -0.0551
11458TIP3   OH234295   5.077   1.251   6.295  0.3673  0.4953 -0.3336
11458TIP3    H134296   5.010   1.300   6.343  1.0229 -0.2223  1.3557
11458TIP3    H234297   5.159   1.270   6.342  0.6548 -2.0424  0.2353
11459TIP3   OH234298   5.629   2.298   5.933 -0.2825 -0.0204  0.6846
11459TIP3    H134299   5.599   2.289   6.023 -1.3692  1.3546  0.4879
11459TIP3    H234300   5.697   2.232   5.923  0.9164  0.8200  2.9761
11460TIP3   OH234301   7.537   2.747   6.822 -0.3549 -0.3049 -0.6158
11460TIP3    H134302   7.485   2.667   6.834  0.8911 -0.7817  2.0913
11460TIP3    H234303   7.490   2.813   6.873  0.7012 -0.2919  0.3476
11461TIP3   OH234304   6.539   1.142   6.502 -0.8906 -0.6553 -0.2891
11461TIP3    H134305   6.463   1.106   6.548 -0.3886 -1.2852  0.0638
11461TIP3    H234306   6.513   1.230   6.477 -2.0985 -1.2259 -1.0488
11462TIP3   OH234307   0.520   6.313   1.499 -0.0161  0.0969 -0.6215
11462TIP3    H134308   0.503   6.313   1.593  0.4805 -0.5417 -0.5276
11462TIP3    H234309   0.611   6.342   1.491 -0.3544  1.1167 -0.9718
11463TIP3   OH234310   8.824   5.533   0.926  0.2185  0.1546  0.7592
11463TIP3    H134311   8.916   5.540   0.953  1.3888  0.2641 -2.9905
11463TIP3    H234312   8.796   5.623   0.912 -0.1710  0.0649  0.9380
11464TIP3   OH234313   5.797   5.055   5.840 -0.5482 -0.7546 -0.3057
11464TIP3    H134314   5.716   5.008   5.857 -0.9723 -0.0252 -0.2656
11464TIP3    H234315   5.811   5.048   5.746 -1.6070  0.6098 -0.5817
11465TIP3   OH234316   3.821   2.484   5.825 -0.0346  0.6882  0.5753
11465TIP3    H134317   3.885   2.510   5.890 -0.6651 -2.0220  2.3663
11465TIP3    H234318   3.749   2.446   5.875 -1.5190  0.5237 -1.5779
11466TIP3   OH234319   8.292   0.435   0.791  0.2956  0.7268 -0.5096
11466TIP3    H134320   8.242   0.505   0.749  0.2738  0.3002 -1.2011
11466TIP3    H234321   8.227   0.389   0.845  0.5809  2.0396  1.0003
11467TIP3   OH234322   6.863   7.985   0.248 -0.5436 -0.3758 -0.0976
11467TIP3    H134323   6.845   8.011   0.158 -1.0330  1.3660  0.4887
11467TIP3    H234324   6.952   7.950   0.245 -0.7175 -0.7401 -1.3283
11468TIP3   OH234325   3.537   1.128   7.085 -0.6085 -0.0962 -0.6354
11468TIP3    H134326   3.462   1.174   7.122 -0.5877  0.5349 -1.3862
11468TIP3    H234327   3.533   1.040   7.124 -2.7055 -0.6193 -1.9955
11469TIP3   OH234328   6.329   5.268   5.424  0.1314  0.2097 -0.2755
11469TIP3    H134329   6.417   5.235   5.444 -0.0003 -0.1677 -0.2984
11469TIP3    H234330   6.277   5.189   5.409 -1.4003  0.1427  4.4550
11470TIP3   OH234331   6.662   4.997   5.064 -0.4587  0.1946  0.2192
11470TIP3    H134332   6.569   5.001   5.087 -0.6415 -1.0100 -0.2453
11470TIP3    H234333   6.708   5.028   5.142 -1.2562  1.0005  0.3743
11471TIP3   OH234334   0.061   8.205   1.417  0.1083  0.4165  0.4982
11471TIP3    H134335   0.125   8.208   1.345  0.9510  0.5293  1.2517
11471TIP3    H234336  -0.024   8.204   1.372  0.6537 -3.1905 -0.6086
11472TIP3   OH234337   6.670   6.447   3.563 -0.1387 -0.1413 -0.1738
11472TIP3    H134338   6.739   6.391   3.597 -1.4717 -1.9372 -0.3300
11472TIP3    H234339   6.640   6.498   3.639  1.5670  0.9074 -0.1884
11473TIP3   OH234340   5.628   2.603   3.002 -0.1855 -0.6217 -0.3254
11473TIP3    H134341   5.716   2.636   2.985 -0.0458 -1.2337 -0.7989
11473TIP3    H234342   5.584   2.674   3.048  0.6943 -0.4743  0.3061
11474TIP3   OH234343   6.841   3.981   6.627  0.6855 -0.1850 -0.1043
11474TIP3    H134344   6.813   3.906   6.679 -1.9974 -0.3846 -1.7360
11474TIP3    H234345   6.762   4.033   6.616  1.7982  1.2169 -1.7416
11475TIP3   OH234346   8.301   1.243   5.022  0.3639  0.1267  0.1997
11475TIP3    H134347   8.224   1.239   4.966 -0.7936 -2.1408  1.9026
11475TIP3    H234348   8.364   1.184   4.981  1.5253  2.4850 -1.5638
11476TIP3   OH234349   5.741   4.741   5.595 -0.5206  0.0986  0.5419
11476TIP3    H134350   5.812   4.686   5.627  0.7118  0.7499 -0.9709
11476TIP3    H234351   5.698   4.689   5.527 -0.1966  0.4787  0.0400
11477TIP3   OH234352   5.713   3.572   3.875 -0.2306 -0.5296 -0.4670
11477TIP3    H134353   5.768   3.524   3.936  1.7047  1.7087 -0.3408
11477TIP3    H234354   5.703   3.659   3.915  0.2832  0.6655 -2.8407
11478TIP3   OH234355   7.948   7.319   1.211 -0.1598  0.3699  0.6178
11478TIP3    H134356   8.004   7.318   1.289 -0.6518 -0.4909  0.9602
11478TIP3    H234357   8.006   7.348   1.140  0.2526  1.3237  1.3247
11479TIP3   OH234358   5.745   7.680   0.535 -0.5098 -0.5002 -0.2066
11479TIP3    H134359   5.715   7.653   0.622 -1.2060  0.2414 -0.2121
11479TIP3    H234360   5.823   7.627   0.519 -1.2403 -1.7298  0.2362
11480TIP3   OH234361   7.041   1.899   7.162 -0.1591 -0.3238  0.2208
11480TIP3    H134362   7.032   1.924   7.254  0.9644  0.7520  0.0406
11480TIP3    H234363   7.108   1.956   7.127 -0.9344 -0.3730 -1.4192
11481TIP3   OH234364   1.076   7.842   0.146  0.5612 -0.8178 -0.5007
11481TIP3    H134365   1.085   7.806   0.058 -1.2007 -0.6932 -0.7366
11481TIP3    H234366   1.060   7.935   0.132 -0.5005 -0.9320 -0.0895
11482TIP3   OH234367   7.539   0.945   5.900  0.8116 -0.0262 -0.2090
11482TIP3    H134368   7.519   0.853   5.917 -0.2214  0.1323 -0.4806
11482TIP3    H234369   7.634   0.948   5.890  0.7139 -1.3444 -1.7921
11483TIP3   OH234370   5.627   4.029   5.704  0.4723 -0.0620 -0.1402
11483TIP3    H134371   5.662   4.088   5.638 -0.7369 -1.9846 -2.5871
11483TIP3    H234372   5.703   3.978   5.733  0.7665 -0.1429 -1.0446
11484TIP3   OH234373   5.578   1.975   5.531  0.1846  0.0024  0.2791
11484TIP3    H134374   5.660   1.980   5.481 -0.1337 -2.1630 -0.5104
11484TIP3    H234375   5.597   1.911   5.600 -1.5442 -2.3228 -1.3336
11485TIP3   OH234376   4.486   4.374   5.195  0.1683  0.0332  0.0059
11485TIP3    H134377   4.501   4.468   5.189 -0.9349  0.1448 -1.4668
11485TIP3    H234378   4.574   4.336   5.202  0.7701  1.0465 -1.6956
11486TIP3   OH234379   5.763   7.341   1.853  0.0783 -0.2322 -0.2644
11486TIP3    H134380   5.730   7.252   1.845  0.8379 -0.7032  1.7231
11486TIP3    H234381   5.850   7.331   1.893 -0.5334  1.4920  1.5596
11487TIP3   OH234382   5.919   3.563   7.078  0.1096  0.5747  0.4341
11487TIP3    H134383   5.932   3.629   7.146  1.6789  1.9578 -1.1481
11487TIP3    H234384   6.007   3.546   7.044 -0.6665  0.0751 -1.3951
11488TIP3   OH234385   1.258   6.331   2.129 -0.0277 -0.3677 -0.0074
11488TIP3    H134386   1.289   6.281   2.205  0.6257  1.1442  0.7662
11488TIP3    H234387   1.165   6.344   2.146 -0.8415 -3.7460 -1.6479
11489TIP3   OH234388   4.851   1.966   7.130  0.2519  0.1421  0.0030
11489TIP3    H134389   4.882   1.908   7.061 -0.7695 -1.1225  0.5776
11489TIP3    H234390   4.929   1.986   7.182  0.8483  0.3367 -0.9527
11490TIP3   OH234391   5.388   2.393   7.089  1.0485 -0.7591 -0.0895
11490TIP3    H134392   5.451   2.455   7.125 -0.3386  0.6453 -0.0137
11490TIP3    H234393   5.398   2.401   6.994  0.9239 -0.4735 -0.0788
11491TIP3   OH234394   5.593   2.559   7.110  0.8198  0.3949  0.1112
11491TIP3    H134395   5.620   2.622   7.043  0.0468  1.2178  0.5656
11491TIP3    H234396   5.649   2.577   7.185  0.2604  0.8826  0.4159
11492TIP3   OH234397   5.245   0.567   7.067  0.0655 -0.3298  0.0393
11492TIP3    H134398   5.281   0.479   7.054 -0.1047 -0.4411  0.3049
11492TIP3    H234399   5.167   0.553   7.122  0.2091  0.0167  0.3341
11493TIP3   OH234400   5.939   2.554   6.936 -0.1100 -0.1155 -0.0237
11493TIP3    H134401   5.992   2.501   6.876 -0.1284 -0.0316 -0.1142
11493TIP3    H234402   5.915   2.493   7.006 -1.2757 -0.5938 -0.8251
11494TIP3   OH234403   6.607   5.822   4.092  0.1330 -0.2084  0.4973
11494TIP3    H134404   6.632   5.890   4.029 -0.6357  0.4114  0.8438
11494TIP3    H234405   6.514   5.807   4.075  0.1513 -0.7154  0.8464
11495TIP3   OH234406   8.113   5.211   2.491  0.0937 -0.6742 -0.1696
11495TIP3    H134407   8.043   5.272   2.515 -0.4318 -1.5695  0.6605
11495TIP3    H234408   8.194   5.256   2.515 -0.3427 -0.7559  1.4879
11496TIP3   OH234409   6.466   2.420   6.990 -0.8395 -0.0840  0.3793
11496TIP3    H134410   6.377   2.429   7.024 -0.4194  0.1113  1.4609
11496TIP3    H234411   6.510   2.361   7.052 -0.8042 -1.9067 -1.3134
11497TIP3   OH234412   5.783   3.383   6.577  0.6499 -0.4955  0.0407
11497TIP3    H134413   5.775   3.467   6.533  0.4800 -1.4666 -1.8402
11497TIP3    H234414   5.693   3.352   6.589  0.7375 -0.7584  0.0403
11498TIP3   OH234415   4.104   5.297   7.124  0.0413  0.0255 -0.0529
11498TIP3    H134416   4.135   5.370   7.178 -0.1379  1.7017 -2.1821
11498TIP3    H234417   4.178   5.236   7.121  0.5858  0.6284  0.8292
11499TIP3   OH234418   6.575   4.126   4.921  0.3720  0.5792 -0.0728
11499TIP3    H134419   6.607   4.036   4.930  0.3845  0.5141 -0.7036
11499TIP3    H234420   6.647   4.180   4.954 -0.4837  0.2945  2.3509
11500TIP3   OH234421   6.755   2.661   6.244 -0.0667  0.2424  0.4640
11500TIP3    H134422   6.711   2.576   6.251 -0.9405  0.6528  0.0338
11500TIP3    H234423   6.848   2.641   6.258  0.0161 -1.1065 -1.7355
11501TIP3   OH234424   6.821   7.564   0.810  0.4841 -0.1905 -0.0368
11501TIP3    H134425   6.822   7.563   0.714 -1.2530  0.5503 -0.0834
11501TIP3    H234426   6.729   7.575   0.833  1.1332  1.9832  1.6920
11502TIP3   OH234427   8.611   5.873   0.159 -0.2806 -0.5390 -0.6085
11502TIP3    H134428   8.656   5.835   0.235 -2.1455 -0.9897  0.3045
11502TIP3    H234429   8.668   5.853   0.085  1.7812  0.2759  0.7096
11503TIP3   OH234430   4.174   4.090   5.868 -0.7022  0.1750  0.1246
11503TIP3    H134431   4.260   4.105   5.830 -1.0654 -0.4501 -0.9977
11503TIP3    H234432   4.124   4.170   5.848 -0.5873  0.2615  0.1837
11504TIP3   OH234433   6.138   3.612   5.581  0.3048 -0.0402 -0.4585
11504TIP3    H134434   6.207   3.602   5.516  1.0121 -0.2400  0.3189
11504TIP3    H234435   6.150   3.700   5.617  0.3444 -0.1843 -0.1100
11505TIP3   OH234436   7.117   3.033   5.890  0.3080 -0.0085 -0.4728
11505TIP3    H134437   7.159   2.953   5.860 -1.2861 -0.5406 -1.3696
11505TIP3    H234438   7.188   3.087   5.925  1.6719 -0.9907 -1.7052
11506TIP3   OH234439   4.184   3.108   6.642  0.2113  0.2261  0.5009
11506TIP3    H134440   4.211   3.089   6.732  0.1206  0.5599  0.6012
11506TIP3    H234441   4.127   3.035   6.618 -0.4253  0.5456  1.0082
11507TIP3   OH234442   7.375   6.334   0.257  0.7315  0.4321 -0.2582
11507TIP3    H134443   7.327   6.252   0.245  0.6932  0.6042 -1.3999
11507TIP3    H234444   7.410   6.329   0.345  0.1114 -0.4901 -0.0540
11508TIP3   OH234445   8.171   7.144   0.077 -0.0009  0.3740  0.8044
11508TIP3    H134446   8.099   7.174   0.021  1.3725  2.1004 -0.0995
11508TIP3    H234447   8.201   7.063   0.035  1.1641  1.7781 -1.1087
11509TIP3   OH234448   4.716   1.132   5.248 -0.0413  0.5313 -0.2194
11509TIP3    H134449   4.662   1.146   5.326  0.4674  0.9853  0.0573
11509TIP3    H234450   4.667   1.069   5.195 -0.5937  0.5523  0.2678
11510TIP3   OH234451   5.967   2.627   5.660 -0.2870  0.1771 -0.1557
11510TIP3    H134452   5.897   2.641   5.597 -0.0803 -1.2154 -0.7135
11510TIP3    H234453   6.043   2.673   5.624 -0.9253  1.7962  0.5133
11511TIP3   OH234454   6.007   3.320   5.937  0.0194  0.1645  0.0839
11511TIP3    H134455   5.927   3.371   5.944 -0.5558 -0.7369  0.2188
11511TIP3    H234456   5.978   3.229   5.944  1.0075 -0.1873 -0.2644
11512TIP3   OH234457   4.877   3.037   6.390  0.0191 -0.3952  0.0593
11512TIP3    H134458   4.941   3.066   6.455  1.1501 -2.1071 -0.2383
11512TIP3    H234459   4.820   3.113   6.376  0.4452  0.3555  2.1970
11513TIP3   OH234460   4.705   4.374   6.764 -0.3418 -0.4289  0.2181
11513TIP3    H134461   4.782   4.319   6.748  0.7195  1.6245 -2.0356
11513TIP3    H234462   4.734   4.434   6.833 -1.4960 -2.5718  2.6670
11514TIP3   OH234463   5.951   3.370   4.793  0.1510  0.0040 -0.6711
11514TIP3    H134464   5.916   3.417   4.868 -0.7720 -0.0154 -1.0889
11514TIP3    H234465   6.015   3.309   4.830  0.0010  0.2824  0.0499
11515TIP3   OH234466   1.636   5.743   1.533  0.5030  0.0750  0.4400
11515TIP3    H134467   1.564   5.688   1.563 -0.5117  2.5999  2.8592
11515TIP3    H234468   1.604   5.780   1.450 -0.8019  0.8358  1.2780
11516TIP3   OH234469   3.962   3.160   5.701  0.0839 -0.0543 -0.5775
11516TIP3    H134470   3.905   3.214   5.647 -0.6853  0.1814  0.4479
11516TIP3    H234471   4.036   3.216   5.722 -0.1060  0.1855 -0.5487
11517TIP3   OH234472   5.346   1.422   5.227 -0.3871  0.0641  0.1680
11517TIP3    H134473   5.270   1.369   5.203  1.1425 -2.2490  0.1656
11517TIP3    H234474   5.408   1.408   5.155  0.6130  0.6805  0.8983
11518TIP3   OH234475   3.485   7.537   3.972 -0.3224  0.3132 -1.0927
11518TIP3    H134476   3.420   7.493   4.027  0.5206 -1.9223 -1.8129
11518TIP3    H234477   3.521   7.605   4.028 -0.6806 -0.8167  0.5661
11519TIP3   OH234478   5.012   3.008   5.860 -0.0239  0.3219  0.0755
11519TIP3    H134479   5.096   2.966   5.845  0.3173  0.6165  1.1269
11519TIP3    H234480   5.002   3.010   5.956 -1.1340  0.4518 -0.0298
11520TIP3   OH234481   5.821   2.679   4.892 -0.2686  0.4184 -0.1041
11520TIP3    H134482   5.805   2.711   4.804  1.4727  1.2834 -0.1389
11520TIP3    H234483   5.801   2.754   4.949 -0.2005  0.2607  0.1291
11521TIP3   OH234484   8.274   6.005   2.138  0.9423 -0.2116 -0.1580
11521TIP3    H134485   8.279   5.938   2.206 -0.2788  0.4353  0.5912
11521TIP3    H234486   8.180   6.020   2.126  1.1904  2.5582  0.9081
11522TIP3   OH234487   6.489   4.533   6.443  0.0522 -0.1305  0.1926
11522TIP3    H134488   6.459   4.448   6.410  0.1689 -0.5882  1.2447
11522TIP3    H234489   6.547   4.512   6.516 -1.3610  0.8906  1.6539
11523TIP3   OH234490   3.386   3.460   5.618 -0.2036 -0.5171 -0.6411
11523TIP3    H134491   3.458   3.501   5.666  0.3592  0.0038 -1.9106
11523TIP3    H234492   3.318   3.527   5.615 -0.6443 -0.9001  0.2787
11524TIP3   OH234493   4.568   0.852   6.238  0.4445  0.2921 -1.1597
11524TIP3    H134494   4.594   0.881   6.151  1.1040  1.7029 -0.4969
11524TIP3    H234495   4.648   0.856   6.290  0.5723 -2.7510 -1.0439
11525TIP3   OH234496   2.443   8.349   0.274  0.3587  0.6218 -1.0216
11525TIP3    H134497   2.508   8.380   0.338  2.1768 -0.0720 -2.4719
11525TIP3    H234498   2.414   8.428   0.229  1.5893  0.7534 -1.6090
11526TIP3   OH234499   7.198   3.580   5.844  0.1633  0.0182  0.2924
11526TIP3    H134500   7.136   3.575   5.772 -0.5535  0.3800  0.8781
11526TIP3    H234501   7.186   3.497   5.891  1.0752 -0.4926 -0.3536
11527TIP3   OH234502   6.832   3.946   6.203 -0.2927 -0.7407 -0.2016
11527TIP3    H134503   6.813   4.034   6.235 -0.3610 -1.0234  0.5649
11527TIP3    H234504   6.885   3.959   6.125  0.2800 -0.0340  0.3028
11528TIP3   OH234505   7.274   3.429   7.234 -0.0471 -0.0331  1.0177
11528TIP3    H134506   7.288   3.473   7.318  0.5038  0.5579  0.6229
11528TIP3    H234507   7.360   3.430   7.192 -0.4541  0.2238  0.1836
11529TIP3   OH234508   7.938   5.078   5.727 -0.0956 -0.5670  0.9196
11529TIP3    H134509   8.007   5.021   5.694  2.5554  2.4993  0.8862
11529TIP3    H234510   7.930   5.055   5.819 -0.1758 -2.0370  0.5577
11530TIP3   OH234511   7.373   3.163   5.940 -0.6387  0.4968 -0.0897
11530TIP3    H134512   7.407   3.074   5.949  0.1043  0.8703  0.8670
11530TIP3    H234513   7.448   3.219   5.960 -1.9835  1.3455  2.8552
11531TIP3   OH234514   6.512   3.627   4.462 -0.0955  0.4088 -0.0529
11531TIP3    H134515   6.444   3.562   4.479 -0.5368  0.9445  0.2391
11531TIP3    H234516   6.529   3.667   4.548  0.3561  0.5063 -0.1849
11532TIP3   OH234517   5.219   3.539   6.142 -0.1453 -0.1888 -0.4043
11532TIP3    H134518   5.211   3.447   6.166  2.2781 -0.0805  0.9529
11532TIP3    H234519   5.175   3.586   6.213 -2.9402 -0.2903 -1.9564
11533TIP3   OH234520   4.433   8.291   6.673  0.2160  0.7057 -0.1507
11533TIP3    H134521   4.365   8.347   6.710 -0.3402 -0.0540 -0.0106
11533TIP3    H234522   4.389   8.207   6.658  0.9402  0.4312 -0.7271
11534TIP3   OH234523   6.121   3.228   4.431  0.2749 -0.3555 -0.2547
11534TIP3    H134524   6.121   3.323   4.446 -1.3844 -0.3761 -0.1013
11534TIP3    H234525   6.123   3.219   4.336 -0.2670 -0.1553 -0.2885
11535TIP3   OH234526   1.668   2.116   3.974  0.0273 -0.0429  0.1339
11535TIP3    H134527   1.714   2.168   3.908  0.1186  1.4304  1.3201
11535TIP3    H234528   1.728   2.045   3.995  0.6418  0.3624 -0.2443
11536TIP3   OH234529   7.465   0.920   5.076 -0.8785  0.0861  0.3348
11536TIP3    H134530   7.398   0.884   5.134 -0.6473 -0.1724  0.4411
11536TIP3    H234531   7.488   0.848   5.018  1.2796 -0.6667  2.0620
11537TIP3   OH234532   0.205   5.446   0.109  0.3413 -0.2609 -0.0568
11537TIP3    H134533   0.112   5.462   0.091  0.3523 -0.3697 -0.2130
11537TIP3    H234534   0.227   5.370   0.055  0.5428 -0.1850 -0.0816
11538TIP3   OH234535   0.831   5.848   0.431 -0.5289 -0.1223 -0.4455
11538TIP3    H134536   0.808   5.816   0.344  0.4934 -0.1975 -0.6876
11538TIP3    H234537   0.832   5.944   0.422  3.4354 -0.2035 -1.5252
11539TIP3   OH234538   6.954   3.576   5.648  0.4030 -0.2953  0.6851
11539TIP3    H134539   6.867   3.544   5.673  0.7335 -0.0222  2.2136
11539TIP3    H234540   6.941   3.615   5.562 -0.3089 -3.2471 -0.6119
11540TIP3   OH234541   6.024   1.759   4.894  0.0922  0.1092  0.2108
11540TIP3    H134542   6.110   1.799   4.880 -0.4046  1.4678  1.0273
11540TIP3    H234543   5.988   1.803   4.971 -0.9351 -1.1377  0.4700
11541TIP3   OH234544   8.156   1.955   5.245 -0.2871  0.6200  1.0399
11541TIP3    H134545   8.152   2.050   5.254  0.7095  0.6774  0.9316
11541TIP3    H234546   8.181   1.923   5.332 -0.0001  0.5119  0.9216
11542TIP3   OH234547   6.288   0.152   6.502  0.3852 -0.1194 -0.0762
11542TIP3    H134548   6.322   0.237   6.473 -0.5727 -0.3945 -2.1167
11542TIP3    H234549   6.298   0.095   6.426  0.9879 -1.8586  1.2569
11543TIP3   OH234550   8.057   2.951   3.414  0.0074 -0.2847 -0.1445
11543TIP3    H134551   8.056   3.046   3.425 -2.1764 -0.0314 -2.1276
11543TIP3    H234552   7.985   2.919   3.468  1.6446 -1.0134  1.6870
11544TIP3   OH234553   0.709   6.665   1.725  0.4631  0.2426  0.0895
11544TIP3    H134554   0.751   6.735   1.674 -2.3816  0.8421 -1.4932
11544TIP3    H234555   0.617   6.668   1.699 -0.3991 -1.7182  2.7378
11545TIP3   OH234556   7.667   4.017   5.598 -0.0612  0.2752  0.1131
11545TIP3    H134557   7.713   3.979   5.523  1.6535 -2.6100  2.5181
11545TIP3    H234558   7.578   3.985   5.590 -0.0835  0.6463 -1.1452
11546TIP3   OH234559   5.113   3.600   7.246  0.4677  0.1245 -0.2006
11546TIP3    H134560   5.028   3.605   7.289  0.6181  1.3249 -0.0185
11546TIP3    H234561   5.144   3.690   7.244  2.5577 -0.5136  1.3541
11547TIP3   OH234562   7.483   3.340   5.318 -0.2166  0.2970  0.3434
11547TIP3    H134563   7.497   3.431   5.343 -0.1555  0.4677 -0.3102
11547TIP3    H234564   7.467   3.295   5.401  4.0974  0.0981  1.1675
11548TIP3   OH234565   7.896   3.590   4.750 -0.2291  0.1122  0.0699
11548TIP3    H134566   7.809   3.613   4.718 -1.1624  0.1729  2.5377
11548TIP3    H234567   7.912   3.650   4.823  0.5260 -1.9165  1.6374
11549TIP3   OH234568   6.275   4.562   3.596 -0.2967 -0.5249 -0.0674
11549TIP3    H134569   6.319   4.574   3.680 -0.2847 -1.0389  0.0030
11549TIP3    H234570   6.334   4.506   3.545 -1.0624 -1.5975  0.1947
11550TIP3   OH234571   6.606   2.300   5.344 -0.0184 -0.0146 -0.0713
11550TIP3    H134572   6.661   2.293   5.266  0.3988 -0.5961  0.2731
11550TIP3    H234573   6.640   2.235   5.404 -2.5971 -2.1017 -0.7627
11551TIP3   OH234574   5.050   5.541   5.818  0.2527 -0.1907  0.0638
11551TIP3    H134575   5.053   5.475   5.887  0.3765  1.0765  1.2773
11551TIP3    H234576   5.080   5.495   5.740  0.1522 -1.6223  0.8578
11552TIP3   OH234577   8.162   4.222   4.350 -1.1526 -0.3753  0.1297
11552TIP3    H134578   8.247   4.188   4.377 -0.8857 -0.0239 -0.2605
11552TIP3    H234579   8.120   4.149   4.304 -0.0620  0.2166 -1.8265
11553TIP3   OH234580   7.777   1.879   4.797 -0.1645  0.1783 -0.0817
11553TIP3    H134581   7.848   1.840   4.746  1.4016  0.3614  1.8670
11553TIP3    H234582   7.786   1.973   4.782  1.8315  0.4467  2.3012
11554TIP3   OH234583   8.624   3.646   5.040  0.4966 -0.6582  0.3578
11554TIP3    H134584   8.583   3.732   5.032 -1.2745 -1.2307  2.6134
11554TIP3    H234585   8.713   3.665   5.070  0.2938  0.4318  0.2927
11555TIP3   OH234586   7.166   2.553   4.520 -0.0643 -0.2624  0.4210
11555TIP3    H134587   7.259   2.564   4.502 -0.4856 -0.5095 -2.0756
11555TIP3    H234588   7.150   2.460   4.507 -0.6749 -0.2055  0.7614
11556TIP3   OH234589   6.614   3.694   5.356  0.2910  0.0170 -0.0306
11556TIP3    H134590   6.636   3.628   5.290  0.0742  0.0286 -0.1152
11556TIP3    H234591   6.600   3.775   5.306 -1.6980 -0.3772 -0.1863
11557TIP3   OH234592   8.138   3.524   5.795  1.0547  0.6684  0.0205
11557TIP3    H134593   8.073   3.456   5.778 -2.6369  4.0802 -0.1689
11557TIP3    H234594   8.171   3.549   5.709 -0.4548  1.7186 -0.2842
11558TIP3   OH234595   7.423   1.291   4.144 -0.3746 -0.1477 -0.0728
11558TIP3    H134596   7.508   1.334   4.150 -0.0194 -0.9322  0.7349
11558TIP3    H234597   7.359   1.362   4.138  0.2196  0.4833  0.9425
11559TIP3   OH234598   7.519   3.264   4.836 -0.2728  0.0494 -0.4413
11559TIP3    H134599   7.446   3.206   4.858 -1.1477  0.7841 -1.3577
11559TIP3    H234600   7.508   3.339   4.896 -0.4622  0.3126 -0.8054
11560TIP3   OH234601   6.853   1.422   3.682 -0.3869  0.0867 -0.0474
11560TIP3    H134602   6.769   1.377   3.683 -0.3786  0.0521 -0.7339
11560TIP3    H234603   6.918   1.352   3.682 -0.3848  0.0764 -2.4311
11561TIP3   OH234604   5.532   4.176   5.133 -0.3078  0.0108  0.1497
11561TIP3    H134605   5.590   4.224   5.075 -0.7354  2.4207  1.6459
11561TIP3    H234606   5.585   4.159   5.211 -0.3273 -1.5357 -0.1494
11562TIP3   OH234607   8.378   2.679   6.253  0.1476 -0.2225 -0.0962
11562TIP3    H134608   8.417   2.754   6.298 -3.1535  1.0015  0.8793
11562TIP3    H234609   8.329   2.634   6.321 -1.3946 -0.8130 -1.5750
11563TIP3   OH234610   6.600   3.408   5.172  0.2380 -0.7451  0.2349
11563TIP3    H134611   6.571   3.321   5.201  1.3243 -1.0428  0.4405
11563TIP3    H234612   6.688   3.393   5.137  1.1818  0.5988  1.9953
11564TIP3   OH234613   0.782   2.442   4.896  0.3087 -0.3381  0.4276
11564TIP3    H134614   0.726   2.518   4.879  1.6743  0.5406 -0.2429
11564TIP3    H234615   0.727   2.382   4.946 -0.7130  1.2046  1.1769
11565TIP3   OH234616   6.673   2.803   2.973  0.0178  0.0276 -0.5609
11565TIP3    H134617   6.677   2.805   2.877 -1.6481 -0.0145 -0.6419
11565TIP3    H234618   6.705   2.889   3.000  0.9443 -0.1297 -1.1291
11566TIP3   OH234619   8.269   3.301   4.962 -0.2030  0.4517  0.0123
11566TIP3    H134620   8.271   3.287   5.056  2.0011 -0.4510 -0.1554
11566TIP3    H234621   8.345   3.356   4.943  1.8585 -2.8045 -1.7286
11567TIP3   OH234622   5.803   4.098   6.728 -0.1768  0.1371  0.4545
11567TIP3    H134623   5.857   4.143   6.663 -0.7558 -1.1453 -0.9305
11567TIP3    H234624   5.853   4.020   6.752  0.9467  1.5670  3.0556
11568TIP3   OH234625   7.098   1.205   6.491 -0.2803 -0.4572  0.1431
11568TIP3    H134626   7.140   1.262   6.426  1.3633 -3.2603 -1.3584
11568TIP3    H234627   7.032   1.260   6.532  1.1264  2.4724 -1.3535
11569TIP3   OH234628   6.649   3.773   5.607 -0.8892  0.0649  0.5457
11569TIP3    H134629   6.652   3.747   5.515  1.7376 -0.0140  0.6144
11569TIP3    H234630   6.639   3.691   5.655  0.4313 -0.1707  0.4384
11570TIP3   OH234631   8.213   3.736   3.257 -0.1933  0.2474 -0.0789
11570TIP3    H134632   8.144   3.700   3.202  0.0970 -0.9055  0.3098
11570TIP3    H234633   8.292   3.732   3.203 -0.4029  1.5046 -0.4995
11571TIP3   OH234634   5.053   3.432   7.048 -0.2192 -1.0233  0.0025
11571TIP3    H134635   5.064   3.489   7.125 -0.9076 -1.3580  0.3566
11571TIP3    H234636   4.959   3.433   7.032 -0.0893 -1.0623 -0.7600
11572TIP3   OH234637   6.786   3.267   5.435  0.2988 -0.2349  0.6778
11572TIP3    H134638   6.798   3.206   5.508 -2.0145 -0.9948  0.4630
11572TIP3    H234639   6.695   3.255   5.408  0.0691  2.6540  0.0099
11573TIP3   OH234640   8.640   3.531   5.490 -0.5311 -0.5513 -0.1577
11573TIP3    H134641   8.675   3.618   5.507 -0.1695 -0.3658 -1.7763
11573TIP3    H234642   8.546   3.539   5.505 -0.5777  0.2678 -0.8524
11574TIP3   OH234643   6.301   3.827   4.750 -0.3699 -0.1543 -0.1593
11574TIP3    H134644   6.312   3.914   4.787 -0.2898 -0.3792  0.3388
11574TIP3    H234645   6.243   3.782   4.810  0.8802 -0.9782  0.4654
11575TIP3   OH234646   4.957   3.569   5.277  0.2595 -0.2492  0.2243
11575TIP3    H134647   4.999   3.535   5.198 -1.2279 -0.6082 -0.4325
11575TIP3    H234648   4.872   3.525   5.280 -0.1546  0.5938  1.4243
11576TIP3   OH234649   5.763   3.337   7.134 -0.1009 -0.4188  0.0063
11576TIP3    H134650   5.799   3.417   7.096 -0.6130  0.1419  0.6898
11576TIP3    H234651   5.817   3.266   7.098  0.3953  0.2377 -0.5418
11577TIP3   OH234652   5.753   5.609   3.730  0.0926  0.3751  0.0359
11577TIP3    H134653   5.685   5.670   3.758 -0.2765  0.0440 -0.1296
11577TIP3    H234654   5.710   5.523   3.730  0.3018  0.2665 -0.7738
11578TIP3   OH234655   7.041   4.108   6.403 -0.1989 -0.5663  0.2694
11578TIP3    H134656   7.056   4.202   6.393  1.3000 -0.9608 -1.5427
11578TIP3    H234657   6.976   4.101   6.473  0.0735  1.7860  0.7953
11579TIP3   OH234658   0.226   1.440   5.194 -0.1982  0.2226  0.2862
11579TIP3    H134659   0.285   1.474   5.126 -0.1796 -0.8912 -0.2557
11579TIP3    H234660   0.179   1.518   5.225 -0.6362  0.6611 -1.4243
11580TIP3   OH234661   7.982   3.037   5.629  0.4896 -0.1097 -0.3128
11580TIP3    H134662   7.963   3.080   5.546 -0.9012 -1.9013 -0.9481
11580TIP3    H234663   8.059   2.983   5.612  0.9520  0.4660 -0.0861
11581TIP3   OH234664   0.582   6.352   2.070  0.0732  0.3553 -0.1704
11581TIP3    H134665   0.486   6.357   2.062  0.0347  2.0811  1.0632
11581TIP3    H234666   0.597   6.280   2.131 -0.4442 -0.0091 -0.4705
11582TIP3   OH234667   7.005   1.585   5.387 -0.0749  0.0730 -0.2254
11582TIP3    H134668   6.915   1.565   5.411  0.0390  0.7707  0.8421
11582TIP3    H234669   7.034   1.648   5.453  0.8577  0.6551 -1.1670
11583TIP3   OH234670   5.346   4.065   5.676  0.5046 -0.0255 -0.6216
11583TIP3    H134671   5.332   4.122   5.751  0.3078 -1.0911  0.1633
11583TIP3    H234672   5.438   4.037   5.684  0.5041 -0.0853 -0.8179
11584TIP3   OH234673   6.347   1.871   5.927 -0.4109  0.2062 -0.5000
11584TIP3    H134674   6.367   1.820   6.005  1.1705  0.3575 -0.7876
11584TIP3    H234675   6.284   1.818   5.878 -1.3639  0.0944  0.8472
11585TIP3   OH234676   6.980   1.843   6.359  0.5649 -0.2798  0.3908
11585TIP3    H134677   7.036   1.895   6.301  0.2858 -2.0838 -1.5521
11585TIP3    H234678   6.965   1.762   6.311 -0.6537 -1.3402  2.5162
11586TIP3   OH234679   5.522   2.220   6.192  0.5460  0.7638  0.4968
11586TIP3    H134680   5.499   2.130   6.172  1.6754  0.7690 -0.8365
11586TIP3    H234681   5.548   2.218   6.284  1.1284 -0.3781  0.3113
11587TIP3   OH234682   7.686   3.510   3.165  0.8247  0.1859  0.4009
11587TIP3    H134683   7.644   3.463   3.093 -1.2821  1.1461  0.9780
11587TIP3    H234684   7.701   3.598   3.131  2.3421 -0.1157  0.2305
11588TIP3   OH234685   5.483   3.780   5.157  0.0031 -0.4781 -0.0474
11588TIP3    H134686   5.409   3.838   5.170  0.4138  0.0542 -0.0629
11588TIP3    H234687   5.500   3.743   5.244  0.1614 -0.0566  0.1052
11589TIP3   OH234688   2.347   7.360   0.712  0.2059  0.1678 -0.6281
11589TIP3    H134689   2.327   7.300   0.783 -0.9685  0.6689 -0.5215
11589TIP3    H234690   2.428   7.404   0.739  0.5027 -0.6114 -0.2352
11590TIP3   OH234691   6.866   3.068   5.646  0.1721 -0.4821  0.4522
11590TIP3    H134692   6.927   2.997   5.668 -2.1894 -2.9102 -0.5036
11590TIP3    H234693   6.786   3.046   5.694 -0.5006  1.7877  0.4415
11591TIP3   OH234694   8.685   4.359   4.579 -0.1710  0.0283 -0.5325
11591TIP3    H134695   8.699   4.322   4.666 -0.6254  1.7477  0.2876
11591TIP3    H234696   8.619   4.302   4.540  0.4279 -1.0803  0.0257
11592TIP3   OH234697   1.340   1.240   6.521  0.0432 -0.2332  0.1537
11592TIP3    H134698   1.340   1.156   6.567  0.0959 -0.4633 -0.2606
11592TIP3    H234699   1.368   1.218   6.432 -0.0302  0.2110  0.0208
11593TIP3   OH234700   3.042   6.310   0.495 -0.1457 -0.4251 -0.1843
11593TIP3    H134701   3.062   6.231   0.445  0.0175  0.1494 -1.0379
11593TIP3    H234702   2.985   6.280   0.566  0.5772 -1.4399 -0.0194
11594TIP3   OH234703   4.840   2.614   5.617 -0.1907  0.8773  0.2774
11594TIP3    H134704   4.934   2.626   5.630  0.2291 -0.1145 -1.6478
11594TIP3    H234705   4.821   2.527   5.654 -0.2367  0.8202  0.1194
11595TIP3   OH234706   8.502   2.436   5.736  0.5431  0.0880  0.1857
11595TIP3    H134707   8.579   2.436   5.680  0.3539  0.1876 -0.0755
11595TIP3    H234708   8.534   2.466   5.821  1.3123 -2.4461  0.8156
11596TIP3   OH234709   6.156   1.662   6.289 -0.2724 -0.3178  0.2477
11596TIP3    H134710   6.108   1.636   6.368 -1.2631 -0.6960 -0.4674
11596TIP3    H234711   6.247   1.670   6.318 -0.7306  0.2933  1.6086
11597TIP3   OH234712   5.075   4.308   6.175  0.1977 -0.1965  0.0626
11597TIP3    H134713   5.013   4.236   6.163 -1.5959  1.3796 -0.4665
11597TIP3    H234714   5.094   4.307   6.269 -0.6305 -0.7023  0.2318
11598TIP3   OH234715   4.222   3.973   4.541  0.0194  0.5575 -0.0183
11598TIP3    H134716   4.185   3.941   4.459  0.2658 -1.9505  0.8096
11598TIP3    H234717   4.317   3.969   4.529  0.0899 -1.5324  0.9725
11599TIP3   OH234718   0.196   3.013   5.121  0.1930 -0.5599 -0.0847
11599TIP3    H134719   0.234   2.927   5.136  1.5082  0.0912  0.4266
11599TIP3    H234720   0.103   3.002   5.140  0.6410 -1.4627  1.6392
11600TIP3   OH234721   6.328   4.094   6.096  0.0736 -0.0310  0.1299
11600TIP3    H134722   6.317   3.999   6.107  1.7477 -0.0964  1.3665
11600TIP3    H234723   6.415   4.104   6.060 -0.1706  1.0467 -0.1598
11601TIP3   OH234724   7.182   3.508   4.829 -0.2121 -0.2808 -0.0461
11601TIP3    H134725   7.231   3.425   4.835  0.1852 -0.1346 -1.0973
11601TIP3    H234726   7.159   3.515   4.736 -0.5399  0.6226  0.1023
11602TIP3   OH234727   7.748   3.526   6.545 -0.7039  0.1110 -0.4758
11602TIP3    H134728   7.691   3.584   6.494  0.6080  3.3554  1.5655
11602TIP3    H234729   7.836   3.547   6.514 -0.2779 -1.5163 -0.3747
11603TIP3   OH234730   8.545   4.386   4.979 -0.9291 -0.5170  0.1640
11603TIP3    H134731   8.628   4.400   4.934  0.0340 -0.0573  1.9977
11603TIP3    H234732   8.488   4.456   4.947 -0.3424 -0.3339 -0.4822
11604TIP3   OH234733   6.955   2.946   6.169  0.2250  0.2698 -0.7418
11604TIP3    H134734   6.934   2.965   6.078  0.5341  1.6692 -0.5420
11604TIP3    H234735   7.022   2.878   6.165  0.2687  0.3595 -1.5520
11605TIP3   OH234736   7.862   4.040   5.074 -0.5569  0.3229  0.1844
11605TIP3    H134737   7.955   4.028   5.095 -0.3323  1.6734  0.0107
11605TIP3    H234738   7.861   4.051   4.979 -1.1804 -2.1594 -0.1323
11606TIP3   OH234739   7.517   2.078   4.574 -0.5070 -0.3165  0.2460
11606TIP3    H134740   7.464   2.066   4.496 -0.5498 -0.2673  0.2666
11606TIP3    H234741   7.607   2.076   4.543 -0.5163 -0.6107  0.2408
11607TIP3   OH234742   7.544   1.248   5.973 -0.2019  0.7957  0.3154
11607TIP3    H134743   7.514   1.157   5.969 -0.3926  0.8730 -0.0189
11607TIP3    H234744   7.573   1.259   6.064  0.8282  0.0916  0.0742
11608TIP3   OH234745   6.129   1.642   4.617 -0.6128 -0.3560 -0.1651
11608TIP3    H134746   6.217   1.612   4.641 -0.4201  0.4701  0.1872
11608TIP3    H234747   6.089   1.668   4.700 -1.2901 -0.9674 -0.2934
11609TIP3   OH234748   6.193   2.369   5.623 -0.0206  0.4554 -0.3401
11609TIP3    H134749   6.233   2.328   5.699  1.1774  1.6066 -0.3374
11609TIP3    H234750   6.263   2.419   5.582 -1.2876  1.9874 -0.7091
11610TIP3   OH234751   6.332   3.204   4.678  0.0493 -0.4556 -0.2667
11610TIP3    H134752   6.308   3.116   4.651  2.2993 -1.1508 -0.1368
11610TIP3    H234753   6.322   3.258   4.600 -1.2469 -0.8367 -0.3637
11611TIP3   OH234754   6.356   2.995   4.467  0.0268  0.6617 -0.4668
11611TIP3    H134755   6.389   3.044   4.391  2.0991 -0.6244 -0.4496
11611TIP3    H234756   6.314   2.918   4.428 -0.5116  0.9094 -0.3760
11612TIP3   OH234757   4.567   4.156   6.108  0.4656  0.0200  0.0398
11612TIP3    H134758   4.503   4.092   6.077  0.4720  0.5612 -1.0996
11612TIP3    H234759   4.559   4.230   6.048 -1.3220  2.2020  2.8650
11613TIP3   OH234760   5.977   3.196   6.946 -0.3053 -0.9445 -0.4862
11613TIP3    H134761   5.942   3.119   6.990 -0.1895 -1.5143 -1.3838
11613TIP3    H234762   6.069   3.177   6.931  0.1213  0.0634  0.7878
11614TIP3   OH234763   6.648   3.003   5.826  0.2895  0.3182 -0.5317
11614TIP3    H134764   6.583   3.063   5.789  1.3737  2.6619  1.1889
11614TIP3    H234765   6.603   2.962   5.900  0.4411  1.2238  0.0729
11615TIP3   OH234766   7.242   3.280   6.759 -0.0567 -0.4568 -0.5148
11615TIP3    H134767   7.185   3.275   6.682  2.1563  0.1336 -2.2243
11615TIP3    H234768   7.288   3.196   6.761  0.5737 -0.1078 -0.3701
11616TIP3   OH234769   8.257   1.578   3.815  0.3770 -0.7867  0.0181
11616TIP3    H134770   8.173   1.586   3.769  1.2096  1.1932 -1.2395
11616TIP3    H234771   8.256   1.650   3.878  0.6545 -1.4566  0.7893
11617TIP3   OH234772   8.543   5.493   4.478  0.3685 -0.3116  0.2310
11617TIP3    H134773   8.584   5.409   4.499  0.6647 -0.5608 -1.2747
11617TIP3    H234774   8.613   5.557   4.490  0.5377 -0.4501 -0.0170
11618TIP3   OH234775   5.924   2.101   5.588 -0.4741  0.7709 -0.4064
11618TIP3    H134776   5.910   2.171   5.525  0.1330  1.3092  0.0420
11618TIP3    H234777   6.018   2.104   5.607 -0.0980 -1.3609 -1.7485
11619TIP3   OH234778   5.755   2.152   6.406  0.3750 -0.2178 -0.1746
11619TIP3    H134779   5.792   2.134   6.319 -0.9305 -0.8874 -0.6267
11619TIP3    H234780   5.822   2.201   6.452  1.7642 -1.3139 -0.9836
11620TIP3   OH234781   5.679   4.767   6.111  0.3225 -0.5783  0.2509
11620TIP3    H134782   5.601   4.743   6.161 -1.4248  0.8193 -1.7400
11620TIP3    H234783   5.708   4.849   6.151 -0.2886 -0.1720 -0.1160
11621TIP3   OH234784   5.585   1.878   6.178 -0.1229 -0.5009 -0.4218
11621TIP3    H134785   5.603   1.793   6.138  1.3673 -0.2361 -0.3080
11621TIP3    H234786   5.634   1.877   6.260 -1.4007 -0.1579  0.3664
11622TIP3   OH234787   5.860   4.582   6.064  0.5048 -0.5862  0.7723
11622TIP3    H134788   5.802   4.506   6.053 -0.7524  0.6123 -1.2630
11622TIP3    H234789   5.800   4.657   6.068  1.8432  0.5207  0.3499
11623TIP3   OH234790   6.233   6.805   4.604  0.1975 -0.2577 -0.3620
11623TIP3    H134791   6.201   6.739   4.665 -0.3329  1.2035  0.9788
11623TIP3    H234792   6.265   6.876   4.660 -1.0739  1.4652 -1.7659
11624TIP3   OH234793   8.480   3.931   5.510  0.4464  0.0474 -0.3156
11624TIP3    H134794   8.574   3.946   5.494  0.7464  1.2249  2.2888
11624TIP3    H234795   8.439   4.016   5.496 -0.0985 -0.2713 -0.6389
11625TIP3   OH234796   5.367   1.816   6.411 -0.1333 -0.1613  0.2451
11625TIP3    H134797   5.358   1.894   6.356 -2.0095  0.8377  1.9023
11625TIP3    H234798   5.298   1.757   6.381  0.4507 -0.6372 -0.1470
11626TIP3   OH234799   7.215   4.916   5.248  0.0167 -0.1026 -0.5869
11626TIP3    H134800   7.304   4.914   5.282  0.3158  1.9414 -1.1962
11626TIP3    H234801   7.211   4.842   5.187  1.1968 -0.4012 -0.3131
11627TIP3   OH234802   7.828   4.076   4.813 -0.2743 -0.7204  0.7459
11627TIP3    H134803   7.887   4.071   4.738 -0.7777  2.1282  0.1263
11627TIP3    H234804   7.745   4.044   4.780 -0.5666  0.7900 -0.0166
11628TIP3   OH234805   0.535   2.944   4.011  0.1900  0.2860  0.4343
11628TIP3    H134806   0.481   2.879   3.967 -0.2951 -0.8632  2.6611
11628TIP3    H234807   0.559   3.006   3.942 -1.0915 -1.0822 -1.2818
11629TIP3   OH234808   8.285   7.015   0.624 -0.3692  0.9496 -0.4073
11629TIP3    H134809   8.356   6.994   0.685  0.1733 -0.1135 -1.3812
11629TIP3    H234810   8.314   6.980   0.540 -1.1979  2.2349 -1.2460
11630TIP3   OH234811   0.439   3.834   4.456  0.5013  0.2111  0.2761
11630TIP3    H134812   0.383   3.818   4.533 -0.9247 -0.8628 -0.9415
11630TIP3    H234813   0.483   3.750   4.441  0.7952  0.4260 -0.0697
11631TIP3   OH234814   4.234   4.055   6.582  0.2567 -0.1166 -0.0945
11631TIP3    H134815   4.211   3.979   6.528 -0.7532  2.0077 -2.7542
11631TIP3    H234816   4.152   4.082   6.623  0.6298 -0.4547  0.9105
11632TIP3   OH234817   6.259  -0.009   6.709  0.0196 -0.3403 -0.2471
11632TIP3    H134818   6.173   0.012   6.745  0.6520  1.2512  0.3905
11632TIP3    H234819   6.267   0.047   6.632  0.7891  0.0973  0.1427
11633TIP3   OH234820   7.989   4.494   5.087  0.0898 -0.0383 -0.4269
11633TIP3    H134821   7.968   4.438   5.013 -1.0386  0.4558 -0.5030
11633TIP3    H234822   7.977   4.438   5.164 -1.1915  0.1114 -0.4932
11634TIP3   OH234823   5.077   3.645   6.371  0.1333  0.3717  0.3295
11634TIP3    H134824   5.016   3.595   6.425  0.1886  1.6411  1.5931
11634TIP3    H234825   5.135   3.688   6.433  0.9845  0.8772 -0.7902
11635TIP3   OH234826   5.291   2.710   5.009  0.3654  0.0295 -0.3966
11635TIP3    H134827   5.278   2.801   4.983  3.3995  0.7119  0.2902
11635TIP3    H234828   5.333   2.715   5.095 -0.6363 -2.0341  0.2319
11636TIP3   OH234829   5.403   1.768   6.894 -0.4220  0.6929  0.3230
11636TIP3    H134830   5.394   1.840   6.955  0.3660  0.1472  1.1032
11636TIP3    H234831   5.415   1.691   6.949  0.4991  0.2214 -0.5113
11637TIP3   OH234832   4.807   4.470   6.150 -0.4147  0.1519  0.7304
11637TIP3    H134833   4.773   4.390   6.190 -0.5349 -0.5623 -0.7678
11637TIP3    H234834   4.794   4.458   6.056 -0.8161  2.1163  0.5037
11638TIP3   OH234835   7.428   2.110   5.950  0.0142 -0.6573  0.2576
11638TIP3    H134836   7.340   2.146   5.942  0.7701  1.3454  0.5064
11638TIP3    H234837   7.427   2.030   5.897 -1.5071  0.1422 -0.9524
11639TIP3   OH234838   4.858   2.711   5.220  0.1440  0.5579  0.0010
11639TIP3    H134839   4.855   2.615   5.225  0.5896  0.4424 -1.6877
11639TIP3    H234840   4.783   2.739   5.272 -0.6977 -0.7635 -0.4508
11640TIP3   OH234841   6.002   2.235   6.511  0.0195  0.3285 -0.1237
11640TIP3    H134842   6.085   2.187   6.522  1.0383  2.2910  0.9531
11640TIP3    H234843   6.027   2.313   6.461 -1.2917  0.6758 -0.2354
11641TIP3   OH234844   5.244   6.005   5.360 -0.0431  0.3080  0.0820
11641TIP3    H134845   5.169   6.013   5.419 -1.1550 -1.5244 -1.0451
11641TIP3    H234846   5.315   6.052   5.405 -1.5399  1.1029  1.6812
11642TIP3   OH234847   7.660   7.499   2.060  0.0770 -0.2364 -0.1896
11642TIP3    H134848   7.651   7.591   2.085 -0.8511 -0.2274 -0.5527
11642TIP3    H234849   7.751   7.492   2.030 -0.3419  0.9801 -1.8500
11643TIP3   OH234850   6.785   1.679   4.883  0.7731  0.3138 -0.4559
11643TIP3    H134851   6.793   1.615   4.954 -0.6774  0.8575  0.2109
11643TIP3    H234852   6.705   1.653   4.836  0.4382  1.3340 -0.4724
11644TIP3   OH234853   8.399   0.839   6.638 -0.5906 -0.3341  0.3669
11644TIP3    H134854   8.460   0.912   6.630 -1.5999  0.6400  1.4302
11644TIP3    H234855   8.318   0.879   6.668 -1.0859 -1.9205  1.1785
11645TIP3   OH234856   6.650   5.441   2.960  0.5216 -0.0336  0.5763
11645TIP3    H134857   6.628   5.392   2.881 -0.8254  0.6135  0.5341
11645TIP3    H234858   6.731   5.401   2.992  0.6624 -0.7874 -0.7089
11646TIP3   OH234859   6.420   2.955   6.273  0.6147 -0.0037 -0.1332
11646TIP3    H134860   6.362   2.958   6.197  0.5596  1.7886 -0.0282
11646TIP3    H234861   6.387   2.881   6.325 -0.4989 -0.0759 -0.9151
11647TIP3   OH234862   6.809   2.732   5.828  0.4205 -0.5534 -0.0095
11647TIP3    H134863   6.809   2.781   5.746  1.4008  0.9667  0.8630
11647TIP3    H234864   6.758   2.786   5.888  1.0819 -0.8583  0.8322
11648TIP3   OH234865   7.638   2.080   6.311 -0.1776 -0.2066  0.2363
11648TIP3    H134866   7.675   2.166   6.329 -2.6935  0.7844  0.8562
11648TIP3    H234867   7.714   2.023   6.300  1.5395  1.3574  3.3267
11649TIP3   OH234868   4.359   4.972   5.633  0.1361  0.2245  0.8157
11649TIP3    H134869   4.395   4.978   5.721  0.9991  0.0064  0.4779
11649TIP3    H234870   4.269   5.004   5.642 -0.6785 -2.2991  2.3052
11650TIP3   OH234871   5.632   7.364   5.006 -0.2591  0.5311  0.3653
11650TIP3    H134872   5.661   7.288   4.956  0.5158  1.0473  0.0064
11650TIP3    H234873   5.671   7.352   5.093 -2.2315 -0.7480  1.0963
11651TIP3   OH234874   6.968   5.539   5.291  0.2702  0.1307  0.0760
11651TIP3    H134875   6.904   5.610   5.290  0.2254  0.1208 -3.1156
11651TIP3    H234876   6.921   5.465   5.253  1.4471 -0.5498 -0.0616
11652TIP3   OH234877   8.319   4.863   4.797 -0.4203 -0.7075 -0.7625
11652TIP3    H134878   8.277   4.865   4.883 -0.3534 -1.2977 -0.7106
11652TIP3    H234879   8.397   4.917   4.808 -0.3167 -0.9254 -0.3958
11653TIP3   OH234880   7.209   4.405   4.522 -0.4705  0.3430  0.2384
11653TIP3    H134881   7.300   4.382   4.538 -0.7171 -0.4523  0.5041
11653TIP3    H234882   7.163   4.321   4.519 -1.2811  0.7705  0.6293
11654TIP3   OH234883   7.304   4.224   3.345  0.0315  0.1098 -0.3337
11654TIP3    H134884   7.310   4.302   3.399 -1.0990  0.1545 -0.2581
11654TIP3    H234885   7.328   4.152   3.404 -1.7244  0.0988  0.3863
11655TIP3   OH234886   5.378   6.118   5.944  1.2862 -0.0412  0.4218
11655TIP3    H134887   5.394   6.023   5.946  0.1399 -0.2465  0.3818
11655TIP3    H234888   5.292   6.128   5.985  1.4131  0.9872  0.4347
11656TIP3   OH234889   7.216   4.648   2.560 -0.4619  0.0769 -0.0348
11656TIP3    H134890   7.156   4.600   2.616 -0.2015 -0.9202 -0.6060
11656TIP3    H234891   7.182   4.636   2.471 -1.2175  2.1512 -0.0475
11657TIP3   OH234892   6.104   4.360   4.908 -0.1044  0.0423 -0.2060
11657TIP3    H134893   6.136   4.300   4.976 -0.0650  0.1442 -0.1356
11657TIP3    H234894   6.065   4.432   4.956 -0.3332 -0.0244 -0.2933
11658TIP3   OH234895   7.439   5.054   3.424  0.3465  0.2686 -0.1926
11658TIP3    H134896   7.445   4.970   3.379 -1.2834  0.2738 -0.4620
11658TIP3    H234897   7.503   5.048   3.495 -0.2831 -1.5059  0.2555
11659TIP3   OH234898   6.026   4.178   5.685 -0.0169 -0.0076  0.1224
11659TIP3    H134899   6.009   4.117   5.757  0.7729  0.7710  0.9839
11659TIP3    H234900   6.120   4.169   5.667  0.0321  0.6848  0.0085
11660TIP3   OH234901   6.152   3.812   4.524 -0.4202 -0.0102 -0.0696
11660TIP3    H134902   6.163   3.727   4.566  0.8739  0.3299  0.3121
11660TIP3    H234903   6.198   3.873   4.581 -0.0337  0.7075 -1.1359
11661TIP3   OH234904   6.333   5.011   4.625 -0.2168 -0.7633 -0.1353
11661TIP3    H134905   6.323   4.930   4.575  0.9868  0.0017 -1.6719
11661TIP3    H234906   6.397   5.062   4.576  0.3502  0.4027  1.7456
11662TIP3   OH234907   7.532   3.579   6.172 -0.4130  0.4572  0.0185
11662TIP3    H134908   7.609   3.624   6.208 -0.2359  0.0943  0.0995
11662TIP3    H234909   7.533   3.493   6.215 -0.2225  0.0302 -0.8211
11663TIP3   OH234910   5.095   1.500   5.593  0.8587 -0.0667  0.2502
11663TIP3    H134911   5.048   1.558   5.652  0.4114 -0.1301 -0.0425
11663TIP3    H234912   5.065   1.526   5.506 -0.0029 -1.3260  0.1689
11664TIP3   OH234913   5.244   1.582   6.247 -0.0518  0.5200  0.3291
11664TIP3    H134914   5.211   1.632   6.172 -0.9343 -2.1425 -1.1353
11664TIP3    H234915   5.320   1.534   6.212  0.1463  0.0372  1.4068
11665TIP3   OH234916   8.290   4.446   5.989  0.2817  0.0865 -0.2955
11665TIP3    H134917   8.238   4.382   5.940  0.4710 -1.3041  1.2806
11665TIP3    H234918   8.260   4.436   6.080  2.7888 -0.2475  0.5159
11666TIP3   OH234919   7.483   1.250   5.563 -0.3679  0.5147  0.0656
11666TIP3    H134920   7.445   1.282   5.480 -2.1602  0.6020  0.8813
11666TIP3    H234921   7.509   1.160   5.544 -2.0545  0.0560 -0.2398
11667TIP3   OH234922   6.716   2.185   6.157 -0.6974 -0.1307  0.1246
11667TIP3    H134923   6.668   2.186   6.240  0.2573 -1.3421  0.7106
11667TIP3    H234924   6.808   2.197   6.182 -0.6741  2.2818 -0.9919
11668TIP3   OH234925   6.770   3.782   6.810  0.0360  0.2114  0.4049
11668TIP3    H134926   6.837   3.715   6.798  0.1269  0.3808 -0.0233
11668TIP3    H234927   6.688   3.737   6.791 -0.0893 -0.3349  2.1724
11669TIP3   OH234928   6.999   1.801   5.876 -0.2662  0.0167  0.0255
11669TIP3    H134929   6.911   1.800   5.915 -0.4175 -2.8940 -0.2830
11669TIP3    H234930   7.058   1.797   5.951 -0.4858 -1.8755  0.1130
11670TIP3   OH234931   5.125   1.732   5.179 -0.2921 -0.0758 -0.0734
11670TIP3    H134932   5.094   1.820   5.200 -3.1665 -0.7512 -1.2030
11670TIP3    H234933   5.210   1.746   5.136  0.3331  1.9642  1.7325
11671TIP3   OH234934   6.503   3.185   6.381  0.0107 -0.4565 -0.1867
11671TIP3    H134935   6.531   3.172   6.471 -2.3346  0.1641  0.6739
11671TIP3    H234936   6.466   3.100   6.355  1.4259 -0.8836 -0.8734
11672TIP3   OH234937   8.410   3.231   5.204  0.4114 -0.0429 -0.1169
11672TIP3    H134938   8.449   3.144   5.190 -0.8110 -0.3226 -1.9138
11672TIP3    H234939   8.485   3.289   5.219  1.2282 -1.4240  1.3152
11673TIP3   OH234940   0.471   6.172   1.062  0.5849  0.0374 -0.1341
11673TIP3    H134941   0.506   6.098   1.113  1.3635  0.8488  0.5160
11673TIP3    H234942   0.419   6.222   1.124  0.5428  0.3645 -0.4311
11674TIP3   OH234943   6.022   2.584   6.190  0.2685 -0.1779 -0.2833
11674TIP3    H134944   5.995   2.671   6.217  1.0421 -0.2685  0.8207
11674TIP3    H234945   5.982   2.572   6.104 -2.0197  0.2109  0.6857
11675TIP3   OH234946   0.982   5.918   1.135  0.6804  0.0443 -0.0905
11675TIP3    H134947   0.917   5.854   1.106 -0.0634  0.7193  0.0450
11675TIP3    H234948   0.951   6.001   1.098  1.4028  0.3905  0.0756
11676TIP3   OH234949   6.865   3.003   6.426  0.9863  0.5609  0.1044
11676TIP3    H134950   6.874   2.931   6.487 -0.6507 -0.2724 -0.6019
11676TIP3    H234951   6.899   2.969   6.343  0.1031  0.5504 -0.2583
11677TIP3   OH234952   8.485   2.423   7.213  0.3340 -0.5311  0.1215
11677TIP3    H134953   8.469   2.341   7.168 -1.9153 -1.5274  2.6268
11677TIP3    H234954   8.411   2.479   7.189  1.3152  0.4197 -0.7528
11678TIP3   OH234955   5.940   2.947   7.083 -0.4902 -0.2509  0.0840
11678TIP3    H134956   6.017   2.904   7.046  0.3853  1.3029  0.0717
11678TIP3    H234957   5.929   2.907   7.169  1.6215  1.0133  0.9657
11679TIP3   OH234958   5.885   3.623   5.702  0.4066 -0.1162 -0.3313
11679TIP3    H134959   5.968   3.627   5.654 -0.1875  1.0325 -1.2929
11679TIP3    H234960   5.824   3.674   5.649 -0.7663 -0.4371  0.6780
11680TIP3   OH234961   6.991   1.171   3.693  0.1129  0.4161  0.5367
11680TIP3    H134962   7.047   1.096   3.712  0.3944  0.3976 -0.3331
11680TIP3    H234963   6.920   1.136   3.640  1.9193  1.2754 -2.5756
11681TIP3   OH234964   5.646   4.586   5.410  0.1924  0.3622 -0.5374
11681TIP3    H134965   5.590   4.510   5.421 -0.0335  0.7673  1.2870
11681TIP3    H234966   5.597   4.644   5.351 -0.5109 -0.0457 -0.3512
11682TIP3   OH234967   8.741   5.000   6.394  0.3143 -0.3441  0.4383
11682TIP3    H134968   8.747   5.049   6.312  0.9394  0.2484  0.8398
11682TIP3    H234969   8.714   4.912   6.366 -1.5779  0.4091 -0.2121
11683TIP3   OH234970   6.911   3.803   6.437 -0.1787  0.0881  0.2666
11683TIP3    H134971   6.881   3.845   6.356  0.0095  0.8433  0.5903
11683TIP3    H234972   6.894   3.867   6.505  1.7071  0.3378  0.5292
11684TIP3   OH234973   1.914   7.418   1.038 -0.3198 -0.0661  0.5256
11684TIP3    H134974   1.894   7.370   1.119  1.4823  1.0230  1.6550
11684TIP3    H234975   1.995   7.379   1.007  0.6735  1.6143  0.9577
11685TIP3   OH234976   8.071   1.470   6.170 -0.3481 -0.0221 -0.0974
11685TIP3    H134977   7.987   1.513   6.152 -0.1468  0.5530  0.3249
11685TIP3    H234978   8.090   1.419   6.091 -1.2235 -0.3662 -0.0930
11686TIP3   OH234979   6.567   3.476   2.360 -0.8379  0.5222 -0.4491
11686TIP3    H134980   6.574   3.454   2.267 -1.0029 -1.3465 -0.0356
11686TIP3    H234981   6.474   3.475   2.378 -0.8276  1.2199 -0.3155
11687TIP3   OH234982   7.866   2.371   4.176 -0.2120  0.0423 -0.3141
11687TIP3    H134983   7.897   2.440   4.118  1.4499 -0.1104  0.3394
11687TIP3    H234984   7.777   2.352   4.147 -1.2487  3.4519  0.4081
11688TIP3   OH234985   8.230   1.252   5.988 -0.5782  0.5293 -0.4515
11688TIP3    H134986   8.182   1.175   6.019  0.6303 -0.0452  0.0349
11688TIP3    H234987   8.176   1.287   5.917 -1.7161 -0.0878  0.0869
11689TIP3   OH234988   1.673   6.072  -0.003 -0.1669 -0.0311 -0.2528
11689TIP3    H134989   1.647   5.981   0.012  0.5271 -0.3514 -0.9245
11689TIP3    H234990   1.593   6.123   0.012 -0.1858 -0.5961  1.6275
11690TIP3   OH234991   8.548   2.106   5.277 -0.4842 -0.1725  0.3322
11690TIP3    H134992   8.466   2.155   5.285 -0.2050  0.3417  0.0677
11690TIP3    H234993   8.613   2.161   5.320 -0.5388 -1.2289  1.7789
11691TIP3   OH234994   7.468   3.671   4.224 -0.3527  0.1257  0.5843
11691TIP3    H134995   7.548   3.723   4.212 -0.1556 -0.5500 -1.2101
11691TIP3    H234996   7.499   3.581   4.226 -0.9989 -0.0977  0.5287
11692TIP3   OH234997   5.657   3.600   6.101 -0.0026  0.2287  0.1780
11692TIP3    H134998   5.738   3.647   6.121 -0.1613  0.0362  1.3184
11692TIP3    H234999   5.589   3.650   6.146 -0.4280 -0.0156 -0.1877
11693TIP3   OH235000   6.503   2.738   6.476 -0.4088 -0.3480 -0.0224
11693TIP3    H135001   6.512   2.645   6.455  3.5031 -0.3166  1.1473
11693TIP3    H235002   6.559   2.783   6.412 -1.3934  1.1194  0.1164
11694TIP3   OH235003   1.266   1.440   4.282 -0.0673  0.1507  0.3764
11694TIP3    H135004   1.235   1.364   4.232 -0.9946 -0.1745  1.4192
11694TIP3    H235005   1.221   1.433   4.366 -1.1835  2.5636  0.0316
11695TIP3   OH235006   6.626   1.553   5.848 -0.4261 -0.0347  0.1668
11695TIP3    H135007   6.562   1.576   5.780  0.8062  1.1504 -0.6067
11695TIP3    H235008   6.638   1.634   5.898 -0.0654 -0.4492  0.7527
11696TIP3   OH235009   8.784   1.470   3.056  0.0427  0.1122  0.0142
11696TIP3    H135010   8.786   1.505   3.145  0.5989  0.8845 -0.2956
11696TIP3    H235011   8.696   1.435   3.046  0.0628 -0.2339  0.9678
11697TIP3   OH235012   0.042   2.111   3.054  0.3367 -0.0930 -0.3288
11697TIP3    H135013   0.130   2.148   3.064  0.6453 -0.3185 -2.0119
11697TIP3    H235014  -0.002   2.130   3.137  0.8230  3.1120 -0.7496
11698TIP3   OH235015   7.114   3.151   5.038 -0.0031  0.1614  0.7476
11698TIP3    H135016   7.048   3.134   4.971  0.2065 -0.5530  0.7091
11698TIP3    H235017   7.193   3.110   5.003 -0.3159 -1.7464  2.2198
11699TIP3   OH235018   5.244   4.766   6.457 -0.6445  0.7861  0.0066
11699TIP3    H135019   5.160   4.760   6.501  0.1060 -1.5879  1.1355
11699TIP3    H235020   5.231   4.720   6.374  0.1688 -1.5589  1.1614
11700TIP3   OH235021   8.047   2.043   5.614 -0.3795  0.4380 -0.4639
11700TIP3    H135022   8.128   2.093   5.607  0.8709 -1.2464  1.4227
11700TIP3    H235023   8.012   2.067   5.700  0.7690 -2.6301  0.9213
11701TIP3   OH235024   7.450   2.802   3.812  0.2538  0.2753  0.6968
11701TIP3    H135025   7.386   2.775   3.878 -1.3693  1.2641 -0.4378
11701TIP3    H235026   7.493   2.879   3.850  0.0538  0.2252  1.0250
11702TIP3   OH235027   8.383   0.849   6.977 -0.7087 -0.3638 -0.0712
11702TIP3    H135028   8.418   0.781   6.920 -1.1126 -2.8960  2.5788
11702TIP3    H235029   8.290   0.850   6.958 -0.6832 -0.4663 -0.2091
11703TIP3   OH235030   8.353   3.534   5.551 -0.2846  0.3535  0.5731
11703TIP3    H135031   8.310   3.610   5.511  0.6287 -0.2730 -1.7243
11703TIP3    H235032   8.312   3.459   5.508  1.1088 -0.3382  0.4170
11704TIP3   OH235033   0.155   2.789   6.248 -0.3415  0.2114  0.0671
11704TIP3    H135034   0.198   2.715   6.292 -1.4153 -0.5433 -0.1331
11704TIP3    H235035   0.190   2.786   6.159 -1.8540 -1.2945 -0.5115
11705TIP3   OH235036   5.624   7.022   3.113 -0.1492  0.3554  0.0055
11705TIP3    H135037   5.678   7.047   3.188  0.7213 -0.9509 -0.1573
11705TIP3    H235038   5.535   7.014   3.148  0.0545  0.8960  0.6419
11706TIP3   OH235039   7.400   2.283   5.189  0.2707  0.1127  0.2274
11706TIP3    H135040   7.393   2.379   5.186 -0.5478  0.0984  1.4812
11706TIP3    H235041   7.494   2.266   5.175  0.4627  1.1003  0.2450
11707TIP3   OH235042   5.392   4.425   5.191 -0.3250  0.0886  0.3314
11707TIP3    H135043   5.393   4.341   5.146 -0.8864 -0.6811  1.7116
11707TIP3    H235044   5.438   4.408   5.274 -2.0541  0.6509  1.4384
11708TIP3   OH235045   7.332   1.953   6.451 -0.2290  0.0528  0.0019
11708TIP3    H135046   7.249   1.989   6.482  0.7334  1.9542  0.4571
11708TIP3    H235047   7.344   1.993   6.364  0.4628  0.2120  0.1712
11709TIP3   OH235048   5.811   5.003   4.608  0.7598  0.4241  0.1869
11709TIP3    H135049   5.880   5.002   4.675  0.4406 -1.3478  0.5115
11709TIP3    H235050   5.735   5.038   4.653  1.0244  0.9207  0.2535
11710TIP3   OH235051   7.198   4.168   5.782  0.5353 -0.0270 -0.3639
11710TIP3    H135052   7.194   4.223   5.860  0.0393  1.3714 -1.3545
11710TIP3    H235053   7.283   4.189   5.743  1.2001 -1.4388  0.3109
11711TIP3   OH235054   4.762   1.148   0.802 -0.1378 -0.1369  0.2684
11711TIP3    H135055   4.735   1.101   0.723  0.9075  0.2191 -0.3091
11711TIP3    H235056   4.680   1.181   0.839 -0.5899  0.1344 -0.9429
11712TIP3   OH235057   7.177   2.019   5.719  0.4280 -0.1098  0.1518
11712TIP3    H135058   7.133   1.994   5.638  0.8840 -0.7257  0.0966
11712TIP3    H235059   7.132   1.968   5.787  1.3347 -1.0551  0.0441
11713TIP3   OH235060   6.626   4.577   5.015  0.1750 -0.4969  0.7840
11713TIP3    H135061   6.594   4.523   5.087  0.7654 -0.0363  1.3950
11713TIP3    H235062   6.699   4.627   5.053 -0.2288  0.5683  0.1770
11714TIP3   OH235063   5.142   5.392   5.606 -0.0049 -0.1002 -0.1968
11714TIP3    H135064   5.155   5.312   5.657 -1.3779  0.4596  1.0768
11714TIP3    H235065   5.118   5.361   5.519 -0.8745 -1.0884  0.3826
11715TIP3   OH235066   7.692   5.061   6.769 -0.1679 -0.8533 -0.0063
11715TIP3    H135067   7.770   5.102   6.805  1.4058 -1.3071 -2.7348
11715TIP3    H235068   7.620   5.118   6.795  1.0741 -0.2500  2.2761
11716TIP3   OH235069   5.799   2.516   5.131  0.3279  0.6254 -0.1177
11716TIP3    H135070   5.781   2.551   5.044  0.4442 -2.5705 -1.5307
11716TIP3    H235071   5.724   2.461   5.151  0.8220  0.4392  1.3225
11717TIP3   OH235072   5.254   3.112   5.694 -0.5094  0.5273  0.0580
11717TIP3    H135073   5.210   3.072   5.619  1.3321 -0.2603 -0.6368
11717TIP3    H235074   5.264   3.040   5.757 -0.8618  0.8791  0.5257
11718TIP3   OH235075   5.278   3.514   4.512  0.1358  0.5590  0.0850
11718TIP3    H135076   5.185   3.493   4.521 -0.1001 -0.0227 -3.1474
11718TIP3    H235077   5.279   3.607   4.489  0.1668 -0.0637 -2.5234
11719TIP3   OH235078   4.696   6.192   5.330 -0.2887 -0.6154 -0.1878
11719TIP3    H135079   4.755   6.177   5.256  0.6726  1.9369  0.0188
11719TIP3    H235080   4.653   6.107   5.344  2.4874 -2.2167 -1.0557
11720TIP3   OH235081   5.756   5.880   3.909  0.1043  0.0872 -0.4079
11720TIP3    H135082   5.814   5.873   3.985 -1.4333 -0.7415  0.7034
11720TIP3    H235083   5.782   5.962   3.867  1.6374  0.0585  0.4463
11721TIP3   OH235084   7.754   3.894   5.307  0.1877 -0.2985 -0.0954
11721TIP3    H135085   7.684   3.890   5.242  0.0757 -0.4264  0.0334
11721TIP3    H235086   7.827   3.935   5.261  0.5021 -1.4856 -0.6761
11722TIP3   OH235087   0.072   1.901   5.555 -0.0387  0.0769 -0.4879
11722TIP3    H135088   0.013   1.838   5.597 -0.9581  0.5190 -1.1108
11722TIP3    H235089   0.078   1.973   5.617  0.5423 -0.3524 -0.0381
11723TIP3   OH235090   5.795   4.316   5.610  0.3345 -0.4057 -0.5931
11723TIP3    H135091   5.876   4.269   5.631 -0.4055 -1.7174 -0.6132
11723TIP3    H235092   5.775   4.290   5.520  0.7910  1.2480 -1.1823
11724TIP3   OH235093   7.109   1.022   6.038  0.1653  0.0694 -0.1172
11724TIP3    H135094   7.070   1.058   5.959 -0.0608 -0.6849 -0.3474
11724TIP3    H235095   7.043   0.961   6.072  0.7761 -0.5577 -0.0418
11725TIP3   OH235096   6.689   4.038   5.601 -0.3372 -0.3332 -0.1113
11725TIP3    H135097   6.784   4.026   5.603 -0.4336 -0.9291  0.9294
11725TIP3    H235098   6.653   3.949   5.603 -0.9391 -0.0766  1.2078
11726TIP3   OH235099   1.982   7.411   0.342 -0.2760 -0.0293  0.3572
11726TIP3    H135100   1.991   7.367   0.258  1.2945  1.4294 -0.2613
11726TIP3    H235101   2.039   7.362   0.401  1.4092  1.1063 -0.3113
11727TIP3   OH235102   8.428   3.024   3.703  0.0307 -0.2081  0.6402
11727TIP3    H135103   8.438   2.962   3.775  0.6880 -0.3009  0.4719
11727TIP3    H235104   8.337   3.014   3.675  0.7250 -2.7948 -0.9102
11728TIP3   OH235105   3.391   4.801   5.703  0.4759  0.0632  0.7688
11728TIP3    H135106   3.448   4.749   5.760 -0.2909 -0.6394  0.8967
11728TIP3    H235107   3.306   4.758   5.709  0.5945 -0.5832 -1.6244
11729TIP3   OH235108   5.230   2.963   4.942 -0.5743 -0.1850  0.0829
11729TIP3    H135109   5.255   2.957   4.850 -0.9876  2.6447 -0.2580
11729TIP3    H235110   5.215   3.057   4.956  1.7052 -0.2680  3.6030
11730TIP3   OH235111   6.272   6.717   3.596  1.0216  0.2233  0.5532
11730TIP3    H135112   6.267   6.813   3.590 -1.8367  0.1929  1.5728
11730TIP3    H235113   6.182   6.688   3.579  2.0337 -2.3540 -0.6273
11731TIP3   OH235114   7.422   4.257   4.630 -0.1816 -0.3376 -0.0641
11731TIP3    H135115   7.457   4.233   4.716  0.3412  0.4045 -0.0656
11731TIP3    H235116   7.427   4.176   4.578 -1.8440 -1.1712  1.0353
11732TIP3   OH235117   0.645   5.851   0.910  0.4551  0.1299  0.4439
11732TIP3    H135118   0.734   5.824   0.887  0.6462  0.1520  1.1390
11732TIP3    H235119   0.620   5.912   0.841  0.4317 -0.9765 -0.5416
11733TIP3   OH235120   7.494   7.285   2.539  0.4039 -0.0397 -0.1058
11733TIP3    H135121   7.446   7.203   2.530 -0.4516  0.5946 -1.5391
11733TIP3    H235122   7.516   7.290   2.632  0.1382 -1.7079  0.0560
11734TIP3   OH235123   5.151   4.851   5.718  0.1090 -0.0442  0.2761
11734TIP3    H135124   5.102   4.778   5.755  0.8972 -1.0824 -0.6915
11734TIP3    H235125   5.239   4.815   5.701 -0.2364  0.3572 -2.6328
11735TIP3   OH235126   4.031   6.800   0.450 -0.1846  0.2515  0.3037
11735TIP3    H135127   4.026   6.884   0.404 -3.4602  0.1116  0.2842
11735TIP3    H235128   4.023   6.734   0.380  1.5767 -0.0786  0.4003
11736TIP3   OH235129   8.304   3.241   6.679  0.7924  0.5752  0.5207
11736TIP3    H135130   8.342   3.244   6.591  0.4561  0.3719  0.3658
11736TIP3    H235131   8.373   3.204   6.734  0.0803 -1.8733 -0.1620
11737TIP3   OH235132   8.294   1.621   5.220 -0.1236 -0.8522 -0.2912
11737TIP3    H135133   8.342   1.704   5.215 -0.4150 -0.8167 -3.4894
11737TIP3    H235134   8.211   1.639   5.175 -1.6578 -1.9539  1.9804
11738TIP3   OH235135   0.349   2.626   3.384 -0.0847  0.3453 -0.2195
11738TIP3    H135136   0.257   2.639   3.362 -0.4611 -1.0127  0.5234
11738TIP3    H235137   0.380   2.713   3.412 -1.1606  0.7638 -0.3210
11739TIP3   OH235138   8.629   2.862   5.565  0.1090 -0.0029  0.5729
11739TIP3    H135139   8.577   2.788   5.534  1.0244 -0.0385 -0.9046
11739TIP3    H235140   8.620   2.929   5.498  0.9935  0.4384  0.8759
11740TIP3   OH235141   8.897   4.321   4.390 -0.4063 -0.1110  0.5559
11740TIP3    H135142   8.876   4.325   4.483  1.2822  0.9060  0.9187
11740TIP3    H235143   8.834   4.260   4.353 -0.7350 -0.9500  2.4726
11741TIP3   OH235144   3.975   8.305   4.103  0.1346 -0.3098  0.1488
11741TIP3    H135145   3.997   8.389   4.063  1.7891 -0.5302  0.5551
11741TIP3    H235146   3.936   8.253   4.033  1.3633 -0.0578 -0.7334
11742TIP3   OH235147   6.742   1.575   5.496 -0.2136  0.0914  0.3857
11742TIP3    H135148   6.694   1.651   5.464  1.0725 -1.0575 -4.8374
11742TIP3    H235149   6.678   1.503   5.491 -0.2202  0.0361  1.2147
11743TIP3   OH235150   5.063   0.040   4.292 -0.1016  0.0225  0.2468
11743TIP3    H135151   5.086   0.060   4.201 -1.7063  0.7768 -0.0146
11743TIP3    H235152   5.056  -0.055   4.295 -0.3621  0.0186 -0.5011
11744TIP3   OH235153   8.061   4.371   3.880 -0.0675 -0.9682  0.1807
11744TIP3    H135154   8.152   4.397   3.864 -0.0282 -0.9997  0.3536
11744TIP3    H235155   8.046   4.296   3.822 -0.6865  0.4648 -1.5521
11745TIP3   OH235156   8.578   0.925   6.215 -0.2382 -0.1930  0.0431
11745TIP3    H135157   8.618   0.860   6.158 -1.9907 -0.6463 -0.7217
11745TIP3    H235158   8.545   0.993   6.156 -1.4190 -0.3016  0.5534
11746TIP3   OH235159   6.821   2.819   3.554 -0.4997  0.2159  0.0592
11746TIP3    H135160   6.791   2.762   3.624 -0.0625 -0.7439 -0.5269
11746TIP3    H235161   6.748   2.823   3.492 -0.7890  0.8537  0.4421
11747TIP3   OH235162   8.298   1.816   3.976  0.2827  0.0772 -0.1155
11747TIP3    H135163   8.369   1.874   4.002  1.1122  0.4831 -3.0750
11747TIP3    H235164   8.218   1.867   3.991  0.6162 -0.1567  2.6483
11748TIP3   OH235165   6.842   3.013   2.371 -0.6352  0.0575 -0.1313
11748TIP3    H135166   6.766   3.022   2.428  0.3272 -0.1448  1.2178
11748TIP3    H235167   6.871   3.103   2.356  0.5890  0.0145  1.7770
11749TIP3   OH235168   0.825   3.504   5.905  0.0256  0.0841  0.6383
11749TIP3    H135169   0.737   3.502   5.867  0.6438 -2.9283 -0.7562
11749TIP3    H235170   0.880   3.540   5.836  0.5962 -2.2819 -0.1921
11750TIP3   OH235171   8.326   6.711   4.759 -0.0991 -0.3363  0.2341
11750TIP3    H135172   8.245   6.705   4.708 -1.3059 -1.5380  2.2388
11750TIP3    H235173   8.383   6.644   4.722  0.1654  0.8046 -1.4742
11751TIP3   OH235174   8.455   3.458   4.641 -0.0175 -0.1168 -0.2644
11751TIP3    H135175   8.511   3.381   4.624  0.1228  0.5037 -2.8198
11751TIP3    H235176   8.367   3.428   4.620 -0.1341  0.0078  0.0617
11752TIP3   OH235177   0.245   3.398   7.224 -0.1010  0.0669  0.2185
11752TIP3    H135178   0.161   3.355   7.206  0.3755 -0.4363 -0.8074
11752TIP3    H235179   0.221   3.484   7.256 -0.9878  0.6712 -1.9949
11753TIP3   OH235180   1.000   4.221   5.190 -0.3705 -0.3908 -0.1258
11753TIP3    H135181   0.911   4.253   5.204  0.6129  2.3348  0.0755
11753TIP3    H235182   1.050   4.255   5.264  1.5149  0.8601 -1.9343
11754TIP3   OH235183   3.428   8.098   3.699  0.1843 -0.0678 -0.0271
11754TIP3    H135184   3.397   8.187   3.684 -0.5997 -0.3618 -0.1561
11754TIP3    H235185   3.504   8.109   3.757  0.1366  0.6845 -0.0986
11755TIP3   OH235186   7.816   2.874   4.726  0.3344 -0.6709 -0.1374
11755TIP3    H135187   7.787   2.883   4.817  0.4078  1.3432 -0.2952
11755TIP3    H235188   7.735   2.860   4.677  0.1927 -0.7567  0.1158
11756TIP3   OH235189   8.557   1.280   5.642  0.3921 -0.0688 -0.7268
11756TIP3    H135190   8.481   1.238   5.602  1.1291 -1.3074 -0.8654
11756TIP3    H235191   8.626   1.214   5.636  1.4997  1.0750 -0.6740
11757TIP3   OH235192   1.786   5.354   4.431  0.3999  0.0331  0.1343
11757TIP3    H135193   1.840   5.432   4.425 -0.2143  0.5094  0.6675
11757TIP3    H235194   1.840   5.291   4.480 -0.4280  1.3373  2.8425
11758TIP3   OH235195   8.446   6.571   4.564 -0.0236 -0.4616  0.2188
11758TIP3    H135196   8.533   6.594   4.531 -0.2497 -0.1854 -0.1731
11758TIP3    H235197   8.404   6.526   4.491 -0.6002  0.3371  0.0665
11759TIP3   OH235198   8.284   2.479   3.618 -0.3372  0.6750 -0.4084
11759TIP3    H135199   8.231   2.451   3.692 -0.8638  0.2267 -0.9539
11759TIP3    H235200   8.221   2.508   3.553  0.1960  2.7159 -0.0234
11760TIP3   OH235201   7.991   3.570   5.164 -0.0715  0.2603  0.1150
11760TIP3    H135202   8.014   3.484   5.130  1.2045  0.0551  1.4421
11760TIP3    H235203   7.942   3.612   5.093  0.6585 -0.9697 -1.1369
11761TIP3   OH235204   0.993   1.503   5.846  0.3044 -0.0935  0.0428
11761TIP3    H135205   1.046   1.583   5.847  0.5428 -0.2544  0.4361
11761TIP3    H235206   0.945   1.507   5.763  1.5779 -0.3781 -0.7033
11762TIP3   OH235207   6.938   1.944   5.410 -0.6076 -0.2651 -0.0518
11762TIP3    H135208   6.937   1.937   5.315  1.0035  0.4903 -0.1378
11762TIP3    H235209   7.019   1.901   5.436 -1.4338 -1.1921  1.0518
11763TIP3   OH235210   0.811   2.953   5.495  0.4369 -0.0597 -0.1759
11763TIP3    H135211   0.729   2.995   5.469 -0.8182 -0.6544  2.6413
11763TIP3    H235212   0.848   3.011   5.562  0.6683 -1.4070  0.8934
11764TIP3   OH235213   8.321   3.353   4.201 -0.9451 -0.1407  0.0226
11764TIP3    H135214   8.339   3.305   4.282 -0.0265  1.2598  0.6692
11764TIP3    H235215   8.394   3.331   4.143 -1.5379 -1.0451 -0.3824
11765TIP3   OH235216   6.343   1.804   2.812  0.2612 -0.0296 -0.4271
11765TIP3    H135217   6.345   1.888   2.766  2.0246  0.9766  1.4430
11765TIP3    H235218   6.430   1.767   2.798 -0.8004 -2.0434 -2.0546
11766TIP3   OH235219   1.036   2.399   4.078 -0.2341 -0.5888  0.1962
11766TIP3    H135220   1.131   2.406   4.063 -0.7516  2.7187 -2.0782
11766TIP3    H235221   1.005   2.340   4.009  0.0607 -1.3088  0.6644
11767TIP3   OH235222   8.159   2.485   4.773  0.4514  0.4128  0.5574
11767TIP3    H135223   8.222   2.533   4.827  1.2791  1.1709 -1.0356
11767TIP3    H235224   8.173   2.518   4.684 -1.0876 -0.5847 -0.0883
11768TIP3   OH235225   0.020   4.240   7.183  0.3069 -0.0015 -0.3364
11768TIP3    H135226   0.061   4.326   7.178 -0.8199  0.5511 -0.1136
11768TIP3    H235227   0.091   4.182   7.211  1.0366  0.8694 -0.3418
11769TIP3   OH235228   7.643   2.650   5.863 -0.0767  0.0373  0.0261
11769TIP3    H135229   7.681   2.705   5.794  0.4017 -0.0496  0.2139
11769TIP3    H235230   7.654   2.701   5.943 -1.3815  0.4908 -0.0790
11770TIP3   OH235231   0.324   2.221   4.291 -0.2597  0.0593 -0.2455
11770TIP3    H135232   0.397   2.235   4.232  0.3910 -1.0124  0.2773
11770TIP3    H235233   0.247   2.216   4.234  0.3773 -1.1275 -1.0318
11771TIP3   OH235234   5.932   2.372   5.500  0.2331  0.2056  0.2575
11771TIP3    H135235   5.876   2.449   5.507  2.3672  1.7779  0.0912
11771TIP3    H235236   6.015   2.398   5.538  0.7747 -2.2446  0.8521
11772TIP3   OH235237   8.676   0.411   5.968 -0.3477  0.2131  0.0325
11772TIP3    H135238   8.747   0.346   5.969  0.8834  1.5442 -0.1064
11772TIP3    H235239   8.719   0.495   5.955 -1.7496  1.2907  1.9965
11773TIP3   OH235240   8.136   4.141   4.895 -0.0977 -0.1468  0.3058
11773TIP3    H135241   8.123   4.099   4.810 -1.0379  0.1255  0.3097
11773TIP3    H235242   8.059   4.197   4.906  0.3565  0.3428  1.0261
11774TIP3   OH235243   8.353   5.160   5.542  0.3264  0.4688  0.0971
11774TIP3    H135244   8.414   5.098   5.503  0.2179 -0.0444  0.7336
11774TIP3    H235245   8.295   5.105   5.596 -0.7315  0.9390 -0.5522
11775TIP3   OH235246   7.938   6.087   4.739  0.1152 -0.9331  0.0666
11775TIP3    H135247   7.971   6.162   4.789 -0.2854 -1.3123  0.9165
11775TIP3    H235248   7.927   6.018   4.804 -1.5888 -1.0663 -0.3195
11776TIP3   OH235249   0.122   4.538   3.972 -0.1458  0.3363 -0.2027
11776TIP3    H135250   0.110   4.476   3.901  2.5919 -0.4956  0.0109
11776TIP3    H235251   0.047   4.523   4.030 -0.3729 -1.6245 -0.9773
11777TIP3   OH235252   7.545   4.608   5.081 -0.3728 -0.4382  0.2799
11777TIP3    H135253   7.574   4.690   5.122  0.5719 -0.5019 -0.2431
11777TIP3    H235254   7.522   4.552   5.155 -1.5004  0.4619  0.6305
11778TIP3   OH235255   8.619   3.219   5.504 -0.0515  0.0528 -0.5536
11778TIP3    H135256   8.706   3.191   5.476  0.4874  1.3452 -0.2508
11778TIP3    H235257   8.626   3.315   5.510 -1.5662  0.1925 -0.7698
11779TIP3   OH235258   1.336   0.663   6.499 -0.1392  0.3181 -0.6929
11779TIP3    H135259   1.258   0.718   6.487 -0.0014  0.6055 -0.2555
11779TIP3    H235260   1.370   0.687   6.585 -1.2886 -1.9557  0.4707
11780TIP3   OH235261   1.356   2.009   6.130  0.4272 -0.1624  0.3363
11780TIP3    H135262   1.271   2.016   6.174  1.3158 -0.4932  2.1594
11780TIP3    H235263   1.364   1.916   6.107  0.3513 -0.1548  0.2799
11781TIP3   OH235264   1.245   0.926   4.316  0.0648 -0.5709 -0.1093
11781TIP3    H135265   1.206   0.840   4.301  0.6274 -0.6700 -1.0801
11781TIP3    H235266   1.257   0.963   4.228 -3.8193  2.1638  0.3930
11782TIP3   OH235267   8.019   4.357   6.454  0.7974  0.0336  0.2741
11782TIP3    H135268   7.938   4.347   6.404  3.0200 -0.7546 -3.3645
11782TIP3    H235269   8.022   4.450   6.477  0.1135  0.6093 -1.8486
11783TIP3   OH235270   8.287   6.151   5.876 -0.0490  0.4450 -0.2332
11783TIP3    H135271   8.193   6.150   5.896 -0.0880 -0.4890 -0.4414
11783TIP3    H235272   8.315   6.060   5.888  1.5184  1.2982  3.0485
11784TIP3   OH235273   0.256   3.689   4.644  0.5439  0.2976 -0.0655
11784TIP3    H135274   0.324   3.630   4.675 -0.6616 -1.7155 -1.1673
11784TIP3    H235275   0.184   3.679   4.707  0.0517  0.0260 -0.6640
11785TIP3   OH235276   0.089   3.314   4.994 -0.3349  0.0118  0.0427
11785TIP3    H135277  -0.006   3.311   4.991 -0.3150  0.4819 -1.5758
11785TIP3    H235278   0.116   3.290   4.906  1.0540 -0.0767  0.4816
11786TIP3   OH235279   8.186   2.221   5.290  0.0313  0.2819  0.4268
11786TIP3    H135280   8.099   2.252   5.263 -0.0937  0.3348  0.8710
11786TIP3    H235281   8.242   2.238   5.215 -0.1347  1.1595  0.4934
11787TIP3   OH235282   7.847   4.550   3.385 -0.0605  0.1925  0.7575
11787TIP3    H135283   7.838   4.455   3.372 -0.7530  0.2837  0.5121
11787TIP3    H235284   7.875   4.583   3.299  0.1014  0.2154  0.8203
11788TIP3   OH235285   3.039   2.627   4.327 -0.2782  0.5724 -0.2428
11788TIP3    H135286   2.998   2.699   4.373 -0.1414  1.5324 -1.5756
11788TIP3    H235287   2.969   2.563   4.313 -0.1933  0.0244  1.7354
11789TIP3   OH235288   7.725   3.159   6.096  0.6027  0.1257 -0.1373
11789TIP3    H135289   7.821   3.155   6.095  0.5478 -1.0231 -1.2499
11789TIP3    H235290   7.704   3.237   6.045  0.9341  0.3741  0.0990
11790TIP3   OH235291   6.950   2.577   1.967 -0.0330  0.6344 -0.6175
11790TIP3    H135292   6.913   2.655   1.928 -0.9998 -0.3060 -1.6185
11790TIP3    H235293   7.042   2.578   1.941  0.0933  1.7170 -0.1500
11791TIP3   OH235294   0.885   3.639   3.204 -0.3314  0.7619  0.3332
11791TIP3    H135295   0.820   3.586   3.158  1.1914 -2.1120  1.3729
11791TIP3    H235296   0.834   3.691   3.266 -2.0891  2.3938 -2.3858
11792TIP3   OH235297   0.556   3.245   6.559 -0.3348  0.5035  0.1916
11792TIP3    H135298   0.543   3.338   6.537 -1.2503  0.2167 -0.5425
11792TIP3    H235299   0.635   3.244   6.612  0.0106  1.6416 -0.2728
11793TIP3   OH235300   0.225   1.588   6.384  0.2708 -0.0680 -0.2755
11793TIP3    H135301   0.196   1.520   6.323  1.3034 -0.9178  0.1785
11793TIP3    H235302   0.309   1.556   6.418 -0.6304  0.0229  2.1497
11794TIP3   OH235303   8.325   1.168   6.623  0.4475 -0.0013 -0.0723
11794TIP3    H135304   8.377   1.209   6.692  1.9291 -1.2446 -0.4079
11794TIP3    H235305   8.382   1.167   6.546 -1.4614  2.0818 -1.5951
11795TIP3   OH235306   8.520   4.360   5.251  0.3827  0.2751 -0.5306
11795TIP3    H135307   8.527   4.359   5.156  1.9696 -0.0617 -0.4159
11795TIP3    H235308   8.606   4.387   5.282  0.0433 -0.1484  0.8288
11796TIP3   OH235309   8.657   4.747   6.685 -0.1733  0.1113 -0.2542
11796TIP3    H135310   8.656   4.662   6.728  0.8814 -0.3740 -1.1628
11796TIP3    H235311   8.657   4.726   6.591 -2.0060  1.1416 -0.5076
11797TIP3   OH235312   7.436   4.952   5.463 -0.3676  0.2203 -0.3872
11797TIP3    H135313   7.510   4.906   5.503 -0.7845 -1.2648 -1.2981
11797TIP3    H235314   7.475   5.027   5.419  0.4164  0.3216  0.4858
11798TIP3   OH235315   7.907   4.354   4.865  0.4944  1.2123 -0.0959
11798TIP3    H135316   7.893   4.349   4.770 -0.8583 -1.2012  0.1895
11798TIP3    H235317   7.820   4.364   4.902  0.8126  0.0975  0.9903
11799TIP3   OH235318   0.875   3.107   4.134  0.1405 -1.0237  0.1413
11799TIP3    H135319   0.956   3.093   4.184  0.5997 -1.4531 -0.6993
11799TIP3    H235320   0.821   3.031   4.155 -0.6094 -0.0751  1.7513
11800TIP3   OH235321   6.661   3.351   4.217  0.1564  0.2508 -0.9503
11800TIP3    H135322   6.692   3.442   4.228 -1.8049  1.0385 -1.8339
11800TIP3    H235323   6.644   3.343   4.123  2.4958 -1.7756 -1.2412
11801TIP3   OH235324   0.079   1.270   4.109  0.4378 -0.7290 -0.0170
11801TIP3    H135325   0.059   1.275   4.203 -0.6703 -1.8379 -0.1872
11801TIP3    H235326   0.162   1.223   4.105  0.1912 -1.2126  0.3872
11802TIP3   OH235327   7.438   3.396   4.339 -0.3849  0.7249  0.5005
11802TIP3    H135328   7.408   3.475   4.385 -0.3931 -0.0157  1.7705
11802TIP3    H235329   7.495   3.352   4.402  1.1616  0.6812 -0.8949
11803TIP3   OH235330   0.223   1.997   4.439 -0.4050 -0.0747  0.5412
11803TIP3    H135331   0.225   2.090   4.459 -0.3609  0.3425 -1.3236
11803TIP3    H235332   0.313   1.976   4.412 -0.9317 -0.1637 -1.1623
11804TIP3   OH235333   7.049   3.758   3.023 -0.1592 -0.2352 -0.4781
11804TIP3    H135334   6.971   3.709   3.050 -0.5099  0.2920 -0.5151
11804TIP3    H235335   7.091   3.703   2.957 -0.2218 -0.7572 -0.0875
11805TIP3   OH235336   8.362   2.329   5.091  0.0512 -0.1953 -0.4176
11805TIP3    H135337   8.357   2.423   5.106 -2.1478 -0.3925  0.1990
11805TIP3    H235338   8.431   2.319   5.025  0.0602  1.8668 -0.7458
11806TIP3   OH235339   2.107   7.676   0.222 -0.0448  0.4420  0.0102
11806TIP3    H135340   2.056   7.599   0.248  0.1985  0.4360  0.4870
11806TIP3    H235341   2.194   7.660   0.259  0.6609 -0.1357 -1.8804
11807TIP3   OH235342   8.443   3.295   3.942  0.2911  0.1662 -0.0207
11807TIP3    H135343   8.521   3.330   3.900 -0.2301  1.8860  0.3887
11807TIP3    H235344   8.381   3.368   3.943 -0.4402 -0.4282  1.8503
11808TIP3   OH235345   1.110   2.785   5.158  0.3418 -0.0084 -0.0263
11808TIP3    H135346   1.061   2.705   5.140 -0.8660  0.7976 -0.3524
11808TIP3    H235347   1.094   2.841   5.082  1.9669  0.1774 -0.2530
11809TIP3   OH235348   7.864   1.089   4.890  0.4600 -0.2160 -0.2342
11809TIP3    H135349   7.913   1.144   4.829  1.5876  1.9422  2.5350
11809TIP3    H235350   7.900   1.110   4.976 -2.7491 -1.3805  1.4782
11810TIP3   OH235351   0.461   2.417   3.556 -0.5989  0.3168 -0.4142
11810TIP3    H135352   0.418   2.369   3.627 -0.1181 -0.4770 -0.6505
11810TIP3    H235353   0.391   2.468   3.516 -1.1971 -0.4649 -0.3797
11811TIP3   OH235354   8.185   4.421   4.159 -0.5840  0.0146  0.3224
11811TIP3    H135355   8.168   4.368   4.237 -1.3167  0.3103  0.3702
11811TIP3    H235356   8.209   4.358   4.092  0.6207 -0.1959  0.9375
11812TIP3   OH235357   7.395   3.892   6.893 -0.0028 -0.1791  0.3502
11812TIP3    H135358   7.436   3.816   6.935 -1.0303 -0.5459  0.7251
11812TIP3    H235359   7.399   3.874   6.800  0.7790 -0.1576  0.3767
11813TIP3   OH235360   0.781   2.078   4.838 -0.2758 -0.7309  0.5810
11813TIP3    H135361   0.719   2.088   4.765  0.2477  0.3246  0.2826
11813TIP3    H235362   0.770   1.987   4.866 -0.4174 -1.1654 -0.8696
11814TIP3   OH235363   0.387   4.175   5.081 -0.0481 -0.1099  0.4799
11814TIP3    H135364   0.396   4.266   5.055  1.0616 -0.2422  0.3605
11814TIP3    H235365   0.367   4.128   5.000 -0.3773 -0.0034  0.5008
11815TIP3   OH235366   7.383   1.935   4.787  0.0436 -0.0034 -0.1356
11815TIP3    H135367   7.433   1.854   4.801  0.6067  0.0588 -1.6133
11815TIP3    H235368   7.446   1.994   4.745 -0.6441  0.8694  0.0605
11816TIP3   OH235369   7.868   5.416   2.577  0.2721 -0.0974 -0.5447
11816TIP3    H135370   7.882   5.460   2.661  1.4358 -0.5840 -0.4783
11816TIP3    H235371   7.841   5.327   2.601  2.3597 -0.7973 -0.6542
11817TIP3   OH235372   4.161   6.385   0.832 -0.5031  0.2031  0.1973
11817TIP3    H135373   4.220   6.381   0.907  2.3640  0.5928 -1.9391
11817TIP3    H235374   4.097   6.453   0.855  1.5948  1.8070  1.4386
11818TIP3   OH235375   8.087   4.619   6.492  0.0165  0.2548  0.7784
11818TIP3    H135376   8.083   4.677   6.416 -2.5741  2.1999  2.2981
11818TIP3    H235377   8.181   4.612   6.512  0.5815  1.4458 -1.2868
11819TIP3   OH235378   7.124   4.627   4.336 -0.1369 -0.0589 -0.3543
11819TIP3    H135379   7.201   4.685   4.338 -0.5195  0.4002  1.7811
11819TIP3    H235380   7.129   4.577   4.417 -1.2709 -1.1203 -0.9250
11820TIP3   OH235381   6.988   2.457   4.901 -0.0103  0.3589 -0.4221
11820TIP3    H135382   6.905   2.417   4.876 -0.5000  0.2779  1.2470
11820TIP3    H235383   6.970   2.551   4.903 -0.3920  0.2683  1.0378
11821TIP3   OH235384   6.513   1.098   4.594  0.2778 -0.0079 -0.8663
11821TIP3    H135385   6.599   1.091   4.634 -0.2757  0.5265  0.4771
11821TIP3    H235386   6.472   1.012   4.607  0.4118 -0.0961 -1.0321
11822TIP3   OH235387   0.426   4.967   5.015 -0.2771 -0.0018  0.4183
11822TIP3    H135388   0.510   4.922   5.005 -0.8772 -1.1656  0.4991
11822TIP3    H235389   0.447   5.059   5.001  0.2896 -0.6605 -3.9798
11823TIP3   OH235390   8.145   3.874   4.170  0.3994  0.0842 -0.3200
11823TIP3    H135391   8.169   3.791   4.211 -0.5401  0.5254  1.1250
11823TIP3    H235392   8.218   3.933   4.190 -0.0454  0.2930  0.7300
11824TIP3   OH235393   8.573   4.278   5.974 -0.4608  0.3112  0.4214
11824TIP3    H135394   8.486   4.240   5.989 -0.4652  0.1710  0.0416
11824TIP3    H235395   8.571   4.307   5.883 -0.3147  0.8564  0.5915
11825TIP3   OH235396   0.029   1.255   4.973  0.4804 -0.4021  0.1833
11825TIP3    H135397   0.101   1.273   4.912  0.0807 -0.8935 -0.4321
11825TIP3    H235398   0.073   1.227   5.054  0.9654 -1.1231 -0.3300
11826TIP3   OH235399   0.781   2.175   5.105 -0.3356 -0.2327  0.8412
11826TIP3    H135400   0.864   2.148   5.146 -0.0837 -1.7242 -0.5906
11826TIP3    H235401   0.788   2.144   5.015 -0.8356  3.1051 -0.4114
11827TIP3   OH235402   0.946   3.154   3.861 -0.0544 -0.2351 -0.3189
11827TIP3    H135403   0.916   3.109   3.940 -0.0753 -1.3923 -0.9695
11827TIP3    H235404   1.022   3.204   3.889 -0.9116  0.4859  0.7401
11828TIP3   OH235405   0.971   2.766   4.367  0.3131  0.1210  0.0403
11828TIP3    H135406   0.897   2.775   4.308 -0.7889 -1.1784  1.1921
11828TIP3    H235407   0.935   2.723   4.445  2.1213  0.1114  0.9022
11829TIP3   OH235408   8.605   2.678   4.130  0.5595 -0.5639 -0.3285
11829TIP3    H135409   8.696   2.661   4.106  0.4461  0.4974 -1.5528
11829TIP3    H235410   8.570   2.592   4.153  1.3613 -1.2758 -1.6689
11830TIP3   OH235411   7.315   6.305   4.406  0.4933  0.1655  0.4358
11830TIP3    H135412   7.330   6.400   4.400  2.6331 -0.1039  1.2010
11830TIP3    H235413   7.363   6.278   4.483  0.5029 -1.6817 -0.2027
11831TIP3   OH235414   0.190   1.005   5.869  0.5101  0.2684  0.4782
11831TIP3    H135415   0.122   1.071   5.882  1.5177  1.9284 -2.2365
11831TIP3    H235416   0.152   0.942   5.808  0.5304 -0.1524  0.8979
11832TIP3   OH235417   6.137   1.245   5.049 -0.3162 -0.4035  0.4070
11832TIP3    H135418   6.215   1.190   5.060  1.0304  1.1271 -1.2020
11832TIP3    H235419   6.160   1.328   5.091  0.1615  1.1402 -2.7362
11833TIP3   OH235420   6.203   4.242   5.375 -0.1370 -0.2656  0.1996
11833TIP3    H135421   6.185   4.336   5.377  1.0425  0.0365 -1.8547
11833TIP3    H235422   6.286   4.233   5.421 -0.1335 -0.2842  0.1890
11834TIP3   OH235423   6.336   2.448   5.969  0.4849  0.1939 -0.0023
11834TIP3    H135424   6.256   2.468   5.921 -0.4523  3.4411  2.6927
11834TIP3    H235425   6.339   2.353   5.973 -2.5886  0.0004 -1.1867
11835TIP3   OH235426   0.377   2.110   3.349  0.2654 -0.2403  0.1055
11835TIP3    H135427   0.470   2.092   3.336 -0.0887 -2.6217  0.5833
11835TIP3    H235428   0.346   2.036   3.401 -1.6778  1.0654  0.8285
11836TIP3   OH235429   8.281   4.436   6.300  0.2488 -0.2579  0.3934
11836TIP3    H135430   8.194   4.432   6.338  0.0057 -1.4029 -0.2364
11836TIP3    H235431   8.310   4.344   6.299  1.6106  0.1532  0.9532
11837TIP3   OH235432   0.063   3.877   4.516 -0.0522  0.3372  0.6230
11837TIP3    H135433   0.033   3.801   4.466  0.5595  1.5738 -1.6851
11837TIP3    H235434   0.133   3.843   4.571  0.6216 -0.6643 -0.8206
11838TIP3   OH235435   8.797   0.468   6.792  0.1339 -0.1636 -0.1023
11838TIP3    H135436   8.723   0.430   6.744 -0.1228 -0.3795  0.4690
11838TIP3    H235437   8.830   0.396   6.846  1.6225 -0.4593 -1.3763
11839TIP3   OH235438   7.582   2.809   3.139  0.0871 -0.1980  0.3953
11839TIP3    H135439   7.620   2.897   3.139 -1.0283  0.3419 -2.1987
11839TIP3    H235440   7.499   2.818   3.185 -0.7947  0.5139 -1.2782
11840TIP3   OH235441   8.781   4.515   5.696  0.3436 -1.2107 -0.2594
11840TIP3    H135442   8.854   4.457   5.720 -0.1636 -1.1193  1.5901
11840TIP3    H235443   8.766   4.568   5.774 -0.5719 -0.0211 -1.2259
11841TIP3   OH235444   8.891   4.643   3.149 -0.0985  0.7653 -0.0932
11841TIP3    H135445   8.828   4.577   3.121 -0.5994  1.1587  0.1031
11841TIP3    H235446   8.867   4.664   3.239  0.9653  0.1563  0.3466
11842TIP3   OH235447   7.889   5.627   7.237  0.1904  0.4453 -0.0461
11842TIP3    H135448   7.926   5.593   7.318  0.2574 -2.0700 -1.0646
11842TIP3    H235449   7.889   5.552   7.178  1.0426  2.4412 -2.7004
11843TIP3   OH235450   7.634   2.066   4.163  0.0412  0.2468  0.5619
11843TIP3    H135451   7.596   2.149   4.191  1.4833  0.5767  1.5998
11843TIP3    H235452   7.574   1.999   4.195 -0.7234  0.8534  0.3914
11844TIP3   OH235453   8.146   3.255   4.005 -0.2375 -0.7993  0.5547
11844TIP3    H135454   8.208   3.297   4.064  0.8761 -1.0752 -0.3954
11844TIP3    H235455   8.064   3.250   4.055  0.1116  0.8367  1.3228
11845TIP3   OH235456   7.838   3.584   4.303 -0.2824 -0.3569 -0.3262
11845TIP3    H135457   7.899   3.523   4.263 -0.5913 -0.5222 -0.5477
11845TIP3    H235458   7.831   3.656   4.240  0.3680  0.0807  0.1063
11846TIP3   OH235459   0.844   1.011   3.092 -0.1184  0.1055 -0.3098
11846TIP3    H135460   0.774   0.989   3.153 -0.2969  0.2590 -0.4589
11846TIP3    H235461   0.802   1.011   3.006 -0.0192  0.5668 -0.3618
11847TIP3   OH235462   6.629   4.303   4.689  0.2952  0.6268 -0.0532
11847TIP3    H135463   6.630   4.396   4.664  0.0851  0.7210  0.2812
11847TIP3    H235464   6.589   4.303   4.777 -2.0137 -0.0248 -1.0566
11848TIP3   OH235465   7.507   2.662   4.738  0.4051  0.1930  0.2179
11848TIP3    H135466   7.583   2.609   4.713  0.0801 -1.0378  1.7767
11848TIP3    H235467   7.437   2.598   4.753 -0.7442  1.2679 -0.5098
11849TIP3   OH235468   8.431   3.477   5.812  0.1651 -0.4175  0.2710
11849TIP3    H135469   8.475   3.393   5.805 -0.8052 -0.9994  1.0848
11849TIP3    H235470   8.391   3.490   5.725  3.3829  0.9628 -1.0651
11850TIP3   OH235471   8.025   6.104   5.638 -0.2959 -1.1878 -0.1677
11850TIP3    H135472   8.034   6.115   5.733  1.2356  1.5999 -0.5882
11850TIP3    H235473   7.951   6.159   5.614  0.6326 -0.2241 -0.8623
11851TIP3   OH235474   2.917   6.716   0.545 -0.7147  0.4150 -0.4265
11851TIP3    H135475   2.912   6.644   0.482  3.1915 -3.4698  3.3371
11851TIP3    H235476   2.985   6.773   0.510 -0.1920 -0.4773 -0.8830
11852TIP3   OH235477   8.639   1.310   5.898 -0.2430  0.3111  0.9906
11852TIP3    H135478   8.596   1.227   5.919 -0.3341  0.3084  0.7966
11852TIP3    H235479   8.612   1.329   5.808 -0.6994  0.8447  1.2318
11853TIP3   OH235480   7.880   3.703   5.544 -0.2287 -0.2665 -0.1603
11853TIP3    H135481   7.895   3.760   5.468  0.8284  0.6760  0.7467
11853TIP3    H235482   7.924   3.621   5.522 -0.3769 -0.1782 -0.7891
11854TIP3   OH235483   1.784   3.698   4.401  0.0496  0.3688  0.0708
11854TIP3    H135484   1.766   3.666   4.490 -0.5629 -0.8021 -0.4564
11854TIP3    H235485   1.701   3.737   4.373 -1.0110 -2.8177 -1.4418
11855TIP3   OH235486   8.464   1.992   4.644 -0.0940 -0.2707  0.1268
11855TIP3    H135487   8.427   1.909   4.612  0.8266 -1.0539  1.0591
11855TIP3    H235488   8.537   2.010   4.585 -1.2657  0.7407 -1.0719
11856TIP3   OH235489   0.151   3.204   4.731  0.4156 -0.8373  0.0367
11856TIP3    H135490   0.123   3.228   4.642 -0.5067  1.2422  0.8578
11856TIP3    H235491   0.243   3.181   4.721  1.0892  2.0812 -1.0379
11857TIP3   OH235492   5.401   0.200   1.142  0.4662  0.4102  0.6661
11857TIP3    H135493   5.322   0.253   1.133 -1.5346 -2.6328 -0.7699
11857TIP3    H235494   5.435   0.193   1.053  1.6705  0.6636  1.0967
11858TIP3   OH235495   6.596   3.752   3.248 -0.1683 -0.0402 -1.0233
11858TIP3    H135496   6.594   3.834   3.198  0.8853  0.9842  0.5538
11858TIP3    H235497   6.681   3.753   3.293 -0.2926 -1.8305 -0.7056
11859TIP3   OH235498   7.907   2.151   5.052  0.0958  0.1373 -0.2484
11859TIP3    H135499   7.996   2.172   5.022  0.1933  1.9860  1.2210
11859TIP3    H235500   7.852   2.168   4.976  0.8291  0.4110 -0.7330
11860TIP3   OH235501   8.641   3.729   6.345 -0.3654 -0.1162  0.2808
11860TIP3    H135502   8.713   3.785   6.316 -0.2108 -0.1185  0.6511
11860TIP3    H235503   8.657   3.645   6.302  0.3724 -0.3983  1.0760
11861TIP3   OH235504   7.118   2.990   2.119 -0.0774  0.2543  0.0479
11861TIP3    H135505   7.162   3.024   2.197  0.1732  0.6386 -0.2642
11861TIP3    H235506   7.098   2.899   2.141 -1.7163  0.8930  1.2896
11862TIP3   OH235507   0.056   3.725   4.812 -0.2006  0.8324  0.0447
11862TIP3    H135508   0.022   3.678   4.889 -1.9969 -1.0369 -1.8138
11862TIP3    H235509  -0.018   3.779   4.783 -1.2717 -2.1723 -3.1851
11863TIP3   OH235510   7.914   4.500   4.072 -0.0331  0.0048  0.7246
11863TIP3    H135511   7.971   4.534   4.141  0.4862 -1.1675  0.8785
11863TIP3    H235512   7.974   4.467   4.005 -0.5303 -0.3906  0.4691
11864TIP3   OH235513   7.890   2.977   5.937 -0.2428 -0.7544 -0.4266
11864TIP3    H135514   7.836   2.920   5.992 -0.5168 -0.3336 -0.2590
11864TIP3    H235515   7.914   2.922   5.862 -1.4188 -0.7534 -0.8135
11865TIP3   OH235516   7.496   3.216   4.577  0.1900  0.1957 -0.0769
11865TIP3    H135517   7.498   3.219   4.673 -0.6594  0.8312 -0.0670
11865TIP3    H235518   7.402   3.213   4.556  0.3873 -0.4062 -0.8776
11866TIP3   OH235519   8.468   4.441   3.375  0.3224 -0.0813 -0.5203
11866TIP3    H135520   8.558   4.471   3.385 -0.3224  1.9625 -0.7186
11866TIP3    H235521   8.432   4.445   3.464  0.1834 -0.0952 -0.5760
11867TIP3   OH235522   7.041   4.517   5.842  0.0489 -0.0639 -0.5083
11867TIP3    H135523   7.014   4.609   5.846 -0.1799 -0.1861  0.8996
11867TIP3    H235524   7.094   4.512   5.762 -0.1726  1.2261 -0.7584
11868TIP3   OH235525   8.300   3.459   3.128 -0.2623  0.1741  0.1467
11868TIP3    H135526   8.263   3.500   3.049 -0.6431 -2.1751 -0.9616
11868TIP3    H235527   8.223   3.423   3.173 -0.0322  1.4445  1.5741
11869TIP3   OH235528   6.553   3.850   7.179  0.3291  0.2965 -0.2284
11869TIP3    H135529   6.545   3.755   7.167 -1.9550  0.3070  0.8474
11869TIP3    H235530   6.641   3.863   7.215  0.0569 -1.6004  1.2072
11870TIP3   OH235531   8.023   5.414   5.766  0.5611 -0.4589 -0.2497
11870TIP3    H135532   7.931   5.404   5.790  0.2701 -1.1112 -1.6126
11870TIP3    H235533   8.025   5.403   5.671  1.8207  1.1992 -0.4291
11871TIP3   OH235534   7.372   4.370   4.271  0.5131 -0.2552 -0.1642
11871TIP3    H135535   7.420   4.287   4.272  0.6226 -0.1874  0.4946
11871TIP3    H235536   7.309   4.363   4.343  1.0957  0.5573  0.4360
11872TIP3   OH235537   4.487   1.432   0.725 -0.0386 -0.4708 -0.0340
11872TIP3    H135538   4.423   1.503   0.716  0.8061  0.4961  1.3732
11872TIP3    H235539   4.465   1.390   0.808 -0.5389 -1.8685 -0.8704
11873TIP3   OH235540   6.753   4.148   3.956 -0.3915  0.5054  0.3784
11873TIP3    H135541   6.784   4.085   4.022 -1.1764 -0.3851 -0.0894
11873TIP3    H235542   6.804   4.227   3.973 -0.9666  0.4910  2.4322
11874TIP3   OH235543   7.337   4.792   5.020  0.5384 -0.4787  0.2816
11874TIP3    H135544   7.405   4.856   5.038  0.9047 -0.2402 -1.8546
11874TIP3    H235545   7.383   4.709   5.011  0.3373 -0.6261  0.5628
11875TIP3   OH235546   8.091   3.545   4.545  0.0623  0.5160  0.4828
11875TIP3    H135547   8.020   3.557   4.609  0.0211  0.9382  0.3548
11875TIP3    H235548   8.126   3.458   4.566 -0.4774  0.3110  0.5630
11876TIP3   OH235549   8.325   5.061   4.459 -0.2393 -0.4522  0.8905
11876TIP3    H135550   8.336   5.143   4.507 -0.8992 -1.0098  1.9994
11876TIP3    H235551   8.246   5.022   4.495  0.2943 -1.7786  0.6471
11877TIP3   OH235552   6.933   6.865   4.676  0.7397 -0.1188 -0.5862
11877TIP3    H135553   6.931   6.782   4.629  0.6852 -0.1299 -0.5645
11877TIP3    H235554   6.862   6.917   4.638 -1.1692 -1.1892  1.4095
11878TIP3   OH235555   0.640   4.472   3.015 -0.8509 -0.1481  0.1066
11878TIP3    H135556   0.563   4.520   2.983 -0.7170  0.4555  0.6785
11878TIP3    H235557   0.612   4.438   3.100 -0.4607  0.1478  0.3555
11879TIP3   OH235558   5.979   6.305   5.172  0.4836 -0.1638  0.2492
11879TIP3    H135559   5.921   6.348   5.236 -2.2916 -0.9499 -1.6453
11879TIP3    H235560   6.026   6.239   5.222 -1.5289 -0.6534  1.5618
11880TIP3   OH235561   6.478   0.793   5.594  0.7611 -0.5186 -0.0507
11880TIP3    H135562   6.434   0.876   5.607  0.6428 -0.6470  0.3952
11880TIP3    H235563   6.513   0.770   5.681  1.5665 -0.4971 -0.3586
11881TIP3   OH235564   0.479   2.834   5.446  0.0434 -0.2904  0.6259
11881TIP3    H135565   0.486   2.850   5.540  1.1533  0.1148  0.4741
11881TIP3    H235566   0.523   2.908   5.405 -2.6195  0.8507 -0.2947
11882TIP3   OH235567   4.106   8.319   3.339 -0.0575  0.4426  0.1152
11882TIP3    H135568   4.072   8.259   3.272  1.4306 -1.7184  1.2362
11882TIP3    H235569   4.183   8.274   3.374  0.9272  2.9079  1.1944
11883TIP3   OH235570   5.645   1.609   5.313  0.3330 -0.6805  0.0805
11883TIP3    H135571   5.727   1.587   5.268  0.0842  0.7043 -1.0646
11883TIP3    H235572   5.664   1.594   5.406  3.0447  2.9855  0.2226
11884TIP3   OH235573   1.958   4.679   0.258 -0.4826 -0.1715  0.1526
11884TIP3    H135574   2.034   4.738   0.256 -1.3940  0.9981 -0.5760
11884TIP3    H235575   1.955   4.647   0.348 -0.3770  1.4570  0.7573
11885TIP3   OH235576   7.608   4.137   4.316  0.1602 -0.1496 -0.0963
11885TIP3    H135577   7.538   4.105   4.373 -2.8547 -0.0310 -3.5552
11885TIP3    H235578   7.636   4.059   4.267  0.4736  0.3600 -0.7282
11886TIP3   OH235579   6.404   0.303   4.045  0.5180  0.0606  0.1115
11886TIP3    H135580   6.427   0.210   4.039  0.8330  0.1587 -0.3026
11886TIP3    H235581   6.309   0.304   4.050  0.5554 -0.3209  0.9700
11887TIP3   OH235582   0.685   1.574   6.809  0.4787  0.1418 -0.2868
11887TIP3    H135583   0.744   1.537   6.874 -1.0655 -0.8841  0.5342
11887TIP3    H235584   0.705   1.526   6.728 -1.1437 -2.1758  0.6431
11888TIP3   OH235585   7.361   2.446   3.954 -0.3200  0.1778  0.2376
11888TIP3    H135586   7.431   2.465   3.892 -0.6528  0.0688 -0.1781
11888TIP3    H235587   7.306   2.524   3.953 -0.9795 -0.2908 -0.5021
11889TIP3   OH235588   6.691   1.807   6.267 -0.3627 -0.4707 -0.4585
11889TIP3    H135589   6.657   1.741   6.327 -0.4351  0.7784  0.9042
11889TIP3    H235590   6.779   1.824   6.298 -0.2483 -0.1199 -0.9737
11890TIP3   OH235591   5.709   5.181   4.381  0.6540 -0.1444  0.4189
11890TIP3    H135592   5.743   5.108   4.433  0.3807 -0.1331  0.6135
11890TIP3    H235593   5.767   5.185   4.305  0.6886 -0.5422  0.4242
11891TIP3   OH235594   5.904   2.656   3.200 -0.2299  0.4677 -0.0549
11891TIP3    H135595   5.894   2.747   3.228 -2.2720  0.5437 -0.8956
11891TIP3    H235596   5.889   2.658   3.105 -0.0718 -0.7135 -0.1134
11892TIP3   OH235597   8.425   4.947   7.167 -0.6091  0.2445  0.8105
11892TIP3    H135598   8.474   4.946   7.085  0.3985 -1.3290  1.4167
11892TIP3    H235599   8.349   5.003   7.149 -0.4612 -0.1809 -1.2357
11893TIP3   OH235600   5.416   0.116   0.695  0.3952  0.1363  0.1548
11893TIP3    H135601   5.479   0.100   0.624  0.3681 -0.3014  0.2306
11893TIP3    H235602   5.352   0.176   0.656  2.1010  2.4120  0.7645
11894TIP3   OH235603   1.795   2.803   6.432  0.0907  0.5075  0.2301
11894TIP3    H135604   1.834   2.762   6.355 -0.4969  2.3360 -1.0690
11894TIP3    H235605   1.867   2.853   6.471  0.3761 -0.3823  0.8860
11895TIP3   OH235606   7.895   5.125   7.155 -0.6751 -0.3854 -0.4113
11895TIP3    H135607   7.901   5.215   7.186 -2.0940 -0.4012 -0.0204
11895TIP3    H235608   7.815   5.091   7.196 -0.7524 -1.4700 -1.4210
11896TIP3   OH235609   7.709   0.772   0.346  0.3501 -0.0454  0.2516
11896TIP3    H135610   7.625   0.802   0.313  0.3449 -0.3390 -0.0067
11896TIP3    H235611   7.732   0.699   0.289  0.7027 -0.0686  0.4223
11897TIP3   OH235612   6.206   0.324   1.239 -0.1989 -0.1157 -0.0948
11897TIP3    H135613   6.170   0.238   1.262  1.3785 -0.1104  2.5270
11897TIP3    H235614   6.284   0.305   1.187 -0.4791 -0.2516 -0.4634
11898TIP3   OH235615   7.043   7.124   4.608 -0.3772 -0.5213  0.1411
11898TIP3    H135616   7.138   7.119   4.596 -0.2503  0.7769  0.4764
11898TIP3    H235617   7.016   7.034   4.626  1.1179 -0.5765  2.2832
11899TIP3   OH235618   3.184   7.013   0.154  0.6775  0.3663 -0.0827
11899TIP3    H135619   3.136   6.929   0.152  0.5763  0.3897  0.8712
11899TIP3    H235620   3.119   7.078   0.126 -0.0371  0.4681  1.7021
11900TIP3   OH235621   0.786   4.441   7.028 -0.0842 -0.7249 -0.2459
11900TIP3    H135622   0.765   4.452   6.935  1.5871  1.2137 -0.4428
11900TIP3    H235623   0.858   4.378   7.029  1.0253  0.5113 -0.4341
11901TIP3   OH235624   8.393   1.881   0.520 -0.4907 -0.1083  0.5635
11901TIP3    H135625   8.355   1.797   0.543 -0.9055  0.1575  0.8551
11901TIP3    H235626   8.365   1.940   0.590 -0.7859  0.4324 -0.0037
11902TIP3   OH235627   5.709   6.724   0.706 -0.0168 -0.1478  0.3737
11902TIP3    H135628   5.738   6.634   0.690 -0.7964 -0.5059  0.9349
11902TIP3    H235629   5.785   6.778   0.684  0.5925 -0.9719  0.4229
11903TIP3   OH235630   2.277   5.316   6.212 -0.3403 -0.3833 -0.0552
11903TIP3    H135631   2.182   5.302   6.221 -0.4912  0.1582 -0.7681
11903TIP3    H235632   2.296   5.391   6.268 -0.0762 -1.4353  1.2639
11904TIP3   OH235633   0.426   4.144   6.701  0.2917  0.2467 -0.6022
11904TIP3    H135634   0.500   4.152   6.640 -0.2331  0.0866 -1.2707
11904TIP3    H235635   0.351   4.180   6.652  0.0688  1.0649  0.3294
11905TIP3   OH235636   1.284   3.030   6.531  0.1007 -0.5970  0.4615
11905TIP3    H135637   1.355   2.987   6.484  1.0361  1.9761 -0.5682
11905TIP3    H235638   1.272   3.113   6.485 -2.6808 -0.4081  1.4390
11906TIP3   OH235639   6.957   6.239   4.897 -0.3343 -0.4345  0.3583
11906TIP3    H135640   6.960   6.189   4.815 -0.0424  1.4694 -0.8078
11906TIP3    H235641   6.880   6.206   4.942 -1.7228 -0.0200 -1.6600
11907TIP3   OH235642   8.123   2.328   6.225  0.7372  0.2660  0.1468
11907TIP3    H135643   8.032   2.345   6.201  0.8343  1.0524  0.3208
11907TIP3    H235644   8.136   2.375   6.308  1.8230  1.7197 -0.8168
11908TIP3   OH235645   1.530   4.294   6.771 -0.1393  0.4270  0.1474
11908TIP3    H135646   1.484   4.263   6.694 -0.5891 -0.4540  0.7558
11908TIP3    H235647   1.522   4.389   6.768 -1.8924  0.2983  0.1772
11909TIP3   OH235648   3.956   8.203   1.979  0.5789  0.4992 -0.2705
11909TIP3    H135649   3.962   8.150   1.899 -0.9205 -0.1433  0.0233
11909TIP3    H235650   4.029   8.172   2.033  1.4642  0.7712 -1.2739
11910TIP3   OH235651   1.346   3.261   6.714 -0.6829  0.3349 -0.0816
11910TIP3    H135652   1.345   3.267   6.619 -0.1245  0.7636 -0.0602
11910TIP3    H235653   1.414   3.196   6.733 -0.7573  0.2888  0.0303
11911TIP3   OH235654   1.726   3.578   6.871 -0.3660 -0.3675  0.2817
11911TIP3    H135655   1.795   3.634   6.836 -0.3545 -0.9369 -0.6124
11911TIP3    H235656   1.701   3.620   6.954 -0.4406  1.0238 -0.4299
11912TIP3   OH235657   4.267   7.840   1.149 -0.1580  0.1925  0.1568
11912TIP3    H135658   4.197   7.894   1.187 -0.7727 -0.8129  0.4754
11912TIP3    H235659   4.346   7.892   1.159 -0.7430  1.0208  0.4898
11913TIP3   OH235660   3.738   8.287   0.174 -0.0840 -0.4531  0.5290
11913TIP3    H135661   3.666   8.234   0.208 -0.7209  0.3220  0.3988
11913TIP3    H235662   3.760   8.246   0.091  1.0884 -2.0005  1.5912
11914TIP3   OH235663   1.623   3.920   6.035 -0.7087 -0.1005 -0.2523
11914TIP3    H135664   1.656   4.000   6.077 -0.0217 -1.1708  1.3057
11914TIP3    H235665   1.665   3.919   5.949  0.5396  0.3966  0.3357
11915TIP3   OH235666   0.965   5.525   6.763 -0.3285  0.4621  0.2042
11915TIP3    H135667   1.050   5.547   6.726 -1.3119  1.7185 -1.3502
11915TIP3    H235668   0.902   5.555   6.698 -2.0514  1.7613  2.4348
11916TIP3   OH235669   4.388   7.526   1.030 -0.3509 -0.0126 -0.6540
11916TIP3    H135670   4.319   7.526   1.096 -0.7033  0.7935 -1.0222
11916TIP3    H235671   4.428   7.439   1.038 -0.7879 -0.1452  0.1972
11917TIP3   OH235672   0.244   2.979   5.995  0.3745  0.9058 -0.0343
11917TIP3    H135673   0.199   3.006   5.915  1.6141  0.6163 -0.8385
11917TIP3    H235674   0.290   3.057   6.024  1.0226  0.6438 -0.3541
11918TIP3   OH235675   2.346   1.875   6.857  0.2981  0.1502 -0.1728
11918TIP3    H135676   2.325   1.919   6.940  1.7014 -0.4805  0.5443
11918TIP3    H235677   2.276   1.901   6.797 -0.4772  1.0004  1.0778
11919TIP3   OH235678   3.996   6.331   6.248 -0.4105  0.2824 -0.1674
11919TIP3    H135679   4.070   6.308   6.191 -0.0342  0.5800  0.1963
11919TIP3    H235680   4.030   6.318   6.337 -0.5471  1.1812  0.0127
11920TIP3   OH235681   2.274   4.879   7.276 -0.1137 -0.1457 -0.2178
11920TIP3    H135682   2.314   4.920   7.199  0.1367  2.5045  1.2633
11920TIP3    H235683   2.186   4.915   7.280 -0.8703 -1.9376 -0.4769
11921TIP3   OH235684   6.481   0.073   0.103  0.1565  0.3043  0.0248
11921TIP3    H135685   6.498   0.050   0.011  0.4936  1.2448 -0.1616
11921TIP3    H235686   6.540   0.016   0.153 -0.9239 -1.0857 -0.2670
11922TIP3   OH235687   0.969   5.687   7.176 -0.1117 -0.1328 -0.3654
11922TIP3    H135688   1.009   5.608   7.140 -0.6028 -0.9522  0.8941
11922TIP3    H235689   0.922   5.725   7.101  3.1529  0.9928 -1.9524
11923TIP3   OH235690   1.501   3.630   7.069  0.1859  0.1552 -0.0325
11923TIP3    H135691   1.461   3.661   6.988  2.0139  0.1662 -0.9311
11923TIP3    H235692   1.429   3.633   7.133 -0.5181  3.2111 -0.8489
11924TIP3   OH235693   0.196   5.586   6.726  0.1512 -0.0747  0.0695
11924TIP3    H135694   0.120   5.539   6.692  0.0084  0.3556 -0.2051
11924TIP3    H235695   0.230   5.528   6.795 -0.8092  0.0281  0.6477
11925TIP3   OH235696   5.005   7.788   0.728  0.5635  0.0306 -0.0448
11925TIP3    H135697   4.969   7.877   0.723 -0.8402 -0.4819  0.8357
11925TIP3    H235698   5.085   7.793   0.675  1.2875  2.1908  1.1710
11926TIP3   OH235699   0.620   3.436   6.222 -0.2265  0.3819  0.1183
11926TIP3    H135700   0.542   3.385   6.199  0.0575 -1.1431  2.4220
11926TIP3    H235701   0.689   3.401   6.164 -0.9518  0.8918 -1.0636
11927TIP3   OH235702   1.391   6.554   6.866 -0.4111  0.4566  1.0136
11927TIP3    H135703   1.401   6.649   6.853 -0.8934  0.5013  0.9799
11927TIP3    H235704   1.336   6.525   6.793  0.3306  0.0318  0.6167
11928TIP3   OH235705   4.771   8.334   1.301 -0.1624  0.1396  0.2599
11928TIP3    H135706   4.699   8.323   1.238  0.5447 -0.8961 -0.3706
11928TIP3    H235707   4.850   8.316   1.250  0.3687 -1.5297  1.6570
11929TIP3   OH235708   0.230   4.068   5.715 -0.0224  0.5556  0.2947
11929TIP3    H135709   0.205   4.096   5.803 -0.8205  0.4519  0.1017
11929TIP3    H235710   0.214   4.145   5.660  0.1873  0.5220  0.1847
11930TIP3   OH235711   0.070   5.692   6.465 -0.0994  0.2481 -0.2446
11930TIP3    H135712   0.072   5.770   6.519  0.8856  0.7505 -0.9999
11930TIP3    H235713  -0.003   5.706   6.405 -0.1984  0.3942 -0.0893
11931TIP3   OH235714   7.659   0.094   0.968  0.0063 -0.5361 -0.3904
11931TIP3    H135715   7.581   0.133   1.006  0.9723  1.2435 -0.1744
11931TIP3    H235716   7.727   0.161   0.977  1.7259 -2.2669 -0.0148
11932TIP3   OH235717   6.783   4.976   7.040 -0.0309 -0.0078  0.4686
11932TIP3    H135718   6.746   4.947   6.957  1.3877 -0.9405  0.1464
11932TIP3    H235719   6.869   4.934   7.045  0.3726  0.9180  1.8908
11933TIP3   OH235720   1.493   6.137   6.337 -0.2901 -0.0618 -0.3193
11933TIP3    H135721   1.504   6.093   6.421 -0.8701  1.3759  0.5460
11933TIP3    H235722   1.581   6.144   6.301  0.0188 -0.3197  0.3790
11934TIP3   OH235723   6.050   1.351   0.466  0.5295 -0.4593  0.4891
11934TIP3    H135724   6.071   1.313   0.381 -0.4008 -0.4203  0.2343
11934TIP3    H235725   6.133   1.386   0.498  0.8493 -0.2927 -0.4957
11935TIP3   OH235726   3.791   3.182   7.265 -0.2430 -0.8048 -0.5779
11935TIP3    H135727   3.775   3.155   7.174 -2.0765 -0.8790 -0.2658
11935TIP3    H235728   3.784   3.101   7.315  1.3369 -0.8536 -0.4270
11936TIP3   OH235729   0.459   3.911   6.866  0.4458  0.0877  0.0175
11936TIP3    H135730   0.376   3.865   6.862  0.6261 -0.3826  1.4625
11936TIP3    H235731   0.450   3.983   6.804 -0.3333 -1.0744 -1.2467
11937TIP3   OH235732   4.747   7.631   0.252 -0.0407  0.2015 -0.5682
11937TIP3    H135733   4.761   7.641   0.158 -0.1743  1.1946 -0.4834
11937TIP3    H235734   4.652   7.639   0.263 -0.0295  0.0446 -0.3547
11938TIP3   OH235735   4.391   8.037   1.934  0.3696 -0.0977 -0.0467
11938TIP3    H135736   4.308   8.003   1.967  0.3353  0.9799  1.0188
11938TIP3    H235737   4.430   8.081   2.009  0.9152  1.2335 -1.0919
11939TIP3   OH235738   8.753   5.481   6.023 -0.4711 -0.2355  0.1310
11939TIP3    H135739   8.739   5.573   6.003  0.7761 -0.4218 -1.6837
11939TIP3    H235740   8.840   5.478   6.064 -1.0562 -0.4513  1.3818
11940TIP3   OH235741   1.292   4.218   6.118  0.5383  0.2924  0.6216
11940TIP3    H135742   1.252   4.141   6.158 -0.0721 -0.5537 -1.5674
11940TIP3    H235743   1.354   4.182   6.054  0.3837  1.6085 -0.2769
11941TIP3   OH235744   3.754   8.390   0.434  0.8293 -0.2219  0.9782
11941TIP3    H135745   3.763   8.304   0.476  0.4485 -0.3815  0.7309
11941TIP3    H235746   3.760   8.372   0.340 -2.5605 -0.4322  0.7389
11942TIP3   OH235747   0.429   4.843   6.082 -0.1318 -0.0689 -0.0771
11942TIP3    H135748   0.384   4.770   6.040 -0.9674  0.0895  0.5002
11942TIP3    H235749   0.464   4.895   6.010 -0.5312 -0.4249 -0.5329
11943TIP3   OH235750   8.290   0.874   0.958  0.7601 -0.4261 -0.8598
11943TIP3    H135751   8.217   0.909   0.906  0.7639  0.5057 -0.2502
11943TIP3    H235752   8.248   0.835   1.034  0.8018 -1.1959 -1.2287
11944TIP3   OH235753   5.301   1.399   0.017 -0.1938  0.8695 -0.1976
11944TIP3    H135754   5.245   1.368   0.088  1.1849  1.3632  1.1076
11944TIP3    H235755   5.348   1.473   0.053  1.8352  0.0300 -1.0533
11945TIP3   OH235756   1.388   3.704   5.982  0.4268  0.2031 -0.8177
11945TIP3    H135757   1.437   3.774   6.024 -1.1563  1.3680 -0.8876
11945TIP3    H235758   1.445   3.673   5.912  1.1095  1.4486 -0.8134
11946TIP3   OH235759   1.532   2.296   4.660 -0.4864  0.3269  0.0607
11946TIP3    H135760   1.582   2.219   4.686  0.2543  1.0475  0.8309
11946TIP3    H235761   1.449   2.288   4.706  0.0117  0.5355  1.0044
11947TIP3   OH235762   5.231   7.426   0.922 -0.0763 -0.2670 -0.0445
11947TIP3    H135763   5.238   7.396   0.831  0.7945  0.9417 -0.3878
11947TIP3    H235764   5.263   7.517   0.920 -0.2403 -0.1629  1.4323
11948TIP3   OH235765   0.606   6.889   4.304  0.1239  0.3082 -0.1714
11948TIP3    H135766   0.676   6.895   4.239  0.6904  0.9660  0.4855
11948TIP3    H235767   0.603   6.796   4.327  0.8472  0.2817 -0.1530
11949TIP3   OH235768   1.103   3.756   5.979 -0.7575 -0.0426 -0.5455
11949TIP3    H135769   1.194   3.727   5.983 -0.5911  0.3591 -1.4251
11949TIP3    H235770   1.059   3.704   6.046  0.4346  0.8706  0.9909
11950TIP3   OH235771   0.566   4.608   7.111 -0.0640  0.8870 -0.4043
11950TIP3    H135772   0.628   4.540   7.086 -0.5507  0.5059 -0.5922
11950TIP3    H235773   0.575   4.615   7.206  0.1329  0.7001 -0.4080
11951TIP3   OH235774   1.647   3.455   5.576 -0.1812 -0.0857 -0.2029
11951TIP3    H135775   1.711   3.408   5.631  1.2739  2.2901  0.2281
11951TIP3    H235776   1.689   3.539   5.558 -1.0767 -0.4231 -4.1654
11952TIP3   OH235777   0.272   4.191   6.936 -0.1080 -0.1325 -0.0256
11952TIP3    H135778   0.303   4.151   6.854 -0.4152  1.5048 -0.9720
11952TIP3    H235779   0.257   4.283   6.913  2.0552  0.9044  2.4624
11953TIP3   OH235780   1.476   4.594   4.769 -0.6050  0.2823 -0.0504
11953TIP3    H135781   1.503   4.584   4.678 -1.0918 -1.9312  0.0052
11953TIP3    H235782   1.523   4.524   4.815 -1.7292  0.2552  1.0797
11954TIP3   OH235783   1.301   4.591   6.307  0.7100  0.3311 -0.2495
11954TIP3    H135784   1.250   4.640   6.242 -0.3984 -0.8166 -0.2506
11954TIP3    H235785   1.388   4.631   6.303  0.2834  1.1797 -1.4633
11955TIP3   OH235786   5.548   0.735   1.193 -0.4758  0.8267 -0.3744
11955TIP3    H135787   5.540   0.828   1.173 -2.3939  0.5912 -0.7351
11955TIP3    H235788   5.502   0.690   1.123  0.9621 -0.4543 -0.5443
11956TIP3   OH235789   7.902   3.330   4.784  0.0823 -0.0154 -0.0492
11956TIP3    H135790   7.815   3.292   4.795 -0.0700  0.5692  0.8148
11956TIP3    H235791   7.886   3.424   4.774  0.7801  0.4860  3.0380
11957TIP3   OH235792   6.948   3.190   7.157 -0.0493 -0.0047 -0.6308
11957TIP3    H135793   7.014   3.246   7.116  0.1764 -0.2710 -0.6370
11957TIP3    H235794   6.923   3.128   7.088 -0.7040  0.4321 -0.7959
11958TIP3   OH235795   7.574   4.196   5.907 -0.8414 -0.2001  0.7873
11958TIP3    H135796   7.492   4.148   5.920 -1.2184  0.2333  0.0595
11958TIP3    H235797   7.546   4.282   5.876 -0.0905 -0.2454 -0.0345
11959TIP3   OH235798   2.215   5.018   6.505  0.4669 -0.0838  0.6280
11959TIP3    H135799   2.303   5.040   6.536 -0.6670  2.8427  1.9383
11959TIP3    H235800   2.162   5.011   6.584 -0.9336  0.3582 -0.2354
11960TIP3   OH235801   0.460   3.785   6.192 -0.4832 -0.2276 -0.2898
11960TIP3    H135802   0.364   3.778   6.195 -0.5469 -0.0218 -1.5636
11960TIP3    H235803   0.490   3.696   6.174 -0.4244 -0.3243  0.2826
11961TIP3   OH235804   7.493   0.866   0.187  0.4567  0.2171  0.0414
11961TIP3    H135805   7.398   0.866   0.192  0.3817 -1.1570 -1.0656
11961TIP3    H235806   7.512   0.890   0.096  1.0533 -3.2379 -0.8136
11962TIP3   OH235807   0.217   3.366   6.418  0.2314  0.3602 -0.1274
11962TIP3    H135808   0.126   3.342   6.404 -0.9811  3.9437  0.9300
11962TIP3    H235809   0.245   3.313   6.492 -0.1771 -2.5725 -2.0141
11963TIP3   OH235810   1.798   8.107   0.427 -0.3213  0.3849  0.2832
11963TIP3    H135811   1.845   8.083   0.347  1.4389 -1.3326  1.7910
11963TIP3    H235812   1.711   8.071   0.415 -0.0175 -0.0273 -0.7724
11964TIP3   OH235813   0.060   5.146   5.811  0.3232  0.0952 -0.1072
11964TIP3    H135814  -0.019   5.118   5.859  1.1208 -0.9353  0.6507
11964TIP3    H235815   0.105   5.204   5.872  0.3809  0.3082 -0.3558
11965TIP3   OH235816   1.762   6.495   6.763 -0.0074  0.0232  0.5500
11965TIP3    H135817   1.838   6.439   6.748  0.6327  0.6428  1.4406
11965TIP3    H235818   1.691   6.452   6.715  1.2485  0.2897 -1.5731
11966TIP3   OH235819   0.118   3.143   6.575 -0.5361 -0.5486  0.0927
11966TIP3    H135820   0.049   3.184   6.627 -0.0691  1.6981 -1.0198
11966TIP3    H235821   0.080   3.060   6.546 -2.7489  0.6515 -0.4945
11967TIP3   OH235822   2.389   4.823   6.937  0.2217  0.2931 -0.2598
11967TIP3    H135823   2.426   4.735   6.934 -1.0962 -0.2844  0.1221
11967TIP3    H235824   2.298   4.812   6.911  0.5303  1.8357 -2.0895
11968TIP3   OH235825   2.519   6.520   0.232 -0.1272  0.9100  0.4433
11968TIP3    H135826   2.565   6.573   0.166 -0.7448  0.3047 -0.4747
11968TIP3    H235827   2.564   6.541   0.314 -0.0525  2.5017  0.0195
11969TIP3   OH235828   5.692   0.815   0.378  0.1624  0.2158 -0.4765
11969TIP3    H135829   5.628   0.855   0.319 -1.1286  0.0988  0.8126
11969TIP3    H235830   5.650   0.735   0.409  1.0853 -0.0675  0.0773
11970TIP3   OH235831   7.924   4.643   7.118  0.2719 -0.2105 -0.8123
11970TIP3    H135832   7.839   4.665   7.156  0.7607  0.8078 -0.3111
11970TIP3    H235833   7.910   4.558   7.077 -1.0677  0.0740 -0.9641
11971TIP3   OH235834   8.116   0.036   1.756  0.2628 -0.5571  0.0370
11971TIP3    H135835   8.187   0.025   1.692  1.6810  1.9823  1.0981
11971TIP3    H235836   8.091   0.128   1.747 -1.5081 -0.9192  1.1404
11972TIP3   OH235837   0.939   3.986   3.899  0.3622 -0.2243  0.0886
11972TIP3    H135838   0.925   3.909   3.954  0.0112 -0.2324 -0.0117
11972TIP3    H235839   1.029   4.013   3.918  0.4527 -0.6005  0.1967
11973TIP3   OH235840   1.825   3.721   6.337 -0.0976 -0.4241 -0.0642
11973TIP3    H135841   1.918   3.739   6.346 -0.0281 -1.7802  2.1350
11973TIP3    H235842   1.782   3.786   6.393 -0.4249 -0.4065 -0.3332
11974TIP3   OH235843   5.414   7.958   1.402  0.0650  0.2249  0.4015
11974TIP3    H135844   5.505   7.959   1.432 -0.0627  0.3522  0.7911
11974TIP3    H235845   5.374   8.034   1.446  0.1076  0.9659 -0.8111
11975TIP3   OH235846   0.730   4.011   6.885  0.0166 -0.1102  0.0502
11975TIP3    H135847   0.730   4.049   6.797 -0.1118  0.9884  0.5244
11975TIP3    H235848   0.650   3.958   6.887  0.3388 -0.6350 -0.7053
11976TIP3   OH235849   1.086   5.101   5.487  0.3713 -0.3642 -0.0643
11976TIP3    H135850   1.110   5.170   5.425 -0.5283  1.7572  1.8662
11976TIP3    H235851   1.093   5.143   5.573 -0.2968 -2.6694  1.1459
11977TIP3   OH235852   7.913   5.835   7.033  0.3028  0.4587  0.4121
11977TIP3    H135853   7.873   5.763   7.083 -1.8127  1.1347 -0.3022
11977TIP3    H235854   7.969   5.791   6.969 -1.1063 -0.5720 -0.1271
11978TIP3   OH235855   0.612   3.883   5.247 -0.2105  0.0306  0.0747
11978TIP3    H135856   0.546   3.837   5.195 -0.3901  0.2152  0.1359
11978TIP3    H235857   0.617   3.970   5.207  0.0223  0.0050  0.0482
11979TIP3   OH235858   1.705   5.521   5.780 -0.0835  0.3900  0.7155
11979TIP3    H135859   1.715   5.601   5.832  2.7620 -0.3180  1.3873
11979TIP3    H235860   1.781   5.522   5.721 -0.2537 -1.5877  0.4273
11980TIP3   OH235861   8.545   1.553   1.232 -0.5764 -0.2683  0.4504
11980TIP3    H135862   8.498   1.566   1.150  0.5177 -0.6592 -0.2478
11980TIP3    H235863   8.547   1.458   1.244 -0.5960 -0.2188  0.8421
11981TIP3   OH235864   2.366   3.052   6.657 -0.5387  0.6248  0.7140
11981TIP3    H135865   2.388   3.143   6.636 -0.3252  0.5093  0.4283
11981TIP3    H235866   2.302   3.058   6.728  1.3763  0.9529  2.4616
11982TIP3   OH235867   3.511   4.829   6.579  0.0648  0.2343 -0.0281
11982TIP3    H135868   3.492   4.845   6.487  1.2427  1.8931 -0.0089
11982TIP3    H235869   3.517   4.734   6.586 -4.0887 -0.1779 -0.8035
11983TIP3   OH235870   1.290   3.174   5.359  0.1984 -0.6227 -0.3129
11983TIP3    H135871   1.357   3.242   5.366 -1.2024  0.8476 -1.2118
11983TIP3    H235872   1.304   3.134   5.273 -0.3349 -0.0571 -0.6595
11984TIP3   OH235873   8.614   4.477   6.818  0.1088  0.2686 -0.2565
11984TIP3    H135874   8.561   4.403   6.789 -0.2743  0.5784 -0.3522
11984TIP3    H235875   8.568   4.512   6.894  0.5044  0.1630  0.0344
11985TIP3   OH235876   5.785   0.497   0.080  0.4671 -0.8184 -0.3462
11985TIP3    H135877   5.719   0.444   0.125  0.7434 -2.3211 -1.6212
11985TIP3    H235878   5.781   0.466  -0.011  2.9493 -0.9877 -0.4395
11986TIP3   OH235879   1.781   4.211   5.790  0.2381 -0.2583 -0.0919
11986TIP3    H135880   1.777   4.135   5.732 -1.7984  0.2167 -0.6073
11986TIP3    H235881   1.697   4.255   5.777  0.2379  0.4951  2.3571
11987TIP3   OH235882   4.111   5.090   6.250 -0.5823  0.4310  0.0012
11987TIP3    H135883   4.060   5.104   6.170 -0.5182 -0.8605 -0.2783
11987TIP3    H235884   4.170   5.018   6.229  0.7422  1.3022  0.6209
11988TIP3   OH235885   0.323   1.397   0.370 -0.1311 -0.0366 -0.3653
11988TIP3    H135886   0.347   1.369   0.458  0.5688 -0.5170 -0.7061
11988TIP3    H235887   0.348   1.489   0.366  0.5126 -0.2082 -0.3011
11989TIP3   OH235888   2.890   5.694   5.872 -0.2081 -0.2845  0.6255
11989TIP3    H135889   2.887   5.610   5.919  1.7666  0.4251  2.1015
11989TIP3    H235890   2.979   5.699   5.838 -1.1383 -0.0325 -1.8728
11990TIP3   OH235891   1.608   5.077   6.293  0.2260  0.0153 -0.2457
11990TIP3    H135892   1.639   5.126   6.369 -0.9065  0.7610 -0.2575
11990TIP3    H235893   1.513   5.070   6.305 -0.2641  1.8928 -2.5649
11991TIP3   OH235894   3.308   4.700   5.974 -0.3871  0.0192  0.1185
11991TIP3    H135895   3.238   4.635   5.968  0.1905 -0.4077 -2.5059
11991TIP3    H235896   3.379   4.655   6.021 -0.2935 -0.9644 -0.9674
11992TIP3   OH235897   8.422   3.865   7.046 -0.1939  0.4341  0.4173
11992TIP3    H135898   8.409   3.934   6.981 -1.1052 -0.2013 -0.0832
11992TIP3    H235899   8.372   3.894   7.123 -1.0431  0.0698  0.0101
11993TIP3   OH235900   0.771   3.060   6.395 -0.3436 -0.0591 -0.5346
11993TIP3    H135901   0.806   2.982   6.436 -0.5452 -0.5321 -1.2442
11993TIP3    H235902   0.691   3.080   6.443  1.1767  1.3714  1.4781
11994TIP3   OH235903   0.597   5.345   6.231  0.5789  0.1041  0.6004
11994TIP3    H135904   0.544   5.355   6.309 -1.6683 -2.2503 -0.5269
11994TIP3    H235905   0.636   5.258   6.239  0.0789 -0.2941 -1.0076
11995TIP3   OH235906   3.027   7.584   0.519 -0.1069  0.3242  0.3408
11995TIP3    H135907   2.964   7.516   0.494 -1.0460  1.4380 -0.3708
11995TIP3    H235908   2.974   7.650   0.563  1.0037  0.0206  2.2028
11996TIP3   OH235909   7.510   2.559   1.281 -0.8016 -0.1089  0.4589
11996TIP3    H135910   7.509   2.612   1.361 -0.8030 -1.5306  1.4171
11996TIP3    H235911   7.422   2.524   1.274 -1.0670  0.7612 -0.6911
11997TIP3   OH235912   6.601   0.233   2.864 -0.8342 -0.0394  0.4459
11997TIP3    H135913   6.696   0.243   2.858 -1.0030  0.8914 -0.9392
11997TIP3    H235914   6.587   0.184   2.945  0.8725 -0.8821  0.2609
11998TIP3   OH235915   1.209   1.465   5.293  0.1908  0.2005 -0.3498
11998TIP3    H135916   1.242   1.391   5.344 -1.4075 -0.5795 -0.4177
11998TIP3    H235917   1.240   1.449   5.204  0.9554  0.3073 -0.1068
11999TIP3   OH235918   1.485   3.478   6.481  0.2633 -0.2981 -0.2976
11999TIP3    H135919   1.416   3.479   6.415  0.0436  0.8214 -0.0472
11999TIP3    H235920   1.442   3.504   6.562  1.0444  0.7240 -0.2082
12000TIP3   OH235921   6.559   4.853   4.821 -0.2332  0.1605  0.1922
12000TIP3    H135922   6.558   4.925   4.884 -1.6634  1.9930 -1.8667
12000TIP3    H235923   6.469   4.821   4.818 -0.1250 -0.0844 -0.7405
12001TIP3   OH235924   5.536   0.994   1.086  0.5316 -0.4874 -0.2995
12001TIP3    H135925   5.573   1.045   1.014  1.0460 -0.7752 -0.2399
12001TIP3    H235926   5.456   1.041   1.110 -0.9573 -1.7338 -2.6879
12002TIP3   OH235927   0.734   3.380   4.401 -0.0655 -0.0937 -0.4475
12002TIP3    H135928   0.673   3.308   4.416  0.9568 -0.8238  0.2760
12002TIP3    H235929   0.740   3.386   4.305 -0.2368 -0.8961 -0.5187
12003TIP3   OH235930   6.493   1.905   0.161  0.1843 -0.0891  0.1538
12003TIP3    H135931   6.578   1.863   0.149  0.2014 -0.1070  0.3368
12003TIP3    H235932   6.430   1.841   0.129  0.1760 -0.4609  0.9078
12004TIP3   OH235933   0.405   5.368   5.388  0.6197 -0.0835 -0.2309
12004TIP3    H135934   0.349   5.356   5.464 -0.0027 -0.4277 -0.7420
12004TIP3    H235935   0.434   5.280   5.364  0.0374 -0.0830 -0.9688
12005TIP3   OH235936   7.928   0.518   2.114  0.2957 -0.2671  0.6083
12005TIP3    H135937   7.874   0.511   2.036 -0.6844 -2.3783  1.4585
12005TIP3    H235938   7.925   0.432   2.154  1.4793  0.5502  2.5465
12006TIP3   OH235939   0.961   1.129   1.757  0.0592  0.4288  0.1248
12006TIP3    H135940   0.926   1.046   1.724  1.1249  0.6070 -1.5007
12006TIP3    H235941   0.895   1.194   1.734 -0.7593  0.0618  1.3660
12007TIP3   OH235942   6.230   0.474   0.454  0.6181 -0.7883 -0.4466
12007TIP3    H135943   6.207   0.567   0.457 -0.8842 -1.1630  0.0564
12007TIP3    H235944   6.206   0.447   0.365 -0.0117 -0.9557 -0.2282
12008TIP3   OH235945   7.417   4.649   5.631 -0.4136 -0.1705  0.4003
12008TIP3    H135946   7.491   4.662   5.572  0.3468  0.3177  1.4265
12008TIP3    H235947   7.448   4.683   5.715 -1.8907  0.2399  0.7914
12009TIP3   OH235948   2.337   6.888   6.758 -0.5358  0.5648 -0.3970
12009TIP3    H135949   2.426   6.869   6.789 -0.3480  2.0532 -0.0222
12009TIP3    H235950   2.317   6.814   6.699  0.8395  0.0772 -0.2854
12010TIP3   OH235951   1.555   3.281   5.390  0.1628  0.0715  0.1332
12010TIP3    H135952   1.587   3.357   5.439 -2.6075  2.4820 -1.6016
12010TIP3    H235953   1.579   3.300   5.299  0.2343 -1.5814 -0.2008
12011TIP3   OH235954   8.325   0.319   2.033  0.1890 -0.1300 -0.3312
12011TIP3    H135955   8.381   0.242   2.040  1.9762  1.2042  0.2558
12011TIP3    H235956   8.268   0.314   2.110  1.2347 -0.1245  0.4496
12012TIP3   OH235957   8.808   3.215   6.744 -0.0591  0.2564  0.1113
12012TIP3    H135958   8.839   3.185   6.829 -0.1597  0.0157  0.0647
12012TIP3    H235959   8.783   3.306   6.758 -0.7558  0.0056  0.5147
12013TIP3   OH235960   7.995   5.028   5.269  0.4011 -0.9844 -0.6106
12013TIP3    H135961   8.027   5.095   5.329 -1.0963 -0.3185 -0.5252
12013TIP3    H235962   8.023   4.945   5.307 -0.3268 -0.5542  0.8731
12014TIP3   OH235963   3.778   6.956   0.516 -0.2164 -0.1509  0.5639
12014TIP3    H135964   3.762   6.932   0.607 -2.2750 -3.0969 -0.4960
12014TIP3    H235965   3.868   6.927   0.499  1.1426  2.7850  2.3161
12015TIP3   OH235966   0.944   4.694   5.743 -0.1241 -0.0172 -0.3858
12015TIP3    H135967   0.994   4.614   5.762 -1.0075 -0.5870 -0.4429
12015TIP3    H235968   0.991   4.735   5.670 -0.1432 -0.9051 -0.9001
12016TIP3   OH235969   8.865   1.026   1.319 -0.3517 -0.2402 -0.3333
12016TIP3    H135970   8.945   0.997   1.362 -0.4076  1.1972  0.7378
12016TIP3    H235971   8.886   1.112   1.283 -0.8453 -0.6685 -1.6994
12017TIP3   OH235972   0.204   4.135   6.000 -0.3963  0.1829 -0.3923
12017TIP3    H135973   0.283   4.125   6.053 -0.0992  0.7097 -0.7409
12017TIP3    H235974   0.184   4.228   6.004 -1.2752 -0.0214  0.0928
12018TIP3   OH235975   0.386   4.417   5.464 -0.2357 -0.3215 -0.1550
12018TIP3    H135976   0.410   4.329   5.493  3.1684  0.5556 -0.0632
12018TIP3    H235977   0.463   4.447   5.415 -1.5242  2.4326 -0.5518
12019TIP3   OH235978   8.840   3.924   6.274 -0.0105 -0.2364  0.2882
12019TIP3    H135979   8.797   3.987   6.215  1.6040 -0.0563 -0.7361
12019TIP3    H235980   8.858   3.974   6.354 -0.0838  0.1881  0.0393
12020TIP3   OH235981   0.738   3.912   4.539 -0.3025  0.3883 -0.5776
12020TIP3    H135982   0.664   3.854   4.559 -0.8679  0.8516 -1.3222
12020TIP3    H235983   0.728   3.985   4.600 -0.4031  0.4023 -0.6104
12021TIP3   OH235984   1.614   4.273   7.031 -0.3584  0.2712 -0.3299
12021TIP3    H135985   1.616   4.263   6.935 -1.0505 -1.3608 -0.1842
12021TIP3    H235986   1.548   4.340   7.047  0.4012  1.2049 -1.0403
12022TIP3   OH235987   8.254   4.025   7.184 -0.4372 -0.1168 -1.0026
12022TIP3    H135988   8.294   4.028   7.271 -0.8372  1.1471 -0.8442
12022TIP3    H235989   8.163   4.051   7.199 -0.8269 -1.0848 -1.6333
12023TIP3   OH235990   1.395   4.898   7.046  0.2021  0.2887 -0.2618
12023TIP3    H135991   1.430   4.987   7.045  0.2730  0.2633  0.1146
12023TIP3    H235992   1.437   4.856   7.121  0.5318 -0.2047 -0.7098
12024TIP3   OH235993   3.190   3.727   5.089 -0.4889 -0.2920  0.0619
12024TIP3    H135994   3.259   3.792   5.104 -0.8642 -0.0403  0.7396
12024TIP3    H235995   3.237   3.646   5.068  0.0382 -0.2885  1.1862
12025TIP3   OH235996   6.084   0.555   1.335  0.1889  0.2810 -0.1054
12025TIP3    H135997   6.123   0.478   1.295  1.0837  0.9980 -0.6365
12025TIP3    H235998   6.157   0.600   1.378 -0.4291  0.5262  0.7136
12026TIP3   OH235999   8.417   2.181   7.079 -0.2811  0.1102 -0.2989
12026TIP3    H136000   8.452   2.103   7.122 -0.0003  0.9069  0.9834
12026TIP3    H236001   8.322   2.174   7.089 -0.2556 -0.0608 -0.1699
12027TIP3   OH236002   0.605   3.937   5.523 -0.2629 -0.3319  0.2195
12027TIP3    H136003   0.593   3.929   5.429 -0.5379 -1.0304  0.3117
12027TIP3    H236004   0.621   3.847   5.553  1.7800  0.1107  0.5685
12028TIP3   OH236005   4.113   8.321   1.708  0.5251 -0.8188  0.5754
12028TIP3    H136006   4.093   8.227   1.716 -0.7795 -0.6948 -1.0973
12028TIP3    H236007   4.071   8.348   1.627  1.1354  1.1768  0.9001
12029TIP3   OH236008   4.387   8.271   1.759 -0.4290  0.2030  0.1022
12029TIP3    H136009   4.365   8.192   1.808 -1.9068  0.2590 -0.4391
12029TIP3    H236010   4.302   8.306   1.731  0.2990  1.1180 -0.9993
12030TIP3   OH236011   6.779   1.001   1.957  0.0106 -0.2729  0.0560
12030TIP3    H136012   6.729   0.955   2.024  1.0894  0.5440  1.4455
12030TIP3    H236013   6.795   1.088   1.994  0.3753  0.2887 -1.3853
12031TIP3   OH236014   2.624   7.482   1.876  0.4682  0.0693  0.2146
12031TIP3    H136015   2.699   7.482   1.934 -0.8270 -1.2611  1.9576
12031TIP3    H236016   2.601   7.389   1.866 -2.0730  0.5245  1.2830
12032TIP3   OH236017   6.840   6.707   1.498  0.3868 -0.4765 -0.0394
12032TIP3    H136018   6.788   6.627   1.505  0.6146 -0.4943  1.6837
12032TIP3    H236019   6.929   6.677   1.481  0.6095 -0.6395  1.3511
12033TIP3   OH236020   6.136   0.044   1.172  0.0504  0.1910 -0.6194
12033TIP3    H136021   6.182  -0.039   1.181  1.7477  1.3154  1.6901
12033TIP3    H236022   6.131   0.059   1.078 -0.4466 -2.5721 -1.0828
12034TIP3   OH236023   0.193   4.446   6.819 -0.3971 -0.5206 -0.2252
12034TIP3    H136024   0.127   4.512   6.839 -0.1138  0.0259 -1.0738
12034TIP3    H236025   0.276   4.489   6.836 -0.2078 -0.6006 -0.9312
12035TIP3   OH236026   7.456   1.249  -0.000  0.3054 -0.4421  0.0245
12035TIP3    H136027   7.512   1.301   0.058 -0.0105  0.0182 -0.0828
12035TIP3    H236028   7.395   1.312  -0.038  1.7383 -0.3883 -2.2828
12036TIP3   OH236029   1.730   6.142   6.233  0.0550 -0.3177  0.4111
12036TIP3    H136030   1.778   6.059   6.235  0.2172 -0.3163 -1.7309
12036TIP3    H236031   1.797   6.209   6.246  0.4790 -0.3770 -1.3275
12037TIP3   OH236032   5.446   8.235   2.051 -0.2026  0.1384  0.8291
12037TIP3    H136033   5.471   8.248   2.142  1.6516  0.4479  0.3141
12037TIP3    H236034   5.488   8.307   2.004 -2.1186  0.6606 -0.1191
12038TIP3   OH236035   3.434   7.836   0.190 -0.1737  0.1717  0.5192
12038TIP3    H136036   3.483   7.810   0.268  0.2958 -0.5706 -0.0226
12038TIP3    H236037   3.415   7.754   0.145 -0.4811  0.5951 -0.1320
12039TIP3   OH236038   8.485   1.345   1.836  0.0828 -0.2180 -0.1733
12039TIP3    H136039   8.406   1.354   1.782 -1.1991  0.7621  1.8044
12039TIP3    H236040   8.549   1.402   1.793 -1.6474  2.4112  0.5833
12040TIP3   OH236041   7.983   1.377   2.698  0.2346  0.2378 -0.6099
12040TIP3    H136042   7.992   1.285   2.723 -0.8139  0.4032  0.4325
12040TIP3    H236043   7.959   1.374   2.605 -1.2304 -0.6075 -0.2170
12041TIP3   OH236044   7.634   1.161   2.362  0.0674  0.4738  0.0410
12041TIP3    H136045   7.648   1.120   2.448  0.8596  0.4281 -0.1096
12041TIP3    H236046   7.565   1.225   2.378 -0.9225 -0.6570  0.3610
12042TIP3   OH236047   4.705   8.362   0.711  0.7466 -0.4558  0.4980
12042TIP3    H136048   4.785   8.388   0.666 -0.4347  1.3584 -0.6021
12042TIP3    H236049   4.700   8.419   0.788  0.8894 -1.1080  1.0069
12043TIP3   OH236050   6.184   5.424   4.844 -0.0246 -0.0347 -0.0279
12043TIP3    H136051   6.169   5.413   4.938 -0.8344  0.3825 -0.1034
12043TIP3    H236052   6.255   5.488   4.838 -1.5679  1.7523  0.2802
12044TIP3   OH236053   4.130   4.424   6.620 -0.3568  0.4527  0.2953
12044TIP3    H136054   4.076   4.351   6.593 -3.5140  2.1607  1.7429
12044TIP3    H236055   4.104   4.442   6.710  0.8085  2.9592  0.1859
12045TIP3   OH236056   4.835   0.936   0.319  0.0690 -0.0842 -0.1362
12045TIP3    H136057   4.836   0.841   0.328 -1.0874  0.0401  1.5798
12045TIP3    H236058   4.923   0.964   0.342  0.7365 -0.8136 -1.7541
12046TIP3   OH236059   7.225   0.833   0.207  0.5054 -0.1433  0.2635
12046TIP3    H136060   7.156   0.776   0.240  0.5569 -0.9051 -0.9049
12046TIP3    H236061   7.179   0.914   0.183  0.1747 -0.2941  0.3818
12047TIP3   OH236062   5.229   7.439   0.035  0.1985 -0.0022 -0.2760
12047TIP3    H136063   5.243   7.531   0.014 -0.7259  0.5770  1.5138
12047TIP3    H236064   5.151   7.414  -0.015  1.2241 -0.2159 -1.8092
12048TIP3   OH236065   5.162   5.648   0.350  0.4154 -0.2980  0.0791
12048TIP3    H136066   5.232   5.670   0.289  0.3538 -0.1671  0.0568
12048TIP3    H236067   5.193   5.681   0.434  0.5445 -0.5656  0.1384
12049TIP3   OH236068   7.004   0.686   1.221  0.4150  0.2443 -0.2951
12049TIP3    H136069   7.015   0.666   1.314  0.1160 -0.8693 -0.4933
12049TIP3    H236070   6.955   0.768   1.220 -0.1514 -0.0828  0.5200
12050TIP3   OH236071   3.553   4.870   5.018 -0.0048 -0.0546 -0.2931
12050TIP3    H136072   3.507   4.954   5.014  0.6855  0.3226 -0.3783
12050TIP3    H236073   3.543   4.834   4.930 -1.9216 -0.9447  0.2624
12051TIP3   OH236074   5.392   3.264   7.063 -0.2897  0.5489  0.0237
12051TIP3    H136075   5.467   3.242   7.008 -0.5554  0.2148 -0.2099
12051TIP3    H236076   5.418   3.237   7.151 -0.6979 -0.9127 -0.2983
12052TIP3   OH236077   4.966   8.189   1.656  0.4673  0.2448 -0.5519
12052TIP3    H136078   5.011   8.270   1.678 -0.6566  0.3505  1.4906
12052TIP3    H236079   5.018   8.121   1.700 -0.0962  0.1489 -0.0249
12053TIP3   OH236080   7.670   0.540   0.116  0.2462  0.4424 -0.3337
12053TIP3    H136081   7.761   0.514   0.110  0.2791  0.1711  1.2054
12053TIP3    H236082   7.635   0.491   0.190 -1.4844 -0.3876 -1.6520
12054TIP3   OH236083   6.343   0.492   0.753  0.0462 -0.4615  0.0630
12054TIP3    H136084   6.287   0.549   0.807 -1.2367 -1.8559  0.2309
12054TIP3    H236085   6.325   0.404   0.785  0.1617 -1.2024 -1.8577
12055TIP3   OH236086   4.240   0.020   0.741 -0.1919 -0.5316  0.2287
12055TIP3    H136087   4.304   0.091   0.741 -0.7464 -0.0185  0.6976
12055TIP3    H236088   4.243  -0.016   0.653  1.3137 -1.0374  0.4706
12056TIP3   OH236089   6.241   0.312   1.627  0.2559  0.2831  0.2007
12056TIP3    H136090   6.177   0.342   1.563  1.7265  1.1218 -0.9153
12056TIP3    H236091   6.216   0.222   1.646 -0.5596  0.2171 -1.1124
12057TIP3   OH236092   3.255   3.880   6.655  0.1771 -0.2687  0.2221
12057TIP3    H136093   3.170   3.921   6.670 -0.4588 -1.6362  0.4664
12057TIP3    H236094   3.310   3.950   6.619 -1.0199  0.6450  0.1478
12058TIP3   OH236095   0.119   3.499   5.684 -0.3602  0.6071 -0.5985
12058TIP3    H136096   0.156   3.497   5.773 -1.4398 -0.3856 -0.1599
12058TIP3    H236097   0.178   3.444   5.632 -0.0761  0.6818 -0.3530
12059TIP3   OH236098   2.793   5.530   5.629  0.4033 -0.3113  0.1113
12059TIP3    H136099   2.708   5.572   5.616  0.8633  0.6617  0.2740
12059TIP3    H236100   2.825   5.565   5.711  0.5440 -1.3959  0.5255
12060TIP3   OH236101   1.111   3.386   6.968 -0.5102 -0.2212  0.4615
12060TIP3    H136102   1.093   3.469   7.013  1.0224 -0.1884  1.0376
12060TIP3    H236103   1.119   3.411   6.876  0.5537  0.3731  0.7074
12061TIP3   OH236104   6.635   1.818   0.722 -0.2212 -0.3139  0.5234
12061TIP3    H136105   6.564   1.766   0.760  0.3472 -0.4455  1.4232
12061TIP3    H236106   6.710   1.801   0.779  0.4600  0.0514 -0.2486
12062TIP3   OH236107   1.634   4.582   6.434  1.0289  0.6660 -0.4098
12062TIP3    H136108   1.637   4.539   6.348 -1.9236 -0.7291  0.1146
12062TIP3    H236109   1.706   4.543   6.482  0.6013 -1.1113 -1.1487
12063TIP3   OH236110   0.464   4.320   5.980  0.7204 -0.4614  0.2286
12063TIP3    H136111   0.441   4.234   6.014 -0.2733 -0.1932  0.2723
12063TIP3    H236112   0.419   4.381   6.039 -2.3609 -0.0017 -2.4142
12064TIP3   OH236113   2.808   4.688   6.813  0.7407 -0.4627  0.1203
12064TIP3    H136114   2.747   4.635   6.761  1.6297  0.1542 -1.5775
12064TIP3    H236115   2.830   4.632   6.887 -1.2966 -0.9862  0.3705
12065TIP3   OH236116   7.312   2.390   0.993  0.0851 -0.0433 -0.0442
12065TIP3    H136117   7.296   2.301   0.961 -0.6080  0.2236 -0.4468
12065TIP3    H236118   7.395   2.415   0.952  0.5353 -0.6820  0.4584
12066TIP3   OH236119   6.859   0.877   2.803  0.0671 -0.4448  0.1182
12066TIP3    H136120   6.861   0.920   2.717  0.0565 -0.8661 -0.0957
12066TIP3    H236121   6.789   0.812   2.796  0.0815 -0.4953  0.4380
12067TIP3   OH236122   1.361   5.681   7.150  0.0264 -0.0041 -0.2038
12067TIP3    H136123   1.283   5.639   7.113 -0.8176  1.0780  0.3170
12067TIP3    H236124   1.327   5.760   7.193  1.7903  2.2626 -2.8198
12068TIP3   OH236125   0.611   4.203   7.120 -0.4025  0.0973 -0.2812
12068TIP3    H136126   0.631   4.148   7.044  1.0662 -0.2745  0.3522
12068TIP3    H236127   0.651   4.287   7.101 -0.5418  0.1908 -0.1674
12069TIP3   OH236128   8.588   0.732   0.989 -0.1961  0.0223 -1.0126
12069TIP3    H136129   8.495   0.752   0.978 -0.1921  0.6102 -0.1035
12069TIP3    H236130   8.621   0.803   1.045  0.9323  0.1571 -1.8231
12070TIP3   OH236131   8.784   6.394   5.557 -0.1049  0.0200 -0.0435
12070TIP3    H136132   8.856   6.337   5.584  0.3607  0.9298  0.6538
12070TIP3    H236133   8.707   6.359   5.603  0.2103  0.0556  0.5116
12071TIP3   OH236134   2.580   1.504   5.772 -0.1933 -0.1495  0.6840
12071TIP3    H136135   2.560   1.530   5.862  1.6315 -1.3878  1.4721
12071TIP3    H236136   2.663   1.549   5.753  0.4327 -1.4429  0.3276
12072TIP3   OH236137   3.817   5.630   0.663  0.2481 -0.3531 -0.0166
12072TIP3    H136138   3.909   5.622   0.687  0.5639 -0.6772 -1.2739
12072TIP3    H236139   3.788   5.711   0.704  0.9169 -0.5875  0.9302
12073TIP3   OH236140   2.415   3.484   5.184 -0.1046  0.0494  0.1780
12073TIP3    H136141   2.461   3.404   5.209  1.1354  0.4697 -0.7157
12073TIP3    H236142   2.398   3.473   5.091 -2.5463 -0.4375  0.6328
12074TIP3   OH236143   3.030   6.771   0.125 -0.0863 -0.3777  0.3872
12074TIP3    H136144   3.008   6.694   0.178  0.7287 -1.2730 -0.5582
12074TIP3    H236145   2.972   6.764   0.048 -0.9856  0.7039  0.9554
12075TIP3   OH236146   7.222   3.197   4.577  0.0767 -0.1341 -0.7015
12075TIP3    H136147   7.188   3.109   4.567  1.5464 -0.6470 -1.3156
12075TIP3    H236148   7.172   3.250   4.515 -1.7275 -0.2548  0.6192
12076TIP3   OH236149   5.719   7.743   0.105 -0.1472  0.4218 -0.2237
12076TIP3    H136150   5.675   7.791   0.176 -3.1745 -0.0431 -1.7449
12076TIP3    H236151   5.699   7.793   0.026  2.4856  0.4507 -0.9185
12077TIP3   OH236152   4.393   8.381   0.928  0.7712 -0.3125 -0.0230
12077TIP3    H136153   4.414   8.309   0.870  0.9050 -0.6157  0.3998
12077TIP3    H236154   4.392   8.458   0.871  2.7062 -0.3285 -0.1244
12078TIP3   OH236155   2.291   3.505   7.212  0.4033 -0.2221  0.2412
12078TIP3    H136156   2.341   3.538   7.137  0.3782 -3.0420 -1.0939
12078TIP3    H236157   2.320   3.558   7.286  0.7932  2.2797 -1.6766
12079TIP3   OH236158   7.753   1.485   6.903  0.6728  0.4982 -0.0541
12079TIP3    H136159   7.755   1.488   6.999 -1.5171  1.4820 -0.0057
12079TIP3    H236160   7.753   1.577   6.876 -1.8100  0.2955 -0.8707
12080TIP3   OH236161   0.661   2.181   6.629  0.4905  0.1105 -0.4903
12080TIP3    H136162   0.666   2.273   6.604  0.4810  0.2446  0.0012
12080TIP3    H236163   0.597   2.179   6.700  1.3602 -0.1122  0.2928
12081TIP3   OH236164   0.409   5.914   6.682 -0.3739  0.0892 -0.5929
12081TIP3    H136165   0.349   5.897   6.755  0.7743  1.8796  0.8363
12081TIP3    H236166   0.396   6.007   6.661 -0.4577 -0.3294 -2.4904
12082TIP3   OH236167   2.222   4.798   5.872  0.3083 -0.6134  0.3751
12082TIP3    H136168   2.233   4.893   5.878  2.1420 -0.7991  0.2414
12082TIP3    H236169   2.252   4.765   5.957  0.8784 -1.1652 -0.0393
12083TIP3   OH236170   0.883   2.095   6.481  0.1129 -0.2712 -0.4662
12083TIP3    H136171   0.796   2.117   6.514 -0.0619 -1.7389  0.0711
12083TIP3    H236172   0.936   2.082   6.559  0.2581 -1.5589 -0.7697
12084TIP3   OH236173   7.687   0.051   3.292  0.0698  0.3229 -0.1369
12084TIP3    H136174   7.674   0.116   3.361 -2.1429  0.5176 -0.6954
12084TIP3    H236175   7.601   0.012   3.279  1.2571 -2.4197 -0.1608
12085TIP3   OH236176   3.076   3.305   6.762  0.3766 -0.1788  0.2306
12085TIP3    H136177   3.103   3.292   6.853 -0.1094 -0.5953  0.3138
12085TIP3    H236178   3.131   3.244   6.712  0.4726 -0.1250  0.2701
12086TIP3   OH236179   0.296   5.383   6.967  0.7088  0.2030 -0.5859
12086TIP3    H136180   0.379   5.347   6.935  0.3965 -0.2388 -0.9195
12086TIP3    H236181   0.229   5.328   6.925  0.1818  1.8954 -2.0348
12087TIP3   OH236182   2.454   4.091   7.011  0.7049 -0.4860 -0.0177
12087TIP3    H136183   2.517   4.063   7.077  0.3115  2.3913  1.6799
12087TIP3    H236184   2.379   4.122   7.062 -0.3608  0.0662 -1.8712
12088TIP3   OH236185   2.451   4.697   6.413  0.0297  0.0577 -0.4370
12088TIP3    H136186   2.431   4.736   6.499  0.1603  0.2746 -0.5048
12088TIP3    H236187   2.459   4.603   6.431  0.2543  0.1242 -0.1751
12089TIP3   OH236188   2.865   3.346   4.782  0.0501  0.1296 -0.1030
12089TIP3    H136189   2.910   3.408   4.839  1.1533 -0.5138 -0.2568
12089TIP3    H236190   2.923   3.336   4.707 -1.0377  0.3890 -1.0015
12090TIP3   OH236191   2.398   3.864   5.502 -0.0344 -0.3939  0.0428
12090TIP3    H136192   2.402   3.932   5.436  1.0284 -0.1830  0.3284
12090TIP3    H236193   2.409   3.782   5.454  2.2664 -0.1563  0.1362
12091TIP3   OH236194   4.268   6.692   7.013 -0.3058 -0.2893  0.2136
12091TIP3    H136195   4.197   6.755   7.004  0.0010  0.0240 -0.0423
12091TIP3    H236196   4.239   6.615   6.964 -0.7730 -0.4265  0.7098
12092TIP3   OH236197   3.193   2.674   6.835 -0.9936  0.7825  0.0181
12092TIP3    H136198   3.211   2.605   6.770  0.8505  0.5049  0.7886
12092TIP3    H236199   3.184   2.628   6.918  0.1674  1.4459  0.5275
12093TIP3   OH236200   5.219   4.704   5.988  0.2123  0.1400  0.0084
12093TIP3    H136201   5.282   4.725   6.057 -1.1079 -1.9353  1.9163
12093TIP3    H236202   5.266   4.642   5.932  0.1122 -0.9353  1.0850
12094TIP3   OH236203   5.784   8.011   0.956 -0.2793  0.3759 -0.4505
12094TIP3    H136204   5.787   7.929   1.004  1.2069  1.1948  0.8933
12094TIP3    H236205   5.719   8.065   1.002  0.5919  0.8814  0.1903
12095TIP3   OH236206   2.833   3.249   6.666 -0.3011  0.1329 -0.8661
12095TIP3    H136207   2.769   3.316   6.643 -0.3539  0.5197  0.3898
12095TIP3    H236208   2.908   3.299   6.700 -0.3327 -0.4313  0.0538
12096TIP3   OH236209   2.809   3.205   5.414 -0.2670  0.1771 -0.2151
12096TIP3    H136210   2.901   3.181   5.409 -0.9328 -2.2559 -1.7805
12096TIP3    H236211   2.802   3.257   5.494  1.9745 -1.8334  1.3722
12097TIP3   OH236212   4.374   4.942   6.470  0.0292 -0.0296  0.0605
12097TIP3    H136213   4.397   5.032   6.447 -0.0755 -0.7451 -3.0708
12097TIP3    H236214   4.319   4.912   6.398  2.7247 -3.6715 -0.6502
12098TIP3   OH236215   2.134   4.651   6.918 -0.3047 -0.3574 -0.1507
12098TIP3    H136216   2.112   4.708   6.844 -3.0198  1.5439  2.0012
12098TIP3    H236217   2.091   4.568   6.898  0.8338 -0.6060 -1.7069
12099TIP3   OH236218   0.033   0.521   0.529 -0.2843  0.9071  0.0769
12099TIP3    H136219   0.071   0.479   0.606  0.1770  0.9309 -0.1369
12099TIP3    H236220   0.074   0.607   0.526 -1.5613  1.5601  0.7751
12100TIP3   OH236221   5.275   7.988   0.062  0.1534 -0.0170 -0.0493
12100TIP3    H136222   5.323   7.962  -0.016 -0.7058 -0.4332 -0.4553
12100TIP3    H236223   5.197   8.033   0.028 -0.4004 -0.5017  0.5515
12101TIP3   OH236224   4.229   4.405   5.121  0.3047  0.0768  0.1177
12101TIP3    H136225   4.321   4.380   5.136 -0.0725 -0.7625  1.0904
12101TIP3    H236226   4.220   4.402   5.026  0.4302 -3.1257  0.1249
12102TIP3   OH236227   0.232   0.029   1.074  0.1256  1.0971  0.4690
12102TIP3    H136228   0.138   0.027   1.055  0.2605 -0.6789 -0.0922
12102TIP3    H236229   0.262   0.111   1.036 -1.0605  1.3356  0.0025
12103TIP3   OH236230   4.766   4.590   4.773 -0.4318 -0.5040 -0.2314
12103TIP3    H136231   4.747   4.669   4.722  0.3047  0.3199  0.7484
12103TIP3    H236232   4.706   4.594   4.847  0.0859 -0.4913  0.1926
12104TIP3   OH236233   2.148   5.165   6.902 -0.4360  0.2584 -0.3391
12104TIP3    H136234   2.066   5.131   6.865 -0.0739 -0.0566 -0.8540
12104TIP3    H236235   2.121   5.241   6.954 -0.6149  2.7093 -3.8670
12105TIP3   OH236236   2.662   4.912   5.172 -0.0814  0.0624 -0.1068
12105TIP3    H136237   2.619   4.866   5.100  1.3343 -0.5877 -0.5516
12105TIP3    H236238   2.607   4.895   5.248 -3.1419  3.0147 -1.5259
12106TIP3   OH236239   2.262   4.412   5.360 -0.7819  0.2961  0.2129
12106TIP3    H136240   2.206   4.349   5.404  1.0904 -1.8860 -0.3933
12106TIP3    H236241   2.236   4.408   5.268 -0.6541  0.3884  0.1720
12107TIP3   OH236242   5.474   4.327   5.453  0.3616  0.4942 -0.5129
12107TIP3    H136243   5.530   4.251   5.432  0.6589  1.2631 -2.6834
12107TIP3    H236244   5.471   4.329   5.548  1.8429 -1.1742 -0.3971
12108TIP3   OH236245   6.751   7.568   2.120 -0.3318  0.5954  0.3510
12108TIP3    H136246   6.835   7.581   2.076  0.0377  0.4007  0.9929
12108TIP3    H236247   6.760   7.485   2.167 -0.5190  1.0553  1.2310
12109TIP3   OH236248   1.584   3.215   6.524  0.0243 -0.2585 -0.1322
12109TIP3    H136249   1.603   3.277   6.595  0.1006  1.1266 -1.3385
12109TIP3    H236250   1.547   3.269   6.455 -2.3154 -1.9742 -0.2583
12110TIP3   OH236251   4.363   5.870   4.821 -0.3166  0.0669 -0.2202
12110TIP3    H136252   4.447   5.894   4.860 -0.2892  0.5069 -0.5429
12110TIP3    H236253   4.301   5.931   4.861 -0.3702  0.1837 -0.4794
12111TIP3   OH236254   4.416   4.621   5.867 -0.2528  0.7579 -0.4080
12111TIP3    H136255   4.442   4.691   5.806 -1.7483 -0.1385 -2.1242
12111TIP3    H236256   4.339   4.582   5.827 -1.1915  0.0272  2.0247
12112TIP3   OH236257   2.327   5.078   7.093 -0.7804 -0.1273 -0.4182
12112TIP3    H136258   2.256   5.081   7.028 -1.0975  0.7012 -0.0434
12112TIP3    H236259   2.355   5.169   7.101 -1.6381 -0.0180  1.5836
12113TIP3   OH236260   2.266   3.251   5.568  0.4288 -0.2037  0.6856
12113TIP3    H136261   2.261   3.347   5.572 -0.1661 -0.2593  1.4191
12113TIP3    H236262   2.195   3.221   5.625  0.1202 -1.0844 -0.1507
12114TIP3   OH236263   5.492   4.963   6.661  0.1315  0.0823  0.0538
12114TIP3    H136264   5.478   4.875   6.695 -0.3062 -0.8703 -2.4350
12114TIP3    H236265   5.405   4.993   6.635  0.7402 -0.2865 -2.5657
12115TIP3   OH236266   7.852   7.654   0.069  0.0453 -0.6994 -0.2202
12115TIP3    H136267   7.776   7.682   0.018 -0.5665 -1.5755  0.1919
12115TIP3    H236268   7.837   7.561   0.083  0.1834 -0.4639  1.5849
12116TIP3   OH236269   1.822   6.140   5.201  0.3078 -0.0051  0.2572
12116TIP3    H136270   1.774   6.222   5.211  0.3863  0.0821 -0.0561
12116TIP3    H236271   1.789   6.084   5.271 -1.4955 -0.5439 -0.9745
12117TIP3   OH236272   1.840   3.732   5.865 -0.1943 -0.1415  0.7311
12117TIP3    H136273   1.863   3.676   5.938  0.0437  1.1729  1.6834
12117TIP3    H236274   1.910   3.798   5.862 -0.1659 -0.2057 -0.7060
12118TIP3   OH236275   7.318   0.489   1.394 -0.3646  0.2767  0.7064
12118TIP3    H136276   7.365   0.559   1.439 -0.5935  0.5872  0.4629
12118TIP3    H236277   7.233   0.485   1.437  0.0901 -0.6716  1.5269
12119TIP3   OH236278   4.261   4.173   6.322 -0.3633  0.1328  0.1625
12119TIP3    H136279   4.308   4.119   6.257 -1.6829 -0.6314 -0.1816
12119TIP3    H236280   4.252   4.116   6.398 -0.7832  0.2486  0.2008
12120TIP3   OH236281   2.942   2.850   6.489  0.0657 -0.8325  0.0434
12120TIP3    H136282   2.870   2.786   6.482 -0.3735 -0.4203  0.7740
12120TIP3    H236283   2.900   2.934   6.470  0.6156 -0.7357 -0.7720
12121TIP3   OH236284   2.996   2.724   5.659 -0.4506 -0.1279  0.3767
12121TIP3    H136285   2.979   2.711   5.565  0.8823 -0.3305  0.1578
12121TIP3    H236286   3.089   2.745   5.664 -0.9116  1.8037  1.4817
12122TIP3   OH236287   0.017   1.180   0.819  0.0203  0.5658 -0.4900
12122TIP3    H136288   0.077   1.219   0.756  1.5139  0.0669  0.5988
12122TIP3    H236289   0.017   1.087   0.797  0.8574  0.3298  0.4916
12123TIP3   OH236290   2.672   2.898   5.557 -0.6229 -0.1796 -0.2752
12123TIP3    H136291   2.710   2.941   5.634 -1.4501 -1.1975  0.7181
12123TIP3    H236292   2.581   2.929   5.555 -0.5330  0.0434 -1.0000
12124TIP3   OH236293   0.209   1.652   0.970 -0.0768  0.8032  0.3758
12124TIP3    H136294   0.175   1.573   1.012  0.7317  1.6680  2.7783
12124TIP3    H236295   0.152   1.667   0.895 -3.0860  0.4980  2.5037
12125TIP3   OH236296   2.814   4.312   5.430  0.7444  0.7284 -0.4350
12125TIP3    H136297   2.744   4.289   5.491  0.8618  2.3500  0.3362
12125TIP3    H236298   2.886   4.254   5.453  0.8495  1.4559  1.0993
12126TIP3   OH236299   3.864   5.316   6.975  0.0180 -0.1598 -0.4154
12126TIP3    H136300   3.933   5.309   7.041 -0.3728 -1.3490 -0.1221
12126TIP3    H236301   3.784   5.327   7.026 -0.1308  0.1874 -0.7269
12127TIP3   OH236302   3.395   4.248   5.628 -0.4988  0.1637  0.1059
12127TIP3    H136303   3.456   4.229   5.557 -0.9191 -2.0856  0.3160
12127TIP3    H236304   3.317   4.283   5.583  0.2303  1.3207 -0.2966
12128TIP3   OH236305   0.686   1.361   2.080 -0.1893  0.1262 -0.4128
12128TIP3    H136306   0.646   1.333   2.163  1.2010  1.4748  0.7377
12128TIP3    H236307   0.780   1.358   2.097  0.1199 -0.0141 -2.1011
12129TIP3   OH236308   2.075   5.687   7.279  0.2338 -0.0635 -0.6375
12129TIP3    H136309   2.165   5.671   7.305  0.1684 -0.8648 -0.8745
12129TIP3    H236310   2.080   5.755   7.213  0.7282 -0.5855 -1.1391
12130TIP3   OH236311   7.646   8.075   0.128  0.5646 -0.4390 -0.1065
12130TIP3    H136312   7.605   8.062   0.042 -0.3008  1.2578  0.0366
12130TIP3    H236313   7.740   8.069   0.110  0.4572  1.4826 -1.4727
12131TIP3   OH236314   1.605   4.013   7.195 -0.1604  0.1990 -0.1463
12131TIP3    H136315   1.513   4.000   7.171 -0.3471 -0.4928  0.9020
12131TIP3    H236316   1.624   4.102   7.166 -0.8137 -0.0578 -1.4262
12132TIP3   OH236317   2.191   4.471   5.745 -0.5436 -0.6630  0.2343
12132TIP3    H136318   2.233   4.432   5.822 -0.9132  0.8533  1.2429
12132TIP3    H236319   2.240   4.437   5.671 -1.5501 -3.8792  0.9798
12133TIP3   OH236320   1.701   5.374   6.107  0.7009  0.1056 -0.0720
12133TIP3    H136321   1.772   5.313   6.089 -0.2206 -1.0943  0.3008
12133TIP3    H236322   1.638   5.361   6.036 -0.2410 -0.5308  0.8617
12134TIP3   OH236323   2.234   4.479   5.050  0.3426  0.5668 -0.2663
12134TIP3    H136324   2.244   4.385   5.038 -0.0747  0.3474  1.0123
12134TIP3    H236325   2.153   4.501   5.004  0.7869  0.4244 -1.1307
12135TIP3   OH236326   3.365   3.401   5.310 -0.0508 -0.4377 -0.1050
12135TIP3    H136327   3.282   3.448   5.304  1.4136  2.3481  0.9555
12135TIP3    H236328   3.378   3.388   5.404  1.0492 -0.2718 -0.2315
12136TIP3   OH236329   6.572   7.580   0.262 -0.0945 -0.1329  0.2730
12136TIP3    H136330   6.537   7.516   0.200  0.2674  0.8310 -0.9505
12136TIP3    H236331   6.593   7.529   0.340  0.1111 -1.4979 -0.6527
12137TIP3   OH236332   5.467   8.066   0.511 -0.4840 -1.1345 -0.2719
12137TIP3    H136333   5.495   8.130   0.446  0.1345 -0.0712  1.0199
12137TIP3    H236334   5.548   8.025   0.541 -0.7553 -1.5013 -0.0299
12138TIP3   OH236335   1.733   3.757   5.615  0.3905  0.1869 -0.8584
12138TIP3    H136336   1.783   3.746   5.695 -0.3759  1.4499 -0.1950
12138TIP3    H236337   1.681   3.836   5.629  1.5621  1.4516 -3.2649
12139TIP3   OH236338   8.452   5.203   1.174 -0.1426 -0.0556 -0.1776
12139TIP3    H136339   8.515   5.241   1.113 -0.0311 -3.2295 -2.1670
12139TIP3    H236340   8.443   5.268   1.244  1.8757  2.4229 -2.1543
12140TIP3   OH236341   1.294   3.527   6.660 -0.1442 -0.2230  0.3983
12140TIP3    H136342   1.307   3.442   6.704  0.6303 -0.1510  0.3161
12140TIP3    H236343   1.202   3.527   6.636  0.1989 -1.7288 -0.9998
12141TIP3   OH236344   5.656   5.362   6.527 -0.0992 -0.1026  0.4515
12141TIP3    H136345   5.607   5.369   6.445 -1.4767 -0.9369  1.2024
12141TIP3    H236346   5.738   5.410   6.509 -0.9533  0.8787 -0.9616
12142TIP3   OH236347   2.737   2.053   5.679  0.4516 -0.3006 -0.2494
12142TIP3    H136348   2.823   2.012   5.686  2.1032  3.1434  0.4163
12142TIP3    H236349   2.710   2.068   5.769  0.0614  0.4541 -0.4877
12143TIP3   OH236350   5.137   7.976   1.731  0.0674  0.0672 -0.2772
12143TIP3    H136351   5.130   7.891   1.776 -2.4578 -0.6990 -2.0048
12143TIP3    H236352   5.197   8.026   1.785  0.6282 -2.3881  1.4965
12144TIP3   OH236353   0.350   4.732   5.264  0.5263 -0.3149  0.1580
12144TIP3    H136354   0.372   4.724   5.357  1.5825  0.0365 -0.0540
12144TIP3    H236355   0.330   4.825   5.252 -0.3790 -0.5036  0.1981
12145TIP3   OH236356   3.190   4.188   6.592  0.6967  0.1970  0.5135
12145TIP3    H136357   3.151   4.171   6.678  0.3842 -1.0387  0.1292
12145TIP3    H236358   3.123   4.237   6.545  1.0146  1.2148  1.0901
12146TIP3   OH236359   1.988   0.179   0.756  0.0029 -0.0236  0.0808
12146TIP3    H136360   2.018   0.093   0.725 -0.4156 -0.0774 -0.1787
12146TIP3    H236361   1.893   0.173   0.754 -0.0606  1.0051 -1.4998
12147TIP3   OH236362   3.264   2.405   7.211  0.8682  0.1039  0.4990
12147TIP3    H136363   3.236   2.441   7.128  0.3035 -1.7529 -0.1440
12147TIP3    H236364   3.214   2.453   7.277 -1.0002 -0.5361 -0.4272
12148TIP3   OH236365   0.733   4.133   6.634  0.5805  0.0041  0.2641
12148TIP3    H136366   0.811   4.182   6.661  1.0982  0.4157 -1.8866
12148TIP3    H236367   0.762   4.078   6.561 -0.9213 -0.5452  0.0468
12149TIP3   OH236368   3.180   4.176   6.241 -0.1009  0.2533 -0.4280
12149TIP3    H136369   3.257   4.233   6.233  0.9557 -1.2187 -1.0773
12149TIP3    H236370   3.217   4.088   6.248 -1.7553 -0.6376 -2.3412
12150TIP3   OH236371   0.735   4.125   5.694  0.3031 -0.2460  0.0539
12150TIP3    H136372   0.694   4.055   5.643  1.4177 -0.0769 -1.0994
12150TIP3    H236373   0.713   4.105   5.784  1.8695 -2.9417 -0.1258
12151TIP3   OH236374   0.796   1.879   6.353 -0.3745 -0.4550  0.3358
12151TIP3    H136375   0.828   1.968   6.367 -0.1506 -0.4847  0.0008
12151TIP3    H236376   0.702   1.884   6.373 -0.4098 -0.0901  0.0750
12152TIP3   OH236377   4.634   8.172   0.206 -0.4575  0.2648 -0.1371
12152TIP3    H136378   4.573   8.165   0.133  0.3613  1.4075 -0.9501
12152TIP3    H236379   4.590   8.230   0.268 -0.4808  0.5899 -0.4506
12153TIP3   OH236380   2.515   1.981   4.309  0.5317  0.0403 -0.0835
12153TIP3    H136381   2.587   1.991   4.245 -0.2582 -0.5738 -1.0771
12153TIP3    H236382   2.450   2.045   4.281  0.5993  0.4506  0.6973
12154TIP3   OH236383   7.147   1.046   0.556 -0.0760  0.5823 -0.4605
12154TIP3    H136384   7.198   1.107   0.610 -0.0100 -0.1218  0.2701
12154TIP3    H236385   7.081   1.102   0.515  0.3422  1.2527 -0.2437
12155TIP3   OH236386   2.377   1.430   7.125 -0.3481 -0.0942 -0.1804
12155TIP3    H136387   2.318   1.493   7.166 -0.7083 -0.1870 -0.5503
12155TIP3    H236388   2.324   1.389   7.057  0.8834  1.6805 -2.2981
12156TIP3   OH236389   3.699   4.196   6.068  0.6790 -0.2457  0.1696
12156TIP3    H136390   3.741   4.258   6.010  0.2914 -0.3724 -0.2467
12156TIP3    H236391   3.702   4.113   6.021  1.0092 -0.5052  0.6340
12157TIP3   OH236392   5.232   7.451   1.357  0.4975  0.4442 -0.1860
12157TIP3    H136393   5.238   7.538   1.395  0.5141  0.0697  0.6784
12157TIP3    H236394   5.296   7.399   1.405 -1.1543 -0.6161  0.9260
12158TIP3   OH236395   0.535   0.142   1.253 -0.2011  0.1382  0.5426
12158TIP3    H136396   0.529   0.161   1.159 -0.5499 -2.4841 -0.0074
12158TIP3    H236397   0.624   0.109   1.265  0.0887  1.1535  1.3019
12159TIP3   OH236398   2.074   4.361   6.965  0.0491 -0.3167 -0.2130
12159TIP3    H136399   2.017   4.322   7.030 -0.2191  0.6054  0.1122
12159TIP3    H236400   2.163   4.340   6.995 -0.1270 -2.7610 -1.3538
12160TIP3   OH236401   4.187   2.292   7.091 -0.0115  0.4339 -0.1310
12160TIP3    H136402   4.250   2.289   7.020  0.2179  0.0300  0.0873
12160TIP3    H236403   4.228   2.347   7.158  0.7238 -0.9433  0.5873
12161TIP3   OH236404   1.742   2.079   7.221  0.0831  0.2166  0.0426
12161TIP3    H136405   1.648   2.096   7.214  0.2389  1.9230  1.7961
12161TIP3    H236406   1.783   2.165   7.210  1.4593 -0.5277 -0.8025
12162TIP3   OH236407   3.094   1.495   6.493  0.1354 -0.4531 -0.5312
12162TIP3    H136408   3.070   1.539   6.574  0.5752  0.4311 -0.8690
12162TIP3    H236409   3.157   1.428   6.520 -0.2770 -0.6493 -0.0553
12163TIP3   OH236410   1.109   4.287   5.457  0.1034  0.0956 -0.1500
12163TIP3    H136411   1.179   4.345   5.428 -0.0323  1.6126  2.3987
12163TIP3    H236412   1.146   4.199   5.451  1.5884  0.7435 -0.5539
12164TIP3   OH236413   6.897   7.893   1.224  0.4479  0.2123  0.2258
12164TIP3    H136414   6.879   7.911   1.317 -1.1725  1.1525 -0.2399
12164TIP3    H236415   6.988   7.918   1.212  1.1262 -1.3040  1.8948
12165TIP3   OH236416   1.159   3.052   7.275 -0.1397 -0.0729  0.1347
12165TIP3    H136417   1.227   2.994   7.240  0.5003  1.3438 -1.0226
12165TIP3    H236418   1.094   3.059   7.205 -0.0748  0.8225  0.1527
12166TIP3   OH236419   1.444   4.611   5.643 -0.3275  0.2456 -0.2898
12166TIP3    H136420   1.427   4.611   5.549 -0.6368  0.9591 -0.2405
12166TIP3    H236421   1.538   4.594   5.650  0.0490  1.9999 -0.8130
12167TIP3   OH236422   2.696   5.478   6.383  0.8958  0.0497  0.1540
12167TIP3    H136423   2.787   5.495   6.360  1.2128 -1.3546  0.3057
12167TIP3    H236424   2.668   5.410   6.321 -0.3525  1.1696 -0.5305
12168TIP3   OH236425   2.698   5.153   4.996 -0.0998 -0.3171  0.1683
12168TIP3    H136426   2.663   5.231   5.039 -1.1131  0.0452 -1.2639
12168TIP3    H236427   2.673   5.081   5.055 -1.3554  0.1762  0.2700
12169TIP3   OH236428   1.076   4.835   5.544  0.2622 -0.8150  0.6104
12169TIP3    H136429   1.080   4.777   5.468 -3.4457 -0.0193 -0.3002
12169TIP3    H236430   1.070   4.923   5.507 -3.4681 -0.5419  1.6917
12170TIP3   OH236431   1.600   5.506   6.708  0.4423 -0.4527  0.1562
12170TIP3    H136432   1.513   5.511   6.746  0.2372  2.2695 -0.5541
12170TIP3    H236433   1.660   5.508   6.783 -0.0543 -0.3897  0.5494
12171TIP3   OH236434   5.362   6.360   0.476  0.5144 -0.1017  0.4350
12171TIP3    H136435   5.312   6.359   0.557 -0.8411  0.4870 -0.3676
12171TIP3    H236436   5.314   6.421   0.419  1.2397 -0.7694 -0.9186
12172TIP3   OH236437   6.450   7.644   0.584 -0.2975 -0.1662 -0.2464
12172TIP3    H136438   6.457   7.650   0.679 -1.3245 -0.9292 -0.1058
12172TIP3    H236439   6.507   7.713   0.551 -0.6854  0.7376  0.9383
12173TIP3   OH236440   3.081   3.436   5.292  0.0585 -0.0323 -0.4886
12173TIP3    H136441   3.060   3.528   5.308  0.2727  0.0125 -0.4604
12173TIP3    H236442   3.011   3.388   5.336 -0.1024  0.1196 -0.5787
12174TIP3   OH236443   0.128   0.714   1.262 -0.2603  0.1120  0.1941
12174TIP3    H136444   0.184   0.731   1.187  0.1789 -0.7341  0.3202
12174TIP3    H236445   0.142   0.789   1.320  1.0013 -0.2498  0.3772
12175TIP3   OH236446   4.451   4.888   7.024  0.0269  0.4368  0.0912
12175TIP3    H136447   4.532   4.938   7.037  0.8295 -0.6039 -0.8117
12175TIP3    H236448   4.410   4.929   6.948 -0.3920  1.0923  0.6718
12176TIP3   OH236449   2.086   4.171   6.548 -0.0803  0.2262 -0.1216
12176TIP3    H136450   1.992   4.155   6.561 -0.0918  1.3420  1.2706
12176TIP3    H236451   2.122   4.085   6.528 -1.6533  0.0416 -2.3533
12177TIP3   OH236452   7.892   0.891   0.768 -0.7932 -0.4893 -0.7847
12177TIP3    H136453   7.872   0.815   0.822  0.4659 -0.0229  0.3772
12177TIP3    H236454   7.826   0.956   0.791 -0.0058 -0.1428  0.5228
12178TIP3   OH236455   1.612   3.115   6.105 -0.2430 -0.2113 -0.0922
12178TIP3    H136456   1.660   3.034   6.121  0.3392  0.0130 -0.6925
12178TIP3    H236457   1.601   3.118   6.010 -2.0010 -0.5738  0.0917
12179TIP3   OH236458   8.404   3.751   5.937 -0.2193  0.2354  0.4982
12179TIP3    H136459   8.427   3.665   5.901 -0.2909  0.1173  0.7344
12179TIP3    H236460   8.388   3.735   6.030 -2.1905  0.1478  0.1537
12180TIP3   OH236461   3.687   3.234   5.606  0.0175 -0.1426 -0.1121
12180TIP3    H136462   3.692   3.250   5.511 -2.4200  0.3592 -0.1881
12180TIP3    H236463   3.628   3.160   5.614  0.7829 -0.6419  1.0090
12181TIP3   OH236464   1.371   5.882   6.288 -0.2624 -0.1787  0.3058
12181TIP3    H136465   1.298   5.933   6.325  0.3931  0.2039  1.0851
12181TIP3    H236466   1.366   5.899   6.193  0.2213  1.7146  0.6055
12182TIP3   OH236467   7.902   0.100   0.598  0.1208  0.5922 -0.4750
12182TIP3    H136468   7.884   0.194   0.610  1.2787  0.9396 -1.3845
12182TIP3    H236469   7.950   0.095   0.516  0.7548 -0.7339 -0.0378
12183TIP3   OH236470   3.153   4.393   5.522 -0.2822  0.2102  0.4582
12183TIP3    H136471   3.225   4.452   5.501 -0.2661  0.1599  0.3722
12183TIP3    H236472   3.074   4.444   5.501 -0.2992  0.6953  1.6630
12184TIP3   OH236473   0.802   3.423   6.935 -0.0734  0.2105 -0.1234
12184TIP3    H136474   0.706   3.424   6.940  0.0185  0.4979  2.2710
12184TIP3    H236475   0.830   3.441   7.025  2.2317  0.6519 -0.9110
12185TIP3   OH236476   2.705   6.888   5.750 -0.3575  0.3939  0.6353
12185TIP3    H136477   2.753   6.876   5.832  1.6766  2.2446 -0.2122
12185TIP3    H236478   2.774   6.908   5.686 -2.0093 -0.0268 -1.2999
12186TIP3   OH236479   7.017   0.533   2.268 -0.7024  0.4308  0.0818
12186TIP3    H136480   6.961   0.470   2.222 -0.7871  0.4901  0.1032
12186TIP3    H236481   7.049   0.485   2.345  1.0696 -0.3269 -1.1043
12187TIP3   OH236482   2.868   2.980   7.233  0.4272 -0.0314 -0.1508
12187TIP3    H136483   2.919   2.969   7.152 -0.7154  0.9984 -1.0366
12187TIP3    H236484   2.843   3.072   7.233  0.2746 -0.0695  1.3036
12188TIP3   OH236485   2.362   5.769   6.343 -0.1590 -0.3238 -0.4921
12188TIP3    H136486   2.443   5.748   6.389 -1.1116 -1.1540  0.8241
12188TIP3    H236487   2.371   5.862   6.321  0.8117 -0.2147  0.3089
12189TIP3   OH236488   1.277   3.907   5.750 -0.7293  0.1378 -0.1617
12189TIP3    H136489   1.231   3.825   5.732 -0.4406 -0.0651  0.0300
12189TIP3    H236490   1.286   3.909   5.845 -1.2295  0.6587 -0.1186
12190TIP3   OH236491   4.457   7.848   0.671 -0.2796 -0.5192  0.0475
12190TIP3    H136492   4.521   7.778   0.657 -0.9097 -1.1960  0.4665
12190TIP3    H236493   4.373   7.806   0.654 -0.7129 -0.0546  1.0109
12191TIP3   OH236494   2.321   2.823   4.749  0.2210  0.3778 -0.3172
12191TIP3    H136495   2.279   2.847   4.832 -0.0644  0.7123 -0.5562
12191TIP3    H236496   2.412   2.850   4.760 -0.0593  1.4269 -0.5171
12192TIP3   OH236497   4.488   2.420   6.086 -0.0913 -0.3883 -0.3990
12192TIP3    H136498   4.459   2.482   6.153 -2.5718 -0.3073 -1.4890
12192TIP3    H236499   4.532   2.474   6.020  2.5569 -0.4988  1.2214
12193TIP3   OH236500   1.887   3.586   6.091  0.5722  0.0361  0.3128
12193TIP3    H136501   1.847   3.632   6.165  0.7316  0.9255 -0.1355
12193TIP3    H236502   1.981   3.588   6.109  0.6948  1.1102 -0.3674
12194TIP3   OH236503   2.607   3.810   6.471 -0.1187 -0.3631  0.1101
12194TIP3    H136504   2.609   3.845   6.382  0.2082 -1.8317 -0.4745
12194TIP3    H236505   2.690   3.764   6.481 -0.5350 -0.9593  0.8650
12195TIP3   OH236506   3.184   6.095   0.269 -0.1519 -0.1043  0.4729
12195TIP3    H136507   3.099   6.129   0.241 -0.1584 -0.5689 -0.0996
12195TIP3    H236508   3.246   6.128   0.204  0.2405  0.9128  1.3525
12196TIP3   OH236509   4.791   5.091   0.039 -0.4083  0.1423  0.3864
12196TIP3    H136510   4.724   5.133  -0.014 -0.4666  0.8666  1.0347
12196TIP3    H236511   4.836   5.163   0.084 -1.0825 -0.5282  2.1870
12197TIP3   OH236512   1.451   4.339   6.315 -0.2507  0.6449  0.9246
12197TIP3    H136513   1.433   4.427   6.282  1.2826  0.8603  0.6360
12197TIP3    H236514   1.397   4.282   6.260  1.0434  1.1481 -0.8956
12198TIP3   OH236515   1.400   2.418   5.349  0.3403 -0.0653 -0.3636
12198TIP3    H136516   1.467   2.470   5.305  2.3477  0.7616  3.4652
12198TIP3    H236517   1.428   2.327   5.335 -0.3289  0.0545 -2.6743
12199TIP3   OH236518   2.497   6.489   7.245 -0.3986 -0.1439 -0.7134
12199TIP3    H136519   2.574   6.498   7.188 -1.1346 -0.3009 -1.7469
12199TIP3    H236520   2.533   6.467   7.330  0.8638  2.3400 -0.5630
12200TIP3   OH236521   2.014   3.424   7.271 -0.2630  1.2256 -0.7150
12200TIP3    H136522   2.096   3.458   7.235  0.0121  2.1608  0.7474
12200TIP3    H236523   1.946   3.462   7.215  0.2888  0.3900 -1.9756
12201TIP3   OH236524   2.566   4.472   5.651 -0.1990 -0.2568 -0.3010
12201TIP3    H136525   2.574   4.377   5.649  0.7482 -0.1556 -2.2071
12201TIP3    H236526   2.619   4.499   5.727 -0.8699 -1.2696  0.5364
12202TIP3   OH236527   1.961   3.087   6.319  0.2678 -0.1273  0.0034
12202TIP3    H136528   1.934   3.105   6.409  2.0436  2.1215  0.1364
12202TIP3    H236529   1.925   3.160   6.268  2.6384  0.8128 -0.4169
12203TIP3   OH236530   0.972   4.706   6.478  0.1037 -0.3419 -0.5460
12203TIP3    H136531   0.997   4.617   6.501  0.3180 -0.5824 -1.6588
12203TIP3    H236532   0.918   4.736   6.551  1.1373 -0.9045  0.4586
12204TIP3   OH236533   5.152   5.591   0.660 -0.4906 -0.1398  0.6663
12204TIP3    H136534   5.236   5.638   0.659 -0.4514 -0.1834  1.4731
12204TIP3    H236535   5.175   5.501   0.640 -0.2028 -0.3629  1.9726
12205TIP3   OH236536   3.082   6.044   6.576  0.0141 -0.0511  0.6761
12205TIP3    H136537   3.083   6.140   6.579  0.3118 -0.0063 -0.5437
12205TIP3    H236538   3.107   6.017   6.664  2.1628  1.0116  0.4204
12206TIP3   OH236539   3.558   5.217   4.784 -0.5364  0.3219  0.3468
12206TIP3    H136540   3.549   5.128   4.751  1.4530  0.7318 -1.3160
12206TIP3    H236541   3.547   5.208   4.879 -0.1767 -1.7110  0.2140
12207TIP3   OH236542   1.172   2.396   0.207 -0.3371 -0.4620  0.3346
12207TIP3    H136543   1.119   2.411   0.286  0.4704 -1.3410  1.0573
12207TIP3    H236544   1.109   2.365   0.142 -0.7694 -1.2258  1.0971
12208TIP3   OH236545   2.515   6.091   5.203  0.3805 -0.0671 -0.2666
12208TIP3    H136546   2.478   6.094   5.292  1.0078  1.1773 -0.0317
12208TIP3    H236547   2.582   6.160   5.203 -1.4617  1.8302 -2.5191
12209TIP3   OH236548   3.699   3.178   6.467 -0.3621 -0.1688  0.1415
12209TIP3    H136549   3.649   3.165   6.386  1.1770  1.2001 -1.0832
12209TIP3    H236550   3.751   3.257   6.450  1.8141 -1.2414  1.5394
12210TIP3   OH236551   5.062   2.622   4.555  0.3676 -0.2953  0.1177
12210TIP3    H136552   5.080   2.586   4.641 -1.3320  0.2083  0.7016
12210TIP3    H236553   5.129   2.583   4.498  1.5202 -0.6042  1.6496
12211TIP3   OH236554   8.530   0.762   2.138 -0.0464 -0.3074  0.2224
12211TIP3    H136555   8.445   0.749   2.180  0.4705  0.1926  1.4470
12211TIP3    H236556   8.509   0.782   2.046 -1.3399  1.5855  0.8971
12212TIP3   OH236557   1.645   2.791   6.721  0.2872 -0.4326  0.2166
12212TIP3    H136558   1.706   2.776   6.648 -1.1063  1.9873 -1.5140
12212TIP3    H236559   1.701   2.798   6.798  2.2553  1.5772 -1.3128
12213TIP3   OH236560   1.668   4.455   4.996 -0.1844  0.4640 -0.0521
12213TIP3    H136561   1.735   4.508   5.039 -0.0068 -0.0389  0.2817
12213TIP3    H236562   1.714   4.379   4.962 -0.5223  0.2986 -0.1462
12214TIP3   OH236563   2.935   4.379   5.772 -0.6466  0.1882 -0.1789
12214TIP3    H136564   2.863   4.439   5.751  0.0991  1.2302  0.1592
12214TIP3    H236565   2.993   4.384   5.695 -1.2890 -1.1979 -0.7590
12215TIP3   OH236566   4.123   3.898   5.454  0.2282  0.1820 -0.2398
12215TIP3    H136567   4.098   3.898   5.362 -0.6796  0.5185 -0.0005
12215TIP3    H236568   4.123   3.991   5.479 -0.4123  0.0314  0.3276
12216TIP3   OH236569   0.229  -0.002   2.219 -0.4117 -0.1163 -0.1183
12216TIP3    H136570   0.157   0.010   2.281  1.1310  0.0594  1.6947
12216TIP3    H236571   0.306   0.027   2.268  0.8936 -0.3947 -2.0008
12217TIP3   OH236572   3.663   4.155   6.716  0.1551 -0.7964  0.2912
12217TIP3    H136573   3.569   4.147   6.731 -0.2339  2.5311 -0.1548
12217TIP3    H236574   3.679   4.105   6.636 -1.3584 -0.7809 -0.0276
12218TIP3   OH236575   8.795   0.665   0.790  0.5563 -0.2670  0.0955
12218TIP3    H136576   8.751   0.684   0.873 -0.4335  1.7866 -0.8824
12218TIP3    H236577   8.786   0.745   0.738  0.2138 -1.8866 -2.4296
12219TIP3   OH236578   2.098   3.041   5.955  0.1513 -0.1519  0.4743
12219TIP3    H136579   2.056   3.017   6.038  1.6527  2.0885  1.9326
12219TIP3    H236580   2.189   3.014   5.966  0.5189  0.8261 -0.1854
12220TIP3   OH236581   3.955   5.420   6.201 -0.7352  0.0571  0.4121
12220TIP3    H136582   3.907   5.499   6.175  1.1479  0.8136 -0.8455
12220TIP3    H236583   3.936   5.356   6.132 -1.5323 -0.3156  0.9644
12221TIP3   OH236584   4.158   4.195   4.700  0.0178  0.2916  0.0818
12221TIP3    H136585   4.095   4.241   4.644 -1.0764 -1.1425  0.0835
12221TIP3    H236586   4.164   4.107   4.661  0.2122 -0.3205  1.4567
12222TIP3   OH236587   3.524   4.206   5.394  0.2800  0.0672  0.1384
12222TIP3    H136588   3.604   4.155   5.386  0.4002  0.6588 -2.8930
12222TIP3    H236589   3.543   4.288   5.349 -1.5351  0.8364  0.7280
12223TIP3   OH236590   0.912   3.477   7.181 -0.5958 -0.0502 -0.4662
12223TIP3    H136591   0.982   3.437   7.233 -0.1433  1.8179  0.4212
12223TIP3    H236592   0.836   3.476   7.239 -0.7307 -0.1489 -0.6465
12224TIP3   OH236593   7.868   1.183   6.704  0.6975 -0.4210  0.0557
12224TIP3    H136594   7.800   1.116   6.700  1.1233 -0.9226  1.0259
12224TIP3    H236595   7.822   1.262   6.731  0.2018 -0.3202 -1.0423
12225TIP3   OH236596   3.647   3.806   7.100  0.0079  0.2376  0.1674
12225TIP3    H136597   3.658   3.804   7.005 -0.0477  1.1474  0.1417
12225TIP3    H236598   3.699   3.732   7.132  1.5076  1.0192 -0.4221
12226TIP3   OH236599   8.572   0.666   0.528  1.0051 -0.1820 -0.1428
12226TIP3    H136600   8.499   0.708   0.573  0.9349  0.7178 -1.0615
12226TIP3    H236601   8.650   0.701   0.572  0.9457  0.8667 -0.8487
12227TIP3   OH236602   7.314   0.688   2.407  0.3176  0.4754 -0.3602
12227TIP3    H136603   7.307   0.645   2.321 -0.2889 -0.1294 -0.0198
12227TIP3    H236604   7.366   0.627   2.460 -2.1690 -0.8062  0.7037
12228TIP3   OH236605   5.152   6.268   0.132 -0.2990  0.1967 -0.4160
12228TIP3    H136606   5.171   6.324   0.208  1.7632 -0.8906 -0.1120
12228TIP3    H236607   5.134   6.182   0.170 -1.9170  0.2612 -0.9989
12229TIP3   OH236608   8.011   0.896   0.126  0.2406 -0.0477  0.5853
12229TIP3    H136609   8.076   0.944   0.075 -0.1252 -1.4441 -1.2494
12229TIP3    H236610   8.061   0.826   0.168 -0.1683 -1.7541 -1.6464
12230TIP3   OH236611   6.845   7.971   0.515  0.7361 -0.2157  0.2071
12230TIP3    H136612   6.934   7.960   0.547  0.1231  0.2213  2.1205
12230TIP3    H236613   6.855   7.991   0.422  2.5661 -1.3179  0.1521
12231TIP3   OH236614   3.099   4.058   5.747  0.3468 -0.3082 -0.2375
12231TIP3    H136615   3.037   3.992   5.716 -0.8398  1.2361 -1.2824
12231TIP3    H236616   3.048   4.112   5.807  0.9325  0.3944 -0.3619
12232TIP3   OH236617   0.518   2.995   6.465  0.1800  0.2638  0.0560
12232TIP3    H136618   0.533   3.082   6.500  4.0091 -0.8324  1.4017
12232TIP3    H236619   0.493   2.942   6.541  1.2487 -0.5177 -0.1183
12233TIP3   OH236620   7.538   0.124   0.246  0.5639  0.1429 -0.7088
12233TIP3    H136621   7.530   0.042   0.295 -0.7535 -0.6649 -2.2274
12233TIP3    H236622   7.447   0.149   0.227  0.9441  2.0491 -0.1358
12234TIP3   OH236623   7.408   6.940   0.614  0.7579 -0.1811  0.5460
12234TIP3    H136624   7.406   6.908   0.704  1.8108 -0.3854  0.5024
12234TIP3    H236625   7.439   7.030   0.621 -0.3645  0.2122  0.4955
12235TIP3   OH236626   4.035   5.563   5.601 -0.4526 -0.0948  0.1735
12235TIP3    H136627   4.115   5.612   5.619 -1.2908  1.1039  0.7617
12235TIP3    H236628   4.059   5.502   5.532  0.4967  1.5205 -0.9742
12236TIP3   OH236629   1.242   4.005   7.104 -0.0119 -0.3071  0.1731
12236TIP3    H136630   1.316   3.999   7.042  0.5103 -0.2326  0.7803
12236TIP3    H236631   1.173   4.049   7.054  0.3236 -0.4499 -0.4322
12237TIP3   OH236632   0.819   3.959   7.195 -0.5201  0.4162  0.1226
12237TIP3    H136633   0.880   3.897   7.235 -0.1448  0.6867 -0.0215
12237TIP3    H236634   0.786   3.914   7.117  1.3033  1.1579 -1.1216
12238TIP3   OH236635   2.682   5.238   5.999 -0.1134 -0.5081 -0.5461
12238TIP3    H136636   2.628   5.288   6.060 -0.7049 -1.7316 -0.0544
12238TIP3    H236637   2.745   5.192   6.054  0.6243 -0.0884 -1.0214
12239TIP3   OH236638   3.368   3.420   6.661 -0.0097  0.3520 -0.4220
12239TIP3    H136639   3.347   3.327   6.647  0.2426  0.1159  0.7743
12239TIP3    H236640   3.312   3.466   6.598 -2.0866 -0.4564  0.7668
12240TIP3   OH236641   8.689   1.130   0.456 -0.1699  0.1357 -0.5654
12240TIP3    H136642   8.698   1.109   0.363  2.0637 -1.7646  0.0380
12240TIP3    H236643   8.768   1.181   0.476 -0.2327 -0.1822  0.4941
12241TIP3   OH236644   6.084   5.891   5.821  0.2445  0.0659  0.3297
12241TIP3    H136645   6.003   5.858   5.859  0.4342  0.2877  0.9279
12241TIP3    H236646   6.118   5.818   5.769 -0.3732  0.0010  0.0186
12242TIP3   OH236647   4.793   4.738   6.189 -0.1492 -0.1041 -0.3936
12242TIP3    H136648   4.737   4.757   6.263  1.0288 -0.8014  0.6949
12242TIP3    H236649   4.766   4.651   6.159  0.4411 -0.5048  0.2254
12243TIP3   OH236650   3.888   2.673   4.298 -0.1629 -1.0366 -0.1822
12243TIP3    H136651   3.884   2.619   4.376  1.8600 -0.5163  0.3066
12243TIP3    H236652   3.958   2.736   4.316 -0.0880 -0.5213 -2.1623
12244TIP3   OH236653   5.490   4.156   7.046  0.1971 -0.1323  0.3403
12244TIP3    H136654   5.425   4.192   6.985  1.1090  0.1016 -0.4948
12244TIP3    H236655   5.574   4.182   7.010  0.7333  0.7926  2.1877
12245TIP3   OH236656   7.536   8.348   0.403  0.7227  0.1240  0.8843
12245TIP3    H136657   7.466   8.349   0.338  0.4791 -1.2423  1.1040
12245TIP3    H236658   7.611   8.388   0.358  0.0627  0.7721  0.3528
12246TIP3   OH236659   3.876   5.857   4.747  0.5309 -0.9944  0.3389
12246TIP3    H136660   3.803   5.809   4.708  0.4348  0.9067 -1.8857
12246TIP3    H236661   3.844   5.947   4.756  2.5578 -0.1653 -0.5847
12247TIP3   OH236662   4.563   2.279   5.750  0.1931  0.1251 -0.2337
12247TIP3    H136663   4.523   2.304   5.667 -0.3756  0.4538  0.1361
12247TIP3    H236664   4.501   2.217   5.788  0.8818 -0.7262 -0.4613
12248TIP3   OH236665   3.161   4.653   5.712 -0.1666  0.0860 -0.3155
12248TIP3    H136666   3.112   4.599   5.775  0.0961 -1.2605 -1.2296
12248TIP3    H236667   3.110   4.646   5.631 -0.4799  1.7691 -0.2664
12249TIP3   OH236668   3.655   3.877   5.488 -0.1798 -0.3175 -0.2898
12249TIP3    H136669   3.720   3.935   5.526  0.4045  0.4843 -2.4412
12249TIP3    H236670   3.625   3.822   5.561  0.1528  1.8433  1.4972
12250TIP3   OH236671   6.106   7.501   0.217 -0.4042 -0.1033 -0.0444
12250TIP3    H136672   6.134   7.411   0.236 -0.6894  0.0650  1.1820
12250TIP3    H236673   6.133   7.551   0.293 -0.9065  0.7227 -0.4087
12251TIP3   OH236674   4.936   3.897   7.254 -0.3614  0.5270 -0.0393
12251TIP3    H136675   4.955   3.861   7.167  1.2233 -0.1664  0.5727
12251TIP3    H236676   4.938   3.992   7.241  0.6197  0.4411 -0.6354
12252TIP3   OH236677   3.370   3.909   5.458  0.2521 -0.1608  0.1864
12252TIP3    H136678   3.450   3.871   5.423 -0.1254 -0.4764 -0.3292
12252TIP3    H236679   3.400   3.966   5.530  0.9044 -0.5532  0.2265
12253TIP3   OH236680   2.936   4.936   4.053 -0.2935  0.4578  0.3602
12253TIP3    H136681   3.004   4.879   4.015 -0.1181  1.8245 -1.4512
12253TIP3    H236682   2.879   4.956   3.979 -1.3810  1.1711  1.3929
12254TIP3   OH236683   4.601   2.832   6.787  0.7131  0.1396  0.2399
12254TIP3    H136684   4.566   2.850   6.874 -1.1865 -1.9763 -0.0402
12254TIP3    H236685   4.593   2.915   6.740  2.6363  1.5768  2.3110
12255TIP3   OH236686   2.446   3.664   7.067  1.1866 -0.5339 -0.4514
12255TIP3    H136687   2.457   3.629   6.979 -0.9518 -0.4328 -0.7851
12255TIP3    H236688   2.533   3.692   7.093  2.3763 -3.2146 -1.3922
12256TIP3   OH236689   2.439   4.869   5.633  0.2209  0.1184 -0.4068
12256TIP3    H136690   2.413   4.784   5.671 -0.6297  0.3764 -0.3975
12256TIP3    H236691   2.500   4.906   5.696  0.3757 -0.3655 -0.2719
12257TIP3   OH236692   6.466   1.676   6.416  0.3055 -0.4569 -0.0741
12257TIP3    H136693   6.454   1.689   6.510  0.4026  1.1660 -0.2752
12257TIP3    H236694   6.469   1.581   6.405 -0.9507 -0.6816  1.4068
12258TIP3   OH236695   1.066   5.257   5.796 -0.0478 -0.2039  0.2158
12258TIP3    H136696   1.108   5.343   5.788 -0.4888 -0.0912 -1.0356
12258TIP3    H236697   1.137   5.194   5.790 -0.1198 -0.0478 -2.7997
12259TIP3   OH236698   2.576   2.739   6.964 -0.2373  0.9000  0.4884
12259TIP3    H136699   2.533   2.817   6.929  1.0822  0.8425 -1.2876
12259TIP3    H236700   2.538   2.667   6.914  0.8384  0.7091 -0.0624
12260TIP3   OH236701   6.667   0.300   0.334  0.1763 -0.2860 -0.1313
12260TIP3    H136702   6.588   0.249   0.318 -0.4087  1.5139 -3.4324
12260TIP3    H236703   6.739   0.243   0.308 -0.0125 -1.6880  2.2619
12261TIP3   OH236704   0.542   0.262   0.283 -0.1222  0.4485  0.0882
12261TIP3    H136705   0.488   0.305   0.350 -0.4668 -0.8152  0.6431
12261TIP3    H236706   0.478   0.230   0.219  0.0051 -0.4905  0.4206
12262TIP3   OH236707   5.732   8.142   0.258 -0.4592  0.8866 -0.4882
12262TIP3    H136708   5.771   8.162   0.173  0.7773 -0.8238 -0.3481
12262TIP3    H236709   5.806   8.144   0.319 -0.5758 -2.2733 -0.1914
12263TIP3   OH236710   4.258   6.665   0.963 -0.4447 -0.0115 -0.6060
12263TIP3    H136711   4.263   6.571   0.983 -2.5027  0.0727  0.3905
12263TIP3    H236712   4.190   6.672   0.897 -0.0948  0.7690 -0.8841
12264TIP3   OH236713   3.077   4.406   5.172 -0.1100  0.1041  0.1179
12264TIP3    H136714   3.099   4.363   5.090 -0.0066 -1.3359  0.8796
12264TIP3    H236715   3.131   4.363   5.238 -0.2397  1.1928  0.9627
12265TIP3   OH236716   2.615   2.141   6.401 -0.1555 -0.7211 -0.1887
12265TIP3    H136717   2.581   2.200   6.333  2.5975  1.4017  0.1980
12265TIP3    H236718   2.683   2.090   6.356 -0.4277 -1.4844  0.2541
12266TIP3   OH236719   2.768   6.394   6.642  0.3255  0.4700 -0.2044
12266TIP3    H136720   2.809   6.358   6.564  1.1289  0.9113  0.0162
12266TIP3    H236721   2.711   6.464   6.610 -1.0692 -0.8106 -0.6176
12267TIP3   OH236722   0.163   2.218   0.623  0.6146  0.0197  0.5690
12267TIP3    H136723   0.223   2.291   0.635  1.3213 -0.6382  1.1494
12267TIP3    H236724   0.132   2.225   0.533  2.3350 -0.2099 -0.0446
12268TIP3   OH236725   2.010   4.641   5.917 -0.6761 -0.0246 -0.1142
12268TIP3    H136726   2.073   4.702   5.879 -1.1534  0.4317 -0.1941
12268TIP3    H236727   2.063   4.572   5.955 -0.1240  0.4188 -0.0683
12269TIP3   OH236728   2.644   4.522   6.670  0.4584 -0.2373  0.3389
12269TIP3    H136729   2.556   4.492   6.650  0.7893 -1.3221  0.4889
12269TIP3    H236730   2.693   4.508   6.589 -0.1416  2.9109 -0.6379
12270TIP3   OH236731   1.305   0.304   0.691 -0.1488  0.6505  0.1755
12270TIP3    H136732   1.262   0.355   0.760 -0.7778  0.9380 -0.4136
12270TIP3    H236733   1.392   0.285   0.725 -0.6454  0.3126  1.2771
12271TIP3   OH236734   0.141   2.576   0.030 -0.0610 -0.2564  0.6063
12271TIP3    H136735   0.235   2.574   0.049 -0.1698  1.6834  1.3884
12271TIP3    H236736   0.099   2.579   0.116 -0.7885  0.5078  0.2307
12272TIP3   OH236737   8.407   0.980   1.315 -0.4564  0.2216  0.2195
12272TIP3    H136738   8.315   0.988   1.292 -0.5868 -0.3589  0.5342
12272TIP3    H236739   8.413   0.897   1.361 -0.2305  1.4465  2.4843
12273TIP3   OH236740   4.074   5.411   6.807  0.1527  0.8597 -0.2306
12273TIP3    H136741   4.018   5.353   6.756 -0.2302  1.2645 -0.2707
12273TIP3    H236742   4.025   5.428   6.887  0.8460  0.0463  0.3807
12274TIP3   OH236743   7.485   1.604   0.484 -0.0636  0.0696 -0.1342
12274TIP3    H136744   7.534   1.530   0.450  0.3624  0.7873 -1.1043
12274TIP3    H236745   7.499   1.674   0.420 -0.0993  1.1246  0.9806
12275TIP3   OH236746   4.684   5.918   6.602  0.2940 -0.0682 -0.4551
12275TIP3    H136747   4.767   5.932   6.558 -0.1373 -0.0260 -1.2563
12275TIP3    H236748   4.693   5.834   6.646  0.5916 -0.2755 -0.9180
12276TIP3   OH236749   1.149   5.434   6.984  0.1101  0.4806  0.1356
12276TIP3    H136750   1.155   5.477   6.899 -1.0627  1.4351  0.5205
12276TIP3    H236751   1.190   5.348   6.971 -0.7059  0.3409 -1.5892
12277TIP3   OH236752   7.783   0.254   0.194  0.0625 -0.4864  0.6343
12277TIP3    H136753   7.710   0.218   0.244  1.6187 -2.2097  1.7285
12277TIP3    H236754   7.861   0.213   0.232  1.5192  0.4414 -1.2558
12278TIP3   OH236755   2.591   5.365   6.797  0.3912 -0.2325 -0.6179
12278TIP3    H136756   2.616   5.332   6.883  2.4144  0.5405 -0.8816
12278TIP3    H236757   2.495   5.365   6.798  0.3981 -1.1899  1.2544
12279TIP3   OH236758   2.883   3.093   5.112  0.7250  0.1020 -0.2779
12279TIP3    H136759   2.815   3.069   5.050 -0.1208  0.8088  0.3525
12279TIP3    H236760   2.837   3.100   5.196  1.5846  0.5205  0.1671
12280TIP3   OH236761   4.049   7.015   0.272 -0.4769 -0.4441  0.3534
12280TIP3    H136762   4.134   7.045   0.242 -1.4638  2.8174  0.5647
12280TIP3    H236763   4.012   6.968   0.198  0.5651  0.1693 -0.5652
12281TIP3   OH236764   7.266   7.709   0.291 -0.2652 -0.1297  0.1921
12281TIP3    H136765   7.301   7.648   0.227  0.7632 -0.3417  0.9320
12281TIP3    H236766   7.222   7.654   0.356  0.2451 -0.0561  0.6052
12282TIP3   OH236767   1.301   3.816   4.877  0.2297 -0.1681  0.5679
12282TIP3    H136768   1.374   3.754   4.873 -0.3431 -0.8272  0.1540
12282TIP3    H236769   1.340   3.897   4.909  1.7572  0.4027 -2.5538
12283TIP3   OH236770   3.767   3.990   6.531 -0.9796 -0.1912  0.1482
12283TIP3    H136771   3.747   4.027   6.445  0.4598  0.6356  0.1431
12283TIP3    H236772   3.795   3.901   6.513  0.3581  0.3150 -0.3709
12284TIP3   OH236773   0.247   4.941   5.736  0.1844  0.4356 -0.0643
12284TIP3    H136774   0.305   4.970   5.806  0.5075 -0.0321 -0.1371
12284TIP3    H236775   0.160   4.971   5.763  0.4980  1.4154 -0.1058
12285TIP3   OH236776   6.866   7.534   0.542  0.3683 -0.2790  0.5393
12285TIP3    H136777   6.961   7.547   0.545  0.4711 -0.6601 -0.6777
12285TIP3    H236778   6.837   7.589   0.469  0.0278 -2.3181 -0.8953
12286TIP3   OH236779   6.895   7.488   0.207  0.2662 -0.3078 -0.2469
12286TIP3    H136780   6.824   7.438   0.166 -1.7286 -0.4363  3.1885
12286TIP3    H236781   6.859   7.575   0.219  0.6618 -0.3871  1.5820
12287TIP3   OH236782   1.378   4.263   5.619 -0.2281  0.0159 -0.8881
12287TIP3    H136783   1.306   4.206   5.592 -1.2933  1.7485 -1.7666
12287TIP3    H236784   1.370   4.340   5.563  2.7046 -0.0245 -1.4257
12288TIP3   OH236785   3.371   2.636   4.648 -0.0804  0.8483 -0.1686
12288TIP3    H136786   3.442   2.634   4.583 -1.6822 -0.4690 -1.9323
12288TIP3    H236787   3.346   2.728   4.653  0.8878  1.1383 -0.4891
12289TIP3   OH236788   2.724   2.659   5.665  0.3407 -0.6832 -0.6632
12289TIP3    H136789   2.685   2.724   5.606 -0.4390  1.0843  1.6553
12289TIP3    H236790   2.815   2.687   5.675 -0.1361  0.4667  0.7723
12290TIP3   OH236791   8.879   4.214   6.907  0.1337  0.1045 -0.6402
12290TIP3    H136792   8.884   4.304   6.876 -0.7188  0.7686  1.0945
12290TIP3    H236793   8.897   4.220   7.001  0.2914 -1.5629 -0.5487
12291TIP3   OH236794   1.845   3.290   6.126  0.2340  0.0747  0.1613
12291TIP3    H136795   1.858   3.384   6.110  0.3493  0.4526  2.3160
12291TIP3    H236796   1.812   3.256   6.043 -0.0336  2.0686 -0.5773
12292TIP3   OH236797   4.575   7.006   0.639  0.1149  0.2484 -0.5220
12292TIP3    H136798   4.631   7.080   0.618 -1.3129  1.4901 -0.0422
12292TIP3    H236799   4.491   7.027   0.599 -0.7789 -0.3200  1.0035
12293TIP3   OH236800   1.078   2.216   5.525  0.8594 -0.0870  0.2423
12293TIP3    H136801   1.001   2.272   5.532  0.5967 -0.6747  2.1912
12293TIP3    H236802   1.152   2.277   5.520  0.5422  0.4461  1.9045
12294TIP3   OH236803   1.159   5.519   5.792  0.1918  0.5154  0.4770
12294TIP3    H136804   1.101   5.595   5.796 -0.1078  0.3373 -0.4131
12294TIP3    H236805   1.213   5.526   5.871 -1.2679  0.4977  1.5092
12295TIP3   OH236806   1.713   2.558   7.127 -0.3474 -0.3576 -0.6286
12295TIP3    H136807   1.620   2.570   7.147 -0.0143 -0.8890  1.2928
12295TIP3    H236808   1.758   2.577   7.209  1.1780 -1.0283 -1.2921
12296TIP3   OH236809   1.320   1.044   0.088 -0.5475 -0.7084 -0.0984
12296TIP3    H136810   1.342   0.952   0.101  0.9561 -0.5198 -1.1370
12296TIP3    H236811   1.383   1.092   0.142  1.4377 -0.1803 -2.7693
12297TIP3   OH236812   4.242   6.553   6.126 -0.5055  0.4358  0.1202
12297TIP3    H136813   4.302   6.480   6.141 -1.1828 -0.2336 -0.3155
12297TIP3    H236814   4.296   6.622   6.088 -0.2060 -0.5395 -1.2632
12298TIP3   OH236815   3.949   5.547   7.208 -0.0963  0.0476 -0.4015
12298TIP3    H136816   4.045   5.552   7.200 -0.2309  1.8890 -1.2416
12298TIP3    H236817   3.933   5.466   7.255  1.8105 -1.1886 -1.8089
12299TIP3   OH236818   3.930   4.366   5.052  0.4320 -0.4215 -0.6157
12299TIP3    H136819   3.989   4.291   5.053  0.0963 -0.7174  3.1278
12299TIP3    H236820   3.846   4.332   5.083  0.1499  1.3604  0.6801
12300TIP3   OH236821   4.942   4.934   4.430 -0.4201 -0.4115  0.2228
12300TIP3    H136822   5.029   4.940   4.470 -0.2380 -0.9849 -0.0887
12300TIP3    H236823   4.883   4.915   4.503 -0.5684  1.8639  0.7569
12301TIP3   OH236824   3.884   4.974   5.799  0.5549  0.1727  0.3677
12301TIP3    H136825   3.831   4.921   5.739  1.5590  0.2088 -0.5530
12301TIP3    H236826   3.931   4.910   5.853  0.0123  0.1408  0.8123
12302TIP3   OH236827   2.249   7.914   6.230 -0.0018 -0.2272 -0.0760
12302TIP3    H136828   2.336   7.915   6.269  0.5541 -0.2089 -1.3122
12302TIP3    H236829   2.218   8.005   6.238 -0.0485 -0.3033  0.6560
12303TIP3   OH236830   5.147   6.412   5.394  0.8680  0.4486  0.3358
12303TIP3    H136831   5.098   6.353   5.453  1.2906  0.7844  1.0259
12303TIP3    H236832   5.211   6.454   5.451  0.5997  1.5444 -0.1706
12304TIP3   OH236833   4.862   5.005   3.630 -0.7667 -0.0918  0.2175
12304TIP3    H136834   4.768   4.990   3.643 -0.9774  1.8082  1.0822
12304TIP3    H236835   4.868   5.098   3.605  0.7259 -0.6311 -1.5098
12305TIP3   OH236836   5.882   5.233   5.578 -0.4112  0.4168  0.0261
12305TIP3    H136837   5.913   5.289   5.507 -2.0142  3.2666  1.4532
12305TIP3    H236838   5.923   5.148   5.562  0.0117  1.2458 -3.7304
12306TIP3   OH236839   6.500   5.370   6.316  0.1545 -0.6804 -0.5180
12306TIP3    H136840   6.565   5.329   6.374  0.6203 -1.3058 -1.4736
12306TIP3    H236841   6.523   5.463   6.317  1.0873 -0.9016 -0.8761
12307TIP3   OH236842   2.799   3.957   5.469 -0.1106 -0.1282 -0.5411
12307TIP3    H136843   2.800   3.941   5.563  1.0441 -0.7433 -0.6411
12307TIP3    H236844   2.882   4.001   5.452  0.3175 -1.2520 -1.4636
12308TIP3   OH236845   5.018   4.466   7.211 -0.3342  0.7367 -0.8046
12308TIP3    H136846   5.084   4.428   7.152  1.0386  0.2365  0.9951
12308TIP3    H236847   4.934   4.442   7.172  0.5419 -0.7181 -1.8569
12309TIP3   OH236848   5.816   3.231   6.353 -0.3752  0.1034 -0.1009
12309TIP3    H136849   5.902   3.192   6.341  0.3644  1.7938 -0.4331
12309TIP3    H236850   5.824   3.283   6.433 -0.9827  0.5237 -0.3098
12310TIP3   OH236851   3.736   6.307   6.352  0.0128  0.5790 -0.3504
12310TIP3    H136852   3.817   6.285   6.306 -0.4048 -1.9184 -0.0049
12310TIP3    H236853   3.736   6.250   6.429 -2.1419  0.3747 -0.4577
12311TIP3   OH236854   7.610   4.907   5.108 -0.2636  0.1780 -0.1287
12311TIP3    H136855   7.668   4.964   5.057  0.0356 -0.3573 -0.3852
12311TIP3    H236856   7.564   4.967   5.167  1.5431  0.4640  1.0390
12312TIP3   OH236857   5.689   4.938   5.256  0.3324 -0.4675  0.8467
12312TIP3    H136858   5.629   4.879   5.299  0.1766  0.5914  2.1098
12312TIP3    H236859   5.690   5.016   5.311  1.4737  0.2272 -0.1258
12313TIP3   OH236860   7.421   6.858   0.910 -0.2445  0.3901  0.0969
12313TIP3    H136861   7.412   6.769   0.945 -0.9304  0.9483  1.3903
12313TIP3    H236862   7.503   6.890   0.947  0.3776  0.0404 -0.9646
12314TIP3   OH236863   3.813   4.451   3.675  0.2506  0.2745  0.2074
12314TIP3    H136864   3.819   4.396   3.753  0.6923  0.2789  0.1772
12314TIP3    H236865   3.828   4.540   3.706  0.6128  0.2557  0.0908
12315TIP3   OH236866   4.135   4.736   4.713 -0.0551  0.0489  0.1573
12315TIP3    H136867   4.056   4.699   4.752 -0.9099  1.9236  0.2428
12315TIP3    H236868   4.173   4.663   4.663 -1.9668 -0.8164 -0.0873
12316TIP3   OH236869   6.167   6.750   5.017 -0.1902 -0.9462  0.4301
12316TIP3    H136870   6.113   6.735   5.094  0.4736  0.7178  1.2497
12316TIP3    H236871   6.256   6.732   5.047  0.0090 -0.8793 -0.1191
12317TIP3   OH236872   4.045   2.891   4.315 -0.1240 -0.0098 -0.3862
12317TIP3    H136873   4.137   2.915   4.330 -0.5036  0.9975  0.3738
12317TIP3    H236874   4.039   2.875   4.221  0.9886 -0.7730 -0.3377
12318TIP3   OH236875   3.808   3.432   5.874  0.0212 -0.1825 -0.1751
12318TIP3    H136876   3.804   3.442   5.779 -2.0438  0.1167 -0.0703
12318TIP3    H236877   3.792   3.339   5.889 -1.4146  0.0849 -0.0288
12319TIP3   OH236878   4.595   6.972   7.246  0.2212 -0.4592 -0.2668
12319TIP3    H136879   4.668   7.012   7.200 -1.1310  0.3295 -1.7834
12319TIP3    H236880   4.621   6.881   7.259  0.8416 -0.5547 -2.1062
12320TIP3   OH236881   6.615   7.448   1.316  0.0205  0.1180  0.8512
12320TIP3    H136882   6.680   7.381   1.295 -0.3445  0.3050 -0.9118
12320TIP3    H236883   6.547   7.437   1.250 -0.8917  1.0812  1.6148
12321TIP3   OH236884   6.755   4.505   4.404  0.2277 -1.1012  0.5704
12321TIP3    H136885   6.677   4.537   4.358  1.7207  0.8178 -0.7657
12321TIP3    H236886   6.790   4.583   4.448  2.4407 -1.4644 -0.4694
12322TIP3   OH236887   4.061   3.329   6.327  0.0270 -0.2580  0.4476
12322TIP3    H136888   4.141   3.309   6.374  0.3585  0.1349  0.0501
12322TIP3    H236889   4.048   3.253   6.270  0.1073 -0.3268  0.5202
12323TIP3   OH236890   5.040   5.453   4.975  0.2325 -0.1618 -0.0418
12323TIP3    H136891   5.097   5.425   5.047 -0.0121 -0.3408  0.0808
12323TIP3    H236892   5.079   5.415   4.897  1.7917  1.8786 -0.3012
12324TIP3   OH236893   4.110   5.844   5.140 -0.1834 -0.3036 -0.1735
12324TIP3    H136894   4.155   5.819   5.060  0.3320  2.9874 -0.9826
12324TIP3    H236895   4.177   5.890   5.192 -1.0017 -0.7507  1.3171
12325TIP3   OH236896   6.005   4.808   6.292 -0.0925 -0.1927  0.1185
12325TIP3    H136897   5.960   4.735   6.335  0.5593 -1.5100 -1.3944
12325TIP3    H236898   5.935   4.869   6.269 -0.8208 -1.0632  0.0052
12326TIP3   OH236899   0.551   0.037   0.050 -0.2030 -0.1064  0.2507
12326TIP3    H136900   0.553   0.055   0.143 -3.9954 -0.0012  0.3901
12326TIP3    H236901   0.545   0.123   0.008  2.4924 -0.0928 -0.1912
12327TIP3   OH236902   3.251   4.172   5.337  0.3090  0.0132 -0.2866
12327TIP3    H136903   3.343   4.177   5.363 -0.0198  0.3392  0.7879
12327TIP3    H236904   3.253   4.122   5.255  1.2334 -1.9472  0.8843
12328TIP3   OH236905   5.865   6.542   4.991 -0.0878 -0.0208 -0.1800
12328TIP3    H136906   5.911   6.573   5.069 -0.8437 -0.5598  0.4944
12328TIP3    H236907   5.931   6.494   4.941  1.1555  2.8850 -1.3840
12329TIP3   OH236908   4.812   4.246   4.045 -0.4729 -0.2592  0.6050
12329TIP3    H136909   4.756   4.246   3.967 -0.6487 -1.7040  0.7194
12329TIP3    H236910   4.785   4.323   4.094 -0.1001  0.8965 -0.9395
12330TIP3   OH236911   3.369   3.656   6.781  0.0299  0.3132  0.6874
12330TIP3    H136912   3.327   3.730   6.736  2.0311  1.2199  0.2884
12330TIP3    H236913   3.364   3.584   6.717  1.5822  1.2069 -0.4887
12331TIP3   OH236914   4.924   5.204   5.213  0.5077 -0.0580 -0.0185
12331TIP3    H136915   4.935   5.175   5.122 -1.0402  1.9434 -0.8801
12331TIP3    H236916   4.836   5.242   5.216  1.0985  1.2440  1.9284
12332TIP3   OH236917   6.546   6.684   6.000  0.1129 -0.0429  0.3118
12332TIP3    H136918   6.541   6.616   6.067 -0.3582 -1.3514 -0.9977
12332TIP3    H236919   6.607   6.648   5.934 -2.8706 -0.8229 -2.1378
12333TIP3   OH236920   3.751   2.521   5.541 -0.1857  0.1645  0.4717
12333TIP3    H136921   3.674   2.577   5.544 -0.0083  0.3848  0.8965
12333TIP3    H236922   3.793   2.532   5.626  0.6854  0.5666 -0.0025
12334TIP3   OH236923   5.655   3.702   6.980  0.3649 -0.2842  0.1371
12334TIP3    H136924   5.715   3.630   6.997  0.6024 -0.1526 -0.1556
12334TIP3    H236925   5.687   3.774   7.035 -1.7388 -1.3679  2.9565
12335TIP3   OH236926   6.279   7.707   1.547 -0.2760  0.1661  0.1109
12335TIP3    H136927   6.366   7.688   1.510 -0.7267 -0.9611 -0.4072
12335TIP3    H236928   6.226   7.733   1.472 -0.4729  0.5394  0.3779
12336TIP3   OH236929   5.588   3.141   4.424  0.4241 -0.5705 -0.6139
12336TIP3    H136930   5.520   3.075   4.410 -0.6588  0.0490  1.4635
12336TIP3    H236931   5.557   3.192   4.499  1.9016  1.4397 -1.3229
12337TIP3   OH236932   5.010   6.631   6.632 -0.3353  0.6123  0.5039
12337TIP3    H136933   4.961   6.696   6.682 -0.6471  0.5211  0.3161
12337TIP3    H236934   5.035   6.676   6.552 -1.3325  0.2176 -0.0279
12338TIP3   OH236935   4.360   4.790   6.098  0.1514 -0.5917 -0.6344
12338TIP3    H136936   4.332   4.769   6.187  1.3915  1.4042  0.2634
12338TIP3    H236937   4.417   4.717   6.073  0.7000 -0.6124  0.6397
12339TIP3   OH236938   4.382   3.178   5.400 -0.0287 -0.0367  0.1906
12339TIP3    H136939   4.307   3.127   5.431 -0.2609 -0.0099 -0.3341
12339TIP3    H236940   4.364   3.268   5.428  0.3240 -0.2160  1.0121
12340TIP3   OH236941   5.669   2.045   4.526 -0.1487  0.3537  0.3204
12340TIP3    H136942   5.732   2.006   4.586  1.1199  0.9049 -0.6349
12340TIP3    H236943   5.600   1.979   4.517  0.0047 -0.0216  1.8039
12341TIP3   OH236944   4.818   5.395   6.095  0.4321 -0.5545  0.0876
12341TIP3    H136945   4.766   5.324   6.133 -1.2378  0.7489  0.3170
12341TIP3    H236946   4.769   5.422   6.017  0.5843  0.8859  0.4643
12342TIP3   OH236947   3.272   4.993   3.550  0.2288  0.2928  0.1737
12342TIP3    H136948   3.323   4.920   3.517 -1.3987 -0.2474 -1.2412
12342TIP3    H236949   3.191   4.991   3.498  0.0513  2.9258  0.2895
12343TIP3   OH236950   0.819   0.098   1.267  0.5084 -0.1950  0.0686
12343TIP3    H136951   0.840   0.165   1.201 -0.2998 -0.1343 -0.1271
12343TIP3    H236952   0.870   0.022   1.240  0.5635 -0.0164 -0.3483
12344TIP3   OH236953   3.144   5.844   5.584  0.0517 -0.1006  0.2820
12344TIP3    H136954   3.174   5.814   5.498  0.4504 -0.6753  0.6112
12344TIP3    H236955   3.051   5.823   5.586  0.0229 -0.0037 -0.0450
12345TIP3   OH236956   2.825   3.290   0.347 -0.3111 -0.1412 -0.1419
12345TIP3    H136957   2.894   3.323   0.404 -1.0493  1.1995 -0.0040
12345TIP3    H236958   2.765   3.364   0.336 -0.9570 -0.8345 -1.4504
12346TIP3   OH236959   5.278   5.202   6.068  0.6315  0.4657 -0.1769
12346TIP3    H136960   5.186   5.214   6.044  0.7492  2.1053  0.1414
12346TIP3    H236961   5.276   5.144   6.144 -0.0706 -0.3591 -0.8233
12347TIP3   OH236962   6.309   4.099   4.852 -0.2859 -0.0955  0.7261
12347TIP3    H136963   6.273   4.143   4.929  1.2793  1.9547  0.3365
12347TIP3    H236964   6.404   4.109   4.861 -0.0862  0.3564 -1.5603
12348TIP3   OH236965   1.300   0.890   0.416 -0.5704  0.5517 -0.2271
12348TIP3    H136966   1.262   0.848   0.340  0.5278  0.1217 -0.5561
12348TIP3    H236967   1.372   0.832   0.442 -1.0393  0.6160  1.2263
12349TIP3   OH236968   2.807   4.942   6.720  0.2788 -0.0903  0.1301
12349TIP3    H136969   2.817   4.850   6.742 -0.1887 -0.3427 -0.7326
12349TIP3    H236970   2.745   4.976   6.785 -0.5002 -0.6618 -0.3135
12350TIP3   OH236971   5.022   5.287   5.980 -0.4793 -0.0148 -0.2041
12350TIP3    H136972   4.997   5.196   5.964 -0.0704 -0.2886  0.6777
12350TIP3    H236973   4.943   5.327   6.018 -0.1676 -0.4091  0.8733
12351TIP3   OH236974   5.143   5.505   6.321  0.1078  0.4370 -0.0854
12351TIP3    H136975   5.053   5.471   6.315  0.3105  0.2614 -2.3151
12351TIP3    H236976   5.198   5.428   6.308  0.5762  0.9085 -0.8886
12352TIP3   OH236977   5.422   8.184   0.771 -0.1632 -0.3650 -0.0542
12352TIP3    H136978   5.415   8.118   0.841  0.1180 -0.5208 -0.1739
12352TIP3    H236979   5.410   8.135   0.690  2.3848 -0.6664 -0.2853
12353TIP3   OH236980   7.600   6.057   1.698 -0.4214 -0.1205  0.1556
12353TIP3    H136981   7.581   6.129   1.638  1.5827 -0.4764 -0.9175
12353TIP3    H236982   7.646   6.099   1.771 -1.0358 -0.0148  0.4880
12354TIP3   OH236983   4.944   2.152   6.249 -0.0701  0.3884  0.0707
12354TIP3    H136984   5.007   2.223   6.262  0.0528  0.2015  0.5137
12354TIP3    H236985   4.871   2.193   6.203 -0.0138  0.8089  0.3525
12355TIP3   OH236986   0.859   0.023   0.131  0.0995  0.2821 -0.2509
12355TIP3    H136987   0.865   0.027   0.035  1.1333  0.8338 -0.1762
12355TIP3    H236988   0.947   0.047   0.161 -0.1650 -0.0792  0.8343
12356TIP3   OH236989   3.838   4.767   6.572 -0.4244 -0.1969  0.2388
12356TIP3    H136990   3.787   4.738   6.648  1.5323 -1.1242  1.2506
12356TIP3    H236991   3.867   4.855   6.595 -2.8338  0.9674 -1.0183
12357TIP3   OH236992   2.924   3.625   5.718  0.1969 -0.4081  0.5318
12357TIP3    H136993   2.893   3.716   5.716  0.3896 -0.3326  0.9939
12357TIP3    H236994   3.019   3.632   5.726  0.4222 -0.6301 -1.5258
12358TIP3   OH236995   7.345   8.363   0.229  0.1400 -0.0647 -0.1910
12358TIP3    H136996   7.257   8.336   0.253  0.6228 -0.6690  0.9431
12358TIP3    H236997   7.368   8.306   0.155 -0.4099  0.0704 -0.4626
12359TIP3   OH236998   3.424   4.128   6.875 -0.3766 -0.7276 -0.0536
12359TIP3    H136999   3.455   4.082   6.953  1.0387 -0.7725 -0.6313
12359TIP3    H237000   3.330   4.110   6.872 -0.1485 -2.0979  0.7280
12360TIP3   OH237001   5.611   4.856   5.850 -0.2643  0.6130  0.2303
12360TIP3    H137002   5.624   4.767   5.816 -1.1398 -0.0385  1.5466
12360TIP3    H237003   5.638   4.851   5.942 -1.0642  1.4946  0.5265
12361TIP3   OH237004   6.439   4.905   4.234 -0.1055 -0.6673  0.0450
12361TIP3    H137005   6.467   4.909   4.143  0.5567 -1.3382  0.2140
12361TIP3    H237006   6.378   4.978   4.244  0.7285  0.1272 -0.6309
12362TIP3   OH237007   4.857   4.450   6.475 -0.6527 -0.3451  0.0565
12362TIP3    H137008   4.882   4.366   6.515 -0.3262 -0.5491 -0.5553
12362TIP3    H237009   4.764   4.440   6.456 -0.6382 -0.5374  0.0764
12363TIP3   OH237010   3.450   3.969   6.222  0.1033  0.3288  0.3437
12363TIP3    H137011   3.436   3.955   6.129 -0.3080  1.3447  0.2487
12363TIP3    H237012   3.513   3.901   6.247  0.3506  0.1610 -0.7089
12364TIP3   OH237013   3.028   4.035   5.078  0.9583  0.2808 -0.4118
12364TIP3    H137014   3.008   4.085   5.158 -0.4299 -0.4913 -0.2646
12364TIP3    H237015   3.082   4.094   5.026  1.9026  0.8027  1.0956
12365TIP3   OH237016   4.146   3.166   4.580 -0.2508  0.1203  0.7947
12365TIP3    H137017   4.103   3.251   4.574 -0.6492 -0.1174  0.2737
12365TIP3    H237018   4.078   3.107   4.614 -0.1090 -0.0870  0.7207
12366TIP3   OH237019   4.433   4.099   5.757  0.0940  0.7637  0.1067
12366TIP3    H137020   4.523   4.067   5.756 -0.3256 -0.4837  0.5753
12366TIP3    H237021   4.432   4.170   5.693  1.2063  0.2305 -0.5201
12367TIP3   OH237022   4.706   5.479   5.072 -0.2611 -0.0027  0.5098
12367TIP3    H137023   4.723   5.407   5.011 -1.7069  0.4217 -0.4113
12367TIP3    H237024   4.772   5.545   5.051  0.8455 -0.8988  1.1170
12368TIP3   OH237025   5.628   4.260   4.882 -0.0228  0.4777 -0.1484
12368TIP3    H137026   5.539   4.265   4.847 -0.0587 -0.5371 -0.2220
12368TIP3    H237027   5.676   4.329   4.836 -0.7492  0.9763 -0.1675
12369TIP3   OH237028   3.517   6.228   6.127 -0.0282  0.1910 -0.0008
12369TIP3    H137029   3.604   6.207   6.159  0.1492 -1.1273 -1.2865
12369TIP3    H237030   3.458   6.207   6.200  0.6651  0.5435  0.6641
12370TIP3   OH237031   3.231   3.770   4.049 -0.4924  0.3218  0.1176
12370TIP3    H137032   3.235   3.822   4.129 -0.4779  0.6121 -0.0745
12370TIP3    H237033   3.208   3.832   3.980 -1.5417 -0.1180  0.0636
12371TIP3   OH237034   3.657   4.367   5.778  0.1807  0.5039  0.0939
12371TIP3    H137035   3.575   4.318   5.777 -0.4551  1.5537 -2.6291
12371TIP3    H237036   3.632   4.455   5.805  0.7666  0.3075  1.3409
12372TIP3   OH237037   4.242   4.349   6.039 -0.3840  0.0070  0.0934
12372TIP3    H137038   4.180   4.357   6.112 -0.0297 -0.9532  0.5041
12372TIP3    H237039   4.326   4.376   6.075 -0.4332  0.6570 -0.2784
12373TIP3   OH237040   5.074   5.824   4.727  0.2822  0.2783  0.1156
12373TIP3    H137041   5.066   5.739   4.683  1.8239  0.4921 -0.5931
12373TIP3    H237042   5.095   5.802   4.818 -0.7423 -0.1145  0.2687
12374TIP3   OH237043   5.703   7.944   0.540 -0.2106 -0.2266 -0.3805
12374TIP3    H137044   5.690   7.849   0.543 -1.5155 -0.0447  0.3508
12374TIP3    H237045   5.783   7.959   0.590  0.7032 -1.0531 -1.5802
12375TIP3   OH237046   5.928   4.238   6.396 -0.1477  0.5349  0.7771
12375TIP3    H137047   6.005   4.261   6.344 -0.9364  0.9072 -0.2626
12375TIP3    H237048   5.950   4.263   6.485  1.6775 -1.1603  0.8254
12376TIP3   OH237049   2.081   3.416   6.892  0.5252  0.1146  0.4852
12376TIP3    H137050   2.081   3.511   6.897 -2.6197  0.2187 -0.7765
12376TIP3    H237051   2.032   3.395   6.813 -1.0297 -2.6012  2.0961
12377TIP3   OH237052   4.663   5.060   7.005  0.0478 -0.1555  0.0210
12377TIP3    H137053   4.632   5.142   6.967 -0.5736 -1.1833 -1.7253
12377TIP3    H237054   4.742   5.085   7.054  0.5083  1.3096 -1.4101
12378TIP3   OH237055   1.912   5.020   6.768 -0.2589  0.3140  0.6612
12378TIP3    H137056   1.826   4.994   6.801 -0.8286  0.9687 -0.2562
12378TIP3    H237057   1.892   5.084   6.699  1.0231  1.9199  1.7447
12379TIP3   OH237058   4.483   4.332   5.574  0.0147 -0.5035  0.0605
12379TIP3    H137059   4.531   4.252   5.551  1.0549 -0.0634  0.6679
12379TIP3    H237060   4.514   4.397   5.511 -1.2681 -0.7083 -0.8124
12380TIP3   OH237061   3.006   5.233   4.373 -0.0244  0.3379 -0.1795
12380TIP3    H137062   2.951   5.229   4.294 -0.4096 -0.0387  0.1097
12380TIP3    H237063   2.961   5.294   4.430 -0.6588 -0.7089  0.4549
12381TIP3   OH237064   4.621   5.921   5.352 -0.4053  0.3880  0.1328
12381TIP3    H137065   4.615   5.921   5.448 -1.3376 -0.7848  0.0944
12381TIP3    H237066   4.668   5.840   5.331  0.0850  0.8031 -0.3899
12382TIP3   OH237067   2.886   3.861   6.375  0.3072 -0.0896  0.5730
12382TIP3    H137068   2.887   3.912   6.456  1.5150  0.5463  0.1785
12382TIP3    H237069   2.832   3.913   6.315  0.7405  0.2477  0.4734
12383TIP3   OH237070   7.751   8.357   0.198 -0.2635  0.2651 -0.3896
12383TIP3    H137071   7.724   8.272   0.162  0.0443  0.8598 -2.0733
12383TIP3    H237072   7.841   8.343   0.227  0.4438  0.5233 -2.4174
12384TIP3   OH237073   3.803   4.762   4.314 -0.5778  0.1778 -0.5768
12384TIP3    H137074   3.781   4.834   4.255 -0.9680  2.0666  1.7739
12384TIP3    H237075   3.879   4.795   4.363  0.1684 -1.6224 -0.5019
12385TIP3   OH237076   4.016   4.659   6.997 -0.1542  0.0410 -0.6226
12385TIP3    H137077   3.976   4.718   6.932  0.1235  0.8719 -0.0500
12385TIP3    H237078   3.969   4.679   7.079  0.1302 -0.3405 -0.3645
12386TIP3   OH237079   8.319   8.274   0.274 -0.8374  0.2561 -0.4419
12386TIP3    H137080   8.408   8.295   0.300 -0.6184 -1.5115  0.3182
12386TIP3    H237081   8.327   8.235   0.187 -1.1454  2.2798 -1.4247
12387TIP3   OH237082   4.694   5.793   5.008  0.2126 -0.4389 -0.6281
12387TIP3    H137083   4.663   5.884   5.008 -1.3544 -0.9438  1.1421
12387TIP3    H237084   4.773   5.796   5.062  1.4887  0.2700 -2.4932
12388TIP3   OH237085   5.797   5.231   6.151 -0.3581 -0.2245  0.6115
12388TIP3    H137086   5.865   5.284   6.193 -1.5635  0.0281  2.3256
12388TIP3    H237087   5.815   5.237   6.058  1.0940  1.0504  0.9607
12389TIP3   OH237088   6.223   3.293   7.133  0.3590 -0.2468 -0.4535
12389TIP3    H137089   6.152   3.258   7.187 -2.1469  1.0204 -2.7826
12389TIP3    H237090   6.214   3.248   7.049 -0.3027  2.7977 -2.1104
12390TIP3   OH237091   5.900   6.055   3.732 -0.2000 -0.0669  0.2952
12390TIP3    H137092   5.902   6.119   3.660  3.2646  1.5056  1.6746
12390TIP3    H237093   5.909   5.970   3.689 -0.6433  0.6642 -1.2829
12391TIP3   OH237094   3.682   4.790   6.934 -0.3591 -0.2515  0.1482
12391TIP3    H137095   3.635   4.754   7.010  0.4456  2.2354  1.9139
12391TIP3    H237096   3.628   4.863   6.905 -0.2197 -0.6546 -1.1394
12392TIP3   OH237097   3.361   5.387   6.644 -0.9673  0.5925  0.1551
12392TIP3    H137098   3.452   5.417   6.653 -0.3167 -1.3422  0.2873
12392TIP3    H237099   3.353   5.362   6.552 -2.0608  2.8454 -0.3970
12393TIP3   OH237100   1.314   3.195   4.845  0.0333 -0.0339 -0.5710
12393TIP3    H137101   1.337   3.103   4.845  1.9995  0.4476 -0.5897
12393TIP3    H237102   1.226   3.198   4.885 -0.1321 -1.9051 -0.7710
12394TIP3   OH237103   6.148   8.256   0.767 -0.3122 -0.2155  0.2222
12394TIP3    H137104   6.166   8.173   0.811  1.3638  0.3048  0.5715
12394TIP3    H237105   6.063   8.243   0.725  0.1512 -2.2730 -0.1514
12395TIP3   OH237106   8.266   1.061   0.234  0.1022 -0.2987 -0.4699
12395TIP3    H137107   8.342   1.002   0.228  0.7564  0.7244 -2.9646
12395TIP3    H237108   8.304   1.147   0.251 -0.7793 -0.3438  1.9779
12396TIP3   OH237109   1.657   6.902   4.882  0.0893 -0.1004 -0.5367
12396TIP3    H137110   1.612   6.837   4.936  0.7665  1.4099  1.9341
12396TIP3    H237111   1.592   6.929   4.818 -1.8982  0.6003  1.7042
12397TIP3   OH237112   3.353   6.271   4.418  0.2151 -0.2692 -0.7763
12397TIP3    H137113   3.351   6.209   4.490  0.9606  2.4429  1.6568
12397TIP3    H237114   3.264   6.306   4.414 -0.2326 -1.5269 -2.2125
12398TIP3   OH237115   4.923   4.115   5.382 -0.2805 -0.5653  0.1282
12398TIP3    H137116   4.930   4.033   5.332  1.0039 -0.1438 -0.4102
12398TIP3    H237117   5.011   4.129   5.417 -1.0337 -0.5689  2.0838
12399TIP3   OH237118   5.358   5.523   7.217 -0.5430  0.5950  0.1260
12399TIP3    H137119   5.276   5.531   7.266 -0.6950 -0.0187 -0.0213
12399TIP3    H237120   5.333   5.479   7.136 -0.2533  1.4104 -0.4058
12400TIP3   OH237121   5.185   4.888   5.086 -0.2789  0.0086 -0.4894
12400TIP3    H137122   5.212   4.971   5.047  0.2955 -1.2839 -2.8709
12400TIP3    H237123   5.248   4.824   5.054 -0.5556 -1.3251  1.5520
12401TIP3   OH237124   7.126   7.568   0.484  0.7613 -0.1023  0.0499
12401TIP3    H137125   7.215   7.587   0.514  1.0894 -1.3152 -0.1351
12401TIP3    H237126   7.133   7.485   0.438 -0.3577  0.1022 -0.5144
12402TIP3   OH237127   4.034   3.073   7.090  0.1846 -0.4927 -0.2120
12402TIP3    H137128   4.037   2.980   7.112  0.1793 -0.8947 -1.8379
12402TIP3    H237129   3.951   3.085   7.044 -0.0787  0.4385  0.4864
12403TIP3   OH237130   0.112   1.543   0.552  0.5830 -0.4203 -0.1686
12403TIP3    H137131   0.072   1.598   0.620  1.0481 -2.0518  1.4468
12403TIP3    H237132   0.189   1.591   0.524 -0.2143  0.7823 -0.3432
12404TIP3   OH237133   2.172   3.704   5.926  0.2828 -0.3155 -0.0870
12404TIP3    H137134   2.248   3.675   5.875  0.2891  0.4907 -0.5431
12404TIP3    H237135   2.145   3.786   5.884 -0.2380 -0.0928  0.6800
12405TIP3   OH237136   3.752   4.584   6.780  0.3492 -0.4285  0.5074
12405TIP3    H137137   3.733   4.649   6.848  0.0979 -0.8282  0.8249
12405TIP3    H237138   3.677   4.588   6.721  2.0515  2.2772 -1.6445
12406TIP3   OH237139   3.057   3.751   7.180 -0.1029 -0.5623  0.3162
12406TIP3    H137140   3.032   3.664   7.150 -1.4047  0.6513 -2.2774
12406TIP3    H237141   3.153   3.749   7.183  0.0054 -1.1723 -2.6253
12407TIP3   OH237142   5.433   4.376   6.536  0.3477  0.4158  0.3489
12407TIP3    H137143   5.341   4.380   6.509 -0.2358 -0.5518  2.0844
12407TIP3    H237144   5.453   4.464   6.567 -0.4638  0.2666  1.3474
12408TIP3   OH237145   5.957   6.490   5.658 -0.4894 -0.2508  0.3523
12408TIP3    H137146   5.907   6.530   5.729 -0.5218 -0.7960  0.6358
12408TIP3    H237147   6.032   6.449   5.701  0.6578  1.2740 -0.1615
12409TIP3   OH237148   1.581   5.997   4.021  0.1735  0.0749  0.1510
12409TIP3    H137149   1.673   6.014   4.041 -0.0664  0.7189  0.7078
12409TIP3    H237150   1.567   5.907   4.051  0.0617  0.7137  2.1015
12410TIP3   OH237151   4.722   3.436   5.250 -0.5805  0.7189  0.2458
12410TIP3    H137152   4.728   3.342   5.267  1.6853  0.8698  0.4543
12410TIP3    H237153   4.640   3.447   5.201 -0.3158 -1.4853 -0.7381
12411TIP3   OH237154   5.484   4.963   7.079  0.6162  0.0916 -0.8153
12411TIP3    H137155   5.453   5.030   7.140 -0.2680 -0.8758 -0.1706
12411TIP3    H237156   5.546   5.008   7.023 -1.9263  2.1134 -2.1237
12412TIP3   OH237157   4.581   3.607   6.887  0.1988  0.0649 -0.0084
12412TIP3    H137158   4.578   3.585   6.793 -1.3410 -0.9700  0.2574
12412TIP3    H237159   4.566   3.702   6.889 -0.5888 -0.0255 -0.7851
12413TIP3   OH237160   1.382   4.336   0.745  0.6583  0.3921  0.2661
12413TIP3    H137161   1.475   4.340   0.768  0.8359  1.2108 -0.5826
12413TIP3    H237162   1.370   4.403   0.679  0.3256 -2.3526 -2.5758
12414TIP3   OH237163   4.429   1.463   3.907 -0.4302  0.0426 -0.1448
12414TIP3    H137164   4.491   1.435   3.839  0.3950 -0.9731  1.0093
12414TIP3    H237165   4.383   1.383   3.932  0.8827 -0.0261  2.1174
12415TIP3   OH237166   5.472   5.332   4.422  0.2811 -0.3701  0.3921
12415TIP3    H137167   5.401   5.323   4.359  0.0387 -0.4774  0.6767
12415TIP3    H237168   5.541   5.274   4.389  0.2920 -0.1563  0.0399
12416TIP3   OH237169   5.660   6.032   6.001 -0.3825 -0.0414 -0.0822
12416TIP3    H137170   5.573   6.072   6.002 -1.2529 -1.8591 -0.0374
12416TIP3    H237171   5.696   6.050   6.088 -0.6892  0.7740 -0.1271
12417TIP3   OH237172   3.884   5.251   4.570 -0.1316  0.0609 -0.3908
12417TIP3    H137173   3.948   5.186   4.599  0.1384  0.6964  0.4582
12417TIP3    H237174   3.864   5.302   4.649 -1.1173  0.3441 -0.8172
12418TIP3   OH237175   8.893   3.881   7.196 -0.4525  0.9392  0.2758
12418TIP3    H137176   8.815   3.915   7.238  0.4495  0.1398  2.6676
12418TIP3    H237177   8.953   3.861   7.268  0.2850 -2.6425 -1.2065
12419TIP3   OH237178   4.311   5.875   6.684  0.8096 -0.6974  0.4543
12419TIP3    H137179   4.262   5.793   6.675 -1.2834  0.3491  1.7921
12419TIP3    H237180   4.281   5.930   6.612  2.2073 -1.0936 -0.4401
12420TIP3   OH237181   2.967   4.375   6.245  0.5471  0.1503 -0.3002
12420TIP3    H137182   3.040   4.438   6.247  0.9968 -0.3945  0.7088
12420TIP3    H237183   3.007   4.291   6.268  0.2783 -0.8761 -3.4253
12421TIP3   OH237184   0.495   5.196   4.398  0.1149 -0.2730  0.0036
12421TIP3    H137185   0.563   5.131   4.418 -0.5736 -0.7522  0.8086
12421TIP3    H237186   0.540   5.281   4.404  1.6662 -0.7391 -3.6079
12422TIP3   OH237187   7.085   7.225   1.530 -0.7934  0.0437  0.4149
12422TIP3    H137188   7.098   7.303   1.476  0.6059  0.1113  0.8400
12422TIP3    H237189   6.990   7.222   1.544 -1.0806  0.5229 -1.3000
12423TIP3   OH237190   2.764   5.769   6.226 -0.2718  0.3577 -0.1646
12423TIP3    H137191   2.859   5.770   6.221 -0.1886 -1.8697  0.5308
12423TIP3    H237192   2.743   5.833   6.294  0.6392  1.7547 -1.1730
12424TIP3   OH237193   5.160   5.255   4.503  0.3875  0.2219  0.6905
12424TIP3    H137194   5.083   5.276   4.451 -0.1169 -0.5959  1.0846
12424TIP3    H237195   5.228   5.236   4.439 -0.1256 -0.4097  0.3301
12425TIP3   OH237196   1.544   0.442   0.406 -0.6443  0.8248  0.1007
12425TIP3    H137197   1.503   0.373   0.354 -1.8452  2.1349 -0.7278
12425TIP3    H237198   1.636   0.415   0.414 -1.4545 -1.7430  1.3102
12426TIP3   OH237199   4.725   5.219   4.593 -0.0201  0.4325 -0.0070
12426TIP3    H137200   4.688   5.133   4.614 -0.7605 -0.1133 -3.1844
12426TIP3    H237201   4.820   5.208   4.605 -0.0872 -0.9212 -0.6161
12427TIP3   OH237202   5.620   7.634   1.702  0.5381  0.0835 -0.1401
12427TIP3    H137203   5.675   7.562   1.671  0.2608  0.4730 -1.6037
12427TIP3    H237204   5.666   7.668   1.779  2.0689  0.0562 -1.0127
12428TIP3   OH237205   4.747   5.176   5.505  0.2741 -0.1674 -0.1081
12428TIP3    H137206   4.832   5.138   5.484  1.0167  0.9675  0.7926
12428TIP3    H237207   4.725   5.140   5.592 -0.0472 -0.2581 -0.2259
12429TIP3   OH237208   4.119   4.692   5.696 -0.4269 -0.2760 -0.5076
12429TIP3    H137209   4.117   4.596   5.689  0.6395 -0.4062  0.6517
12429TIP3    H237210   4.139   4.723   5.608 -1.3897 -1.0959 -1.0176
12430TIP3   OH237211   5.429   4.213   6.281 -0.2257  0.5861  0.4562
12430TIP3    H137212   5.520   4.237   6.298 -0.0221 -0.6949  1.2833
12430TIP3    H237213   5.381   4.252   6.354 -0.2209  0.5378  0.4853
12431TIP3   OH237214   6.228   6.373   6.055 -0.0449  0.3807  0.3424
12431TIP3    H137215   6.318   6.370   6.023  0.1295  0.7204  0.7847
12431TIP3    H237216   6.216   6.290   6.102 -0.0199  0.2665  0.1491
12432TIP3   OH237217   8.343   0.120   0.179 -0.1373  0.2468  0.1028
12432TIP3    H137218   8.288   0.042   0.192 -0.2673  0.2374 -0.5241
12432TIP3    H237219   8.291   0.192   0.217  0.3810 -0.1023  1.5268
12433TIP3   OH237220   3.782   4.115   5.335 -0.5409  0.0121  0.2798
12433TIP3    H137221   3.874   4.134   5.352 -0.6415 -0.9983  2.0157
12433TIP3    H237222   3.761   4.168   5.258  0.0695  4.3772  2.9627
12434TIP3   OH237223   1.601   5.994   7.278  0.3604  0.2505  0.3279
12434TIP3    H137224   1.542   6.067   7.264 -1.5398 -0.9121  2.0182
12434TIP3    H237225   1.579   5.932   7.208 -2.0050 -1.1276  2.2296
12435TIP3   OH237226   3.990   3.016   4.754 -0.2720  0.1078  0.0859
12435TIP3    H137227   3.920   3.034   4.817 -1.5570  1.2115 -1.6389
12435TIP3    H237228   3.981   2.922   4.735 -1.0854  0.1841  0.0896
12436TIP3   OH237229   4.356   6.084   6.228  0.6088 -0.4882  0.5765
12436TIP3    H137230   4.363   6.170   6.188  1.1259  0.3059  2.3483
12436TIP3    H237231   4.428   6.033   6.189 -0.2852 -0.4372 -1.1849
12437TIP3   OH237232   5.108   6.555   4.065 -0.1124 -0.0919  0.2078
12437TIP3    H137233   5.170   6.572   4.135 -0.9140 -0.4417  1.0110
12437TIP3    H237234   5.118   6.629   4.005  1.2571 -0.2796  0.1826
12438TIP3   OH237235   6.079   3.955   6.569  0.1348 -0.6334 -1.5817
12438TIP3    H137236   6.046   3.870   6.540 -0.0080 -0.7164 -1.1779
12438TIP3    H237237   6.114   3.996   6.490  0.7519 -1.3169 -1.6629
12439TIP3   OH237238   3.878   3.687   5.984  0.6178  0.0944 -0.2956
12439TIP3    H137239   3.950   3.724   5.933 -0.7892 -0.6090 -2.9175
12439TIP3    H237240   3.866   3.599   5.948 -1.0322 -0.0897  0.6376
12440TIP3   OH237241   5.920   5.802   6.184  0.1203  0.0321 -0.0165
12440TIP3    H137242   5.926   5.732   6.119  0.6641 -0.9879  1.0974
12440TIP3    H237243   6.010   5.833   6.193 -0.0585  0.6077 -0.2274
12441TIP3   OH237244   7.495   3.686   4.896 -0.0443 -0.1131  0.6458
12441TIP3    H137245   7.508   3.682   4.801 -2.4853  1.4265  0.1982
12441TIP3    H237246   7.457   3.602   4.919 -2.0453  0.5403 -0.2119
12442TIP3   OH237247   6.672   4.499   6.654  0.2910 -0.3621  0.2190
12442TIP3    H137248   6.624   4.571   6.693  0.6114  1.4047 -2.4766
12442TIP3    H237249   6.736   4.473   6.720 -2.0099 -0.4144  2.4813
12443TIP3   OH237250   0.358   0.484   0.402 -0.4607  0.1320  0.3595
12443TIP3    H137251   0.386   0.538   0.476 -2.6802  0.2120  1.2001
12443TIP3    H237252   0.344   0.547   0.330  3.6750 -0.1719 -0.8221
12444TIP3   OH237253   7.611   7.003   0.297 -0.0522 -0.2134 -0.0736
12444TIP3    H137254   7.628   6.912   0.321  1.8546 -0.1400 -1.0283
12444TIP3    H237255   7.515   7.010   0.292 -0.3362 -1.2825  3.2616
12445TIP3   OH237256   4.738   1.945   5.429 -0.2286  0.1240 -0.1242
12445TIP3    H137257   4.799   1.948   5.503  0.0630  3.7069 -0.4373
12445TIP3    H237258   4.664   2.000   5.457 -0.5913  0.6554 -2.0997
12446TIP3   OH237259   7.340   4.688   6.967  0.3374  0.4264  0.0422
12446TIP3    H137260   7.253   4.666   6.998 -0.0514  0.8390 -0.7352
12446TIP3    H237261   7.397   4.676   7.043 -0.6484  1.7715  1.0106
12447TIP3   OH237262   4.774   4.675   5.169  0.6213 -0.3884 -0.2555
12447TIP3    H137263   4.825   4.673   5.250  0.1102 -0.0734  0.0741
12447TIP3    H237264   4.794   4.760   5.130 -0.8602  0.4136  0.6636
12448TIP3   OH237265   0.044   0.383   0.955  0.2149 -0.3148  0.1245
12448TIP3    H137266  -0.023   0.380   0.886  1.1910 -0.5298 -0.8235
12448TIP3    H237267  -0.002   0.419   1.031 -0.9264 -0.2540 -0.5772
12449TIP3   OH237268   4.758   7.253   0.089 -0.0109  0.2666 -0.1613
12449TIP3    H137269   4.688   7.317   0.081  1.1424  1.6284  0.4062
12449TIP3    H237270   4.826   7.298   0.140  0.9067 -1.3238  0.0420
12450TIP3   OH237271   6.864   3.523   5.279 -0.0970 -0.0939 -0.0854
12450TIP3    H137272   6.821   3.454   5.329  0.2031 -0.3338 -0.1555
12450TIP3    H237273   6.951   3.488   5.259 -0.1251  0.0979 -0.5646
12451TIP3   OH237274   4.846   4.654   5.423 -0.3233 -0.1717 -0.5191
12451TIP3    H137275   4.937   4.627   5.437 -0.5909 -1.0116 -0.3491
12451TIP3    H237276   4.834   4.729   5.481  0.6244  0.7448 -1.4756
12452TIP3   OH237277   2.393   6.260   4.059  0.1595  0.0282 -0.0001
12452TIP3    H137278   2.353   6.346   4.071 -0.1435 -0.1440  0.2210
12452TIP3    H237279   2.348   6.224   3.983 -0.6741 -0.4981  0.7357
12453TIP3   OH237280   1.032   4.477   6.166 -0.3655 -0.0375  0.1778
12453TIP3    H137281   1.065   4.468   6.076  0.5556 -1.1392  0.6062
12453TIP3    H237282   1.092   4.423   6.218 -0.7713  0.7655  1.4793
12454TIP3   OH237283   3.622   5.873   5.654  0.2322 -0.0433 -0.4173
12454TIP3    H137284   3.683   5.905   5.587 -0.8778 -0.5885 -1.7045
12454TIP3    H237285   3.666   5.797   5.691 -0.3100 -1.3772 -2.4201
12455TIP3   OH237286   4.857   5.311   2.707  0.0508  0.3702  0.5843
12455TIP3    H137287   4.874   5.256   2.630  0.7800  0.7863  0.4352
12455TIP3    H237288   4.870   5.401   2.674  0.9289  0.5207  1.3369
12456TIP3   OH237289   5.256   5.706   6.465 -0.8327  0.0648 -0.2605
12456TIP3    H137290   5.222   5.633   6.414 -0.0286  0.4601 -1.3944
12456TIP3    H237291   5.311   5.754   6.403 -1.3471  1.6194  0.4829
12457TIP3   OH237292   5.731   6.698   6.139  0.1134  0.0651 -0.4312
12457TIP3    H137293   5.649   6.666   6.177  0.7239 -0.5588  0.3772
12457TIP3    H237294   5.796   6.684   6.208  0.8943  0.5665 -1.0671
12458TIP3   OH237295   6.126   6.217   4.413  0.0502  0.3186 -0.1298
12458TIP3    H137296   6.067   6.289   4.390  0.4657  1.6311  2.6589
12458TIP3    H237297   6.205   6.260   4.445  1.5823 -1.4202 -1.4280
12459TIP3   OH237298   2.922   5.025   4.899 -0.4311  0.7403  0.4031
12459TIP3    H137299   2.975   5.043   4.977 -1.2307 -0.8629  1.3277
12459TIP3    H237300   2.854   5.093   4.900 -0.9343  0.2378  1.5848
12460TIP3   OH237301   3.480   6.785   4.917  0.5459  0.0548 -0.2562
12460TIP3    H137302   3.464   6.707   4.970  0.2780 -0.3407 -0.8981
12460TIP3    H237303   3.551   6.831   4.962  0.6712 -0.5355  0.1604
12461TIP3   OH237304   2.543   3.931   6.221  0.5479  0.6028 -0.3596
12461TIP3    H137305   2.602   3.907   6.150  1.3909  0.4276  0.3891
12461TIP3    H237306   2.464   3.878   6.207  0.2686  1.3760 -1.7836
12462TIP3   OH237307   3.674   3.069   4.248  0.3940 -0.2226 -0.1894
12462TIP3    H137308   3.740   3.028   4.305 -0.4022 -1.1065  0.1142
12462TIP3    H237309   3.607   3.001   4.237 -1.2315  1.2004  0.7692
12463TIP3   OH237310   6.112   4.954   4.067 -0.1226  0.3861  0.3169
12463TIP3    H137311   6.106   4.860   4.079 -0.5212  0.5113  1.1404
12463TIP3    H237312   6.120   4.966   3.972  2.0589 -0.5815  0.3413
12464TIP3   OH237313   4.933   2.988   3.935 -0.1699  0.0997  0.0469
12464TIP3    H137314   4.914   2.944   3.852  1.1074 -0.9213  0.2717
12464TIP3    H237315   5.028   2.980   3.946 -0.2880  0.4160  1.4887
12465TIP3   OH237316   1.878   4.279   7.146  0.6606 -0.0108 -0.0911
12465TIP3    H137317   1.786   4.286   7.121  0.6186  0.7060  0.2523
12465TIP3    H237318   1.883   4.322   7.231  1.1183 -0.9663  0.3701
12466TIP3   OH237319   6.053   5.400   3.106 -0.3217 -0.2190 -0.5499
12466TIP3    H137320   6.034   5.454   3.028 -2.8931  0.5862  0.5693
12466TIP3    H237321   6.115   5.453   3.156 -1.7406  1.1322 -0.1510
12467TIP3   OH237322   3.200   0.930   1.082  0.0799  0.3287 -0.0350
12467TIP3    H137323   3.259   1.004   1.088 -0.2750  0.5916  0.3055
12467TIP3    H237324   3.142   0.950   1.009  0.6990 -0.1452 -0.6657
12468TIP3   OH237325   4.483   5.250   5.497  0.1387 -0.5037  0.4408
12468TIP3    H137326   4.576   5.233   5.485  0.3126  0.0044  1.0540
12468TIP3    H237327   4.457   5.298   5.418  0.9557  1.5393  1.3661
12469TIP3   OH237328   5.072   4.385   5.618  0.0793  0.2858  0.3921
12469TIP3    H137329   5.144   4.417   5.673 -1.2005  0.0490  2.2190
12469TIP3    H237330   5.090   4.424   5.532  2.1563  0.5719  0.9189
12470TIP3   OH237331   6.281   5.204   3.594 -0.1782 -0.0729  0.5794
12470TIP3    H137332   6.327   5.286   3.575  0.4424 -0.6760 -0.5616
12470TIP3    H237333   6.241   5.179   3.511 -0.6199 -0.7624  0.9999
12471TIP3   OH237334   5.937   5.057   6.694 -0.5412  0.5477  0.5883
12471TIP3    H137335   5.911   5.073   6.785  0.1250  0.3875  0.8040
12471TIP3    H237336   5.854   5.043   6.648 -0.8408  0.0300  1.2839
12472TIP3   OH237337   1.021   0.418   0.380 -0.1259  0.1098 -0.2801
12472TIP3    H137338   1.069   0.335   0.384 -1.1060 -0.3888  1.8919
12472TIP3    H237339   0.931   0.393   0.362 -0.5275  0.6540  0.9296
12473TIP3   OH237340   4.383   4.875   6.750 -0.6459 -0.0067  0.4794
12473TIP3    H137341   4.417   4.786   6.748  1.5802  0.8298 -0.6276
12473TIP3    H237342   4.389   4.906   6.659 -0.5033  1.5717  0.9974
12474TIP3   OH237343   5.209   2.175   6.663 -0.2370 -0.5068  0.3281
12474TIP3    H137344   5.190   2.101   6.605  2.2456 -1.2528  0.4022
12474TIP3    H237345   5.230   2.134   6.747  0.2034  0.3458  0.6387
12475TIP3   OH237346   3.341   5.057   5.620  0.4571  0.2742  0.4370
12475TIP3    H137347   3.322   5.031   5.530  2.2954 -0.7395  0.3279
12475TIP3    H237348   3.355   4.975   5.667  1.5217  0.8766  1.1831
12476TIP3   OH237349   0.132   0.955   0.053  0.1846 -0.5038  0.1382
12476TIP3    H137350   0.124   0.882   0.115  3.2818 -1.9960 -1.0957
12476TIP3    H237351   0.069   0.937  -0.015  0.7115 -1.8897  0.0085
12477TIP3   OH237352   6.356   3.602   5.420  0.0367 -0.0959  0.4296
12477TIP3    H137353   6.429   3.655   5.388 -0.8262  0.3189 -0.9031
12477TIP3    H237354   6.349   3.529   5.358 -1.3533  0.4462 -0.0756
12478TIP3   OH237355   6.861   2.908   4.567 -0.2469  0.2173  0.0127
12478TIP3    H137356   6.808   2.897   4.647  0.2291 -1.6866  0.1039
12478TIP3    H237357   6.833   2.992   4.531 -0.6614  0.9809  2.0457
12479TIP3   OH237358   3.320   2.959   6.845  0.6261 -0.3089 -0.2105
12479TIP3    H137359   3.269   2.886   6.810  0.4923  0.5434 -1.8383
12479TIP3    H237360   3.406   2.950   6.803  1.2645 -0.7182  1.1618
12480TIP3   OH237361   3.394   4.338   6.147  0.3385 -0.3013 -0.4143
12480TIP3    H137362   3.445   4.257   6.137  1.1634  0.0473  0.8557
12480TIP3    H237363   3.377   4.366   6.057  3.4931  0.2489 -0.9205
12481TIP3   OH237364   5.673   8.246   1.449  0.2638  0.2873 -0.2902
12481TIP3    H137365   5.633   8.244   1.536 -1.2156 -0.3333 -0.9648
12481TIP3    H237366   5.680   8.339   1.428 -0.6710  0.4141 -0.0703
12482TIP3   OH237367   3.830   4.205   6.317 -0.3937 -0.1183 -0.1989
12482TIP3    H137368   3.779   4.205   6.236 -0.8585  3.0018  0.0383
12482TIP3    H237369   3.921   4.210   6.287 -0.5240  0.2383 -0.5496
12483TIP3   OH237370   3.125   7.290   6.349 -0.3898  0.6599  0.1528
12483TIP3    H137371   3.095   7.369   6.394 -1.9846  0.1734 -0.0363
12483TIP3    H237372   3.183   7.247   6.412 -0.4735  1.3532  0.7084
12484TIP3   OH237373   4.272   4.212   6.987 -0.7542 -0.3462 -0.1988
12484TIP3    H137374   4.284   4.221   7.082  0.8387 -0.9414 -0.3234
12484TIP3    H237375   4.233   4.295   6.960 -1.4305 -0.2543  1.0001
12485TIP3   OH237376   1.006   1.339   0.561  0.0632  0.0322 -0.6643
12485TIP3    H137377   1.073   1.407   0.569 -0.2466  0.2420  0.2356
12485TIP3    H237378   1.053   1.264   0.526  0.8164  0.1336  0.0874
12486TIP3   OH237379   1.000   8.227   0.366 -0.9818  0.2265 -0.2699
12486TIP3    H137380   0.951   8.151   0.333  2.0677 -1.6311 -0.7667
12486TIP3    H237381   1.032   8.199   0.452 -0.9749  1.4925  0.1483
12487TIP3   OH237382   2.671   5.545   7.253 -0.0339  0.4193 -0.1520
12487TIP3    H137383   2.577   5.562   7.249 -0.3087 -1.3589 -2.1808
12487TIP3    H237384   2.711   5.627   7.227 -1.0781  0.8527 -0.4260
12488TIP3   OH237385   3.255   5.959   5.313  0.2828 -0.7720  0.4466
12488TIP3    H137386   3.206   5.883   5.282  0.9831 -2.1242  2.5678
12488TIP3    H237387   3.336   5.922   5.349  2.2943  1.3048 -1.8089
12489TIP3   OH237388   2.627   5.488   4.768  0.4090 -0.2290  0.5324
12489TIP3    H137389   2.616   5.532   4.852  0.3156  0.3506  0.2207
12489TIP3    H237390   2.545   5.439   4.756  0.2483  0.0245  0.5838
12490TIP3   OH237391   4.176   6.435   5.805  0.3142 -0.3656  0.9740
12490TIP3    H137392   4.109   6.372   5.777 -0.2106  0.4451  0.3875
12490TIP3    H237393   4.259   6.393   5.784 -0.0062 -1.3369  1.6142
12491TIP3   OH237394   4.720   3.888   5.845 -0.3645  0.1933 -0.3131
12491TIP3    H137395   4.803   3.902   5.890  0.3356 -1.5358 -1.0046
12491TIP3    H237396   4.744   3.840   5.765 -2.2483 -2.3000  0.5716
12492TIP3   OH237397   0.739   0.631   0.707 -0.2042 -0.2205 -0.2459
12492TIP3    H137398   0.816   0.593   0.665  0.4938 -0.3716  1.1843
12492TIP3    H237399   0.742   0.724   0.683  0.2929 -0.2701 -0.3819
12493TIP3   OH237400   0.008   0.600   0.023  0.7664 -0.3389 -0.1730
12493TIP3    H137401   0.043   0.516   0.052 -0.1299 -0.8327 -0.5150
12493TIP3    H237402   0.019   0.599  -0.072  0.1934 -0.3280 -0.2411
12494TIP3   OH237403   5.147   6.010   6.097  0.7540  0.6539 -0.1741
12494TIP3    H137404   5.169   5.917   6.090  2.1194  0.8648  0.9497
12494TIP3    H237405   5.121   6.021   6.188  1.2004  1.4880 -0.1413
12495TIP3   OH237406   3.760   5.036   5.161 -0.4419 -0.3837 -0.4965
12495TIP3    H137407   3.716   5.004   5.083 -2.1010 -2.4501  1.2041
12495TIP3    H237408   3.697   5.095   5.202 -0.3426 -0.7716  0.2326
12496TIP3   OH237409   6.820   2.314   5.168  0.3526 -0.0750 -0.4080
12496TIP3    H137410   6.862   2.389   5.208  3.4196 -0.8359 -2.0787
12496TIP3    H237411   6.798   2.343   5.079 -1.3776 -0.1753 -0.0431
12497TIP3   OH237412   6.961   5.071   4.962 -1.1640 -0.3305 -0.2618
12497TIP3    H137413   6.901   5.078   4.888 -0.2012 -2.4719 -1.2814
12497TIP3    H237414   6.961   4.978   4.985  0.5868 -0.1223  0.6994
12498TIP3   OH237415   3.568   3.369   6.895  0.0835 -0.6480  0.1204
12498TIP3    H137416   3.529   3.360   6.808 -2.1315 -0.2824  1.0231
12498TIP3    H237417   3.553   3.283   6.936  0.9221 -0.7470  0.2239
12499TIP3   OH237418   3.530   3.203   6.220  0.4137 -0.6206  0.2602
12499TIP3    H137419   3.436   3.222   6.222  0.5063 -0.2548  1.4808
12499TIP3    H237420   3.566   3.269   6.160 -0.0486 -0.4887  0.1209
12500TIP3   OH237421   4.230   5.186   5.251 -0.1588 -0.3713 -0.4561
12500TIP3    H137422   4.152   5.134   5.269 -0.2431  0.3061  1.2576
12500TIP3    H237423   4.303   5.130   5.276 -0.2606  0.4087  1.7374
12501TIP3   OH237424   6.350   7.282   0.435  0.2432 -0.0322 -0.4495
12501TIP3    H137425   6.405   7.251   0.507  0.1407 -2.1221 -1.2587
12501TIP3    H237426   6.296   7.207   0.411 -0.2771  0.8738 -2.1957
12502TIP3   OH237427   5.163   4.351   6.453  0.5888  0.5763  0.5611
12502TIP3    H137428   5.111   4.300   6.515 -0.2281  0.7671  0.0544
12502TIP3    H237429   5.113   4.432   6.441  1.2254  0.9436  0.3902
12503TIP3   OH237430   3.522   4.820   4.766 -0.2038  0.3121 -0.6700
12503TIP3    H137431   3.462   4.885   4.729 -0.1744  0.8065  0.1314
12503TIP3    H237432   3.600   4.826   4.711 -0.6734  0.0468 -1.3834
12504TIP3   OH237433   4.215   0.963   4.519 -0.3782 -0.1275  0.3941
12504TIP3    H137434   4.155   0.906   4.471 -1.6023  0.8004  0.8013
12504TIP3    H237435   4.193   0.950   4.611  1.1105 -0.9557  0.6385
12505TIP3   OH237436   4.226   4.739   6.339  0.4228 -0.3093 -0.6767
12505TIP3    H137437   4.270   4.665   6.380 -0.2425  0.0050  0.6255
12505TIP3    H237438   4.133   4.717   6.343  0.3120 -0.0205 -1.5247
12506TIP3   OH237439   3.356   5.842   3.572 -0.8649 -0.2524 -0.2549
12506TIP3    H137440   3.304   5.879   3.644  0.6436  0.5556  0.4449
12506TIP3    H237441   3.326   5.751   3.564 -0.6716 -0.5054  1.7623
12507TIP3   OH237442   2.967   6.749   3.757  0.4293 -0.0007  0.6969
12507TIP3    H137443   2.921   6.832   3.754  1.7023  0.7109  0.4887
12507TIP3    H237444   2.975   6.723   3.665  0.3447 -0.1835  0.7402
12508TIP3   OH237445   7.314   6.660   0.298 -0.1736 -0.3348  0.2704
12508TIP3    H137446   7.277   6.610   0.370 -1.6233  1.3838  0.7459
12508TIP3    H237447   7.391   6.703   0.336 -0.5332  0.0159  0.5976
12509TIP3   OH237448   0.504   0.388   1.371 -1.0134  0.8359 -0.2348
12509TIP3    H137449   0.523   0.310   1.318 -2.4087  0.7254 -0.5912
12509TIP3    H237450   0.504   0.356   1.461 -0.7601  0.5931 -0.3181
12510TIP3   OH237451   4.797   4.762   5.718 -0.1450  0.3480 -0.4273
12510TIP3    H137452   4.718   4.712   5.698  1.2280 -1.7764 -0.6263
12510TIP3    H237453   4.859   4.698   5.752  1.6951  1.8934 -0.7764
12511TIP3   OH237454   5.262   6.878   6.259  0.3180 -0.0296 -0.0341
12511TIP3    H137455   5.297   6.933   6.189  0.6726 -0.0321  0.1408
12511TIP3    H237456   5.237   6.939   6.327  0.4132 -0.0598  0.0283
12512TIP3   OH237457   4.332   5.310   6.870  0.0769  0.4847  0.0726
12512TIP3    H137458   4.358   5.341   6.783  1.1330 -1.7347 -0.4397
12512TIP3    H237459   4.237   5.302   6.866 -0.0320  1.8597 -0.3608
12513TIP3   OH237460   7.570   6.489   3.029  0.1918 -0.6419  0.1360
12513TIP3    H137461   7.605   6.514   2.944  2.7656  0.5996  1.4998
12513TIP3    H237462   7.495   6.548   3.043  0.3728 -0.1813 -0.8162
12514TIP3   OH237463   8.027   4.282   4.592  0.7036 -0.4142  0.0936
12514TIP3    H137464   8.076   4.286   4.509 -0.5898  0.9642 -0.6303
12514TIP3    H237465   8.059   4.203   4.635  2.2159 -0.5395 -1.2119
12515TIP3   OH237466   4.916   5.027   4.721 -0.0150 -0.0858  0.2130
12515TIP3    H137467   4.871   4.945   4.699 -1.3555  0.4910  0.7521
12515TIP3    H237468   5.006   5.014   4.690 -0.4218 -1.4445 -0.4438
12516TIP3   OH237469   6.391   6.587   5.422 -0.2666 -0.4866  0.0085
12516TIP3    H137470   6.322   6.608   5.358  0.2625 -0.5390 -0.5830
12516TIP3    H237471   6.440   6.669   5.431 -0.6637 -0.3228  0.7601
12517TIP3   OH237472   5.048   6.614   5.207 -0.2267  0.1130 -0.3011
12517TIP3    H137473   5.042   6.546   5.274 -2.3621 -1.0062 -1.5923
12517TIP3    H237474   5.111   6.580   5.143  0.6435  0.5130  0.3224
12518TIP3   OH237475   4.516   4.383   4.814  0.1209 -0.0556  0.4854
12518TIP3    H137476   4.548   4.462   4.857  0.3555 -0.4621  1.0662
12518TIP3    H237477   4.581   4.316   4.834 -0.7927 -0.7533  1.2164
12519TIP3   OH237478   5.513   4.583   4.772  0.2431 -0.7443  0.7591
12519TIP3    H137479   5.472   4.498   4.757  0.8794 -1.2674  1.9403
12519TIP3    H237480   5.599   4.575   4.731 -1.1586  0.6983 -2.6189
12520TIP3   OH237481   7.249   3.839   4.529 -0.0730 -0.1330  0.1586
12520TIP3    H137482   7.159   3.805   4.533  0.2602 -1.2171 -1.0242
12520TIP3    H237483   7.275   3.851   4.620 -1.3481  0.0100  0.5152
12521TIP3   OH237484   6.850   6.435   2.860  0.3862 -0.0233  0.1459
12521TIP3    H137485   6.849   6.339   2.857  0.1479 -0.0507  1.1578
12521TIP3    H237486   6.784   6.461   2.795 -0.1281 -0.5512  0.4554
12522TIP3   OH237487   8.009   6.574   4.702 -0.0783 -0.5744 -0.0956
12522TIP3    H137488   7.913   6.575   4.709 -0.1148  0.2387 -0.6286
12522TIP3    H237489   8.036   6.497   4.751 -0.8589  0.5002  2.0889
12523TIP3   OH237490   6.640   4.121   5.213  0.0426 -0.0059 -0.2949
12523TIP3    H137491   6.719   4.091   5.258 -0.4260 -0.7873  0.0184
12523TIP3    H237492   6.580   4.046   5.216 -1.2766  1.0607  0.7925
12524TIP3   OH237493   6.160   5.104   5.278  0.1159 -0.2312 -0.4921
12524TIP3    H137494   6.125   5.074   5.194 -1.3088 -0.2126  0.0832
12524TIP3    H237495   6.143   5.031   5.338 -0.1728  0.3213  0.1050
12525TIP3   OH237496   0.532   8.355   0.208  0.5052  0.7678 -0.0065
12525TIP3    H137497   0.504   8.304   0.284  0.7684  0.4703 -0.1095
12525TIP3    H237498   0.465   8.337   0.142  0.3533  0.9139  0.1069
12526TIP3   OH237499   5.575   5.363   6.070  0.0199 -0.1425 -0.3829
12526TIP3    H137500   5.648   5.315   6.110  0.9247  1.6041  0.1712
12526TIP3    H237501   5.564   5.324   5.984  1.4309 -0.6242 -0.3551
12527TIP3   OH237502   6.079   4.904   2.618 -0.3779  0.3143  0.4409
12527TIP3    H137503   6.013   4.946   2.673  0.4754  0.0005  1.7447
12527TIP3    H237504   6.066   4.811   2.632  0.0386  0.2412  0.3369
12528TIP3   OH237505   6.094   6.375   4.920 -0.0846  0.1726 -0.3714
12528TIP3    H137506   6.047   6.332   4.992 -2.5885 -0.3496 -2.2249
12528TIP3    H237507   6.185   6.348   4.932 -0.8094 -1.7370  1.3058
12529TIP3   OH237508   6.025   5.307   5.360 -0.4224  0.0353  0.0610
12529TIP3    H137509   6.080   5.234   5.333  1.6293  1.3290  0.6556
12529TIP3    H237510   5.962   5.317   5.288  0.5687 -1.0062 -0.9784
12530TIP3   OH237511   6.558   7.100   4.043  0.1739  0.8074 -0.0473
12530TIP3    H137512   6.467   7.119   4.067  0.2732 -0.3969  1.3030
12530TIP3    H237513   6.551   7.025   3.983  0.1379  2.0040 -1.5617
12531TIP3   OH237514   6.036   6.159   5.833  0.0387 -0.2847 -0.0798
12531TIP3    H137515   6.041   6.064   5.844  1.4302 -0.3713 -1.2877
12531TIP3    H237516   6.114   6.182   5.782 -0.9338  1.3416 -0.9067
12532TIP3   OH237517   6.658   4.769   4.353 -0.2802  0.4781 -0.6621
12532TIP3    H137518   6.690   4.817   4.430  0.9797  0.5945 -1.2424
12532TIP3    H237519   6.594   4.827   4.313  0.7566  1.4101 -0.9865
12533TIP3   OH237520   7.243   4.380   3.764  0.4011  0.1476 -0.2169
12533TIP3    H137521   7.203   4.296   3.786  0.6869 -0.1950 -1.0085
12533TIP3    H237522   7.291   4.405   3.843  1.2510 -0.9721 -0.3709
12534TIP3   OH237523   6.000   7.800   3.123  0.1372 -0.2824  0.0576
12534TIP3    H137524   5.965   7.881   3.161  0.8139  0.1386 -0.1929
12534TIP3    H237525   6.067   7.830   3.062 -0.7537 -0.9735 -1.2658
12535TIP3   OH237526   5.107   7.002   6.831  0.7679 -0.2758  0.1293
12535TIP3    H137527   5.081   7.048   6.751 -0.1959  2.3126  1.8627
12535TIP3    H237528   5.191   7.041   6.855  0.0409  0.4758  1.5045
12536TIP3   OH237529   6.288   5.900   3.964  0.0447  0.2000  0.1780
12536TIP3    H137530   6.308   5.947   3.883  0.5438  0.3618  0.3864
12536TIP3    H237531   6.203   5.935   3.992  0.0121  0.3608 -0.1173
12537TIP3   OH237532   7.553   3.836   4.477 -0.2865 -0.5858  0.6580
12537TIP3    H137533   7.553   3.829   4.381  0.0243 -1.8413  0.7473
12537TIP3    H237534   7.645   3.845   4.500 -0.4458  0.9826  0.7670
12538TIP3   OH237535   5.045   3.521   5.913  0.3061 -0.6201 -0.1400
12538TIP3    H137536   5.100   3.487   5.843 -0.8111 -1.7710 -0.4947
12538TIP3    H237537   5.099   3.514   5.992  1.0509 -0.6960 -0.6523
12539TIP3   OH237538   4.891   6.695   4.318  0.3561  0.5572 -0.6747
12539TIP3    H137539   4.850   6.615   4.284  2.3524 -1.2488  1.0012
12539TIP3    H237540   4.884   6.758   4.247 -0.4634 -1.3866 -2.3672
12540TIP3   OH237541   7.234   6.770   5.259  0.1146  0.1077 -0.0948
12540TIP3    H137542   7.234   6.839   5.326 -0.9114 -0.6859  0.7459
12540TIP3    H237543   7.323   6.736   5.260 -0.3370 -1.1391  2.2100
12541TIP3   OH237544   7.928   7.788   4.671  0.1476 -0.6910  0.0775
12541TIP3    H137545   7.982   7.818   4.744 -2.7618  1.8596  1.2727
12541TIP3    H237546   7.904   7.868   4.625 -0.8480 -1.9818 -1.7049
12542TIP3   OH237547   6.759   4.868   4.593 -0.4935 -0.6306 -0.5059
12542TIP3    H137548   6.718   4.846   4.676 -0.4493  0.7500 -0.1168
12542TIP3    H237549   6.853   4.860   4.610 -0.5099 -1.2361 -0.6808
12543TIP3   OH237550   4.766   6.380   5.123  0.0342  0.1680 -0.2719
12543TIP3    H137551   4.766   6.472   5.097  0.8526  0.4054  0.5357
12543TIP3    H237552   4.673   6.356   5.126 -0.1414  0.6722 -1.4932
12544TIP3   OH237553   7.610   4.864   4.515  0.0583 -0.5139 -0.0268
12544TIP3    H137554   7.535   4.890   4.462  0.5006  0.1775 -0.3164
12544TIP3    H237555   7.627   4.773   4.489  1.6561  0.5140 -2.6916
12545TIP3   OH237556   5.519   6.372   3.950  0.0072 -0.2653  0.2859
12545TIP3    H137557   5.454   6.441   3.954 -0.3135 -0.5293 -0.3342
12545TIP3    H237558   5.490   6.307   4.013 -0.9769 -0.9349 -0.8441
12546TIP3   OH237559   4.507   6.559   4.421  0.2879 -0.3652 -0.3105
12546TIP3    H137560   4.413   6.578   4.418  0.4442  0.2929 -1.4756
12546TIP3    H237561   4.545   6.633   4.469  0.2928 -0.3020 -0.4118
12547TIP3   OH237562   7.646   4.440   4.685 -0.2841 -0.3226 -0.0770
12547TIP3    H137563   7.665   4.491   4.607  0.8506 -0.1603  0.2973
12547TIP3    H237564   7.610   4.357   4.652  2.4443 -1.2251 -0.8555
12548TIP3   OH237565   4.863   3.341   6.004 -0.0465  0.1920 -0.1237
12548TIP3    H137566   4.913   3.417   5.975  0.8599  0.2597  1.5377
12548TIP3    H237567   4.807   3.374   6.074 -2.0820 -0.0004 -1.6130
12549TIP3   OH237568   6.167   6.478   3.229  0.1451  0.0218 -0.5290
12549TIP3    H137569   6.079   6.516   3.226  0.6851  1.1641 -3.5883
12549TIP3    H237570   6.156   6.390   3.191 -0.1501 -0.9443  1.7155
12550TIP3   OH237571   7.535   6.034   5.600  0.2446  0.0880  0.2376
12550TIP3    H137572   7.551   5.942   5.579 -0.8486 -0.7404  2.8433
12550TIP3    H237573   7.458   6.058   5.549 -0.5681 -0.9726  0.9782
12551TIP3   OH237574   6.272   6.245   3.952 -0.2540 -0.1426 -0.3643
12551TIP3    H137575   6.324   6.222   4.030 -1.1185 -1.6900 -0.2340
12551TIP3    H237576   6.182   6.249   3.984 -0.6031 -0.7108 -1.2626
12552TIP3   OH237577   6.854   4.132   4.736  0.7122 -0.2725 -0.0828
12552TIP3    H137578   6.772   4.088   4.717  0.4391  0.4710 -0.6789
12552TIP3    H237579   6.830   4.206   4.791  0.9677 -0.0284 -0.2913
12553TIP3   OH237580   5.018   5.590   7.019 -0.3465 -0.1684 -0.1418
12553TIP3    H137581   5.077   5.585   6.944 -0.0699  0.1320  0.0543
12553TIP3    H237582   5.056   5.659   7.075  0.3854 -1.5228  1.0800
12554TIP3   OH237583   5.113   7.366   4.907 -0.0926 -0.1474  0.0874
12554TIP3    H137584   5.071   7.447   4.935 -1.7935 -1.1211  0.4161
12554TIP3    H237585   5.206   7.389   4.897 -0.3296  1.4827  1.4970
12555TIP3   OH237586   6.318   1.459   5.696  0.6686 -0.1440 -1.1977
12555TIP3    H137587   6.237   1.497   5.729  1.3988  1.5725 -1.3724
12555TIP3    H237588   6.341   1.392   5.760 -0.9677 -0.7901 -1.2407
12556TIP3   OH237589   4.504   4.733   5.623 -0.3851 -0.3203  0.1296
12556TIP3    H137590   4.449   4.805   5.594  0.8177  0.7422  0.4023
12556TIP3    H237591   4.524   4.683   5.544  2.4107  2.2189 -0.8607
12557TIP3   OH237592   7.227   4.150   4.873 -0.6028 -0.2183 -0.2396
12557TIP3    H137593   7.278   4.130   4.951  0.8235  0.9081 -0.8542
12557TIP3    H237594   7.180   4.230   4.895  1.4406  1.3136 -1.2203
12558TIP3   OH237595   7.115   4.420   4.931  0.2114  0.4315  0.0844
12558TIP3    H137596   7.023   4.406   4.909  0.8799 -0.3299 -2.4201
12558TIP3    H237597   7.155   4.448   4.849  1.9607  2.1621  1.4680
12559TIP3   OH237598   6.186   7.014   5.312  0.6118  0.0563  0.1418
12559TIP3    H137599   6.145   7.037   5.229  1.5760 -1.4443 -0.7847
12559TIP3    H237600   6.124   7.042   5.379 -0.6215  0.3919 -1.1229
12560TIP3   OH237601   7.539   4.212   3.955 -0.0599 -0.1340 -0.1379
12560TIP3    H137602   7.545   4.156   3.878 -0.6630  0.7600 -0.8348
12560TIP3    H237603   7.630   4.232   3.977  0.0828  0.4451 -1.2292
12561TIP3   OH237604   6.561   5.898   3.508  0.1838  0.0096  0.1927
12561TIP3    H137605   6.598   5.985   3.497  0.7654 -0.2544 -0.0188
12561TIP3    H237606   6.581   5.853   3.426  0.4676 -0.5207  0.5409
12562TIP3   OH237607   5.084   6.954   3.102  0.0219 -0.2315  0.0079
12562TIP3    H137608   5.033   6.892   3.154 -1.1943  0.1301 -0.7503
12562TIP3    H237609   5.074   7.037   3.148  2.4124 -0.7471  1.5488
12563TIP3   OH237610   5.751   3.914   5.130  0.1915 -0.1440 -0.0521
12563TIP3    H137611   5.700   3.839   5.161  0.5839 -0.9792 -1.3951
12563TIP3    H237612   5.764   3.968   5.209  1.0781 -2.1594  1.2229
12564TIP3   OH237613   8.895   5.890   6.093  0.1539 -0.1986  0.0610
12564TIP3    H137614   8.847   5.827   6.147 -0.9280 -0.5174 -1.2573
12564TIP3    H237615   8.833   5.914   6.024  1.3608  0.5694 -0.7596
12565TIP3   OH237616   5.197   5.741   4.957 -0.0176  0.0618  0.5888
12565TIP3    H137617   5.270   5.803   4.965  0.6021 -0.4068 -1.1727
12565TIP3    H237618   5.236   5.657   4.982  0.4343 -0.4268 -1.6857
12566TIP3   OH237619   4.208   6.730   5.161 -0.3002 -0.1034  0.4975
12566TIP3    H137620   4.215   6.826   5.154  0.0080 -0.1064  0.7495
12566TIP3    H237621   4.213   6.700   5.070  1.9135 -0.0167  0.5576
12567TIP3   OH237622   7.998   4.091   5.399  0.4098 -0.0086 -0.1454
12567TIP3    H137623   8.044   4.071   5.318  0.7727 -0.4508  0.1607
12567TIP3    H237624   8.061   4.071   5.468  0.7629  2.1640  0.1993
12568TIP3   OH237625   6.925   4.246   5.184 -0.2307 -0.4365  0.6557
12568TIP3    H137626   6.894   4.291   5.263 -0.0243  1.6771 -0.4506
12568TIP3    H237627   6.944   4.157   5.214 -2.6441 -0.4084  2.4375
12569TIP3   OH237628   4.883   5.854   3.708 -0.3113 -0.0447 -0.0025
12569TIP3    H137629   4.883   5.890   3.620 -0.5937  1.7873  0.7218
12569TIP3    H237630   4.846   5.924   3.763  1.2052 -0.5746  1.7707
12570TIP3   OH237631   6.048   3.792   3.062 -0.9493 -0.2635 -0.4475
12570TIP3    H137632   6.129   3.784   3.010 -1.2678 -0.4565 -0.9244
12570TIP3    H237633   6.049   3.715   3.119 -0.1480  0.4231  0.4808
12571TIP3   OH237634   6.710   5.901   4.644  0.0115 -0.0106  0.1202
12571TIP3    H137635   6.687   5.965   4.712 -0.0548  1.8062 -1.5632
12571TIP3    H237636   6.672   5.937   4.564 -0.7878 -2.6387 -0.7190
12572TIP3   OH237637   4.754   4.035   4.695  0.3634 -0.1806 -0.0689
12572TIP3    H137638   4.715   4.082   4.768  3.1556  1.7534  0.2835
12572TIP3    H237639   4.775   4.103   4.632  3.5984 -1.0337  0.0105
12573TIP3   OH237640   6.900   7.203   3.983 -0.4807  0.6280 -0.2183
12573TIP3    H137641   6.913   7.281   4.037 -1.7020  0.1193  0.8303
12573TIP3    H237642   6.806   7.202   3.964 -0.4015 -0.3470 -0.5919
12574TIP3   OH237643   5.538   5.671   5.344  0.3040  0.1647 -0.1635
12574TIP3    H137644   5.473   5.618   5.297 -0.4842  1.3671 -0.4658
12574TIP3    H237645   5.525   5.648   5.436  1.5337 -1.8497 -0.4628
12575TIP3   OH237646   8.512   4.219   6.741 -0.0166 -0.9228 -0.9456
12575TIP3    H137647   8.501   4.131   6.776 -0.0336 -1.2199 -1.7002
12575TIP3    H237648   8.600   4.220   6.704  0.8394  0.0598  1.0158
12576TIP3   OH237649   6.584   6.493   5.011 -0.2203  0.2004 -0.0998
12576TIP3    H137650   6.599   6.429   4.942  0.9047 -0.2755  0.5737
12576TIP3    H237651   6.660   6.551   5.007 -0.8386  1.0134 -0.1778
12577TIP3   OH237652   5.735   1.887   5.306 -0.3491 -0.0415 -0.1856
12577TIP3    H137653   5.795   1.859   5.375  0.3187  0.9354 -0.3516
12577TIP3    H237654   5.703   1.805   5.268  1.8997 -0.6124 -0.9499
12578TIP3   OH237655   6.051   3.360   6.729 -0.1677  0.8587 -0.8638
12578TIP3    H137656   5.959   3.377   6.711 -0.5686 -0.6827 -0.3401
12578TIP3    H237657   6.053   3.334   6.821  0.5690 -0.7696 -1.3330
12579TIP3   OH237658   4.497   5.526   6.074  0.0389  0.6772 -0.0473
12579TIP3    H137659   4.558   5.492   6.008 -0.5122  1.3288 -0.8947
12579TIP3    H237660   4.434   5.578   6.025 -1.9069 -0.9331  0.6560
12580TIP3   OH237661   8.195   2.570   4.485  0.0244 -0.2013  0.0800
12580TIP3    H137662   8.120   2.623   4.512 -0.3920  0.7525 -2.7452
12580TIP3    H237663   8.157   2.492   4.445  0.5457 -0.4428  0.0526
12581TIP3   OH237664   5.565   3.624   4.240 -0.4629 -0.1757  0.1478
12581TIP3    H137665   5.628   3.635   4.311 -1.0947  1.0989  0.5191
12581TIP3    H237666   5.515   3.706   4.239 -0.1954 -0.0108 -2.0310
12582TIP3   OH237667   5.317   5.511   5.113 -0.6364  0.3231  0.1771
12582TIP3    H137668   5.311   5.448   5.184  2.1825 -1.0223 -0.6874
12582TIP3    H237669   5.292   5.594   5.152  0.7698 -0.4026  2.7297
12583TIP3   OH237670   6.976   4.510   4.625  0.2156 -0.8191  0.3305
12583TIP3    H137671   6.923   4.467   4.558  0.7556  1.3413 -1.5440
12583TIP3    H237672   7.063   4.474   4.615  0.3766 -0.2365 -0.3803
12584TIP3   OH237673   0.048   5.667   7.141 -0.4102 -0.3755  0.3861
12584TIP3    H137674   0.037   5.761   7.151 -0.4757 -0.4297  0.8605
12584TIP3    H237675   0.126   5.658   7.087  1.4247 -0.0594  2.8579
12585TIP3   OH237676   7.037   2.832   4.389  0.4826 -0.6086  0.6432
12585TIP3    H137677   7.085   2.905   4.350 -0.9408 -0.1622 -0.3172
12585TIP3    H237678   6.983   2.873   4.457 -0.6757 -0.6731 -0.2167
12586TIP3   OH237679   5.961   7.130   4.605  0.4970 -0.2048  0.0572
12586TIP3    H137680   6.052   7.111   4.582  0.3813 -0.2109 -0.3974
12586TIP3    H237681   5.962   7.222   4.631  0.6785 -0.2710  0.2876
12587TIP3   OH237682   6.389   7.350   6.925  0.5810 -0.4147  0.4710
12587TIP3    H137683   6.403   7.266   6.968  2.0362 -1.2216 -1.5490
12587TIP3    H237684   6.340   7.330   6.846 -0.7213  0.8873  0.9124
12588TIP3   OH237685   5.791   5.758   4.851 -0.0664 -0.3526 -0.0318
12588TIP3    H137686   5.816   5.846   4.878 -0.0365 -0.7596  1.3236
12588TIP3    H237687   5.787   5.762   4.756 -0.7736  1.2958  0.0504
12589TIP3   OH237688   6.512   4.050   4.586 -0.2274  0.1104 -0.5628
12589TIP3    H137689   6.418   4.040   4.573 -0.3370 -0.3395  0.4632
12589TIP3    H237690   6.520   4.127   4.643  0.0427  0.2615 -0.8004
12590TIP3   OH237691   5.180   4.155   5.470 -1.0460  0.1323  0.2600
12590TIP3    H137692   5.142   4.236   5.503 -1.8686 -0.3572  0.5348
12590TIP3    H237693   5.241   4.127   5.538 -1.0646  0.3120  0.3486
12591TIP3   OH237694   5.916   6.572   4.586 -0.2467 -0.3899  1.0199
12591TIP3    H137695   5.981   6.591   4.518 -0.5229  0.6422  1.0318
12591TIP3    H237696   5.958   6.598   4.668 -0.4764 -0.2206  1.0833
12592TIP3   OH237697   5.372   7.352   6.318  0.6022 -0.1952  0.5473
12592TIP3    H137698   5.432   7.295   6.270  0.9144  1.9855 -1.7520
12592TIP3    H237699   5.423   7.431   6.336 -1.0866  1.0488 -0.0130
12593TIP3   OH237700   8.065   2.456   3.818  0.8253  0.1246 -0.1039
12593TIP3    H137701   8.005   2.436   3.745  1.7468 -3.5334  0.0746
12593TIP3    H237702   8.007   2.475   3.892 -0.1274 -0.4790 -0.6871
12594TIP3   OH237703   7.047   4.795   5.897  0.5608 -0.4897  0.2104
12594TIP3    H137704   7.026   4.869   5.840 -1.5507 -1.0908  0.1640
12594TIP3    H237705   7.068   4.835   5.982 -0.6496  0.1775  0.2126
12595TIP3   OH237706   6.343   3.718   3.455 -0.6525  0.0534  0.0233
12595TIP3    H137707   6.324   3.713   3.549 -0.2824  0.8104  0.1448
12595TIP3    H237708   6.356   3.627   3.428 -1.2248 -0.2044  0.6092
12596TIP3   OH237709   4.777   4.280   4.892 -0.8584 -0.5488  0.2705
12596TIP3    H137710   4.837   4.348   4.921 -1.2136  0.7818 -2.0317
12596TIP3    H237711   4.811   4.200   4.933  0.6009  0.6792  1.5585
12597TIP3   OH237712   6.035   4.688   3.513 -0.6491 -0.5677 -0.9518
12597TIP3    H137713   6.119   4.673   3.556 -0.7890 -1.5129 -0.9999
12597TIP3    H237714   6.047   4.653   3.424 -0.5222  0.9123 -1.5372
12598TIP3   OH237715   5.763   6.926   4.664 -0.5379 -0.8765 -0.0125
12598TIP3    H137716   5.709   6.980   4.722 -3.1374 -1.1536 -2.0779
12598TIP3    H237717   5.845   6.974   4.657 -1.0423  0.3324  2.0452
12599TIP3   OH237718   4.993   4.635   5.854 -0.1807  0.1855 -0.4530
12599TIP3    H137719   5.067   4.645   5.914 -0.5131 -0.0315  0.0060
12599TIP3    H237720   4.941   4.565   5.894  1.1455 -2.0768 -2.5826
12600TIP3   OH237721   6.863   5.589   6.030 -0.6482  0.0087  0.8387
12600TIP3    H137722   6.880   5.496   6.016 -1.3254 -0.2050  1.3991
12600TIP3    H237723   6.906   5.633   5.957  1.8779 -0.5331  1.9762
12601TIP3   OH237724   7.337   5.934   4.795  0.3850  0.7123  0.1497
12601TIP3    H137725   7.374   5.989   4.725 -0.2082  2.3161  1.0843
12601TIP3    H237726   7.290   5.865   4.748  1.1975  0.9557 -1.0440
12602TIP3   OH237727   6.927   7.940   5.734  0.5828  0.6117 -0.2483
12602TIP3    H137728   6.952   7.871   5.797 -1.9482  1.1190  1.3861
12602TIP3    H237729   6.993   8.008   5.746  1.5734 -0.3798  0.0556
12603TIP3   OH237730   6.067   5.455   5.826  0.1620 -0.3036 -0.4209
12603TIP3    H137731   6.075   5.441   5.731  0.8032  0.9486 -0.5615
12603TIP3    H237732   6.044   5.369   5.861 -1.1512 -0.5596 -1.8341
12604TIP3   OH237733   8.802   6.066   4.224  0.1572  0.8706  0.4665
12604TIP3    H137734   8.770   6.047   4.312 -0.8395 -0.2424 -0.1324
12604TIP3    H237735   8.731   6.114   4.183 -0.4146 -0.8582 -0.5862
12605TIP3   OH237736   6.046   3.513   4.101 -0.5153 -0.1370  0.3069
12605TIP3    H137737   6.088   3.445   4.153 -0.8477 -0.2359  0.4513
12605TIP3    H237738   5.953   3.508   4.126 -0.3101  1.3680  1.4147
12606TIP3   OH237739   4.891   4.436   5.119 -0.7251  0.6577  0.1361
12606TIP3    H137740   4.825   4.394   5.174 -1.7413  1.0011 -0.8152
12606TIP3    H237741   4.871   4.530   5.124  0.5475  0.8990  0.9624
12607TIP3   OH237742   5.064   5.543   3.836  0.1042  0.1603 -0.1237
12607TIP3    H137743   5.005   5.612   3.809  0.6317  0.0229 -1.6697
12607TIP3    H237744   5.025   5.462   3.802  1.2199  0.0811 -1.2839
12608TIP3   OH237745   4.963   5.148   4.257 -0.2779 -0.6371  0.1357
12608TIP3    H137746   4.967   5.070   4.312  2.1992  0.0488  0.9951
12608TIP3    H237747   4.999   5.120   4.173 -0.5432 -0.7346  0.0548
12609TIP3   OH237748   4.728   6.690   3.469 -0.7244  0.3757 -0.1522
12609TIP3    H137749   4.660   6.658   3.529  0.5045 -0.9141  0.5842
12609TIP3    H237750   4.710   6.645   3.387  0.1918 -1.2119  0.5010
12610TIP3   OH237751   4.771   7.522   4.358 -0.6114 -0.0778  0.0738
12610TIP3    H137752   4.690   7.492   4.317 -0.8398 -0.3273  0.6948
12610TIP3    H237753   4.836   7.522   4.287 -0.6989 -1.6720 -0.0289
12611TIP3   OH237754   5.138   6.354   4.705 -0.1928  0.0673  0.7258
12611TIP3    H137755   5.092   6.270   4.708 -1.4550  0.7399  0.3864
12611TIP3    H237756   5.122   6.388   4.617  1.2027  0.1813  0.5009
12612TIP3   OH237757   6.536   3.625   4.985  0.4235 -0.3292 -0.1015
12612TIP3    H137758   6.561   3.548   5.035  0.1244 -0.9096 -0.8390
12612TIP3    H237759   6.456   3.600   4.939  0.5712  0.2653 -0.6987
12613TIP3   OH237760   2.032   0.123   4.592 -0.8934  0.6808 -0.9715
12613TIP3    H137761   1.972   0.173   4.647  1.1591  1.5649  0.5677
12613TIP3    H237762   2.068   0.187   4.531 -0.7647  0.3787 -1.2121
12614TIP3   OH237763   7.100   3.441   6.292  0.4328  0.6049 -0.0992
12614TIP3    H137764   7.092   3.535   6.273  0.0464  0.4407 -0.7243
12614TIP3    H237765   7.145   3.405   6.216 -1.8368 -0.1901 -1.0908
12615TIP3   OH237766   6.629   3.861   4.376 -0.2646  0.2788 -0.2008
12615TIP3    H137767   6.590   3.773   4.373  0.5891 -0.1558  0.7335
12615TIP3    H237768   6.608   3.892   4.464  1.0760  0.2162  0.1592
12616TIP3   OH237769   5.091   6.448   4.449  0.0879  0.2581 -0.3065
12616TIP3    H137770   4.996   6.461   4.448 -0.0605 -0.1468  3.2627
12616TIP3    H237771   5.103   6.362   4.410 -1.0159  0.2636 -0.6970
12617TIP3   OH237772   5.371   6.974   3.186 -0.0123 -0.1356 -0.6840
12617TIP3    H137773   5.333   6.999   3.271  0.3756 -1.2439 -0.1821
12617TIP3    H237774   5.298   6.936   3.137  0.3033 -1.7247  0.0610
12618TIP3   OH237775   3.654   4.953   0.512 -0.4248  0.5045  0.4793
12618TIP3    H137776   3.564   4.967   0.483 -0.1227 -0.1504 -0.8511
12618TIP3    H237777   3.672   5.026   0.571 -1.3545  1.4454 -0.3720
12619TIP3   OH237778   2.996   5.067   2.652  0.3549 -0.3044  0.0170
12619TIP3    H137779   3.089   5.053   2.634 -0.2499 -1.0923 -2.7764
12619TIP3    H237780   2.955   4.981   2.640 -0.9820  0.3934 -0.5764
12620TIP3   OH237781   7.638   4.654   5.883 -0.0851 -0.6405  0.2105
12620TIP3    H137782   7.629   4.639   5.977 -1.2695 -0.9403  0.0535
12620TIP3    H237783   7.633   4.749   5.874  2.7753 -0.3756  0.7137
12621TIP3   OH237784   4.301   3.706   5.915 -0.5354 -0.2126  0.3975
12621TIP3    H137785   4.291   3.618   5.878 -1.2729 -0.6275  1.5581
12621TIP3    H237786   4.367   3.748   5.859  2.1404 -2.5365  1.6362
12622TIP3   OH237787   5.592   3.768   6.617 -0.0310 -0.2513  0.3224
12622TIP3    H137788   5.611   3.789   6.709  2.3181  0.8546 -0.3839
12622TIP3    H237789   5.527   3.833   6.591  2.2049  1.9688  0.1099
12623TIP3   OH237790   6.607   3.202   4.681  0.1713  0.6900 -0.0300
12623TIP3    H137791   6.514   3.206   4.702  0.3880 -0.7692  1.3523
12623TIP3    H237792   6.636   3.117   4.714  1.5655  0.2154 -2.2812
12624TIP3   OH237793   6.871   2.841   5.103  0.0339 -0.4227 -0.5709
12624TIP3    H137794   6.880   2.746   5.092  0.1068 -0.4971  0.0752
12624TIP3    H237795   6.961   2.874   5.106  0.1227 -0.8045  2.9376
12625TIP3   OH237796   7.308   6.509   4.141  0.8297  0.6861  0.3491
12625TIP3    H137797   7.224   6.548   4.117  1.0001  0.1874 -1.0638
12625TIP3    H237798   7.300   6.417   4.118  1.2106  0.3127  1.6751
12626TIP3   OH237799   5.686   5.886   3.350  0.0893 -0.1745 -0.5035
12626TIP3    H137800   5.732   5.918   3.272  0.5874  1.5280  0.4691
12626TIP3    H237801   5.756   5.875   3.415 -0.7880  1.9312  0.8295
12627TIP3   OH237802   6.241   5.809   4.688 -0.0111 -0.3158  0.3731
12627TIP3    H137803   6.158   5.766   4.707 -0.5690  0.6838  0.2346
12627TIP3    H237804   6.269   5.845   4.773 -0.7695  1.1540  0.0042
12628TIP3   OH237805   5.428   5.421   4.867 -0.5072 -0.7775  0.1486
12628TIP3    H137806   5.401   5.460   4.950 -0.1100 -0.5617  0.1776
12628TIP3    H237807   5.522   5.440   4.860 -0.5946 -0.5398 -0.4806
12629TIP3   OH237808   7.531   3.295   6.269  0.1822 -0.0825 -0.4755
12629TIP3    H137809   7.562   3.215   6.228 -2.3476 -0.7592 -1.1942
12629TIP3    H237810   7.506   3.269   6.358  0.3580  0.1452 -0.3577
12630TIP3   OH237811   3.741   5.720   5.839  0.1103 -0.1084  0.4089
12630TIP3    H137812   3.671   5.703   5.902 -1.0177 -0.9087 -1.0312
12630TIP3    H237813   3.797   5.643   5.844  0.6951  0.3742  1.3085
12631TIP3   OH237814   5.826   4.093   4.214 -0.1394  0.4976  0.7667
12631TIP3    H137815   5.797   4.144   4.290  0.0958 -0.2835  1.3856
12631TIP3    H237816   5.887   4.029   4.250  1.8057  1.6383 -0.4145
12632TIP3   OH237817   7.176   7.147   5.377  0.7095  0.0181 -0.6300
12632TIP3    H137818   7.090   7.119   5.345  0.8156 -0.7358 -0.2535
12632TIP3    H237819   7.177   7.242   5.362 -0.1012 -0.0010 -0.8333
12633TIP3   OH237820   4.410   5.068   4.781  0.3796 -0.0553  0.2495
12633TIP3    H137821   4.486   5.034   4.735 -0.1107  1.2578 -1.5974
12633TIP3    H237822   4.375   4.993   4.829  1.3827 -1.2672 -0.8847
12634TIP3   OH237823   6.720   7.147   6.352 -0.0591  0.0093 -0.5064
12634TIP3    H137824   6.627   7.169   6.348 -0.0740 -0.4349 -3.3720
12634TIP3    H237825   6.765   7.229   6.335 -0.0364 -0.6126 -3.8231
12635TIP3   OH237826   5.547   6.504   6.664 -0.4323 -0.3452  0.1283
12635TIP3    H137827   5.478   6.445   6.633 -0.6498 -0.8092  1.4602
12635TIP3    H237828   5.577   6.465   6.746 -0.1542  1.0653  0.7108
12636TIP3   OH237829   4.916   5.334   3.784 -0.3904 -0.2568  0.0462
12636TIP3    H137830   4.851   5.395   3.749  0.3368  0.9181  0.7159
12636TIP3    H237831   4.958   5.296   3.706 -2.2026 -1.4020 -0.3987
12637TIP3   OH237832   6.284   7.747   6.336  0.4306 -0.3492 -0.0511
12637TIP3    H137833   6.210   7.713   6.285  0.0077  0.7753 -0.1875
12637TIP3    H237834   6.292   7.838   6.309 -0.3290  0.5126  2.4757
12638TIP3   OH237835   5.322   4.650   5.040  0.3361  0.0467 -0.0738
12638TIP3    H137836   5.336   4.565   5.082 -1.3936 -1.2633 -1.9934
12638TIP3    H237837   5.347   4.636   4.949  0.2720  1.6776 -0.3544
12639TIP3   OH237838   6.435   5.935   4.954 -0.0850  0.3633  0.0468
12639TIP3    H137839   6.344   5.907   4.968 -0.1800  0.6072 -0.0794
12639TIP3    H237840   6.447   6.007   5.015  0.2838 -0.2081  0.6464
12640TIP3   OH237841   5.517   7.605   3.395 -0.0564 -0.6078  0.2970
12640TIP3    H137842   5.523   7.670   3.325  0.5607 -1.3429 -0.3400
12640TIP3    H237843   5.462   7.536   3.360  0.7483 -1.2638  0.3049
12641TIP3   OH237844   5.677   6.355   5.210 -0.1043  0.3011 -0.1891
12641TIP3    H137845   5.717   6.354   5.297  0.6049  0.0189 -0.5230
12641TIP3    H237846   5.618   6.280   5.210 -1.2079  1.1474  0.5655
12642TIP3   OH237847   6.879   6.626   4.555 -0.0376  0.6076 -0.5470
12642TIP3    H137848   6.901   6.560   4.621  0.9439 -0.2288 -1.7101
12642TIP3    H237849   6.832   6.577   4.487 -1.1364  1.4860 -0.4400
12643TIP3   OH237850   6.134   7.516   6.101 -0.2059  0.1405  0.2335
12643TIP3    H137851   6.094   7.579   6.161 -1.3639 -0.8557  0.5151
12643TIP3    H237852   6.118   7.431   6.141  0.3348 -0.4246 -0.7353
12644TIP3   OH237853   6.228   6.060   5.632 -0.6598 -0.3955 -0.5844
12644TIP3    H137854   6.311   6.037   5.592 -0.7936  0.3712 -1.3089
12644TIP3    H237855   6.183   5.977   5.645  1.3984 -1.1462  2.4765
12645TIP3   OH237856   5.131   3.764   3.805  0.0532 -0.6392 -0.3263
12645TIP3    H137857   5.162   3.811   3.882 -1.0302 -0.1304 -0.1869
12645TIP3    H237858   5.133   3.828   3.734 -1.4178 -0.3697 -0.1388
12646TIP3   OH237859   6.695   6.117   5.649  0.1102 -0.1194 -0.2704
12646TIP3    H137860   6.698   6.202   5.693 -0.3789 -1.7249  2.9346
12646TIP3    H237861   6.605   6.108   5.619 -0.4360 -0.4725  1.4214
12647TIP3   OH237862   6.572   3.781   4.684  0.0578  0.4869 -0.5370
12647TIP3    H137863   6.484   3.767   4.718  0.8710 -1.9201  0.6462
12647TIP3    H237864   6.578   3.876   4.673 -2.0530  0.8416  1.0614
12648TIP3   OH237865   7.310   5.510   5.634 -0.2125 -0.3820  0.0068
12648TIP3    H137866   7.371   5.494   5.562 -0.5073 -0.2943 -0.2645
12648TIP3    H237867   7.228   5.534   5.591  0.0577  1.2955  0.3998
12649TIP3   OH237868   6.943   5.007   2.316 -0.0749 -0.0319 -0.3252
12649TIP3    H137869   6.946   5.034   2.408  2.6995 -1.1207 -0.0429
12649TIP3    H237870   6.880   5.066   2.276 -1.5795  0.2500  2.3454
12650TIP3   OH237871   5.300   5.230   4.245  0.2334 -0.0659  0.4484
12650TIP3    H137872   5.236   5.288   4.202  0.5088  0.6527  0.9887
12650TIP3    H237873   5.355   5.198   4.174  0.2431  0.5480  0.1759
12651TIP3   OH237874   6.241   4.932   6.348  0.3052 -0.1679 -0.0859
12651TIP3    H137875   6.152   4.902   6.331 -0.1755  1.5453 -0.6735
12651TIP3    H237876   6.297   4.862   6.312 -0.7613  0.4302 -3.0441
12652TIP3   OH237877   6.236   7.407   6.683 -0.0930 -0.2563 -0.1359
12652TIP3    H137878   6.169   7.475   6.682  1.1770  0.9905 -0.9437
12652TIP3    H237879   6.222   7.358   6.602 -1.1998 -1.1697  0.5917
12653TIP3   OH237880   4.979   6.237   5.555 -0.3428 -0.3925  0.0964
12653TIP3    H137881   5.054   6.190   5.591 -0.2612 -0.2245  0.1464
12653TIP3    H237882   4.951   6.184   5.481 -1.6299 -1.6881  1.4827
12654TIP3   OH237883   1.327   6.646   0.369 -0.4923 -0.2276  0.5426
12654TIP3    H137884   1.234   6.626   0.362 -0.7038  0.3779  1.5389
12654TIP3    H237885   1.341   6.663   0.462  0.6457 -0.4703  0.4189
12655TIP3   OH237886   7.192   3.642   6.848  0.1386 -0.3747 -0.0826
12655TIP3    H137887   7.145   3.580   6.793  0.0310 -0.0405 -0.3688
12655TIP3    H237888   7.227   3.707   6.787 -0.6693  0.4527  0.3226
12656TIP3   OH237889   8.024   4.643   6.025 -0.8618 -0.0442  0.3863
12656TIP3    H137890   7.954   4.679   5.971 -0.9566 -0.9045 -0.0710
12656TIP3    H237891   8.090   4.614   5.962 -1.4165 -1.9900  0.6572
12657TIP3   OH237892   6.423   4.614   5.258  0.5148 -0.4480  0.3299
12657TIP3    H137893   6.339   4.601   5.304  0.3907 -0.0569  0.2207
12657TIP3    H237894   6.463   4.528   5.255 -0.3268 -0.8160 -0.4819
12658TIP3   OH237895   6.919   3.841   4.834 -0.9047  0.1860  0.3007
12658TIP3    H137896   6.937   3.934   4.843  0.2527  0.2152 -2.0642
12658TIP3    H237897   6.993   3.797   4.876 -0.8513  0.3260  0.3521
12659TIP3   OH237898   6.257   4.134   4.567 -0.5157  0.6551 -0.2895
12659TIP3    H137899   6.287   4.224   4.576  0.7903  0.2160 -0.1511
12659TIP3    H237900   6.230   4.109   4.655  0.7434  0.3539  0.0165
12660TIP3   OH237901   8.008   3.214   6.355 -0.2605 -0.4003 -0.0173
12660TIP3    H137902   7.965   3.251   6.432  1.0940  3.0204 -0.8175
12660TIP3    H237903   7.953   3.242   6.282  0.5864 -0.2648 -0.6101
12661TIP3   OH237904   6.675   6.846   6.641  0.0972 -0.2688  0.0286
12661TIP3    H137905   6.619   6.904   6.589  0.7484 -0.3078 -0.7206
12661TIP3    H237906   6.613   6.790   6.689 -0.5174  0.4171  0.0376
12662TIP3   OH237907   3.222   4.970   2.719  0.3639 -0.0154 -1.0654
12662TIP3    H137908   3.268   5.029   2.778  2.5972 -3.0470  0.3154
12662TIP3    H237909   3.284   4.953   2.649 -0.1000 -1.1031 -1.2109
12663TIP3   OH237910   5.493   4.739   5.244  0.2041  0.0479 -0.1248
12663TIP3    H137911   5.424   4.772   5.301  1.0363  1.5333  0.0341
12663TIP3    H237912   5.449   4.716   5.162 -0.5652  0.4336  0.1869
12664TIP3   OH237913   4.110   5.038   3.157 -0.3684 -0.0709 -0.0040
12664TIP3    H137914   4.105   4.972   3.088 -1.6461  1.1632 -1.1170
12664TIP3    H237915   4.204   5.054   3.169 -0.0269 -2.2215  0.4447
12665TIP3   OH237916   5.351   6.906   5.546  0.1047 -0.0624  0.2392
12665TIP3    H137917   5.330   6.915   5.639 -1.1596 -0.3340 -0.0119
12665TIP3    H237918   5.359   6.996   5.515  0.0056  0.0390  0.5022
12666TIP3   OH237919   7.744   7.640   4.514  0.5588 -0.1993 -0.0559
12666TIP3    H137920   7.651   7.654   4.530  0.5400 -0.3522 -0.0369
12666TIP3    H237921   7.788   7.700   4.574  0.4596  0.4419 -0.6185
12667TIP3   OH237922   5.327   6.610   3.769  0.9471  0.0149 -0.2100
12667TIP3    H137923   5.354   6.534   3.718  2.5040 -1.4398  2.6413
12667TIP3    H237924   5.248   6.581   3.814  0.4202  0.7756 -0.6353
12668TIP3   OH237925   5.875   0.138   0.663 -0.6916  0.1523 -0.1129
12668TIP3    H137926   5.791   0.179   0.678 -0.5955  0.5901 -0.7717
12668TIP3    H237927   5.940   0.206   0.683 -0.5137  0.0493 -0.3291
12669TIP3   OH237928   5.133   6.758   2.319  0.0378 -0.0828 -0.1062
12669TIP3    H137929   5.190   6.785   2.391 -0.0751 -0.4413  0.1184
12669TIP3    H237930   5.188   6.765   2.241  0.5077 -0.7996  0.1544
12670TIP3   OH237931   4.646   6.936   6.902 -0.0039 -1.1601  0.2735
12670TIP3    H137932   4.552   6.945   6.921 -0.4135  2.4382 -2.9698
12670TIP3    H237933   4.688   6.999   6.961  0.4979 -3.0556  2.0124
12671TIP3   OH237934   6.664   7.008   7.038 -0.3155  0.0958  0.5300
12671TIP3    H137935   6.719   7.014   6.960  0.6043  0.3521  1.1884
12671TIP3    H237936   6.710   6.947   7.095 -0.5350  0.5792  1.2340
12672TIP3   OH237937   4.135   4.432   5.812 -0.1711  0.7470  0.1417
12672TIP3    H137938   4.184   4.400   5.888  0.2751 -1.2045 -0.9193
12672TIP3    H237939   4.045   4.439   5.843  0.2334  1.2308  1.2199
12673TIP3   OH237940   7.244   2.691   3.962 -0.0921  0.5959 -0.1086
12673TIP3    H137941   7.174   2.708   3.899 -0.5737 -2.1612 -0.3835
12673TIP3    H237942   7.198   2.686   4.046 -0.0224  0.1538 -0.0992
12674TIP3   OH237943   5.757   4.454   4.706  0.2665 -0.6886 -0.2346
12674TIP3    H137944   5.845   4.489   4.719 -0.6097  1.3816  0.3152
12674TIP3    H237945   5.762   4.405   4.624  1.2278  1.8590 -1.7449
12675TIP3   OH237946   6.814   1.865   4.563 -0.1565  0.1817  0.3796
12675TIP3    H137947   6.898   1.872   4.518 -1.2693 -0.1411 -1.8547
12675TIP3    H237948   6.821   1.787   4.617  0.4144 -0.8131 -1.0990
12676TIP3   OH237949   7.142   2.780   5.604  0.1495  0.1528 -0.5221
12676TIP3    H137950   7.224   2.742   5.637 -0.2022  0.3727  0.6146
12676TIP3    H237951   7.169   2.837   5.533  0.9803  0.1153 -0.2390
12677TIP3   OH237952   7.993   5.383   4.426  0.2080 -0.0868 -0.1406
12677TIP3    H137953   8.017   5.310   4.484  2.9869  0.5646 -0.3732
12677TIP3    H237954   8.050   5.372   4.350 -0.7510  1.2053 -1.0641
12678TIP3   OH237955   5.768   3.749   4.758  0.2147  0.0954 -0.9503
12678TIP3    H137956   5.699   3.697   4.717 -0.6641 -1.8133  2.6519
12678TIP3    H237957   5.721   3.805   4.820  1.6935  0.5117 -0.1852
12679TIP3   OH237958   6.857   4.809   4.918  0.1207 -0.1068 -0.6281
12679TIP3    H137959   6.789   4.876   4.913  0.6768  0.5864  0.9088
12679TIP3    H237960   6.900   4.812   4.832  1.7545  3.2521  0.2217
12680TIP3   OH237961   7.795   3.702   3.949  0.5233  0.0303 -0.7353
12680TIP3    H137962   7.791   3.752   4.031 -0.1754  1.2394 -1.4993
12680TIP3    H237963   7.859   3.750   3.895  0.2889 -0.2360 -1.2498
12681TIP3   OH237964   6.614   3.778   5.992  0.6498  0.0879  0.5176
12681TIP3    H137965   6.537   3.724   5.977  1.7306 -0.9336 -1.7299
12681TIP3    H237966   6.583   3.868   5.981 -0.6126 -0.1882  1.6612
12682TIP3   OH237967   8.474   2.713   4.806 -0.1761  0.4744 -0.0313
12682TIP3    H137968   8.467   2.673   4.892 -1.2359  0.4602 -0.1185
12682TIP3    H237969   8.558   2.760   4.808  1.2531 -1.9859 -0.0493
12683TIP3   OH237970   8.474   2.789   3.895 -0.3393 -0.2467  0.0267
12683TIP3    H137971   8.423   2.857   3.939 -0.9741 -0.4475 -0.3974
12683TIP3    H237972   8.528   2.751   3.964 -1.2043 -0.4468  0.5981
12684TIP3   OH237973   6.131   4.589   4.725  0.0327 -0.2229  0.0496
12684TIP3    H137974   6.143   4.517   4.786 -0.3833  1.3212  2.0187
12684TIP3    H237975   6.043   4.622   4.743  0.0267  0.4515 -1.1604
12685TIP3   OH237976   5.346   5.999   4.805 -1.0354  0.2398  0.2785
12685TIP3    H137977   5.266   6.006   4.753 -1.0637  0.4079  0.3431
12685TIP3    H237978   5.398   5.931   4.761 -0.6690  1.0074 -0.4949
12686TIP3   OH237979   7.892   5.001   3.524  0.0993  0.0462  0.1249
12686TIP3    H137980   7.948   4.985   3.601 -0.5885  0.0402  0.6283
12686TIP3    H237981   7.831   4.928   3.523 -0.8702  0.8465  0.4515
12687TIP3   OH237982   8.561   5.564   5.607 -0.4613  0.6143  0.3868
12687TIP3    H137983   8.550   5.636   5.669  1.6950 -0.5896  2.2360
12687TIP3    H237984   8.486   5.506   5.623 -0.5922  0.9538  0.9931
12688TIP3   OH237985   6.778   3.619   4.736 -0.0048  0.6870 -0.2238
12688TIP3    H137986   6.720   3.693   4.719  0.4309  1.1902  0.4579
12688TIP3    H237987   6.838   3.650   4.803  0.4938 -0.1260 -0.2813
12689TIP3   OH237988   7.443   5.718   6.267  0.2959  0.1972 -0.2750
12689TIP3    H137989   7.518   5.740   6.323 -0.3967  1.5331  0.1480
12689TIP3    H237990   7.420   5.801   6.225 -1.9037  0.1530  0.7717
12690TIP3   OH237991   6.432   5.955   6.656  0.0970  0.0328 -0.4162
12690TIP3    H137992   6.478   5.872   6.670  2.8152  1.5452  0.0485
12690TIP3    H237993   6.485   6.019   6.703 -0.0172  2.5742 -3.6253
12691TIP3   OH237994   5.678   6.572   6.426  0.0558  0.0880  0.5862
12691TIP3    H137995   5.591   6.607   6.412 -0.2268 -0.7737  0.1482
12691TIP3    H237996   5.682   6.552   6.519 -0.2359  0.0779  0.5943
12692TIP3   OH237997   3.566   6.509   6.119  0.0111 -0.2795 -0.4493
12692TIP3    H137998   3.550   6.529   6.211  0.7840  1.0609 -0.5947
12692TIP3    H237999   3.542   6.417   6.110 -1.0630 -0.1398  0.8544
12693TIP3   OH238000   7.970   8.243   4.259  0.2089 -0.1547 -0.1780
12693TIP3    H138001   8.030   8.317   4.274  1.4876 -1.3886  0.9917
12693TIP3    H238002   7.949   8.212   4.347 -0.2843 -1.2130 -0.6677
12694TIP3   OH238003   5.875   6.937   6.460  0.7510 -0.0187 -0.2944
12694TIP3    H138004   5.943   6.928   6.393  0.7093 -1.0815 -0.2057
12694TIP3    H238005   5.818   6.861   6.445 -0.7156  1.1517 -0.7153
12695TIP3   OH238006   6.695   4.991   5.355 -0.4865 -0.0219 -0.0113
12695TIP3    H138007   6.788   4.977   5.370 -0.5336  0.3373  0.6364
12695TIP3    H238008   6.659   4.903   5.345 -0.7483 -0.4439  3.8493
12696TIP3   OH238009   5.711   4.342   6.044  0.3236  0.1522 -0.1308
12696TIP3    H138010   5.716   4.259   5.995 -1.0319 -0.7961  1.2893
12696TIP3    H238011   5.689   4.315   6.133 -0.1868  2.0642  0.3268
12697TIP3   OH238012   5.784   6.264   2.622 -0.1116  0.0257 -0.5364
12697TIP3    H138013   5.871   6.248   2.659  0.7050  1.3701 -1.7701
12697TIP3    H238014   5.781   6.208   2.544 -1.1969 -1.6194  0.6835
12698TIP3   OH238015   4.858   5.960   4.411 -0.1981  0.5031  0.2328
12698TIP3    H138016   4.791   5.945   4.345 -0.6387  2.3404  0.2433
12698TIP3    H238017   4.821   5.924   4.492 -0.6720  0.4498 -0.0082
12699TIP3   OH238018   6.358   7.754   6.051  0.0505  0.0075  0.0912
12699TIP3    H138019   6.345   7.663   6.079  0.7968  0.5189  2.1530
12699TIP3    H238020   6.397   7.746   5.964 -2.4006 -1.6167 -0.8894
12700TIP3   OH238021   6.265   6.709   5.814  0.1886  0.2636 -0.2277
12700TIP3    H138022   6.252   6.787   5.759  0.0539  0.5348  0.1879
12700TIP3    H238023   6.299   6.744   5.896 -3.2870  0.2423  1.2905
12701TIP3   OH238024   3.691   6.097   6.550 -0.1157 -0.2097  0.3750
12701TIP3    H138025   3.607   6.073   6.512  1.0179 -0.9537 -1.7835
12701TIP3    H238026   3.669   6.153   6.624 -2.4571  1.1305 -1.2538
12702TIP3   OH238027   6.530   5.868   2.248  0.2347 -0.0915 -0.1668
12702TIP3    H138028   6.546   5.778   2.277 -1.1333 -0.7154 -1.3031
12702TIP3    H238029   6.609   5.892   2.200  0.8277 -0.4954  0.5966
12703TIP3   OH238030   8.720   0.309   0.117 -0.0532  0.0599  0.3408
12703TIP3    H138031   8.801   0.331   0.070 -0.6604  0.9476 -0.3147
12703TIP3    H238032   8.746   0.301   0.208  0.6420  1.0892  0.2376
12704TIP3   OH238033   6.614   6.103   5.261 -0.2394 -0.3868  0.0355
12704TIP3    H138034   6.583   6.167   5.326 -0.1991  1.4948 -1.7684
12704TIP3    H238035   6.701   6.078   5.292  0.4194  1.6760 -0.0974
12705TIP3   OH238036   6.796   3.153   4.476 -0.3699 -0.1208 -0.0424
12705TIP3    H138037   6.712   3.184   4.509 -0.9289  0.7978 -2.2483
12705TIP3    H238038   6.855   3.228   4.483 -0.7751  0.4179 -2.0461
12706TIP3   OH238039   6.330   4.789   4.464 -0.0484 -1.1244  0.3873
12706TIP3    H138040   6.256   4.736   4.433 -1.6574  0.9884  0.5284
12706TIP3    H238041   6.372   4.820   4.384 -0.2630 -1.0494  0.3016
12707TIP3   OH238042   6.000   3.965   3.568 -0.4533 -0.2244  0.0015
12707TIP3    H138043   6.067   3.984   3.633 -0.2524  1.5246 -0.7096
12707TIP3    H238044   5.996   3.869   3.565  0.6833 -0.3252  1.3868
12708TIP3   OH238045   7.625   3.356   5.927 -0.3240  0.3028  0.6372
12708TIP3    H138046   7.620   3.392   5.839 -0.7015  0.8645  0.8855
12708TIP3    H238047   7.658   3.428   5.981  2.9213 -0.9631  0.4221
12709TIP3   OH238048   7.440   4.432   5.879 -0.3985 -0.1180 -0.0654
12709TIP3    H138049   7.450   4.527   5.870 -1.6137  0.2096  1.6478
12709TIP3    H238050   7.352   4.421   5.916  0.0976 -1.8474  0.6458
12710TIP3   OH238051   6.593   4.574   4.711 -0.9240  0.2203 -0.3275
12710TIP3    H138052   6.601   4.566   4.806 -0.2802 -0.4224 -0.4296
12710TIP3    H238053   6.572   4.666   4.696  1.8137  0.9935  0.2673
12711TIP3   OH238054   5.239   8.314   6.252  0.1149  0.3960 -0.3911
12711TIP3    H138055   5.238   8.392   6.196  1.2468  1.0827  0.5118
12711TIP3    H238056   5.332   8.300   6.271 -0.2479  0.0616  1.1552
12712TIP3   OH238057   3.963   5.052   5.344 -0.0605  0.0562 -0.7121
12712TIP3    H138058   3.896   5.020   5.284  0.7300 -1.0344 -1.0388
12712TIP3    H238059   3.997   4.973   5.386  1.0379  0.5923 -0.5696
12713TIP3   OH238060   7.841   4.029   3.866 -0.3997 -0.5650 -0.4279
12713TIP3    H138061   7.795   4.046   3.948 -0.2903  0.8775 -0.6592
12713TIP3    H238062   7.914   3.972   3.891 -0.3195 -0.0677  0.4892
12714TIP3   OH238063   7.891   7.125   2.672 -0.4746  0.3793  0.0971
12714TIP3    H138064   7.832   7.132   2.597  0.1249  0.3917 -0.3717
12714TIP3    H238065   7.947   7.202   2.665  0.4535 -0.3191 -0.1876
12715TIP3   OH238066   7.907   6.399   5.326  0.2207  0.4538 -0.1534
12715TIP3    H138067   7.985   6.379   5.377  0.9651 -0.1137 -1.5065
12715TIP3    H238068   7.834   6.382   5.387  1.1201  0.6374  0.9888
12716TIP3   OH238069   6.528   7.827   4.715  0.2411  0.5428  0.1097
12716TIP3    H138070   6.617   7.860   4.730 -0.1569  0.7648  2.0020
12716TIP3    H238071   6.471   7.892   4.756 -0.7070 -0.7693  0.8666
12717TIP3   OH238072   5.806   5.298   5.176 -0.5483  0.5461  0.2704
12717TIP3    H138073   5.820   5.386   5.142 -0.0351 -0.1816 -1.4507
12717TIP3    H238074   5.854   5.240   5.117  0.5818 -0.7632  2.3901
12718TIP3   OH238075   7.597   5.147   5.380 -0.0136  0.2075 -0.1580
12718TIP3    H138076   7.639   5.206   5.317 -0.9559  1.8515  0.7138
12718TIP3    H238077   7.657   5.146   5.455  0.0679 -0.0512 -0.2264
12719TIP3   OH238078   7.889   4.971   6.001 -0.1477 -0.7512  0.6129
12719TIP3    H138079   7.857   4.951   6.088 -0.5648  2.0638  1.1520
12719TIP3    H238080   7.971   5.019   6.015 -0.4106  0.0697 -0.4944
12720TIP3   OH238081   7.379   6.972   4.410  0.1648  0.0588  0.4391
12720TIP3    H138082   7.357   7.065   4.423 -1.6089 -0.0215 -1.6175
12720TIP3    H238083   7.331   6.926   4.479  1.2713  0.6637  1.6406
12721TIP3   OH238084   8.112   5.738   4.396  0.0936  0.2588 -0.1111
12721TIP3    H138085   8.187   5.679   4.390  0.1257  0.2806  0.0709
12721TIP3    H238086   8.093   5.763   4.305  1.2141  1.3912 -0.0537
12722TIP3   OH238087   7.734   5.314   4.902  0.1410  0.0061  0.6456
12722TIP3    H138088   7.755   5.405   4.925 -0.2832  0.4995 -0.8815
12722TIP3    H238089   7.813   5.265   4.926  1.3166  1.1486 -0.7411
12723TIP3   OH238090   0.374   5.999   4.130 -0.3484  0.4532 -0.2005
12723TIP3    H138091   0.379   5.949   4.212 -0.5543 -0.2135 -0.5905
12723TIP3    H238092   0.324   6.077   4.152  1.9301  1.6221  0.9794
12724TIP3   OH238093   6.215   4.737   5.088 -0.5538  0.3702  0.2205
12724TIP3    H138094   6.295   4.706   5.131 -0.5784  2.7213  2.0544
12724TIP3    H238095   6.246   4.781   5.009 -0.0078  1.4504  1.0308
12725TIP3   OH238096   7.176   3.839   4.993  0.2456  0.6066  0.3319
12725TIP3    H138097   7.125   3.765   5.024 -2.2605  1.2038 -2.1249
12725TIP3    H238098   7.218   3.874   5.071 -0.3369 -2.0084  1.8715
12726TIP3   OH238099   7.085   5.262   4.762  0.2412 -0.1146 -0.5050
12726TIP3    H138100   7.119   5.277   4.674 -1.3482 -1.6028 -1.4142
12726TIP3    H238101   7.044   5.344   4.787 -1.2544 -0.3594 -2.0848
12727TIP3   OH238102   8.311   5.039   6.436 -0.7558 -0.0219  0.3252
12727TIP3    H138103   8.373   5.093   6.485 -1.4304  0.4289  0.6889
12727TIP3    H238104   8.345   4.950   6.444 -0.0640  0.2443  0.3758
12728TIP3   OH238105   8.134   6.598   5.558  0.0395 -0.5902  0.0887
12728TIP3    H138106   8.103   6.508   5.556 -0.3385 -0.4520 -0.1330
12728TIP3    H238107   8.225   6.591   5.587  0.5812 -1.1974 -1.7041
12729TIP3   OH238108   0.141   5.106   6.267 -0.3489  0.0674 -0.0718
12729TIP3    H138109   0.163   5.019   6.235 -0.8412 -0.5500  1.2153
12729TIP3    H238110   0.049   5.117   6.244  0.1563  0.9138 -1.6848
12730TIP3   OH238111   6.089   6.463   5.398 -0.0387 -0.3420  0.1548
12730TIP3    H138112   6.137   6.382   5.378  0.7206 -0.3259  1.7995
12730TIP3    H238113   6.082   6.463   5.494  1.3988  2.3224  0.3014
12731TIP3   OH238114   7.873   4.894   6.247  0.0235 -0.8982 -0.2922
12731TIP3    H138115   7.956   4.888   6.295 -0.6506  0.4275  1.0628
12731TIP3    H238116   7.820   4.823   6.283  0.4183 -1.4820 -0.8598
12732TIP3   OH238117   0.048   3.852   5.996 -0.1952 -0.0974  0.0338
12732TIP3    H138118   0.091   3.938   6.006  0.0893 -0.1032 -1.1152
12732TIP3    H238119  -0.045   3.872   6.003 -0.0793  0.0519  1.5400
12733TIP3   OH238120   7.446   7.075   3.610  0.4742 -0.4154 -0.0236
12733TIP3    H138121   7.512   7.025   3.562  1.7770  0.9726  0.2963
12733TIP3    H238122   7.445   7.035   3.697  1.0266 -0.3114  0.0299
12734TIP3   OH238123   7.173   5.354   3.860 -0.6604 -0.1431  0.0910
12734TIP3    H138124   7.089   5.397   3.871 -0.3721 -0.2570  3.0310
12734TIP3    H238125   7.159   5.265   3.890 -0.3418 -1.1736 -2.6539
12735TIP3   OH238126   0.166   5.653   5.908 -0.3581 -0.1269 -0.2045
12735TIP3    H138127   0.133   5.634   5.820 -1.1072 -0.6472  0.1899
12735TIP3    H238128   0.090   5.690   5.954 -0.2794 -0.9556  0.5849
12736TIP3   OH238129   8.663   4.781   6.238 -0.0872 -0.6224 -0.8652
12736TIP3    H138130   8.747   4.808   6.202  0.6877  0.3361  1.5412
12736TIP3    H238131   8.667   4.685   6.239  1.0097 -0.5803 -0.6910
12737TIP3   OH238132   0.653   6.972   4.919 -0.5887  0.1236  0.2032
12737TIP3    H138133   0.615   6.970   5.007  0.6540 -0.5336  0.7374
12737TIP3    H238134   0.689   6.884   4.907  0.1065  0.5140 -0.5801
12738TIP3   OH238135   7.295   5.215   5.615  0.1766 -0.3441  0.3980
12738TIP3    H138136   7.276   5.296   5.663 -0.9255  0.3611 -1.1979
12738TIP3    H238137   7.381   5.189   5.647 -0.6542 -0.0805  3.0111
12739TIP3   OH238138   8.652   3.083   4.380  0.0028 -0.2878 -0.3324
12739TIP3    H138139   8.683   2.998   4.410 -0.1464 -1.0595 -2.2533
12739TIP3    H238140   8.640   3.072   4.285 -0.0916  1.8400 -0.6041
12740TIP3   OH238141   7.215   5.644   4.380 -0.4332  0.0191 -0.5863
12740TIP3    H138142   7.231   5.573   4.442  0.4732 -0.3560 -1.2391
12740TIP3    H238143   7.147   5.611   4.322 -0.1068 -0.2700 -0.8079
12741TIP3   OH238144   7.832   6.781   4.427  0.1448 -0.0376  0.1691
12741TIP3    H138145   7.797   6.846   4.365 -0.8133 -0.0563  0.6756
12741TIP3    H238146   7.796   6.698   4.396  0.1227 -0.1197  0.4167
12742TIP3   OH238147   6.909   6.489   4.785 -0.1501 -0.0721 -0.2743
12742TIP3    H138148   6.931   6.544   4.860  0.4370  0.5275 -0.8869
12742TIP3    H238149   6.916   6.399   4.819  1.4997  0.1499  0.0368
12743TIP3   OH238150   0.426   7.359   4.112 -0.5949 -0.1959  0.3542
12743TIP3    H138151   0.394   7.445   4.140 -0.7431  0.3407 -1.4004
12743TIP3    H238152   0.353   7.320   4.065  0.7882  0.5112 -2.5527
12744TIP3   OH238153   1.762   4.894   3.520  0.4911 -0.4111 -0.1184
12744TIP3    H138154   1.702   4.845   3.576 -0.8620  1.0821 -0.2236
12744TIP3    H238155   1.788   4.832   3.452 -0.1623 -1.3596  0.4990
12745TIP3   OH238156   7.654   4.334   2.957 -0.2052  0.0108  0.1560
12745TIP3    H138157   7.627   4.244   2.942  2.5883 -0.8556 -0.0091
12745TIP3    H238158   7.702   4.359   2.878 -1.1986  1.7765  0.0705
12746TIP3   OH238159   6.914   8.273   5.085  0.0323  0.2023  0.3861
12746TIP3    H138160   6.849   8.206   5.107 -1.3586  0.4988 -2.6098
12746TIP3    H238161   6.968   8.280   5.164 -1.9942 -1.8638  2.0422
12747TIP3   OH238162   8.544   4.514   6.107 -0.2197 -0.3692  0.6080
12747TIP3    H138163   8.449   4.520   6.110 -0.1682  1.6962 -0.9387
12747TIP3    H238164   8.561   4.427   6.070 -1.5073 -0.6031  0.5436
12748TIP3   OH238165   7.060   5.952   5.850  0.4641 -0.1947  0.0556
12748TIP3    H138166   6.985   5.893   5.841 -1.1913  1.8842 -0.2677
12748TIP3    H238167   7.039   6.007   5.925  0.3279  2.2469 -1.6863
12749TIP3   OH238168   7.288   5.620   3.055  0.1457  0.1898  0.3184
12749TIP3    H138169   7.206   5.579   3.082  1.4254 -1.6971  1.4423
12749TIP3    H238170   7.310   5.579   2.971 -0.4249  1.2344 -0.3510
12750TIP3   OH238171   8.274   5.136   6.718  0.0482 -0.2535  0.6079
12750TIP3    H138172   8.307   5.202   6.779  1.6039  1.3869 -1.8872
12750TIP3    H238173   8.336   5.063   6.725  0.5318  0.1534  0.6442
12751TIP3   OH238174   7.528   2.714   0.035  0.0596 -0.2210 -0.7864
12751TIP3    H138175   7.587   2.714   0.110  0.0035  3.8066 -0.6394
12751TIP3    H238176   7.451   2.666   0.064  0.2064  0.9290  1.5809
12752TIP3   OH238177   1.236   6.343   2.597 -0.0699  0.9463 -0.5892
12752TIP3    H138178   1.223   6.436   2.618 -1.3013  0.4342  1.0009
12752TIP3    H238179   1.321   6.322   2.636 -2.3274  0.0021  4.2128
12753TIP3   OH238180   0.920   3.610   4.683  0.9412  0.1752 -0.1357
12753TIP3    H138181   0.877   3.661   4.614 -0.5869 -0.2559  0.4776
12753TIP3    H238182   0.962   3.676   4.738  1.2036  0.6001 -0.8353
12754TIP3   OH238183   8.149   5.595   4.809 -0.1138  0.0855 -0.5623
12754TIP3    H138184   8.151   5.511   4.764 -0.8200 -0.2094 -0.0569
12754TIP3    H238185   8.178   5.574   4.898 -0.3251  0.3720 -0.4262
12755TIP3   OH238186   5.503   7.758   5.091  0.0409 -0.2618  1.1366
12755TIP3    H138187   5.430   7.705   5.058  0.9139 -1.1005  0.5260
12755TIP3    H238188   5.580   7.724   5.044  0.8697  0.3869  2.0224
12756TIP3   OH238189   7.210   5.556   6.232 -0.7164 -0.3229 -0.5624
12756TIP3    H138190   7.296   5.596   6.246 -1.3556  1.0156 -0.3978
12756TIP3    H238191   7.211   5.528   6.141 -0.2544  0.0480 -0.6720
12757TIP3   OH238192   8.024   7.188   5.303  0.4990  0.4136  0.1365
12757TIP3    H138193   8.080   7.199   5.226  1.7826  1.5347  1.1928
12757TIP3    H238194   8.053   7.256   5.364 -0.3659 -0.5543  1.6826
12758TIP3   OH238195   6.870   3.698   6.069  0.3542 -0.2197 -0.3593
12758TIP3    H138196   6.858   3.758   6.142  0.8204 -1.5245  0.8172
12758TIP3    H238197   6.787   3.702   6.021  0.6276  1.8609 -0.7145
12759TIP3   OH238198   8.761   4.547   3.399  0.3438  0.0281  0.0054
12759TIP3    H138199   8.752   4.487   3.473 -1.0892  1.3163  0.8902
12759TIP3    H238200   8.764   4.634   3.438  1.5252  0.6100 -1.3245
12760TIP3   OH238201   6.376   6.158   5.121 -0.1122  0.2575  0.1759
12760TIP3    H138202   6.313   6.150   5.192 -0.2238  1.1648  0.1814
12760TIP3    H238203   6.461   6.161   5.165  0.1446 -3.2827  0.0640
12761TIP3   OH238204   7.283   5.478   5.913 -0.0117 -0.6979 -0.2655
12761TIP3    H138205   7.370   5.457   5.949  0.8751  2.3315 -0.5234
12761TIP3    H238206   7.300   5.505   5.823 -1.2236 -0.0971 -0.3205
12762TIP3   OH238207   7.469   5.418   6.124 -0.1690 -0.4822  1.0007
12762TIP3    H138208   7.524   5.495   6.140  0.4322 -0.8620  0.7373
12762TIP3    H238209   7.529   5.344   6.128 -0.5435 -0.8389  0.0365
12763TIP3   OH238210   0.050   4.096   6.547  0.6513  0.3879  0.3633
12763TIP3    H138211   0.127   4.153   6.538  0.9998 -0.1024  0.2200
12763TIP3    H238212   0.005   4.128   6.625  2.2719 -0.8057  1.8173
12764TIP3   OH238213   7.628   6.916   4.817 -0.1840  0.5528  0.6378
12764TIP3    H138214   7.718   6.915   4.847 -0.6950 -1.0592  2.1912
12764TIP3    H238215   7.630   6.969   4.737  1.8465  1.8335  1.4948
12765TIP3   OH238216   8.510   6.968   3.315 -0.2149  0.5380 -0.0758
12765TIP3    H138217   8.537   7.048   3.358 -1.5121  1.4626 -0.9460
12765TIP3    H238218   8.516   6.987   3.222  2.9875 -1.5733 -0.3925
12766TIP3   OH238219   7.326   3.089   4.862  0.3270 -0.0141 -0.2042
12766TIP3    H138220   7.263   3.089   4.790 -1.2695  0.3089  1.1540
12766TIP3    H238221   7.348   2.997   4.875  1.3733 -0.0054 -1.7006
12767TIP3   OH238222   6.433   5.524   5.441 -0.0132 -0.3427  0.2188
12767TIP3    H138223   6.511   5.497   5.489  0.2755  1.7214  0.9458
12767TIP3    H238224   6.375   5.448   5.445  0.9351 -1.0047  1.8850
12768TIP3   OH238225   0.813   5.087   6.963  0.2854  0.0808 -0.0890
12768TIP3    H138226   0.883   5.028   6.989 -0.7292 -1.6351 -1.1102
12768TIP3    H238227   0.856   5.154   6.911  1.3007 -0.4334  0.0825
12769TIP3   OH238228   8.701   6.275   5.912  0.3910  0.1781  0.4208
12769TIP3    H138229   8.699   6.261   6.007 -0.8633  0.0424  0.3828
12769TIP3    H238230   8.712   6.370   5.902 -1.1245  0.4023  0.7189
12770TIP3   OH238231   0.620   8.010   4.847 -0.1600  0.6973  0.1923
12770TIP3    H138232   0.638   7.925   4.808 -0.0818  0.2278  1.2435
12770TIP3    H238233   0.673   8.071   4.795 -0.8388  0.2322 -1.0771
12771TIP3   OH238234   6.231   6.754   1.992  0.0961  0.3957 -0.0050
12771TIP3    H138235   6.257   6.830   1.940  1.2012  1.0764  1.5297
12771TIP3    H238236   6.289   6.684   1.963 -0.4706  0.3021 -0.9341
12772TIP3   OH238237   5.271   0.036   2.013  0.4829 -0.0653  0.6697
12772TIP3    H138238   5.299   0.081   1.933 -0.6062 -0.1675  0.2245
12772TIP3    H238239   5.234  -0.046   1.983 -2.8335  1.2302  0.9747
12773TIP3   OH238240   6.458   6.133   3.248  0.2256 -0.0641  0.3123
12773TIP3    H138241   6.491   6.176   3.169  0.0286  1.2150  0.9145
12773TIP3    H238242   6.533   6.131   3.308 -0.8392  3.2442  1.8466
12774TIP3   OH238243   1.111   6.215   5.509 -0.0972 -0.2388 -0.0333
12774TIP3    H138244   1.045   6.147   5.495  0.0833 -0.1669 -1.3324
12774TIP3    H238245   1.087   6.284   5.447  0.1744  0.5462  0.7298
12775TIP3   OH238246   6.431   6.525   3.225  0.3094  0.5758 -0.4729
12775TIP3    H138247   6.465   6.459   3.165 -1.1985  0.8357 -1.6447
12775TIP3    H238248   6.338   6.503   3.236  0.5231  0.5770  1.7277
12776TIP3   OH238249   6.468   4.009   3.945 -0.0996  0.1254 -0.3382
12776TIP3    H138250   6.380   3.978   3.968  0.9922 -2.8178  0.1056
12776TIP3    H238251   6.495   4.060   4.021 -1.2235  0.6043 -0.2496
12777TIP3   OH238252   0.724   4.065   5.983  0.4538 -0.0412 -0.1326
12777TIP3    H138253   0.778   4.013   6.043 -0.5167 -0.2529  0.5762
12777TIP3    H238254   0.725   4.153   6.021 -1.3071 -0.4801  1.0142
12778TIP3   OH238255   8.752   3.460   6.824 -0.1644  0.8384 -0.1427
12778TIP3    H138256   8.821   3.428   6.883 -2.0949 -3.4383  0.0248
12778TIP3    H238257   8.690   3.504   6.881  1.1355  2.5051  0.0389
12779TIP3   OH238258   4.301   8.256   4.367  0.6667  0.1628  0.1684
12779TIP3    H138259   4.364   8.196   4.328 -0.4249 -0.2194 -1.0117
12779TIP3    H238260   4.352   8.306   4.431  2.5348  0.9302 -1.8609
12780TIP3   OH238261   8.381   4.571   4.833 -0.3531 -0.4587 -0.0317
12780TIP3    H138262   8.440   4.642   4.805 -0.4526 -0.3849 -0.0555
12780TIP3    H238263   8.305   4.617   4.870 -0.4693 -0.5525 -0.1534
12781TIP3   OH238264   5.488   5.785   5.000 -0.2496  0.7715  0.3455
12781TIP3    H138265   5.568   5.736   5.021  0.2715  1.7465  0.6676
12781TIP3    H238266   5.496   5.866   5.050 -1.3355  0.9752  0.1921
12782TIP3   OH238267   8.383   4.182   6.228  0.3208 -0.1904 -0.2775
12782TIP3    H138268   8.393   4.155   6.137  1.3325 -1.0620  0.0715
12782TIP3    H238269   8.342   4.106   6.271 -3.0009  1.3482 -0.5998
12783TIP3   OH238270   7.993   4.423   6.861 -0.1073 -0.3231  0.1166
12783TIP3    H138271   7.947   4.445   6.780  0.5373  0.7948  0.0357
12783TIP3    H238272   8.073   4.379   6.832 -2.2201 -4.4949  0.3349
12784TIP3   OH238273   8.447   4.843   3.745  0.4944  0.5428  0.2320
12784TIP3    H138274   8.389   4.832   3.821 -2.4002  1.5547 -1.7801
12784TIP3    H238275   8.453   4.937   3.732  1.0212  0.3794 -0.7798
12785TIP3   OH238276   7.018   6.054   4.639  0.0705 -0.0938  0.1216
12785TIP3    H138277   7.102   6.008   4.646 -0.9549 -1.8881  0.7979
12785TIP3    H238278   6.957   5.989   4.604 -1.3063  0.8635  0.6908
12786TIP3   OH238279   7.320   4.706   5.925  0.1613  0.0860  0.1298
12786TIP3    H138280   7.357   4.793   5.941  0.7722 -0.3922  1.3947
12786TIP3    H238281   7.225   4.721   5.921  0.1523  0.6288  1.7858
12787TIP3   OH238282   0.261   4.666   5.959 -0.5119 -0.2794 -0.1187
12787TIP3    H138283   0.280   4.620   5.878  0.9366  1.8132 -1.0002
12787TIP3    H238284   0.181   4.715   5.941  0.3931  1.0176 -0.6442
12788TIP3   OH238285   6.316   3.509   4.593 -0.0120  0.4488  0.3866
12788TIP3    H138286   6.220   3.517   4.589  0.0838  1.4548 -0.0687
12788TIP3    H238287   6.335   3.504   4.686 -0.4680  0.8600  0.5082
12789TIP3   OH238288   8.127   5.688   5.750  0.1986  0.2575  0.4132
12789TIP3    H138289   8.129   5.741   5.829  1.1629  0.7384  0.0705
12789TIP3    H238290   8.094   5.603   5.779  2.6550 -0.2704  1.7817
12790TIP3   OH238291   8.353   6.772   5.410  0.0525 -0.6354 -0.1719
12790TIP3    H138292   8.393   6.768   5.498 -1.4319 -0.8233  0.5010
12790TIP3    H238293   8.287   6.703   5.411 -0.0764 -0.5273 -1.3932
12791TIP3   OH238294   8.136   3.175   7.161 -0.0973 -0.2359 -0.1957
12791TIP3    H138295   8.044   3.164   7.186  0.3996 -2.7266  0.6488
12791TIP3    H238296   8.164   3.254   7.207 -1.2127 -0.6894  1.3006
12792TIP3   OH238297   8.848   5.255   4.843 -0.2304  0.5050 -0.4039
12792TIP3    H138298   8.812   5.321   4.902 -0.4757 -0.4073  0.4908
12792TIP3    H238299   8.778   5.190   4.834  0.1196  0.2094 -1.0194
12793TIP3   OH238300   7.436   5.620   4.621 -0.3058  0.5244  0.4543
12793TIP3    H138301   7.346   5.652   4.624  0.0861  1.5976  1.1823
12793TIP3    H238302   7.490   5.700   4.621  0.6387 -0.1008 -0.2832
12794TIP3   OH238303   7.663   5.392   5.224  0.1030 -1.3003  0.2974
12794TIP3    H138304   7.602   5.381   5.150  0.5208 -0.9027 -0.1156
12794TIP3    H238305   7.745   5.420   5.183 -0.0430  0.2443  1.0234
12795TIP3   OH238306   8.699   6.194   4.927 -0.2159  0.1271 -0.4607
12795TIP3    H138307   8.628   6.236   4.878  0.0135  2.3885  1.0671
12795TIP3    H238308   8.656   6.119   4.970 -0.9859 -0.3146 -1.9410
12796TIP3   OH238309   8.026   7.918   4.909  0.0522  0.0889  0.0554
12796TIP3    H138310   8.088   7.889   4.976  1.5625 -0.4630 -1.5460
12796TIP3    H238311   7.957   7.963   4.958 -0.6711 -3.3024  2.3172
12797TIP3   OH238312   7.270   5.210   5.333  0.0115 -0.1471 -0.0906
12797TIP3    H138313   7.295   5.255   5.414  0.1352 -1.3154  0.5376
12797TIP3    H238314   7.321   5.129   5.334  0.7819  0.3038 -1.8585
12798TIP3   OH238315   6.081   2.820   5.864 -0.3374  0.0521  0.0939
12798TIP3    H138316   6.085   2.822   5.768 -0.8687  0.9927  0.0846
12798TIP3    H238317   6.001   2.771   5.883 -0.3272  0.0194  0.0543
12799TIP3   OH238318   6.819   3.061   4.200 -0.3626 -0.4714  0.2197
12799TIP3    H138319   6.823   3.019   4.286 -0.9083  0.9000  0.9320
12799TIP3    H238320   6.854   3.149   4.215 -0.3345 -0.2676 -0.9933
12800TIP3   OH238321   8.024   5.930   3.162 -0.2219  0.5631 -0.3773
12800TIP3    H138322   7.929   5.920   3.159 -0.0786 -0.6984 -0.7582
12800TIP3    H238323   8.042   6.009   3.111 -0.9185 -0.1874 -1.7854
12801TIP3   OH238324   6.725   7.005   4.523 -0.2016  0.0015  0.2320
12801TIP3    H138325   6.653   6.989   4.462  0.1484 -1.8125  0.2826
12801TIP3    H238326   6.682   7.041   4.601 -0.9406 -0.0702 -0.1317
12802TIP3   OH238327   8.271   5.012   5.766 -0.3482 -0.0899 -0.0211
12802TIP3    H138328   8.295   4.993   5.856  0.4970 -1.6669 -0.5498
12802TIP3    H238329   8.219   4.937   5.738  0.8680 -0.4648 -1.3712
12803TIP3   OH238330   8.799   4.194   5.603  0.0768  0.5302 -0.4178
12803TIP3    H138331   8.716   4.201   5.651  0.2850 -1.0379  0.2020
12803TIP3    H238332   8.786   4.121   5.543  0.9677  0.3488 -0.3993
12804TIP3   OH238333   8.760   7.032   4.863 -0.0001 -0.4683 -0.0403
12804TIP3    H138334   8.699   7.093   4.823  1.8561  0.8281 -1.0024
12804TIP3    H238335   8.706   6.961   4.897 -2.0372  0.8672 -0.4596
12805TIP3   OH238336   7.066   6.293   6.264 -0.5053 -0.0480 -0.0870
12805TIP3    H138337   7.021   6.365   6.220  0.4224  1.2856  1.1029
12805TIP3    H238338   6.996   6.244   6.308 -1.3385 -0.8941 -2.2706
12806TIP3   OH238339   7.881   6.964   4.935 -0.6724 -0.2162 -0.1641
12806TIP3    H138340   7.958   6.983   4.881 -0.4521 -1.1319 -0.1799
12806TIP3    H238341   7.916   6.945   5.022 -0.9822  0.6526  0.1504
12807TIP3   OH238342   2.000   5.247   4.563 -0.0210 -0.5945  0.7483
12807TIP3    H138343   2.055   5.325   4.561 -0.5433 -0.2473 -1.2663
12807TIP3    H238344   2.048   5.183   4.510 -0.8133 -0.8032  0.2757
12808TIP3   OH238345   7.791   4.638   6.376  0.5104  0.0766  0.2146
12808TIP3    H138346   7.880   4.640   6.411  0.1567 -0.9223  1.1841
12808TIP3    H238347   7.767   4.546   6.376 -0.3455  0.2892 -0.5355
12809TIP3   OH238348   0.674   3.170   7.074 -0.2731  0.2143  0.5373
12809TIP3    H138349   0.639   3.256   7.048  0.6969  0.9412  1.5919
12809TIP3    H238350   0.617   3.107   7.029 -0.6800  1.4025 -0.6765
12810TIP3   OH238351   5.968   5.699   5.482 -0.2688  0.1202  0.7298
12810TIP3    H138352   6.051   5.655   5.501  0.3111  1.4951  1.4061
12810TIP3    H238353   5.993   5.785   5.449 -1.3447 -0.7603 -2.5997
12811TIP3   OH238354   8.304   5.950   5.629 -0.1871  0.2486  0.3098
12811TIP3    H138355   8.210   5.962   5.641 -0.1443  0.2292  0.6701
12811TIP3    H238356   8.336   6.036   5.600 -0.2231  0.4310  0.7935
12812TIP3   OH238357   7.619   6.268   3.920  0.2146 -0.0782  0.2485
12812TIP3    H138358   7.568   6.226   3.989  0.3173  1.7902  1.4624
12812TIP3    H238359   7.685   6.202   3.897 -0.0031 -0.8273  1.6985
12813TIP3   OH238360   1.342   6.214   6.104 -0.2210 -0.3129 -0.1861
12813TIP3    H138361   1.307   6.128   6.080 -2.1086  0.7225 -1.2624
12813TIP3    H238362   1.387   6.199   6.187  0.7578 -2.6401 -1.0887
12814TIP3   OH238363   0.901   6.035   5.708 -0.1114 -0.0927  0.2641
12814TIP3    H138364   0.933   5.962   5.655 -2.6699 -0.0745 -1.4147
12814TIP3    H238365   0.834   5.996   5.764 -0.2459  0.6369  0.6199
12815TIP3   OH238366   6.176   6.337   3.682 -0.3495  0.3835  0.2921
12815TIP3    H138367   6.257   6.367   3.642 -0.9797  0.6639 -0.7991
12815TIP3    H238368   6.188   6.352   3.776  0.9212  0.2476  0.1566
12816TIP3   OH238369   7.850   3.726   4.977 -0.0384  0.2574  0.1024
12816TIP3    H138370   7.757   3.735   4.994  0.0715 -0.0177  0.8680
12816TIP3    H238371   7.892   3.795   5.028  0.1799  0.3758 -0.2310
12817TIP3   OH238372   7.048   5.488   5.554  0.1799 -0.0568  0.1740
12817TIP3    H138373   7.026   5.395   5.555  1.4564 -0.4247 -2.0367
12817TIP3    H238374   7.027   5.517   5.465  0.2238  1.6711  0.6954
12818TIP3   OH238375   7.566   6.990   3.852  0.2284  0.5509  0.5151
12818TIP3    H138376   7.632   6.977   3.783 -0.7833  0.7250 -0.5036
12818TIP3    H238377   7.585   6.921   3.916  0.8700  0.0526 -0.1914
12819TIP3   OH238378   7.619   6.433   4.996 -0.1681 -0.6553  0.2212
12819TIP3    H138379   7.681   6.360   4.993  1.3358  0.6212 -0.3347
12819TIP3    H238380   7.646   6.484   5.073 -0.8675 -0.3744  0.2868
12820TIP3   OH238381   8.388   7.949   2.857 -0.5779 -0.3645 -0.0828
12820TIP3    H138382   8.405   7.887   2.928  0.1597 -0.5701 -0.4318
12820TIP3    H238383   8.469   8.000   2.850  0.6378 -2.5280 -2.9718
12821TIP3   OH238384   8.587   8.015   4.561 -0.1747 -0.1370  0.1884
12821TIP3    H138385   8.539   8.075   4.618  0.8677 -1.0929  2.1370
12821TIP3    H238386   8.552   7.928   4.584 -0.3741 -0.4662 -1.2863
12822TIP3   OH238387   1.368   7.994   4.731 -0.0334  0.1615  0.5176
12822TIP3    H138388   1.299   7.985   4.665  0.1402 -0.7118  0.4526
12822TIP3    H238389   1.365   8.086   4.756  0.7064  0.8058 -1.5972
12823TIP3   OH238390   8.443   4.800   6.413 -0.1985 -0.4385 -0.0471
12823TIP3    H138391   8.495   4.779   6.335 -0.3176 -2.3866  0.3631
12823TIP3    H238392   8.422   4.715   6.451 -0.9514  0.4564  1.5952
12824TIP3   OH238393   0.690   5.970   5.890 -0.3451 -0.3584 -0.0312
12824TIP3    H138394   0.633   5.896   5.866  0.5136 -1.7985  2.2451
12824TIP3    H238395   0.633   6.029   5.939 -1.0426  0.5334 -1.8806
12825TIP3   OH238396   7.743   4.473   5.682 -0.2900 -0.0289 -0.6578
12825TIP3    H138397   7.718   4.517   5.763 -2.0201 -0.1998 -1.0842
12825TIP3    H238398   7.752   4.381   5.707  2.3493  0.3557  0.0132
12826TIP3   OH238399   5.812   5.748   5.260 -0.1494 -0.3058 -0.1136
12826TIP3    H138400   5.736   5.690   5.271 -1.0884  1.1023  0.8790
12826TIP3    H238401   5.862   5.737   5.340  0.1228 -0.3764 -0.2930
12827TIP3   OH238402   6.986   7.118   5.624 -0.2432 -0.7877  0.1579
12827TIP3    H138403   6.957   7.208   5.641 -0.3087 -1.0032  1.2476
12827TIP3    H238404   6.947   7.096   5.539 -0.8419 -0.0410  0.2299
12828TIP3   OH238405   7.808   5.922   5.698 -1.1213  0.1487  0.1736
12828TIP3    H138406   7.770   6.006   5.723  0.0297  0.2245  1.7272
12828TIP3    H238407   7.895   5.944   5.664 -1.1412 -0.3418 -0.2070
12829TIP3   OH238408   7.469   5.937   5.317 -0.0116 -0.1210  0.1095
12829TIP3    H138409   7.504   5.858   5.359 -0.1179 -0.4728 -0.4647
12829TIP3    H238410   7.385   5.951   5.360  1.0255  1.0211  1.8643
12830TIP3   OH238411   0.690   4.684   5.686 -0.1763  0.0550 -0.3140
12830TIP3    H138412   0.634   4.616   5.723 -0.3876  0.0249 -0.6859
12830TIP3    H238413   0.772   4.677   5.735  0.1246 -1.0649 -0.9682
12831TIP3   OH238414   8.870   5.931   4.888  0.1267  0.2037 -0.8185
12831TIP3    H138415   8.927   5.996   4.930 -1.1231  0.0647  1.1856
12831TIP3    H238416   8.785   5.944   4.931 -0.5310 -1.6990 -1.5182
12832TIP3   OH238417   7.265   4.805   4.635 -0.5229  0.1480  0.0958
12832TIP3    H138418   7.302   4.762   4.558 -2.3299 -1.4404  0.0758
12832TIP3    H238419   7.317   4.885   4.645 -0.0003  0.1770 -2.5254
12833TIP3   OH238420   7.731   5.345   5.902  0.1676  0.1400  0.0922
12833TIP3    H138421   7.792   5.383   5.966  0.4268 -0.1994  0.0465
12833TIP3    H238422   7.671   5.292   5.955 -1.1730  1.8717  0.3381
12834TIP3   OH238423   7.160   4.603   5.562  0.4586 -0.0008  0.0247
12834TIP3    H138424   7.247   4.594   5.601  0.3030  1.5946  0.7724
12834TIP3    H238425   7.147   4.697   5.555 -0.3407 -0.2351 -2.0651
12835TIP3   OH238426   0.783   0.246   5.522  0.3553  0.0200 -0.3615
12835TIP3    H138427   0.778   0.290   5.437 -1.5517  1.4059  0.4187
12835TIP3    H238428   0.706   0.190   5.525 -0.1521  0.7457  0.8399
12836TIP3   OH238429   8.594   3.932   4.155  0.5525  0.0321 -0.1272
12836TIP3    H138430   8.642   3.849   4.153  0.2856 -0.1185 -0.3641
12836TIP3    H238431   8.623   3.978   4.076 -1.2864 -0.9726 -1.4189
12837TIP3   OH238432   0.667   6.408   4.011 -0.2196 -0.2496 -0.1346
12837TIP3    H138433   0.756   6.382   3.988  0.7955  2.1271  0.9464
12837TIP3    H238434   0.616   6.392   3.932  1.5786  0.2813 -1.4321
12838TIP3   OH238435   0.262   4.932   6.899  0.1081  0.4429  0.1134
12838TIP3    H138436   0.219   5.011   6.867 -1.8893 -1.0947 -1.0929
12838TIP3    H238437   0.288   4.885   6.819  1.6986  0.0853  0.8119
12839TIP3   OH238438   7.361   4.181   1.907 -0.7308 -0.1438 -0.4361
12839TIP3    H138439   7.363   4.213   1.998 -0.8013  0.7481 -0.7377
12839TIP3    H238440   7.304   4.105   1.909 -2.1287  0.9088 -0.0443
12840TIP3   OH238441   6.434   5.223   4.438  0.1267  0.2010 -0.1244
12840TIP3    H138442   6.410   5.316   4.443 -1.8523 -0.4140  3.2855
12840TIP3    H238443   6.371   5.184   4.378 -1.2892  0.4511  1.1625
12841TIP3   OH238444   6.900   6.921   4.927 -0.1708 -0.0930 -0.0721
12841TIP3    H138445   6.987   6.894   4.957  0.5779  3.3055  0.9753
12841TIP3    H238446   6.904   6.914   4.831  0.4817 -2.0844  0.0788
12842TIP3   OH238447   7.542   3.832   5.133  0.2803  0.4074  0.7252
12842TIP3    H138448   7.544   3.811   5.039 -0.6918  2.8580  0.1051
12842TIP3    H238449   7.478   3.772   5.170 -0.8781  0.7893 -0.5883
12843TIP3   OH238450   3.623   6.268   5.101  0.5383 -0.3374 -0.2073
12843TIP3    H138451   3.676   6.344   5.124  0.5077 -0.6651  0.9686
12843TIP3    H238452   3.532   6.297   5.114  0.5034 -0.4058 -0.2911
12844TIP3   OH238453   6.101   4.723   6.949  0.3624  0.3461  0.0029
12844TIP3    H138454   6.112   4.756   6.860 -0.4622  1.5221  0.3096
12844TIP3    H238455   6.020   4.766   6.979  0.6046 -0.0925  1.2817
12845TIP3   OH238456   2.853   3.790   0.635 -0.0070 -0.0419  0.2368
12845TIP3    H138457   2.828   3.709   0.679  0.0906 -0.2410 -0.0655
12845TIP3    H238458   2.861   3.765   0.543  0.0292  0.3108  0.1444
12846TIP3   OH238459   6.809   3.947   4.169  0.2127 -0.2278 -0.4781
12846TIP3    H138460   6.848   3.969   4.254 -0.0223 -1.0179 -0.1642
12846TIP3    H238461   6.727   3.903   4.190  0.2607 -0.6278 -1.1136
12847TIP3   OH238462   6.505   6.186   6.001 -0.2558 -0.1010 -0.1800
12847TIP3    H138463   6.486   6.093   5.987 -0.7581 -0.1007  0.5307
12847TIP3    H238464   6.474   6.229   5.921  1.9794 -0.8044 -1.4799
12848TIP3   OH238465   0.090   6.293   3.991 -0.0566 -0.1815  0.0975
12848TIP3    H138466   0.001   6.324   4.005  0.1845  0.1454  0.9254
12848TIP3    H238467   0.143   6.372   3.984  0.2468 -0.3804  0.1084
12849TIP3   OH238468   6.409   6.678   5.107  0.2411 -0.2797  0.1525
12849TIP3    H138469   6.469   6.604   5.098  0.3490 -0.1635 -0.0748
12849TIP3    H238470   6.457   6.741   5.161  0.0024 -0.5320  0.6621
12850TIP3   OH238471   7.726   4.947   3.832  0.4556 -0.5411  0.0770
12850TIP3    H138472   7.764   4.864   3.802  1.3015 -0.0843 -0.1296
12850TIP3    H238473   7.740   4.947   3.927 -2.1085 -1.9276  0.4990
12851TIP3   OH238474   6.000   2.059   0.293  0.3467 -0.0988 -0.0057
12851TIP3    H138475   6.055   2.137   0.303 -1.1625  0.9338  0.4893
12851TIP3    H238476   6.061   1.990   0.266  1.4264  1.7290 -2.5610
12852TIP3   OH238477   0.197   7.122   3.437  0.1888 -0.3155  0.3019
12852TIP3    H138478   0.276   7.139   3.487  1.0437  3.6828 -2.2469
12852TIP3    H238479   0.127   7.164   3.487  0.3236 -0.2618  0.4434
12853TIP3   OH238480   2.015   8.156   1.222 -0.0532 -0.2012 -0.3813
12853TIP3    H138481   2.096   8.187   1.183  0.0204  0.1326  0.0209
12853TIP3    H238482   1.959   8.234   1.225  0.3080  0.0246  1.0864
12854TIP3   OH238483   7.132   4.358   7.093 -1.1233  0.0989  0.0219
12854TIP3    H138484   7.078   4.307   7.032  0.7275  0.0164 -1.6119
12854TIP3    H238485   7.222   4.343   7.063 -0.3577  2.2063  1.1561
12855TIP3   OH238486   6.834   5.321   3.146 -0.3050  0.4160 -0.4706
12855TIP3    H138487   6.874   5.234   3.152  0.1364  0.4809 -2.1675
12855TIP3    H238488   6.772   5.323   3.219  1.0681 -0.5760  0.7779
12856TIP3   OH238489   6.642   4.587   5.559  0.4986 -0.0202 -0.1508
12856TIP3    H138490   6.637   4.645   5.635  0.2428 -0.3372  0.0812
12856TIP3    H238491   6.689   4.637   5.493 -0.0078  0.5678 -0.0718
12857TIP3   OH238492   0.570   3.889   3.605  0.1107  0.6973  0.1293
12857TIP3    H138493   0.510   3.937   3.662  3.0648  3.0765  1.3610
12857TIP3    H238494   0.583   3.946   3.529 -0.4907 -0.5537 -0.9271
12858TIP3   OH238495   0.156   5.704   4.957 -0.1488  0.0219  0.1379
12858TIP3    H138496   0.213   5.757   5.012 -0.0842  0.0878  0.0062
12858TIP3    H238497   0.090   5.765   4.924  0.4625  0.2026 -0.7526
12859TIP3   OH238498   1.192   5.509   4.616  0.2062 -0.1005 -0.2901
12859TIP3    H138499   1.190   5.419   4.649 -0.4945  0.0580  0.1373
12859TIP3    H238500   1.103   5.541   4.633  1.1029  1.4316  1.7312
12860TIP3   OH238501   6.244   5.733   5.644  0.4206 -0.4045 -0.1213
12860TIP3    H138502   6.244   5.660   5.581  2.6027 -0.3833 -0.2028
12860TIP3    H238503   6.312   5.709   5.707 -1.0583  0.0639  1.6701
12861TIP3   OH238504   0.366   3.265   4.963  0.2356  0.2991  0.7183
12861TIP3    H138505   0.358   3.174   4.990  0.0223 -1.3623 -4.3762
12861TIP3    H238506   0.277   3.300   4.969 -0.2443 -0.7514 -0.1228
12862TIP3   OH238507   7.207   6.862   4.128  0.1143 -0.0956  0.2066
12862TIP3    H138508   7.184   6.784   4.179  0.7876 -0.2779  0.2406
12862TIP3    H238509   7.146   6.929   4.157  0.1117 -0.3666  0.8318
12863TIP3   OH238510   6.999   7.447   5.314 -0.2358  0.8360 -0.1389
12863TIP3    H138511   7.058   7.498   5.369 -1.1122  2.5882 -0.7952
12863TIP3    H238512   7.043   7.440   5.230  0.0624  0.1487  0.0689
12864TIP3   OH238513   8.386   6.250   5.638 -0.0402 -0.3926 -0.1985
12864TIP3    H138514   8.474   6.214   5.623  0.1030 -1.2003  2.1781
12864TIP3    H238515   8.365   6.223   5.728 -2.5430  0.1715 -0.5721
12865TIP3   OH238516   7.565   2.919   5.999  0.7656 -0.2860  0.2852
12865TIP3    H138517   7.563   2.873   6.083 -0.9971  0.1910  0.5158
12865TIP3    H238518   7.621   2.995   6.014  0.0305  0.0796  1.1821
12866TIP3   OH238519   5.817   3.783   4.045  0.5571  0.0430 -0.4422
12866TIP3    H138520   5.850   3.857   4.097 -2.6318  0.9053  0.4672
12866TIP3    H238521   5.797   3.715   4.109 -2.8688  0.9041 -0.5334
12867TIP3   OH238522   7.513   5.798   5.908 -0.1095  0.2828  0.4867
12867TIP3    H138523   7.422   5.769   5.907 -0.0171 -0.0157  0.7593
12867TIP3    H238524   7.558   5.736   5.964  0.4429 -0.0991 -0.3644
12868TIP3   OH238525   6.804   5.558   4.988  0.0289  0.5312 -0.0023
12868TIP3    H138526   6.829   5.576   5.079 -0.7341  3.1001 -0.2461
12868TIP3    H238527   6.721   5.606   4.977  0.0683  0.1592 -2.0245
12869TIP3   OH238528   7.553   6.939   5.468  0.0571  0.3758 -0.2853
12869TIP3    H138529   7.554   6.854   5.511  0.8685 -0.6778 -2.2977
12869TIP3    H238530   7.643   6.971   5.477  0.3338 -0.0311 -1.4985
12870TIP3   OH238531   4.625   1.228   0.197 -0.3900  0.4977 -0.4730
12870TIP3    H138532   4.602   1.252   0.286 -0.9393  0.6139 -0.6481
12870TIP3    H238533   4.567   1.280   0.142  0.4579  0.9806 -0.9155
12871TIP3   OH238534   7.720   3.699   3.692 -0.0015  0.4286 -0.4988
12871TIP3    H138535   7.658   3.754   3.643 -0.9021 -0.1742 -0.0581
12871TIP3    H238536   7.705   3.722   3.783 -1.1759 -1.3198 -0.2191
12872TIP3   OH238537   8.778   6.043   6.387  0.5908  0.2255  0.5155
12872TIP3    H138538   8.711   5.980   6.363  0.8257 -0.4063  1.4735
12872TIP3    H238539   8.749   6.079   6.471  0.9754  0.6319  0.4824
12873TIP3   OH238540   7.647   4.952   2.985  0.0908  0.3100  0.0492
12873TIP3    H138541   7.690   4.958   3.071  1.9071  2.2471 -0.9397
12873TIP3    H238542   7.555   4.937   3.006  0.7616 -1.0061  2.2926
12874TIP3   OH238543   6.143   5.459   5.551 -0.0898 -0.6380 -0.0627
12874TIP3    H138544   6.197   5.397   5.600 -0.3371 -1.8324 -1.2576
12874TIP3    H238545   6.102   5.406   5.483 -1.0343  0.6783 -0.5441
12875TIP3   OH238546   6.939   7.650   2.921 -0.4772  0.5934  0.1336
12875TIP3    H138547   7.024   7.631   2.962 -1.0962 -0.7646  0.8123
12875TIP3    H238548   6.958   7.652   2.827  0.1494 -0.5469  0.2262
12876TIP3   OH238549   7.985   3.220   5.859  0.4175 -0.4812 -0.2363
12876TIP3    H138550   7.950   3.133   5.878 -1.0572  0.0002 -0.6409
12876TIP3    H238551   8.004   3.218   5.765 -0.8067  0.0176 -0.5082
12877TIP3   OH238552   0.020   5.880   4.579  0.2841  0.1837  0.2608
12877TIP3    H138553   0.016   5.871   4.674  0.6756 -1.8881  0.1043
12877TIP3    H238554   0.114   5.887   4.560  0.2842 -0.7099 -0.0752
12878TIP3   OH238555   0.905   7.294   5.457 -0.5249 -0.0345 -0.4730
12878TIP3    H138556   0.912   7.313   5.551  0.0470  1.8393 -0.8670
12878TIP3    H238557   0.885   7.379   5.417  0.6603 -0.5333 -2.1980
12879TIP3   OH238558   0.221   7.052   5.346  0.5794  0.0977 -0.1607
12879TIP3    H138559   0.215   7.034   5.252 -0.2192  0.0987 -0.1087
12879TIP3    H238560   0.255   7.141   5.351  0.8126  0.0272 -0.4451
12880TIP3   OH238561   7.468   3.548   0.191  0.4634 -0.3437  0.2254
12880TIP3    H138562   7.510   3.487   0.250 -0.8059 -0.6757  0.8039
12880TIP3    H238563   7.508   3.530   0.105 -0.1363 -2.2163  0.3206
12881TIP3   OH238564   2.597   7.399   6.355  0.0274 -0.2376  0.2048
12881TIP3    H138565   2.504   7.379   6.364  0.0794 -1.1008 -0.9931
12881TIP3    H238566   2.611   7.473   6.413 -1.4208 -0.0635  0.3597
12882TIP3   OH238567   2.442   0.240   5.098  0.4435 -0.2230 -0.2293
12882TIP3    H138568   2.468   0.223   5.188  2.7052 -2.1112 -1.2062
12882TIP3    H238569   2.494   0.316   5.072 -0.9167  0.9272  0.3243
12883TIP3   OH238570   8.289   6.208   4.774  0.0769 -0.3270  0.2068
12883TIP3    H138571   8.355   6.277   4.776  0.9862 -1.1682 -0.4532
12883TIP3    H238572   8.207   6.252   4.798  0.7342  0.8764  0.2533
12884TIP3   OH238573   0.754   5.112   6.313  0.4727  0.6277 -0.3159
12884TIP3    H138574   0.777   5.094   6.404 -0.7467  1.6925  0.2189
12884TIP3    H238575   0.838   5.117   6.268  1.1225  0.6849  0.8655
12885TIP3   OH238576   7.244   7.430   7.211  0.2754 -0.0112 -0.1965
12885TIP3    H138577   7.175   7.374   7.245 -0.7896 -1.5074 -4.4431
12885TIP3    H238578   7.322   7.407   7.261 -0.9667 -2.7154  0.5432
12886TIP3   OH238579   7.268   4.054   3.563  0.2743 -0.4928  0.8682
12886TIP3    H138580   7.262   3.969   3.606 -0.6058  0.3868  2.5501
12886TIP3    H238581   7.234   4.116   3.628  1.0243  1.1574 -0.2812
12887TIP3   OH238582   4.778   2.059   0.946  0.6400 -0.0746 -0.2601
12887TIP3    H138583   4.772   2.054   0.851  0.9964 -0.0550 -0.2823
12887TIP3    H238584   4.855   2.113   0.963  0.4160  0.1584  0.0366
12888TIP3   OH238585   1.026   5.605   5.255  0.2405 -0.3582 -0.2066
12888TIP3    H138586   1.088   5.576   5.323 -0.2564 -2.6621 -0.6781
12888TIP3    H238587   1.059   5.690   5.227  2.1449 -0.7106  0.8514
12889TIP3   OH238588   7.442   4.990   4.277  0.2287  0.5902  0.2090
12889TIP3    H138589   7.379   5.042   4.229  0.2692  1.8216  1.4425
12889TIP3    H238590   7.517   5.048   4.290  2.3849 -1.3885 -2.7446
12890TIP3   OH238591   6.651   4.182   2.458  0.2835 -0.3123 -0.0027
12890TIP3    H138592   6.602   4.206   2.537  1.4188  1.4487  0.1980
12890TIP3    H238593   6.721   4.126   2.490  1.6924  1.6710  0.5086
12891TIP3   OH238594   3.369   7.255   0.136  0.4901 -0.3081  0.3673
12891TIP3    H138595   3.288   7.242   0.184 -0.8905  2.0671 -1.1980
12891TIP3    H238596   3.371   7.184   0.072 -0.8767  0.2070 -0.2564
12892TIP3   OH238597   2.112   6.758   0.300 -0.2262 -0.6270 -0.0424
12892TIP3    H138598   2.188   6.700   0.293  0.1589 -0.2579  1.0484
12892TIP3    H238599   2.036   6.699   0.292  0.1640 -1.2171  0.5932
12893TIP3   OH238600   0.360   5.664   3.151  0.3329  0.6664  0.3825
12893TIP3    H138601   0.449   5.700   3.160  1.2587 -2.0056  2.6410
12893TIP3    H238602   0.352   5.645   3.058  1.6556  2.0932 -0.0571
12894TIP3   OH238603   4.954   6.663   5.843 -0.0144  0.4633  0.3452
12894TIP3    H138604   4.965   6.590   5.783  1.3035  0.8972  0.0327
12894TIP3    H238605   5.013   6.642   5.917 -3.0160 -1.0098  2.4244
12895TIP3   OH238606   7.196   4.958   4.863 -0.4015  0.7675  0.3349
12895TIP3    H138607   7.248   4.904   4.923 -0.0204 -0.0431 -0.6984
12895TIP3    H238608   7.210   4.917   4.777 -1.8316  1.2420 -0.1255
12896TIP3   OH238609   1.927   3.479   5.482 -0.1287 -0.6583 -0.2453
12896TIP3    H138610   1.891   3.398   5.518 -1.8437  0.6980  1.1600
12896TIP3    H238611   2.012   3.488   5.524  0.8212 -2.5620 -1.6647
12897TIP3   OH238612   7.519   5.165   5.017  0.0810  0.4444 -0.3457
12897TIP3    H138613   7.468   5.236   5.055 -1.3042 -0.8512  0.2412
12897TIP3    H238614   7.586   5.210   4.964 -1.6433  2.1509 -1.1250
12898TIP3   OH238615   6.011   4.567   5.062 -0.0115 -0.1335 -0.0289
12898TIP3    H138616   5.944   4.635   5.061  0.2802  0.1403 -1.8590
12898TIP3    H238617   6.094   4.614   5.053  0.1639 -0.7423 -1.6955
12899TIP3   OH238618   7.364   3.640   5.232  0.7258 -0.5420  0.6469
12899TIP3    H138619   7.278   3.638   5.275  0.8238  1.3232  0.9534
12899TIP3    H238620   7.426   3.640   5.305  0.9423  0.3194  0.4586
12900TIP3   OH238621   7.195   3.997   6.184 -0.3894 -0.1582  0.2705
12900TIP3    H138622   7.149   4.043   6.253  0.4246  1.1621 -0.0441
12900TIP3    H238623   7.140   4.008   6.106  0.6860  1.8704 -0.2288
12901TIP3   OH238624   8.416   6.962   4.024  0.1235  0.1316 -0.3027
12901TIP3    H138625   8.345   6.989   3.966 -2.5051 -0.7439  2.3844
12901TIP3    H238626   8.469   7.042   4.035 -0.5803  0.8819 -2.0618
12902TIP3   OH238627   5.362   7.514   6.887  0.2973 -0.0322 -0.2761
12902TIP3    H138628   5.386   7.546   6.974  1.5809 -1.8271  0.0631
12902TIP3    H238629   5.377   7.588   6.829  0.0376  0.9968  0.9264
12903TIP3   OH238630   7.356   6.673   7.047  0.2281 -0.3306 -0.1404
12903TIP3    H138631   7.345   6.763   7.017  1.1205  0.0871  0.7480
12903TIP3    H238632   7.310   6.670   7.131  0.2793 -0.6805 -0.1223
12904TIP3   OH238633   5.277   0.950   0.067  0.2896 -0.2826 -0.1278
12904TIP3    H138634   5.240   0.909  -0.011 -1.6865 -0.8216  1.0607
12904TIP3    H238635   5.203   0.995   0.109  1.1750 -0.4759  1.7293
12905TIP3   OH238636   8.771   7.435   4.875  0.2777  0.3191  0.4593
12905TIP3    H138637   8.866   7.441   4.887  0.1355  0.4067  1.5670
12905TIP3    H238638   8.734   7.448   4.962 -0.8438  2.3756 -0.2842
12906TIP3   OH238639   0.157   5.303   6.511 -0.1404 -0.1509 -0.3214
12906TIP3    H138640   0.140   5.275   6.601  0.5330  0.8769  0.1420
12906TIP3    H238641   0.144   5.224   6.458  1.2518 -1.2168  0.8832
12907TIP3   OH238642   0.117   6.975   5.082  0.2395 -0.1113 -0.0172
12907TIP3    H138643   0.036   6.928   5.063  0.3350  0.5255 -2.1460
12907TIP3    H238644   0.174   6.956   5.007  1.4954  0.6744  0.7275
12908TIP3   OH238645   8.109   7.250   4.691  0.2497  0.0211 -0.4984
12908TIP3    H138646   8.116   7.157   4.713 -2.2333  0.1392  1.0384
12908TIP3    H238647   8.080   7.252   4.600 -0.1349 -0.7249 -0.3947
12909TIP3   OH238648   7.593   7.295   3.733 -0.2075  0.3793  0.7912
12909TIP3    H138649   7.596   7.303   3.638  0.7666 -0.1365  0.7709
12909TIP3    H238650   7.525   7.230   3.749  0.0473  0.0146  0.4122
12910TIP3   OH238651   6.888   7.410   4.813 -0.0615  0.4743 -0.1232
12910TIP3    H138652   6.866   7.501   4.791 -0.6929  0.8131  1.8777
12910TIP3    H238653   6.956   7.417   4.880 -0.3054 -0.5257  0.2332
12911TIP3   OH238654   6.755   7.702   5.840  0.3762 -0.1437  0.4851
12911TIP3    H138655   6.836   7.702   5.789  0.5002 -0.8854  0.6838
12911TIP3    H238656   6.759   7.782   5.891  0.0057  0.8978 -1.0638
12912TIP3   OH238657   6.955   7.741   4.925 -0.0531 -0.0429  0.2562
12912TIP3    H138658   6.874   7.744   4.976  0.5956  1.0689  1.2410
12912TIP3    H238659   6.995   7.827   4.939  1.7348 -0.9041  0.4880
12913TIP3   OH238660   6.731   6.425   3.936  0.1120  0.5423  0.2257
12913TIP3    H138661   6.693   6.392   4.017  2.5585 -0.2425  1.0977
12913TIP3    H238662   6.681   6.381   3.867  0.0771 -1.2303  1.3491
12914TIP3   OH238663   6.579   6.078   6.256  0.0046 -0.3899  0.5040
12914TIP3    H138664   6.548   6.121   6.176  0.2857 -1.1488 -0.0125
12914TIP3    H238665   6.667   6.115   6.269  0.3156 -0.9285 -0.0362
12915TIP3   OH238666   6.773   5.386   6.602 -0.2238  0.0396  0.4357
12915TIP3    H138667   6.792   5.398   6.695  1.5583  0.3280  0.0538
12915TIP3    H238668   6.787   5.473   6.563 -0.2369 -0.2474 -0.2267
12916TIP3   OH238669   6.718   7.248   4.243  0.2659  0.5696 -0.3506
12916TIP3    H138670   6.710   7.319   4.179 -2.4443 -0.0034 -0.7322
12916TIP3    H238671   6.712   7.168   4.191  1.6008  0.0800  0.2524
12917TIP3   OH238672   6.961   3.804   2.691 -0.0278 -0.2382  0.6514
12917TIP3    H138673   7.056   3.802   2.702 -0.0461 -0.4795  0.7584
12917TIP3    H238674   6.939   3.718   2.654  0.0372  0.5117 -1.2235
12918TIP3   OH238675   6.483   3.141   4.242 -0.3729 -0.4627 -0.2361
12918TIP3    H138676   6.558   3.200   4.243 -0.1311 -0.7195 -1.7585
12918TIP3    H238677   6.494   3.090   4.162 -0.6743 -2.4416  0.9372
12919TIP3   OH238678   0.494   5.982   4.544  0.3749  0.4307  0.7333
12919TIP3    H138679   0.434   5.998   4.471  0.3276 -1.3539  0.3584
12919TIP3    H238680   0.456   6.029   4.618 -0.4659  0.8772  0.0222
12920TIP3   OH238681   5.432   6.700   4.469 -0.1182  0.1555 -0.3274
12920TIP3    H138682   5.479   6.761   4.412  0.7613 -0.3840 -0.1898
12920TIP3    H238683   5.500   6.661   4.524 -0.9703  0.7968  1.2121
12921TIP3   OH238684   7.649   3.488   4.657 -0.5803  0.9090 -0.7690
12921TIP3    H138685   7.616   3.398   4.665  1.4035  0.2637  0.7270
12921TIP3    H238686   7.574   3.539   4.628 -2.5915 -0.7050  1.4150
12922TIP3   OH238687   7.707   5.622   4.899 -0.4447  0.1990 -0.6728
12922TIP3    H138688   7.663   5.684   4.958  2.7143  0.7500  1.2196
12922TIP3    H238689   7.653   5.622   4.820 -2.4910  2.6514  0.6417
12923TIP3   OH238690   0.587   6.202   2.937 -0.1857  0.5631 -0.1417
12923TIP3    H138691   0.579   6.162   3.023 -1.3680 -0.5219 -0.7339
12923TIP3    H238692   0.680   6.227   2.930 -0.2027  1.1511  1.6350
12924TIP3   OH238693   8.106   6.190   5.191 -0.5738  0.6096 -0.4956
12924TIP3    H138694   8.178   6.243   5.227  0.7550 -0.4619 -1.5482
12924TIP3    H238695   8.090   6.124   5.258 -0.3395  0.6365 -0.4110
12925TIP3   OH238696   6.470   3.885   5.193  0.1467 -0.1514  0.5299
12925TIP3    H138697   6.375   3.882   5.176  0.2366  1.2201 -0.2918
12925TIP3    H238698   6.509   3.895   5.106  0.9302  1.4404  1.0397
12926TIP3   OH238699   0.456   1.477   4.446  0.1624  0.1211  0.3291
12926TIP3    H138700   0.535   1.477   4.501 -0.2472 -0.7828  0.9385
12926TIP3    H238701   0.384   1.487   4.508 -0.2899 -0.6479 -0.0649
12927TIP3   OH238702   1.601   1.123   5.678 -0.0089  0.3372  0.1786
12927TIP3    H138703   1.551   1.118   5.759 -0.0013  1.5725  0.2728
12927TIP3    H238704   1.674   1.062   5.691  1.0221  1.8580  1.8580
12928TIP3   OH238705   1.981   6.676   5.688  0.2277  0.5965 -0.3494
12928TIP3    H138706   1.927   6.753   5.668 -1.7228 -0.9737 -1.3839
12928TIP3    H238707   1.919   6.612   5.723  1.9051 -0.3486  0.9464
12929TIP3   OH238708   7.454   8.119   4.663  0.5024  0.2088  0.1227
12929TIP3    H138709   7.363   8.099   4.685  0.7000 -3.1335 -1.6900
12929TIP3    H238710   7.453   8.134   4.569  1.6730  1.3055  0.2700
12930TIP3   OH238711   8.667   7.200   3.635  0.6378 -0.3885 -0.0741
12930TIP3    H138712   8.614   7.278   3.618  2.2678  0.5325 -1.0676
12930TIP3    H238713   8.607   7.127   3.623 -0.8939  0.7040  0.7900
12931TIP3   OH238714   1.313   6.391   3.483  0.2562  0.4149 -0.0313
12931TIP3    H138715   1.256   6.468   3.476  0.0684  0.1688 -1.3097
12931TIP3    H238716   1.396   6.419   3.445  0.5560  0.3264  0.5425
12932TIP3   OH238717   7.624   6.156   5.230  0.3400  0.0291 -0.5978
12932TIP3    H138718   7.713   6.121   5.228  0.6873  0.5304  2.6330
12932TIP3    H238719   7.567   6.080   5.236  0.6467 -0.2281 -0.9701
12933TIP3   OH238720   7.494   6.104   3.667 -0.0325 -0.5796  0.0324
12933TIP3    H138721   7.492   6.088   3.573 -0.4823  3.1025 -0.6841
12933TIP3    H238722   7.406   6.134   3.689  0.7734  1.1287  1.0891
12934TIP3   OH238723   1.381   7.587   5.412 -0.3027 -0.6116 -0.1262
12934TIP3    H138724   1.473   7.598   5.437 -0.2367 -0.0422 -0.6277
12934TIP3    H238725   1.340   7.671   5.435 -0.7924 -1.0126  0.4998
12935TIP3   OH238726   7.257   5.960   5.493  0.2987 -0.0124  0.2925
12935TIP3    H138727   7.203   6.015   5.549  0.9360  1.0242 -0.1117
12935TIP3    H238728   7.239   5.871   5.523 -0.9863  0.3817  0.7235
12936TIP3   OH238729   8.844   5.206   5.396 -0.2454  0.3151  0.3741
12936TIP3    H138730   8.823   5.124   5.442 -1.3031  0.4307  0.1091
12936TIP3    H238731   8.900   5.178   5.323 -1.2288 -0.2784 -0.1692
12937TIP3   OH238732   0.322   7.992   2.889 -0.0364 -0.5111 -0.0832
12937TIP3    H138733   0.335   7.957   2.977 -1.5005  1.6641  1.0385
12937TIP3    H238734   0.402   8.041   2.871 -0.0777 -0.2677  0.3804
12938TIP3   OH238735   8.032   5.849   4.145  0.2171  0.1756  0.3296
12938TIP3    H138736   7.936   5.851   4.152  0.0518 -1.1629 -1.1338
12938TIP3    H238737   8.059   5.940   4.154 -1.4056  0.8968 -1.6334
12939TIP3   OH238738   8.711   7.020   2.018 -0.5768 -0.3450 -0.3970
12939TIP3    H138739   8.661   6.962   2.076 -0.2155 -1.7521 -1.4621
12939TIP3    H238740   8.745   6.962   1.950  0.7496  0.9511 -0.8588
12940TIP3   OH238741   7.062   5.835   4.056  0.2702 -0.0532  0.1033
12940TIP3    H138742   7.077   5.918   4.012  1.0607 -1.1155 -1.6986
12940TIP3    H238743   7.111   5.771   4.004  0.3429 -1.5214  1.9288
12941TIP3   OH238744   8.547   6.106   3.584 -0.6978  0.5418 -0.3920
12941TIP3    H138745   8.617   6.123   3.647 -1.2492  1.4350 -0.0121
12941TIP3    H238746   8.498   6.032   3.622 -1.8671  1.9766  0.9392
12942TIP3   OH238747   7.031   0.105   0.765  0.8712  0.4042  0.1621
12942TIP3    H138748   6.951   0.086   0.814  1.7938  1.4312  2.1175
12942TIP3    H238749   7.004   0.103   0.673 -0.9819 -1.1422  0.7181
12943TIP3   OH238750   0.460   5.248   4.955 -0.2958 -0.1321  0.4599
12943TIP3    H138751   0.395   5.305   4.994  1.5937  3.9426 -2.0119
12943TIP3    H238752   0.543   5.296   4.964  1.6818 -3.2191 -0.3033
12944TIP3   OH238753   7.360   6.639   6.351  0.6015  0.0903  0.2748
12944TIP3    H138754   7.267   6.651   6.332  0.8593 -1.1903 -1.9254
12944TIP3    H238755   7.400   6.725   6.334 -0.0315  0.4052  0.3790
12945TIP3   OH238756   7.209   5.047   3.243  0.4550 -0.4945  0.0044
12945TIP3    H138757   7.228   5.106   3.316  0.9633  0.5394 -0.9522
12945TIP3    H238758   7.147   4.983   3.279 -1.9429  1.9853  0.4464
12946TIP3   OH238759   0.834   6.113   2.671  0.0615  0.5864 -0.6551
12946TIP3    H138760   0.787   6.195   2.655  0.4950  0.7875 -0.9033
12946TIP3    H238761   0.926   6.138   2.673  0.3086 -0.1323 -2.2295
12947TIP3   OH238762   0.640   5.511   2.991 -0.1885 -0.0310  1.0425
12947TIP3    H138763   0.581   5.573   2.948 -1.5434 -1.4725  0.7471
12947TIP3    H238764   0.582   5.441   3.022  1.1928 -0.7135  2.1540
12948TIP3   OH238765   1.440   6.536   7.127  0.4398 -0.1804  0.3252
12948TIP3    H138766   1.409   6.513   7.040  0.6166 -1.5774  0.6218
12948TIP3    H238767   1.535   6.526   7.122  0.3916 -0.9477  0.8679
12949TIP3   OH238768   2.789   7.013   6.486 -0.1288 -0.8073  0.1716
12949TIP3    H138769   2.880   6.991   6.466 -0.3939 -1.2135 -0.6011
12949TIP3    H238770   2.742   6.930   6.480 -0.7204 -0.4333 -0.3850
12950TIP3   OH238771   7.414   3.116   0.252 -0.4987  0.1561  0.2709
12950TIP3    H138772   7.477   3.135   0.183  0.8910 -2.7086  0.6377
12950TIP3    H238773   7.449   3.160   0.329 -1.2811  2.1642 -0.5056
12951TIP3   OH238774   3.294   6.134   7.045  0.5463  0.3281 -0.3339
12951TIP3    H138775   3.238   6.060   7.064 -1.5527  2.2763  1.3506
12951TIP3    H238776   3.358   6.135   7.116  1.1181 -0.3587 -0.8325
12952TIP3   OH238777   8.140   0.935   1.209 -0.6736  0.0660  0.0881
12952TIP3    H138778   8.102   0.848   1.198 -1.2897  0.1520  1.5335
12952TIP3    H238779   8.077   0.983   1.263  0.3985  0.9329  0.5942
12953TIP3   OH238780   8.404   5.341   7.218  0.1669 -0.2088  0.6146
12953TIP3    H138781   8.360   5.275   7.272 -1.0145  0.6874  0.7533
12953TIP3    H238782   8.373   5.424   7.252 -0.5564  0.3742 -1.4281
12954TIP3   OH238783   2.291   6.761   6.481  0.6427 -0.1202 -0.3751
12954TIP3    H138784   2.237   6.682   6.476 -0.6907  0.7771 -0.0869
12954TIP3    H238785   2.260   6.817   6.410  1.5255  0.2072 -0.5174
12955TIP3   OH238786   7.522   2.212   0.120  0.3559  0.1119 -0.4820
12955TIP3    H138787   7.582   2.260   0.063  0.6760 -0.0957 -0.3214
12955TIP3    H238788   7.474   2.153   0.062  0.4753  0.1075 -0.5744
12956TIP3   OH238789   0.918   6.619   6.451 -0.1548 -0.4384 -0.1091
12956TIP3    H138790   1.010   6.643   6.456 -0.3070  0.2021 -0.3321
12956TIP3    H238791   0.918   6.530   6.416  0.3416 -0.1017 -0.9925
12957TIP3   OH238792   4.267   1.721   5.907 -0.5877 -0.8051  0.0791
12957TIP3    H138793   4.190   1.664   5.910 -1.8319  0.8247 -0.4758
12957TIP3    H238794   4.297   1.726   5.998 -2.0321 -0.2531  0.5369
12958TIP3   OH238795   8.812   4.994   1.253  0.2846 -0.1312 -0.4218
12958TIP3    H138796   8.790   5.003   1.160  0.2774  1.0932 -0.3050
12958TIP3    H238797   8.815   4.899   1.268 -2.1046 -0.3428 -1.1142
12959TIP3   OH238798   2.341   5.607   7.036  0.0561 -0.1032  0.1536
12959TIP3    H138799   2.398   5.647   6.970  0.7479  0.0819  0.8574
12959TIP3    H238800   2.261   5.584   6.988  0.5766 -0.0294 -0.7609
12960TIP3   OH238801   0.716   5.332   7.115 -0.3163 -0.2260 -0.1902
12960TIP3    H138802   0.810   5.324   7.099 -0.5266  2.4595 -3.2366
12960TIP3    H238803   0.675   5.285   7.043 -1.3097  0.7617 -0.2765
12961TIP3   OH238804   0.098   0.317   0.075  0.0575 -0.4049 -0.2617
12961TIP3    H138805   0.178   0.282   0.114 -0.2305 -1.6935 -0.8054
12961TIP3    H238806   0.104   0.295  -0.018 -1.4673 -1.5802 -0.1084
12962TIP3   OH238807   1.562   5.694   6.207  0.1926 -0.1274 -0.0807
12962TIP3    H138808   1.654   5.675   6.194 -0.4385 -3.0367 -0.6591
12962TIP3    H238809   1.560   5.784   6.239  2.9644  1.1761 -3.2982
12963TIP3   OH238810   0.688   6.015   6.825 -0.2403  0.6901 -0.0536
12963TIP3    H138811   0.666   6.101   6.789 -0.8085  0.0055 -1.3519
12963TIP3    H238812   0.732   5.969   6.754 -1.7928 -0.8442 -0.0524
12964TIP3   OH238813   0.541   5.306   6.865  0.2396  0.6361 -0.2071
12964TIP3    H138814   0.565   5.352   6.784  0.8914  1.1748  0.2917
12964TIP3    H238815   0.519   5.217   6.836 -0.3115  1.0408 -1.0830
12965TIP3   OH238816   2.338   6.331   6.928  0.3252  0.3624 -0.1061
12965TIP3    H138817   2.287   6.262   6.971 -1.0219  1.1053 -0.4801
12965TIP3    H238818   2.402   6.283   6.875 -1.0289 -0.6330 -0.8835
12966TIP3   OH238819   0.506   4.424   6.525 -0.3944 -0.2373 -0.1403
12966TIP3    H138820   0.563   4.493   6.492 -1.3174  0.6363  0.0573
12966TIP3    H238821   0.429   4.470   6.558 -0.2593 -1.2338  1.6251
12967TIP3   OH238822   8.905   2.063   0.415 -0.6411  0.5711  0.1619
12967TIP3    H138823   8.834   2.120   0.444 -1.0751  0.4545 -0.6426
12967TIP3    H238824   8.957   2.119   0.357  0.1595  0.7747  1.0622
12968TIP3   OH238825   1.017   6.359   5.985 -0.2564 -0.2422 -0.1397
12968TIP3    H138826   0.996   6.422   5.916  0.4323 -0.7394 -0.8183
12968TIP3    H238827   1.105   6.382   6.013  0.4120 -1.5123 -1.1082
12969TIP3   OH238828   2.264   7.095   5.862 -0.0774 -0.9870 -0.0630
12969TIP3    H138829   2.226   7.019   5.818 -0.9152  0.4563 -1.8590
12969TIP3    H238830   2.205   7.112   5.935 -0.3991 -1.4888 -0.2020
12970TIP3   OH238831   8.233   1.450   2.045 -0.3686 -0.3185 -0.4344
12970TIP3    H138832   8.294   1.523   2.041 -1.0618  0.2873 -0.1196
12970TIP3    H238833   8.287   1.373   2.061  0.4276  0.0433 -1.3480
12971TIP3   OH238834   0.957   4.539   5.214  0.5196  0.1019  0.3885
12971TIP3    H138835   0.945   4.449   5.182 -1.9503  1.4568 -2.7380
12971TIP3    H238836   0.914   4.539   5.300  1.2967 -1.9094  0.8050
12972TIP3   OH238837   1.792   6.339   3.608  0.1532 -0.3977  0.5664
12972TIP3    H138838   1.698   6.322   3.609  0.0523  0.1589  2.2622
12972TIP3    H238839   1.799   6.431   3.582  0.1620 -0.1238  1.5198
12973TIP3   OH238840   7.840   2.227   1.136  0.8958  0.6653 -0.1254
12973TIP3    H138841   7.766   2.271   1.180  0.7322  0.0496  0.2181
12973TIP3    H238842   7.909   2.224   1.202  0.5884 -0.4236  0.1564
12974TIP3   OH238843   5.979   0.135   4.139 -0.0375 -0.2997  0.2660
12974TIP3    H138844   5.981   0.119   4.045 -0.6147  0.7195  0.0715
12974TIP3    H238845   6.068   0.115   4.170 -0.2922 -2.2501 -0.2128
12975TIP3   OH238846   3.503   0.917   4.604 -0.4936  0.5323  0.4192
12975TIP3    H138847   3.518   0.982   4.673  3.0511 -0.0193  0.2742
12975TIP3    H238848   3.525   0.833   4.645 -0.3759 -0.0221 -0.7575
12976TIP3   OH238849   0.680   5.663   6.397  0.2339 -0.1484 -0.1674
12976TIP3    H138850   0.764   5.623   6.417 -0.0121 -1.1657 -1.1379
12976TIP3    H238851   0.628   5.650   6.477 -0.9711 -4.7690 -1.5660
12977TIP3   OH238852   4.899   2.132   1.289  0.2155 -0.2283  0.7258
12977TIP3    H138853   4.820   2.112   1.339  0.0317 -2.5094 -0.4299
12977TIP3    H238854   4.961   2.165   1.354 -1.2158  0.2853  1.8620
12978TIP3   OH238855   4.747   0.315   0.177 -0.1233 -0.2729 -0.3714
12978TIP3    H138856   4.659   0.278   0.169  0.2633 -1.1439 -0.7034
12978TIP3    H238857   4.792   0.286   0.098  0.6168 -0.2702  0.0447
12979TIP3   OH238858   3.090   6.186   5.344 -0.1814  0.0631 -0.3788
12979TIP3    H138859   3.141   6.106   5.349  0.9113  0.7192 -0.8025
12979TIP3    H238860   3.093   6.222   5.433 -2.0720 -1.2014  0.2140
12980TIP3   OH238861   7.335   4.018   1.106 -0.1809 -0.2775  0.0021
12980TIP3    H138862   7.355   4.091   1.048  1.7644 -1.1456 -0.4793
12980TIP3    H238863   7.398   4.026   1.178 -0.6237 -0.8843  0.4649
12981TIP3   OH238864   1.545   4.388   5.805  0.1892  0.2987 -0.7494
12981TIP3    H138865   1.533   4.308   5.855 -0.4937  0.9815  0.1762
12981TIP3    H238866   1.484   4.381   5.732 -0.0907  0.1248 -0.4949
12982TIP3   OH238867   7.346   2.227   0.398 -0.5455  0.4994  0.3844
12982TIP3    H138868   7.353   2.303   0.456  2.3289  0.7511 -0.2318
12982TIP3    H238869   7.268   2.244   0.346 -1.7962  1.4246  2.5102
12983TIP3   OH238870   2.679   5.318   7.071 -0.3494 -0.1942 -0.5533
12983TIP3    H138871   2.701   5.226   7.087  1.5056  0.1671 -0.9768
12983TIP3    H238872   2.721   5.366   7.142 -1.5551  0.3220 -0.1683
12984TIP3   OH238873   3.198   8.351   0.219 -0.4702 -0.2829 -0.2721
12984TIP3    H138874   3.250   8.339   0.140 -0.7958 -0.3171 -0.4832
12984TIP3    H238875   3.159   8.438   0.208  0.1834  0.0837  0.2590
12985TIP3   OH238876   6.898   2.111   1.035 -0.4134 -0.0399  0.2864
12985TIP3    H138877   6.938   2.155   0.960  1.5494  0.3458  1.5252
12985TIP3    H238878   6.840   2.045   0.996  0.6026  0.1165 -1.5506
12986TIP3   OH238879   8.705   2.328   1.231  0.3614  0.2511  0.2768
12986TIP3    H138880   8.693   2.313   1.137  1.3934 -0.3621  0.2306
12986TIP3    H238881   8.625   2.372   1.259 -0.9991 -1.7076 -0.4237
12987TIP3   OH238882   8.101   6.128   6.735  0.0044  0.1568 -0.1347
12987TIP3    H138883   8.160   6.183   6.787 -0.6122  0.9314 -0.2627
12987TIP3    H238884   8.150   6.046   6.724  2.3011  1.8014 -2.7328
12988TIP3   OH238885   0.907   6.344   6.414 -0.3523  0.0609 -0.8873
12988TIP3    H138886   0.847   6.361   6.486 -0.0190  0.4563 -0.7011
12988TIP3    H238887   0.874   6.263   6.374 -1.1274  0.3919 -0.9225
12989TIP3   OH238888   6.259   5.033   0.195 -0.3166  0.3161  0.1415
12989TIP3    H138889   6.310   4.966   0.240 -2.4218 -0.8587  0.8412
12989TIP3    H238890   6.243   5.099   0.262 -2.4308 -0.8635  0.8456
12990TIP3   OH238891   6.376   1.162   0.194  0.1453  0.2447  0.3306
12990TIP3    H138892   6.392   1.071   0.217  2.6264  0.4081 -0.5798
12990TIP3    H238893   6.455   1.189   0.146 -0.8127  2.6758  0.0390
12991TIP3   OH238894   6.504   1.431   1.961  0.6673  0.3819 -0.4801
12991TIP3    H138895   6.546   1.462   1.881 -0.9868  2.5135 -0.5927
12991TIP3    H238896   6.519   1.502   2.024  0.6600 -0.6082  0.6454
12992TIP3   OH238897   0.792   5.069   6.613  0.6865  0.3937  0.4922
12992TIP3    H138898   0.734   5.134   6.654 -0.6789 -0.9879  0.8227
12992TIP3    H238899   0.878   5.088   6.649  0.4121  2.3305  0.2038
12993TIP3   OH238900   0.900   5.263   5.222 -0.1438 -0.0152  0.4600
12993TIP3    H138901   0.993   5.283   5.230 -0.2582  0.5813  0.2736
12993TIP3    H238902   0.864   5.281   5.309  0.1902 -1.7247  0.9812
12994TIP3   OH238903   8.663   1.274   1.236 -0.1377 -0.2763  0.7008
12994TIP3    H138904   8.588   1.259   1.294  0.8728 -0.3170  2.0322
12994TIP3    H238905   8.643   1.223   1.157 -1.8848  0.3774  0.7023
12995TIP3   OH238906   4.430   2.141   0.049 -0.0338 -0.0741  0.2246
12995TIP3    H138907   4.360   2.161   0.111  1.1073  0.3140  1.4344
12995TIP3    H238908   4.461   2.054   0.074  0.5492  0.1577  0.3398
12996TIP3   OH238909   6.842   1.343   1.732 -0.5207 -0.8918  0.3006
12996TIP3    H138910   6.818   1.293   1.810 -1.1967 -2.7376 -1.0408
12996TIP3    H238911   6.938   1.335   1.728 -0.4502 -0.5027  1.1221
12997TIP3   OH238912   3.767   8.168   0.562  0.2189  0.4330  0.2680
12997TIP3    H138913   3.822   8.133   0.491 -0.7114 -1.7448  0.5664
12997TIP3    H238914   3.814   8.144   0.642  0.2307  1.0595  0.4475
12998TIP3   OH238915   0.166   4.177   0.584 -0.2949 -0.2697  0.2511
12998TIP3    H138916   0.215   4.247   0.540 -1.8437  1.1518  0.7751
12998TIP3    H238917   0.077   4.210   0.591 -1.0309 -2.2552  0.6282
12999TIP3   OH238918   4.045   7.882   0.398 -0.3468  0.3270 -0.2553
12999TIP3    H138919   4.056   7.825   0.322  1.1923  0.7477 -0.3748
12999TIP3    H238920   4.012   7.825   0.467 -1.1866 -0.1798 -1.0744
13000TIP3   OH238921   3.363   5.314   6.365  0.3123  0.2910 -0.0281
13000TIP3    H138922   3.296   5.246   6.354  0.9045 -0.2951 -0.0881
13000TIP3    H238923   3.418   5.306   6.287 -0.5598  1.9275 -0.8148
13001TIP3   OH238924   0.943   5.060   6.087  0.2128  0.1798  0.1057
13001TIP3    H138925   0.936   4.973   6.127  0.2613  0.4103  0.6245
13001TIP3    H238926   0.923   5.046   5.994 -3.4788  0.2077  0.8263
13002TIP3   OH238927   1.706   6.472   7.143 -0.0741 -0.6712 -0.2015
13002TIP3    H138928   1.710   6.394   7.087 -0.0687  0.1986 -1.4331
13002TIP3    H238929   1.783   6.524   7.118  0.4624 -0.7199  1.2984
13003TIP3   OH238930   1.275   5.922   6.692  0.2444 -0.0286 -0.1568
13003TIP3    H138931   1.347   5.935   6.754  0.3910  1.8335 -0.7112
13003TIP3    H238932   1.310   5.857   6.630  1.0721  0.1036  0.1567
13004TIP3   OH238933   0.743   6.121   5.332  0.1256 -0.2397  0.2294
13004TIP3    H138934   0.653   6.109   5.303  0.4299 -2.1168 -0.0585
13004TIP3    H238935   0.787   6.165   5.260 -0.3942 -0.0029  0.0592
13005TIP3   OH238936   1.633   8.176   6.435  0.4131  0.0012  0.2099
13005TIP3    H138937   1.680   8.194   6.517  0.8137  0.6458 -0.1560
13005TIP3    H238938   1.687   8.216   6.367 -0.0630 -0.2867 -0.3419
13006TIP3   OH238939   2.640   7.678   4.820 -0.1883  0.6480  0.2469
13006TIP3    H138940   2.656   7.583   4.822  1.5563  0.8976 -0.2892
13006TIP3    H238941   2.547   7.688   4.838 -0.1281 -1.1036  1.6877
13007TIP3   OH238942   0.237   5.952   6.189 -0.2862 -0.2909  0.2643
13007TIP3    H138943   0.152   5.923   6.156 -0.3748 -1.9059  1.8199
13007TIP3    H238944   0.221   5.970   6.282  0.5713  1.5444  0.0713
13008TIP3   OH238945   0.471   5.015   5.879  0.0397 -0.7576  0.0558
13008TIP3    H138946   0.538   5.000   5.812  0.7323 -0.9787  0.7956
13008TIP3    H238947   0.467   5.111   5.889 -0.4110 -0.7011 -0.6475
13009TIP3   OH238948   0.318   3.278   6.687  0.8056 -0.5877 -0.4208
13009TIP3    H138949   0.246   3.223   6.656  1.4298 -0.3742 -2.2927
13009TIP3    H238950   0.395   3.222   6.680  1.1164 -0.1698 -0.3259
13010TIP3   OH238951   7.721   4.773   6.779 -0.1224  0.0393  0.3909
13010TIP3    H138952   7.815   4.765   6.794 -0.2371 -0.5640  0.8307
13010TIP3    H238953   7.705   4.867   6.775  0.6288  0.1243 -0.5540
13011TIP3   OH238954   1.010   5.979   6.818  0.1574 -1.0472  0.2891
13011TIP3    H138955   1.104   5.985   6.799  0.2541 -0.9597  0.7911
13011TIP3    H238956   0.996   6.040   6.890 -0.5939  0.1851 -0.8801
13012TIP3   OH238957   0.650   3.682   5.595  0.1133 -0.4755  0.3910
13012TIP3    H138958   0.740   3.657   5.573 -1.2676 -4.4023 -1.2993
13012TIP3    H238959   0.636   3.644   5.681 -0.5969 -1.8166 -0.3003
13013TIP3   OH238960   2.266   6.082   6.012  0.2685 -0.5487 -0.4008
13013TIP3    H138961   2.358   6.105   6.018 -0.6363  2.9475  1.6554
13013TIP3    H238962   2.232   6.140   5.944 -1.0225  0.4541  1.0735
13014TIP3   OH238963   1.897   6.267   6.932  0.3087  0.1615  0.0565
13014TIP3    H138964   1.933   6.336   6.988 -0.8193 -0.6856  1.8750
13014TIP3    H238965   1.970   6.207   6.918 -0.0036 -0.8946  2.6943
13015TIP3   OH238966   8.791   6.525   5.840 -0.1801 -0.3110 -0.4852
13015TIP3    H138967   8.881   6.555   5.837 -0.3450  0.1718 -0.6624
13015TIP3    H238968   8.747   6.573   5.770 -0.4072 -1.0986 -0.8899
13016TIP3   OH238969   4.873   6.676   0.594  0.1546  0.1092  0.0759
13016TIP3    H138970   4.962   6.686   0.561  0.3145 -0.6328  0.2768
13016TIP3    H238971   4.824   6.748   0.553  0.8040  0.4162 -0.1651
13017TIP3   OH238972   8.383   2.079   0.933  0.0223 -0.0017  0.1628
13017TIP3    H138973   8.477   2.095   0.933 -0.1993  1.4463  1.8467
13017TIP3    H238974   8.358   2.085   0.841  1.5376 -0.1762 -0.2723
13018TIP3   OH238975   6.887   3.407   0.950  0.4058  0.3119 -0.0654
13018TIP3    H138976   6.971   3.365   0.969 -0.0856 -0.7694 -0.2473
13018TIP3    H238977   6.873   3.393   0.857 -0.3221 -0.1396  0.1104
13019TIP3   OH238978   1.045   6.703   5.666  0.7946 -0.8756 -0.7081
13019TIP3    H138979   0.980   6.715   5.597  0.5348 -0.7333 -0.4351
13019TIP3    H238980   1.054   6.608   5.674 -0.1535 -0.8987 -0.0038
13020TIP3   OH238981   8.343   6.484   5.294 -0.1195  1.0028 -0.4803
13020TIP3    H138982   8.427   6.526   5.307  0.1699  0.6927 -1.2928
13020TIP3    H238983   8.364   6.391   5.280 -0.7132  0.6554  0.8850
13021TIP3   OH238984   0.614   4.922   7.191  0.0853 -0.1650 -0.0651
13021TIP3    H138985   0.684   4.973   7.150 -0.9337 -0.3527 -2.0866
13021TIP3    H238986   0.640   4.831   7.179 -0.2556 -0.2232 -0.3580
13022TIP3   OH238987   7.117   6.805   6.722  0.7678  0.4957  0.6744
13022TIP3    H138988   7.121   6.742   6.794 -0.5280  0.1974  0.5038
13022TIP3    H238989   7.157   6.758   6.648  1.4808  0.5541  1.0209
13023TIP3   OH238990   0.572   2.188   1.086  0.6745 -0.4629 -0.4094
13023TIP3    H138991   0.555   2.095   1.101 -0.0526 -0.6159 -2.0879
13023TIP3    H238992   0.490   2.222   1.051  0.9777  0.7882  0.0752
13024TIP3   OH238993   0.512   7.035   4.661  0.0435  0.0058  0.2345
13024TIP3    H138994   0.572   6.971   4.624  0.4168  1.0426 -0.9743
13024TIP3    H238995   0.551   7.059   4.746 -0.4972 -1.9104  1.0518
13025TIP3   OH238996   1.711   5.473   6.967 -0.5131  0.5126  0.0095
13025TIP3    H138997   1.724   5.528   7.044  1.3578 -0.6569  0.5554
13025TIP3    H238998   1.792   5.482   6.917 -0.2904 -1.5505 -0.0234
13026TIP3   OH238999   7.796   6.228   5.544 -0.0375  0.3396 -0.3597
13026TIP3    H139000   7.716   6.201   5.498  0.0293  1.5041 -1.1869
13026TIP3    H239001   7.776   6.215   5.637 -1.2766  0.8676 -0.5471
13027TIP3   OH239002   0.390   6.726   4.054 -0.3005 -0.4133  0.9798
13027TIP3    H139003   0.385   6.765   4.141 -2.2781 -0.2894  0.8383
13027TIP3    H239004   0.445   6.786   4.004 -2.1474  1.4895  1.1614
13028TIP3   OH239005   8.679   1.799   0.077  0.3191  0.0124  0.6807
13028TIP3    H139006   8.603   1.792   0.134  0.7420  1.0669  1.3738
13028TIP3    H239007   8.754   1.794   0.135  0.7597  0.7279  0.1878
13029TIP3   OH239008   7.416   4.699   1.268 -0.4796  0.1958  0.1186
13029TIP3    H139009   7.392   4.770   1.208 -3.4118  0.8718  1.9650
13029TIP3    H239010   7.463   4.743   1.339 -2.1618  0.3125  1.1852
13030TIP3   OH239011   6.596   1.683   1.465 -0.0151  0.3567 -0.3569
13030TIP3    H139012   6.551   1.762   1.494 -0.6315 -0.1225 -0.0049
13030TIP3    H239013   6.664   1.715   1.406 -0.7596  1.0982 -0.8291
13031TIP3   OH239014   1.804   5.595   7.189 -0.2744  0.5470  0.3026
13031TIP3    H139015   1.751   5.629   7.262 -1.8545 -0.3686 -0.3869
13031TIP3    H239016   1.887   5.571   7.230 -1.4018 -0.6490  1.9932
13032TIP3   OH239017   6.833   2.946   1.121 -0.7344 -0.1547  0.7417
13032TIP3    H139018   6.902   2.907   1.174 -0.7926  2.0086  2.4572
13032TIP3    H239019   6.852   2.917   1.032  2.0805 -0.0318  1.2544
13033TIP3   OH239020   6.444   1.459   0.533 -0.3398 -1.0721 -0.7281
13033TIP3    H139021   6.366   1.507   0.559  0.0616 -0.7725 -0.0490
13033TIP3    H239022   6.483   1.513   0.464 -0.6567 -1.1542 -0.9725
13034TIP3   OH239023   6.961   0.142   0.503  0.1134 -0.1821  0.5962
13034TIP3    H139024   6.952   0.197   0.425  0.3744 -3.0424 -1.5272
13034TIP3    H239025   6.876   0.097   0.510  0.6847 -1.2081  0.9582
13035TIP3   OH239026   0.427   1.958   1.059 -0.1290  0.1947 -0.6842
13035TIP3    H139027   0.485   1.901   1.008  0.0163 -0.0434 -0.2513
13035TIP3    H239028   0.346   1.963   1.008 -0.2373 -0.6139 -0.5841
13036TIP3   OH239029   4.406   0.503   4.943 -0.2085 -0.8082  0.0179
13036TIP3    H139030   4.356   0.583   4.926 -2.7902 -2.7363 -1.9449
13036TIP3    H239031   4.434   0.511   5.034 -1.4262  1.7992  0.2058
13037TIP3   OH239032   2.486   6.193   6.067  0.2314 -0.1858  0.1103
13037TIP3    H139033   2.463   6.248   6.141  2.4602  0.3591  0.4594
13037TIP3    H239034   2.534   6.252   6.008  2.3660 -1.6185  0.3387
13038TIP3   OH239035   1.574   5.178   7.203 -1.0175  0.4035  0.5120
13038TIP3    H139036   1.572   5.271   7.225 -1.6225  0.5614 -0.1951
13038TIP3    H239037   1.667   5.156   7.197 -0.8763  1.1421 -0.0882
13039TIP3   OH239038   6.612   1.570   0.298  0.2698 -0.3888  0.1779
13039TIP3    H139039   6.686   1.527   0.256  0.2167  0.5785 -0.9539
13039TIP3    H239040   6.541   1.563   0.235  0.6261  2.4518 -0.6111
13040TIP3   OH239041   5.638   1.770   0.403 -0.0829 -0.0541 -0.2630
13040TIP3    H139042   5.682   1.854   0.410 -1.0298  0.4195  0.1153
13040TIP3    H239043   5.566   1.785   0.342  2.1776 -1.6497 -3.4693
13041TIP3   OH239044   8.125   0.232   1.227  0.9666  0.6389  0.4791
13041TIP3    H139045   8.064   0.265   1.293  0.5431  0.5266  0.1440
13041TIP3    H239046   8.143   0.142   1.253 -0.4112  0.0972 -0.4272
13042TIP3   OH239047   4.177   0.606   4.690 -0.1798  0.2113  0.7625
13042TIP3    H139048   4.124   0.538   4.730 -1.1853 -0.5056 -1.7518
13042TIP3    H239049   4.257   0.562   4.664  0.2854  0.5894  1.5070
13043TIP3   OH239050   7.620   1.781   0.324 -0.2456  0.4804 -0.5668
13043TIP3    H139051   7.610   1.792   0.230  0.8321  1.0987 -0.6121
13043TIP3    H239052   7.599   1.867   0.361  0.4798  0.5571 -0.3278
13044TIP3   OH239053   8.206  -0.003   0.518 -0.3509  0.1163 -0.0898
13044TIP3    H139054   8.250   0.078   0.546 -0.4209  0.0968  0.0799
13044TIP3    H239055   8.277  -0.066   0.509 -0.2227  0.3591 -0.8189
13045TIP3   OH239056   3.161   4.779   6.447 -0.0204 -1.4288  0.2390
13045TIP3    H139057   3.187   4.803   6.535  0.6138 -1.4802  0.0644
13045TIP3    H239058   3.224   4.822   6.389  0.7289 -2.9559 -0.0968
13046TIP3   OH239059   7.601   4.101   0.214  0.1363  0.0784  0.0368
13046TIP3    H139060   7.602   4.005   0.212  0.9200  0.0856  0.3058
13046TIP3    H239061   7.617   4.127   0.123 -0.9163 -0.0494 -0.1944
13047TIP3   OH239062   0.415   2.019   0.677  0.2252  0.3823 -0.3840
13047TIP3    H139063   0.381   2.062   0.756  1.5943  1.0119 -0.1193
13047TIP3    H239064   0.509   2.013   0.692  0.1282 -2.3757 -0.5939
13048TIP3   OH239065   1.257   6.048   7.014  0.0850  0.2692 -0.2701
13048TIP3    H139066   1.220   6.123   6.969  0.1989 -0.1315 -1.0527
13048TIP3    H239067   1.334   6.024   6.962  0.3262 -0.0930  0.2398
13049TIP3   OH239068   4.296   7.982   0.234  0.0074  0.3080  0.3326
13049TIP3    H139069   4.373   7.997   0.290 -0.2196  0.0534  0.7165
13049TIP3    H239070   4.222   8.005   0.290 -0.4513 -3.4929  1.4451
13050TIP3   OH239071   0.435   7.852   4.683  0.1905 -0.1245  0.2282
13050TIP3    H139072   0.421   7.939   4.721  0.1692  0.2653 -0.6572
13050TIP3    H239073   0.408   7.861   4.591 -2.4199 -1.7900  0.7802
13051TIP3   OH239074   2.662   5.835   7.106 -0.4735  0.2877  0.2110
13051TIP3    H139075   2.690   5.907   7.163 -0.6611 -2.1026  3.4831
13051TIP3    H239076   2.567   5.830   7.117 -0.3440 -1.0941  0.8453
13052TIP3   OH239077   2.929   3.992   7.246  0.7635  0.3056  0.0159
13052TIP3    H139078   2.989   4.005   7.319  2.4935  3.6060 -1.8643
13052TIP3    H239079   2.955   3.908   7.208  2.4705  0.4402  0.8322
13053TIP3   OH239080   1.805   5.106   6.087  0.1277  0.2982  0.7835
13053TIP3    H139081   1.723   5.100   6.135 -1.4182  0.0105 -1.7639
13053TIP3    H239082   1.813   5.022   6.042  0.0210  1.5676 -1.7018
13054TIP3   OH239083   7.460   1.045   2.018 -0.0176  0.2418 -0.0853
13054TIP3    H139084   7.522   1.046   2.090 -2.0884 -0.3178  1.7682
13054TIP3    H239085   7.375   1.033   2.060 -1.3018  0.1861 -2.6064
13055TIP3   OH239086   8.665   4.216   6.244  0.5712 -0.0220  0.2048
13055TIP3    H139087   8.625   4.201   6.329 -0.9390 -1.8600 -0.7944
13055TIP3    H239088   8.592   4.240   6.187  1.4119  0.1560 -0.8111
13056TIP3   OH239089   2.802   0.024   3.890 -0.6815 -0.3978 -0.7013
13056TIP3    H139090   2.829   0.017   3.981  0.2221  0.0442 -0.9244
13056TIP3    H239091   2.725  -0.033   3.882 -0.4173 -0.8753  0.1939
13057TIP3   OH239092   7.769   2.061   2.563 -0.0286  0.1155  0.4257
13057TIP3    H139093   7.826   2.132   2.533 -2.2276  1.4695 -0.6422
13057TIP3    H239094   7.830   1.991   2.587  2.0935  1.5472 -0.5653
13058TIP3   OH239095   8.283   0.541   1.846  0.0356  0.2485  0.5061
13058TIP3    H139096   8.295   0.459   1.893  3.8874  0.0296 -0.7595
13058TIP3    H239097   8.260   0.604   1.914 -0.9825 -1.4131  1.7418
13059TIP3   OH239098   7.642   3.344   1.059  0.9498 -0.0731  0.9451
13059TIP3    H139099   7.602   3.430   1.070  2.2313  1.0075 -2.2538
13059TIP3    H239100   7.625   3.299   1.141  0.4002  3.2934  2.7740
13060TIP3   OH239101   7.615   2.392   0.319 -0.2171 -0.3963 -0.0526
13060TIP3    H139102   7.548   2.339   0.276 -2.0522  0.7060  1.3304
13060TIP3    H239103   7.570   2.430   0.395  2.1806 -0.1643  1.3151
13061TIP3   OH239104   8.710   0.930   0.718  0.2170  0.2178 -0.1604
13061TIP3    H139105   8.695   0.965   0.630  0.7694  0.4712 -0.1565
13061TIP3    H239106   8.641   0.969   0.772  0.6181  1.0430 -0.2262
13062TIP3   OH239107   2.754   3.849   6.088  1.4194 -0.2620 -0.4136
13062TIP3    H139108   2.755   3.851   5.993 -1.9762  3.4547 -0.5048
13062TIP3    H239109   2.822   3.911   6.115  1.7946 -0.6690 -0.4187
13063TIP3   OH239110   1.469   4.544   6.654  0.1313 -0.7190  0.0677
13063TIP3    H139111   1.528   4.566   6.582  0.0839 -0.5136  0.0923
13063TIP3    H239112   1.469   4.621   6.710  1.0666 -1.3116  0.8962
13064TIP3   OH239113   7.906   2.794   0.679 -1.1651  0.1245 -0.0534
13064TIP3    H139114   8.001   2.809   0.677 -1.4359  1.6806 -2.6722
13064TIP3    H239115   7.895   2.725   0.744  1.5845  1.1827  1.6527
13065TIP3   OH239116   8.860   4.451   6.539 -0.2229  0.1903 -0.1722
13065TIP3    H139117   8.939   4.401   6.561  0.2164  0.8489 -0.2327
13065TIP3    H239118   8.858   4.452   6.443 -0.0688  0.5331 -0.1734
13066TIP3   OH239119   1.559   6.817   5.192  0.3974 -0.3428  0.1362
13066TIP3    H139120   1.563   6.775   5.278  0.2984  0.4707  0.5416
13066TIP3    H239121   1.573   6.745   5.130 -1.8465 -1.3606  0.7429
13067TIP3   OH239122   2.519   7.734   6.716  0.1160 -0.3105 -0.1331
13067TIP3    H139123   2.495   7.702   6.803 -0.5909  3.5175  1.1969
13067TIP3    H239124   2.608   7.703   6.702  0.6845  0.0341  2.5032
13068TIP3   OH239125   0.150   6.521   5.216  0.3010 -0.0012  0.2598
13068TIP3    H139126   0.083   6.576   5.257 -0.3612 -0.7592  0.2079
13068TIP3    H239127   0.101   6.462   5.158  0.7840 -2.1234  1.9404
13069TIP3   OH239128   8.431   5.737   6.945 -0.2453 -0.3489 -0.2441
13069TIP3    H139129   8.490   5.713   7.016 -0.7987 -0.6676  0.1178
13069TIP3    H239130   8.365   5.668   6.945  1.4081 -2.0304 -3.0385
13070TIP3   OH239131   3.503   8.089   0.616 -0.0286  0.2018  0.2281
13070TIP3    H139132   3.453   8.066   0.537 -0.5933  0.4886  0.4998
13070TIP3    H239133   3.590   8.111   0.583  0.7098 -2.7877 -0.0044
13071TIP3   OH239134   8.274   3.993   0.612  0.1800 -1.0629 -1.0989
13071TIP3    H139135   8.309   4.072   0.572  2.6324 -0.6049  1.7404
13071TIP3    H239136   8.191   4.021   0.652  1.4069  0.3327  0.5647
13072TIP3   OH239137   0.750   5.835   6.132 -0.3658  0.1964  0.2238
13072TIP3    H139138   0.716   5.896   6.066  1.8523 -0.1849 -1.3421
13072TIP3    H239139   0.844   5.852   6.133 -0.1415 -1.0914  2.0050
13073TIP3   OH239140   3.289   4.708   7.161  0.1505  1.0511  0.0979
13073TIP3    H139141   3.304   4.787   7.109 -1.1359  1.6881  0.6684
13073TIP3    H239142   3.269   4.640   7.096  3.2807  0.6644 -0.5424
13074TIP3   OH239143   6.834   1.479   0.177 -0.7044 -0.0121  0.3870
13074TIP3    H139144   6.850   1.454   0.086 -1.6498  0.4900  0.0851
13074TIP3    H239145   6.909   1.443   0.224 -1.5425 -2.5601 -0.1805
13075TIP3   OH239146   2.003   5.825   6.909 -0.5462 -0.2316 -0.0886
13075TIP3    H139147   1.909   5.820   6.928 -0.6687  1.4859 -0.1619
13075TIP3    H239148   2.030   5.734   6.899 -1.8535 -0.8261  1.6073
13076TIP3   OH239149   2.310   6.321   4.788 -0.1935  0.1762  0.0543
13076TIP3    H139150   2.305   6.405   4.742 -1.5394 -0.3367 -0.7559
13076TIP3    H239151   2.230   6.274   4.762 -0.4799 -0.5311  2.1229
13077TIP3   OH239152   0.537   1.363   0.016 -0.1135  0.1224  0.3937
13077TIP3    H139153   0.442   1.360   0.029 -0.2217  0.2986 -0.3421
13077TIP3    H239154   0.559   1.456   0.020  0.1778  0.0013  1.6199
13078TIP3   OH239155   5.357   0.347   0.904  0.2595  0.3496  0.2983
13078TIP3    H139156   5.267   0.375   0.920  0.3808  0.5136  0.7019
13078TIP3    H239157   5.373   0.369   0.812 -0.4910 -0.7191 -0.1022
13079TIP3   OH239158   2.853   5.157   6.194  0.1202 -0.1798 -0.0127
13079TIP3    H139159   2.899   5.220   6.249 -1.9888  0.4386  1.1110
13079TIP3    H239160   2.832   5.084   6.253 -1.0532 -0.0854 -0.3030
13080TIP3   OH239161   2.203   5.561   5.767 -0.4431  0.0723  0.0468
13080TIP3    H139162   2.263   5.539   5.839 -0.0065 -0.1234 -0.3801
13080TIP3    H239163   2.256   5.609   5.705 -0.5524 -0.7353 -0.6795
13081TIP3   OH239164   3.447   4.568   4.534  0.4215  0.3067  0.3947
13081TIP3    H139165   3.380   4.633   4.556 -0.0529  0.6637 -1.9793
13081TIP3    H239166   3.446   4.507   4.607 -0.8632  1.6073  1.4895
13082TIP3   OH239167   8.740   1.701   1.353  0.1422  0.1144  0.2919
13082TIP3    H139168   8.668   1.649   1.316  1.2657 -0.5983 -0.9072
13082TIP3    H239169   8.796   1.721   1.278 -0.1315  2.8509  0.7788
13083TIP3   OH239170   2.755   6.194   7.163 -0.4101 -0.3043  0.7284
13083TIP3    H139171   2.720   6.124   7.217 -0.5515 -0.3835  0.5318
13083TIP3    H239172   2.843   6.209   7.198 -0.2902 -0.7405  0.6173
13084TIP3   OH239173   2.408   5.678   7.293 -0.4266  0.2524 -0.4432
13084TIP3    H139174   2.376   5.657   7.206  3.4611  0.0512 -1.9588
13084TIP3    H239175   2.408   5.773   7.296 -0.3228  0.2649 -0.7826
13085TIP3   OH239176   1.564   4.828   5.837  0.5799 -0.4466  0.4360
13085TIP3    H139177   1.470   4.839   5.821  0.2527 -1.6107  1.4452
13085TIP3    H239178   1.591   4.761   5.774  1.2788  1.6504 -1.5510
13086TIP3   OH239179   1.346   3.217   0.745  0.0965 -0.0549 -0.3615
13086TIP3    H139180   1.415   3.229   0.809  0.2356  0.3754 -0.5883
13086TIP3    H239181   1.277   3.169   0.791  1.8292 -3.3174 -1.0246
13087TIP3   OH239182   2.916   2.331   1.004  0.2394 -0.1525 -0.0483
13087TIP3    H139183   2.999   2.304   0.963 -0.7243 -0.1540 -2.0543
13087TIP3    H239184   2.873   2.249   1.027  0.9022 -0.1481  1.2652
13088TIP3   OH239185   1.654   6.320   6.546  0.0510  0.5491  0.0144
13088TIP3    H139186   1.662   6.247   6.607 -1.0903  0.5294  0.1622
13088TIP3    H239187   1.744   6.345   6.526  0.5075 -1.7001 -0.9933
13089TIP3   OH239188   2.634   5.029   7.181  0.1894 -0.4327  0.3304
13089TIP3    H139189   2.701   5.000   7.242  1.0571 -0.9906 -0.8785
13089TIP3    H239190   2.555   4.981   7.207 -0.1220  1.2058  2.5905
13090TIP3   OH239191   1.487   0.549   0.118  0.7423  0.0310 -0.6046
13090TIP3    H139192   1.412   0.543   0.060  0.6234 -1.2321 -0.3315
13090TIP3    H239193   1.449   0.548   0.206  0.8158  3.2741 -0.4617
13091TIP3   OH239194   2.533   4.944   6.098  0.0989 -0.1025  0.2643
13091TIP3    H139195   2.574   4.886   6.162  0.1166 -1.6188 -1.0751
13091TIP3    H239196   2.447   4.962   6.134 -0.1566 -1.5198  0.4064
13092TIP3   OH239197   3.231   6.447   5.483 -0.4068 -0.2167 -0.0718
13092TIP3    H139198   3.193   6.404   5.560 -0.3866  2.3843  1.4595
13092TIP3    H239199   3.157   6.459   5.424 -0.5638 -1.6113 -0.1693
13093TIP3   OH239200   0.656   2.235   1.652  0.4441 -0.3393  0.3239
13093TIP3    H139201   0.622   2.303   1.594  1.8103 -0.7421 -0.9757
13093TIP3    H239202   0.579   2.201   1.698 -0.4545  0.9369 -0.2385
13094TIP3   OH239203   1.693   6.988   6.887  0.6189  0.6779  0.0082
13094TIP3    H139204   1.730   6.903   6.863  0.5321  0.7277 -0.2890
13094TIP3    H239205   1.659   7.024   6.806  0.5662  0.9553  0.1530
13095TIP3   OH239206   0.949   5.571   5.551  0.1204  0.5309  0.7080
13095TIP3    H139207   0.996   5.498   5.592  2.0600  1.5582  0.3288
13095TIP3    H239208   0.877   5.528   5.504 -0.2455 -0.9239  2.5254
13096TIP3   OH239209   2.455   4.057   6.739 -0.2899 -0.1822  0.5727
13096TIP3    H139210   2.451   4.066   6.835  0.1311 -1.2939  0.7010
13096TIP3    H239211   2.464   3.963   6.724  1.5320  0.1467 -0.5083
13097TIP3   OH239212   2.107   6.070   6.919  0.8791 -0.0599  0.1999
13097TIP3    H139213   2.065   5.985   6.934 -0.3663  0.6375  0.7474
13097TIP3    H239214   2.197   6.048   6.895  0.8808 -1.4957  1.4192
13098TIP3   OH239215   1.307   6.466   5.395 -0.3844  0.2509  0.1476
13098TIP3    H139216   1.306   6.562   5.387  0.6071  0.1595 -1.2988
13098TIP3    H239217   1.376   6.449   5.459 -2.9021  0.6194  3.1061
13099TIP3   OH239218   2.046   5.682   5.334 -0.0632  0.0522 -0.2616
13099TIP3    H139219   2.045   5.768   5.292 -0.5442  0.0989 -0.1634
13099TIP3    H239220   1.961   5.644   5.313 -0.5882  0.3526  1.2177
13100TIP3   OH239221   3.850   6.683   7.054 -0.2893 -0.5574  0.1415
13100TIP3    H139222   3.759   6.669   7.027 -0.4967  0.0143  0.5200
13100TIP3    H239223   3.901   6.673   6.974 -0.7484 -0.2670 -0.1902
13101TIP3   OH239224   1.157   3.553   6.325  0.0593  0.1671 -0.3931
13101TIP3    H139225   1.098   3.541   6.400  0.7912 -1.8274 -0.1272
13101TIP3    H239226   1.190   3.643   6.335  0.0210 -0.0221  1.5843
13102TIP3   OH239227   1.351   3.496   6.156  0.0869 -0.6615  0.0145
13102TIP3    H139228   1.354   3.572   6.099  1.8710  0.4803  1.5930
13102TIP3    H239229   1.260   3.491   6.185  0.0119  0.9661  0.0550
13103TIP3   OH239230   0.333   1.681   0.407  0.5519  0.2130  0.0559
13103TIP3    H139231   0.414   1.720   0.375 -0.0506  0.8259 -0.7354
13103TIP3    H239232   0.291   1.751   0.456 -0.2017  0.3670 -0.7920
13104TIP3   OH239233   2.901   5.744   7.048  0.5441  0.2630  0.2353
13104TIP3    H139234   2.879   5.730   6.956 -0.6976 -0.4026  0.6164
13104TIP3    H239235   2.822   5.783   7.086  0.8417  0.0117  1.1355
13105TIP3   OH239236   8.484   0.036   1.880  0.0873  0.2016  0.4468
13105TIP3    H139237   8.467   0.026   1.787 -0.7444  1.3511  0.4624
13105TIP3    H239238   8.540   0.113   1.887  0.0154  0.2189  0.8925
13106TIP3   OH239239   8.756   6.468   4.546  0.1256 -0.1792  0.2190
13106TIP3    H139240   8.732   6.561   4.552 -0.6796 -0.4756  2.0023
13106TIP3    H239241   8.704   6.434   4.473 -1.1054  0.3284  0.8475
13107TIP3   OH239242   3.805   4.821   6.249  0.5141 -0.0099 -0.1631
13107TIP3    H139243   3.831   4.793   6.337  0.7395 -0.4847 -0.3764
13107TIP3    H239244   3.786   4.914   6.257  1.5800  0.1760  0.1503
13108TIP3   OH239245   1.818   5.659   6.116  0.5163 -0.4402 -0.0288
13108TIP3    H139246   1.912   5.675   6.112  0.2331  1.4774  0.4732
13108TIP3    H239247   1.779   5.731   6.066 -0.6913 -1.1553 -0.1371
13109TIP3   OH239248   2.003   6.502   4.152 -0.5593 -0.0617  0.1590
13109TIP3    H139249   2.093   6.483   4.124  0.1215  1.3646  1.3034
13109TIP3    H239250   1.951   6.493   4.072  0.5102 -1.4483 -0.4055
13110TIP3   OH239251   4.159   7.243   6.882 -0.2041  0.4674  0.1426
13110TIP3    H139252   4.081   7.297   6.869 -2.0207 -1.7780  1.2462
13110TIP3    H239253   4.201   7.242   6.796 -1.3671  1.7319 -0.4782
13111TIP3   OH239254   7.298   1.837   0.720 -0.4617 -0.1003  0.6063
13111TIP3    H139255   7.215   1.802   0.751 -1.0867  1.1342  0.3632
13111TIP3    H239256   7.275   1.893   0.646  0.7168 -0.7145 -0.2408
13112TIP3   OH239257   3.380   4.540   5.426  0.3717 -0.2682  0.4032
13112TIP3    H139258   3.386   4.634   5.409  0.4779 -0.2683  0.4406
13112TIP3    H239259   3.429   4.500   5.354 -0.2550 -0.3262 -0.0001
13113TIP3   OH239260   3.117   6.258   3.283 -0.7022  0.3627 -0.0341
13113TIP3    H139261   3.039   6.249   3.228 -0.7714 -2.1147  0.4176
13113TIP3    H239262   3.189   6.272   3.221 -1.2066  0.6394 -0.5619
13114TIP3   OH239263   0.573   3.070   1.674  0.0368  0.5369  0.1950
13114TIP3    H139264   0.614   3.046   1.757  1.1355  0.3148 -0.4070
13114TIP3    H239265   0.644   3.107   1.622 -0.1245 -1.5096 -1.5253
13115TIP3   OH239266   4.165   6.409   5.062 -0.0050 -0.6102  0.6706
13115TIP3    H139267   4.120   6.344   5.117  1.0431 -3.2095 -1.4505
13115TIP3    H239268   4.248   6.425   5.107  0.3223 -1.7982  0.4975
13116TIP3   OH239269   3.882   6.533   5.076  0.4258  0.3405 -0.2219
13116TIP3    H139270   3.970   6.504   5.050  1.2667  2.0808  0.6096
13116TIP3    H239271   3.889   6.546   5.171 -0.9737 -0.3209 -0.0213
13117TIP3   OH239272   2.289   7.001   5.160 -0.1922  0.0700  0.3512
13117TIP3    H139273   2.269   7.046   5.243  0.1263 -1.6637  1.4039
13117TIP3    H239274   2.383   7.013   5.149 -0.0508 -0.5995  0.8010
13118TIP3   OH239275   0.232   1.836   1.838 -0.0229  0.0212 -0.2062
13118TIP3    H139276   0.323   1.807   1.830 -0.1212 -0.3345 -0.0414
13118TIP3    H239277   0.193   1.816   1.753 -0.3501 -1.2438  0.2357
13119TIP3   OH239278   2.237   4.136   7.174  0.0499 -0.0524 -0.2960
13119TIP3    H139279   2.178   4.062   7.192  0.8424 -0.5112  0.4482
13119TIP3    H239280   2.284   4.149   7.256  0.3091  0.9279 -0.5984
13120TIP3   OH239281   5.415   7.773   0.649  0.3849  0.0179  0.3229
13120TIP3    H139282   5.433   7.703   0.585  0.2620  0.0966  0.2039
13120TIP3    H239283   5.355   7.832   0.604 -1.0486 -0.8144  1.1112
13121TIP3   OH239284   3.543   7.058   6.383 -0.4371  0.3423 -0.1569
13121TIP3    H139285   3.574   7.090   6.468 -0.9376 -0.2508  0.2520
13121TIP3    H239286   3.609   6.996   6.355  0.8654  2.1634 -1.2508
13122TIP3   OH239287   2.169   6.051   3.887 -0.0504  0.2001 -0.2047
13122TIP3    H139288   2.221   5.981   3.848  3.9199  2.3513  1.0078
13122TIP3    H239289   2.157   6.115   3.817  2.7700  1.7166  0.6254
13123TIP3   OH239290   2.705   5.950   6.800 -0.6148  0.2148 -0.6910
13123TIP3    H139291   2.795   5.919   6.796 -1.0593 -1.0523 -1.0980
13123TIP3    H239292   2.658   5.885   6.853 -1.4276  0.5096 -1.0277
13124TIP3   OH239293   8.596   5.713   5.314 -0.2768 -0.4941 -0.1506
13124TIP3    H139294   8.518   5.722   5.259 -0.8680 -1.3473  0.5256
13124TIP3    H239295   8.562   5.678   5.396  0.3239  2.6012  1.4848
13125TIP3   OH239296   0.954   5.258   6.779  0.3458 -0.2654 -0.1376
13125TIP3    H139297   0.991   5.266   6.691  0.1846 -1.2234 -0.2980
13125TIP3    H239298   0.938   5.348   6.807  0.1611  0.0330 -1.1907
13126TIP3   OH239299   4.961   5.225   7.105 -0.1324  0.0790 -0.4862
13126TIP3    H139300   4.897   5.283   7.064  0.6745  0.7298 -0.8383
13126TIP3    H239301   4.942   5.231   7.199  0.7476  1.8793 -0.4149
13127TIP3   OH239302   3.147   5.703   4.798 -0.0959  0.0921 -0.0541
13127TIP3    H139303   3.053   5.705   4.780 -0.0595 -0.5820 -0.3424
13127TIP3    H239304   3.165   5.612   4.821  0.6599  0.0134 -0.9268
13128TIP3   OH239305   5.002   5.028   5.877  0.2976  0.5269  0.4669
13128TIP3    H139306   5.064   4.959   5.855  0.2602  0.7610 -0.3655
13128TIP3    H239307   4.949   5.040   5.798 -1.4002 -0.2800  1.4374
13129TIP3   OH239308   8.118   2.385   1.191 -0.2649  0.6332  0.8013
13129TIP3    H139309   8.194   2.336   1.223  1.2054  1.9777 -0.5708
13129TIP3    H239310   8.080   2.328   1.123  0.5557  0.7300  0.2582
13130TIP3   OH239311   4.124   5.016   6.704  0.2873 -0.3456  0.4411
13130TIP3    H139312   4.198   4.972   6.745  0.1014 -2.0175 -0.9902
13130TIP3    H239313   4.049   4.997   6.761  0.6527  0.1047  1.0801
13131TIP3   OH239314   0.776   4.799   6.691  0.0569 -0.4288 -0.3744
13131TIP3    H139315   0.817   4.802   6.778 -0.9313 -1.8235  0.1549
13131TIP3    H239316   0.773   4.890   6.663  0.8791 -0.0173  0.8198
13132TIP3   OH239317   1.664   6.127   5.937 -0.3147 -0.4882  0.1162
13132TIP3    H139318   1.742   6.141   5.883 -0.4713 -0.6770 -0.1606
13132TIP3    H239319   1.696   6.130   6.027 -0.4474  2.3084  0.1182
13133TIP3   OH239320   3.364   5.840   5.950 -0.3412 -0.3808 -0.7419
13133TIP3    H139321   3.348   5.882   6.035 -0.2542 -0.8811 -0.4808
13133TIP3    H239322   3.425   5.899   5.906  0.2571 -0.5454 -0.1289
13134TIP3   OH239323   2.207   6.148   6.590 -0.1402 -0.4180  0.9904
13134TIP3    H139324   2.287   6.098   6.573 -0.3988 -0.2456 -0.7897
13134TIP3    H239325   2.232   6.239   6.571 -0.4691 -0.2260  1.4700
13135TIP3   OH239326   8.021   1.651   0.692  0.1802 -0.1672  0.0109
13135TIP3    H139327   7.989   1.722   0.749  2.5175  0.3492  0.7359
13135TIP3    H239328   7.969   1.660   0.612  0.2174  2.1866  0.2088
13136TIP3   OH239329   0.697   0.958   1.878 -0.2371 -0.8333  1.3440
13136TIP3    H139330   0.667   0.987   1.964 -1.9330  1.5942 -0.0093
13136TIP3    H239331   0.620   0.965   1.821  1.7492  1.4268 -1.2490
13137TIP3   OH239332   2.370   6.177   4.334  0.0372 -0.4419  0.0070
13137TIP3    H139333   2.393   6.191   4.242 -1.8304 -0.1626 -0.4445
13137TIP3    H239334   2.399   6.257   4.378  0.7228 -0.4729 -0.3897
13138TIP3   OH239335   0.523   2.311  -0.007  0.0701 -0.7426 -0.2937
13138TIP3    H139336   0.540   2.394   0.037  1.3938 -1.7653  1.1730
13138TIP3    H239337   0.444   2.276   0.034 -0.5017 -0.2020 -0.9297
13139TIP3   OH239338   1.989   7.392   6.557 -0.2897  0.0089  0.1202
13139TIP3    H139339   2.025   7.463   6.503  2.3409 -2.5758 -1.7320
13139TIP3    H239340   2.060   7.370   6.617 -1.2358 -0.7866  0.9524
13140TIP3   OH239341   2.790   4.840   5.952  0.1453  0.2876  0.2807
13140TIP3    H139342   2.713   4.870   6.001 -0.3443 -2.4604  1.3267
13140TIP3    H239343   2.765   4.847   5.860 -0.9620  0.4099  0.5860
13141TIP3   OH239344   1.449   6.322   5.879  0.4390  0.3808  0.6691
13141TIP3    H139345   1.410   6.290   5.960  0.1362 -0.9553  0.0175
13141TIP3    H239346   1.531   6.273   5.871 -0.0425 -0.2768 -0.3566
13142TIP3   OH239347   2.593   6.656   4.822  0.7088 -0.2635  0.0780
13142TIP3    H139348   2.595   6.732   4.880 -2.7870  1.6844 -2.1191
13142TIP3    H239349   2.521   6.602   4.855  1.1445 -1.0467 -0.2342
13143TIP3   OH239350   3.847   6.051   7.011  0.6300 -0.4641  0.1976
13143TIP3    H139351   3.808   6.102   6.939  0.0488 -0.5368  0.4599
13143TIP3    H239352   3.934   6.090   7.023 -0.2505  1.2939  1.2018
13144TIP3   OH239353   0.229   2.022   0.888 -0.2462  0.4588  0.0938
13144TIP3    H139354   0.146   1.980   0.868 -0.5371  0.7717  0.6498
13144TIP3    H239355   0.219   2.111   0.854  0.3644  0.0969 -1.0728
13145TIP3   OH239356   7.327   2.183   0.796  0.6955  0.0908 -0.4349
13145TIP3    H139357   7.384   2.106   0.791  0.0947 -0.3946  0.2033
13145TIP3    H239358   7.373   2.249   0.744  1.8401 -0.2957  0.0696
13146TIP3   OH239359   1.613   4.144   2.000 -0.0227  0.1906  0.0935
13146TIP3    H139360   1.539   4.091   1.971 -1.9046  1.6723  2.0304
13146TIP3    H239361   1.646   4.186   1.921 -2.1644  0.6055 -0.6192
13147TIP3   OH239362   0.580   0.709   1.137 -0.1681 -0.4747 -0.5417
13147TIP3    H139363   0.573   0.796   1.177  2.4753  0.1639 -1.3779
13147TIP3    H239364   0.660   0.672   1.174 -0.4285 -1.9252 -1.3839
13148TIP3   OH239365   0.279   2.683   0.604  0.5286 -0.5347  0.0229
13148TIP3    H139366   0.319   2.751   0.659  2.4319 -1.9534  0.4563
13148TIP3    H239367   0.320   2.601   0.634  1.0221 -1.4337 -2.9538
13149TIP3   OH239368   7.876   2.300   0.333 -0.3103 -0.2479  0.2933
13149TIP3    H139369   7.785   2.331   0.329 -0.1408  0.2814  0.5211
13149TIP3    H239370   7.874   2.228   0.396 -1.0086 -1.7659 -1.4174
13150TIP3   OH239371   1.429   1.864   0.916  0.6532 -0.4708  0.2294
13150TIP3    H139372   1.440   1.827   0.829 -0.3685 -1.4293  0.4933
13150TIP3    H239373   1.456   1.955   0.907  0.9864 -0.6808 -0.9789
13151TIP3   OH239374   0.803   6.092   6.389 -0.4912  0.2433  0.7531
13151TIP3    H139375   0.876   6.044   6.349 -2.3908 -2.0938 -0.0191
13151TIP3    H239376   0.791   6.049   6.474 -0.4299  1.1943  1.2471
13152TIP3   OH239377   2.129   0.607   0.117 -0.0604  0.3793 -0.1657
13152TIP3    H139378   2.034   0.618   0.110 -0.1760  0.3991  1.2731
13152TIP3    H239379   2.148   0.623   0.209  1.1655 -0.9112 -0.1817
13153TIP3   OH239380   1.953   6.334   6.673 -0.2481 -0.3923 -0.0439
13153TIP3    H139381   1.985   6.244   6.682  0.9198  0.0014 -0.1726
13153TIP3    H239382   2.017   6.377   6.617  0.5758  1.1822  2.0146
13154TIP3   OH239383   4.058   6.304   6.773  0.3348  0.0489 -0.0990
13154TIP3    H139384   4.032   6.213   6.757  0.0741 -0.0999  1.1428
13154TIP3    H239385   3.995   6.337   6.837  0.4036  1.1278 -0.5686
13155TIP3   OH239386   6.233   8.043   0.108  0.3899 -0.4881 -0.4206
13155TIP3    H139387   6.283   8.074   0.033  2.7417 -1.3328  0.7504
13155TIP3    H239388   6.262   7.952   0.119 -0.4150 -0.5687  1.1084
13156TIP3   OH239389   2.146   3.280   1.919 -0.7874  0.2560 -0.2618
13156TIP3    H139390   2.203   3.357   1.924  0.6296 -0.7378 -0.6689
13156TIP3    H239391   2.132   3.266   1.826  0.3819 -0.9636 -0.2811
13157TIP3   OH239392   3.772   3.113   6.989  0.1630 -0.3598  0.1181
13157TIP3    H139393   3.677   3.111   6.995  0.1599  0.3280  0.3754
13157TIP3    H239394   3.790   3.145   6.901  0.1432  0.6642  0.4754
13158TIP3   OH239395   2.846   6.257   6.402 -0.2409  0.4806  0.4140
13158TIP3    H139396   2.856   6.337   6.350  0.0823  0.7144  0.8340
13158TIP3    H239397   2.760   6.224   6.378  0.4970 -0.2016 -1.3738
13159TIP3   OH239398   3.485   7.578   6.529 -0.1385 -0.4380 -0.2848
13159TIP3    H139399   3.553   7.619   6.582  0.3160 -2.7568  1.0005
13159TIP3    H239400   3.523   7.572   6.442  1.1177 -1.1857  0.2928
13160TIP3   OH239401   7.564   1.106   0.307  0.1190 -0.6446  0.0406
13160TIP3    H139402   7.658   1.092   0.302  0.4051  0.8201  0.8018
13160TIP3    H239403   7.525   1.020   0.291  1.5526 -1.1111 -1.0190
13161TIP3   OH239404   1.541   1.046   0.261  0.0026  0.1116  0.2191
13161TIP3    H139405   1.492   1.008   0.334 -0.0652  0.4575  0.3530
13161TIP3    H239406   1.615   1.090   0.302 -0.1066  0.4168  0.0861
13162TIP3   OH239407   3.936   6.964   4.952 -0.1285 -0.2627  0.1721
13162TIP3    H139408   3.977   6.963   5.038 -0.7868  2.8786  0.6129
13162TIP3    H239409   3.846   6.934   4.967  0.2205 -1.2674  0.2779
13163TIP3   OH239410   2.686   5.090   6.425 -0.0456 -0.5787 -0.1136
13163TIP3    H139411   2.768   5.091   6.476 -1.6386 -1.3298  2.5519
13163TIP3    H239412   2.681   5.001   6.390  0.6526 -0.2952 -0.9637
13164TIP3   OH239413   3.418   7.515   5.654 -0.3291  0.2470  0.7418
13164TIP3    H139414   3.419   7.456   5.730  0.7939  0.2139  0.7142
13164TIP3    H239415   3.499   7.494   5.607 -1.3623 -0.2221 -0.8514
13165TIP3   OH239416   4.085   7.205   4.863  0.1174 -0.7695  0.3103
13165TIP3    H139417   4.046   7.136   4.916  3.1545 -1.0453  2.2850
13165TIP3    H239418   4.069   7.285   4.912  3.0114 -1.0349  1.8091
13166TIP3   OH239419   1.189   6.519   7.254 -0.4331 -0.1740 -0.4031
13166TIP3    H139420   1.279   6.490   7.241 -0.4605 -0.0477 -0.8720
13166TIP3    H239421   1.181   6.597   7.199 -0.2158  0.9963  1.1896
13167TIP3   OH239422   1.027   7.553   5.815  0.3826 -0.2160 -0.0100
13167TIP3    H139423   0.973   7.557   5.894  1.3091  0.6847  0.5834
13167TIP3    H239424   1.102   7.609   5.834 -0.5997  2.0625 -2.4451
13168TIP3   OH239425   1.349   6.768   5.966  0.1975 -0.4007 -0.3599
13168TIP3    H139426   1.346   6.690   6.022  0.9981 -0.8787 -0.9772
13168TIP3    H239427   1.361   6.841   6.028 -2.5884 -0.5245  0.3981
13169TIP3   OH239428   3.055   4.998   4.645  0.0879  0.6064 -0.5588
13169TIP3    H139429   3.014   4.951   4.572 -2.4430  1.8089  0.0350
13169TIP3    H239430   2.985   5.004   4.711  2.2920 -0.3935  1.9398
13170TIP3   OH239431   1.739   7.397   5.972 -0.3731  0.6521  0.1953
13170TIP3    H139432   1.814   7.413   5.915  0.5246 -2.1402  0.5197
13170TIP3    H239433   1.777   7.360   6.052 -2.0605 -0.8374  0.3551
13171TIP3   OH239434   4.058   0.623   5.388  0.0764 -0.3492 -0.4238
13171TIP3    H139435   4.150   0.638   5.411 -0.5955  0.9800  1.5051
13171TIP3    H239436   4.062   0.588   5.299  2.5519 -2.1671  0.3440
13172TIP3   OH239437   8.740   2.716   1.755  0.6837  0.2422  0.2419
13172TIP3    H139438   8.833   2.735   1.766  1.0885 -0.0561 -2.3295
13172TIP3    H239439   8.721   2.742   1.665 -1.7860  0.5186  0.8005
13173TIP3   OH239440   2.005   5.146   3.159 -0.6279 -0.5936  0.1322
13173TIP3    H139441   1.915   5.169   3.179 -0.7130  0.1138 -1.0593
13173TIP3    H239442   2.057   5.218   3.195 -0.7073  0.1594 -1.2520
13174TIP3   OH239443   1.213   6.787   5.347 -0.2970 -0.2313 -0.3740
13174TIP3    H139444   1.295   6.768   5.391  0.0971 -0.8666 -1.3546
13174TIP3    H239445   1.205   6.883   5.351  0.9135 -0.0940 -1.0023
13175TIP3   OH239446   2.361   6.602   4.317  0.2841  0.1003  0.6803
13175TIP3    H139447   2.410   6.546   4.376  0.4846 -1.3672 -0.8313
13175TIP3    H239448   2.423   6.670   4.290  1.7873 -2.1475 -1.7825
13176TIP3   OH239449   8.032   3.923   2.818 -0.7541  0.1213 -0.0979
13176TIP3    H139450   8.015   4.003   2.867  0.4582 -0.0608  0.6378
13176TIP3    H239451   8.039   3.951   2.727  0.7266  1.0138  0.2783
13177TIP3   OH239452   2.250   5.709   6.601  0.0479 -0.3484  0.0205
13177TIP3    H139453   2.266   5.750   6.516 -2.0190  0.0183 -0.2079
13177TIP3    H239454   2.170   5.750   6.633  0.9732 -0.2692  2.2925
13178TIP3   OH239455   2.530   6.884   6.462  0.0496 -0.0100 -0.7451
13178TIP3    H139456   2.446   6.840   6.477 -0.2061  0.5128 -0.6080
13178TIP3    H239457   2.526   6.962   6.517  0.1967  0.5573 -1.5272
13179TIP3   OH239458   2.053   5.762   5.626 -0.5367 -0.2305 -0.2621
13179TIP3    H139459   2.086   5.700   5.691  3.2942 -0.2069 -2.0884
13179TIP3    H239460   2.038   5.710   5.548  0.9381  0.7817 -1.2429
13180TIP3   OH239461   0.623   5.576   6.934 -0.4378 -0.1696 -0.1393
13180TIP3    H139462   0.612   5.489   6.973 -1.6412  0.1195  0.1741
13180TIP3    H239463   0.697   5.614   6.980 -1.3059 -0.1643  1.2634
13181TIP3   OH239464   2.443   7.122   6.549  0.2314 -0.4292 -0.3715
13181TIP3    H139465   2.373   7.154   6.606  0.8960  0.0703  0.1685
13181TIP3    H239466   2.422   7.160   6.463 -1.1430 -1.7356 -0.6355
13182TIP3   OH239467   2.213   4.186   5.573  0.4528 -0.5435  0.4094
13182TIP3    H139468   2.149   4.161   5.507  1.5050 -0.2715 -0.7285
13182TIP3    H239469   2.298   4.168   5.533  1.1293  0.8496  1.1786
13183TIP3   OH239470   0.537   4.514   5.252 -0.0253  0.2000 -0.2794
13183TIP3    H139471   0.475   4.573   5.296  0.6758  0.5197  0.2863
13183TIP3    H239472   0.572   4.566   5.180  0.3738  0.3768  0.0414
13184TIP3   OH239473   1.770   4.076   5.176  0.3419  0.1412  0.1608
13184TIP3    H139474   1.728   4.088   5.261  1.2498 -1.1594  0.8138
13184TIP3    H239475   1.831   4.150   5.169 -0.1729  0.5912  0.3637
13185TIP3   OH239476   2.469   5.897   4.428 -0.5798 -0.5513 -0.1232
13185TIP3    H139477   2.438   5.975   4.382  1.8221  0.0854 -0.7528
13185TIP3    H239478   2.507   5.843   4.358 -4.6170 -3.6124 -0.1394
13186TIP3   OH239479   2.087   5.711   6.073 -0.0151 -0.1316 -0.1655
13186TIP3    H139480   2.069   5.740   5.983  0.7927  0.2377 -0.2055
13186TIP3    H239481   2.166   5.657   6.066  0.3642  0.3502  0.4076
13187TIP3   OH239482   1.246   4.836   6.070  0.0669  0.0544  0.2440
13187TIP3    H139483   1.151   4.823   6.076 -0.1323  1.5649  0.4199
13187TIP3    H239484   1.264   4.839   5.976 -0.1216  0.2226  0.2131
13188TIP3   OH239485   2.798   4.444   6.474 -0.0972  0.0839  0.0862
13188TIP3    H139486   2.853   4.475   6.402 -1.2744  0.6697 -0.5872
13188TIP3    H239487   2.774   4.355   6.448  0.5068 -0.1600  0.3645
13189TIP3   OH239488   1.378   5.026   6.594  0.0418  0.3689  0.0620
13189TIP3    H139489   1.290   4.995   6.574  0.0506  0.6268 -0.3758
13189TIP3    H239490   1.417   5.048   6.509  1.2105 -1.5414  0.0793
13190TIP3   OH239491   0.990   4.288   6.417 -0.1401  0.1888 -0.0652
13190TIP3    H139492   0.901   4.308   6.387  0.1856 -1.5213 -2.2673
13190TIP3    H239493   0.997   4.193   6.411  1.3897  0.1708  1.4546
13191TIP3   OH239494   0.506   3.186   0.911  0.6204  0.4583  0.2483
13191TIP3    H139495   0.507   3.281   0.925 -4.2703  0.5986  0.7031
13191TIP3    H239496   0.482   3.175   0.819  0.7939 -0.3154  0.2937
13192TIP3   OH239497   8.002   2.937   0.361  0.6973 -0.1330  0.1524
13192TIP3    H139498   8.005   2.941   0.457  1.2476  0.1775  0.1221
13192TIP3    H239499   7.928   2.879   0.342  2.0233 -2.0878  0.8009
13193TIP3   OH239500   1.239   6.636   6.473 -0.3283  0.6076  0.2657
13193TIP3    H139501   1.299   6.570   6.438 -1.5538  0.3748 -1.4140
13193TIP3    H239502   1.223   6.696   6.400 -4.1498 -0.7539 -0.1116
13194TIP3   OH239503   4.117   5.087   5.645  0.7723 -0.6006  0.1514
13194TIP3    H139504   4.083   5.158   5.589  1.6771 -0.6380 -0.4589
13194TIP3    H239505   4.049   5.020   5.642 -1.5296  1.4371  3.1822
13195TIP3   OH239506   7.231   1.700   0.038 -0.0008  0.3883 -0.2547
13195TIP3    H139507   7.247   1.794   0.032 -0.0107  0.4277  0.2695
13195TIP3    H239508   7.186   1.689   0.122 -0.4970 -0.0169 -0.5747
13196TIP3   OH239509   1.474   5.938   6.877  0.3828 -0.1767  0.5426
13196TIP3    H139510   1.514   5.874   6.935  0.5792 -0.5185  0.0393
13196TIP3    H239511   1.543   6.004   6.864  1.2685 -1.4313 -1.3612
13197TIP3   OH239512   3.124   6.742   5.338  0.1574 -0.6363 -0.3134
13197TIP3    H139513   3.071   6.808   5.293 -0.7356 -0.3692  1.0925
13197TIP3    H239514   3.091   6.659   5.306  1.6636 -0.4232 -2.5221
13198TIP3   OH239515   8.851   1.376   2.012  0.2039 -0.5450  0.0154
13198TIP3    H139516   8.878   1.326   1.934  0.2366 -1.6414  0.7166
13198TIP3    H239517   8.818   1.458   1.977 -0.0354 -1.1410 -1.1910
13199TIP3   OH239518   2.952   5.945   5.897  0.8343 -0.2616  0.3120
13199TIP3    H139519   2.916   5.859   5.878 -0.1815  0.6876 -2.3576
13199TIP3    H239520   3.014   5.931   5.968 -0.3175 -2.9490  0.8097
13200TIP3   OH239521   0.437   0.856   0.316 -0.3268  0.3363 -0.3129
13200TIP3    H139522   0.432   0.806   0.235 -0.2617 -0.4458  0.1672
13200TIP3    H239523   0.376   0.928   0.304  1.1983  1.4094 -1.8983
13201TIP3   OH239524   0.609   5.189   5.234  0.7269 -0.0262  0.0620
13201TIP3    H139525   0.669   5.264   5.237  0.2132  0.4052 -0.3820
13201TIP3    H239526   0.640   5.137   5.161 -0.9003  1.4533 -1.7368
13202TIP3   OH239527   4.941   0.203   6.183 -0.8284  0.3971  0.8022
13202TIP3    H139528   4.877   0.147   6.227  0.8513 -1.6167  0.7429
13202TIP3    H239529   4.909   0.292   6.198 -3.5260 -0.5349  0.9512
13203TIP3   OH239530   1.806   4.945   4.235 -0.1448  0.1659  0.6127
13203TIP3    H139531   1.891   4.903   4.244 -0.1575 -0.0377 -0.1654
13203TIP3    H239532   1.761   4.893   4.168 -0.1387  1.4567 -0.3904
13204TIP3   OH239533   0.268   2.267   1.828 -0.3112  0.2409  0.1439
13204TIP3    H139534   0.322   2.337   1.865  0.4726 -0.1398 -0.2601
13204TIP3    H239535   0.311   2.245   1.745 -1.4874  0.4152 -0.5242
13205TIP3   OH239536   8.008   7.081   3.514  0.2599 -0.1863  0.4119
13205TIP3    H139537   8.042   7.115   3.431 -0.8633 -1.1365 -0.4594
13205TIP3    H239538   8.062   7.005   3.534  0.1616 -0.2977  0.2533
13206TIP3   OH239539   0.659   4.850   4.904  0.0018  0.3483  0.1096
13206TIP3    H139540   0.686   4.869   4.814  1.0148 -1.8092 -0.0784
13206TIP3    H239541   0.716   4.904   4.958 -0.5413  1.5797 -0.5268
13207TIP3   OH239542   7.695   0.761   1.090 -0.4632  0.5389 -0.1032
13207TIP3    H139543   7.741   0.713   1.022  0.7396 -0.2079  1.2296
13207TIP3    H239544   7.619   0.799   1.045 -1.3772 -2.4531 -1.2326
13208TIP3   OH239545   8.415   1.288   0.243  0.4652 -0.4064  0.4097
13208TIP3    H139546   8.409   1.366   0.187 -0.2922  0.1570  1.2797
13208TIP3    H239547   8.494   1.303   0.295 -0.8954  0.8485  2.1738
13209TIP3   OH239548   0.451   3.407   1.539  0.4157  0.1865  0.3805
13209TIP3    H139549   0.406   3.323   1.540  1.4368 -0.4206 -1.7159
13209TIP3    H239550   0.386   3.470   1.571 -0.8421 -1.1542  0.5060
13210TIP3   OH239551   1.460   5.595   5.595 -0.4116  0.5529  0.1126
13210TIP3    H139552   1.528   5.533   5.568 -0.9767  0.1415 -0.3696
13210TIP3    H239553   1.473   5.605   5.690  0.7915  1.0492 -0.0984
13211TIP3   OH239554   2.900   4.985   5.526  0.1582 -0.3106  0.2568
13211TIP3    H139555   2.913   5.080   5.528 -1.5254 -0.0525  0.3328
13211TIP3    H239556   2.832   4.972   5.459  0.1979 -1.4403  0.4271
13212TIP3   OH239557   2.193   5.472   3.306  0.5862  0.2658  0.0741
13212TIP3    H139558   2.228   5.560   3.319 -0.0460  0.5178  0.0780
13212TIP3    H239559   2.193   5.433   3.393  2.9975 -0.5477 -0.2612
13213TIP3   OH239560   3.032   6.204   7.222 -0.2010  0.0947  0.0355
13213TIP3    H139561   3.029   6.135   7.156 -1.9202  1.1435 -1.0088
13213TIP3    H239562   3.114   6.250   7.204 -0.2257 -0.1751 -0.7924
13214TIP3   OH239563   4.752   5.299   6.890  0.3008 -0.4069  0.0278
13214TIP3    H139564   4.726   5.296   6.798 -1.4068 -0.4979  0.4902
13214TIP3    H239565   4.680   5.344   6.934  1.5508  0.5061  1.1868
13215TIP3   OH239566   3.092   5.284   6.625 -0.0131  0.4083 -0.6725
13215TIP3    H139567   3.042   5.320   6.699 -0.4902 -1.9426  0.2029
13215TIP3    H239568   3.174   5.334   6.626 -0.7617  1.6832  0.2761
13216TIP3   OH239569   0.201   0.031   3.017  0.0116  0.0819  0.1034
13216TIP3    H139570   0.222   0.100   3.080 -0.2203  0.0484  0.2170
13216TIP3    H239571   0.135   0.071   2.959 -0.0772 -0.0227  0.1322
13217TIP3   OH239572   4.456   7.624   5.837  0.3371 -0.3753 -0.4113
13217TIP3    H139573   4.444   7.566   5.762 -0.3432 -0.9180  0.1105
13217TIP3    H239574   4.477   7.709   5.798 -0.1192 -0.6270 -1.2210
13218TIP3   OH239575   3.542   5.225   6.157  0.6937 -0.5145 -0.5347
13218TIP3    H139576   3.589   5.159   6.208 -0.3216 -0.2689  0.7566
13218TIP3    H239577   3.605   5.253   6.091  1.4190 -2.1610 -0.5708
13219TIP3   OH239578   7.378   1.155   1.793  0.2153 -0.8236 -0.6154
13219TIP3    H139579   7.409   1.111   1.873  0.2809 -1.7497 -1.1414
13219TIP3    H239580   7.379   1.248   1.815 -0.8827 -1.1425  0.8511
13220TIP3   OH239581   2.535   1.397   0.169  0.2742  0.0393  0.3993
13220TIP3    H139582   2.471   1.362   0.107 -1.4190 -0.6444  2.4473
13220TIP3    H239583   2.489   1.467   0.215  1.2103 -0.0052  1.4348
13221TIP3   OH239584   3.872   4.077   7.127 -0.1842 -0.3718  0.6686
13221TIP3    H139585   3.888   4.026   7.047  1.2471  0.3356  0.4863
13221TIP3    H239586   3.891   4.167   7.102  1.8043 -0.3334  2.2223
13222TIP3   OH239587   2.087   4.553   4.465  0.3342 -0.1282 -0.0025
13222TIP3    H139588   2.122   4.627   4.515  3.0155 -0.9050 -0.6312
13222TIP3    H239589   2.154   4.485   4.472 -0.8434 -1.5213 -1.7021
13223TIP3   OH239590   8.288   1.385   1.619  0.4873 -0.3522  0.0087
13223TIP3    H139591   8.205   1.429   1.633  0.7821  0.2970 -0.2513
13223TIP3    H239592   8.342   1.450   1.574  1.1132 -0.7870  0.1255
13224TIP3   OH239593   8.222   0.808   0.349  0.2004 -0.0511  0.5615
13224TIP3    H139594   8.250   0.898   0.333 -1.0655  0.2767  0.1594
13224TIP3    H239595   8.199   0.806   0.442  1.9048 -0.4282  0.9941
13225TIP3   OH239596   3.502   5.770   4.927 -0.2519  0.7265 -0.5112
13225TIP3    H139597   3.574   5.826   4.955 -0.5336  0.6001  0.5012
13225TIP3    H239598   3.481   5.717   5.004 -0.4431 -0.2872 -1.2562
13226TIP3   OH239599   3.572   0.763   4.898 -0.0451 -0.1805 -0.0335
13226TIP3    H139600   3.650   0.737   4.946  1.1029  3.0856 -0.0023
13226TIP3    H239601   3.517   0.806   4.963  0.0815  1.3847 -0.9350
13227TIP3   OH239602   4.660   0.966   2.956  0.4553 -0.0932  0.2440
13227TIP3    H139603   4.668   0.987   2.863  1.0291 -0.2731  0.2507
13227TIP3    H239604   4.643   1.050   2.998 -0.0340 -0.0419 -0.0482
13228TIP3   OH239605   1.469   5.280   6.958 -0.5097 -0.6521 -0.2820
13228TIP3    H139606   1.556   5.319   6.950 -0.6445 -0.4970 -0.9913
13228TIP3    H239607   1.473   5.229   7.039 -0.6747  1.6892  1.2213
13229TIP3   OH239608   2.263   5.020   6.150  0.0207  0.2169  0.3183
13229TIP3    H139609   2.232   5.009   6.240  0.8427  1.1486  0.7279
13229TIP3    H239610   2.224   5.103   6.122  0.0298  0.0899 -0.0717
13230TIP3   OH239611   4.764   6.106   5.017  0.1995  0.3443 -0.2684
13230TIP3    H139612   4.787   6.198   5.029  0.6858  0.2405 -0.4155
13230TIP3    H239613   4.823   6.058   5.074 -0.5956  0.1735  0.4170
13231TIP3   OH239614   4.002   6.508   7.249  0.2115  0.5213  0.1918
13231TIP3    H139615   4.022   6.446   7.178 -0.3239  0.8006 -0.2080
13231TIP3    H239616   3.941   6.570   7.210  0.4187  1.0573  0.7185
13232TIP3   OH239617   3.935   4.907   6.916  0.1405 -0.6351  0.3769
13232TIP3    H139618   3.950   4.941   7.004  0.8038  1.3254 -0.4771
13232TIP3    H239619   3.840   4.892   6.913 -0.0306  0.2382  1.0904
13233TIP3   OH239620   1.164   2.059   1.701  1.0436 -0.2912 -0.2380
13233TIP3    H139621   1.070   2.045   1.692  0.7440  1.2734  0.2778
13233TIP3    H239622   1.190   2.004   1.775  0.2931  0.2814  0.4517
13234TIP3   OH239623   8.874   1.363   0.416 -0.6915 -0.6608  0.2102
13234TIP3    H139624   8.854   1.401   0.331 -1.9069 -0.9217  0.3660
13234TIP3    H239625   8.937   1.423   0.456 -1.5339  0.4399 -0.1051
13235TIP3   OH239626   2.298   1.674   0.411  0.1103  0.2142 -0.2991
13235TIP3    H139627   2.249   1.729   0.472 -0.8264  0.0297 -0.8696
13235TIP3    H239628   2.375   1.727   0.388  0.8306  0.0036  1.5337
13236TIP3   OH239629   0.472   2.825   0.285 -0.5340  0.1420 -0.0670
13236TIP3    H139630   0.489   2.862   0.371 -0.8129  0.0504  0.0283
13236TIP3    H239631   0.411   2.753   0.301  1.1254 -1.2900 -0.0769
13237TIP3   OH239632   2.367   7.541   4.885 -0.1128  0.0835 -0.1341
13237TIP3    H139633   2.380   7.602   4.958  0.1798  1.0762 -1.0067
13237TIP3    H239634   2.342   7.459   4.927  0.7786  0.4352  1.1283
13238TIP3   OH239635   1.351   5.728   6.508  0.3912 -0.0546  0.4581
13238TIP3    H139636   1.265   5.706   6.474  0.0712  0.0805  1.1799
13238TIP3    H239637   1.407   5.734   6.430 -0.4532  0.7843 -0.0875
13239TIP3   OH239638   1.718   6.593   6.117 -0.0903 -0.1198  0.1219
13239TIP3    H139639   1.724   6.668   6.176 -0.8962 -0.1855  0.2983
13239TIP3    H239640   1.626   6.568   6.120 -0.1367 -0.1583 -1.1103
13240TIP3   OH239641   2.671   6.738   5.118  0.0373 -0.6837 -0.1305
13240TIP3    H139642   2.689   6.695   5.202  1.1629 -0.0918 -0.0693
13240TIP3    H239643   2.754   6.738   5.072 -0.7946 -1.8474 -1.6597
13241TIP3   OH239644   8.188   1.129   1.895 -0.3131 -0.3029  0.0578
13241TIP3    H139645   8.250   1.156   1.963  0.1030 -2.5537  0.6044
13241TIP3    H239646   8.122   1.079   1.943 -1.5000  0.4169 -0.8174
13242TIP3   OH239647   1.151   0.823   0.904  0.5380 -0.2649  0.2319
13242TIP3    H139648   1.124   0.876   0.828  1.4132  0.0762  0.1562
13242TIP3    H239649   1.074   0.824   0.962  0.6718  1.4152  0.4052
13243TIP3   OH239650   4.105   7.217   6.213 -0.1165 -0.4243  0.6257
13243TIP3    H139651   4.031   7.199   6.155  1.3555  0.1030 -1.4415
13243TIP3    H239652   4.130   7.307   6.193  1.5112 -0.8272  0.8365
13244TIP3   OH239653   2.751   4.983   3.823  0.4362 -0.6495 -0.3600
13244TIP3    H139654   2.704   4.900   3.831 -0.0950 -0.3570 -0.4563
13244TIP3    H239655   2.725   5.018   3.738 -0.2890  0.2047  0.2042
13245TIP3   OH239656   2.037   5.919   6.650  0.0381 -0.1764  0.1458
13245TIP3    H139657   2.088   5.994   6.622  0.5701 -0.2917  0.8101
13245TIP3    H239658   2.040   5.921   6.745 -1.7145  0.1775  0.2099
13246TIP3   OH239659   2.432   5.947   7.249 -0.3938  0.3229  0.0298
13246TIP3    H139660   2.351   5.953   7.299 -0.1502 -0.0160  0.4751
13246TIP3    H239661   2.443   6.033   7.209 -0.8608  0.4344  0.1400
13247TIP3   OH239662   3.629   5.376   7.104 -0.2604 -0.7071  0.1813
13247TIP3    H139663   3.562   5.312   7.127 -0.8064 -0.0800  0.3484
13247TIP3    H239664   3.622   5.444   7.171  0.1680 -0.3685 -0.1107
13248TIP3   OH239665   3.186   4.927   5.882  0.2510 -0.0755  0.3923
13248TIP3    H139666   3.152   4.881   5.805  0.3298  1.8241 -0.7937
13248TIP3    H239667   3.251   4.867   5.919  1.6005 -0.2227 -2.1166
13249TIP3   OH239668   2.291   5.532   4.381  0.1819 -0.0092 -0.1913
13249TIP3    H139669   2.232   5.606   4.370 -1.0977 -1.0900 -0.7322
13249TIP3    H239670   2.326   5.516   4.294 -3.3400 -3.1240 -1.1437
13250TIP3   OH239671   2.289   5.514   6.384 -0.5459  0.4476 -0.1995
13250TIP3    H139672   2.302   5.604   6.355  1.0089  0.6370  1.0357
13250TIP3    H239673   2.305   5.516   6.478 -1.6133 -0.9119  0.0348
13251TIP3   OH239674   7.881   1.259   0.857 -0.0901  0.1093 -0.7367
13251TIP3    H139675   7.951   1.300   0.805 -1.0915  0.6671 -1.6527
13251TIP3    H239676   7.865   1.321   0.928 -0.8579  0.8035 -1.5133
13252TIP3   OH239677   2.863   1.675   0.215 -0.2482 -0.6421 -0.1769
13252TIP3    H139678   2.851   1.580   0.224  3.2889 -1.1445  0.1065
13252TIP3    H239679   2.904   1.685   0.129  0.4962  0.4886  0.3042
13253TIP3   OH239680   4.063   5.688   6.033  0.3221  0.1234 -0.2502
13253TIP3    H139681   4.029   5.599   6.026  1.7470 -0.4169 -0.5212
13253TIP3    H239682   4.012   5.728   6.103  1.9501 -1.9971  2.2557
13254TIP3   OH239683   7.708   1.483   1.879  0.0583 -0.7077 -0.1048
13254TIP3    H139684   7.705   1.574   1.906 -0.6178 -1.0784  1.0938
13254TIP3    H239685   7.797   1.455   1.897  0.3566 -0.2008 -0.7754
13255TIP3   OH239686   0.695   5.840   5.494  0.0661  0.2046 -0.6750
13255TIP3    H139687   0.661   5.929   5.502  0.2078  0.1203  1.0168
13255TIP3    H239688   0.667   5.796   5.575  2.4565 -0.4645 -0.1861
13256TIP3   OH239689   7.087   2.138   1.942 -0.2975  0.1788  0.9560
13256TIP3    H139690   7.155   2.071   1.953  0.1903  0.4874 -0.1609
13256TIP3    H239691   7.069   2.168   2.031  1.3471  0.4113  1.2372
13257TIP3   OH239692   5.762   0.577   7.093  0.0293  0.4171  0.5128
13257TIP3    H139693   5.675   0.579   7.053 -0.4443  2.5009  1.5711
13257TIP3    H239694   5.820   0.619   7.028  0.2492 -0.9605 -0.1863
13258TIP3   OH239695   1.542   7.236   6.991  0.4055 -1.2055 -0.8559
13258TIP3    H139696   1.479   7.192   6.934 -0.2489 -1.2168 -0.1146
13258TIP3    H239697   1.612   7.171   7.003  0.6768 -1.1167 -1.8408
13259TIP3   OH239698   2.863   5.702   6.778  0.2996 -0.1671 -0.1458
13259TIP3    H139699   2.953   5.711   6.747  0.0521  0.4428 -0.6781
13259TIP3    H239700   2.833   5.620   6.738  0.9755 -0.9604  0.9232
13260TIP3   OH239701   6.834   8.147   1.758  0.1533 -0.3472  0.5688
13260TIP3    H139702   6.789   8.231   1.760 -0.3829 -0.6472  1.5075
13260TIP3    H239703   6.776   8.087   1.805  0.5666 -1.2223 -0.0223
13261TIP3   OH239704   2.623   4.979   4.769  0.5656 -0.0885 -0.4342
13261TIP3    H139705   2.627   5.038   4.844  1.2030  0.0508 -0.5754
13261TIP3    H239706   2.637   5.036   4.693 -3.4163  0.3587 -0.9745
13262TIP3   OH239707   7.999   2.350   0.072  0.2720 -0.4151 -0.4565
13262TIP3    H139708   8.074   2.393   0.112  0.7935 -2.4447  0.8513
13262TIP3    H239709   7.939   2.333   0.146 -0.2177 -1.2873 -1.0416
13263TIP3   OH239710   0.675   3.904   0.796  0.1701 -0.4340  0.3626
13263TIP3    H139711   0.600   3.964   0.791  0.5493  0.0756  0.7152
13263TIP3    H239712   0.738   3.939   0.733 -0.7303 -2.0814 -1.5089
13264TIP3   OH239713   2.063   7.079   6.063 -0.6255 -0.6855 -0.0467
13264TIP3    H139714   2.011   7.027   6.002 -1.0477  2.1422 -2.1847
13264TIP3    H239715   1.998   7.129   6.112 -0.1279 -0.7524  0.6841
13265TIP3   OH239716   8.865   2.335   0.006  0.1310 -0.3305  0.0076
13265TIP3    H139717   8.899   2.308   0.091  0.9302 -1.9535 -0.7977
13265TIP3    H239718   8.920   2.408  -0.020  0.7438 -0.6894  0.2914
13266TIP3   OH239719   3.387   6.415   6.912 -0.4288  0.2298  0.6230
13266TIP3    H139720   3.378   6.328   6.952  0.1224  0.6371  1.6401
13266TIP3    H239721   3.461   6.405   6.852  0.9955  0.5511  2.2997
13267TIP3   OH239722   2.466   6.607   6.796  0.0297 -0.2822  0.1944
13267TIP3    H139723   2.482   6.593   6.703 -2.3560  1.0965 -0.4695
13267TIP3    H239724   2.535   6.668   6.823 -0.3451  0.7439 -1.1094
13268TIP3   OH239725   8.821   2.586   0.310  0.3021  0.3040  0.3219
13268TIP3    H139726   8.867   2.502   0.319  1.3372  0.9322  0.8925
13268TIP3    H239727   8.738   2.562   0.267 -0.6175 -1.4170  2.8969
13269TIP3   OH239728   4.013   0.750   5.109 -0.0757  0.4057 -0.8231
13269TIP3    H139729   3.929   0.764   5.065 -1.2267 -1.1716  0.7531
13269TIP3    H239730   3.993   0.759   5.202  0.7756 -3.1171 -0.2171
13270TIP3   OH239731   6.845   8.250   0.370  0.5409 -0.1719 -0.0247
13270TIP3    H139732   6.849   8.171   0.317  2.5436  0.0873 -0.2948
13270TIP3    H239733   6.783   8.307   0.325  0.5174 -0.8523 -0.8415
13271TIP3   OH239734   2.040   5.154   6.222 -0.5514 -0.2598 -0.9981
13271TIP3    H139735   2.067   5.078   6.274  0.6854  0.4740 -0.5717
13271TIP3    H239736   1.957   5.127   6.183 -0.7185 -1.3957  0.1082
13272TIP3   OH239737   3.586   5.288   6.855  0.4758 -0.0734  0.0924
13272TIP3    H139738   3.642   5.323   6.786 -1.2323  3.5794  0.4825
13272TIP3    H239739   3.606   5.341   6.932 -0.9387 -1.0840  1.1851
13273TIP3   OH239740   1.704   5.179   5.515 -0.3450  0.0278  0.1617
13273TIP3    H139741   1.787   5.152   5.554 -0.1342  0.1597 -0.1930
13273TIP3    H239742   1.701   5.274   5.528  0.4297  0.2891 -1.4756
13274TIP3   OH239743   2.006   5.353   7.089  0.7443  0.0147 -0.2232
13274TIP3    H139744   1.936   5.293   7.116 -0.2216  1.1980 -0.0587
13274TIP3    H239745   2.051   5.375   7.171  0.4875  0.2604 -0.1443
13275TIP3   OH239746   7.333   0.347   0.114 -0.0311 -0.2607 -0.1370
13275TIP3    H139747   7.284   0.293   0.176 -1.4013  2.1372  0.9670
13275TIP3    H239748   7.401   0.389   0.166 -0.0556  0.3781 -0.6054
13276TIP3   OH239749   3.814   1.887   0.635  0.9180 -0.4773 -0.6053
13276TIP3    H139750   3.842   1.933   0.715  0.3829 -0.9099 -0.1638
13276TIP3    H239751   3.753   1.820   0.666 -0.5063  0.3691 -1.5556
13277TIP3   OH239752   3.582   4.731   7.207 -0.3756  0.4605  0.4134
13277TIP3    H139753   3.491   4.716   7.236  0.0065 -0.2779  1.2655
13277TIP3    H239754   3.620   4.783   7.277 -0.5617  2.0838 -0.6704
13278TIP3   OH239755   1.423   6.995   6.107 -0.3112 -0.3212 -0.3325
13278TIP3    H139756   1.356   6.987   6.175 -0.0856 -1.0676 -0.1960
13278TIP3    H239757   1.496   7.039   6.150 -0.1751 -0.7775 -0.0939
13279TIP3   OH239758   1.723   7.519   5.238  0.0919 -0.1332  0.1029
13279TIP3    H139759   1.665   7.447   5.261 -1.0040  0.8233  0.4050
13279TIP3    H239760   1.684   7.596   5.281 -0.7681  1.3016 -3.1095
13280TIP3   OH239761   3.287   5.489   5.740 -0.3184 -0.4387  0.4498
13280TIP3    H139762   3.242   5.405   5.749  0.1709 -0.7302  0.2016
13280TIP3    H239763   3.219   5.554   5.757 -1.0683 -0.8574 -0.8052
13281TIP3   OH239764   3.256   7.636   6.171  0.1279  0.4696  0.1198
13281TIP3    H139765   3.248   7.728   6.193  2.2332  0.7719 -0.2856
13281TIP3    H239766   3.348   7.615   6.185 -0.1499 -1.3682 -0.5651
13282TIP3   OH239767   8.161   0.138   6.665 -0.7881  0.0264  0.3210
13282TIP3    H139768   8.238   0.089   6.694  0.4144  1.1489 -0.8767
13282TIP3    H239769   8.101   0.072   6.631  0.1835 -0.7658  0.1240
13283TIP3   OH239770   0.466   2.028   1.696 -0.3191 -0.0288 -0.0849
13283TIP3    H139771   0.458   1.985   1.781  1.4302 -1.3893 -0.5737
13283TIP3    H239772   0.376   2.048   1.671 -0.9320 -0.4926  1.6355
13284TIP3   OH239773   1.927   4.837   5.668 -0.2109 -0.0383  0.2435
13284TIP3    H139774   2.012   4.805   5.637 -0.6435  0.9408 -2.0535
13284TIP3    H239775   1.939   4.932   5.676 -0.4254 -0.1515  2.1734
13285TIP3   OH239776   2.476   5.830   5.159 -0.0913 -0.6003 -0.0129
13285TIP3    H139777   2.450   5.922   5.152  0.7250 -0.5154 -2.3236
13285TIP3    H239778   2.534   5.828   5.235  0.2850  0.9047 -0.2308
13286TIP3   OH239779   8.751   0.865   2.270  0.3068 -0.1367  0.4182
13286TIP3    H139780   8.749   0.961   2.263  0.0832 -0.1336  0.5223
13286TIP3    H239781   8.664   0.837   2.240 -1.0061 -0.0765  3.9192
13287TIP3   OH239782   5.494   8.230   5.406 -0.0383  0.0260 -0.3168
13287TIP3    H139783   5.471   8.302   5.348  0.3526  0.1201 -0.3531
13287TIP3    H239784   5.501   8.154   5.349  0.1012  0.0706 -0.3597
13288TIP3   OH239785   4.353   4.436   6.445  0.0352  0.0771 -0.3801
13288TIP3    H139786   4.296   4.435   6.522  0.3167  2.4233 -0.1184
13288TIP3    H239787   4.348   4.346   6.411 -0.0977 -0.9921  2.3400
13289TIP3   OH239788   4.687   5.294   6.609 -0.3584 -0.3312  0.2478
13289TIP3    H139789   4.662   5.219   6.555  0.9241  0.9090 -2.1226
13289TIP3    H239790   4.653   5.370   6.562  0.1162  0.7337  1.5847
13290TIP3   OH239791   4.674   5.188   6.171  0.2851 -0.6731 -0.6159
13290TIP3    H139792   4.599   5.180   6.112  0.3781  0.6867 -0.9332
13290TIP3    H239793   4.732   5.117   6.145  0.8056  0.5218 -2.9052
13291TIP3   OH239794   3.538   6.467   6.396  0.2398 -0.0303  0.5629
13291TIP3    H139795   3.616   6.420   6.368  1.4263  1.3477  1.4352
13291TIP3    H239796   3.517   6.430   6.482 -0.4033 -0.7818  0.0854
13292TIP3   OH239797   3.352   6.153   6.343 -0.0115  0.1137  0.3430
13292TIP3    H139798   3.363   6.232   6.395  0.5087  0.3495 -0.1235
13292TIP3    H239799   3.346   6.082   6.407 -0.3872  0.5202  0.7568
13293TIP3   OH239800   2.438   6.016   6.599  0.0320  0.6257 -0.2034
13293TIP3    H139801   2.499   5.982   6.534  1.0007  1.1082  0.4382
13293TIP3    H239802   2.489   6.080   6.648 -0.9000  0.7946  0.5558
13294TIP3   OH239803   2.894   7.345   4.650  0.1952  0.6763 -0.0625
13294TIP3    H139804   2.857   7.265   4.689  0.0859  0.7982  0.0848
13294TIP3    H239805   2.845   7.416   4.690  0.2180  0.8144 -0.2778
13295TIP3   OH239806   2.015   4.263   4.500  0.8125  0.1997 -0.3905
13295TIP3    H139807   2.000   4.230   4.411  1.6330 -0.5472 -0.2598
13295TIP3    H239808   2.043   4.354   4.487  1.1794  0.0175 -0.9218
13296TIP3   OH239809   3.976   5.782   7.049  0.1474  0.0184 -0.2549
13296TIP3    H139810   3.940   5.706   7.096  1.2690  0.3957  1.2410
13296TIP3    H239811   3.903   5.844   7.044 -0.3008 -0.4853 -0.0088
13297TIP3   OH239812   5.528   7.119   5.478  0.2431 -0.6168  0.1105
13297TIP3    H139813   5.577   7.142   5.400  0.3169 -0.4584  0.2045
13297TIP3    H239814   5.592   7.077   5.535  0.3392 -0.1317  0.3607
13298TIP3   OH239815   6.301   7.785   0.356 -0.5794 -0.2950 -0.0225
13298TIP3    H139816   6.346   7.720   0.411 -0.0813  0.1589  0.1191
13298TIP3    H239817   6.213   7.792   0.394 -1.2202 -2.1925 -1.1410
13299TIP3   OH239818   3.365   5.040   4.665  0.1895 -0.0240  0.0036
13299TIP3    H139819   3.395   5.052   4.575 -0.3123 -0.5306 -0.2336
13299TIP3    H239820   3.270   5.046   4.660  0.0637 -1.4756  0.2708
13300TIP3   OH239821   4.921   5.277   3.505 -0.2642 -0.0102 -0.1791
13300TIP3    H139822   4.983   5.221   3.458 -0.0466 -0.3597  0.5138
13300TIP3    H239823   4.896   5.344   3.441  3.1707  1.9757  0.4435
13301TIP3   OH239824   1.592   2.316   0.884 -0.0405  0.0614  0.0967
13301TIP3    H139825   1.576   2.244   0.944  1.0720 -0.2452  0.0309
13301TIP3    H239826   1.558   2.393   0.929  1.0240 -0.1200  1.2431
13302TIP3   OH239827   1.665   1.567   0.922 -0.0810  0.3987  0.4067
13302TIP3    H139828   1.662   1.621   0.843  0.7523 -1.0244 -0.6154
13302TIP3    H239829   1.750   1.585   0.961  0.1957 -0.1867  0.0675
13303TIP3   OH239830   4.660   5.846   6.211 -0.3740  0.1095 -0.5924
13303TIP3    H139831   4.600   5.791   6.160 -0.8202 -0.1009  0.1486
13303TIP3    H239832   4.608   5.872   6.287 -0.2681  1.8141 -1.0905
13304TIP3   OH239833   3.860   5.190   5.563 -0.0599 -0.1081 -0.6276
13304TIP3    H139834   3.773   5.176   5.602  0.2990 -1.0977 -0.1723
13304TIP3    H239835   3.848   5.167   5.471 -0.9251  2.2947 -1.1579
13305TIP3   OH239836   4.808   6.411   6.905 -0.0996 -0.1976 -0.2521
13305TIP3    H139837   4.858   6.490   6.925 -1.1822  0.8654 -1.7453
13305TIP3    H239838   4.773   6.383   6.990 -0.1216  1.1905  0.2078
13306TIP3   OH239839   2.551   5.292   5.163 -0.4372  0.2587  0.5612
13306TIP3    H139840   2.564   5.360   5.229  1.8452 -1.2217  1.6947
13306TIP3    H239841   2.530   5.214   5.214 -0.4706 -0.4800 -0.5722
13307TIP3   OH239842   4.424   5.463   6.336  0.4498  0.3617  0.5760
13307TIP3    H139843   4.447   5.472   6.243 -0.1637  2.8044  0.6144
13307TIP3    H239844   4.492   5.513   6.382  0.3659 -0.2636  1.3881
13308TIP3   OH239845   8.472   1.574   0.405  0.3173  0.1478  0.0101
13308TIP3    H139846   8.541   1.527   0.452  0.4620  1.2736  0.9636
13308TIP3    H239847   8.400   1.581   0.468 -0.0975  0.2807 -0.4747
13309TIP3   OH239848   1.748   1.691   0.419  0.1755 -0.8105 -0.1988
13309TIP3    H139849   1.726   1.773   0.374  2.4530 -1.6297 -2.9608
13309TIP3    H239850   1.707   1.623   0.365 -1.3065 -1.5493  1.8194
13310TIP3   OH239851   2.290   5.108   5.685 -0.3255 -0.1142 -0.8806
13310TIP3    H139852   2.331   5.036   5.637 -0.3413 -1.9590  1.7387
13310TIP3    H239853   2.361   5.146   5.736 -0.1997  2.1609 -2.6803
13311TIP3   OH239854   2.984   6.485   5.280  0.3533 -0.2584 -0.1794
13311TIP3    H139855   2.960   6.435   5.203  0.1091 -0.5482  0.0849
13311TIP3    H239856   2.902   6.523   5.311  0.5086  0.1652 -0.2790
13312TIP3   OH239857   6.599   7.060   3.571 -0.6730  0.1708  0.0029
13312TIP3    H139858   6.626   7.113   3.496 -1.5504 -0.2513 -0.6195
13312TIP3    H239859   6.535   6.999   3.535 -1.9412  0.7133  1.3131
13313TIP3   OH239860   2.668   5.596   4.517 -0.0468  0.0251  0.1172
13313TIP3    H139861   2.682   5.690   4.521  2.1407 -0.2937  0.5291
13313TIP3    H239862   2.604   5.578   4.586 -0.0105  1.1264  0.4490
13314TIP3   OH239863   3.915   8.000   4.046  0.1216 -0.2189  0.1845
13314TIP3    H139864   3.896   8.032   3.957 -0.4967 -0.3217  0.2770
13314TIP3    H239865   3.995   8.046   4.071  0.6107 -0.6111 -0.6433
13315TIP3   OH239866   2.959   5.551   5.385 -0.2570  0.8558 -0.5315
13315TIP3    H139867   2.888   5.561   5.449 -0.1764  1.9045 -0.6009
13315TIP3    H239868   3.015   5.483   5.423  0.0843  1.8702  0.7890
13316TIP3   OH239869   4.466   7.041   4.457  0.3393 -0.4006  0.4667
13316TIP3    H139870   4.396   7.105   4.474  0.1193 -0.5820  0.2589
13316TIP3    H239871   4.523   7.046   4.533  1.7985  1.9843 -0.7003
13317TIP3   OH239872   3.558   6.072   5.292  0.1469 -0.6643 -0.3232
13317TIP3    H139873   3.465   6.094   5.290 -0.0441 -1.3988  0.1305
13317TIP3    H239874   3.596   6.120   5.218 -0.7062 -0.8679 -0.9038
13318TIP3   OH239875   3.589   6.590   7.021 -0.3001 -0.2926 -0.8405
13318TIP3    H139876   3.561   6.540   7.097  0.5855 -0.9257 -0.9155
13318TIP3    H239877   3.534   6.558   6.949 -0.4215 -0.4408 -0.6811
13319TIP3   OH239878   4.865   5.984   5.696 -0.4164 -0.1801  0.5996
13319TIP3    H139879   4.889   5.995   5.788 -0.3796 -0.8963  0.6824
13319TIP3    H239880   4.867   6.072   5.659  1.0552 -0.0627  0.9199
13320TIP3   OH239881   1.156   2.036   1.236  0.8432 -0.6547  0.2000
13320TIP3    H139882   1.104   1.968   1.280  0.1570 -0.3175 -0.0745
13320TIP3    H239883   1.179   1.998   1.152  2.9145 -1.6452  1.1694
13321TIP3   OH239884   4.349   7.245   7.059  0.1273  0.4777 -0.0202
13321TIP3    H139885   4.388   7.164   7.092  1.6716  0.9295 -0.6830
13321TIP3    H239886   4.279   7.216   7.001  0.5302 -0.3938 -0.0822
13322TIP3   OH239887   3.718   7.365   4.987  0.2871  0.6149  0.1043
13322TIP3    H139888   3.708   7.290   5.045  2.3022 -0.3948 -0.8085
13322TIP3    H239889   3.630   7.400   4.977 -0.4995 -0.9341  1.4556
13323TIP3   OH239890   4.245   4.726   7.174  0.1657  0.6838  0.1974
13323TIP3    H139891   4.312   4.754   7.112  0.2511  1.9696  0.8608
13323TIP3    H239892   4.163   4.730   7.124  0.1990  1.9630  0.2323
13324TIP3   OH239893   3.974   4.205   6.623 -0.2976  0.1322  0.0196
13324TIP3    H139894   3.946   4.226   6.712 -0.3460  0.0165  0.0322
13324TIP3    H239895   3.894   4.174   6.580 -0.2223 -0.0450  0.0080
13325TIP3   OH239896   3.104   7.015   4.906  0.2554 -0.2048  0.1220
13325TIP3    H139897   3.025   6.981   4.949  0.6742 -2.4790 -0.8491
13325TIP3    H239898   3.075   7.043   4.820  0.4485 -0.7644 -0.1264
13326TIP3   OH239899   4.410   7.348   5.696  0.4319 -0.1185 -0.4155
13326TIP3    H139900   4.352   7.296   5.640  1.0406 -0.5870 -0.6155
13326TIP3    H239901   4.495   7.344   5.653  0.0831  2.6877 -1.5310
13327TIP3   OH239902   4.067   6.150   4.769  0.3974  0.3579 -0.0145
13327TIP3    H139903   4.064   6.106   4.684 -0.3686 -1.2154  0.8042
13327TIP3    H239904   3.978   6.183   4.781  0.1706 -0.5134  0.7292
13328TIP3   OH239905   3.534   6.043   5.845 -0.2346  0.4082  0.3960
13328TIP3    H139906   3.614   6.060   5.895 -0.0694  0.5135  0.0987
13328TIP3    H239907   3.564   5.996   5.767 -0.3984  0.8560  0.0544
13329TIP3   OH239908   4.780   6.513   4.116 -0.3978  0.4067 -0.5346
13329TIP3    H139909   4.745   6.494   4.029 -0.4287  0.2796 -0.4952
13329TIP3    H239910   4.874   6.498   4.109 -0.4600 -0.0607 -0.4264
13330TIP3   OH239911   3.386   6.630   5.590 -0.6358 -0.0499 -0.0564
13330TIP3    H139912   3.398   6.697   5.523 -0.5183 -1.0308 -1.0266
13330TIP3    H239913   3.328   6.565   5.550  1.3237 -1.8323 -0.0858
13331TIP3   OH239914   4.548   6.194   6.623 -0.7292  0.0183  0.4259
13331TIP3    H139915   4.577   6.206   6.532  0.8463  0.4303  0.9602
13331TIP3    H239916   4.513   6.279   6.649  0.2999  0.3659  0.7035
13332TIP3   OH239917   4.524   5.962   4.562 -0.7434  0.3902 -0.1770
13332TIP3    H139918   4.537   5.887   4.620 -1.9346 -1.1165 -1.8041
13332TIP3    H239919   4.560   6.036   4.611  1.7812 -1.4414  0.9051
13333TIP3   OH239920   3.204   6.189   3.982 -0.5351 -0.5418 -1.0801
13333TIP3    H139921   3.126   6.181   4.036 -1.2390 -0.6914 -2.0941
13333TIP3    H239922   3.234   6.099   3.969  0.2279 -0.4369 -0.1016
13334TIP3   OH239923   2.807   1.397   0.185 -0.3271  0.7017  0.1369
13334TIP3    H139924   2.716   1.379   0.162 -0.2736  0.8718 -0.2265
13334TIP3    H239925   2.856   1.324   0.147 -0.3471  0.4312  0.6286
13335TIP3   OH239926   2.659   7.422   4.833 -0.2142 -0.6227  0.0840
13335TIP3    H139927   2.739   7.386   4.870  0.7796 -0.1488 -1.5453
13335TIP3    H239928   2.589   7.381   4.884  1.0980  1.4011  3.6920
13336TIP3   OH239929   2.041   1.957   0.331 -0.4023 -0.1874 -0.5526
13336TIP3    H139930   1.960   2.008   0.334 -0.1724  0.1684 -0.4148
13336TIP3    H239931   2.110   2.019   0.357  0.0257 -0.2580 -1.4968
13337TIP3   OH239932   4.823   6.240   6.430  0.4550  0.7048  0.1311
13337TIP3    H139933   4.871   6.238   6.513  0.4914 -0.3830  0.0889
13337TIP3    H239934   4.847   6.158   6.387  0.1313  1.0874 -0.7856
13338TIP3   OH239935   2.731   6.610   5.365 -0.0129 -0.6349  0.3830
13338TIP3    H139936   2.741   6.621   5.460  1.7895 -0.3182  0.1899
13338TIP3    H239937   2.643   6.576   5.354 -1.0937  1.5047  1.9927
13339TIP3   OH239938   3.989   5.754   6.394  0.1817  0.3162  0.1033
13339TIP3    H139939   3.921   5.731   6.458 -2.0462 -0.0288 -2.3270
13339TIP3    H239940   4.047   5.678   6.394 -0.6390 -0.3325  0.6399
13340TIP3   OH239941   4.833   6.168   6.713  0.4243  0.0647  0.5119
13340TIP3    H139942   4.744   6.132   6.708  0.4495  0.0672  0.0226
13340TIP3    H239943   4.821   6.253   6.756 -0.1984  1.3236 -2.0591
13341TIP3   OH239944   2.961   5.066   6.494 -0.3131 -0.0246  0.3081
13341TIP3    H139945   2.938   5.003   6.562 -0.0692  0.2358  0.6320
13341TIP3    H239946   3.012   5.133   6.539 -1.3636  0.8909  0.1354
13342TIP3   OH239947   0.602   1.950   1.429  0.0373 -0.0169  0.5341
13342TIP3    H139948   0.670   2.017   1.438  0.5668 -0.6517  1.2273
13342TIP3    H239949   0.575   1.931   1.519 -0.2836 -0.5690  0.3216
13343TIP3   OH239950   3.523   4.544   6.621  0.3510 -0.0420 -0.4652
13343TIP3    H139951   3.441   4.503   6.648  1.0119 -2.1259 -1.5028
13343TIP3    H239952   3.566   4.478   6.566  2.1000  1.5307 -1.0463
13344TIP3   OH239953   6.385   7.796   0.080  0.8015  1.0159  0.1172
13344TIP3    H139954   6.384   7.763   0.169 -1.2550 -0.4467 -0.4125
13344TIP3    H239955   6.451   7.744   0.035 -0.2417 -0.3095  0.0724
13345TIP3   OH239956   3.892   7.343   6.840  0.2997  0.0220  1.0423
13345TIP3    H139957   3.852   7.356   6.754  0.0719  2.0355  1.4279
13345TIP3    H239958   3.843   7.271   6.879  0.6643 -1.1827 -0.6451
13346TIP3   OH239959   6.288   5.706   3.638  0.1824  0.1713 -0.4405
13346TIP3    H139960   6.205   5.697   3.685 -0.8969 -0.4177 -2.4081
13346TIP3    H239961   6.291   5.798   3.612 -0.4145 -0.0546 -1.3426
13347TIP3   OH239962   0.586   1.918   0.150 -0.6835  0.2987  0.0940
13347TIP3    H139963   0.674   1.883   0.161 -0.8047 -0.0971 -0.1825
13347TIP3    H239964   0.573   1.920   0.055 -0.9716  0.3532  0.1334
13348TIP3   OH239965   6.150   6.308   6.728  0.4519  0.7529  0.4254
13348TIP3    H139966   6.226   6.300   6.787 -0.2981 -0.4102  1.2567
13348TIP3    H239967   6.077   6.328   6.786 -0.0614  0.8792 -0.2619
13349TIP3   OH239968   2.252   5.948   5.579  0.7366 -0.3270  0.3787
13349TIP3    H139969   2.285   5.954   5.668 -2.5732  1.1979  1.5899
13349TIP3    H239970   2.164   5.911   5.588  0.0410  0.5641 -2.1882
13350TIP3   OH239971   3.759   5.678   6.758 -0.5720 -0.3044 -0.5060
13350TIP3    H139972   3.853   5.690   6.775 -0.9767  0.2027  1.4087
13350TIP3    H239973   3.716   5.714   6.835 -2.3808  0.1009 -1.6806
13351TIP3   OH239974   2.025   2.865   2.053  0.9893  0.6024  0.1489
13351TIP3    H139975   2.033   2.942   2.108  1.6843  0.3114  0.4636
13351TIP3    H239976   2.095   2.875   1.988  0.3514  0.8067 -0.5184
13352TIP3   OH239977   4.269   6.305   6.438 -0.4475 -0.4559 -0.4176
13352TIP3    H139978   4.307   6.223   6.470 -0.9650  0.2599  2.1346
13352TIP3    H239979   4.175   6.295   6.452 -0.2948  1.6565  2.7510
13353TIP3   OH239980   0.929   3.101   2.212  0.5866  0.5644  0.3529
13353TIP3    H139981   0.956   3.034   2.149 -0.7783  1.0994 -0.8544
13353TIP3    H239982   0.834   3.091   2.217  0.7094  0.3613  2.5686
13354TIP3   OH239983   5.308   6.130   2.508  0.0828  0.3740 -0.1812
13354TIP3    H139984   5.244   6.201   2.496  1.8111  1.9906  0.0226
13354TIP3    H239985   5.300   6.107   2.600  0.9573  1.7403  0.2569
13355TIP3   OH239986   4.308   5.700   5.930  0.8029 -0.0856 -0.0346
13355TIP3    H139987   4.221   5.705   5.969  0.7970 -0.0899 -0.0466
13355TIP3    H239988   4.292   5.684   5.837  0.7709  1.6685 -0.3614
13356TIP3   OH239989   3.544   5.613   4.407  0.0348  0.2474  0.1785
13356TIP3    H139990   3.559   5.523   4.434 -1.3714  0.1117  0.5078
13356TIP3    H239991   3.522   5.607   4.314 -0.6772  0.1978  0.3524
13357TIP3   OH239992   4.293   6.090   4.128  0.4329 -0.6380 -0.2207
13357TIP3    H139993   4.202   6.085   4.156  0.7147 -1.6347  0.5569
13357TIP3    H239994   4.342   6.047   4.198  1.3906 -1.0961 -1.1552
13358TIP3   OH239995   4.086   5.047   4.597 -0.1527 -0.3764  0.1708
13358TIP3    H139996   4.181   5.037   4.585 -0.2367 -1.6582  0.4122
13358TIP3    H239997   4.048   4.984   4.536 -0.8208 -0.5571  0.7698
13359TIP3   OH239998   4.281   5.706   5.572  0.3201 -0.8290  0.0440
13359TIP3    H139999   4.285   5.671   5.483  1.1086 -0.7216  0.0350
13359TIP3    H240000   4.288   5.801   5.561  1.2185 -0.8656  0.2712
13360TIP3   OH240001   4.388   4.803   4.884 -0.5007 -0.7713 -0.4316
13360TIP3    H140002   4.327   4.826   4.954  0.2957 -2.2776  0.7677
13360TIP3    H240003   4.341   4.738   4.832  0.4925 -2.8492  1.1973
13361TIP3   OH240004   5.548   5.920   5.634 -0.5009  0.1391  0.2965
13361TIP3    H140005   5.617   5.892   5.694 -0.5515 -1.4775 -0.3997
13361TIP3    H240006   5.474   5.863   5.653 -1.9563  2.3949  1.6047
13362TIP3   OH240007   5.047   7.537   7.065 -0.4298  0.3603  0.4728
13362TIP3    H140008   5.118   7.473   7.057 -0.0450  0.9255 -0.7275
13362TIP3    H240009   5.029   7.565   6.975 -1.8278  0.6013  0.8202
13363TIP3   OH240010   4.267   6.472   6.834 -0.8799  0.2930  0.4870
13363TIP3    H140011   4.211   6.394   6.830 -0.3664 -0.1083  1.1202
13363TIP3    H240012   4.334   6.457   6.767  0.6286 -0.9140  2.2370
13364TIP3   OH240013   5.360   5.692   5.637 -0.6383 -0.0174  0.3203
13364TIP3    H140014   5.283   5.749   5.632 -1.3484 -0.9668  0.3129
13364TIP3    H240015   5.324   5.604   5.650  0.4782 -0.3351  1.4115
13365TIP3   OH240016   4.527   6.617   6.935 -0.4283  0.4759 -0.6384
13365TIP3    H140017   4.599   6.593   6.993  0.2742  1.8096 -0.9431
13365TIP3    H240018   4.452   6.628   6.994 -0.0577  0.4477 -0.1582
13366TIP3   OH240019   3.430   3.857   5.113 -0.4585 -0.2497 -0.0242
13366TIP3    H140020   3.489   3.899   5.176  0.8764  0.3409 -1.6495
13366TIP3    H240021   3.480   3.852   5.032 -2.1111 -1.1362 -1.0225
13367TIP3   OH240022   3.043   6.059   6.311 -0.3744 -0.0297 -0.2055
13367TIP3    H140023   2.981   6.129   6.330  2.1433  1.8401  1.4539
13367TIP3    H240024   3.058   6.016   6.395  0.9890 -0.0744 -0.4468
13368TIP3   OH240025   3.426   6.327   6.610  0.3482 -0.5779 -0.0898
13368TIP3    H140026   3.468   6.289   6.687  1.2725 -0.4858 -0.5334
13368TIP3    H240027   3.332   6.318   6.626  0.5179  0.3762  1.5103
13369TIP3   OH240028   8.523   3.756   0.160 -0.0622 -0.1072  0.6225
13369TIP3    H140029   8.514   3.710   0.243  1.5248 -0.5428  0.5818
13369TIP3    H240030   8.618   3.759   0.145 -0.2656  1.1697 -0.4991
13370TIP3   OH240031   2.726   5.612   3.841  0.0201  0.0478 -0.1164
13370TIP3    H140032   2.659   5.680   3.828 -0.1633 -0.0550  0.2643
13370TIP3    H240033   2.698   5.567   3.921 -0.0919 -0.7479 -0.5934
13371TIP3   OH240034   4.221   5.908   7.127  0.3708  0.6741  0.9865
13371TIP3    H140035   4.293   5.848   7.109 -0.5558  0.0813 -0.8647
13371TIP3    H240036   4.146   5.871   7.080 -1.0003  1.5819  2.4160
13372TIP3   OH240037   3.723   5.094   4.418 -0.5144  0.6383 -0.7055
13372TIP3    H140038   3.639   5.138   4.414 -1.5597 -0.7090  3.6206
13372TIP3    H240039   3.785   5.161   4.447 -0.5775  1.0257 -1.4595
13373TIP3   OH240040   2.557   7.147   5.752 -0.3419  0.0954 -0.0939
13373TIP3    H140041   2.631   7.089   5.770 -0.6821 -1.0605 -2.3671
13373TIP3    H240042   2.486   7.112   5.806  0.6189  0.9676  1.7879
13374TIP3   OH240043   0.633   1.663   5.174 -0.5468 -0.2861  0.2313
13374TIP3    H140044   0.627   1.574   5.208  1.1987 -0.5385 -0.0725
13374TIP3    H240045   0.634   1.719   5.252  0.4222 -0.6712  0.5012
13375TIP3   OH240046   1.513   1.565   1.388  0.7380 -0.0200  0.0274
13375TIP3    H140047   1.542   1.568   1.297  0.6358  1.4393  0.0376
13375TIP3    H240048   1.571   1.501   1.429  1.2319 -0.1758 -0.8912
13376TIP3   OH240049   7.362   1.575   6.751  0.1117  0.0390  0.2959
13376TIP3    H140050   7.342   1.489   6.712 -1.5479 -0.0882  1.3497
13376TIP3    H240051   7.363   1.559   6.845 -0.0422  1.1493  0.4944
13377TIP3   OH240052   6.172   7.834   6.981  0.7143  0.1747  0.6641
13377TIP3    H140053   6.178   7.739   6.989 -1.4649  0.0729  1.4709
13377TIP3    H240054   6.179   7.851   6.887 -0.4112 -0.9266  0.3738
13378TIP3   OH240055   1.281   2.469   1.005 -0.3554  0.0592 -0.2562
13378TIP3    H140056   1.186   2.484   1.005 -0.0813  2.1712  1.3710
13378TIP3    H240057   1.294   2.402   1.072 -0.7084 -0.2199 -0.4656
13379TIP3   OH240058   5.178   5.833   5.793 -0.3234 -0.1605  0.0317
13379TIP3    H140059   5.107   5.769   5.794  0.6797 -1.2925  1.2672
13379TIP3    H240060   5.244   5.796   5.851  0.9923  1.2073 -0.5595
13380TIP3   OH240061   2.126   3.680   0.180  0.1115 -0.3954 -0.3542
13380TIP3    H140062   2.187   3.614   0.149 -0.6697  0.0028 -2.8886
13380TIP3    H240063   2.173   3.763   0.170 -0.3663 -0.2077 -1.1568
13381TIP3   OH240064   4.026   6.761   6.594  0.7393 -0.5057  0.0921
13381TIP3    H140065   4.100   6.778   6.535  0.0280  1.6424 -0.2090
13381TIP3    H240066   3.970   6.702   6.545  1.2261 -0.4664 -0.5198
13382TIP3   OH240067   3.780   5.807   3.046  0.0591  0.2721  0.0280
13382TIP3    H140068   3.846   5.773   2.985  2.2395  0.0395  2.4540
13382TIP3    H240069   3.830   5.859   3.109 -1.9792 -0.5555  2.3825
13383TIP3   OH240070   2.077   6.481   5.135 -0.4397 -0.5760 -0.7010
13383TIP3    H140071   2.063   6.547   5.203 -0.0109  0.3122 -1.4767
13383TIP3    H240072   2.143   6.422   5.172  0.8680  0.7338 -0.9229
13384TIP3   OH240073   2.798   6.725   7.003 -0.0283 -0.7109  0.9801
13384TIP3    H140074   2.769   6.640   7.037  1.0174 -1.1372  0.8308
13384TIP3    H240075   2.735   6.746   6.935  0.0275 -1.6579  0.6211
13385TIP3   OH240076   3.409   4.851   6.282 -0.1432 -0.0008 -0.1269
13385TIP3    H140077   3.436   4.777   6.228 -1.3506 -0.1969 -0.4519
13385TIP3    H240078   3.372   4.914   6.221 -0.8044  0.0966  0.3690
13386TIP3   OH240079   0.095   3.603   0.484 -0.4639 -0.0003  1.0301
13386TIP3    H140080   0.065   3.692   0.464 -0.9667 -0.3021  0.4210
13386TIP3    H240081   0.054   3.549   0.417  0.9946 -0.5076  0.5255
13387TIP3   OH240082   4.513   6.029   7.107 -0.5726 -0.3102 -0.3201
13387TIP3    H140083   4.492   6.029   7.014 -0.3805 -2.2081 -0.3772
13387TIP3    H240084   4.608   6.039   7.110 -0.4169 -1.6693 -0.3902
13388TIP3   OH240085   5.598   5.353   0.709 -0.2431  0.3142  0.3027
13388TIP3    H140086   5.587   5.447   0.718  0.1182  0.3645  0.2179
13388TIP3    H240087   5.589   5.336   0.615  0.3205  0.3489  0.2365
13389TIP3   OH240088   4.522   6.449   6.720 -0.3457  0.0538  0.0441
13389TIP3    H140089   4.568   6.520   6.674 -1.0807  0.3159 -0.2906
13389TIP3    H240090   4.537   6.468   6.813  1.0127 -0.3911 -0.0801
13390TIP3   OH240091   4.341   4.261   3.057 -0.1144  0.4547  0.0370
13390TIP3    H140092   4.418   4.311   3.083 -0.2599  1.0347 -0.6279
13390TIP3    H240093   4.304   4.228   3.139  1.1277 -0.2602  0.3261
13391TIP3   OH240094   1.238   1.788   1.832 -0.3371  0.3310 -0.1869
13391TIP3    H140095   1.322   1.792   1.787  0.2815 -1.2176  0.7594
13391TIP3    H240096   1.226   1.695   1.851 -2.9030  0.3742 -1.4675
13392TIP3   OH240097   5.339   7.078   6.422  0.8859  0.4601 -0.0648
13392TIP3    H140098   5.360   7.101   6.513 -0.8433  0.9534  0.2180
13392TIP3    H240099   5.359   7.157   6.372  0.6947  0.5881  0.0594
13393TIP3   OH240100   8.537   3.092   0.353  0.0753  0.8961  0.1351
13393TIP3    H140101   8.592   3.115   0.428  0.2521  0.1488  0.2324
13393TIP3    H240102   8.589   3.115   0.276 -0.0376  1.4983  0.2385
13394TIP3   OH240103   8.820   2.499   0.689  0.2415 -0.0742  0.6063
13394TIP3    H140104   8.758   2.475   0.759 -1.3339 -1.0161 -1.0705
13394TIP3    H240105   8.788   2.583   0.657  0.2126 -0.2451  0.1864
13395TIP3   OH240106   0.368   1.887   1.302 -0.8413 -0.0171 -0.0907
13395TIP3    H140107   0.381   1.916   1.211 -1.4146  3.7389  0.9553
13395TIP3    H240108   0.453   1.902   1.344 -0.4260 -2.2263 -0.0431
13396TIP3   OH240109   3.373   5.721   6.658  0.8160 -0.2035 -0.6041
13396TIP3    H140110   3.367   5.683   6.746  2.8218 -0.0039 -0.3681
13396TIP3    H240111   3.456   5.688   6.623  0.7558  0.9208 -1.8461
13397TIP3   OH240112   2.640   4.215   6.538 -0.3498  0.1489 -0.2554
13397TIP3    H140113   2.591   4.226   6.457  0.6558 -0.6608 -0.9730
13397TIP3    H240114   2.576   4.178   6.599 -1.1268  0.8395 -0.6394
13398TIP3   OH240115   3.542   5.338   4.550  0.0072 -0.0410  0.3126
13398TIP3    H140116   3.552   5.295   4.635 -1.1021  0.5416  0.7503
13398TIP3    H240117   3.494   5.273   4.497  0.6962 -0.4034  0.1296
13399TIP3   OH240118   0.436   1.971   0.374  0.0149  0.3888  0.4503
13399TIP3    H140119   0.491   2.020   0.435  1.6331  0.8999 -1.3753
13399TIP3    H240120   0.484   1.971   0.292 -1.9781 -0.5584 -0.7752
13400TIP3   OH240121   4.866   4.385   4.617 -0.3137  0.0311  0.0110
13400TIP3    H140122   4.851   4.476   4.640 -1.9327  0.3373 -2.0899
13400TIP3    H240123   4.875   4.340   4.701 -0.3236  1.9868  1.0800
13401TIP3   OH240124   3.577   6.150   7.148 -0.0079  0.1071  0.1161
13401TIP3    H140125   3.588   6.149   7.053  1.0898 -0.0123  0.2385
13401TIP3    H240126   3.652   6.198   7.181 -0.4148  0.2072  0.9240
13402TIP3   OH240127   8.095   7.342   3.315  0.2696 -0.0234 -0.2908
13402TIP3    H140128   8.149   7.359   3.393  0.5638 -2.3509  0.0459
13402TIP3    H240129   8.158   7.314   3.249 -0.2679 -0.6477 -0.5457
13403TIP3   OH240130   3.314   6.287   5.159  0.2032 -0.2225 -0.1987
13403TIP3    H140131   3.237   6.264   5.211 -0.2789  0.5541 -0.5417
13403TIP3    H240132   3.293   6.256   5.071  0.1572  0.2255 -0.3514
13404TIP3   OH240133   7.870   1.465   0.255 -0.3994 -0.1184  0.2402
13404TIP3    H140134   7.911   1.483   0.170 -1.2418 -0.7510 -0.3045
13404TIP3    H240135   7.887   1.372   0.270  0.6044  0.2133  1.2397
13405TIP3   OH240136   2.472   3.466   1.255 -0.2643 -0.3117  0.2019
13405TIP3    H140137   2.456   3.560   1.265 -0.2601 -0.3607  0.6643
13405TIP3    H240138   2.389   3.424   1.276 -0.1587 -0.4364  0.3701
13406TIP3   OH240139   4.397   5.590   4.526  0.1038 -0.2688 -0.2244
13406TIP3    H140140   4.350   5.559   4.449 -0.4147 -2.4419  0.9082
13406TIP3    H240141   4.370   5.681   4.537 -1.8537 -0.7322 -1.0703
13407TIP3   OH240142   4.891   6.979   5.149 -0.5697 -0.2301 -0.2409
13407TIP3    H140143   4.986   6.989   5.158 -0.5993 -0.2939  0.1404
13407TIP3    H240144   4.856   6.997   5.236 -1.0983  1.8491 -0.8634
13408TIP3   OH240145   1.226   3.279   6.438  0.3565 -0.1915 -0.0751
13408TIP3    H140146   1.306   3.288   6.386 -0.1065  0.6071 -0.6448
13408TIP3    H240147   1.156   3.313   6.382 -0.1387  0.7197  1.0751
13409TIP3   OH240148   5.044   6.347   6.551 -0.7885 -0.9175 -0.4919
13409TIP3    H140149   5.003   6.353   6.465 -0.0591 -0.5199 -0.8127
13409TIP3    H240150   5.014   6.425   6.597 -0.2380 -0.5174 -0.7999
13410TIP3   OH240151   5.723   0.139   6.358 -0.1708 -0.3924  0.1757
13410TIP3    H140152   5.784   0.197   6.403  0.6852 -1.3060  0.2083
13410TIP3    H240153   5.743   0.052   6.393 -2.1232 -0.5742  0.8841
13411TIP3   OH240154   2.732   6.883   3.300 -0.2725  0.7142 -0.8850
13411TIP3    H140155   2.758   6.966   3.260 -0.3058  0.5880 -1.1714
13411TIP3    H240156   2.788   6.818   3.257 -0.3555  0.5702 -0.7738
13412TIP3   OH240157   4.016   6.922   6.281 -0.0761 -0.3612  0.2957
13412TIP3    H140158   4.088   6.975   6.247 -0.4251  0.1408  0.3329
13412TIP3    H240159   4.052   6.834   6.287 -0.0074 -0.4779 -1.3990
13413TIP3   OH240160   1.296   6.626   4.631 -0.1351 -0.7207 -0.0356
13413TIP3    H140161   1.240   6.557   4.666 -1.1472 -0.6028 -1.3864
13413TIP3    H240162   1.236   6.687   4.588  0.9354 -0.0699 -0.6438
13414TIP3   OH240163   0.789   1.531   0.518  0.0695  0.6081 -0.1726
13414TIP3    H140164   0.874   1.490   0.534 -0.4427 -1.2407 -2.0145
13414TIP3    H240165   0.734   1.501   0.590  0.6684  0.8983  0.4073
13415TIP3   OH240166   3.053   4.410   2.044  0.2506 -0.4204 -0.2959
13415TIP3    H140167   3.017   4.466   2.113 -0.4795 -1.1434 -0.0921
13415TIP3    H240168   3.083   4.472   1.976  1.0761  0.2966  0.7031
13416TIP3   OH240169   8.660   0.713   5.778 -0.0597  0.1714 -0.0113
13416TIP3    H140170   8.730   0.764   5.818 -0.2555  0.4140  0.0222
13416TIP3    H240171   8.682   0.711   5.684 -1.9504  3.4028 -0.5991
13417TIP3   OH240172   4.623   7.053   4.680  0.1968 -0.2451 -0.8810
13417TIP3    H140173   4.682   6.994   4.727 -1.7994 -0.2143  1.8051
13417TIP3    H240174   4.681   7.118   4.641  2.0329 -0.8357  0.7508
13418TIP3   OH240175   3.478   5.570   5.546  0.7693 -0.1703  0.1779
13418TIP3    H140176   3.436   5.539   5.626 -0.3826  0.1840 -0.2763
13418TIP3    H240177   3.572   5.563   5.563  0.5221 -0.8571  1.2570
13419TIP3   OH240178   3.979   5.362   3.382  0.1030 -0.1008 -0.3537
13419TIP3    H140179   3.953   5.454   3.381  0.9281  0.1714  1.1315
13419TIP3    H240180   4.067   5.360   3.346 -0.8598 -0.6620 -2.7670
13420TIP3   OH240181   4.224   5.575   6.656  0.4920  0.4935 -0.4019
13420TIP3    H140182   4.240   5.544   6.567 -0.2647  1.6518 -0.9582
13420TIP3    H240183   4.185   5.500   6.701  0.3765  0.0703 -1.1988
13421TIP3   OH240184   3.179   6.759   5.782 -0.5592  0.7396  0.7203
13421TIP3    H140185   3.170   6.677   5.830  0.2305 -0.5768 -1.3271
13421TIP3    H240186   3.105   6.759   5.721  1.8202 -0.5633 -2.2733
13422TIP3   OH240187   4.411   5.185   6.384 -0.2577  0.3074  0.5565
13422TIP3    H140188   4.395   5.161   6.293  2.4764 -0.2750  0.1829
13422TIP3    H240189   4.436   5.277   6.381  1.0265 -0.0308  0.5488
13423TIP3   OH240190   0.209   0.272   2.445  0.1923 -0.0638  0.4797
13423TIP3    H140191   0.137   0.334   2.453  1.5209  1.2950  2.4816
13423TIP3    H240192   0.181   0.195   2.494 -0.0312  0.3262  0.9642
13424TIP3   OH240193   3.194   5.214   5.791 -0.3047  0.5460 -0.2555
13424TIP3    H140194   3.112   5.167   5.805  0.2158 -0.7011 -1.2825
13424TIP3    H240195   3.253   5.148   5.753  0.8049  1.7237 -0.6080
13425TIP3   OH240196   4.319   6.734   4.898  0.3912 -0.1419  0.1556
13425TIP3    H140197   4.328   6.824   4.930 -0.0120  0.3369 -1.0316
13425TIP3    H240198   4.269   6.743   4.817  0.0439 -1.4829  0.2217
13426TIP3   OH240199   1.469   1.743   0.093  0.5627  0.5377 -0.0134
13426TIP3    H140200   1.548   1.696   0.065  0.6645  1.1432 -0.7496
13426TIP3    H240201   1.439   1.788   0.015  1.4508  3.1114  1.0580
13427TIP3   OH240202   2.980   5.458   4.818  0.3689  0.5548 -0.2127
13427TIP3    H140203   3.068   5.422   4.806  0.5332  0.5491  1.0386
13427TIP3    H240204   2.962   5.449   4.911 -1.0714  0.3048 -0.4968
13428TIP3   OH240205   3.358   4.929   7.005 -0.2929 -0.3747 -0.2079
13428TIP3    H140206   3.285   4.990   6.992 -0.8989 -0.9384  0.5358
13428TIP3    H240207   3.430   4.967   6.953 -1.6849 -0.8596 -2.5587
13429TIP3   OH240208   3.961   6.048   6.726 -0.1380  0.0499 -0.3100
13429TIP3    H140209   3.882   6.035   6.674  0.4033  0.0146 -1.1460
13429TIP3    H240210   3.994   5.959   6.741  0.5773  0.1318 -1.3051
13430TIP3   OH240211   4.507   6.014   5.025  0.8187 -0.2894  0.6753
13430TIP3    H140212   4.427   6.063   5.004 -0.3313 -1.7658  1.4464
13430TIP3    H240213   4.578   6.074   5.004 -0.4766  0.8945 -0.4874
13431TIP3   OH240214   2.898   2.250   3.395  0.6008  0.8057  0.4401
13431TIP3    H140215   2.813   2.257   3.352 -0.5723 -0.5432  2.4662
13431TIP3    H240216   2.961   2.243   3.323 -1.1205  0.4582 -1.0693
13432TIP3   OH240217   6.559   6.183   7.154 -0.4443 -0.2448  0.1214
13432TIP3    H140218   6.562   6.273   7.124 -0.6012  0.6028  2.5100
13432TIP3    H240219   6.617   6.181   7.230 -0.2694 -2.2164 -0.0299
13433TIP3   OH240220   4.727   6.256   7.134 -0.3072  0.2812  0.0049
13433TIP3    H140221   4.781   6.254   7.213  0.2864  0.2268 -0.3936
13433TIP3    H240222   4.769   6.193   7.075  0.7060  2.0622 -1.2469
13434TIP3   OH240223   1.558   0.945   1.249 -0.1644  0.1544  0.5572
13434TIP3    H140224   1.540   0.985   1.333 -1.8034  1.3548 -0.3386
13434TIP3    H240225   1.619   1.006   1.206 -0.7119  0.4385  0.1795
13435TIP3   OH240226   4.083   7.595   4.055  0.0234 -0.3310  0.1244
13435TIP3    H140227   3.987   7.595   4.046  0.0154 -0.9875  0.1354
13435TIP3    H240228   4.102   7.512   4.099  0.7456 -1.0777 -1.5727
13436TIP3   OH240229   1.104   0.969   0.673  0.1370  0.9286  0.1432
13436TIP3    H140230   1.100   0.935   0.583 -0.2838 -2.3524  1.3295
13436TIP3    H240231   1.154   1.051   0.665  2.5041 -0.6590 -2.7165
13437TIP3   OH240232   4.971   5.829   6.462 -0.0954 -0.5558  0.6644
13437TIP3    H140233   4.945   5.755   6.407 -1.0050 -2.0131  2.9967
13437TIP3    H240234   5.060   5.807   6.490  0.7648  0.6787 -0.9813
13438TIP3   OH240235   5.282   6.824   6.719 -0.2296 -0.1801  0.1886
13438TIP3    H140236   5.196   6.856   6.745  0.5301  0.7863  1.5682
13438TIP3    H240237   5.332   6.902   6.698  0.7978 -0.6171  0.9495
13439TIP3   OH240238   4.285   6.719   4.379 -0.3236  0.0764 -0.1338
13439TIP3    H140239   4.231   6.678   4.447 -1.6113 -1.3769 -1.9702
13439TIP3    H240240   4.237   6.797   4.353 -0.1056  0.3343  0.2329
13440TIP3   OH240241   2.635   5.208   3.943  0.5918  0.0295  0.1691
13440TIP3    H140242   2.686   5.140   3.900  1.1777 -0.7787  2.0758
13440TIP3    H240243   2.552   5.166   3.964 -0.4857  1.0159 -1.9315
13441TIP3   OH240244   4.282   7.920   3.447  0.8458  0.4373 -0.3744
13441TIP3    H140245   4.273   7.830   3.478  1.3398  0.3139 -0.5871
13441TIP3    H240246   4.236   7.921   3.363  1.3637  0.2273 -0.6634
13442TIP3   OH240247   3.093   5.611   3.955  0.2768  0.1954  0.0997
13442TIP3    H140248   3.027   5.677   3.933  1.0800  1.1337  0.5257
13442TIP3    H240249   3.168   5.632   3.899  0.4751 -0.4532  0.1196
13443TIP3   OH240250   4.424   7.561   4.065  0.0694  0.3231  0.3295
13443TIP3    H140251   4.385   7.485   4.021  2.0993 -0.5951  0.0292
13443TIP3    H240252   4.484   7.598   4.000 -0.9600  2.2400  0.4579
13444TIP3   OH240253   3.420   5.387   4.078  0.0121 -1.0616 -0.4467
13444TIP3    H140254   3.500   5.343   4.106  0.3368 -0.7875 -0.9389
13444TIP3    H240255   3.350   5.326   4.101  0.1395 -0.2559  2.2449
13445TIP3   OH240256   4.538   4.941   3.274  0.0597 -0.0009  0.0370
13445TIP3    H140257   4.624   4.927   3.315  1.0388 -0.4921 -2.1251
13445TIP3    H240258   4.478   4.950   3.348  2.0193  0.6976  1.5931
13446TIP3   OH240259   6.673   6.986   5.121 -0.6889  0.8510  0.0758
13446TIP3    H140260   6.741   6.933   5.080 -0.3174  0.6036  1.0057
13446TIP3    H240261   6.686   7.074   5.085 -0.5275  0.5894 -0.5169
13447TIP3   OH240262   4.785   7.253   4.546 -0.3075 -0.1985  0.7399
13447TIP3    H140263   4.867   7.213   4.575 -1.3526 -3.3043 -0.3687
13447TIP3    H240264   4.811   7.313   4.477  1.0277 -1.4368  0.1329
13448TIP3   OH240265   5.779   8.351   5.395  0.5281 -0.0588 -0.0936
13448TIP3    H140266   5.726   8.286   5.443  0.0272 -0.5801 -1.3367
13448TIP3    H240267   5.851   8.300   5.358  1.7573  0.5977  1.3319
13449TIP3   OH240268   3.439   5.161   2.823  0.0174 -0.0656  0.1438
13449TIP3    H140269   3.417   5.224   2.754 -0.0585 -1.2525 -0.9333
13449TIP3    H240270   3.525   5.127   2.797  1.0162  1.0982  1.8209
13450TIP3   OH240271   2.411   6.009   2.868 -0.0032 -0.0250  0.2034
13450TIP3    H140272   2.329   6.029   2.912  0.2150  2.2890 -0.3714
13450TIP3    H240273   2.389   6.011   2.775  0.4823 -0.5071  0.0714
13451TIP3   OH240274   4.947   7.020   6.352 -0.0307 -0.2003  0.4596
13451TIP3    H140275   4.979   6.939   6.311  0.0755  0.3675 -0.6005
13451TIP3    H240276   4.868   7.042   6.303 -0.2382  0.1692  0.9558
13452TIP3   OH240277   2.961   4.395   6.672  0.7831  0.2475 -0.5585
13452TIP3    H140278   2.946   4.479   6.716 -0.2780 -0.8654  1.3046
13452TIP3    H240279   2.911   4.401   6.591  1.8327  1.9173 -1.1070
13453TIP3   OH240280   2.827   5.399   6.653 -0.0570 -0.0792 -0.1823
13453TIP3    H140281   2.752   5.400   6.714  0.4685  3.0573  0.5040
13453TIP3    H240282   2.787   5.401   6.566 -0.8278  4.0484  0.2004
13454TIP3   OH240283   4.380   6.260   5.205 -0.3775  0.0084  0.0721
13454TIP3    H140284   4.368   6.165   5.207 -2.0763  0.1875 -0.6841
13454TIP3    H240285   4.429   6.277   5.125  0.9236 -0.3224  0.7890
13455TIP3   OH240286   4.627   4.326   3.780  0.4278  0.1787 -0.1196
13455TIP3    H140287   4.635   4.231   3.777  1.1754  0.2559 -0.7051
13455TIP3    H240288   4.641   4.354   3.690  0.4687  0.8663  0.0964
13456TIP3   OH240289   5.248   5.736   5.254 -0.3251 -0.0777  0.3048
13456TIP3    H140290   5.197   5.733   5.335 -3.3350  1.2262 -1.4717
13456TIP3    H240291   5.274   5.828   5.247 -0.4475 -0.0983 -0.4175
13457TIP3   OH240292   5.022   6.087   4.681  0.1197 -0.4831 -0.3871
13457TIP3    H140293   4.927   6.077   4.687  0.0145  0.7890  0.2994
13457TIP3    H240294   5.056   5.997   4.677 -1.0728 -0.9504 -0.1589
13458TIP3   OH240295   5.049   3.799   5.824 -0.1025  0.2463  0.7172
13458TIP3    H140296   5.097   3.733   5.874  0.6948  0.6395  0.4898
13458TIP3    H240297   5.113   3.831   5.761 -0.7208  0.6773  0.3082
13459TIP3   OH240298   2.930   1.325   1.926 -0.1053 -0.3941  0.7380
13459TIP3    H140299   2.848   1.289   1.892 -0.0508 -1.7296  1.9672
13459TIP3    H240300   2.922   1.419   1.912 -1.4477 -0.6018 -0.0171
13460TIP3   OH240301   4.660   5.430   5.869 -0.3464 -0.1597  0.4627
13460TIP3    H140302   4.582   5.417   5.816 -0.5643  1.8691  0.2658
13460TIP3    H240303   4.717   5.485   5.814 -0.3708  1.5520  2.1139
13461TIP3   OH240304   1.950   6.057   3.101  0.5582  0.1118 -0.4554
13461TIP3    H140305   1.908   6.139   3.127  0.8515 -0.3458  1.5134
13461TIP3    H240306   1.903   5.990   3.150  2.6675 -0.5404  0.7356
13462TIP3   OH240307   1.924   4.761   4.975 -0.1874  0.5322 -0.2909
13462TIP3    H140308   2.005   4.767   5.026 -0.0068  2.0218 -0.7324
13462TIP3    H240309   1.946   4.796   4.889 -0.7937 -0.9139 -1.0546
13463TIP3   OH240310   1.838   5.141   7.242  0.2031 -0.3275 -0.4793
13463TIP3    H140311   1.819   5.059   7.197  2.1495 -1.7242  1.1643
13463TIP3    H240312   1.913   5.121   7.298  0.9055  2.6508 -0.2568
13464TIP3   OH240313   3.666   6.753   4.698 -0.0103 -0.4788  0.4157
13464TIP3    H140314   3.633   6.843   4.698 -0.2671 -0.5733  0.3369
13464TIP3    H240315   3.723   6.748   4.621  2.0308  0.3576  1.8423
13465TIP3   OH240316   7.385   5.194   2.850  0.2766  0.1168  0.0182
13465TIP3    H140317   7.359   5.152   2.768 -0.7019  0.4846  0.1292
13465TIP3    H240318   7.316   5.258   2.867  0.8947  0.6158  0.7076
13466TIP3   OH240319   3.321   5.491   6.891 -0.3915  0.7190  0.5332
13466TIP3    H140320   3.355   5.420   6.947  0.8977 -0.2562 -1.4393
13466TIP3    H240321   3.327   5.456   6.802 -1.6629  2.5556 -0.2931
13467TIP3   OH240322   6.952   7.258   6.924  0.6884  0.6363 -0.1193
13467TIP3    H140323   6.902   7.182   6.893 -0.2052  0.9651  0.4863
13467TIP3    H240324   7.038   7.249   6.882  0.2307 -0.1142 -0.9234
13468TIP3   OH240325   4.230   5.539   7.222  0.1639 -0.1353  0.2248
13468TIP3    H140326   4.317   5.552   7.183  0.7747 -1.4586  1.1233
13468TIP3    H240327   4.229   5.596   7.298 -0.4359  1.2353 -0.7846
13469TIP3   OH240328   1.955   2.275   1.748 -0.1288  0.5241 -0.5922
13469TIP3    H140329   1.944   2.370   1.753  0.1284  0.5946 -1.2659
13469TIP3    H240330   1.926   2.252   1.659 -1.5428 -0.2150  0.0441
13470TIP3   OH240331   8.089   0.399   3.796  0.7732  0.0279  0.1951
13470TIP3    H140332   8.163   0.363   3.747 -0.1041 -0.2961 -0.9095
13470TIP3    H240333   8.039   0.448   3.731  1.3026  2.2788  1.4355
13471TIP3   OH240334   0.610   1.667   0.371  0.4689  0.0793 -0.3097
13471TIP3    H140335   0.674   1.603   0.400  0.2398 -0.9549 -2.0165
13471TIP3    H240336   0.659   1.749   0.365  1.6699 -0.7299 -1.7184
13472TIP3   OH240337   4.452   7.045   6.348  0.1926  0.0901 -0.1084
13472TIP3    H140338   4.446   7.140   6.359 -0.7424  0.0579 -0.3086
13472TIP3    H240339   4.391   7.025   6.277  2.1839 -0.3627 -1.7470
13473TIP3   OH240340   2.494   5.862   3.257 -1.1262 -0.1914 -0.6752
13473TIP3    H140341   2.458   5.927   3.196 -0.8561 -0.3011 -0.9527
13473TIP3    H240342   2.576   5.835   3.217 -1.2152 -0.6723 -0.5357
13474TIP3   OH240343   3.254   7.450   4.130 -0.6893  0.4641  0.0228
13474TIP3    H140344   3.200   7.448   4.209 -0.3057 -0.9928  0.2587
13474TIP3    H240345   3.252   7.361   4.097  2.1583  0.1844  0.4520
13475TIP3   OH240346   0.990   2.265   2.207  0.7090  0.7326  0.1876
13475TIP3    H140347   1.007   2.181   2.250 -2.4281  0.4795  1.0329
13475TIP3    H240348   0.961   2.242   2.119  1.1248  0.9960 -0.0198
13476TIP3   OH240349   7.858   0.022   6.658 -0.7823  0.2644 -0.3538
13476TIP3    H140350   7.774  -0.023   6.643 -0.6380  0.2707 -1.1608
13476TIP3    H240351   7.833   0.109   6.688 -1.0600  0.7549 -2.0129
13477TIP3   OH240352   3.064   1.936   0.774  0.1732 -0.2635 -0.1056
13477TIP3    H140353   2.971   1.954   0.758  0.0442  0.2486  1.1579
13477TIP3    H240354   3.098   1.909   0.689 -1.1444 -0.4999 -0.5745
13478TIP3   OH240355   3.807   7.787   4.437  0.2655  0.3275 -0.3281
13478TIP3    H140356   3.878   7.765   4.497 -0.1137  0.8123  0.3082
13478TIP3    H240357   3.765   7.703   4.418 -2.5378  0.6482  3.7793
13479TIP3   OH240358   7.027   0.695   6.538  0.0706  0.1632 -0.4959
13479TIP3    H140359   7.061   0.779   6.507 -0.1679 -0.1497 -1.6221
13479TIP3    H240360   7.075   0.678   6.619  1.2556  0.6090 -1.0961
13480TIP3   OH240361   2.842   4.184   5.919  0.0666 -0.0483  0.3422
13480TIP3    H140362   2.859   4.265   5.872 -0.9058  0.3993  0.7387
13480TIP3    H240363   2.839   4.117   5.851 -0.4212  0.4569 -0.1416
13481TIP3   OH240364   1.910   6.555   6.445 -0.2491  0.3085 -0.4614
13481TIP3    H140365   1.886   6.627   6.503 -0.2335 -0.9845  1.1953
13481TIP3    H240366   2.002   6.537   6.466 -0.3663 -0.4331 -0.5644
13482TIP3   OH240367   4.094   6.132   7.274 -0.1507  0.1129 -0.0029
13482TIP3    H140368   4.111   6.206   7.215 -2.3962  1.2657  0.7352
13482TIP3    H240369   4.134   6.057   7.230  0.2874  1.3685 -1.8232
13483TIP3   OH240370   3.648   5.695   4.690  0.0954  0.0846 -0.2266
13483TIP3    H140371   3.586   5.684   4.618 -0.9721 -0.8977  0.8209
13483TIP3    H240372   3.600   5.745   4.756  0.4167 -0.6329  0.5673
13484TIP3   OH240373   5.059   7.284   4.624 -0.1346 -0.0241 -0.2310
13484TIP3    H140374   5.068   7.348   4.694  2.2614 -0.0357 -0.4675
13484TIP3    H240375   5.100   7.327   4.548 -2.2663 -0.1914 -1.5303
13485TIP3   OH240376   4.180   7.529   6.976 -0.0826 -0.2894 -0.0725
13485TIP3    H140377   4.194   7.442   7.014 -1.2429 -0.4170  0.0857
13485TIP3    H240378   4.245   7.535   6.906  0.5930 -0.9357  0.4941
13486TIP3   OH240379   2.285   3.617   4.259  0.5633  0.0901 -0.2712
13486TIP3    H140380   2.214   3.571   4.304  1.5863 -0.6822  0.5548
13486TIP3    H240381   2.331   3.664   4.328  1.2901  0.0189 -0.7013
13487TIP3   OH240382   3.107   4.475   5.952 -0.4638  0.4071 -0.1270
13487TIP3    H140383   3.106   4.501   6.045 -0.6995 -1.0492  0.2961
13487TIP3    H240384   3.031   4.417   5.943 -0.2475  0.2774 -1.1660
13488TIP3   OH240385   4.482   5.379   5.231  0.2091  0.0908  0.0536
13488TIP3    H140386   4.494   5.292   5.192  0.8391  0.1372  0.1476
13488TIP3    H240387   4.532   5.438   5.176  0.5588  0.2569  0.5426
13489TIP3   OH240388   6.636   6.758   4.680  0.1110  0.0995 -0.2015
13489TIP3    H140389   6.650   6.680   4.735  0.1860  0.2442 -0.0160
13489TIP3    H240390   6.677   6.735   4.596  2.9044  1.1188  0.8192
13490TIP3   OH240391   3.407   6.466   4.861 -0.1202 -0.2115 -0.2025
13490TIP3    H140392   3.378   6.479   4.951 -0.4338 -2.6523  0.0958
13490TIP3    H240393   3.501   6.483   4.863 -0.0601 -0.6304  0.6846
13491TIP3   OH240394   3.957   4.950   7.184  0.6306 -0.0280  0.4871
13491TIP3    H140395   3.912   5.014   7.240  0.6051 -0.9165  1.4955
13491TIP3    H240396   3.935   4.865   7.223 -0.4083 -0.7579 -1.6130
13492TIP3   OH240397   3.275   6.077   5.641  0.9887 -0.4720 -0.5094
13492TIP3    H140398   3.235   5.991   5.628 -0.2603  0.3255 -2.1328
13492TIP3    H240399   3.349   6.060   5.700 -0.1019 -2.4061  0.3481
13493TIP3   OH240400   4.962   4.625   2.667 -0.3694 -0.0936  0.4313
13493TIP3    H140401   5.044   4.669   2.689 -0.2438 -0.6143  1.0130
13493TIP3    H240402   4.990   4.540   2.632 -0.6187  0.1944 -0.4848
13494TIP3   OH240403   3.901   3.573   7.137 -0.2800  0.4674 -0.1328
13494TIP3    H140404   3.950   3.655   7.130  0.0434  0.2013 -1.1127
13494TIP3    H240405   3.967   3.506   7.152 -0.5495  0.3882  0.7095
13495TIP3   OH240406   2.277   1.957   1.391  0.3858  0.2481  0.1525
13495TIP3    H140407   2.358   2.001   1.419  0.5890 -0.5729  0.8694
13495TIP3    H240408   2.301   1.864   1.387  0.4263  0.3663 -3.0026
13496TIP3   OH240409   4.208   6.052   3.745 -0.1508 -0.2072  0.5086
13496TIP3    H140410   4.174   6.017   3.662 -1.8932  1.9530  0.2875
13496TIP3    H240411   4.153   6.011   3.812 -0.2118 -0.1986  0.4634
13497TIP3   OH240412   6.219   4.534   5.416  0.6359  0.1112 -0.3338
13497TIP3    H140413   6.248   4.550   5.505 -1.3028  2.0524 -0.0078
13497TIP3    H240414   6.125   4.551   5.418  0.2852 -1.3497 -2.3961
13498TIP3   OH240415   4.646   5.552   6.482 -0.0086 -0.1368 -0.1457
13498TIP3    H140416   4.715   5.578   6.421  0.9330 -1.9303  0.1001
13498TIP3    H240417   4.676   5.583   6.567  0.3447 -0.6331 -0.0880
13499TIP3   OH240418   5.183   6.090   5.681  0.0074 -0.4568  0.9035
13499TIP3    H140419   5.167   6.001   5.713 -0.0856 -0.6019  0.4474
13499TIP3    H240420   5.272   6.110   5.711  0.6701 -1.3349 -0.4558
13500TIP3   OH240421   7.561   6.500   7.126  0.1596  0.1577 -0.1875
13500TIP3    H140422   7.509   6.436   7.174  0.8904 -1.0318 -0.9604
13500TIP3    H240423   7.496   6.560   7.088 -0.3906  1.9357  3.3401
13501TIP3   OH240424   5.458   6.202   5.231 -0.0002 -0.0580 -0.0131
13501TIP3    H140425   5.437   6.161   5.315  1.8862 -1.6393 -0.2588
13501TIP3    H240426   5.451   6.130   5.167  1.7721  0.3336 -0.6926
13502TIP3   OH240427   7.426   7.677   4.308  0.0960 -0.2797 -0.1000
13502TIP3    H140428   7.432   7.758   4.258  1.8828  0.2450  0.9101
13502TIP3    H240429   7.432   7.705   4.400 -1.6392 -1.3457  0.3618
13503TIP3   OH240430   5.633   7.115   4.835 -0.1104  0.2415 -0.2662
13503TIP3    H140431   5.561   7.151   4.785  1.0676  1.5232 -1.0664
13503TIP3    H240432   5.591   7.062   4.903 -1.8390  2.6833  0.6062
13504TIP3   OH240433   7.132   7.678   4.693  0.1345  0.2678  0.1567
13504TIP3    H140434   7.137   7.593   4.650  0.7988  0.1271  0.5056
13504TIP3    H240435   7.099   7.658   4.781 -0.1536  0.4273  0.0854
13505TIP3   OH240436   5.194   7.763   3.712  0.7144 -0.0576 -0.1476
13505TIP3    H140437   5.228   7.833   3.655  0.2595 -0.1236 -0.5050
13505TIP3    H240438   5.148   7.705   3.652  0.2753 -0.1554  0.2887
13506TIP3   OH240439   4.289   5.658   5.309  0.1923 -0.2240  0.0620
13506TIP3    H140440   4.355   5.661   5.240 -0.4540 -1.7588 -0.6634
13506TIP3    H240441   4.230   5.731   5.289  0.3841 -0.2466 -0.6295
13507TIP3   OH240442   2.441   0.664   4.935  0.3687 -0.0911 -0.2661
13507TIP3    H140443   2.385   0.630   4.865  1.8449  0.0262 -1.5352
13507TIP3    H240444   2.420   0.610   5.011  0.3077 -1.6784 -1.3809
13508TIP3   OH240445   6.765   6.927   6.185 -0.3089  0.2719  0.9888
13508TIP3    H140446   6.754   6.997   6.249 -1.4328  1.0387 -0.0278
13508TIP3    H240447   6.760   6.971   6.100  0.3315 -0.8496  0.3588
13509TIP3   OH240448   4.604   7.582   4.915  0.0906  0.2886  0.0599
13509TIP3    H140449   4.668   7.521   4.878 -1.0630 -0.6517 -0.4114
13509TIP3    H240450   4.647   7.616   4.994  0.3674 -1.9078  0.9123
13510TIP3   OH240451   7.104   7.953   4.317 -0.2277  0.4904  0.3610
13510TIP3    H140452   7.011   7.971   4.305 -0.0232  1.1296 -0.3090
13510TIP3    H240453   7.132   7.913   4.235  0.2610  1.0146  0.2718
13511TIP3   OH240454   3.667   6.130   5.523  0.1853  0.3332  0.1336
13511TIP3    H140455   3.598   6.171   5.576  0.8299  0.9005  0.5397
13511TIP3    H240456   3.622   6.101   5.443 -0.4764  0.8926  0.3003
13512TIP3   OH240457   4.814   7.656   4.629  0.2984  0.5065  0.6862
13512TIP3    H140458   4.814   7.568   4.668  0.2062  1.4776  2.9806
13512TIP3    H240459   4.801   7.715   4.704  1.0611  2.5174 -0.7212
13513TIP3   OH240460   7.820   8.380   5.515  0.3401  0.1883 -0.4155
13513TIP3    H140461   7.763   8.415   5.447 -0.5158  0.3806  0.3838
13513TIP3    H240462   7.907   8.375   5.475  0.2681  2.2203 -0.8719
13514TIP3   OH240463   4.243   5.286   6.083  0.3297 -0.6985  0.5942
13514TIP3    H140464   4.168   5.304   6.140  0.9808 -1.3089  1.6561
13514TIP3    H240465   4.207   5.294   5.994 -0.6896  0.2509  1.0799
13515TIP3   OH240466   2.269  -0.007   5.143  0.2708 -0.3524  0.1822
13515TIP3    H140467   2.245   0.085   5.154  2.5289  0.3130 -0.2759
13515TIP3    H240468   2.286  -0.038   5.232  1.0404  0.1106  0.1998
13516TIP3   OH240469   7.152   6.538   6.892  0.1785 -0.1273 -0.5749
13516TIP3    H140470   7.150   6.489   6.811 -1.4423 -1.2838  0.1413
13516TIP3    H240471   7.245   6.544   6.915  0.6398  0.2244 -2.4998
13517TIP3   OH240472   5.828   6.897   0.060 -0.1898 -0.4559 -0.7163
13517TIP3    H140473   5.748   6.891   0.113 -0.7262 -0.8575 -1.5716
13517TIP3    H240474   5.832   6.989   0.034 -0.0459 -0.3053 -0.1843
13518TIP3   OH240475   4.551   7.646   3.835 -0.5021  0.3524 -0.3025
13518TIP3    H140476   4.510   7.666   3.750 -0.9335 -0.1846 -0.2203
13518TIP3    H240477   4.605   7.569   3.818 -0.2667  0.4907 -0.1837
13519TIP3   OH240478   5.358   6.476   2.571  0.0175  0.2186 -0.0628
13519TIP3    H140479   5.441   6.431   2.556  0.7195  1.5470 -0.2196
13519TIP3    H240480   5.323   6.491   2.483 -1.0637 -1.5324  0.0349
13520TIP3   OH240481   4.771   3.925   3.527  1.0342  0.0732 -0.7405
13520TIP3    H140482   4.812   3.946   3.611  0.9209  0.2071 -0.7185
13520TIP3    H240483   4.803   3.837   3.506  0.1410 -0.4394  0.0073
13521TIP3   OH240484   6.916   7.899   2.565  0.1332  0.3185 -0.2963
13521TIP3    H140485   6.998   7.948   2.574 -0.1739  0.6893  0.6147
13521TIP3    H240486   6.936   7.812   2.600  0.5531 -0.0641 -1.4896
13522TIP3   OH240487   6.293   7.885   6.715 -1.0945 -0.0952 -0.2820
13522TIP3    H140488   6.299   7.927   6.629 -1.4324  0.7256  0.0879
13522TIP3    H240489   6.324   7.796   6.700 -1.1588  0.0342 -1.2601
13523TIP3   OH240490   7.390   6.390   5.551 -0.2926  0.0705 -0.0132
13523TIP3    H140491   7.322   6.456   5.548  1.1352  1.6153  0.6329
13523TIP3    H240492   7.364   6.331   5.622 -0.5254  1.1265  0.7816
13524TIP3   OH240493   5.071   5.662   5.481  0.0427 -0.1995  1.1078
13524TIP3    H140494   5.119   5.586   5.513  2.0163 -0.3937 -2.0441
13524TIP3    H240495   4.983   5.630   5.463  0.6385 -1.5516  0.5552
13525TIP3   OH240496   0.031   7.824   4.602 -0.5690  0.4261 -0.2301
13525TIP3    H140497   0.078   7.905   4.618  0.6514 -0.5201  1.0480
13525TIP3    H240498  -0.029   7.816   4.676 -1.6032  0.8067 -1.0173
13526TIP3   OH240499   5.439   7.372   6.632 -0.2926  0.4797 -0.5256
13526TIP3    H140500   5.433   7.423   6.551 -0.8776 -0.9328 -1.4058
13526TIP3    H240501   5.385   7.419   6.695 -0.0335  1.4618 -1.0293
13527TIP3   OH240502   2.877   5.859   2.037  0.0435 -0.5172  0.1800
13527TIP3    H140503   2.921   5.813   1.965  2.0039  1.3486  0.1549
13527TIP3    H240504   2.868   5.949   2.006 -1.2981 -0.2503  1.3256
13528TIP3   OH240505   6.484   8.094   5.257 -0.3751 -0.1876  0.4282
13528TIP3    H140506   6.561   8.121   5.206  0.3812 -2.0164  0.5422
13528TIP3    H240507   6.424   8.057   5.192 -0.8568  0.5863  0.4317
13529TIP3   OH240508   5.403   7.008   6.053  0.5569  0.2992  0.0595
13529TIP3    H140509   5.422   7.090   6.099  1.9151 -0.1215  0.2875
13529TIP3    H240510   5.490   6.971   6.035 -0.0468 -1.0470 -0.1030
13530TIP3   OH240511   6.088   7.549   4.201  0.2380  0.1667  0.2600
13530TIP3    H140512   6.007   7.576   4.244  0.1935 -0.7395  0.7468
13530TIP3    H240513   6.063   7.532   4.110 -0.0630  0.1499  0.3478
13531TIP3   OH240514   7.297   6.238   5.326  0.4268 -0.5214  0.0685
13531TIP3    H140515   7.340   6.304   5.381 -1.8236  0.9363  0.1571
13531TIP3    H240516   7.290   6.161   5.383  1.6441 -0.3220  0.5027
13532TIP3   OH240517   5.478   7.599   5.359  0.5780 -0.6033 -0.2750
13532TIP3    H140518   5.453   7.656   5.286  0.5155 -0.9512 -0.5255
13532TIP3    H240519   5.565   7.630   5.385  1.5248 -1.8604 -1.8973
13533TIP3   OH240520   5.503   6.905   5.022 -0.3090 -0.1242 -0.2487
13533TIP3    H140521   5.461   6.853   4.954 -1.1453 -1.0584  0.9570
13533TIP3    H240522   5.431   6.929   5.081  0.4467  0.4347  0.4533
13534TIP3   OH240523   3.981   6.028   6.372  0.4379 -0.1516  0.2555
13534TIP3    H140524   3.919   6.041   6.301  0.0262  2.0276  0.9559
13534TIP3    H240525   3.990   5.933   6.380 -0.2095 -0.4208 -2.0709
13535TIP3   OH240526   6.225   7.273   6.453  0.6309  0.0893 -0.6571
13535TIP3    H140527   6.175   7.247   6.376  1.5559 -1.3855 -0.7788
13535TIP3    H240528   6.313   7.239   6.436  0.7021 -0.7174  1.3189
13536TIP3   OH240529   0.886   2.255   0.691 -0.4588 -0.3553  0.7443
13536TIP3    H140530   0.932   2.221   0.613 -2.8036 -0.4956 -0.6102
13536TIP3    H240531   0.892   2.184   0.755 -0.6298 -1.1939 -0.1590
13537TIP3   OH240532   0.238   7.371   4.777 -0.4691  0.1481  0.4778
13537TIP3    H140533   0.191   7.294   4.809 -1.5823  1.0056  0.9566
13537TIP3    H240534   0.300   7.336   4.713  0.5235 -1.3918  2.2149
13538TIP3   OH240535   4.688   7.634   5.485  0.0927  0.1654 -0.5135
13538TIP3    H140536   4.778   7.622   5.455 -0.2288 -0.7839 -1.1464
13538TIP3    H240537   4.680   7.575   5.560 -0.3281 -0.5980 -1.1550
13539TIP3   OH240538   6.286   5.166   6.206 -0.0043  0.3177 -0.4458
13539TIP3    H140539   6.313   5.087   6.252  0.3047 -0.2680 -1.6014
13539TIP3    H240540   6.350   5.232   6.232  2.1764 -0.8728 -2.6058
13540TIP3   OH240541   4.069   6.579   5.345 -0.5383 -0.3723  0.2525
13540TIP3    H140542   4.143   6.608   5.292 -0.5538 -0.2950  0.2733
13540TIP3    H240543   4.098   6.589   5.435 -0.8491  0.3946  0.2743
13541TIP3   OH240544   8.546   7.617   3.757 -1.0674 -0.3379 -0.6001
13541TIP3    H140545   8.524   7.708   3.777 -1.3777 -0.5393 -0.0384
13541TIP3    H240546   8.632   7.604   3.798 -0.4150  0.0863 -1.7820
13542TIP3   OH240547   2.078   6.010   5.246  0.5755  0.0833 -0.0571
13542TIP3    H140548   2.061   5.935   5.189  0.7839 -0.4403  0.5549
13542TIP3    H240549   1.999   6.064   5.238 -1.2965 -2.1094  2.4295
13543TIP3   OH240550   0.500   8.171   3.041 -0.4664  0.2406 -0.0572
13543TIP3    H140551   0.455   8.225   2.976 -0.2456 -1.0850 -1.3444
13543TIP3    H240552   0.593   8.185   3.024 -0.4038 -1.0714 -0.8712
13544TIP3   OH240553   0.861   0.875   1.664  0.6379  0.3776 -0.4326
13544TIP3    H140554   0.932   0.814   1.681 -1.0640 -1.6133 -0.2222
13544TIP3    H240555   0.812   0.879   1.747 -0.6784  0.0968 -1.1717
13545TIP3   OH240556   4.816   6.720   5.091  0.1553  0.3033 -0.3225
13545TIP3    H140557   4.820   6.812   5.117  0.2888  0.4643 -0.9114
13545TIP3    H240558   4.887   6.678   5.139 -0.9550  0.1855  1.2480
13546TIP3   OH240559   2.573   1.078   5.355  0.4347  0.3557 -0.3391
13546TIP3    H140560   2.664   1.047   5.355  0.4838  0.4202  2.3371
13546TIP3    H240561   2.525   1.009   5.401 -0.5499  1.2257 -0.0695
13547TIP3   OH240562   0.368   7.616   4.108  0.5756  0.2682  0.6970
13547TIP3    H140563   0.417   7.688   4.146 -1.1103  1.9255 -0.2117
13547TIP3    H240564   0.373   7.630   4.014 -1.2374  0.2238  0.5728
13548TIP3   OH240565   5.632   7.014   3.880 -0.1772  0.1908 -0.2432
13548TIP3    H140566   5.696   7.081   3.905  0.7806 -0.3974 -1.0988
13548TIP3    H240567   5.614   7.033   3.788 -0.7879 -0.0181 -0.1648
13549TIP3   OH240568   0.969   1.060   4.733 -0.1155 -0.1359  0.8835
13549TIP3    H140569   1.046   1.104   4.698  0.3374 -1.0916  0.6672
13549TIP3    H240570   0.971   0.972   4.694 -0.4195 -0.7125  2.1331
13550TIP3   OH240571   6.431   8.062   4.483  0.5034  0.1912 -0.0429
13550TIP3    H140572   6.419   8.121   4.409 -0.7321  1.4632  1.1392
13550TIP3    H240573   6.383   7.983   4.459  0.8920  0.2423 -0.9941
13551TIP3   OH240574   7.894   1.054   7.089  0.0941  0.0636  0.4625
13551TIP3    H140575   7.845   1.019   7.164 -0.5959  1.8389  0.8762
13551TIP3    H240576   7.844   1.026   7.013 -0.4119  0.0860  0.7818
13552TIP3   OH240577   7.039   7.455   6.067 -0.0435  0.0832 -0.2704
13552TIP3    H140578   7.000   7.386   6.012 -2.2446 -0.0406  1.3567
13552TIP3    H240579   7.015   7.536   6.023  0.9767 -0.1145 -1.2099
13553TIP3   OH240580   4.969   7.578   5.795  0.4379 -0.3636 -0.0388
13553TIP3    H140581   4.929   7.653   5.838  1.5908  0.7479 -0.8815
13553TIP3    H240582   5.058   7.575   5.828  0.3376 -1.5097  0.1601
13554TIP3   OH240583   6.357   6.108   4.191  0.2436  0.2379  0.5936
13554TIP3    H140584   6.431   6.053   4.217  0.9728  0.2170 -1.4386
13554TIP3    H240585   6.280   6.056   4.214  0.8987 -0.6828  0.7678
13555TIP3   OH240586   6.541   5.997   4.411  0.0351 -0.4352  0.1241
13555TIP3    H140587   6.483   5.923   4.394 -0.8055  0.0064  1.0534
13555TIP3    H240588   6.497   6.048   4.479  1.1435  0.3150  0.3013
13556TIP3   OH240589   7.977   0.132   5.874  0.6322  0.0661 -0.3427
13556TIP3    H140590   8.005   0.041   5.883  0.3884 -0.1085 -1.3516
13556TIP3    H240591   7.892   0.136   5.918  1.1985  0.0972  0.7797
13557TIP3   OH240592   8.177   7.710   4.065 -0.2601 -0.5843 -0.3105
13557TIP3    H140593   8.200   7.692   4.156 -0.1584  0.5647 -0.1138
13557TIP3    H240594   8.231   7.785   4.041 -0.1629 -0.9914 -1.3767
13558TIP3   OH240595   3.867   7.260   3.675 -0.0629 -0.6168 -0.2011
13558TIP3    H140596   3.797   7.277   3.611 -0.1029  1.1643  0.2857
13558TIP3    H240597   3.872   7.165   3.680 -0.0124 -0.8008 -2.9130
13559TIP3   OH240598   6.719   6.457   5.579  0.1072 -0.2770  0.0488
13559TIP3    H140599   6.707   6.515   5.655 -2.4800  0.2010 -0.6674
13559TIP3    H240600   6.794   6.493   5.532  0.5423  0.5554  1.3598
13560TIP3   OH240601   6.111   7.408   4.616 -0.2089 -0.1937  0.2282
13560TIP3    H140602   6.061   7.457   4.551 -0.9383 -0.1974  0.7736
13560TIP3    H240603   6.117   7.468   4.691  0.6417 -0.1805  0.1532
13561TIP3   OH240604   5.183   7.645   4.031  0.7135  0.1896 -0.2986
13561TIP3    H140605   5.133   7.588   3.972  0.1438 -0.1857  0.5308
13561TIP3    H240606   5.269   7.653   3.990  1.3859 -2.7342  0.4916
13562TIP3   OH240607   7.853   6.013   6.314  0.0898  0.0004 -0.0980
13562TIP3    H140608   7.784   5.999   6.250 -0.2601 -1.0451  0.4961
13562TIP3    H240609   7.821   6.084   6.369  0.4728  1.0251 -1.1778
13563TIP3   OH240610   7.866   6.010   5.073 -0.2896 -0.0750 -0.0220
13563TIP3    H140611   7.869   5.929   5.022  0.1134  1.8389 -3.1683
13563TIP3    H240612   7.930   5.997   5.143 -0.4867 -2.5856 -0.2784
13564TIP3   OH240613   5.381   5.113   4.676  0.2279 -0.0758  0.1127
13564TIP3    H140614   5.406   5.061   4.753 -0.2347  2.6802  2.2305
13564TIP3    H240615   5.459   5.165   4.656  0.0629 -0.1486 -0.7221
13565TIP3   OH240616   7.918   7.609   3.977 -0.0375 -0.2365  0.1719
13565TIP3    H140617   7.966   7.578   3.900 -1.2331  0.5558 -0.8965
13565TIP3    H240618   7.834   7.564   3.974 -0.3689  0.3380  0.6165
13566TIP3   OH240619   4.460   5.585   3.347 -0.0107 -0.0931  0.2164
13566TIP3    H140620   4.392   5.517   3.347 -0.1896  0.0846  0.5364
13566TIP3    H240621   4.418   5.661   3.388  0.0640  0.3408 -0.5071
13567TIP3   OH240622   0.849   2.312   0.384  0.1805 -0.0382  0.4610
13567TIP3    H140623   0.922   2.367   0.414  0.8636  0.7822 -2.5300
13567TIP3    H240624   0.772   2.368   0.391  0.3620  0.1928  0.6064
13568TIP3   OH240625   4.085   7.257   5.756 -0.5531 -0.1154  0.0359
13568TIP3    H140626   3.995   7.227   5.767 -0.5642  0.1382  0.6318
13568TIP3    H240627   4.125   7.191   5.699 -1.3318  0.2021 -0.8891
13569TIP3   OH240628   2.956   6.224   4.584 -0.0858 -0.0595  0.0561
13569TIP3    H140629   3.037   6.276   4.578 -0.3576  0.5130  1.2196
13569TIP3    H240630   2.899   6.275   4.642  0.0639 -2.1855  2.1378
13570TIP3   OH240631   6.975   6.129   5.199  0.5208 -0.5254  0.5073
13570TIP3    H140632   7.022   6.212   5.196 -0.7461  0.1843  0.2662
13570TIP3    H240633   7.022   6.073   5.137  0.9011  0.2559  0.0800
13571TIP3   OH240634   8.237   8.013   3.137 -0.6300  0.1929  0.5846
13571TIP3    H140635   8.330   8.029   3.121 -0.7585  3.4522  2.6459
13571TIP3    H240636   8.229   8.008   3.232 -2.6217  0.2772  0.4529
13572TIP3   OH240637   1.242   6.903   5.752 -0.1496  0.3209 -0.6121
13572TIP3    H140638   1.278   6.869   5.834 -1.3076  0.2700 -0.1130
13572TIP3    H240639   1.172   6.842   5.729 -0.3582  0.7818 -1.2110
13573TIP3   OH240640   5.064   7.637   5.014 -0.0006 -0.2687 -0.0920
13573TIP3    H140641   5.030   7.667   5.098  2.2482  0.8499  0.4514
13573TIP3    H240642   5.056   7.712   4.956 -0.1463 -0.5618 -0.4509
13574TIP3   OH240643   4.096   7.740   5.540  0.4029 -0.0199  0.4476
13574TIP3    H140644   4.081   7.729   5.446 -2.1787  0.9933  0.6893
13574TIP3    H240645   4.089   7.651   5.576  0.0495 -0.2412 -0.1670
13575TIP3   OH240646   4.895   6.910   4.130  0.1264 -0.5111  0.0241
13575TIP3    H140647   4.870   7.002   4.136  3.0425  0.5931 -3.0499
13575TIP3    H240648   4.979   6.905   4.177  1.7276 -0.7690 -2.7264
13576TIP3   OH240649   5.054   6.842   4.868 -0.1188 -0.1454 -0.1234
13576TIP3    H140650   5.092   6.866   4.953  0.1153 -0.5163 -0.1200
13576TIP3    H240651   5.130   6.824   4.813 -0.2948 -1.2813 -0.0074
13577TIP3   OH240652   6.430   6.378   5.807 -0.0452  0.2178  0.3788
13577TIP3    H140653   6.346   6.407   5.771  0.0199  0.3519  0.3365
13577TIP3    H240654   6.493   6.444   5.777  0.5937 -1.4670 -2.1210
13578TIP3   OH240655   5.007   1.469   0.632  0.1464 -0.8899 -0.1971
13578TIP3    H140656   4.993   1.383   0.592 -0.1079 -0.5871 -0.7719
13578TIP3    H240657   5.099   1.489   0.615 -0.0682 -0.5682 -1.0379
13579TIP3   OH240658   6.009   7.138   5.497 -0.2784 -0.2285  0.5817
13579TIP3    H140659   5.981   7.134   5.588 -1.9779  0.6830  0.1243
13579TIP3    H240660   5.928   7.133   5.446  0.3987  1.9005 -0.8128
13580TIP3   OH240661   5.931   6.883   4.949 -0.2129 -0.2178 -0.1244
13580TIP3    H140662   5.943   6.954   4.887  1.7129  1.4232  2.0441
13580TIP3    H240663   6.018   6.842   4.956 -0.3869 -0.3423  1.5035
13581TIP3   OH240664   6.215   7.778   4.043  0.5768 -0.1555  0.0909
13581TIP3    H140665   6.221   7.686   4.067  0.1658 -0.3356 -0.4588
13581TIP3    H240666   6.255   7.783   3.956 -0.9019 -0.1324 -0.6042
13582TIP3   OH240667   6.296   6.920   4.139  0.0488 -0.3402  0.2827
13582TIP3    H140668   6.234   6.958   4.202  0.3962  1.6046 -0.5378
13582TIP3    H240669   6.244   6.852   4.094 -1.1782  0.5127  0.3722
13583TIP3   OH240670   7.127   7.237   4.203  0.5379  0.3539 -0.6549
13583TIP3    H140671   7.059   7.170   4.214  1.5298 -0.5155  0.4067
13583TIP3    H240672   7.151   7.261   4.293  1.7358  0.5199 -1.0065
13584TIP3   OH240673   4.130   4.432   6.916 -0.3063 -0.2423 -0.2019
13584TIP3    H140674   4.123   4.519   6.956 -1.0228 -1.3095  2.0650
13584TIP3    H240675   4.042   4.396   6.921  0.0562 -1.2290 -0.8745
13585TIP3   OH240676   4.766   2.428   0.039 -0.0097  0.0641 -0.4292
13585TIP3    H140677   4.766   2.358   0.105 -0.0769  0.1341 -0.3552
13585TIP3    H240678   4.724   2.388  -0.037  1.0570 -0.3640 -0.8024
13586TIP3   OH240679   6.842   7.700   4.520  0.4274  0.6747  0.2210
13586TIP3    H140680   6.929   7.703   4.560  0.7965  2.2015 -0.6542
13586TIP3    H240681   6.794   7.772   4.561  0.5405  1.7258 -1.4595
13587TIP3   OH240682   2.162   3.078   0.421  0.3266 -0.0755 -0.3179
13587TIP3    H140683   2.199   3.012   0.362 -1.0342  0.8207 -2.2362
13587TIP3    H240684   2.164   3.159   0.370 -3.2346  0.2054 -0.1308
13588TIP3   OH240685   5.023   6.763   3.870  0.6322  0.0612  0.4945
13588TIP3    H140686   4.935   6.731   3.848  0.6997 -0.1563  0.5348
13588TIP3    H240687   5.008   6.833   3.933  0.4830  0.0759  0.4434
13589TIP3   OH240688   7.485   6.433   4.591 -0.4107 -0.9425 -0.5081
13589TIP3    H140689   7.550   6.486   4.637 -0.7759 -0.7141 -0.2516
13589TIP3    H240690   7.418   6.495   4.565 -0.0680 -1.0217 -1.6176
13590TIP3   OH240691   2.170   4.160   0.033 -0.4328 -0.0658  0.3348
13590TIP3    H140692   2.079   4.181   0.052  0.1526  1.6797  1.2539
13590TIP3    H240693   2.206   4.240  -0.005  0.7258 -0.7297  0.0003
13591TIP3   OH240694   4.063   6.822   4.734 -0.2921  0.4196  0.1970
13591TIP3    H140695   4.061   6.726   4.731 -1.0433  0.3775  1.2904
13591TIP3    H240696   4.021   6.843   4.818  0.2377  1.6921  0.1526
13592TIP3   OH240697   5.633   6.691   2.663 -0.2579 -0.1008 -0.1043
13592TIP3    H140698   5.671   6.744   2.593 -2.4906 -0.2512 -1.4603
13592TIP3    H240699   5.670   6.729   2.743  0.9905  1.1658 -1.2344
13593TIP3   OH240700   6.174   6.785   3.292  0.1065 -0.3599 -0.4182
13593TIP3    H140701   6.206   6.696   3.274  1.1401 -0.4744  1.7848
13593TIP3    H240702   6.161   6.786   3.387  0.4856  1.9611 -0.3722
13594TIP3   OH240703   6.790   6.662   3.373  0.4279 -0.0576 -0.4806
13594TIP3    H140704   6.767   6.569   3.372  0.3542 -0.0377 -1.4037
13594TIP3    H240705   6.709   6.707   3.397  1.1728 -0.3952  2.9306
13595TIP3   OH240706   6.349   7.535   5.023 -0.5709 -0.2175 -0.2830
13595TIP3    H140707   6.257   7.539   4.997  0.3517  1.1467 -3.6483
13595TIP3    H240708   6.376   7.627   5.032  0.5776 -0.5842  0.1337
13596TIP3   OH240709   0.542   7.818   4.212  0.0164  0.6463  0.5685
13596TIP3    H140710   0.530   7.846   4.121  0.6639  0.2684  0.3559
13596TIP3    H240711   0.626   7.856   4.238 -0.2275  0.8543  1.0458
13597TIP3   OH240712   1.202   0.246   4.216 -0.2214  0.0033 -0.3263
13597TIP3    H140713   1.267   0.246   4.145 -1.5678 -1.0476 -1.5907
13597TIP3    H240714   1.154   0.328   4.204  0.1966  0.2954 -0.0172
13598TIP3   OH240715   4.493   7.065   3.995 -0.3463 -0.2169 -0.2006
13598TIP3    H140716   4.569   7.030   3.950 -0.7135 -0.5621 -0.5551
13598TIP3    H240717   4.427   6.996   3.989  0.0793 -0.8962  2.1709
13599TIP3   OH240718   5.254   6.604   4.292  0.3749 -0.3302  0.4486
13599TIP3    H140719   5.330   6.624   4.347  1.0311 -1.8813  0.1287
13599TIP3    H240720   5.188   6.573   4.353  0.6632 -0.8139  0.5188
13600TIP3   OH240721   0.977   0.938   5.382 -0.3312  0.3358 -0.6303
13600TIP3    H140722   0.923   0.891   5.446 -1.2097  1.4904 -0.5064
13600TIP3    H240723   1.015   1.010   5.432  1.0111 -0.2279 -0.8202
13601TIP3   OH240724   6.344   7.539   4.280  0.2786 -0.2257  0.3140
13601TIP3    H140725   6.361   7.501   4.367 -1.8755  1.3673  1.4799
13601TIP3    H240726   6.254   7.513   4.259 -0.2031  1.7350 -0.1576
13602TIP3   OH240727   4.667   5.474   4.286 -0.0984  0.3977 -0.0083
13602TIP3    H140728   4.576   5.443   4.291 -0.0178  0.0072 -0.8121
13602TIP3    H240729   4.674   5.515   4.200  1.2172 -2.0232 -1.1367
13603TIP3   OH240730   5.810   5.233   2.171  0.3028  0.0446 -0.0970
13603TIP3    H140731   5.868   5.158   2.152 -1.0970 -0.7985 -1.1248
13603TIP3    H240732   5.759   5.206   2.247  1.1573  0.7443  0.7376
13604TIP3   OH240733   5.874   7.185   3.563 -0.5178 -0.6726  0.0001
13604TIP3    H140734   5.874   7.099   3.605 -1.4025 -0.9649 -0.5914
13604TIP3    H240735   5.816   7.176   3.488  0.4595  0.0564 -0.8704
13605TIP3   OH240736   8.408   6.532   5.624 -0.1356 -0.0340 -0.1291
13605TIP3    H140737   8.493   6.565   5.655 -0.3496 -0.3785  0.8495
13605TIP3    H240738   8.410   6.439   5.643  0.0382 -0.4118 -1.9247
13606TIP3   OH240739   5.674   6.365   4.389 -0.1584 -0.1035  0.1877
13606TIP3    H140740   5.661   6.271   4.381  1.1838 -0.5320  2.3271
13606TIP3    H240741   5.622   6.390   4.465 -1.4615  1.1143 -1.0867
13607TIP3   OH240742   6.699   7.393   4.600  0.5571 -0.2666  0.3414
13607TIP3    H140743   6.724   7.354   4.684  1.7128  1.0163  0.6138
13607TIP3    H240744   6.776   7.444   4.573  0.4654 -1.1980 -1.8376
13608TIP3   OH240745   5.152   5.121   3.724  0.5271  0.0651  0.3956
13608TIP3    H140746   5.181   5.033   3.701  2.1781  0.3275  1.4051
13608TIP3    H240747   5.222   5.156   3.778 -0.9530  1.3369  1.5454
13609TIP3   OH240748   5.936   6.584   6.318 -0.3221 -0.1612 -0.3167
13609TIP3    H140749   6.004   6.569   6.383 -0.9429 -2.1786 -0.0858
13609TIP3    H240750   5.854   6.570   6.366 -0.8163 -0.5153 -1.2462
13610TIP3   OH240751   8.196   7.453   4.973 -0.0036  0.3076  0.0781
13610TIP3    H140752   8.259   7.456   4.901  2.4130  0.8585  2.1798
13610TIP3    H240753   8.199   7.363   5.004  0.6474  0.6185  0.9387
13611TIP3   OH240754   4.283   7.207   4.643 -0.4231 -0.0201 -0.2080
13611TIP3    H140755   4.311   7.270   4.576  1.3392  1.3750  1.7247
13611TIP3    H240756   4.240   7.261   4.710  2.6158 -0.5120  2.2971
13612TIP3   OH240757   4.195   5.402   5.426 -0.2171 -0.5461  0.3037
13612TIP3    H140758   4.250   5.474   5.394  0.9219 -0.8719  1.4835
13612TIP3    H240759   4.211   5.330   5.365  1.0107 -0.7772  0.8877
13613TIP3   OH240760   7.748   7.300   5.278 -0.2082  0.4697 -0.4469
13613TIP3    H140761   7.706   7.264   5.200 -1.5907 -0.9036  0.8861
13613TIP3    H240762   7.837   7.267   5.275 -0.4619 -0.1671 -1.0864
13614TIP3   OH240763   6.649   7.601   4.861  0.2183  0.7834  0.7840
13614TIP3    H140764   6.567   7.646   4.843 -0.0428  0.7692  1.8887
13614TIP3    H240765   6.669   7.623   4.952  2.0980  1.8150  0.1512
13615TIP3   OH240766   3.211   6.859   4.499  0.1499 -0.8374  0.0608
13615TIP3    H140767   3.281   6.888   4.441  0.8138  0.0154  1.2696
13615TIP3    H240768   3.248   6.784   4.546 -0.3667 -1.4913 -0.5681
13616TIP3   OH240769   4.460   5.647   5.073  0.8235  0.3754 -0.0644
13616TIP3    H140770   4.506   5.722   5.036  1.2195 -0.3999 -1.1571
13616TIP3    H240771   4.529   5.585   5.095  0.5767  0.7328  1.7839
13617TIP3   OH240772   6.587   6.280   4.161 -0.7719  0.1079 -0.0548
13617TIP3    H140773   6.521   6.221   4.198 -0.0247  0.0607  1.2484
13617TIP3    H240774   6.556   6.368   4.183 -0.2725  0.0766  0.8204
13618TIP3   OH240775   4.495   4.585   6.248  0.2021  0.7952  0.1655
13618TIP3    H140776   4.539   4.667   6.274 -2.1074  1.9751  0.4505
13618TIP3    H240777   4.447   4.558   6.326 -0.7714  0.3358 -0.5818
13619TIP3   OH240778   2.074   5.214   5.562  0.1637 -0.4207  0.2777
13619TIP3    H140779   2.147   5.175   5.610  0.1213 -0.3070  0.4340
13619TIP3    H240780   2.097   5.202   5.470  0.5904  0.0078  0.3250
13620TIP3   OH240781   5.098   7.944   7.128  0.0548  0.2965  0.1397
13620TIP3    H140782   5.150   7.996   7.190  0.5412 -0.2749  0.2081
13620TIP3    H240783   5.119   7.981   7.042  1.3131 -0.5515  0.0682
13621TIP3   OH240784   1.602   0.653   5.076  0.3878  0.1897 -0.1887
13621TIP3    H140785   1.603   0.657   5.172  3.0610 -1.9593 -0.0597
13621TIP3    H240786   1.516   0.617   5.055 -0.0247  0.1771  1.4177
13622TIP3   OH240787   4.395   7.392   5.222 -0.6062 -0.5482 -0.1770
13622TIP3    H140788   4.407   7.461   5.287  0.0751 -1.7888  1.0355
13622TIP3    H240789   4.377   7.439   5.140  3.4346  1.2145 -0.1696
13623TIP3   OH240790   6.603   7.593   6.029  0.5927 -0.4191 -0.1064
13623TIP3    H140791   6.636   7.610   5.941  0.1516 -2.0297 -0.6000
13623TIP3    H240792   6.543   7.519   6.018 -1.3592  0.9235  1.1392
13624TIP3   OH240793   5.925   6.705   5.504 -0.4716  0.5791  0.3455
13624TIP3    H140794   5.918   6.635   5.569 -1.2211 -0.2803 -0.6257
13624TIP3    H240795   6.018   6.726   5.501 -0.2681 -0.2108  0.8327
13625TIP3   OH240796   6.207   7.776   5.222 -0.2910 -0.1966 -0.7741
13625TIP3    H140797   6.157   7.818   5.292  1.4790  0.8397 -0.0831
13625TIP3    H240798   6.240   7.695   5.261 -0.6690 -0.4358 -0.9452
13626TIP3   OH240799   4.382   5.150   3.183  0.2463 -0.1861 -0.4026
13626TIP3    H140800   4.441   5.082   3.217  0.8201  1.1670  1.4117
13626TIP3    H240801   4.434   5.197   3.118  0.9785  0.6045  0.7380
13627TIP3   OH240802   6.801   7.962   5.457  0.3933 -0.1081  0.3106
13627TIP3    H140803   6.831   7.921   5.538  1.2309  0.8351  0.4928
13627TIP3    H240804   6.731   7.905   5.426  1.6175 -1.7597  0.4795
13628TIP3   OH240805   4.418   5.918   3.941 -1.1382  0.2262  0.0961
13628TIP3    H140806   4.448   5.854   4.005  2.8640  0.7135 -1.1610
13628TIP3    H240807   4.379   5.988   3.994  2.4621  0.8290  2.1298
13629TIP3   OH240808   4.702   6.476   4.688 -0.1940 -0.1139 -0.1551
13629TIP3    H140809   4.762   6.496   4.760 -0.0674  1.4254 -0.6783
13629TIP3    H240810   4.653   6.556   4.675 -0.8992 -0.7009 -1.1486
13630TIP3   OH240811   5.034   6.739   6.383 -0.1930  0.0848  0.4509
13630TIP3    H140812   5.106   6.770   6.328 -0.5373  1.4725  0.7646
13630TIP3    H240813   4.967   6.711   6.321  0.4024 -0.7303  0.1623
13631TIP3   OH240814   5.663   6.546   4.190 -0.3968 -0.5136  0.1981
13631TIP3    H140815   5.640   6.475   4.250 -1.0912 -0.9231 -0.5336
13631TIP3    H240816   5.689   6.618   4.246 -0.6356 -1.0288  0.9770
13632TIP3   OH240817   0.429   1.083   5.967 -0.3130 -0.5131  0.5424
13632TIP3    H140818   0.348   1.034   5.956 -0.3089 -0.2216 -0.8613
13632TIP3    H240819   0.426   1.150   5.898  1.6875 -1.2735 -0.3282
13633TIP3   OH240820   4.237   7.009   5.091 -0.2664  0.6067 -0.3330
13633TIP3    H140821   4.305   7.060   5.136  0.1441  0.7678 -1.1415
13633TIP3    H240822   4.244   7.034   4.999  1.5384 -2.6865 -1.1774
13634TIP3   OH240823   0.923   0.302   4.391  0.3574  0.4546 -0.0172
13634TIP3    H140824   0.883   0.286   4.305 -0.1951  0.1484  0.2932
13634TIP3    H240825   0.897   0.227   4.444  1.0459  0.4383  0.3018
13635TIP3   OH240826   7.794   7.165   3.905  0.4226 -0.2691 -0.3349
13635TIP3    H140827   7.771   7.159   3.812  0.5689 -0.3444 -0.3682
13635TIP3    H240828   7.716   7.200   3.947 -0.5679 -2.6224 -0.1068
13636TIP3   OH240829   3.618   5.489   6.613  0.4700  0.4421 -0.8021
13636TIP3    H140830   3.676   5.453   6.546  1.1560  2.3200 -1.2435
13636TIP3    H240831   3.676   5.537   6.671 -0.4571  1.0770 -0.3939
13637TIP3   OH240832   6.015   6.633   5.211  0.0467  0.4027  0.3162
13637TIP3    H140833   5.994   6.710   5.265  0.5571 -0.1823  1.3701
13637TIP3    H240834   6.048   6.569   5.274 -1.8706 -1.2601 -0.3153
13638TIP3   OH240835   5.458   8.065   3.729  0.1967  0.0956  0.4070
13638TIP3    H140836   5.537   8.052   3.782 -0.5946 -1.3400  1.2592
13638TIP3    H240837   5.387   8.070   3.793 -0.6039 -0.2625 -0.4473
13639TIP3   OH240838   4.710   6.530   5.671  0.0774 -0.5102 -0.3878
13639TIP3    H140839   4.715   6.505   5.578 -1.2504  0.7145 -0.8210
13639TIP3    H240840   4.796   6.509   5.706  0.2743 -1.9469 -1.6581
13640TIP3   OH240841   3.417   4.758   2.984  0.1558  0.2314  0.3002
13640TIP3    H140842   3.470   4.736   2.906  1.2456  0.9170  0.8344
13640TIP3    H240843   3.482   4.777   3.052 -0.7965  0.0835  1.2554
13641TIP3   OH240844   3.461   5.573   5.935 -1.3001  0.5131  0.6256
13641TIP3    H140845   3.405   5.533   5.868 -0.9662 -0.0067  0.6563
13641TIP3    H240846   3.416   5.655   5.957 -1.0060  1.0977 -0.8186
13642TIP3   OH240847   5.596   6.379   5.867 -0.9927  0.2235  0.1282
13642TIP3    H140848   5.608   6.367   5.962 -0.7472  0.6769  0.1539
13642TIP3    H240849   5.536   6.308   5.842 -0.4257 -0.3916  0.4819
13643TIP3   OH240850   6.749   8.192   6.594  0.1135 -0.1542 -0.0796
13643TIP3    H140851   6.807   8.184   6.518 -1.5081  2.6082 -1.7488
13643TIP3    H240852   6.799   8.243   6.657  0.9338 -1.1769  0.1015
13644TIP3   OH240853   3.962   5.181   6.041 -0.2772  0.6275  0.4451
13644TIP3    H140854   4.019   5.190   5.965  0.5671  3.1212  1.3010
13644TIP3    H240855   3.874   5.174   6.005  0.1683  1.2349 -0.7697
13645TIP3   OH240856   5.970   6.858   5.861 -0.2995 -0.4045  0.2893
13645TIP3    H140857   6.028   6.804   5.915  0.0954 -0.3688 -0.0985
13645TIP3    H240858   5.888   6.809   5.857  0.5188 -1.6918 -1.2858
13646TIP3   OH240859   5.226   7.875   5.989 -0.6642 -0.1001 -0.1913
13646TIP3    H140860   5.255   7.956   6.031 -0.2245 -0.8995  1.0863
13646TIP3    H240861   5.209   7.815   6.061 -2.7335 -0.5941 -1.0470
13647TIP3   OH240862   4.269   2.694   0.317  0.3109 -0.4498  0.2513
13647TIP3    H140863   4.241   2.608   0.288 -0.3949 -0.2582  0.3667
13647TIP3    H240864   4.339   2.677   0.380 -1.1336 -0.9916  1.7253
13648TIP3   OH240865   3.883   7.181   4.342 -0.1079  0.4695 -0.2758
13648TIP3    H140866   3.949   7.173   4.411  2.1553  1.7227 -2.1995
13648TIP3    H240867   3.905   7.112   4.280 -1.6554 -0.1575 -0.1454
13649TIP3   OH240868   4.066   5.047   3.838 -0.4206 -0.0482  0.2292
13649TIP3    H140869   4.103   5.119   3.788  0.6484  0.3427  1.5372
13649TIP3    H240870   3.982   5.028   3.795  1.3174 -1.0321 -2.8518
13650TIP3   OH240871   2.200   7.678   2.658 -0.5244  0.1987 -0.0451
13650TIP3    H140872   2.159   7.764   2.649 -0.1271  0.7515  2.9560
13650TIP3    H240873   2.127   7.616   2.655 -1.0864  0.8323  0.4377
13651TIP3   OH240874   3.198   7.069   6.822 -0.1011 -0.0360 -0.1712
13651TIP3    H140875   3.168   7.075   6.731 -0.7353 -0.9272 -0.0187
13651TIP3    H240876   3.145   7.134   6.869 -2.0709 -1.8695  0.1665
13652TIP3   OH240877   1.268   0.254   5.048 -0.0934  0.1240 -0.2542
13652TIP3    H140878   1.265   0.267   5.143 -0.9016  0.0121 -0.2626
13652TIP3    H240879   1.315   0.171   5.037  0.2992  0.3082  0.0314
13653TIP3   OH240880   6.430   8.000   4.128 -0.1976 -0.7674  0.1980
13653TIP3    H140881   6.477   7.921   4.103  0.8169 -0.2542  0.4622
13653TIP3    H240882   6.351   7.968   4.171  2.1673 -1.6863  4.0717
13654TIP3   OH240883   6.034   7.849   4.929  0.6114  0.2056  0.5858
13654TIP3    H140884   5.995   7.934   4.908 -0.0719 -0.1880  0.2583
13654TIP3    H240885   6.009   7.832   5.019  0.0536 -0.0280  0.3891
13655TIP3   OH240886   6.378   5.141   4.877 -0.2301 -0.1216 -0.0907
13655TIP3    H140887   6.352   5.146   4.786  1.3673 -0.0226 -0.5548
13655TIP3    H240888   6.416   5.227   4.896  0.5512 -0.5564  0.3162
13656TIP3   OH240889   8.484   7.893   3.729  0.0302  0.6443 -0.0297
13656TIP3    H140890   8.424   7.912   3.801  0.0503 -1.0163  0.4471
13656TIP3    H240891   8.555   7.957   3.739 -0.7575  1.4482  0.4767
13657TIP3   OH240892   6.500   6.234   3.807 -0.0286 -0.0796 -0.2128
13657TIP3    H140893   6.422   6.240   3.862  0.9305  0.7210  1.1083
13657TIP3    H240894   6.490   6.306   3.744  0.9993  1.8917  1.7941
13658TIP3   OH240895   8.754   8.317   4.641  0.0955 -0.3351  0.1276
13658TIP3    H140896   8.677   8.372   4.656  0.7236  0.6202 -0.0863
13658TIP3    H240897   8.752   8.254   4.713 -0.1897  0.4949  0.8676
13659TIP3   OH240898   7.720   6.547   4.382  0.6170 -0.5970 -0.0961
13659TIP3    H140899   7.632   6.531   4.349  0.9351 -1.9154 -0.3323
13659TIP3    H240900   7.726   6.493   4.461  0.9402  0.1231  0.3802
13660TIP3   OH240901   8.342   7.389   4.747  0.0869  0.5166 -0.2686
13660TIP3    H140902   8.266   7.335   4.728 -0.1972 -0.0714  2.4447
13660TIP3    H240903   8.404   7.331   4.791 -0.0546  2.2462  2.3165
13661TIP3   OH240904   3.477   3.541   0.838  0.0534 -0.4668 -0.6223
13661TIP3    H140905   3.464   3.583   0.753 -0.7980 -0.9751 -0.7563
13661TIP3    H240906   3.442   3.452   0.826  0.9897 -0.9180 -0.0813
13662TIP3   OH240907   7.580   0.952   5.436 -0.0494  0.5515 -0.4547
13662TIP3    H140908   7.654   0.965   5.494 -0.2683  0.5740 -0.1757
13662TIP3    H240909   7.609   0.986   5.351  0.1215  0.9112 -0.2537
13663TIP3   OH240910   6.433   6.869   5.303 -0.2462 -0.2253  0.0938
13663TIP3    H140911   6.363   6.933   5.309 -0.5639 -0.6722  1.2938
13663TIP3    H240912   6.508   6.918   5.269 -1.1922  0.2032 -1.3777
13664TIP3   OH240913   1.962   0.048   5.145 -0.2728  0.6432  0.3843
13664TIP3    H140914   1.960  -0.024   5.208 -1.2252  0.6818  0.4003
13664TIP3    H240915   1.931   0.010   5.063 -0.4680  0.9544  0.3107
13665TIP3   OH240916   8.910   0.118   3.358  0.1848 -0.1566 -0.0934
13665TIP3    H140917   8.859   0.192   3.391  0.5893  0.0007  0.1842
13665TIP3    H240918   8.896   0.120   3.263  2.6196  2.1436 -0.4691
13666TIP3   OH240919   2.709   1.012   3.229  0.4604  0.1548 -0.0539
13666TIP3    H140920   2.711   0.918   3.210  1.5444  0.4008 -1.1962
13666TIP3    H240921   2.659   1.050   3.156  2.2166  0.7658 -0.9508
13667TIP3   OH240922   0.814  -0.025   4.275 -0.2766 -0.1486 -0.3622
13667TIP3    H140923   0.806  -0.005   4.368 -0.9864  0.5969 -0.5789
13667TIP3    H240924   0.837   0.058   4.234 -0.2705 -0.4058 -0.8895
13668TIP3   OH240925   6.095   6.605   4.800  0.1918  0.0380 -0.1657
13668TIP3    H140926   6.087   6.512   4.822  1.3486 -0.2678 -0.9548
13668TIP3    H240927   6.100   6.649   4.885  1.7432 -0.8479  0.2413
13669TIP3   OH240928   6.303   7.199   4.266 -0.0582  0.0233  0.3386
13669TIP3    H140929   6.235   7.150   4.311  0.6470 -0.1253  1.2386
13669TIP3    H240930   6.373   7.209   4.330  0.2488  1.2784 -0.1759
13670TIP3   OH240931   0.404   7.585   4.828  0.4840  0.1993 -0.0369
13670TIP3    H140932   0.418   7.658   4.768 -1.1326  0.4886 -0.1017
13670TIP3    H240933   0.331   7.537   4.790  0.0476 -0.1425  1.2108
13671TIP3   OH240934   7.797   7.030   5.419 -0.3573  0.4463  0.4615
13671TIP3    H140935   7.848   6.956   5.451  0.6957 -0.5030 -3.1888
13671TIP3    H240936   7.839   7.107   5.457  1.9802 -0.5200 -0.0777
13672TIP3   OH240937   5.018   5.131   4.949  0.2432 -0.1596  0.3167
13672TIP3    H140938   5.095   5.175   4.912  0.2393 -0.2273  0.2276
13672TIP3    H240939   4.977   5.087   4.874 -0.4089  0.6538  0.1873
13673TIP3   OH240940   7.352   7.204   4.045 -0.5571 -0.5056  0.2698
13673TIP3    H140941   7.295   7.217   4.121  0.2757  0.3382  0.7530
13673TIP3    H240942   7.349   7.109   4.030 -2.2774 -0.4476  0.1324
13674TIP3   OH240943   5.133   7.680   4.577 -0.2597  0.2056  0.5645
13674TIP3    H140944   5.127   7.673   4.481 -0.5694 -0.9173  0.6531
13674TIP3    H240945   5.042   7.683   4.606 -0.1788 -0.4825  0.8898
13675TIP3   OH240946   0.348   6.165   6.631  0.0590  0.0085  0.2337
13675TIP3    H140947   0.258   6.156   6.602  1.0646 -1.5830 -2.5885
13675TIP3    H240948   0.399   6.169   6.550  2.6951 -1.1897  1.7741
13676TIP3   OH240949   5.754   6.832   5.136  0.2548 -0.1641  0.1649
13676TIP3    H140950   5.810   6.844   5.060 -0.2594  1.0402 -0.0306
13676TIP3    H240951   5.665   6.832   5.101 -0.0856  2.1947  0.9406
13677TIP3   OH240952   6.258   7.587   3.292  0.3876 -0.0092  0.4534
13677TIP3    H140953   6.271   7.525   3.221 -2.3222  1.2571 -1.2361
13677TIP3    H240954   6.189   7.548   3.346 -0.5547  0.9454 -0.0166
13678TIP3   OH240955   5.641   6.880   5.959  0.1381 -0.5075  0.2300
13678TIP3    H140956   5.596   6.811   5.910 -1.8648  0.6099  0.4200
13678TIP3    H240957   5.682   6.834   6.032  0.5722 -1.7749 -0.7922
13679TIP3   OH240958   4.990   6.361   3.777  0.0919  0.0048  0.4585
13679TIP3    H140959   5.008   6.280   3.824  1.7588  0.4171  0.5704
13679TIP3    H240960   4.942   6.415   3.839  1.2454  0.0927  1.2836
13680TIP3   OH240961   4.723   6.025   4.153  0.2901  0.3990 -0.2479
13680TIP3    H140962   4.638   6.014   4.195  0.4361  0.1894  0.0052
13680TIP3    H240963   4.724   6.115   4.122  0.8109  1.0808  1.6517
13681TIP3   OH240964   1.994   0.406   5.507  0.1927 -0.1908 -0.2353
13681TIP3    H140965   2.043   0.474   5.553 -0.5309 -0.3372  0.7596
13681TIP3    H240966   1.943   0.454   5.442  1.2281  0.0121 -0.9277
13682TIP3   OH240967   0.540   0.903   6.852 -0.2008  0.0728  0.5240
13682TIP3    H140968   0.541   0.992   6.817 -1.0861  0.0037  0.3003
13682TIP3    H240969   0.575   0.911   6.940 -0.1490  0.6238  0.4542
13683TIP3   OH240970   5.019   7.385   6.694 -0.1931  0.0689  0.1344
13683TIP3    H140971   5.032   7.478   6.712  0.4775 -0.1231  0.6318
13683TIP3    H240972   5.025   7.379   6.598 -0.8434  0.6229  0.0484
13684TIP3   OH240973   6.855   0.511   5.166  0.0636  0.5942 -0.3263
13684TIP3    H140974   6.923   0.481   5.106 -0.2637 -0.3888 -0.2102
13684TIP3    H240975   6.778   0.524   5.110 -0.4400 -0.9812 -0.0367
13685TIP3   OH240976   6.286   7.734   3.616 -0.2014  0.2007  0.1929
13685TIP3    H140977   6.337   7.773   3.687  1.0959  0.5140 -0.8858
13685TIP3    H240978   6.323   7.647   3.605 -0.0815  0.3205 -0.3920
13686TIP3   OH240979   7.498   7.348   4.644 -0.0413  0.4443  0.4024
13686TIP3    H140980   7.471   7.350   4.552 -0.6810  2.1576  0.6089
13686TIP3    H240981   7.569   7.284   4.647 -0.4680 -0.1213 -1.1550
13687TIP3   OH240982   0.730   8.367   5.696  0.3140  0.3651  0.2567
13687TIP3    H140983   0.722   8.461   5.714  1.0547  0.5423 -0.2861
13687TIP3    H240984   0.807   8.340   5.745  0.1424  0.0541  0.3552
13688TIP3   OH240985   5.011   7.966   5.287  0.3382  0.5388 -0.1654
13688TIP3    H140986   5.059   8.041   5.253  0.1718  1.5183  1.6857
13688TIP3    H240987   5.078   7.902   5.309  0.5719  0.6608 -0.5164
13689TIP3   OH240988   4.468   8.203   5.697 -0.2328  0.6935 -0.5912
13689TIP3    H140989   4.458   8.260   5.773  0.0889 -1.6135  1.2162
13689TIP3    H240990   4.418   8.247   5.628 -1.0187  2.5281  1.0944
13690TIP3   OH240991   5.126   6.311   2.833  0.0588 -0.4186 -0.0084
13690TIP3    H140992   5.190   6.241   2.824 -0.6805 -1.0734 -0.2930
13690TIP3    H240993   5.051   6.268   2.875 -1.0069 -0.1862 -1.6287
13691TIP3   OH240994   8.069   0.940   3.985  0.3226 -0.3780  0.9131
13691TIP3    H140995   8.149   0.918   4.033  0.8601 -1.5411 -0.4790
13691TIP3    H240996   8.070   0.882   3.909 -1.3343  0.3122  0.3442
13692TIP3   OH240997   6.810   4.983   4.139  0.3980 -0.5646  0.4763
13692TIP3    H140998   6.826   4.910   4.198  1.9224 -0.7203 -0.1049
13692TIP3    H240999   6.778   5.053   4.196  1.0056 -0.9941  1.3572
13693TIP3   OH241000   8.493   7.988   5.069 -0.0056  0.2293  0.2832
13693TIP3    H141001   8.518   7.957   4.982 -0.3829  1.7203 -0.3685
13693TIP3    H241002   8.467   8.080   5.055  0.0617  0.5100  1.9829
13694TIP3   OH241003   8.336   6.404   4.366  0.0059  0.1579 -0.2887
13694TIP3    H141004   8.245   6.432   4.378  0.0776  1.0097 -1.6431
13694TIP3    H241005   8.329   6.320   4.321 -0.1123  0.6630 -1.2359
13695TIP3   OH241006   3.807   4.582   4.097 -0.4684 -0.7575  0.0944
13695TIP3    H141007   3.814   4.603   4.190  0.1201 -1.8263  0.2938
13695TIP3    H241008   3.790   4.666   4.055  1.0411  0.0077  0.9795
13696TIP3   OH241009   6.077   7.787   2.790 -0.7271 -0.7631 -0.0278
13696TIP3    H141010   6.059   7.868   2.743  0.0511 -1.2658 -1.2139
13696TIP3    H241011   6.145   7.811   2.853 -0.7193 -0.4181 -0.1676
13697TIP3   OH241012   7.436   8.051   2.883  0.7406 -0.1217 -0.0931
13697TIP3    H141013   7.429   8.146   2.891  0.8718  0.0315 -1.6699
13697TIP3    H241014   7.520   8.029   2.923  2.5726  0.8993 -3.1827
13698TIP3   OH241015   7.705   0.579   3.689  0.7086 -0.4122  0.1748
13698TIP3    H141016   7.702   0.509   3.623  1.2476  1.7780 -2.2947
13698TIP3    H241017   7.675   0.538   3.770  0.3221 -3.2986 -1.3651
13699TIP3   OH241018   7.372   8.009   5.765 -0.1300 -0.1444  0.1578
13699TIP3    H141019   7.373   7.939   5.699 -2.6969  1.5316 -1.7924
13699TIP3    H241020   7.427   8.078   5.728 -3.0085  1.5324 -1.2125
13700TIP3   OH241021   4.356   5.309   4.642  0.1927 -0.2211  0.2243
13700TIP3    H141022   4.352   5.260   4.724 -1.8976 -0.6281 -0.1111
13700TIP3    H241023   4.343   5.243   4.574 -0.2903  0.4551 -0.3406
13701TIP3   OH241024   4.449   6.262   5.731 -0.4684 -0.4696  0.3573
13701TIP3    H141025   4.428   6.351   5.703  0.4097 -0.1941  0.5462
13701TIP3    H241026   4.544   6.257   5.725 -0.3497 -0.7799  2.1106
13702TIP3   OH241027   0.340   0.065   3.967  0.1580 -0.0506  0.5185
13702TIP3    H141028   0.384  -0.006   3.922  0.9249  1.2035 -0.7652
13702TIP3    H241029   0.314   0.125   3.897 -1.7826  0.2283  1.4320
13703TIP3   OH241030   3.253   7.123   5.219 -0.3052 -0.3605 -0.0715
13703TIP3    H141031   3.227   7.105   5.310 -1.6340 -0.4053 -0.4470
13703TIP3    H241032   3.215   7.051   5.169 -1.4645  0.8344 -0.9422
13704TIP3   OH241033   6.415   7.451   5.705 -0.0506 -0.4020  0.2767
13704TIP3    H141034   6.423   7.417   5.794 -0.5038 -2.2209 -0.3380
13704TIP3    H241035   6.490   7.415   5.659 -0.6489 -0.7548 -0.4457
13705TIP3   OH241036   5.855   6.283   5.990  0.1863 -0.3750  0.0606
13705TIP3    H141037   5.791   6.300   5.921 -0.8506  0.2149  1.1435
13705TIP3    H241038   5.920   6.225   5.949  0.4015  1.1557 -1.8374
13706TIP3   OH241039   3.551   4.358   2.656  0.0687  0.2430 -0.6475
13706TIP3    H141040   3.548   4.306   2.736  0.8458  1.0976 -0.0533
13706TIP3    H241041   3.463   4.397   2.649 -0.3794 -0.7796 -0.8686
13707TIP3   OH241042   6.291   7.115   5.615  0.3072  0.1610 -0.1034
13707TIP3    H141043   6.197   7.120   5.600  0.3111  0.4886 -0.0180
13707TIP3    H241044   6.328   7.184   5.561  0.8436 -2.2648 -3.0016
13708TIP3   OH241045   7.122   6.103   5.649 -0.2166 -0.4427  0.1189
13708TIP3    H141046   7.165   6.159   5.714 -0.6969  0.3058 -0.1968
13708TIP3    H241047   7.062   6.049   5.700 -0.2735 -0.1641  0.3524
13709TIP3   OH241048   0.453   7.900   5.084  0.0481 -0.4023  0.0576
13709TIP3    H141049   0.544   7.906   5.112 -0.0131 -0.0386  0.1887
13709TIP3    H241050   0.454   7.928   4.992  0.2967 -1.9103 -0.4020
13710TIP3   OH241051   8.858   6.612   5.373 -0.4061 -0.2940  0.2170
13710TIP3    H141052   8.843   6.538   5.432  0.1791 -0.6958 -0.1344
13710TIP3    H241053   8.801   6.681   5.406 -0.8730 -0.8677  0.6126
13711TIP3   OH241054   0.653   7.365   4.249 -0.0982 -0.4564  0.1368
13711TIP3    H141055   0.698   7.440   4.209  0.8528 -0.4108  1.2742
13711TIP3    H241056   0.569   7.360   4.202  0.1922  0.7814 -0.5423
13712TIP3   OH241057   2.468   0.459   4.496  0.2071  0.1654  0.2566
13712TIP3    H141058   2.524   0.536   4.485  0.7897  0.0172  2.0191
13712TIP3    H241059   2.486   0.406   4.418  0.2770  1.4954 -0.6576
13713TIP3   OH241060   0.786   1.097   3.424  0.0837 -0.4594 -0.4090
13713TIP3    H141061   0.725   1.039   3.378 -0.2154 -0.5746  0.1374
13713TIP3    H241062   0.865   1.044   3.435 -0.5816 -1.1703  1.1191
13714TIP3   OH241063   8.622   7.423   4.351  0.0358 -0.7868  0.4696
13714TIP3    H141064   8.618   7.500   4.294 -0.7198 -2.0548 -1.2559
13714TIP3    H241065   8.646   7.457   4.437 -0.2070  1.3514 -0.2871
13715TIP3   OH241066   6.856   7.366   3.751  0.2140  0.0031  0.1458
13715TIP3    H141067   6.881   7.388   3.841 -2.4393 -0.4362  1.0512
13715TIP3    H241068   6.884   7.276   3.740 -0.7382 -0.4198  1.0653
13716TIP3   OH241069   2.276   0.510   5.143  0.2608  0.3504 -0.8474
13716TIP3    H141070   2.301   0.431   5.190 -1.6393  0.3900  0.2562
13716TIP3    H241071   2.211   0.480   5.079 -0.2794  0.9880 -0.5938
13717TIP3   OH241072   6.709   7.947   4.433 -0.0143 -0.2318  0.3323
13717TIP3    H141073   6.694   7.864   4.389 -0.2481  0.6252 -1.2412
13717TIP3    H241074   6.625   7.969   4.473 -0.1096 -0.4680  0.2610
13718TIP3   OH241075   8.025   7.341   4.108 -0.5172  0.5109  0.0691
13718TIP3    H141076   7.965   7.402   4.151 -0.5240  0.0935  0.6627
13718TIP3    H241077   7.994   7.255   4.134  1.2867  0.3196  1.7004
13719TIP3   OH241078   4.543   7.877   4.047  0.1437  0.2076 -0.5385
13719TIP3    H141079   4.625   7.868   3.999 -0.0768  1.5502 -1.1958
13719TIP3    H241080   4.488   7.804   4.017  0.3409  0.5072 -1.6475
13720TIP3   OH241081   5.487   6.906   4.292 -0.3962 -0.3763 -0.3278
13720TIP3    H141082   5.582   6.901   4.296 -0.3257 -0.2434 -1.5548
13720TIP3    H241083   5.465   6.983   4.345  0.3995  1.2327 -2.2482
13721TIP3   OH241084   7.778   6.981   3.671  0.1059  0.2261 -0.0414
13721TIP3    H141085   7.816   7.043   3.607 -1.5667  0.0036 -1.2743
13721TIP3    H241086   7.766   6.900   3.622 -0.0953 -0.3189  0.8934
13722TIP3   OH241087   6.237   7.866   2.989 -0.7813  0.1788  0.3376
13722TIP3    H141088   6.318   7.838   3.031 -0.2597  0.6090 -0.3551
13722TIP3    H241089   6.234   7.961   3.004  0.2050  0.5958 -1.8675
13723TIP3   OH241090   8.425   6.426   4.007 -0.3165  0.1142 -0.4163
13723TIP3    H141091   8.379   6.412   3.925 -1.0060  0.2267 -0.0581
13723TIP3    H241092   8.361   6.402   4.075  0.4223 -0.4973  0.0725
13724TIP3   OH241093   0.431   7.265   5.350 -0.0200 -0.0441  0.2884
13724TIP3    H141094   0.496   7.267   5.419  1.0210  0.7628 -0.7064
13724TIP3    H241095   0.481   7.263   5.269 -1.2256 -0.3973 -0.4707
13725TIP3   OH241096   0.998  -0.030   7.115  0.1943 -0.2092  0.9376
13725TIP3    H141097   1.059   0.043   7.128 -0.2605  0.4469 -0.4422
13725TIP3    H241098   0.912   0.011   7.117 -0.0670 -0.7263  0.2767
13726TIP3   OH241099   2.603   0.222   2.194 -0.3239 -0.0048  0.5335
13726TIP3    H141100   2.601   0.181   2.281 -1.0141 -0.5018  0.2872
13726TIP3    H241101   2.536   0.290   2.198  0.9030  1.1986  0.9817
13727TIP3   OH241102   7.661   8.004   4.331  0.5908  0.1889 -0.4677
13727TIP3    H141103   7.597   7.956   4.279 -0.6243 -0.5378  1.5980
13727TIP3    H241104   7.655   8.094   4.300  1.2219 -0.5322 -2.7975
13728TIP3   OH241105   0.140   7.196   5.663  0.4530  0.0033 -0.0990
13728TIP3    H141106   0.153   7.263   5.597  1.8246 -1.2426 -1.1296
13728TIP3    H241107   0.138   7.243   5.746  0.1162  1.4358 -0.9135
13729TIP3   OH241108   6.073   7.485   5.082  0.0076  0.5491  0.0472
13729TIP3    H141109   6.053   7.485   5.176 -0.0948  0.7869  0.0252
13729TIP3    H241110   6.010   7.545   5.044  2.3337  3.2872  0.3380
13730TIP3   OH241111   8.583   6.836   4.820  0.0647  0.1998 -0.3314
13730TIP3    H141112   8.604   6.796   4.736  0.9520 -1.6449  0.7415
13730TIP3    H241113   8.491   6.815   4.834 -0.1167  0.6080 -0.8715
13731TIP3   OH241114   6.503   7.584   4.578 -0.5920 -0.1261 -0.7175
13731TIP3    H141115   6.527   7.659   4.632 -0.3492 -1.1980  0.6754
13731TIP3    H241116   6.576   7.524   4.586 -1.4638 -1.1896 -0.5886
13732TIP3   OH241117   2.594   0.814   6.207 -0.2892 -0.2290 -0.0154
13732TIP3    H141118   2.603   0.822   6.113  0.7802  1.5411  0.2138
13732TIP3    H241119   2.684   0.809   6.240 -0.6411 -0.5519  0.9316
13733TIP3   OH241120   1.395   6.217   5.564 -0.1633 -0.0696 -0.2599
13733TIP3    H141121   1.431   6.160   5.496 -1.1292 -2.5565  1.2531
13733TIP3    H241122   1.300   6.206   5.556 -0.3400  1.0699  0.2549
13734TIP3   OH241123   8.634   6.357   5.263 -0.3895 -0.0153  0.6568
13734TIP3    H141124   8.703   6.312   5.214  0.9033  3.0428 -0.4632
13734TIP3    H241125   8.676   6.382   5.346 -0.9685 -0.4862  1.0939
13735TIP3   OH241126   2.880   1.498   5.271 -0.0025 -0.3105  0.0191
13735TIP3    H141127   2.808   1.446   5.304  0.5303 -1.1424 -0.1122
13735TIP3    H241128   2.841   1.557   5.206 -0.7073 -0.1031  0.6397
13736TIP3   OH241129   2.016   1.826   2.217 -0.1182  0.3329  0.2675
13736TIP3    H141130   2.012   1.894   2.149  0.8033  1.6087  1.4760
13736TIP3    H241131   1.949   1.762   2.190  0.7871  0.3930 -2.2744
13737TIP3   OH241132   0.851   7.518   5.608  0.7096  0.4512 -0.4975
13737TIP3    H141133   0.857   7.600   5.559  3.0418 -0.2370 -1.4635
13737TIP3    H241134   0.924   7.523   5.670 -0.8016  0.2879  1.3198
13738TIP3   OH241135   0.916   7.710   3.138  0.4715  0.2766 -0.0359
13738TIP3    H141136   0.936   7.647   3.069 -0.6564  0.1119 -0.2236
13738TIP3    H241137   0.972   7.786   3.118  1.6178 -0.5402  0.0278
13739TIP3   OH241138   8.533   7.215   4.958 -0.2576  0.7475  0.3929
13739TIP3    H141139   8.485   7.271   5.020  0.7953  2.0254  0.0773
13739TIP3    H241140   8.622   7.210   4.994  0.1423  0.8116 -0.5672
13740TIP3   OH241141   0.028   6.681   3.115 -0.7653 -0.2966  0.0090
13740TIP3    H141142  -0.057   6.722   3.097 -1.0167 -0.7836  0.0779
13740TIP3    H241143   0.055   6.644   3.032 -0.2586  0.5175 -0.1926
13741TIP3   OH241144   7.437   7.046   5.262 -0.1508  0.0610 -0.2650
13741TIP3    H141145   7.475   6.998   5.336 -1.0794  1.6306  1.2752
13741TIP3    H241146   7.349   7.069   5.291  0.1140  2.3232 -1.1139
13742TIP3   OH241147   3.945   4.036   0.102  0.0351 -0.6960  0.2362
13742TIP3    H141148   3.921   4.116   0.148  0.6855 -0.9228  0.9783
13742TIP3    H241149   3.965   4.064   0.012  2.7471  0.3658  1.1284
13743TIP3   OH241150   6.014   6.544   3.827 -0.2531  0.4472  0.3717
13743TIP3    H141151   5.937   6.594   3.852  0.4429  1.0492  1.3890
13743TIP3    H241152   6.013   6.468   3.886  0.8799  1.3814  1.6450
13744TIP3   OH241153   1.334   6.196   6.565 -0.9327 -0.1993 -0.6311
13744TIP3    H141154   1.392   6.134   6.609  0.0583  0.5165 -0.9073
13744TIP3    H241155   1.384   6.226   6.490 -1.9822 -0.1674 -1.3267
13745TIP3   OH241156   1.046   6.632   5.185  0.4519  0.6824  0.4659
13745TIP3    H141157   1.047   6.692   5.110  0.7208  2.2027  1.6482
13745TIP3    H241158   1.120   6.660   5.239 -0.3236  0.2490  1.7835
13746TIP3   OH241159   1.768   0.891   5.588 -0.2072  0.3039 -0.3193
13746TIP3    H141160   1.814   0.915   5.508  0.2685  0.3420 -0.0385
13746TIP3    H241161   1.837   0.888   5.655 -0.5845  0.1772  0.0651
13747TIP3   OH241162   2.857   0.160   3.150 -0.1691 -0.3656  0.1592
13747TIP3    H141163   2.912   0.103   3.204 -1.7371  0.5734  2.8571
13747TIP3    H241164   2.821   0.102   3.084  1.9685 -1.5249 -0.0509
13748TIP3   OH241165   7.278   8.223   5.997 -0.1784 -0.5228  0.6229
13748TIP3    H141166   7.300   8.305   5.953 -3.3833 -0.3302 -0.7558
13748TIP3    H241167   7.328   8.156   5.950 -0.1637  0.2351 -0.4551
13749TIP3   OH241168   3.254   0.010   2.959 -0.7679 -0.1663 -0.4360
13749TIP3    H141169   3.323   0.052   3.011 -0.4432 -0.4303 -0.6538
13749TIP3    H241170   3.196  -0.029   3.025 -1.4087  1.1383 -0.2095
13750TIP3   OH241171   0.039   6.804   4.576 -0.1403 -0.6100  0.3522
13750TIP3    H141172   0.109   6.828   4.516 -1.0650 -0.0367 -0.5122
13750TIP3    H241173   0.077   6.736   4.632  0.6838 -1.2351 -0.9580
13751TIP3   OH241174   0.594   5.723   5.722 -0.1827 -0.0063  0.3537
13751TIP3    H141175   0.587   5.629   5.704 -0.9225 -0.2948  2.0222
13751TIP3    H241176   0.515   5.744   5.772  0.3948  1.3232  0.7326
13752TIP3   OH241177   6.650   7.323   3.427  0.0744 -0.3017  0.1573
13752TIP3    H141178   6.702   7.360   3.356  0.6652 -1.2515  0.0955
13752TIP3    H241179   6.678   7.372   3.505 -0.1143  0.3009 -0.1512
13753TIP3   OH241180   0.183   8.127   4.066 -0.4233  0.0163 -0.1393
13753TIP3    H141181   0.130   8.136   4.146  2.0129  0.5154  1.4867
13753TIP3    H241182   0.128   8.164   3.997 -2.3926  0.0552  1.3982
13754TIP3   OH241183   1.495   1.086   6.307  0.4332  0.0191  0.2367
13754TIP3    H141184   1.514   1.177   6.287  1.2160 -0.5463 -1.6418
13754TIP3    H241185   1.561   1.036   6.260 -1.2420 -1.6168 -0.4515
13755TIP3   OH241186   3.465   1.852   6.226  0.6263  0.0316 -0.1303
13755TIP3    H141187   3.558   1.835   6.211  1.1557  2.4314  0.1218
13755TIP3    H241188   3.451   1.831   6.318  0.7595 -0.9442 -0.3277
13756TIP3   OH241189   1.482   0.471   5.745  0.3776 -0.0547 -0.4582
13756TIP3    H141190   1.556   0.526   5.719  0.7750 -0.6369 -0.5591
13756TIP3    H241191   1.506   0.435   5.830  0.3836 -0.5577 -0.6688
13757TIP3   OH241192   0.295   6.684   5.039 -0.7472  0.0879 -0.1268
13757TIP3    H141193   0.264   6.638   5.117 -0.7562  0.3330  0.0147
13757TIP3    H241194   0.335   6.764   5.072 -0.5898  0.1069 -0.3612
13758TIP3   OH241195   5.434   7.236   4.657  0.8241  0.4221 -0.0891
13758TIP3    H141196   5.373   7.209   4.588  0.4098  0.0151  0.4381
13758TIP3    H241197   5.463   7.323   4.629  1.8162 -0.3572 -1.5592
13759TIP3   OH241198   1.789   0.317   4.348  0.0469  0.2193 -0.3504
13759TIP3    H141199   1.878   0.285   4.356  0.1483  0.4638 -0.4909
13759TIP3    H241200   1.762   0.339   4.437  0.0550 -0.0394 -0.2820
13760TIP3   OH241201   7.896   7.437   4.371 -0.2750  0.5120  0.0383
13760TIP3    H141202   7.852   7.363   4.412 -0.8826  0.7006 -0.2707
13760TIP3    H241203   7.847   7.513   4.399  0.1220  0.7645  0.0494
13761TIP3   OH241204   8.071   8.345   5.449  0.0648 -0.1770 -0.0561
13761TIP3    H141205   8.112   8.428   5.473 -0.3285 -0.2393  0.8171
13761TIP3    H241206   8.144   8.283   5.446  0.7177  0.6656 -2.9587
13762TIP3   OH241207   7.490   6.382   6.474 -0.0036 -0.1530  0.1306
13762TIP3    H141208   7.472   6.464   6.427  1.1925 -0.5147 -0.9906
13762TIP3    H241209   7.418   6.324   6.448 -0.6323  0.4099  0.6068
13763TIP3   OH241210   6.998   7.644   5.672  0.6614  0.1868 -0.5666
13763TIP3    H141211   7.051   7.670   5.747  0.4987  0.8002 -0.6637
13763TIP3    H241212   7.044   7.679   5.597  2.3385 -2.8061 -1.0200
13764TIP3   OH241213   8.190   7.598   5.439 -0.1290  0.4446  0.4135
13764TIP3    H141214   8.152   7.605   5.352  0.0124  0.3661  0.3466
13764TIP3    H241215   8.115   7.581   5.497 -0.2626  0.8285  0.3531
13765TIP3   OH241216   0.884   6.838   5.878 -0.2219  0.1378 -0.5083
13765TIP3    H141217   0.790   6.828   5.860 -0.0393 -1.5833 -0.6514
13765TIP3    H241218   0.927   6.796   5.804  0.6125 -1.0642  0.6240
13766TIP3   OH241219   2.958   0.973   3.081  0.2930 -0.1216 -0.3360
13766TIP3    H141220   2.948   1.014   3.167  0.9657 -0.0801 -0.2778
13766TIP3    H241221   2.896   1.020   3.025  1.8681  1.8003 -0.5574
13767TIP3   OH241222   6.139   7.104   1.915 -0.0336  0.3750  0.1126
13767TIP3    H141223   6.199   7.056   1.857 -0.9365 -1.3211  0.5487
13767TIP3    H241224   6.193   7.128   1.990  0.2838 -0.5574  0.1967
13768TIP3   OH241225   1.206   6.741   7.073 -0.3120 -0.0088 -0.4192
13768TIP3    H141226   1.276   6.805   7.059  0.9650 -1.1477  0.5329
13768TIP3    H241227   1.208   6.686   6.995  0.3990 -0.5224 -0.0461
13769TIP3   OH241228   6.228   7.044   0.483  0.2930 -0.1568  0.0797
13769TIP3    H141229   6.143   7.027   0.442  0.1610 -0.5184  0.4917
13769TIP3    H241230   6.279   6.965   0.467  0.8242  0.3735 -0.8424
13770TIP3   OH241231   0.552   7.202   3.040  0.2418 -0.0587  0.4434
13770TIP3    H141232   0.588   7.114   3.034 -1.5989 -0.7253 -1.3548
13770TIP3    H241233   0.599   7.252   2.973  3.3771  1.1672  3.3891
13771TIP3   OH241234   7.366   6.176   5.063 -0.0431  0.4539  0.1210
13771TIP3    H141235   7.460   6.190   5.051 -0.3264  2.3906 -0.0863
13771TIP3    H241236   7.352   6.186   5.157 -0.3774  2.6573 -0.1272
13772TIP3   OH241237   3.485   0.198   5.386  0.1291  0.5314 -0.0612
13772TIP3    H141238   3.462   0.254   5.460  0.4454 -0.8735  1.1338
13772TIP3    H241239   3.570   0.229   5.357  1.5076 -0.9279  2.2513
13773TIP3   OH241240   7.186   7.290   6.660  0.2541 -0.0941  0.4586
13773TIP3    H141241   7.212   7.269   6.570 -2.3933 -1.3131 -0.0727
13773TIP3    H241242   7.136   7.371   6.651 -0.5969 -0.5865  0.7341
13774TIP3   OH241243   7.665   7.470   3.951 -0.4573  0.0836  0.6655
13774TIP3    H141244   7.637   7.430   3.868  0.8097 -1.6977  1.0543
13774TIP3    H241245   7.648   7.403   4.017  2.0016  0.0216  1.2921
13775TIP3   OH241246   4.842   6.645   6.192  0.0633 -0.8172 -0.0844
13775TIP3    H141247   4.770   6.664   6.253  0.7049 -0.9302  0.7086
13775TIP3    H241248   4.808   6.672   6.107 -0.4424  0.3524  0.4733
13776TIP3   OH241249   4.238   4.427   0.956  0.1501 -0.2808  0.0960
13776TIP3    H141250   4.305   4.469   0.902 -0.1161 -0.4039 -0.3386
13776TIP3    H241251   4.198   4.499   1.004 -0.4353 -0.0052 -0.7939
13777TIP3   OH241252   1.237   0.297   5.778  0.3162 -0.5071 -0.6453
13777TIP3    H141253   1.182   0.313   5.701 -0.0777 -1.2238 -0.5165
13777TIP3    H241254   1.302   0.367   5.776  0.0184 -0.2477 -1.3701
13778TIP3   OH241255   8.409   5.486   3.002  0.2548  0.0338 -0.0043
13778TIP3    H141256   8.477   5.446   2.949 -0.2023  0.2983 -0.7955
13778TIP3    H241257   8.370   5.412   3.050  1.1981 -0.0913  0.5725
13779TIP3   OH241258   8.179   8.063   4.753 -0.0904 -0.1243 -0.1809
13779TIP3    H141259   8.120   8.001   4.797  0.3004  0.0015  0.5271
13779TIP3    H241260   8.151   8.149   4.786 -1.6932  0.2471 -2.3795
13780TIP3   OH241261   0.105   7.576   4.271 -0.1054 -0.0397  0.0122
13780TIP3    H141262   0.125   7.541   4.358  2.0168 -0.6596 -0.6904
13780TIP3    H241263   0.122   7.503   4.211  3.8994  1.9359 -1.4341
13781TIP3   OH241264   6.234   7.160   4.576  0.2075 -0.1007  0.0270
13781TIP3    H141265   6.317   7.168   4.529  0.1487  0.0933 -0.0481
13781TIP3    H241266   6.195   7.248   4.569  0.9807  0.4090  1.8965
13782TIP3   OH241267   7.609   7.870   5.048  0.2197 -0.4036 -0.1471
13782TIP3    H141268   7.623   7.847   4.956  2.4281 -0.4915  0.1631
13782TIP3    H241269   7.600   7.785   5.092 -1.2326 -0.3496 -0.3264
13783TIP3   OH241270   3.915   1.147   4.708 -0.3349  0.1844  0.0785
13783TIP3    H141271   3.909   1.103   4.624 -3.1732 -0.1774  0.4307
13783TIP3    H241272   3.881   1.084   4.771  0.4731  0.9593  1.3226
13784TIP3   OH241273   6.653   7.443   5.525 -0.5448 -0.0707  0.6640
13784TIP3    H141274   6.705   7.391   5.464 -1.0978 -0.8120  0.8156
13784TIP3    H241275   6.644   7.528   5.482 -2.4069 -1.1273 -1.1206
13785TIP3   OH241276   7.407   6.170   4.704 -0.3881  0.0686 -0.1616
13785TIP3    H141277   7.333   6.209   4.750 -0.4128 -1.1229  0.8462
13785TIP3    H241278   7.481   6.229   4.722 -0.8345  0.6505 -0.2211
13786TIP3   OH241279   2.571   0.128   4.671 -0.0901  0.1896  0.0336
13786TIP3    H141280   2.554   0.085   4.587  0.7550 -2.2376  1.0416
13786TIP3    H241281   2.499   0.100   4.727 -0.6135  1.7448  0.1685
13787TIP3   OH241282   5.902   5.212   0.722  0.0378  0.2179 -0.3271
13787TIP3    H141283   5.809   5.219   0.745  0.4879  0.1768  1.5613
13787TIP3    H241284   5.948   5.211   0.806  1.8453  1.4769 -1.2549
13788TIP3   OH241285   7.374   5.764   3.287  0.0680  0.0542 -0.1355
13788TIP3    H141286   7.343   5.687   3.240  2.2118 -0.5156 -0.6472
13788TIP3    H241287   7.463   5.778   3.255  0.2831  1.7901  1.1324
13789TIP3   OH241288   4.198   1.127   3.384 -0.2810  0.5419 -0.3584
13789TIP3    H141289   4.200   1.211   3.429 -0.4734  0.8878 -0.9986
13789TIP3    H241290   4.263   1.074   3.430 -0.6693  0.8061  0.5056
13790TIP3   OH241291   2.097   0.491   2.847 -0.1708  0.3517 -0.1356
13790TIP3    H141292   2.014   0.524   2.814  0.0909  0.1977 -0.9696
13790TIP3    H241293   2.151   0.479   2.768  0.2041 -0.7401  0.2828
13791TIP3   OH241294   8.273   7.460   4.013 -0.3004  0.7910  0.0373
13791TIP3    H141295   8.261   7.555   4.008 -1.6649  0.5608 -1.7745
13791TIP3    H241296   8.193   7.428   4.054 -0.9921  0.2401 -1.6698
13792TIP3   OH241297   0.203   6.263   4.871  0.7698 -0.4665 -0.4501
13792TIP3    H141298   0.164   6.304   4.794 -2.2913 -0.1107  1.1973
13792TIP3    H241299   0.278   6.319   4.893 -0.3017  1.3197 -1.2246
13793TIP3   OH241300   4.124   6.563   4.575 -0.4950  0.1399  0.0286
13793TIP3    H141301   4.152   6.506   4.646 -0.8545 -0.0809 -0.0072
13793TIP3    H241302   4.125   6.507   4.497 -2.7396 -0.3352  0.3252
13794TIP3   OH241303   3.092   1.132   4.572 -0.4320  0.0373 -0.6574
13794TIP3    H141304   3.084   1.062   4.637  1.4407 -0.0691 -0.5266
13794TIP3    H241305   3.016   1.188   4.589 -0.8198 -0.8393  0.5880
13795TIP3   OH241306   5.502   5.055   0.695  0.0622 -0.2101  0.6181
13795TIP3    H141307   5.484   5.146   0.672  0.2607 -0.3256  0.0133
13795TIP3    H241308   5.417   5.011   0.684 -0.0242 -0.1081  0.8684
13796TIP3   OH241309   2.371   0.941   1.247  0.2987 -0.1417  0.4190
13796TIP3    H141310   2.368   1.035   1.230  1.1597 -0.1892 -0.0318
13796TIP3    H241311   2.374   0.901   1.161 -0.8026 -0.6179  0.5974
13797TIP3   OH241312   2.408   0.148   3.282 -0.0831 -0.2158  0.4051
13797TIP3    H141313   2.319   0.141   3.248  0.1975 -1.5809 -0.0774
13797TIP3    H241314   2.398   0.186   3.369 -1.1311 -0.3609  0.3556
13798TIP3   OH241315   1.978   7.403   4.760  0.2228 -0.6811  0.5899
13798TIP3    H141316   1.885   7.389   4.781 -0.5122  2.1985 -0.4935
13798TIP3    H241317   2.009   7.460   4.830  0.4263  0.6652 -0.5894
13799TIP3   OH241318   8.410   7.366   5.158 -0.0571  0.4271 -0.0503
13799TIP3    H141319   8.485   7.365   5.217  0.8609  0.0947 -1.2252
13799TIP3    H241320   8.369   7.452   5.173  1.2699  1.1122 -0.3264
13800TIP3   OH241321   1.423   1.233   4.755  0.3319 -0.2316 -0.1441
13800TIP3    H141322   1.407   1.326   4.745 -0.1121  0.1157  3.1314
13800TIP3    H241323   1.344   1.191   4.720 -0.3331  0.7128  0.2272
13801TIP3   OH241324   6.719   7.151   3.029 -0.1670  0.1038  0.1041
13801TIP3    H141325   6.749   7.239   3.007 -0.6257  0.1724 -0.2621
13801TIP3    H241326   6.669   7.161   3.110 -0.0190  0.1428  0.1901
13802TIP3   OH241327   3.660   0.281   5.661 -0.9037 -0.5822  0.6897
13802TIP3    H141328   3.624   0.354   5.611 -1.4990 -0.2041  1.6397
13802TIP3    H241329   3.748   0.310   5.686 -1.7208  0.5373  2.4559
13803TIP3   OH241330   0.640   1.196   3.640  0.1578  0.5725  0.3057
13803TIP3    H141331   0.711   1.217   3.700  0.9555  0.0669 -0.4453
13803TIP3    H241332   0.684   1.166   3.560 -0.9004 -1.3435  0.4078
13804TIP3   OH241333   3.322   0.832   5.865  0.4037 -0.8844 -0.1478
13804TIP3    H141334   3.335   0.927   5.858  0.0918 -0.9039 -1.0441
13804TIP3    H241335   3.337   0.799   5.777 -0.9447 -1.4871 -0.1717
13805TIP3   OH241336   0.395   8.171   5.200 -0.2680 -0.4724 -0.1141
13805TIP3    H141337   0.428   8.220   5.276 -1.4201 -0.1250  0.1674
13805TIP3    H241338   0.307   8.204   5.186 -0.9756 -2.2703 -0.0818
13806TIP3   OH241339   7.750   8.104   5.104 -0.1327 -0.2329 -0.3714
13806TIP3    H141340   7.843   8.095   5.126 -0.3817 -0.5529  0.5674
13806TIP3    H241341   7.725   8.017   5.073  0.5581  0.5515 -3.3353
13807TIP3   OH241342   0.495   6.520   3.629  0.1665 -0.2559 -0.1449
13807TIP3    H141343   0.400   6.513   3.636  0.1003 -0.4432 -1.1468
13807TIP3    H241344   0.528   6.434   3.654 -0.0224 -0.6959 -1.3803
13808TIP3   OH241345   1.484   6.869   3.712  0.0031  0.6934 -0.0896
13808TIP3    H141346   1.573   6.836   3.717 -0.6148 -0.8385  1.2034
13808TIP3    H241347   1.453   6.870   3.803 -1.7356 -0.0090 -0.6451
13809TIP3   OH241348   7.485   6.066   5.858 -0.1684 -0.1472  0.0682
13809TIP3    H141349   7.479   6.042   5.766 -1.3432  1.2136 -0.2332
13809TIP3    H241350   7.471   5.985   5.906 -0.2708 -0.7314 -0.9505
13810TIP3   OH241351   7.936   7.062   4.140 -0.4399 -0.3900  0.0658
13810TIP3    H141352   8.022   7.023   4.150 -1.1738 -1.9325  0.5395
13810TIP3    H241353   7.915   7.048   4.047  0.9633  2.4560 -0.7128
13811TIP3   OH241354   0.981   8.373   5.842 -0.1909  0.5001 -0.4828
13811TIP3    H141355   1.058   8.411   5.798 -1.6738  1.5831 -2.2560
13811TIP3    H241356   1.016   8.331   5.920  2.0801  1.8756 -0.7014
13812TIP3   OH241357   8.356   6.239   2.673 -0.0623 -0.2548  0.6973
13812TIP3    H141358   8.424   6.306   2.681  0.4288 -0.7068  0.3207
13812TIP3    H241359   8.338   6.213   2.763 -0.1195  0.2565  0.8324
13813TIP3   OH241360   1.287   8.250   4.804  0.0373 -0.3287  0.2368
13813TIP3    H141361   1.221   8.301   4.758 -0.7767 -0.7109  0.9669
13813TIP3    H241362   1.361   8.310   4.814  0.0389 -0.1034 -1.1344
13814TIP3   OH241363   7.608   7.018   4.256  0.1957 -0.0816 -0.3978
13814TIP3    H141364   7.584   6.946   4.198 -0.6816  0.6452 -0.9425
13814TIP3    H241365   7.553   7.005   4.334  0.1280 -0.0719 -0.4441
13815TIP3   OH241366   1.085   1.391   4.946  0.3825  0.0816  0.0846
13815TIP3    H141367   1.115   1.305   4.975 -0.0701 -0.2709 -0.4909
13815TIP3    H241368   1.158   1.425   4.894  0.0910 -0.4469 -0.6666
13816TIP3   OH241369   7.264   7.839   4.508 -0.1088 -0.3013  0.1141
13816TIP3    H141370   7.213   7.800   4.578 -2.1502  2.3977  0.1917
13816TIP3    H241371   7.201   7.888   4.456  1.9136  0.6140 -1.5729
13817TIP3   OH241372   1.390   0.076   5.846 -0.6879 -0.4130  0.3013
13817TIP3    H141373   1.346   0.157   5.822  0.0781 -0.1761 -0.3167
13817TIP3    H241374   1.446   0.056   5.771 -1.8926 -2.2514 -0.1580
13818TIP3   OH241375   8.381   5.698   4.644 -0.1788 -0.2226  0.2068
13818TIP3    H141376   8.372   5.664   4.555 -0.7172 -0.2325  0.2627
13818TIP3    H241377   8.298   5.674   4.687 -0.2276  0.4469  0.4864
13819TIP3   OH241378   8.569   7.881   4.844 -0.0901 -0.1649  0.4577
13819TIP3    H141379   8.648   7.828   4.848  1.5444  2.2032 -0.0182
13819TIP3    H241380   8.540   7.873   4.753  0.5881  0.3838  0.1941
13820TIP3   OH241381   3.884   0.153   5.506 -0.0261  0.1110  0.0254
13820TIP3    H141382   3.868   0.247   5.491  0.9003 -0.0019 -1.6890
13820TIP3    H241383   3.796   0.115   5.511 -0.5038  1.4159  3.2363
13821TIP3   OH241384   4.537   1.249   0.481  0.9201  0.3508  0.1372
13821TIP3    H141385   4.488   1.313   0.532  0.6460 -1.2434  1.9292
13821TIP3    H241386   4.494   1.166   0.499  1.3513 -0.3802 -2.0404
13822TIP3   OH241387   2.178   6.867   5.702 -0.0413 -0.3934  0.1287
13822TIP3    H141388   2.220   6.853   5.617  1.7774  1.5308  0.6841
13822TIP3    H241389   2.144   6.781   5.726  2.4759 -1.7467 -0.9572
13823TIP3   OH241390   5.982   8.207   5.243 -0.3027  0.0450 -0.1965
13823TIP3    H141391   5.928   8.224   5.165 -1.5451  1.4073  0.9207
13823TIP3    H241392   6.064   8.253   5.226 -0.7214  0.6804 -0.5332
13824TIP3   OH241393   7.104   6.907   3.272 -0.1876 -0.1445  0.1601
13824TIP3    H141394   7.061   6.970   3.214 -2.8661 -2.3902 -0.3985
13824TIP3    H241395   7.167   6.959   3.322 -1.3023  2.6929 -1.2885
13825TIP3   OH241396   2.249   0.360   4.643  0.0380 -0.3991 -0.0648
13825TIP3    H141397   2.260   0.285   4.701 -1.1864 -1.6306 -1.3817
13825TIP3    H241398   2.333   0.367   4.597  0.4846 -0.3658  0.7481
13826TIP3   OH241399   7.199   6.685   4.846  0.3019 -0.0544 -0.1195
13826TIP3    H141400   7.176   6.596   4.873 -0.3390  0.3435  0.6344
13826TIP3    H241401   7.295   6.684   4.841  0.3480 -0.5389  0.7336
13827TIP3   OH241402   7.271   7.229   4.476 -0.3662  0.3523 -0.0674
13827TIP3    H141403   7.323   7.300   4.438 -1.1999  0.4271 -1.0884
13827TIP3    H241404   7.196   7.273   4.516 -1.5920 -0.0336 -1.8762
13828TIP3   OH241405   5.967   8.277   5.696 -0.1015  0.4679 -0.2520
13828TIP3    H141406   5.947   8.371   5.698  0.1996  0.8006 -5.2000
13828TIP3    H241407   5.884   8.235   5.673  0.2304 -0.2424 -0.1516
13829TIP3   OH241408   6.716   7.674   3.119 -0.9392  0.2175  0.1710
13829TIP3    H141409   6.788   7.692   3.059 -1.9644  0.3248 -1.0644
13829TIP3    H241410   6.757   7.660   3.204  0.6376 -1.1934 -0.8072
13830TIP3   OH241411   8.222   7.283   3.565  0.2432  0.0194 -0.3682
13830TIP3    H141412   8.285   7.328   3.621  0.3464 -0.8074  0.1910
13830TIP3    H241413   8.153   7.254   3.625  1.7842 -3.4774 -0.1159
13831TIP3   OH241414   3.654   4.913   0.771 -0.0537 -0.1623 -0.4248
13831TIP3    H141415   3.717   4.904   0.842  1.8365  0.9196 -1.9486
13831TIP3    H241416   3.604   4.992   0.793 -1.5201 -1.4905  1.2216
13832TIP3   OH241417   3.085   0.327   3.119 -0.4311  1.0105 -0.8703
13832TIP3    H141418   3.122   0.241   3.098 -0.5076  0.7789 -0.0752
13832TIP3    H241419   2.991   0.313   3.124 -0.3258  0.8304  0.6962
13833TIP3   OH241420   8.467   7.911   5.343  0.6397  0.1003 -0.2582
13833TIP3    H141421   8.499   7.995   5.376 -0.3443  0.4249 -0.1062
13833TIP3    H241422   8.495   7.910   5.251 -0.7084  1.3051 -0.6952
13834TIP3   OH241423   8.337   8.240   2.632 -0.2717  0.3597  0.2939
13834TIP3    H141424   8.318   8.228   2.539 -2.6342 -2.3156  1.0216
13834TIP3    H241425   8.420   8.193   2.646 -0.6883 -0.5268 -0.1888
13835TIP3   OH241426   7.674   7.318   4.982 -0.1958 -0.0297  0.5967
13835TIP3    H141427   7.753   7.296   4.933  0.6781 -0.1187  2.0252
13835TIP3    H241428   7.615   7.244   4.966  0.0146  0.0140 -0.4318
13836TIP3   OH241429   4.871   1.398   0.859  0.2480 -0.4945  0.3118
13836TIP3    H141430   4.921   1.430   0.783  0.5214 -1.7282 -0.0428
13836TIP3    H241431   4.815   1.329   0.823 -0.6471 -0.1261  0.9816
13837TIP3   OH241432   8.088   6.179   3.023 -0.4924 -0.4612 -0.3140
13837TIP3    H141433   8.106   6.258   3.074 -1.4196  0.3160 -1.1549
13837TIP3    H241434   8.169   6.164   2.974 -0.7082  0.6727 -1.0406
13838TIP3   OH241435   1.297   0.858   5.320 -0.2150  0.4311 -0.0139
13838TIP3    H141436   1.229   0.898   5.266  0.3279  0.6944 -0.5081
13838TIP3    H241437   1.282   0.892   5.408 -0.8952  0.2678 -0.0689
13839TIP3   OH241438   7.712   7.766   3.797  0.0309  0.4513  0.2030
13839TIP3    H141439   7.716   7.670   3.787  0.0810  0.6535 -1.7225
13839TIP3    H241440   7.619   7.786   3.794  0.1320  0.6763 -1.3850
13840TIP3   OH241441   7.427   6.672   2.738 -0.0916 -0.1354 -0.1607
13840TIP3    H141442   7.373   6.611   2.688  1.0053  0.0683 -1.6177
13840TIP3    H241443   7.517   6.654   2.711  0.2824  1.9304 -0.4345
13841TIP3   OH241444   6.839   8.023   5.187  0.4114  0.1733  0.4207
13841TIP3    H141445   6.789   7.953   5.144  0.6352  0.7727 -0.8411
13841TIP3    H241446   6.841   7.998   5.279  0.2958 -1.3733  0.0216
13842TIP3   OH241447   7.913   6.681   5.006  0.5271  0.3528 -0.4496
13842TIP3    H141448   7.895   6.774   4.989  1.7781  0.3994 -1.5975
13842TIP3    H241449   8.006   6.670   4.983  0.7734 -0.8723  1.0040
13843TIP3   OH241450   6.676   4.557   0.576  0.3945 -0.1642 -0.3420
13843TIP3    H141451   6.747   4.533   0.636  0.3698  2.2160  0.7030
13843TIP3    H241452   6.642   4.473   0.545  2.1959 -1.3941  0.8598
13844TIP3   OH241453   4.331   0.224   6.270 -0.2178 -0.3746  0.2526
13844TIP3    H141454   4.408   0.228   6.213 -2.1330  0.4274 -2.3918
13844TIP3    H241455   4.298   0.135   6.259 -0.0395 -0.5210  0.8880
13845TIP3   OH241456   0.881   7.821   0.712 -0.6149  0.0252 -0.2459
13845TIP3    H141457   0.909   7.878   0.640 -0.9724  1.3326  0.6423
13845TIP3    H241458   0.834   7.750   0.669  1.0006 -0.3341 -1.4785
13846TIP3   OH241459   3.028   1.487   2.771 -0.1252  0.4574 -0.1255
13846TIP3    H141460   3.055   1.476   2.679  0.4246 -3.1124  0.4074
13846TIP3    H241461   2.939   1.453   2.774  0.1829 -0.2796  0.8353
13847TIP3   OH241462   6.886   6.784   5.927  0.7167 -0.4258 -0.4972
13847TIP3    H141463   6.940   6.833   5.865  1.1006 -0.3835 -0.1294
13847TIP3    H241464   6.906   6.822   6.012 -0.4742  0.1237 -0.4454
13848TIP3   OH241465   0.610   4.665   6.497  0.0643  0.5506 -0.3929
13848TIP3    H141466   0.674   4.715   6.548 -0.5533  0.0898  0.8517
13848TIP3    H241467   0.580   4.726   6.430  0.2383  1.4679  0.3472
13849TIP3   OH241468   4.206   2.420   0.261 -0.4767 -0.1464 -0.2267
13849TIP3    H141469   4.298   2.410   0.286 -0.5721 -1.1475 -0.2924
13849TIP3    H241470   4.178   2.333   0.235 -1.8061 -0.1123  1.0037
13850TIP3   OH241471   6.332   4.561   7.012  0.4043 -0.1105  0.0598
13850TIP3    H141472   6.319   4.483   6.957  0.1703  0.8841 -1.3279
13850TIP3    H241473   6.259   4.618   6.991 -0.2859 -0.1480  2.2420
13851TIP3   OH241474   8.118   7.614   5.175  0.1665 -0.0760  0.2215
13851TIP3    H141475   8.027   7.615   5.147  0.8225  1.0182 -1.9732
13851TIP3    H241476   8.163   7.561   5.110  1.3750  0.8189  0.3063
13852TIP3   OH241477   5.458   7.204   3.402  0.2191  0.8621  0.4832
13852TIP3    H141478   5.366   7.229   3.410 -0.3659 -1.2075  0.4777
13852TIP3    H241479   5.489   7.248   3.323 -1.1944  0.3715 -0.3575
13853TIP3   OH241480   3.675   0.279   4.865  0.7944  0.5151  0.5641
13853TIP3    H141481   3.744   0.213   4.862  0.7043  0.4231  0.5387
13853TIP3    H241482   3.594   0.230   4.856  0.7514  0.6802  0.0137
13854TIP3   OH241483   7.238   7.967   5.199  0.1549 -0.0181  0.1266
13854TIP3    H141484   7.217   7.878   5.170  0.9866 -0.4224  0.7636
13854TIP3    H241485   7.173   7.984   5.268 -0.6820  0.2717 -0.7285
13855TIP3   OH241486   0.700   7.577   4.528 -0.0425 -0.2400 -0.0173
13855TIP3    H141487   0.605   7.578   4.516  0.1275  3.2858 -1.6584
13855TIP3    H241488   0.734   7.536   4.448 -0.1018  0.3979 -0.3733
13856TIP3   OH241489   7.944   7.567   3.432 -0.0853  0.6496  0.2617
13856TIP3    H141490   8.004   7.638   3.409 -0.1724  0.9450  0.9249
13856TIP3    H241491   7.983   7.489   3.394  1.7123  0.5340  2.3128
13857TIP3   OH241492   3.988   1.398   4.243 -0.6207  0.2250  0.0792
13857TIP3    H141493   3.942   1.328   4.289  0.5019 -1.1827 -0.8962
13857TIP3    H241494   3.961   1.389   4.152  1.7717 -0.8675 -0.5851
13858TIP3   OH241495   0.859   8.053   4.509 -0.6275  0.3717  0.3433
13858TIP3    H141496   0.852   7.975   4.565 -1.2444 -0.1887 -0.5113
13858TIP3    H241497   0.822   8.123   4.562 -2.0485 -0.3369  0.2983
13859TIP3   OH241498   7.954   2.022   0.430 -0.0850  0.0230  0.5929
13859TIP3    H141499   8.034   2.037   0.379 -0.5706 -1.1428 -0.5662
13859TIP3    H241500   7.945   1.926   0.431 -0.9323  0.1121  1.5457
13860TIP3   OH241501   5.609   0.326   3.651 -0.1135 -0.6874 -0.1668
13860TIP3    H141502   5.609   0.380   3.730  1.3235  1.0526 -1.2926
13860TIP3    H241503   5.531   0.354   3.603  1.1981  1.2902 -1.2633
13861TIP3   OH241504   0.028   6.639   1.487  0.2232 -0.2970  0.1050
13861TIP3    H141505  -0.033   6.712   1.495 -0.7857 -0.9055 -1.6931
13861TIP3    H241506   0.115   6.680   1.492 -0.3257  0.8009  0.8395
13862TIP3   OH241507   3.389   0.418   5.524 -0.0586 -0.4163  0.1898
13862TIP3    H141508   3.344   0.380   5.599 -3.1366 -0.0626 -1.3689
13862TIP3    H241509   3.431   0.497   5.557 -1.4184 -0.2445  1.5368
13863TIP3   OH241510   6.687   7.431   6.858  0.3778  0.0215  0.4546
13863TIP3    H141511   6.760   7.387   6.901 -0.2798  0.5372  2.1219
13863TIP3    H241512   6.611   7.415   6.914 -0.7408 -0.2075 -1.0673
13864TIP3   OH241513   8.497   6.962   5.235 -0.0221  0.4622  0.2368
13864TIP3    H141514   8.486   6.931   5.145 -1.3666  3.1800 -0.5953
13864TIP3    H241515   8.440   6.906   5.287  2.0567 -2.2538 -0.2999
13865TIP3   OH241516   0.741   7.840   4.656 -0.2522  0.1881  0.3183
13865TIP3    H141517   0.776   7.788   4.729 -0.1034 -0.9414 -0.5455
13865TIP3    H241518   0.705   7.775   4.596 -2.8906  1.2746  0.6679
13866TIP3   OH241519   0.461   6.813   3.755 -0.0157 -0.3018  0.1412
13866TIP3    H141520   0.513   6.845   3.681  1.5094  0.2935  1.4384
13866TIP3    H241521   0.466   6.717   3.748  0.5049 -0.2476 -0.2424
13867TIP3   OH241522   7.903   7.473   5.076 -0.0354  0.5925  0.3807
13867TIP3    H141523   7.970   7.427   5.026  0.7249 -1.2459  2.9859
13867TIP3    H241524   7.828   7.478   5.017  0.8885 -1.3267 -1.0158
13868TIP3   OH241525   5.485   7.257   5.769  0.2014  0.0966  0.0104
13868TIP3    H141526   5.416   7.197   5.797  0.5286 -0.2316  0.1195
13868TIP3    H241527   5.558   7.200   5.746  0.3273  0.4289 -0.4049
13869TIP3   OH241528   2.218   0.614   5.671  0.0998 -0.3452 -0.6174
13869TIP3    H141529   2.273   0.693   5.674  0.3575 -0.5679  2.6560
13869TIP3    H241530   2.148   0.631   5.734 -0.8834 -2.0065 -1.2239
13870TIP3   OH241531   6.214   8.220   6.785  0.3446 -0.1433 -0.1140
13870TIP3    H141532   6.204   8.250   6.695  1.0922 -0.3721 -0.2799
13870TIP3    H241533   6.197   8.297   6.839  1.0305  0.2678 -0.4933
13871TIP3   OH241534   4.465   0.049   5.568  0.1493 -0.1892 -0.4731
13871TIP3    H141535   4.537  -0.013   5.560 -0.5605 -1.4406  2.2708
13871TIP3    H241536   4.403   0.023   5.500  0.7136 -1.3036 -0.5742
13872TIP3   OH241537   7.486   7.123   5.006 -0.6274  0.1086  0.5758
13872TIP3    H141538   7.513   7.049   4.950  1.3532 -0.1084  1.7817
13872TIP3    H241539   7.495   7.090   5.095  1.2884  2.1175  1.1691
13873TIP3   OH241540   7.250   6.848   4.600  0.3319  0.1491  1.1244
13873TIP3    H141541   7.194   6.847   4.677 -0.0920  0.4701  0.8173
13873TIP3    H241542   7.243   6.760   4.564 -1.9850  0.9158 -0.3716
13874TIP3   OH241543   8.219   2.540   0.097 -0.0472  1.0455  0.0606
13874TIP3    H141544   8.285   2.573   0.036  0.7840  0.5659  0.6969
13874TIP3    H241545   8.203   2.612   0.157 -0.5888  1.3888 -0.4898
13875TIP3   OH241546   6.888   7.390   5.634  0.0992 -0.0017  0.3620
13875TIP3    H141547   6.933   7.473   5.652  0.0113 -0.0706  0.9144
13875TIP3    H241548   6.801   7.416   5.604  0.6444  0.1421 -1.1300
13876TIP3   OH241549   7.262   7.874   5.991  0.0343 -0.3111 -0.1484
13876TIP3    H141550   7.319   7.901   6.062 -2.3077  2.1068  0.8870
13876TIP3    H241551   7.298   7.917   5.913  0.5927 -0.1406  0.2068
13877TIP3   OH241552   8.416   7.623   5.290 -0.7951 -0.1069  0.5266
13877TIP3    H141553   8.462   7.699   5.327  0.3366 -0.0280 -0.9930
13877TIP3    H241554   8.332   7.620   5.337 -0.4294  1.4705  1.3070
13878TIP3   OH241555   7.143   6.878   5.013 -0.4071  0.5681 -0.2399
13878TIP3    H141556   7.180   6.817   4.949  0.0414  0.7954 -0.2025
13878TIP3    H241557   7.190   6.859   5.094 -0.2030  1.0136 -0.2490
13879TIP3   OH241558   3.451   4.491   0.811  0.4242  0.1639 -0.0147
13879TIP3    H141559   3.461   4.574   0.763  0.6834 -0.1273 -0.4735
13879TIP3    H241560   3.540   4.468   0.838  0.5242 -0.5742 -0.9332
13880TIP3   OH241561   4.138   7.392   4.217 -0.2615 -0.4847 -0.1991
13880TIP3    H141562   4.161   7.301   4.234 -1.1129 -0.5508  0.5988
13880TIP3    H241563   4.122   7.429   4.304  1.6810  0.8620 -0.3674
13881TIP3   OH241564   0.823   8.030   5.356 -0.7540  0.2345  0.0307
13881TIP3    H141565   0.729   8.013   5.355 -0.6404 -0.4678 -2.0636
13881TIP3    H241566   0.842   8.056   5.446 -2.8158 -0.3247  0.6547
13882TIP3   OH241567   3.835   2.102   5.431 -0.2959  0.0607 -0.1574
13882TIP3    H141568   3.742   2.122   5.418 -1.1730 -3.6181 -0.3138
13882TIP3    H241569   3.859   2.049   5.355  1.5011 -0.3047  0.6363
13883TIP3   OH241570   1.634   1.036   4.816 -0.0751 -0.1036 -0.4372
13883TIP3    H141571   1.567   1.066   4.754 -0.4561 -0.4532 -0.1976
13883TIP3    H241572   1.627   0.940   4.813  0.3255 -0.1352 -0.3149
13884TIP3   OH241573   1.872   7.050   5.386  0.0047 -0.0664 -0.4645
13884TIP3    H141574   1.936   7.089   5.446  0.7346  0.6123 -1.6620
13884TIP3    H241575   1.925   7.016   5.314 -0.8154 -1.4209 -0.4448
13885TIP3   OH241576   1.825   1.261   6.965  0.5636  0.3140  0.0258
13885TIP3    H141577   1.891   1.199   6.933 -0.8582 -0.8328 -0.7128
13885TIP3    H241578   1.806   1.317   6.890 -1.2127 -1.0309 -0.5650
13886TIP3   OH241579   5.644   8.268   7.188 -0.4836  0.5352 -0.3475
13886TIP3    H141580   5.713   8.269   7.255  0.2082 -1.2996 -1.0052
13886TIP3    H241581   5.639   8.359   7.157  1.7252  0.6684 -0.3778
13887TIP3   OH241582   4.975   6.790   3.563  0.4418  0.3188  0.2672
13887TIP3    H141583   4.994   6.812   3.655  0.0101  2.3534 -0.0943
13887TIP3    H241584   4.881   6.774   3.561  0.5638 -0.4323  0.2964
13888TIP3   OH241585   8.333   6.837   4.469 -0.4691 -0.0943 -0.4912
13888TIP3    H141586   8.357   6.882   4.550  0.6868 -0.9395 -0.3514
13888TIP3    H241587   8.239   6.822   4.476 -0.4455  0.2265  0.4925
13889TIP3   OH241588   7.404   4.443   3.539  0.2825  0.3343 -0.1458
13889TIP3    H141589   7.344   4.416   3.608 -0.4985 -0.3916 -1.0821
13889TIP3    H241590   7.356   4.512   3.492 -0.4748 -1.3097 -1.8385
13890TIP3   OH241591   7.520   6.670   5.527 -0.0147 -0.6747 -0.2139
13890TIP3    H141592   7.533   6.610   5.453  1.1927 -1.4759  0.6239
13890TIP3    H241593   7.497   6.613   5.600  1.2062 -0.1244  0.6084
13891TIP3   OH241594   5.681   7.306   5.280  0.6173  0.1204  0.6671
13891TIP3    H141595   5.745   7.237   5.298  1.3388  0.7777  0.6348
13891TIP3    H241596   5.678   7.357   5.361 -1.3786 -1.1022  1.3947
13892TIP3   OH241597   7.338   7.284   4.857  0.4042 -0.1183 -0.9077
13892TIP3    H141598   7.403   7.349   4.828  0.5891  0.2570  0.3203
13892TIP3    H241599   7.390   7.215   4.897  0.0820 -0.0812 -0.4252
13893TIP3   OH241600   7.692   7.054   2.843 -0.2603  0.1274 -0.1680
13893TIP3    H141601   7.750   7.100   2.782 -0.0327 -1.1738 -0.9603
13893TIP3    H241602   7.605   7.087   2.823 -0.0890  0.2896 -0.6585
13894TIP3   OH241603   6.009   5.614   3.402 -0.4668 -0.1377 -0.1139
13894TIP3    H141604   6.087   5.603   3.348  1.8230 -0.6122  3.0936
13894TIP3    H241605   5.983   5.524   3.424 -1.3738  0.0411 -0.4651
13895TIP3   OH241606   1.346   8.139   6.250  0.1905  0.3161 -0.8650
13895TIP3    H141607   1.312   8.059   6.289  0.1696  0.0187 -1.4824
13895TIP3    H241608   1.440   8.138   6.270 -0.2751  1.5006  1.4616
13896TIP3   OH241609   7.086   7.291   3.061 -0.1945 -0.7001  0.1661
13896TIP3    H141610   7.060   7.199   3.066 -1.9070 -0.1273  2.4072
13896TIP3    H241611   7.179   7.291   3.082 -0.0652 -1.9698 -0.3530
13897TIP3   OH241612   4.049   0.483   5.151  0.5638  0.0079 -0.5228
13897TIP3    H141613   4.002   0.412   5.107 -1.7979 -0.2020  2.1793
13897TIP3    H241614   4.036   0.559   5.094 -0.1272 -0.8630 -1.5363
13898TIP3   OH241615   0.975   7.929   3.846  0.2769 -0.0273  0.4731
13898TIP3    H141616   0.971   7.873   3.924 -0.5526 -0.6074  0.0269
13898TIP3    H241617   0.960   7.869   3.773  1.2539  0.4794 -0.1500
13899TIP3   OH241618   0.873   5.473   6.463  0.0512 -0.0769  0.0805
13899TIP3    H141619   0.940   5.532   6.427  0.4705 -2.0356 -2.5130
13899TIP3    H241620   0.917   5.389   6.469 -1.0800 -0.5544  2.0381
13900TIP3   OH241621   0.061   8.225   3.812  0.2036  0.5766 -0.2724
13900TIP3    H141622   0.024   8.310   3.790  0.9635  1.1032  0.4583
13900TIP3    H241623  -0.011   8.163   3.798 -1.3840  1.7321  2.3503
13901TIP3   OH241624   0.761   6.730   6.179 -0.2221 -0.6338 -0.1033
13901TIP3    H141625   0.752   6.722   6.274  0.6813  1.2279  0.1530
13901TIP3    H241626   0.717   6.652   6.145 -1.3089 -0.8853  1.7952
13902TIP3   OH241627   0.248   8.360   4.404  0.8406 -0.4942  0.0162
13902TIP3    H141628   0.223   8.453   4.405 -1.8465 -1.1468 -1.4613
13902TIP3    H241629   0.229   8.330   4.493 -1.1961 -0.3021 -0.3220
13903TIP3   OH241630   1.632   7.610   4.770  0.1118  0.7405 -0.3511
13903TIP3    H141631   1.586   7.527   4.782  0.8571  0.5176  1.0538
13903TIP3    H241632   1.666   7.606   4.680  2.0233 -1.4272  0.4357
13904TIP3   OH241633   1.839   6.988   4.027 -0.0205 -0.1849  0.0767
13904TIP3    H141634   1.833   6.932   4.105 -0.1649  0.6681  0.6821
13904TIP3    H241635   1.758   7.038   4.027  0.6805  0.9670  0.2634
13905TIP3   OH241636   2.158   0.105   3.871 -0.0548 -0.3730  0.0127
13905TIP3    H141637   2.076   0.072   3.835  0.3260 -0.5760 -0.6694
13905TIP3    H241638   2.181   0.180   3.816  0.4673 -0.6163 -0.1080
13906TIP3   OH241639   1.754   2.076   5.833  0.3990  0.8081  0.4986
13906TIP3    H141640   1.825   2.132   5.864 -0.2456  0.6493  2.3476
13906TIP3    H241641   1.683   2.093   5.895 -1.1829  0.9781 -1.3284
13907TIP3   OH241642   8.056   6.353   4.869 -0.2481  0.2717  0.1520
13907TIP3    H141643   7.976   6.337   4.919 -0.2941 -2.0224 -0.5628
13907TIP3    H241644   8.109   6.408   4.925 -1.4321  0.0166  1.5645
13908TIP3   OH241645   8.770   7.234   4.212 -0.4669  0.3066  0.1184
13908TIP3    H141646   8.724   7.151   4.204  0.2042 -0.0857  0.2633
13908TIP3    H241647   8.706   7.294   4.251 -1.0553 -0.0508 -0.2950
13909TIP3   OH241648   1.616   7.365   4.231  0.0121  0.0774 -0.1529
13909TIP3    H141649   1.665   7.337   4.308 -0.3841  0.7185  0.3386
13909TIP3    H241650   1.530   7.390   4.265  0.1163  1.1838 -0.6771
13910TIP3   OH241651   2.415   7.500   2.729 -0.0172 -0.0681 -0.1141
13910TIP3    H141652   2.473   7.554   2.674 -0.4782  0.0091 -0.5323
13910TIP3    H241653   2.342   7.559   2.752 -0.3741 -0.4246 -0.3265
13911TIP3   OH241654   1.295   6.114   4.695 -0.5519  0.0761  0.0798
13911TIP3    H141655   1.325   6.146   4.610  0.3720 -0.9460  0.0009
13911TIP3    H241656   1.361   6.049   4.720 -0.7209  0.4864  1.6483
13912TIP3   OH241657   1.239   7.610   3.137  0.9858  0.0341  0.0672
13912TIP3    H141658   1.285   7.528   3.119  1.0739  0.0582  0.1724
13912TIP3    H241659   1.172   7.617   3.070  1.4938  0.2673 -0.4244
13913TIP3   OH241660   2.921   6.375   3.121  0.3121 -0.2957 -0.2877
13913TIP3    H141661   2.879   6.337   3.044 -0.2081 -0.8721  0.2765
13913TIP3    H241662   2.928   6.468   3.101 -2.5849  0.0526  0.2377
13914TIP3   OH241663   3.419   0.758   2.887  0.0148  0.0236  0.1626
13914TIP3    H141664   3.408   0.824   2.818  1.6031 -0.8231 -0.9492
13914TIP3    H241665   3.335   0.757   2.932 -0.8778  1.0283 -1.3909
13915TIP3   OH241666   7.813   7.154   4.389 -0.5607  0.1248 -0.6168
13915TIP3    H141667   7.733   7.124   4.347 -1.7839 -0.2572  1.9157
13915TIP3    H241668   7.883   7.115   4.336 -2.0614 -1.8106 -1.2294
13916TIP3   OH241669   4.187   1.762   4.512  0.3562  0.4696 -0.1122
13916TIP3    H141670   4.268   1.771   4.562  0.2480  1.0820 -0.0327
13916TIP3    H241671   4.210   1.711   4.435  0.5670 -0.3329  0.4828
13917TIP3   OH241672   2.101   6.192   3.653  0.0735 -0.5857 -0.6191
13917TIP3    H141673   2.071   6.282   3.663  0.4419 -0.5434  0.1567
13917TIP3    H241674   2.057   6.161   3.574 -0.9044 -0.0783 -0.2833
13918TIP3   OH241675   8.768   7.996   3.781 -0.9011  0.2782 -0.4114
13918TIP3    H141676   8.762   7.915   3.831  0.4253 -0.0953 -0.8435
13918TIP3    H241677   8.748   7.971   3.691 -0.9802  0.5195 -0.4622
13919TIP3   OH241678   6.987   8.071   3.961 -0.8309 -0.7199  0.6282
13919TIP3    H141679   7.074   8.053   3.997 -0.7703  0.6195  1.2080
13919TIP3    H241680   6.967   7.996   3.906 -0.4770 -2.3602  2.6663
13920TIP3   OH241681   2.908   7.309   3.835  0.4540 -0.6946  0.3084
13920TIP3    H141682   2.827   7.288   3.881 -0.1439  0.0837 -0.3572
13920TIP3    H241683   2.951   7.375   3.890  1.3570 -2.1455  1.3874
13921TIP3   OH241684   8.810   7.855   2.253  0.0127 -0.1943 -0.0547
13921TIP3    H141685   8.732   7.891   2.211  0.2898  0.0818 -0.3318
13921TIP3    H241686   8.850   7.800   2.186 -0.4161 -1.0413  0.3707
13922TIP3   OH241687   4.299   0.852   2.586  0.0514 -0.2729  0.2897
13922TIP3    H141688   4.381   0.803   2.580 -0.9607 -1.9049 -0.5606
13922TIP3    H241689   4.292   0.896   2.501 -0.0925 -0.3700  0.2516
13923TIP3   OH241690   3.525   0.074   4.557  0.1887  0.0239  0.2630
13923TIP3    H141691   3.515   0.133   4.632 -0.9013  0.7172 -0.4135
13923TIP3    H241692   3.449   0.017   4.561  0.3101 -0.1669 -0.1169
13924TIP3   OH241693   4.893   0.480   6.189  0.1288 -0.0192 -0.7723
13924TIP3    H141694   4.844   0.548   6.235  0.9283  0.1143 -0.1156
13924TIP3    H241695   4.904   0.514   6.100 -0.3415  0.2678 -0.7235
13925TIP3   OH241696   1.420   5.755   5.866 -0.0984  0.3456  0.1642
13925TIP3    H141697   1.395   5.839   5.827 -0.7991 -1.0755 -2.5307
13925TIP3    H241698   1.381   5.757   5.954 -0.6537  2.5515 -0.1044
13926TIP3   OH241699   1.160   1.155   7.157  0.0094 -1.1893 -0.2723
13926TIP3    H141700   1.208   1.103   7.221 -1.2449 -0.8143  1.0186
13926TIP3    H241701   1.142   1.238   7.203 -1.1143 -1.0085 -1.0209
13927TIP3   OH241702   2.100   8.166   6.223  0.0740 -0.1048 -0.0451
13927TIP3    H141703   2.117   8.241   6.279 -0.6154  0.8435 -1.0957
13927TIP3    H241704   2.169   8.170   6.156  0.0363 -0.4159 -0.1064
13928TIP3   OH241705   4.194   1.238   4.711 -0.3268 -0.2006 -0.1334
13928TIP3    H141706   4.178   1.277   4.626 -1.3256 -1.9909 -0.7984
13928TIP3    H241707   4.108   1.209   4.741  0.2739 -1.2129  0.6544
13929TIP3   OH241708   7.475   1.192   0.586 -0.8634  0.1640 -0.0456
13929TIP3    H141709   7.566   1.163   0.587 -1.0025 -0.2740  0.2280
13929TIP3    H241710   7.442   1.167   0.499 -1.9205 -3.5029  1.3070
13930TIP3   OH241711   2.950   5.373   6.373  0.2638  0.1306 -0.0157
13930TIP3    H141712   3.036   5.413   6.385 -0.4375  1.3376  1.0769
13930TIP3    H241713   2.946   5.305   6.440  0.4708 -0.1163 -0.2516
13931TIP3   OH241714   1.781   5.903   6.658 -0.0916 -0.2451 -0.1594
13931TIP3    H141715   1.777   5.807   6.655 -0.1467 -0.2694  0.7444
13931TIP3    H241716   1.874   5.923   6.647  0.0969 -0.4511  1.0696
13932TIP3   OH241717   2.863   0.660   3.464 -0.2053  0.0846 -0.6612
13932TIP3    H141718   2.933   0.647   3.400 -0.4959  0.8384 -1.1398
13932TIP3    H241719   2.868   0.753   3.486  0.8699 -0.4703  1.5613
13933TIP3   OH241720   5.370   0.581   5.441 -0.4383 -0.0301 -0.9278
13933TIP3    H141721   5.397   0.490   5.458  0.7748  0.3646 -0.7077
13933TIP3    H241722   5.452   0.630   5.439 -1.1541  1.1887 -0.3246
13934TIP3   OH241723   4.626   0.320   6.638 -0.1800  0.0308 -0.0928
13934TIP3    H141724   4.653   0.399   6.685  0.3593 -0.6863  0.8067
13934TIP3    H241725   4.660   0.248   6.690 -0.8156 -0.8086 -0.8253
13935TIP3   OH241726   0.739   7.120   5.327 -0.2338 -0.3782  1.0180
13935TIP3    H141727   0.802   7.059   5.289  0.5512  1.0970 -0.0948
13935TIP3    H241728   0.792   7.193   5.358 -1.3244  0.6022  0.6105
13936TIP3   OH241729   4.888   2.773   4.861 -0.0599 -0.0400  0.3957
13936TIP3    H141730   4.959   2.711   4.846 -0.9500 -0.7121 -1.1903
13936TIP3    H241731   4.922   2.857   4.830 -0.5124 -0.6845 -2.0068
13937TIP3   OH241732   5.652   1.394   0.092  0.0990 -0.3747  0.8611
13937TIP3    H141733   5.590   1.461   0.121 -2.0028 -2.9563  2.5683
13937TIP3    H241734   5.627   1.375   0.002 -0.6861 -0.3751  1.0751
13938TIP3   OH241735   1.754   6.567   5.827 -0.3131 -0.2331 -0.0452
13938TIP3    H141736   1.699   6.639   5.796  0.8640  0.9745  0.6089
13938TIP3    H241737   1.735   6.561   5.920 -0.2977 -0.6702 -0.0704
13939TIP3   OH241738   1.852   8.028   6.240 -0.1027  0.7810  0.1435
13939TIP3    H141739   1.868   7.987   6.325 -1.0177  0.7065  0.2867
13939TIP3    H241740   1.935   8.071   6.218  0.2672  0.4566  0.8780
13940TIP3   OH241741   1.305   8.094   3.012  0.3227 -0.0423 -0.2637
13940TIP3    H141742   1.338   8.121   2.927  0.6129 -0.0176 -0.1428
13940TIP3    H241743   1.363   8.135   3.076  0.2169 -0.2075 -0.0564
13941TIP3   OH241744   1.545   7.103   5.765  0.3392  0.1608  0.4087
13941TIP3    H141745   1.459   7.065   5.745  0.9454 -1.0634  0.0868
13941TIP3    H241746   1.538   7.193   5.735 -1.1764  0.3727  1.3261
13942TIP3   OH241747   8.667   3.447   0.498 -0.0465 -0.5051 -0.3993
13942TIP3    H141748   8.692   3.427   0.588  0.2136  1.1902 -0.0871
13942TIP3    H241749   8.746   3.427   0.447  0.7454  1.2246  0.1168
13943TIP3   OH241750   8.169   5.559   6.994 -0.3589  0.3223  0.0309
13943TIP3    H141751   8.182   5.580   7.086 -2.0099  0.6708  0.2033
13943TIP3    H241752   8.075   5.541   6.986  0.0983 -1.7168 -1.1884
13944TIP3   OH241753   8.157   6.345   5.470 -0.0434 -0.0990 -0.1868
13944TIP3    H141754   8.228   6.395   5.430  0.0958  0.9192  1.2742
13944TIP3    H241755   8.198   6.301   5.545 -0.6603 -0.6078 -0.1403
13945TIP3   OH241756   7.202   4.667   1.074  0.1115 -0.0144  0.2344
13945TIP3    H141757   7.153   4.700   1.150 -2.6739  2.2602 -2.3844
13945TIP3    H241758   7.274   4.730   1.064  1.0877 -0.8966  1.5423
13946TIP3   OH241759   3.706   7.792   6.492  0.6107 -0.1305  0.7492
13946TIP3    H141760   3.756   7.866   6.527 -1.3248  1.6376 -0.1235
13946TIP3    H241761   3.616   7.812   6.516 -0.2306 -0.9841 -1.6400
13947TIP3   OH241762   1.095   6.093   5.899 -0.2055  0.0606 -1.2069
13947TIP3    H141763   1.046   6.088   5.818 -0.9797  0.4768 -0.7638
13947TIP3    H241764   1.094   6.185   5.922 -0.0732 -0.0725 -0.6671
13948TIP3   OH241765   5.796   5.025   1.280 -0.2145 -0.0140  0.3431
13948TIP3    H141766   5.832   5.054   1.196 -0.0550 -1.5012 -0.1200
13948TIP3    H241767   5.792   5.104   1.334  1.9419  0.5046 -0.2420
13949TIP3   OH241768   4.310   1.086   6.997  0.1162 -0.0755  0.2813
13949TIP3    H141769   4.237   1.117   6.944 -1.0045  0.8951  2.3377
13949TIP3    H241770   4.281   1.099   7.088  1.5801 -2.5878  1.1641
13950TIP3   OH241771   2.830   5.796   5.086  0.3151  0.5056  0.6506
13950TIP3    H141772   2.921   5.824   5.099  0.6682 -0.8317  1.1908
13950TIP3    H241773   2.782   5.837   5.158  0.7549  0.0156  1.2237
13951TIP3   OH241774   3.369   2.812   3.732 -0.1020 -0.4994  0.1066
13951TIP3    H141775   3.422   2.767   3.667 -0.0021  0.6508 -0.6213
13951TIP3    H241776   3.292   2.842   3.684 -0.1402  0.1525  0.5651
13952TIP3   OH241777   5.541   0.452   5.754 -0.1617 -0.3025  0.2233
13952TIP3    H141778   5.585   0.498   5.682 -1.2782  1.0608  0.3996
13952TIP3    H241779   5.496   0.378   5.712 -0.2438  0.0897 -0.3808
13953TIP3   OH241780   6.514   2.530   1.282  1.1610 -0.1577 -0.0131
13953TIP3    H141781   6.589   2.471   1.277  1.0263 -0.1908 -2.0837
13953TIP3    H241782   6.493   2.534   1.375  3.1289 -0.9014  0.4893
13954TIP3   OH241783   6.256   2.195   1.722 -0.5349 -0.2454  0.7765
13954TIP3    H141784   6.234   2.282   1.690  3.1585  0.5716  0.1997
13954TIP3    H241785   6.259   2.140   1.644  0.9532  0.0192  0.6333
13955TIP3   OH241786   7.549   2.043   0.334  0.0695 -0.0599  0.7603
13955TIP3    H141787   7.512   2.087   0.258  0.2338  1.2026  1.4087
13955TIP3    H241788   7.515   2.092   0.409 -2.6548 -3.1512  1.6630
13956TIP3   OH241789   0.614   8.153   5.594  0.4837  0.2174 -0.2499
13956TIP3    H141790   0.591   8.179   5.505  0.0846  1.8308  0.3063
13956TIP3    H241791   0.642   8.234   5.636  2.5532 -0.8577  0.5304
13957TIP3   OH241792   1.726   6.790   4.547 -0.1947  0.3400 -0.4601
13957TIP3    H141793   1.651   6.731   4.551  0.6846 -0.7250  0.9230
13957TIP3    H241794   1.802   6.732   4.540  0.8268  1.1660  2.8654
13958TIP3   OH241795   1.495   7.481   6.743  0.7032  0.3417  0.1805
13958TIP3    H141796   1.546   7.483   6.824  1.9454 -1.2521 -0.5375
13958TIP3    H241797   1.423   7.421   6.762  1.4267 -0.6390 -0.1254
13959TIP3   OH241798   8.778   3.882   0.117 -0.1030  0.4952 -0.0362
13959TIP3    H141799   8.797   3.899   0.210 -2.4941  0.1550  0.5639
13959TIP3    H241800   8.735   3.962   0.087 -0.7955 -0.0125 -0.4054
13960TIP3   OH241801   2.498   1.136   6.406  1.1050  0.3303 -0.4058
13960TIP3    H141802   2.446   1.077   6.351  0.5920 -0.1335  0.5553
13960TIP3    H241803   2.551   1.186   6.345 -0.6663  0.9899 -1.4349
13961TIP3   OH241804   4.520   1.024   4.460  0.4076 -0.2988 -0.5237
13961TIP3    H141805   4.433   1.013   4.498 -0.5266 -0.7386 -2.7393
13961TIP3    H241806   4.570   0.951   4.496 -0.4790 -0.7605 -0.2045
13962TIP3   OH241807   2.514   5.662   6.807  0.3134  0.5342  0.0450
13962TIP3    H141808   2.504   5.686   6.714 -0.9271 -0.0723  0.0068
13962TIP3    H241809   2.561   5.579   6.805  0.7360  0.7787 -0.0274
13963TIP3   OH241810   7.334   1.153   1.445 -0.1423  0.1438  0.6010
13963TIP3    H141811   7.276   1.100   1.500 -0.2391 -0.2612  0.1127
13963TIP3    H241812   7.398   1.091   1.410 -1.3148  0.0015 -1.3892
13964TIP3   OH241813   2.385   8.140   5.327  0.2950  0.3640 -0.2237
13964TIP3    H141814   2.318   8.082   5.291 -0.0061 -0.0068  0.9068
13964TIP3    H241815   2.456   8.082   5.353 -0.8948  0.2273  2.9067
13965TIP3   OH241816   1.225   8.016   5.968 -0.0290  0.3706  0.2038
13965TIP3    H141817   1.146   7.966   5.988  0.1849  0.2723  0.7859
13965TIP3    H241818   1.297   7.962   6.000  0.2457  0.7000  0.1448
13966TIP3   OH241819   0.991   5.973   6.142 -0.0473  0.0628  0.2088
13966TIP3    H141820   1.068   5.993   6.195  2.1550 -2.1641 -2.0198
13966TIP3    H241821   1.016   5.997   6.053 -2.0215 -0.4543 -0.5115
13967TIP3   OH241822   1.738   7.716   5.009 -0.3128 -0.4088 -0.0908
13967TIP3    H141823   1.708   7.703   4.919 -0.7918 -1.1689  0.1720
13967TIP3    H241824   1.748   7.627   5.043 -0.3960 -0.1188  0.6891
13968TIP3   OH241825   0.978   6.076   2.105 -0.5455  0.0375  0.3154
13968TIP3    H141826   1.033   6.049   2.032  0.1220  3.5465 -0.5489
13968TIP3    H241827   1.017   6.034   2.182 -0.6536 -2.8633 -1.1417
13969TIP3   OH241828   5.516   0.014   4.692  0.1649  0.6059 -0.1390
13969TIP3    H141829   5.534   0.077   4.622 -1.9773  0.8006 -0.5655
13969TIP3    H241830   5.514   0.067   4.772 -0.1131  0.8309 -0.2937
13970TIP3   OH241831   2.189   7.970   7.182 -0.5256 -0.8286  0.5600
13970TIP3    H141832   2.151   7.967   7.269  1.7937 -1.3932  1.5872
13970TIP3    H241833   2.283   7.967   7.196  0.0026  1.8307 -1.8389
13971TIP3   OH241834   0.029   1.286   1.608 -0.0213 -0.4005  0.2314
13971TIP3    H141835   0.083   1.310   1.683  0.4057  1.4432 -0.6333
13971TIP3    H241836  -0.048   1.244   1.646  0.4854 -0.0779  1.6514
13972TIP3   OH241837   2.464   6.811   7.150  0.3519  0.4429 -0.6145
13972TIP3    H141838   2.487   6.902   7.130  0.5547  0.0785 -2.0561
13972TIP3    H241839   2.546   6.771   7.178 -0.2094  1.3367  2.5094
13973TIP3   OH241840   0.482   7.886   3.919 -0.2409  0.3533  0.3293
13973TIP3    H141841   0.427   7.828   3.865  1.3387  0.7177 -1.7596
13973TIP3    H241842   0.443   7.973   3.909 -0.1580  0.3575  0.0205
13974TIP3   OH241843   2.992   0.451   4.632  0.2085  0.4704 -0.1779
13974TIP3    H141844   2.907   0.411   4.615  0.1749  0.6984 -0.5511
13974TIP3    H241845   2.981   0.542   4.606  0.4497  0.5918  0.1502
13975TIP3   OH241846   2.033   5.989   4.123  0.3766 -0.4823 -0.2635
13975TIP3    H141847   2.030   5.901   4.087  0.6130 -0.9106  0.7466
13975TIP3    H241848   2.076   6.041   4.055  1.0728 -1.3341 -0.4815
13976TIP3   OH241849   0.036   4.819   0.107  0.3829 -0.3197  0.1486
13976TIP3    H141850  -0.019   4.751   0.069 -1.1200  0.9264  0.0199
13976TIP3    H241851   0.071   4.781   0.187 -2.8825 -0.2532  1.6849
13977TIP3   OH241852   0.201   1.881   0.546  0.2296  0.3408 -0.3638
13977TIP3    H141853   0.257   1.931   0.606  0.7544 -1.1705  0.4171
13977TIP3    H241854   0.141   1.947   0.509 -0.0321  1.3088  1.7337
13978TIP3   OH241855   3.663   6.364   5.823  0.5317  0.0966 -0.1159
13978TIP3    H141856   3.642   6.377   5.915  0.5203 -1.2167  0.0681
13978TIP3    H241857   3.577   6.353   5.781  0.4457  1.9792 -0.5093
13979TIP3   OH241858   4.263   7.001   6.152 -0.1224  0.3738  0.5601
13979TIP3    H141859   4.206   7.078   6.159  0.9084  1.3171 -1.1895
13979TIP3    H241860   4.264   6.980   6.059  0.5952 -1.0197  0.8688
13980TIP3   OH241861   2.224   7.270   5.071  1.0923 -0.2313  0.0759
13980TIP3    H141862   2.219   7.193   5.128  0.4632  1.0043  1.7645
13980TIP3    H241863   2.213   7.236   4.983 -1.5900 -1.8416  0.9478
13981TIP3   OH241864   4.792   7.212   6.798 -0.1446  0.2950 -0.1124
13981TIP3    H141865   4.865   7.220   6.738  0.7365  1.6950  1.1129
13981TIP3    H241866   4.828   7.235   6.884 -1.6713 -0.3992  0.7489
13982TIP3   OH241867   2.817   7.870   4.805 -0.3179  0.0298 -0.1465
13982TIP3    H141868   2.769   7.787   4.809  0.4356 -0.3934  0.0839
13982TIP3    H241869   2.754   7.932   4.768 -1.4632 -0.2302  1.3279
13983TIP3   OH241870   4.055   5.664   4.889  0.0314 -0.0802 -0.1136
13983TIP3    H141871   4.002   5.736   4.854 -0.0457 -0.0663  0.0333
13983TIP3    H241872   3.996   5.617   4.948  0.4614  0.4769  0.7654
13984TIP3   OH241873   8.303   2.584   0.833  0.1367  0.1886  0.1011
13984TIP3    H141874   8.287   2.652   0.898  5.2290  0.5218  1.2069
13984TIP3    H241875   8.329   2.507   0.884  0.0406 -0.8454 -1.3809
13985TIP3   OH241876   0.503   6.541   5.518 -1.1810  0.2939 -0.2309
13985TIP3    H141877   0.559   6.547   5.440 -1.8532  0.8639 -0.6765
13985TIP3    H241878   0.486   6.633   5.541 -0.3087  0.1402  1.0796
13986TIP3   OH241879   2.686   7.842   6.982 -0.4591 -0.5007 -0.2873
13986TIP3    H141880   2.749   7.848   7.054 -1.8327  2.5622  0.7439
13986TIP3    H241881   2.605   7.813   7.023 -1.4639  2.0463 -0.3876
13987TIP3   OH241882   8.438   3.595   0.952 -0.2943 -0.9249 -0.1662
13987TIP3    H141883   8.412   3.525   0.893 -1.5793 -0.0167 -0.6819
13987TIP3    H241884   8.364   3.606   1.011 -0.1325  0.0718 -0.1435
13988TIP3   OH241885   0.073   2.920   0.996 -0.0105 -0.3315 -0.2050
13988TIP3    H141886   0.115   2.835   1.011  0.6933 -0.2317 -1.5041
13988TIP3    H241887  -0.013   2.912   1.036  1.1566 -0.6133  2.3628
13989TIP3   OH241888   1.854   6.390   4.979 -0.2290 -0.4871  0.0453
13989TIP3    H141889   1.807   6.347   5.049 -1.5603 -0.2972 -0.7171
13989TIP3    H241890   1.924   6.438   5.023 -1.4710  0.1947  1.3133
13990TIP3   OH241891   5.294   2.720   6.039  0.3813 -0.0917 -0.4925
13990TIP3    H141892   5.376   2.729   6.086  0.5481  0.6868 -0.9285
13990TIP3    H241893   5.226   2.725   6.106  0.6768 -0.4597 -0.1666
13991TIP3   OH241894   0.161   6.037   5.034  0.2673  0.0319  0.1855
13991TIP3    H141895   0.162   6.124   4.994 -0.4719  0.4143  1.0028
13991TIP3    H241896   0.246   6.000   5.010 -0.0567  0.3607 -1.5098
13992TIP3   OH241897   3.504   6.944   6.134 -0.4177  0.2272 -0.2174
13992TIP3    H141898   3.496   6.980   6.223 -0.0197  0.8205 -0.4198
13992TIP3    H241899   3.448   6.867   6.135 -0.4142  0.2265  0.5569
13993TIP3   OH241900   3.301   7.051   5.508 -0.5390  0.1858 -0.4747
13993TIP3    H141901   3.299   7.028   5.601  0.5750  2.9795  0.2756
13993TIP3    H241902   3.236   7.120   5.499 -0.7133 -0.1365 -1.8204
13994TIP3   OH241903   2.768   8.363   6.839 -0.3513 -0.0105 -0.4761
13994TIP3    H141904   2.733   8.304   6.773 -0.2351 -0.0955 -0.4625
13994TIP3    H241905   2.694   8.383   6.895 -0.2926 -0.4900 -0.2262
13995TIP3   OH241906   2.464   6.887   6.198  0.7757 -0.3784 -0.9459
13995TIP3    H141907   2.483   6.887   6.292  0.4534  0.9020 -0.8684
13995TIP3    H241908   2.373   6.914   6.193  0.4199 -1.6525 -1.5787
13996TIP3   OH241909   3.854   7.986   5.165 -0.3397  0.3384  0.0754
13996TIP3    H141910   3.819   7.989   5.076  1.0121 -0.2669 -0.4941
13996TIP3    H241911   3.905   7.905   5.168  1.3598  1.4017  0.7202
13997TIP3   OH241912   3.130   6.414   6.201 -0.3837  0.0262 -0.0154
13997TIP3    H141913   3.196   6.476   6.229 -0.0000 -0.2969 -0.1931
13997TIP3    H241914   3.127   6.348   6.271 -1.7546  0.9574  0.8284
13998TIP3   OH241915   5.358   0.326   6.975 -0.0859 -0.0270 -0.0972
13998TIP3    H141916   5.336   0.383   6.901  1.7192  1.1279  0.2070
13998TIP3    H241917   5.452   0.308   6.964 -0.3487 -1.8720  0.5533
13999TIP3   OH241918   1.799   5.756   4.929 -0.3416  0.6896 -0.1791
13999TIP3    H141919   1.718   5.757   4.981  1.3226 -0.3075  2.5647
13999TIP3    H241920   1.821   5.848   4.919 -1.0316  0.9276  0.3583
14000TIP3   OH241921   6.297   1.024   6.541  0.5249 -0.6210  0.0353
14000TIP3    H141922   6.230   1.073   6.494  0.2153  1.4360  2.4708
14000TIP3    H241923   6.339   0.969   6.475 -1.3426  0.5225 -2.1459
14001TIP3   OH241924   2.461   7.712   5.126 -0.7240  0.2465 -0.5070
14001TIP3    H141925   2.434   7.715   5.218  0.2081 -0.7852 -0.1977
14001TIP3    H241926   2.518   7.789   5.116  0.1155 -0.2874  0.0856
14002TIP3   OH241927   1.198   3.688   2.224 -0.4074 -0.6369  0.4774
14002TIP3    H141928   1.282   3.641   2.220 -0.0487 -0.1712  2.1825
14002TIP3    H241929   1.161   3.665   2.309 -1.3283  0.3212  0.3527
14003TIP3   OH241930   2.878   7.124   5.880 -0.4607 -0.2144 -0.3701
14003TIP3    H141931   2.792   7.150   5.914 -0.2579  0.9115 -0.7050
14003TIP3    H241932   2.941   7.163   5.941 -0.1089  1.4412 -1.7466
14004TIP3   OH241933   8.504   4.934   0.089 -0.2127  0.0348  0.1803
14004TIP3    H141934   8.512   4.839   0.081  0.4779  0.0847  0.2209
14004TIP3    H241935   8.459   4.961   0.009  0.9107 -0.1687 -0.5301
14005TIP3   OH241936   2.758   1.371   2.811  0.1650 -0.1317  1.0139
14005TIP3    H141937   2.776   1.425   2.888 -0.5873  0.5622  0.7131
14005TIP3    H241938   2.663   1.380   2.797  0.4921  0.9050 -0.8207
14006TIP3   OH241939   4.154   7.504   5.633  0.1970 -0.3910  1.1240
14006TIP3    H141940   4.143   7.426   5.688 -0.2001 -0.8929  0.3361
14006TIP3    H241941   4.246   7.502   5.608  0.1542 -0.6811  0.9878
14007TIP3   OH241942   1.256   4.591   0.062  0.0439  0.4212 -0.1541
14007TIP3    H141943   1.186   4.650   0.091 -0.4833  0.6275 -1.8016
14007TIP3    H241944   1.213   4.531   0.002  1.6713  1.8132 -2.7906
14008TIP3   OH241945   0.662   6.746   2.675 -0.0559  0.3039 -0.3871
14008TIP3    H141946   0.730   6.737   2.608  1.6872  1.6530  1.1407
14008TIP3    H241947   0.691   6.820   2.728 -1.4111 -0.7319  1.8488
14009TIP3   OH241948   1.191   2.262   0.664 -0.4077 -0.5209 -0.0080
14009TIP3    H141949   1.163   2.210   0.589  2.5621 -0.1033 -1.4841
14009TIP3    H241950   1.232   2.340   0.626  1.6382 -0.5600  1.9767
14010TIP3   OH241951   3.442   0.666   6.097  0.1365  0.7613  0.0595
14010TIP3    H141952   3.420   0.759   6.093 -0.8132  0.5416 -0.0278
14010TIP3    H241953   3.387   0.625   6.030  0.4688  0.1228  0.1716
14011TIP3   OH241954   3.524   8.082   7.195 -0.2935 -0.0892  0.2648
14011TIP3    H141955   3.454   8.143   7.170 -0.3530  0.5833  1.9556
14011TIP3    H241956   3.564   8.123   7.272  2.0603 -0.4084 -0.7533
14012TIP3   OH241957   0.674   2.952   0.775 -0.0904 -0.5652  0.0307
14012TIP3    H141958   0.770   2.948   0.768 -0.2016  0.8506 -3.1947
14012TIP3    H241959   0.658   3.016   0.844  1.3207  0.5705 -0.6692
14013TIP3   OH241960   3.185   7.829   5.922 -0.0376 -0.0299  0.1740
14013TIP3    H141961   3.176   7.735   5.911  0.1763 -0.0346  0.0476
14013TIP3    H241962   3.095   7.860   5.936 -0.1375 -0.2152 -0.0625
14014TIP3   OH241963   6.081   1.514   5.799  0.2000 -0.8546  0.2299
14014TIP3    H141964   6.062   1.563   5.879  0.0513  1.0166 -0.9421
14014TIP3    H241965   6.019   1.441   5.801 -0.6858 -0.0833  1.1638
14015TIP3   OH241966   0.070   5.054   1.652  0.2900  0.3272  0.1183
14015TIP3    H141967   0.163   5.060   1.631 -0.0424 -0.1895 -1.5215
14015TIP3    H241968   0.068   5.044   1.747  1.9415 -0.4455  0.0833
14016TIP3   OH241969   3.345   6.719   6.120 -0.5131  0.1212 -0.3604
14016TIP3    H141970   3.382   6.693   6.035 -1.4310  2.1675 -1.4247
14016TIP3    H241971   3.255   6.743   6.100 -1.2892 -1.1055  1.5417
14017TIP3   OH241972   6.081   1.749   6.933 -0.0734  0.2290 -0.6242
14017TIP3    H141973   5.991   1.723   6.951  0.1405  0.5776  1.0385
14017TIP3    H241974   6.081   1.775   6.841 -1.8205  0.8535 -0.4580
14018TIP3   OH241975   5.596   0.256   7.134 -0.1950  0.4614  0.5066
14018TIP3    H141976   5.543   0.178   7.117 -1.6282  1.5536 -0.1235
14018TIP3    H241977   5.627   0.283   7.048  1.2700 -0.0575  0.8519
14019TIP3   OH241978   5.889   0.140   5.176 -0.8004  0.4161  0.3256
14019TIP3    H141979   5.983   0.146   5.195 -0.7061 -1.2711  0.4697
14019TIP3    H241980   5.880   0.061   5.125 -2.0176  1.1766 -0.6668
14020TIP3   OH241981   5.709   1.166   5.913  0.4268  1.0026 -0.0143
14020TIP3    H141982   5.669   1.106   5.850  0.3246  0.5068  0.5116
14020TIP3    H241983   5.635   1.210   5.955  0.3965 -0.2004  1.2370
14021TIP3   OH241984   6.104   0.850   4.786 -0.0846 -0.6684 -0.4425
14021TIP3    H141985   6.057   0.929   4.759  1.0895 -0.2105 -1.1584
14021TIP3    H241986   6.095   0.847   4.881 -0.5851  0.0309 -0.4697
14022TIP3   OH241987   8.609   2.325   0.232  0.4048 -0.2217  0.0518
14022TIP3    H141988   8.646   2.318   0.320 -0.2525 -0.8124  0.2844
14022TIP3    H241989   8.655   2.258   0.182  2.3911  1.5898 -0.6418
14023TIP3   OH241990   8.331   3.156   0.173  0.0838 -0.0354 -0.0064
14023TIP3    H141991   8.346   3.071   0.133  0.7129 -0.4211  1.0188
14023TIP3    H241992   8.364   3.147   0.262  0.8905  1.5193 -0.1200
14024TIP3   OH241993   1.822   6.315   4.468  0.1817 -0.1871  0.3217
14024TIP3    H141994   1.912   6.295   4.492  0.9291  0.8122 -1.5527
14024TIP3    H241995   1.795   6.242   4.412  0.3770  0.2987 -0.4144
14025TIP3   OH241996   0.294   2.276   1.030  0.6254  0.5070 -0.0530
14025TIP3    H141997   0.293   2.312   1.119 -0.1366  1.9315 -0.6166
14025TIP3    H241998   0.256   2.345   0.977  2.3788  0.2368 -1.7126
14026TIP3   OH241999   7.255   0.711   6.734  0.5375  0.3439  0.4823
14026TIP3    H142000   7.297   0.696   6.650 -0.4806  1.5700 -0.2682
14026TIP3    H242001   7.309   0.779   6.776 -0.2668  1.4202 -0.1894
14027TIP3   OH242002   2.912   7.416   5.228  0.2696 -0.1428 -0.5110
14027TIP3    H142003   2.848   7.478   5.264  0.6665 -0.2761  0.4608
14027TIP3    H242004   2.888   7.332   5.268  1.9783  0.0938  1.1098
14028TIP3   OH242005   2.844   7.972   6.750 -0.0644 -0.0197  0.2371
14028TIP3    H142006   2.771   7.930   6.796  0.8505  0.2599  1.9412
14028TIP3    H242007   2.915   7.909   6.756  0.6155  0.7953  0.8100
14029TIP3   OH242008   1.036   7.685   4.556 -0.0443  0.8201  0.3740
14029TIP3    H142009   1.006   7.666   4.467 -0.2388  0.9911  0.4022
14029TIP3    H242010   0.969   7.646   4.612  0.5597 -0.0877  0.4567
14030TIP3   OH242011   2.523   8.119   5.610  0.5166  0.2578  0.0565
14030TIP3    H142012   2.523   8.135   5.704 -0.9024  1.4883 -0.1286
14030TIP3    H242013   2.435   8.087   5.591  0.4510  1.0103 -0.9938
14031TIP3   OH242014   2.843   8.127   3.483  0.0300 -0.4752  0.2872
14031TIP3    H142015   2.793   8.159   3.408 -0.2353 -0.6322  0.4012
14031TIP3    H242016   2.805   8.172   3.559  1.1714  0.7309  0.1803
14032TIP3   OH242017   2.472   8.031   6.680 -0.0796  0.1601 -0.1514
14032TIP3    H142018   2.451   8.009   6.771  2.6283 -1.3821  0.1589
14032TIP3    H242019   2.484   7.946   6.637  1.9401  0.9216 -1.1193
14033TIP3   OH242020   8.522   4.621   0.061 -0.2976  0.0178 -0.0943
14033TIP3    H142021   8.568   4.598   0.142  1.4486  1.2713 -0.7126
14033TIP3    H242022   8.553   4.558  -0.003 -1.4904 -0.8146  0.1298
14034TIP3   OH242023   6.290   0.099   7.197 -0.2960 -0.2181 -0.3966
14034TIP3    H142024   6.197   0.119   7.184 -0.2439 -0.0443 -0.4974
14034TIP3    H242025   6.313   0.043   7.122 -0.2181  0.0661 -0.5847
14035TIP3   OH242026   1.548   7.656   3.271  0.0439  0.4501 -0.3485
14035TIP3    H142027   1.598   7.696   3.342 -0.3239  0.0358  0.1501
14035TIP3    H242028   1.513   7.730   3.221  1.2012  0.7365 -0.7371
14036TIP3   OH242029   1.673   5.671   6.488 -0.2068  0.1801  0.1057
14036TIP3    H142030   1.720   5.595   6.453  0.9167  1.0369 -0.2716
14036TIP3    H242031   1.635   5.640   6.570  1.1606 -0.4769  0.4926
14037TIP3   OH242032   1.416   7.817   6.068 -0.0003  0.3371 -0.4987
14037TIP3    H142033   1.460   7.759   6.130  0.5085 -2.1328 -3.0659
14037TIP3    H242034   1.486   7.850   6.012 -0.6520  1.1700 -0.8291
14038TIP3   OH242035   1.159   1.599   0.595 -0.0135 -0.3987 -0.1022
14038TIP3    H142036   1.078   1.634   0.559 -0.0017 -1.6451 -1.3790
14038TIP3    H242037   1.228   1.638   0.541  0.3979  2.1007  2.1281
14039TIP3   OH242038   2.919   7.021   6.185 -0.0260  0.4636  0.1325
14039TIP3    H142039   2.941   7.021   6.278 -0.6625  0.4086  0.2836
14039TIP3    H242040   2.835   7.066   6.180 -0.0975  0.2787 -0.3906
14040TIP3   OH242041   2.683   0.030   2.578 -0.5073  0.1385 -0.1241
14040TIP3    H142042   2.740   0.107   2.577 -0.4400  0.0813 -1.3658
14040TIP3    H242043   2.701  -0.012   2.662 -1.9861  2.5614  1.4710
14041TIP3   OH242044   8.873   4.582   6.872 -0.3517 -0.1815 -0.1590
14041TIP3    H142045   8.822   4.627   6.940  0.2453 -3.1025  2.3576
14041TIP3    H242046   8.808   4.535   6.820 -0.6572  0.3701 -0.2712
14042TIP3   OH242047   2.830   7.090   4.749 -0.5413 -0.2659 -0.3441
14042TIP3    H142048   2.824   7.057   4.839 -1.6268  0.3119 -0.2018
14042TIP3    H242049   2.788   7.022   4.696 -0.9556 -0.0623 -0.2792
14043TIP3   OH242050   2.247   6.982   4.306 -0.3320 -0.8146 -0.0168
14043TIP3    H142051   2.264   7.027   4.223 -0.3615  0.6168  0.7383
14043TIP3    H242052   2.191   6.908   4.283  2.1394 -2.2310 -1.7230
14044TIP3   OH242053   6.382   1.082   7.033 -0.2926  0.8570 -0.8810
14044TIP3    H142054   6.386   1.031   6.952  1.2334 -0.3407 -0.1039
14044TIP3    H242055   6.432   1.029   7.096 -2.4619  1.1637  1.1703
14045TIP3   OH242056   4.158   0.928   5.522  0.6985  0.1721  0.5497
14045TIP3    H142057   4.231   0.989   5.528 -0.6483  2.1551 -2.0220
14045TIP3    H242058   4.083   0.983   5.501 -1.0042 -2.1381  0.4206
14046TIP3   OH242059  -0.006   1.373   0.122 -0.3965  0.6962  0.1332
14046TIP3    H142060  -0.017   1.380   0.027  1.6501  0.2522 -0.1689
14046TIP3    H242061   0.087   1.394   0.137 -0.4736 -0.1298  1.9455
14047TIP3   OH242062   0.792   1.926   0.353 -0.3173 -0.5252 -0.2049
14047TIP3    H142063   0.730   1.967   0.413 -0.9331 -0.3799 -0.9316
14047TIP3    H242064   0.841   1.999   0.316 -0.3965 -0.5581 -0.3778
14048TIP3   OH242065   2.554   5.646   5.581  0.7020 -0.1720 -0.2152
14048TIP3    H142066   2.464   5.646   5.548  0.9749 -0.6449 -0.9831
14048TIP3    H242067   2.568   5.735   5.613 -0.8669 -0.7914  2.2533
14049TIP3   OH242068   7.693   0.439   6.711 -0.0900 -0.4064 -0.3410
14049TIP3    H142069   7.709   0.434   6.805  1.6778 -0.9477 -0.6635
14049TIP3    H242070   7.779   0.432   6.671 -0.7966  0.1310 -2.0032
14050TIP3   OH242071   2.996   6.655   4.389 -0.4252 -0.0828  0.2340
14050TIP3    H142072   2.931   6.688   4.327 -0.1726  0.9097  0.4903
14050TIP3    H242073   3.077   6.701   4.367 -0.6921  1.4299  2.2431
14051TIP3   OH242074   2.228   6.535   0.507 -0.1079 -0.5872  0.0900
14051TIP3    H142075   2.249   6.560   0.597  1.4136 -0.0802 -0.4063
14051TIP3    H242076   2.272   6.451   0.495  3.0718  1.2270 -1.4661
14052TIP3   OH242077   3.467   6.002   4.502  0.5055 -0.2195  0.5387
14052TIP3    H142078   3.418   5.960   4.573  1.9066  0.3610  1.8835
14052TIP3    H242079   3.405   6.007   4.430 -0.5000 -2.2191  1.2077
14053TIP3   OH242080   1.981   8.171   4.300 -0.5081 -0.3529 -0.1937
14053TIP3    H142081   1.888   8.166   4.278 -0.7374  0.6302  0.5155
14053TIP3    H242082   1.987   8.141   4.390 -0.1160 -0.5727 -0.2903
14054TIP3   OH242083   5.837   1.543   6.363 -0.7023 -0.4178 -0.0653
14054TIP3    H142084   5.789   1.626   6.369  0.5465  0.2708  0.4463
14054TIP3    H242085   5.859   1.521   6.453  1.3267  0.0950 -0.4127
14055TIP3   OH242086   7.854   1.700   0.420 -0.6601  0.3019  0.2855
14055TIP3    H142087   7.858   1.625   0.360  0.2551 -1.2866  2.2891
14055TIP3    H242088   7.778   1.750   0.389 -0.2305 -0.4793 -2.1754
14056TIP3   OH242089   3.276   7.809   5.064 -0.3737 -0.1706 -0.4851
14056TIP3    H142090   3.203   7.830   5.123 -0.6013 -0.8510 -0.5145
14056TIP3    H242091   3.237   7.813   4.977 -0.1266  0.4681 -0.5695
14057TIP3   OH242092   8.844   5.009   2.462 -0.2109  0.0703 -0.7347
14057TIP3    H142093   8.893   5.067   2.404  0.7363  0.0788  0.0729
14057TIP3    H242094   8.906   4.986   2.531 -2.0934  2.2058  1.7743
14058TIP3   OH242095   2.128   6.991   4.761 -0.1125  0.0621 -0.6053
14058TIP3    H142096   2.173   6.944   4.690  2.6588  0.7164  0.6253
14058TIP3    H242097   2.170   7.077   4.762 -1.9117  0.9434  0.1783
14059TIP3   OH242098   2.889   6.170   5.792  0.1954 -0.4931  0.5731
14059TIP3    H142099   2.913   6.081   5.818 -0.5733 -0.3162  1.8992
14059TIP3    H242100   2.837   6.159   5.712 -0.1610 -1.2574  0.9112
14060TIP3   OH242101   2.782   6.460   4.780 -0.3547  0.0482 -0.0090
14060TIP3    H142102   2.728   6.384   4.800  0.3383 -0.3902  0.2424
14060TIP3    H242103   2.726   6.536   4.799  0.4749 -0.3133  4.4167
14061TIP3   OH242104   2.562   6.195   6.786  0.0207  0.0274 -0.0887
14061TIP3    H142105   2.624   6.268   6.787  0.2730 -0.1573 -1.7696
14061TIP3    H242106   2.615   6.117   6.802  0.2367 -0.1284 -1.5118
14062TIP3   OH242107   5.164   0.850   4.825 -0.2232  0.6822 -0.0470
14062TIP3    H142108   5.100   0.805   4.770 -0.3957  1.2045 -0.2804
14062TIP3    H242109   5.211   0.908   4.764 -0.8793  1.7646  0.4652
14063TIP3   OH242110   4.427   0.460   5.944 -0.4389  0.2864 -0.0842
14063TIP3    H142111   4.406   0.436   5.854 -0.1771  0.2352 -0.1325
14063TIP3    H242112   4.485   0.390   5.974  0.6941  1.0938 -0.3701
14064TIP3   OH242113   3.038   7.283   6.081  0.7345 -0.8077  0.4535
14064TIP3    H142114   3.059   7.275   6.174  0.6964 -1.4883  0.4096
14064TIP3    H242115   3.104   7.229   6.037  2.6193  1.8821 -0.1553
14065TIP3   OH242116   8.405   6.163   0.333 -0.0058 -0.4222 -0.0441
14065TIP3    H142117   8.333   6.122   0.285  0.2245 -1.5695  0.5893
14065TIP3    H242118   8.406   6.120   0.418  3.2501 -2.5050 -1.0407
14066TIP3   OH242119   3.669   1.527   5.897  0.2988  0.2587  0.0492
14066TIP3    H142120   3.751   1.485   5.922  0.0266  0.2585  0.9516
14066TIP3    H242121   3.604   1.457   5.899  0.6304 -0.1861 -2.6445
14067TIP3   OH242122   2.635   7.073   6.105 -0.4460  0.6981  0.6333
14067TIP3    H142123   2.576   7.011   6.149  0.5981  0.8087  2.2389
14067TIP3    H242124   2.594   7.158   6.120 -0.2477  0.7056  1.1544
14068TIP3   OH242125   2.048   7.064   5.588  0.5256  0.3837  0.2778
14068TIP3    H142126   2.092   6.994   5.636 -0.6635 -1.3612 -1.1128
14068TIP3    H242127   1.967   7.080   5.636 -0.4290 -1.0208 -0.8128
14069TIP3   OH242128   3.654   7.794   6.113  0.1474  0.5457 -0.3856
14069TIP3    H142129   3.571   7.818   6.071 -0.2364  0.3395  0.2452
14069TIP3    H242130   3.711   7.769   6.041  0.0740  1.9239 -0.9378
14070TIP3   OH242131   4.948   0.145   5.244 -0.1426  0.6116  0.0181
14070TIP3    H142132   4.992   0.088   5.306  0.4243  0.1802 -0.7649
14070TIP3    H242133   4.980   0.233   5.264  3.0032  0.0485 -2.0832
14071TIP3   OH242134   2.735   6.471   7.095  0.2723 -0.7426  0.3840
14071TIP3    H142135   2.717   6.377   7.091  1.1778 -0.9481  1.0208
14071TIP3    H242136   2.807   6.479   7.158  0.1117  0.3900  0.4313
14072TIP3   OH242137   3.091   7.659   5.318  0.3101 -0.2174  0.0486
14072TIP3    H142138   3.177   7.647   5.358 -0.6159 -1.2328  1.8085
14072TIP3    H242139   3.065   7.572   5.288  0.0675  0.1585 -0.8686
14073TIP3   OH242140   5.159   0.302   6.621  0.0738  0.2619  0.0894
14073TIP3    H142141   5.130   0.393   6.614 -0.4874  0.0951  0.2407
14073TIP3    H242142   5.087   0.251   6.585  0.5343 -0.1041 -0.3198
14074TIP3   OH242143   4.905   0.026   5.616 -0.1759  0.3813 -0.1699
14074TIP3    H142144   4.844  -0.033   5.571 -1.0254  0.1010  1.2894
14074TIP3    H242145   4.851   0.068   5.684  0.8626  1.4303  0.0134
14075TIP3   OH242146   2.779   7.268   5.409 -0.2149  0.9615  0.0194
14075TIP3    H142147   2.692   7.304   5.429 -0.4172  0.3071  0.3437
14075TIP3    H242148   2.799   7.211   5.483 -0.7495 -1.0949 -1.3797
14076TIP3   OH242149   2.553   0.902   4.852  0.0885 -0.4347 -0.6511
14076TIP3    H142150   2.507   0.924   4.771 -2.0848 -0.3276  0.5849
14076TIP3    H242151   2.501   0.830   4.890  1.4238 -0.8898  0.3419
14077TIP3   OH242152   5.854   1.488   6.645 -0.1793  0.0796  0.6276
14077TIP3    H142153   5.817   1.410   6.686 -2.4466  0.9584  0.3323
14077TIP3    H242154   5.861   1.552   6.715 -0.7421  0.4402  0.3581
14078TIP3   OH242155   4.119   7.536   4.471 -0.3630  0.1806  0.1112
14078TIP3    H142156   4.091   7.492   4.551 -1.0098 -0.4358 -0.4572
14078TIP3    H242157   4.085   7.625   4.480  0.0234  0.2746  0.7570
14079TIP3   OH242158   5.469   1.293   6.036  0.2209  0.0952 -0.4278
14079TIP3    H142159   5.489   1.349   6.111  0.1356  0.0349 -0.3606
14079TIP3    H242160   5.449   1.354   5.966 -0.3478  0.1505 -0.2226
14080TIP3   OH242161   3.289   6.576   6.343  0.2227  0.3393  0.1006
14080TIP3    H142162   3.318   6.644   6.282  2.0303  0.9521  1.5986
14080TIP3    H242163   3.367   6.523   6.360 -0.4689 -0.3680  1.2018
14081TIP3   OH242164   5.989   1.611   6.050  0.2352  0.1089 -0.3409
14081TIP3    H142165   5.963   1.520   6.060  3.2863 -0.9072 -1.1368
14081TIP3    H242166   6.035   1.632   6.131 -0.7280  1.0654 -0.0255
14082TIP3   OH242167   8.686   3.427   0.022  0.2476 -0.4745  0.0841
14082TIP3    H142168   8.773   3.392   0.003  0.6688  0.3331  0.5367
14082TIP3    H242169   8.698   3.521   0.027 -1.1744 -0.1046 -2.6588
14083TIP3   OH242170   5.101   0.116   5.948 -0.0660  0.0524 -0.1496
14083TIP3    H142171   5.044   0.176   5.997  1.4020  0.8998  0.5435
14083TIP3    H242172   5.162   0.083   6.014 -0.1084 -1.2893 -0.7822
14084TIP3   OH242173   0.693   6.302   4.292 -0.7579  0.1325 -0.2054
14084TIP3    H142174   0.781   6.264   4.296 -0.9562 -0.2340  0.8055
14084TIP3    H242175   0.667   6.291   4.201  0.1842  0.1030 -0.4785
14085TIP3   OH242176   1.206   7.192   5.850  0.2208  0.4003 -0.2228
14085TIP3    H142177   1.185   7.108   5.810  1.5050 -0.5838  1.1487
14085TIP3    H242178   1.135   7.207   5.913 -0.1396  0.4807 -0.6389
14086TIP3   OH242179   7.726   3.772   0.178 -0.0030  0.0804  0.0668
14086TIP3    H142180   7.645   3.759   0.228  0.4595 -2.0906  0.2886
14086TIP3    H242181   7.699   3.820   0.100 -1.0956  1.5832  1.3406
14087TIP3   OH242182   3.964   1.569   3.228  0.0849  0.3399 -1.0258
14087TIP3    H142183   4.017   1.627   3.174  2.0370 -0.7854 -0.3765
14087TIP3    H242184   3.885   1.552   3.176  0.7020  1.4289 -2.3370
14088TIP3   OH242185   1.295   5.089   5.768  0.2752 -0.0059 -0.3357
14088TIP3    H142186   1.387   5.115   5.759  0.6006 -0.2268  1.9529
14088TIP3    H242187   1.299   4.994   5.779 -0.5001 -0.4272 -3.4582
14089TIP3   OH242188   8.161   4.632   0.571 -0.1036 -0.0700  0.3637
14089TIP3    H142189   8.134   4.721   0.595 -0.5713  0.0905 -0.7506
14089TIP3    H242190   8.246   4.644   0.529 -0.0335 -0.1781  0.4763
14090TIP3   OH242191   1.573   6.272   4.639 -0.0565 -0.0571  0.0688
14090TIP3    H142192   1.624   6.352   4.621  0.3996 -0.3756 -0.0633
14090TIP3    H242193   1.634   6.200   4.621  0.0796 -0.4089  1.8218
14091TIP3   OH242194   2.093   7.723   5.364 -0.1237  0.2821  0.0976
14091TIP3    H142195   2.178   7.679   5.366 -0.0418  0.4163 -0.2711
14091TIP3    H242196   2.055   7.707   5.450  0.2656  0.2002  0.2540
14092TIP3   OH242197   2.554   6.810   4.341  0.3409  0.0603  0.1458
14092TIP3    H142198   2.646   6.786   4.343  0.3957  0.1853 -0.7492
14092TIP3    H242199   2.547   6.876   4.272 -0.4291  0.0197  0.1733
14093TIP3   OH242200   1.121   4.272   0.515 -0.0271  0.0828  0.3704
14093TIP3    H142201   1.138   4.306   0.427  0.9873  1.8187  1.2036
14093TIP3    H242202   1.156   4.183   0.513 -0.1763  0.0408 -1.0398
14094TIP3   OH242203   1.805   7.489   4.076 -0.2320 -0.1834 -0.1013
14094TIP3    H142204   1.871   7.420   4.074 -0.1724 -0.1344  0.1393
14094TIP3    H242205   1.730   7.450   4.121  0.5703  0.5668  1.9484
14095TIP3   OH242206   0.683   6.514   4.637 -0.8963 -0.4919 -0.0667
14095TIP3    H142207   0.616   6.454   4.603 -1.4259 -0.2540  0.5421
14095TIP3    H242208   0.657   6.529   4.728 -0.2860 -0.0061  0.0262
14096TIP3   OH242209   7.853   3.558   0.682  0.2387  0.1069 -0.4146
14096TIP3    H142210   7.853   3.650   0.655  0.8124 -0.2094 -1.4972
14096TIP3    H242211   7.831   3.561   0.776  1.0937  1.4062 -0.2401
14097TIP3   OH242212   5.175   0.129   7.034 -0.3685 -0.7252  0.4471
14097TIP3    H142213   5.207   0.141   6.945 -0.0601  1.4272  0.8154
14097TIP3    H242214   5.239   0.173   7.089 -2.5799  1.4424  1.3933
14098TIP3   OH242215   1.233   4.654   0.409 -0.0295 -0.1098  0.3085
14098TIP3    H142216   1.227   4.749   0.406  1.3682  0.0581  2.2434
14098TIP3    H242217   1.224   4.626   0.318  2.4078  2.0527 -0.6473
14099TIP3   OH242218   2.787   7.030   6.960 -0.4796  0.2883  0.0449
14099TIP3    H142219   2.851   7.095   6.929 -1.1360  0.3368 -1.2577
14099TIP3    H242220   2.840   6.965   7.006  0.6295 -0.0023 -1.5744
14100TIP3   OH242221   1.124   6.039   6.391 -0.1908  0.0987 -0.4125
14100TIP3    H142222   1.118   6.002   6.479  0.2086 -0.5981 -0.6785
14100TIP3    H242223   1.117   6.134   6.405 -0.9929 -0.0531  0.2869
14101TIP3   OH242224   5.122  -0.011   6.408 -0.5545  0.4054  0.2693
14101TIP3    H142225   5.195   0.049   6.392 -0.2326 -0.0118  0.1659
14101TIP3    H242226   5.051   0.045   6.440  0.3462  0.5983  2.0081
14102TIP3   OH242227   3.189   5.695   5.320  0.1929  0.2122 -0.5605
14102TIP3    H142228   3.231   5.640   5.253  2.4937 -1.0912  1.8312
14102TIP3    H242229   3.110   5.647   5.344 -0.3505  0.4071 -1.9343
14103TIP3   OH242230   0.802   1.292   0.361  0.3126 -0.4938 -0.3245
14103TIP3    H142231   0.845   1.330   0.437  0.5269  0.2127 -0.7921
14103TIP3    H242232   0.818   1.355   0.290 -0.8210 -0.5991 -0.6852
14104TIP3   OH242233   5.382   7.332   3.756  0.1576 -0.2931  0.4290
14104TIP3    H142234   5.388   7.419   3.717  0.6694  0.4043  2.0153
14104TIP3    H242235   5.472   7.309   3.777 -0.2114 -0.1000  2.3353
14105TIP3   OH242236   0.312   0.678   1.586 -0.0420 -0.1127  0.1246
14105TIP3    H142237   0.378   0.609   1.582  0.2128  0.0996  0.5635
14105TIP3    H242238   0.270   0.665   1.672  0.0251  0.2900  0.2190
14106TIP3   OH242239   8.271   1.643   0.602  0.2311 -0.0343  0.0025
14106TIP3    H142240   8.182   1.635   0.637 -0.9162  0.2559 -2.7114
14106TIP3    H242241   8.328   1.622   0.676 -2.0496  1.2419  2.1942
14107TIP3   OH242242   3.922   0.744   4.693  0.3858  0.0954  0.4695
14107TIP3    H142243   3.967   0.827   4.708  0.1760  0.1478  0.8117
14107TIP3    H242244   3.991   0.678   4.699  0.3383  0.1363  1.4442
14108TIP3   OH242245   4.929   7.710   5.277 -0.3431 -0.1176 -0.3472
14108TIP3    H142246   4.957   7.801   5.289  1.8743 -0.8033 -0.0349
14108TIP3    H242247   4.960   7.665   5.356  0.0535 -1.4541 -1.2512
14109TIP3   OH242248   0.903   2.122   0.183 -0.2697 -0.2817  0.4240
14109TIP3    H142249   0.984   2.150   0.139 -0.8494  0.0334 -0.4516
14109TIP3    H242250   0.888   2.189   0.250 -0.2848  0.1422 -0.0004
14110TIP3   OH242251   3.055   1.517   1.330  0.2532 -0.3857  0.1124
14110TIP3    H142252   3.044   1.599   1.378 -1.6736 -0.6542  0.1590
14110TIP3    H242253   3.141   1.525   1.289  1.2113  0.5549  2.2175
14111TIP3   OH242254   8.638   2.631   0.986 -0.5797  0.1857 -0.0803
14111TIP3    H142255   8.555   2.602   1.024  0.1645 -1.0936  0.5853
14111TIP3    H242256   8.613   2.704   0.929 -2.1099  0.0837  0.4186
14112TIP3   OH242257   4.810   0.601   5.751  0.2921 -0.8138  0.5885
14112TIP3    H142258   4.772   0.516   5.772  0.0209 -0.7501  0.3610
14112TIP3    H242259   4.886   0.581   5.696 -1.1666 -0.7874 -1.4728
14113TIP3   OH242260   3.748   6.859   6.320  0.4840  0.6387 -0.2337
14113TIP3    H142261   3.825   6.916   6.315  0.7830  0.1612 -1.3290
14113TIP3    H242262   3.762   6.794   6.250  0.4088 -1.0911  1.3279
14114TIP3   OH242263   2.963   5.103   5.934 -0.1334  0.3200  0.9529
14114TIP3    H142264   2.918   5.141   6.010 -0.7504 -1.2658  1.4002
14114TIP3    H242265   2.920   5.019   5.921  1.3281 -0.3007  0.0805
14115TIP3   OH242266   7.189   2.008   0.494 -0.4151  0.5612  1.0692
14115TIP3    H142267   7.262   2.036   0.439 -1.4796  0.4474 -0.4355
14115TIP3    H242268   7.111   2.036   0.446 -1.4560 -2.4833  0.8731
14116TIP3   OH242269   8.173   1.214   1.135 -0.1470  0.1196 -0.4248
14116TIP3    H142270   8.108   1.244   1.200 -2.0439 -0.5080 -1.9664
14116TIP3    H242271   8.167   1.119   1.138 -0.1269  0.0836 -1.3875
14117TIP3   OH242272   1.288   8.366   5.726  0.4418 -0.0221  0.4972
14117TIP3    H142273   1.373   8.377   5.683 -0.3095  0.2810 -0.9337
14117TIP3    H242274   1.230   8.427   5.679 -1.3266 -2.5376 -0.6760
14118TIP3   OH242275   2.685   7.681   5.806  0.4684  0.2385  0.0892
14118TIP3    H142276   2.635   7.669   5.725  1.5228  1.1103 -0.7036
14118TIP3    H242277   2.735   7.761   5.792  3.2464 -1.4188  0.2559
14119TIP3   OH242278   8.933   1.300   1.308  0.1705  0.6874  0.3288
14119TIP3    H142279   8.908   1.301   1.400 -1.0413 -2.4057  0.1092
14119TIP3    H242280   8.850   1.303   1.260  0.6708  0.0967 -0.6067
14120TIP3   OH242281   6.586  -0.010   6.486  0.0795 -0.3369  0.1275
14120TIP3    H142282   6.663  -0.062   6.506 -0.1827 -0.6641  0.2908
14120TIP3    H242283   6.606   0.078   6.520  1.1883  0.1023 -1.6072
14121TIP3   OH242284   7.633   4.969   1.148  0.1729  0.4361 -0.1319
14121TIP3    H142285   7.595   4.899   1.096  0.9703  0.0278 -0.1808
14121TIP3    H242286   7.639   5.043   1.087  1.5195 -0.1746 -0.7746
14122TIP3   OH242287   1.702   6.491   4.774 -0.8518  0.4689  0.2385
14122TIP3    H142288   1.789   6.510   4.738 -0.9926  0.4570 -0.1084
14122TIP3    H242289   1.720   6.431   4.847 -0.7208 -1.0995 -1.0497
14123TIP3   OH242290   3.107   8.130   5.025 -0.0581 -0.1856 -0.4361
14123TIP3    H142291   3.119   8.182   4.946 -1.0804 -0.6475 -0.8971
14123TIP3    H242292   3.195   8.122   5.062  0.0843  2.0750 -0.2277
14124TIP3   OH242293   1.415   3.823   0.106 -0.0197  0.0673 -0.3666
14124TIP3    H142294   1.411   3.891   0.173  0.6438  0.2060 -0.4545
14124TIP3    H242295   1.487   3.852   0.049  0.0150 -0.5157 -0.6163
14125TIP3   OH242296   0.060   2.791   0.448  0.3071 -0.1106 -0.4612
14125TIP3    H142297   0.029   2.712   0.406 -0.5757 -0.1846  0.3202
14125TIP3    H242298   0.118   2.760   0.518 -1.0663 -0.1367  0.6947
14126TIP3   OH242299   1.747   7.052   4.656 -0.3068  0.3984 -0.2390
14126TIP3    H142300   1.806   6.996   4.607 -0.1052  0.3055  0.1044
14126TIP3    H242301   1.738   7.009   4.741 -0.6672  0.5453 -0.2017
14127TIP3   OH242302   3.851   6.354   6.960 -0.1167 -0.3298 -0.7949
14127TIP3    H142303   3.835   6.362   7.054 -1.2633 -0.9226 -0.9176
14127TIP3    H242304   3.770   6.314   6.926  0.7518 -1.2158 -1.8478
14128TIP3   OH242305   4.723   0.851   4.820  0.3621  0.1221  0.3657
14128TIP3    H142306   4.784   0.925   4.813  1.0713 -0.4916  0.0238
14128TIP3    H242307   4.721   0.830   4.913  1.8477 -0.8303  0.1947
14129TIP3   OH242308   1.970   7.951   6.476 -0.4092  0.0135  0.2088
14129TIP3    H142309   2.065   7.961   6.472 -0.4096 -0.5430 -1.9966
14129TIP3    H242310   1.949   7.951   6.569  1.8248 -0.5416  0.7282
14130TIP3   OH242311   7.344   0.238   6.808 -0.5292 -0.2387 -0.3731
14130TIP3    H142312   7.325   0.316   6.861 -1.8575 -0.3964 -0.5906
14130TIP3    H242313   7.267   0.183   6.818  0.2956 -1.4207 -0.4359
14131TIP3   OH242314   3.129   7.206   4.181 -0.0746 -0.2943 -0.4058
14131TIP3    H142315   3.054   7.151   4.157 -0.1448  0.1705 -1.2665
14131TIP3    H242316   3.205   7.151   4.165 -0.2735 -1.3347  1.9739
14132TIP3   OH242317   3.102   1.426   5.121 -0.7268 -0.0330  0.1613
14132TIP3    H142318   3.051   1.495   5.165  0.3261  1.3743 -0.7710
14132TIP3    H242319   3.042   1.392   5.054 -0.5286  1.5453 -0.8608
14133TIP3   OH242320   4.478   7.598   6.398 -0.3888 -0.0349 -0.7232
14133TIP3    H142321   4.478   7.683   6.353  2.6521  0.0865 -0.5688
14133TIP3    H242322   4.465   7.620   6.490 -0.8483  0.1600 -0.8316
14134TIP3   OH242323   0.454   2.511   0.162 -0.0148  0.0400  0.2773
14134TIP3    H142324   0.459   2.578   0.094  0.7104 -0.6996 -0.4221
14134TIP3    H242325   0.394   2.546   0.228  0.7339  1.5672  0.1465
14135TIP3   OH242326   4.512   7.444   7.157 -0.3928  0.1332  0.4164
14135TIP3    H142327   4.598   7.404   7.175  0.7699  1.4403 -2.0760
14135TIP3    H242328   4.459   7.372   7.122  0.0613 -0.3950  0.7975
14136TIP3   OH242329   2.164   7.404   7.267 -0.1529  0.2540 -0.5498
14136TIP3    H142330   2.083   7.355   7.280 -1.2170  1.7133 -1.6266
14136TIP3    H242331   2.199   7.371   7.185 -1.4273  2.0185 -1.8344
14137TIP3   OH242332   5.559   7.058   3.610  0.4821  0.1064 -0.3604
14137TIP3    H142333   5.491   6.993   3.588 -0.0051  0.4293  0.1861
14137TIP3    H242334   5.546   7.128   3.546  1.2469 -0.4901 -1.1893
14138TIP3   OH242335   4.052   7.741   6.393 -0.3011  0.3447  0.1518
14138TIP3    H142336   4.096   7.749   6.477  0.2657  0.3754 -0.1477
14138TIP3    H242337   4.119   7.763   6.328 -0.5130 -0.4512 -0.3443
14139TIP3   OH242338   4.319   1.164   5.526  0.2100 -0.0676  0.5850
14139TIP3    H142339   4.400   1.162   5.474  0.4755 -2.8474  1.0101
14139TIP3    H242340   4.346   1.197   5.611  0.1961  2.3915 -0.3290
14140TIP3   OH242341   8.458   7.034   3.646  0.3983 -0.4342  0.0746
14140TIP3    H142342   8.427   7.060   3.733  0.2332  0.0187 -0.1189
14140TIP3    H242343   8.386   7.058   3.588  0.2218 -1.3734 -0.0974
14141TIP3   OH242344   3.276   7.720   6.644 -0.3011 -0.6004  0.5189
14141TIP3    H142345   3.340   7.667   6.595 -0.8878 -1.2828  0.4805
14141TIP3    H242346   3.269   7.801   6.595  1.1085 -0.2159  0.9353
14142TIP3   OH242347   3.429   8.303   6.970  0.2899 -0.6151  0.2711
14142TIP3    H142348   3.508   8.278   6.922  0.7894 -1.9839  1.7855
14142TIP3    H242349   3.379   8.357   6.907  2.2636  0.0293 -0.7817
14143TIP3   OH242350   2.585   7.017   5.153  0.0869  0.7624 -0.0845
14143TIP3    H142351   2.617   6.931   5.127 -0.0634  0.7478 -0.2214
14143TIP3    H242352   2.566   7.008   5.246  1.8744  1.1878  0.3442
14144TIP3   OH242353   8.468   4.822   1.955 -0.3218 -0.1813  0.2143
14144TIP3    H142354   8.434   4.785   1.873  1.6753 -1.4082 -0.0932
14144TIP3    H242355   8.524   4.894   1.928  0.8362 -0.9843  0.4681
14145TIP3   OH242356   1.988   7.696   6.910 -0.0853  0.8413  0.3442
14145TIP3    H142357   2.013   7.605   6.893 -1.2820  0.9384 -2.0884
14145TIP3    H242358   2.064   7.748   6.884  0.3567  0.6049  1.1326
14146TIP3   OH242359   7.782   4.912   0.662 -0.2546  0.6204 -0.3598
14146TIP3    H142360   7.767   4.817   0.659 -1.1194  0.7022  0.9529
14146TIP3    H242361   7.875   4.921   0.683 -0.3347  0.0541  0.2558
14147TIP3   OH242362   0.273   4.910   1.348 -0.5967  0.4062  0.3803
14147TIP3    H142363   0.267   4.938   1.257  0.7055 -0.0787  0.1412
14147TIP3    H242364   0.214   4.835   1.354 -0.5668  0.3456 -0.0910
14148TIP3   OH242365   0.130   2.106   1.163 -0.2172  0.1703  0.0053
14148TIP3    H142366   0.113   2.191   1.203 -0.5956 -0.2007  0.6489
14148TIP3    H242367   0.184   2.125   1.087 -1.4585  1.1359 -0.6548
14149TIP3   OH242368   5.849   0.699   6.868 -0.6060 -0.6666 -0.5885
14149TIP3    H142369   5.883   0.652   6.792  0.4912 -0.0032 -0.5131
14149TIP3    H242370   5.903   0.778   6.874 -0.6058 -0.7689  0.9647
14150TIP3   OH242371   4.334   1.716   6.181  0.1659 -0.4092  0.3207
14150TIP3    H142372   4.377   1.789   6.225 -0.0858 -0.5163  0.7567
14150TIP3    H242373   4.305   1.659   6.253  1.2288 -1.4300 -0.0415
14151TIP3   OH242374   2.345   6.051   6.303  0.2821 -0.0423 -0.1722
14151TIP3    H142375   2.264   6.098   6.327  0.9140  0.9032  0.1290
14151TIP3    H242376   2.355   6.070   6.209  1.8151  2.4249  0.4527
14152TIP3   OH242377   8.377   3.886  -0.021 -0.2921  0.2088 -0.1594
14152TIP3    H142378   8.427   3.967  -0.016 -0.6190  0.3834  0.3966
14152TIP3    H242379   8.413   3.832   0.050 -0.1270 -0.1073 -0.4784
14153TIP3   OH242380   3.313   6.839   6.544 -0.9000 -0.5030  0.8291
14153TIP3    H142381   3.394   6.789   6.544  0.6195  1.8669  0.6265
14153TIP3    H242382   3.297   6.859   6.636  0.7128  2.0117  0.6140
14154TIP3   OH242383   2.816   0.769   0.489  0.2244 -0.8537 -0.1329
14154TIP3    H142384   2.881   0.728   0.547 -1.8832 -2.5201  1.1346
14154TIP3    H242385   2.768   0.696   0.451 -1.3915  0.3687 -0.4904
14155TIP3   OH242386   5.784   0.876   3.571  0.7145 -1.0603 -0.4309
14155TIP3    H142387   5.705   0.899   3.523  0.7723 -1.1716 -0.5806
14155TIP3    H242388   5.769   0.908   3.660 -0.0962 -2.3568 -0.0818
14156TIP3   OH242389   8.242   5.354   6.549 -0.0575  0.4102  0.5969
14156TIP3    H142390   8.279   5.276   6.590  0.6687 -0.3101 -1.3563
14156TIP3    H242391   8.155   5.327   6.518 -0.4877  0.8711  1.3640
14157TIP3   OH242392   6.253   2.270   0.707 -0.0625  0.1727  0.1040
14157TIP3    H142393   6.239   2.235   0.619 -0.8668  2.1206 -0.5818
14157TIP3    H242394   6.345   2.296   0.708 -0.3537  1.2812 -0.6080
14158TIP3   OH242395   6.277   1.615   4.859 -0.0684 -0.5364 -0.1327
14158TIP3    H142396   6.369   1.598   4.880  0.2713  0.4687 -0.7551
14158TIP3    H242397   6.232   1.607   4.943  0.7046 -0.3071  0.3090
14159TIP3   OH242398   0.009   3.082   1.776 -0.2603 -0.2866  0.0184
14159TIP3    H142399   0.098   3.051   1.756 -0.3823  0.2030 -1.3986
14159TIP3    H242400   0.021   3.176   1.792 -0.4869 -0.2635  0.0410
14160TIP3   OH242401   5.892   0.336   5.864  0.1435 -0.0269 -0.1903
14160TIP3    H142402   5.915   0.422   5.900 -1.8210  0.5774 -0.3134
14160TIP3    H242403   5.944   0.329   5.784  3.1449 -0.5819  1.6958
14161TIP3   OH242404   5.690   0.780   5.389 -0.2530 -0.0316 -0.3090
14161TIP3    H142405   5.700   0.871   5.363 -0.4457 -0.5375 -2.2026
14161TIP3    H242406   5.685   0.731   5.307 -1.0559 -1.6545  0.6676
14162TIP3   OH242407   1.229   6.855   2.692  0.9493  0.0113  0.0516
14162TIP3    H142408   1.261   6.818   2.774 -0.9201  1.4597  1.4870
14162TIP3    H242409   1.276   6.938   2.683 -0.7297  1.1012  1.0421
14163TIP3   OH242410   2.815   7.440   6.117 -0.1128 -0.1102 -0.1038
14163TIP3    H142411   2.892   7.388   6.093  0.4394  0.3821  0.5658
14163TIP3    H242412   2.785   7.401   6.199 -0.9027 -0.6403 -0.6408
14164TIP3   OH242413   7.155   4.041   0.918 -0.5135 -0.2770  0.4169
14164TIP3    H142414   7.069   4.006   0.898 -0.2223 -0.6615 -0.1821
14164TIP3    H242415   7.171   4.016   1.009 -1.3855  0.5324  0.8022
14165TIP3   OH242416   5.847   0.754   4.565 -0.1304 -0.4101 -0.0308
14165TIP3    H142417   5.842   0.842   4.604 -0.4302 -0.5596  0.2675
14165TIP3    H242418   5.920   0.760   4.503 -0.3823  0.1594 -0.2848
14166TIP3   OH242419   7.797   2.701   0.462 -0.1495  0.0609 -0.0704
14166TIP3    H142420   7.806   2.745   0.546 -1.2512 -0.9842  0.6069
14166TIP3    H242421   7.867   2.636   0.461 -0.9071 -0.7732  0.5823
14167TIP3   OH242422   7.176   4.379   1.084  0.4738  0.8690  0.0634
14167TIP3    H142423   7.120   4.353   1.157  0.5219  0.5337 -0.0159
14167TIP3    H242424   7.191   4.473   1.096 -2.0377  1.4659 -1.2400
14168TIP3   OH242425   3.326   1.216   4.163  0.4246  0.0661 -0.8474
14168TIP3    H142426   3.234   1.196   4.146  1.4774 -2.7403 -3.5885
14168TIP3    H242427   3.346   1.170   4.244 -0.4510  0.3237 -0.4783
14169TIP3   OH242428   8.784   3.723   0.978  0.3182 -0.0972 -0.2857
14169TIP3    H142429   8.759   3.812   1.001 -0.0502 -0.3036  0.1131
14169TIP3    H242430   8.723   3.698   0.909 -0.5279 -0.5701  0.6284
14170TIP3   OH242431   0.832   5.129   0.392 -0.0130 -0.0141  0.2268
14170TIP3    H142432   0.902   5.192   0.407 -0.0989 -0.0379  0.7419
14170TIP3    H242433   0.810   5.140   0.299  0.7114 -0.0539  0.0452
14171TIP3   OH242434   3.904   8.312   6.583  0.5256 -0.2185  0.4147
14171TIP3    H142435   3.914   8.370   6.659  0.3435  1.3439 -0.7292
14171TIP3    H242436   3.930   8.366   6.508 -0.4759 -1.3541 -0.7719
14172TIP3   OH242437   4.679   7.570   6.030  0.1959 -0.1500  0.1568
14172TIP3    H142438   4.623   7.623   5.974  0.3170  0.2988  0.4551
14172TIP3    H242439   4.766   7.606   6.018  0.6024 -1.4696 -1.0519
14173TIP3   OH242440   2.826   7.695   6.189  0.2129  0.0144  0.3251
14173TIP3    H142441   2.821   7.610   6.146  0.9962 -1.1399  2.4546
14173TIP3    H242442   2.908   7.693   6.238  0.5557  2.2513 -0.0901
14174TIP3   OH242443   0.676   2.810   2.224  0.0818  0.0745  0.4123
14174TIP3    H142444   0.657   2.828   2.132 -1.9660 -0.6972  0.6583
14174TIP3    H242445   0.717   2.891   2.256  1.1540  0.2159 -1.2450
14175TIP3   OH242446   8.746   3.892   1.287 -0.7237 -0.5544  0.3579
14175TIP3    H142447   8.753   3.931   1.200  1.6994  1.1066  1.2364
14175TIP3    H242448   8.833   3.853   1.302 -1.5764 -2.0719  1.4800
14176TIP3   OH242449   3.036   6.857   4.018 -0.4674 -0.2203  0.0426
14176TIP3    H142450   3.118   6.844   4.065 -1.7316 -1.1381  2.0750
14176TIP3    H242451   3.043   6.802   3.940  0.1147 -1.7533  1.1590
14177TIP3   OH242452   5.720   1.191   6.646 -0.0568  0.0705  0.2121
14177TIP3    H142453   5.675   1.116   6.607  3.1267 -1.6083 -0.3541
14177TIP3    H242454   5.786   1.153   6.703 -0.7387  2.5020  2.7326
14178TIP3   OH242455   3.061   6.973   6.436  0.4364 -0.0589  0.8253
14178TIP3    H142456   3.130   6.916   6.470 -0.3066 -1.1639  0.5058
14178TIP3    H242457   3.102   7.059   6.431  1.8565 -0.7344  0.4541
14179TIP3   OH242458   6.632   0.571   5.005 -0.7659  0.1204  0.2504
14179TIP3    H142459   6.584   0.493   4.976 -1.1043  0.0776  0.9115
14179TIP3    H242460   6.566   0.641   5.005  0.1512  1.0347 -2.9737
14180TIP3   OH242461   4.720   7.459   5.711 -0.1383 -0.1946 -0.2829
14180TIP3    H142462   4.675   7.447   5.794  0.5162 -0.0392  0.1027
14180TIP3    H242463   4.813   7.468   5.735  0.1182 -0.6649 -1.0676
14181TIP3   OH242464   3.825   7.092   5.586  0.1420 -0.0014  0.1770
14181TIP3    H142465   3.871   7.149   5.525 -0.3860  1.4880  1.1430
14181TIP3    H242466   3.811   7.146   5.664 -2.8929 -0.5269  0.0531
14182TIP3   OH242467   2.604   6.093   6.319 -0.2338 -0.0772 -0.1505
14182TIP3    H142468   2.642   6.076   6.233  0.5323  0.9008 -0.0027
14182TIP3    H242469   2.510   6.094   6.304 -0.1017 -0.0243 -0.9467
14183TIP3   OH242470   5.192   7.738   6.227 -0.3482 -0.2264  0.2654
14183TIP3    H142471   5.226   7.659   6.185 -1.4359 -0.3046 -0.4896
14183TIP3    H242472   5.097   7.727   6.226 -0.3787 -1.2786  4.8501
14184TIP3   OH242473   5.269   0.473   3.986 -0.1939  0.2890  0.3903
14184TIP3    H142474   5.339   0.483   4.051 -1.1511  0.9023  1.3325
14184TIP3    H242475   5.240   0.383   3.995  0.8703 -0.1465 -0.4152
14185TIP3   OH242476   3.781   7.813   6.945 -0.4958  0.4382  0.0938
14185TIP3    H142477   3.704   7.808   7.002 -0.6728 -0.5854 -0.2318
14185TIP3    H242478   3.823   7.727   6.953 -0.4406  0.3368 -1.1909
14186TIP3   OH242479   4.370   7.001   4.827  0.3834  0.0245  0.3157
14186TIP3    H142480   4.360   7.066   4.757  1.1941  2.8029  2.6641
14186TIP3    H242481   4.464   7.003   4.847  0.0010  0.0883  2.1894
14187TIP3   OH242482   2.034   7.211   4.349 -0.3989 -0.1560 -0.5445
14187TIP3    H142483   2.064   7.123   4.329  1.2424  0.7012 -1.9462
14187TIP3    H242484   2.069   7.230   4.436  1.5926  0.1433 -1.3986
14188TIP3   OH242485   6.426   2.444   5.512  0.0561  0.1526 -0.1770
14188TIP3    H142486   6.449   2.379   5.446  0.8588  1.2393 -0.9897
14188TIP3    H242487   6.502   2.448   5.569  0.0496  0.4598 -0.1908
14189TIP3   OH242488   7.078   0.057   4.329  0.6437  0.0805 -0.0045
14189TIP3    H142489   7.031   0.032   4.249 -0.1114  1.8675 -0.1412
14189TIP3    H242490   7.151  -0.005   4.334 -1.3922 -2.4026 -0.0749
14190TIP3   OH242491   6.444   0.916   6.308  0.2165 -0.0876  0.4610
14190TIP3    H142492   6.520   0.968   6.282  1.7961 -2.1527  0.8494
14190TIP3    H242493   6.378   0.935   6.241  1.3745  1.0665 -0.3723
14191TIP3   OH242494   3.465   7.475   5.176  0.0785  0.3891 -0.7093
14191TIP3    H142495   3.369   7.476   5.184  0.0979  1.9809 -0.3955
14191TIP3    H242496   3.484   7.395   5.129 -1.3812 -0.2341 -0.2911
14192TIP3   OH242497   4.902   7.785   5.953 -0.1138  0.2144  0.4846
14192TIP3    H142498   4.909   7.880   5.963 -1.1176  0.3297  0.1225
14192TIP3    H242499   4.952   7.750   6.027 -1.0317  1.0337  1.5217
14193TIP3   OH242500   7.744   0.708   5.632  0.1645  0.2164  0.3433
14193TIP3    H142501   7.758   0.802   5.642  0.8135  0.2095 -0.4581
14193TIP3    H242502   7.761   0.691   5.539 -0.6530 -0.5706  0.3309
14194TIP3   OH242503   7.968   2.420   5.832 -0.5429  0.3692  0.1650
14194TIP3    H142504   7.955   2.326   5.838  1.0100  0.1379  0.0989
14194TIP3    H242505   8.061   2.433   5.849 -0.7766  1.9157  0.4171
14195TIP3   OH242506   4.526   6.568   4.981  0.0523 -0.1327 -0.3895
14195TIP3    H142507   4.453   6.626   4.957  0.1062 -0.7470 -2.0615
14195TIP3    H242508   4.599   6.628   4.996 -0.7378  0.4735  1.1038
14196TIP3   OH242509   3.773   6.228   4.810  0.0431 -0.3432 -0.1381
14196TIP3    H142510   3.731   6.307   4.846  0.4531  0.6459 -1.7918
14196TIP3    H242511   3.749   6.159   4.872 -0.8888  0.9389  0.9836
14197TIP3   OH242512   4.327   7.318   3.946  0.6106 -0.3212  0.2908
14197TIP3    H142513   4.242   7.321   3.904  0.6794 -1.1075  0.0844
14197TIP3    H242514   4.326   7.237   3.997  1.6899 -0.9813 -0.6993
14198TIP3   OH242515   4.131   6.966   4.531  1.1408 -0.6520 -0.1587
14198TIP3    H142516   4.081   6.903   4.583 -1.8514  1.0561 -0.8986
14198TIP3    H242517   4.188   7.010   4.594 -1.3135  0.2954  1.4581
14199TIP3   OH242518   0.765   5.709   0.203 -0.1898 -0.1629  0.2928
14199TIP3    H142519   0.859   5.703   0.185  0.2207 -0.2397  2.3555
14199TIP3    H242520   0.743   5.801   0.191 -0.1769 -0.3971 -1.6607
14200TIP3   OH242521   3.966   8.397   5.669  0.2669  0.0325 -0.5133
14200TIP3    H142522   4.027   8.324   5.680  0.9320  0.9667  2.3153
14200TIP3    H242523   3.931   8.385   5.581  1.5241 -2.8053 -0.6884
14201TIP3   OH242524   4.243   6.018   6.443  0.0098  0.1866 -0.6954
14201TIP3    H142525   4.296   6.027   6.364 -0.3335  1.2327 -0.8169
14201TIP3    H242526   4.153   6.028   6.413 -0.1857 -0.5040 -0.3314
14202TIP3   OH242527   6.034   8.031   6.185  0.2993  0.3087 -0.2265
14202TIP3    H142528   6.012   8.067   6.271 -0.3193 -0.4794 -0.0473
14202TIP3    H242529   6.130   8.034   6.181  0.4254 -1.2787  1.2104
14203TIP3   OH242530   6.367   7.731   5.750  0.3020  0.2378 -0.3217
14203TIP3    H142531   6.412   7.810   5.721  0.1273  0.5782  0.3362
14203TIP3    H242532   6.415   7.660   5.708 -0.0860  0.7292 -1.6322
14204TIP3   OH242533   1.565   4.324   0.358  0.5559  0.8421  0.8669
14204TIP3    H142534   1.517   4.317   0.275  0.6463  0.7886  0.8186
14204TIP3    H242535   1.632   4.390   0.342  2.1151 -0.8767  0.1324
14205TIP3   OH242536   4.054   8.161   6.916 -0.0085 -0.3889  0.1864
14205TIP3    H142537   3.977   8.107   6.896  0.4822 -1.1866  0.4083
14205TIP3    H242538   4.127   8.098   6.917  0.5318  0.2469  0.7147
14206TIP3   OH242539   4.577   8.231   6.926 -0.5524 -0.5431  0.0201
14206TIP3    H142540   4.539   8.262   6.844 -0.1958 -1.5557 -0.5403
14206TIP3    H242541   4.647   8.294   6.945 -0.5099 -0.4108 -0.5530
14207TIP3   OH242542   3.901   8.242   4.664 -0.7527  0.0512  0.4004
14207TIP3    H142543   3.958   8.170   4.635 -0.9776  0.9667 -2.5154
14207TIP3    H242544   3.816   8.221   4.626 -1.1343  1.2064  0.6201
14208TIP3   OH242545   4.924   6.012   5.963 -0.0536 -0.3162 -0.3310
14208TIP3    H142546   5.006   5.991   6.007 -0.4292  1.1349  1.1228
14208TIP3    H242547   4.894   6.093   6.005 -1.6131 -0.1657 -1.6708
14209TIP3   OH242548   4.866   8.356   7.237  0.2020  0.1728  0.6561
14209TIP3    H142549   4.886   8.262   7.229 -2.6767 -0.5812  1.5014
14209TIP3    H242550   4.924   8.398   7.174  1.2593 -2.2311 -0.0588
14210TIP3   OH242551   4.283   5.839   4.561  0.2649  0.3676 -0.5342
14210TIP3    H142552   4.341   5.915   4.556  1.4447 -0.3822  0.9778
14210TIP3    H242553   4.267   5.827   4.654 -1.5754 -0.0178 -0.8875
14211TIP3   OH242554   5.476   8.292   6.023 -0.0479 -0.1804  0.1189
14211TIP3    H142555   5.551   8.280   5.965 -0.9053  1.2151 -1.2988
14211TIP3    H242556   5.506   8.355   6.088  0.8473 -1.5959  1.1161
14212TIP3   OH242557   5.494   6.386   2.953 -0.5804 -0.2308  0.0570
14212TIP3    H142558   5.480   6.357   2.863  1.9674 -1.3634 -0.0390
14212TIP3    H242559   5.508   6.305   3.002  0.0553  0.4792  1.0705
14213TIP3   OH242560   7.911   0.453   5.588 -0.5821  0.3212  0.2710
14213TIP3    H142561   7.867   0.466   5.672 -0.3202  0.7042  0.3473
14213TIP3    H242562   7.886   0.529   5.535 -0.8155  0.0373 -0.0274
14214TIP3   OH242563   3.481   6.097   3.832  0.0737 -0.0611 -0.1984
14214TIP3    H142564   3.481   6.184   3.873 -2.8578  0.2247 -0.6745
14214TIP3    H242565   3.475   6.116   3.738  1.1970 -0.7768 -0.4187
14215TIP3   OH242566   4.598   7.806   7.146  0.1785 -0.2193  0.6685
14215TIP3    H142567   4.676   7.772   7.101 -0.7580 -0.4240 -0.8413
14215TIP3    H242568   4.626   7.889   7.184  1.5482 -1.0215  1.4419
14216TIP3   OH242569   3.575   7.264   3.984  0.4053  0.1147  0.2220
14216TIP3    H142570   3.550   7.356   3.973 -0.3467 -0.3487 -2.5855
14216TIP3    H242571   3.669   7.266   3.998  0.5339  1.2763 -0.7103
14217TIP3   OH242572   4.494   7.777   4.733 -0.3545 -0.2467 -0.5089
14217TIP3    H142573   4.515   7.729   4.813 -0.4535 -0.7690 -0.7990
14217TIP3    H242574   4.426   7.840   4.761 -0.9697 -0.9722 -0.3524
14218TIP3   OH242575   2.218   7.758   6.753  0.0872  0.6023  0.2896
14218TIP3    H142576   2.207   7.757   6.657 -3.0332 -0.2109  0.6050
14218TIP3    H242577   2.276   7.684   6.771  0.0094  0.2351 -0.9135
14219TIP3   OH242578   8.707   2.006   4.160  0.2610 -0.4941 -0.4647
14219TIP3    H142579   8.753   1.931   4.122  0.4947 -0.5045 -0.1633
14219TIP3    H242580   8.737   2.009   4.251  1.8207  1.1819 -1.0087
14220TIP3   OH242581   8.589   0.436   4.904  0.1281 -0.2189  0.1646
14220TIP3    H142582   8.499   0.426   4.937 -0.4564 -0.9459 -1.5645
14220TIP3    H242583   8.599   0.364   4.842  1.4535  0.6582 -0.6527
14221TIP3   OH242584   3.886   7.974   6.290  0.0244  0.6536 -0.3061
14221TIP3    H142585   3.897   7.891   6.336 -0.3965  0.5660 -0.3684
14221TIP3    H242586   3.853   7.951   6.204 -0.3008  0.9007 -0.2485
14222TIP3   OH242587   4.227   7.654   3.433  0.4485 -0.6021  0.3854
14222TIP3    H142588   4.153   7.697   3.390  0.3125 -1.4339 -0.2054
14222TIP3    H242589   4.196   7.567   3.456  1.1539 -0.8617  0.3835
14223TIP3   OH242590   6.359   0.168   4.747  0.0879 -0.0438 -0.3579
14223TIP3    H142591   6.324   0.205   4.829  1.5329  1.1127 -0.2304
14223TIP3    H242592   6.405   0.089   4.775 -0.0702 -0.0656 -0.1516
14224TIP3   OH242593   7.790   0.953   6.248 -0.3496 -0.1163 -0.1287
14224TIP3    H142594   7.833   0.919   6.325 -0.0360 -0.8464 -0.6193
14224TIP3    H242595   7.768   0.875   6.196 -0.6214  0.3557 -0.7362
14225TIP3   OH242596   0.361   5.965   0.882  0.3103 -0.2578  0.0025
14225TIP3    H142597   0.422   5.940   0.813  1.4573  1.6834  0.2671
14225TIP3    H242598   0.395   6.048   0.915 -0.2558 -1.1047  2.8545
14226TIP3   OH242599   6.432   0.340   6.941 -0.2468  0.4014 -0.5186
14226TIP3    H142600   6.456   0.248   6.948  0.7963  0.7336  0.6034
14226TIP3    H242601   6.483   0.373   6.866 -1.0179 -0.0566 -1.2399
14227TIP3   OH242602   4.272   7.994   5.404 -0.0673  0.4310 -0.0541
14227TIP3    H142603   4.286   7.975   5.497  2.1902 -0.6210 -0.5860
14227TIP3    H242604   4.209   8.066   5.404  1.4600  1.8335  2.3480
14228TIP3   OH242605   0.853   0.156   4.805  0.1127 -0.0772  0.4941
14228TIP3    H142606   0.932   0.131   4.853 -0.6184 -1.1728  1.1643
14228TIP3    H242607   0.813   0.224   4.859 -0.0075 -0.3666  0.7782
14229TIP3   OH242608   2.491   7.050   4.519  0.0903  0.0432 -0.3000
14229TIP3    H142609   2.569   7.017   4.564 -0.6857  0.6683  1.5391
14229TIP3    H242610   2.458   6.974   4.471  1.5127 -0.3737 -0.6650
14230TIP3   OH242611   4.363   5.110   4.451  0.2437 -0.6070 -0.1223
14230TIP3    H142612   4.440   5.164   4.433  0.1340 -0.5198 -0.3470
14230TIP3    H242613   4.387   5.022   4.420  0.0625 -0.4610 -0.6886
14231TIP3   OH242614   4.110   7.258   3.798  0.0995  0.1725 -0.0147
14231TIP3    H142615   4.027   7.300   3.773  0.2273  1.9691  2.3288
14231TIP3    H242616   4.103   7.168   3.766 -2.3084  0.5999 -0.7671
14232TIP3   OH242617   0.469   4.017   0.241  0.0681  0.2522 -0.1303
14232TIP3    H142618   0.504   4.097   0.202 -1.3458  1.0583  0.2102
14232TIP3    H242619   0.481   4.030   0.335  2.6316 -1.2901 -0.1837
14233TIP3   OH242620   4.004   7.371   4.646  0.3788 -0.4255  0.5764
14233TIP3    H142621   3.947   7.294   4.641  1.2893 -1.0565 -0.4094
14233TIP3    H242622   4.065   7.352   4.716 -2.2629  1.4235  3.5078
14234TIP3   OH242623   4.710   8.262   5.435  0.2549 -0.5864 -0.5226
14234TIP3    H142624   4.780   8.302   5.487 -0.3054  0.0559 -0.2338
14234TIP3    H242625   4.685   8.184   5.484 -1.2785  0.8103  0.9947
14235TIP3   OH242626   7.853   0.084   5.077  0.0211 -0.0985 -0.2670
14235TIP3    H142627   7.848   0.129   4.993 -0.3746  0.7160  0.1861
14235TIP3    H242628   7.768   0.042   5.087 -0.3396  0.7307  0.2297
14236TIP3   OH242629   7.086   0.257   3.658  0.2180 -0.4576  0.1921
14236TIP3    H142630   7.048   0.195   3.596 -1.0338  1.2937 -0.8270
14236TIP3    H242631   7.171   0.220   3.680  1.2130 -0.4963 -3.5257
14237TIP3   OH242632   5.803   0.104   3.634  0.2161  0.0800 -0.0671
14237TIP3    H142633   5.818   0.096   3.539 -0.7957 -0.6022 -0.1688
14237TIP3    H242634   5.744   0.179   3.643 -0.1863 -0.2405 -0.0241
14238TIP3   OH242635   4.035   7.882   7.159  0.3277 -0.1396  0.4466
14238TIP3    H142636   3.948   7.891   7.120  0.1350 -1.1500  0.6224
14238TIP3    H242637   4.095   7.884   7.085  0.0787 -0.4683  0.2344
14239TIP3   OH242638   3.893   6.049   5.626  0.2125  0.1639 -0.8828
14239TIP3    H142639   3.899   5.973   5.568  0.0468 -1.2430  0.9250
14239TIP3    H242640   3.818   6.099   5.592  0.3472 -0.4358 -2.0997
14240TIP3   OH242641   4.103   8.056   4.547  0.1748  0.3896  0.0849
14240TIP3    H142642   4.183   8.039   4.499  0.1261  1.0409 -0.2382
14240TIP3    H242643   4.038   8.075   4.479  0.5057  2.9708  0.4533
14241TIP3   OH242644   2.958   5.075   7.088 -0.1448 -0.3718  0.4050
14241TIP3    H142645   2.970   4.999   7.030 -3.3611 -0.3423 -0.3725
14241TIP3    H242646   2.942   5.148   7.028  1.5194  0.6727  1.2119
14242TIP3   OH242647   2.426   7.529   6.890  0.5487  0.0205 -0.1326
14242TIP3    H142648   2.506   7.482   6.914 -0.0092 -1.0640 -0.3680
14242TIP3    H242649   2.372   7.464   6.845 -0.2274  0.8954 -0.4914
14243TIP3   OH242650   3.894   6.266   2.898 -0.1054  0.1907  0.3345
14243TIP3    H142651   3.863   6.183   2.862  1.1146 -0.3418  0.4588
14243TIP3    H242652   3.841   6.280   2.976 -0.3065 -0.5032  0.3301
14244TIP3   OH242653   3.665   6.811   6.858  0.4232 -0.7003 -0.2613
14244TIP3    H142654   3.595   6.806   6.792  0.7221 -0.8917 -0.5652
14244TIP3    H242655   3.634   6.756   6.930  0.1768 -0.6348 -0.3171
14245TIP3   OH242656   6.075   0.435   4.526  0.0880 -0.1842 -0.1572
14245TIP3    H142657   6.150   0.375   4.537 -0.6700 -1.3620 -1.2818
14245TIP3    H242658   6.010   0.383   4.478 -0.3025  1.7927 -1.8168
14246TIP3   OH242659   6.419   1.691   6.705  0.0072  0.4016 -0.6143
14246TIP3    H142660   6.483   1.650   6.762 -2.4560 -1.1444  1.1575
14246TIP3    H242661   6.357   1.621   6.685 -1.4077  1.9602 -1.8636
14247TIP3   OH242662   1.935   4.609   0.541 -0.7209 -0.4420 -0.1096
14247TIP3    H142663   1.859   4.618   0.598  0.3070  1.2421  1.0526
14247TIP3    H242664   1.995   4.553   0.591 -0.5243 -0.3959 -0.2957
14248TIP3   OH242665   2.818   6.678   6.458 -0.0560 -0.4501 -0.0135
14248TIP3    H142666   2.861   6.685   6.373 -0.4879 -3.1966 -0.4793
14248TIP3    H242667   2.889   6.659   6.520 -0.4046 -4.2950 -0.6802
14249TIP3   OH242668   1.579   2.649   1.704  0.1927 -0.4972  0.8625
14249TIP3    H142669   1.612   2.727   1.659 -1.4613  0.1746  0.7772
14249TIP3    H242670   1.627   2.647   1.787  2.6505 -1.2703 -0.5309
14250TIP3   OH242671   3.417   6.839   5.397 -0.1215 -0.2131 -0.7159
14250TIP3    H142672   3.363   6.907   5.437 -0.0809  1.1160 -2.8175
14250TIP3    H242673   3.356   6.785   5.348 -0.2234 -2.0671  1.3717
14251TIP3   OH242674   1.655   4.795   0.864  0.6186  0.1394  0.3463
14251TIP3    H142675   1.658   4.714   0.812 -0.8730  1.1635 -1.4071
14251TIP3    H242676   1.578   4.783   0.920  0.1286  0.5252 -0.2400
14252TIP3   OH242677   6.688   8.218   5.609  0.6762  0.3531  0.1264
14252TIP3    H142678   6.729   8.163   5.542 -0.1749  1.9407 -1.7461
14252TIP3    H242679   6.677   8.160   5.684  1.9184 -1.3902 -0.9936
14253TIP3   OH242680   7.795   0.602   5.396 -0.1384 -0.1697 -0.1716
14253TIP3    H142681   7.848   0.661   5.343 -0.1210  0.9439  1.0920
14253TIP3    H242682   7.735   0.562   5.333  2.0235 -1.2918 -1.5794
14254TIP3   OH242683   2.949   7.481   4.031  0.2108  0.0349 -0.0286
14254TIP3    H142684   2.908   7.532   4.101  0.3110  0.0889 -0.0096
14254TIP3    H242685   3.030   7.528   4.011  0.1013  0.1088 -0.2933
14255TIP3   OH242686   6.273   0.585   5.556 -0.9015  0.3549  0.4640
14255TIP3    H142687   6.201   0.620   5.503 -1.6580 -0.7876  0.7064
14255TIP3    H242688   6.349   0.637   5.530 -1.5348  0.7074 -0.7664
14256TIP3   OH242689   7.209   1.055   4.193  0.0209 -0.4120  0.3116
14256TIP3    H142690   7.245   1.141   4.170 -1.2270 -0.0266 -0.2700
14256TIP3    H242691   7.140   1.041   4.128  0.1295 -1.7978  0.4896
14257TIP3   OH242692   7.200   0.524   5.325 -0.6567  0.2808 -0.5355
14257TIP3    H142693   7.224   0.539   5.233 -0.9608  1.5210 -0.4158
14257TIP3    H242694   7.253   0.586   5.375 -1.1443  0.2321  0.0511
14258TIP3   OH242695   1.474   4.753   0.203 -0.3650  0.0504  0.1969
14258TIP3    H142696   1.400   4.716   0.155 -1.6743  1.6912  0.9389
14258TIP3    H242697   1.534   4.679   0.215 -1.8604 -1.2807 -0.4204
14259TIP3   OH242698   4.046   8.322   7.134  0.0672 -0.0934  0.0548
14259TIP3    H142699   4.079   8.254   7.193  1.0427  0.4889  0.1909
14259TIP3    H242700   4.015   8.274   7.057 -1.9563 -0.9275  1.3399
14260TIP3   OH242701   1.142   2.155   0.930  0.3470 -0.1732 -0.5857
14260TIP3    H142702   1.152   2.063   0.906  0.9317 -0.0608 -0.7720
14260TIP3    H242703   1.132   2.202   0.847 -0.4384 -0.1244 -0.4680
14261TIP3   OH242704   4.873   7.285   7.056 -0.0595  0.1039 -0.2478
14261TIP3    H142705   4.837   7.279   7.145 -0.3404  0.4392 -0.3378
14261TIP3    H242706   4.961   7.318   7.069 -0.3230  0.7736 -0.1371
14262TIP3   OH242707   2.792   8.200   4.147 -0.7169  0.3695  0.4250
14262TIP3    H142708   2.806   8.141   4.221 -1.4286 -1.6111 -0.9745
14262TIP3    H242709   2.854   8.170   4.081 -1.5127  0.7863 -0.5242
14263TIP3   OH242710   4.505   7.994   4.998 -0.2779  0.6224  0.5100
14263TIP3    H142711   4.559   8.070   4.977 -0.1503  0.7668  1.3443
14263TIP3    H242712   4.488   8.001   5.092 -0.0733 -0.4858  0.6480
14264TIP3   OH242713   4.021   6.727   3.467 -0.0799  0.2710 -0.2641
14264TIP3    H142714   4.036   6.807   3.517  2.1685 -0.0654 -0.3572
14264TIP3    H242715   3.929   6.731   3.442 -0.7975  1.2941  2.3911
14265TIP3   OH242716   3.849   7.562   6.397 -0.1160 -0.4127 -0.0314
14265TIP3    H142717   3.786   7.629   6.424  0.5019  0.3499 -0.4931
14265TIP3    H242718   3.928   7.610   6.374  0.6319 -1.3669  0.4896
14266TIP3   OH242719   6.297   0.257   5.448  0.7126 -0.5115  0.8306
14266TIP3    H142720   6.340   0.343   5.444 -1.1409  0.3809 -1.4092
14266TIP3    H242721   6.258   0.254   5.535  1.0408  0.8280  1.0451
14267TIP3   OH242722   8.423   3.676   4.169 -0.1697  0.1578  0.7434
14267TIP3    H142723   8.507   3.649   4.208 -0.6131 -2.2613  0.0960
14267TIP3    H242724   8.362   3.678   4.243  0.0103 -0.0481  0.8991
14268TIP3   OH242725   2.020   8.337   7.021  0.0545  0.2765  0.2079
14268TIP3    H142726   2.099   8.388   7.040  1.4830  0.2082 -4.9800
14268TIP3    H242727   1.949   8.401   7.020  0.3082  0.6511  2.8528
14269TIP3   OH242728   1.592   2.922   0.222  0.1341 -0.0111 -0.3931
14269TIP3    H142729   1.497   2.913   0.226  0.4586 -2.5394  2.7138
14269TIP3    H242730   1.620   2.856   0.159  0.0002 -0.7230  0.2907
14270TIP3   OH242731   4.660   7.035   2.720 -0.2956 -0.0591  0.3838
14270TIP3    H142732   4.698   7.055   2.806  0.5195 -1.8643  0.4636
14270TIP3    H242733   4.611   6.954   2.733  0.2010 -0.5912 -0.9482
14271TIP3   OH242734   6.864   1.543   5.733 -0.1296 -0.1186 -0.4906
14271TIP3    H142735   6.789   1.559   5.789  1.0961  0.7869  0.9139
14271TIP3    H242736   6.829   1.550   5.644 -1.7655 -0.0377  0.1433
14272TIP3   OH242737   5.095   1.177   4.006  0.3491  0.0674 -0.0709
14272TIP3    H142738   5.027   1.136   4.060  2.1665 -1.6822  0.9301
14272TIP3    H242739   5.156   1.216   4.068  1.7258 -0.7612 -0.8678
14273TIP3   OH242740   7.306   0.482   6.932  0.1779 -0.3130  0.1423
14273TIP3    H142741   7.212   0.468   6.924  0.4626 -0.8997 -2.7720
14273TIP3    H242742   7.324   0.557   6.876  1.4495 -0.1102  0.7978
14274TIP3   OH242743   6.861   8.333   6.845  0.2339  0.0951 -0.6282
14274TIP3    H142744   6.937   8.318   6.790  0.6657 -0.1996  0.0488
14274TIP3    H242745   6.894   8.326   6.935 -0.0995  2.3652 -0.3156
14275TIP3   OH242746   5.408   0.949   5.263 -0.1818 -0.4326 -0.2897
14275TIP3    H142747   5.347   0.951   5.189 -0.7902  2.6047  0.2215
14275TIP3    H242748   5.486   0.994   5.231 -1.3256  3.0674  1.5513
14276TIP3   OH242749   2.804   6.105   6.110  0.3503 -0.0606  0.1728
14276TIP3    H142750   2.799   6.197   6.083 -0.0644 -0.1889 -0.1912
14276TIP3    H242751   2.856   6.063   6.042 -0.6888 -0.3824 -0.4243
14277TIP3   OH242752   5.064   0.930   2.834  0.8704 -0.4406 -0.0103
14277TIP3    H142753   5.044   0.918   2.741 -1.8958 -0.4014  0.5344
14277TIP3    H242754   5.068   0.841   2.869 -0.7433 -0.3766  0.3451
14278TIP3   OH242755   2.597   8.168   3.964 -0.4426 -0.2082  0.0109
14278TIP3    H142756   2.580   8.074   3.952  0.1346 -0.3284  0.1182
14278TIP3    H242757   2.659   8.172   4.036  0.0070  0.2199 -0.3959
14279TIP3   OH242758   0.679   0.863   0.470 -1.0592 -0.0527  0.0710
14279TIP3    H142759   0.603   0.872   0.412  0.1101  0.3348 -1.4371
14279TIP3    H242760   0.659   0.920   0.544 -2.5589 -0.5182  0.0381
14280TIP3   OH242761   1.270   7.858   3.843  0.3520 -0.5918  0.0669
14280TIP3    H142762   1.249   7.790   3.780 -1.0900  0.3668 -0.5165
14280TIP3    H242763   1.205   7.849   3.912 -0.1017  0.4465 -0.2149
14281TIP3   OH242764   4.542   6.913   5.408  0.2190  0.5757  0.2769
14281TIP3    H142765   4.630   6.947   5.425  0.1390  0.5945  0.6684
14281TIP3    H242766   4.492   6.989   5.377  0.2834  0.6142  0.2662
14282TIP3   OH242767   4.516   1.646   4.267  0.1163 -0.0987 -0.3720
14282TIP3    H142768   4.608   1.633   4.243  0.5283 -1.1345  1.6448
14282TIP3    H242769   4.482   1.558   4.283 -1.3927  0.2349 -1.5966
14283TIP3   OH242770   7.431   0.397   6.577 -0.5725  0.8278 -0.4568
14283TIP3    H142771   7.392   0.310   6.576 -1.7316  1.2955  1.0948
14283TIP3    H242772   7.506   0.389   6.637 -1.6123  1.2391  0.9461
14284TIP3   OH242773   7.890   3.434   0.137  0.1576  0.2166 -0.3174
14284TIP3    H142774   7.882   3.407   0.045 -0.4984  1.3239 -0.5915
14284TIP3    H242775   7.882   3.353   0.186 -0.4731 -0.2686 -1.1983
14285TIP3   OH242776   6.265   6.142   4.718 -0.4972 -0.5169 -0.0202
14285TIP3    H142777   6.349   6.105   4.744 -1.0086 -1.1661  0.7507
14285TIP3    H242778   6.276   6.237   4.730 -0.1944 -0.6721  1.0521
14286TIP3   OH242779   3.535   7.789   4.894  0.0610 -0.2770  0.4407
14286TIP3    H142780   3.462   7.769   4.953  0.8280 -0.1046  1.4633
14286TIP3    H242781   3.534   7.718   4.829 -0.4950 -0.7275  0.9384
14287TIP3   OH242782   0.171   0.228   0.429  0.6622 -0.0910  0.2767
14287TIP3    H142783   0.180   0.322   0.448  0.6574  0.1889 -1.0416
14287TIP3    H242784   0.161   0.187   0.515  2.2868  0.9337  0.9806
14288TIP3   OH242785   3.854   6.282   5.389  0.2574 -0.0133  0.0195
14288TIP3    H142786   3.771   6.243   5.417  0.6933 -0.4619  0.7048
14288TIP3    H242787   3.843   6.376   5.407 -0.3663  0.0372 -0.5753
14289TIP3   OH242788   2.301   7.703   3.577  0.6399 -0.4256  0.1120
14289TIP3    H142789   2.290   7.725   3.670 -1.7252 -0.9357 -0.0224
14289TIP3    H242790   2.216   7.669   3.550  0.9825  0.7562 -2.5507
14290TIP3   OH242791   2.034   6.942   5.200  0.4848  0.1780 -0.1254
14290TIP3    H142792   1.993   6.947   5.114 -0.6426  1.6878  0.4834
14290TIP3    H242793   2.127   6.931   5.182  0.2773  0.7097 -1.5314
14291TIP3   OH242794   8.825   0.022   6.166  0.3917 -0.7733  0.2644
14291TIP3    H142795   8.840   0.102   6.116  1.8472 -0.5466  1.0465
14291TIP3    H242796   8.730   0.011   6.164  0.2777  0.2631 -0.9426
14292TIP3   OH242797   3.011   7.906   6.402 -0.1099  0.3179 -0.0584
14292TIP3    H142798   3.097   7.944   6.421  0.1435 -0.1801 -0.2013
14292TIP3    H242799   3.029   7.815   6.378 -0.8964 -0.4791  2.2551
14293TIP3   OH242800   5.445   0.565   4.181  0.0128 -0.4639  0.3818
14293TIP3    H142801   5.504   0.515   4.237  0.0137 -0.2749  0.5547
14293TIP3    H242802   5.486   0.652   4.175 -0.7553 -0.0133  1.3375
14294TIP3   OH242803   8.111   1.506   4.209 -0.5288  0.2029  0.1593
14294TIP3    H142804   8.059   1.449   4.154 -1.1473  1.6244 -0.7704
14294TIP3    H242805   8.130   1.455   4.287 -1.5556 -1.0424 -0.4014
14295TIP3   OH242806   4.869   0.756   6.213 -0.5673 -0.1548  0.4568
14295TIP3    H142807   4.837   0.789   6.129  1.0600 -1.4347 -0.6987
14295TIP3    H242808   4.924   0.826   6.247  1.4441 -0.8899 -1.1497
14296TIP3   OH242809   2.811   7.243   4.341  0.1872 -0.1049 -0.1264
14296TIP3    H142810   2.859   7.325   4.355  0.1724 -0.2998  1.0889
14296TIP3    H242811   2.847   7.183   4.406 -0.1777 -0.9107 -0.6591
14297TIP3   OH242812   1.927   4.961   1.542  0.3013 -0.0751 -0.8457
14297TIP3    H142813   1.910   5.029   1.607 -0.2813 -0.2937 -0.7574
14297TIP3    H242814   1.979   5.003   1.475  0.6396  0.2398 -0.3881
14298TIP3   OH242815   4.649   5.712   3.535  0.7678 -0.2637 -0.9968
14298TIP3    H142816   4.614   5.793   3.497  2.0002  1.4551  1.3619
14298TIP3    H242817   4.670   5.657   3.460 -1.7619  0.8712 -2.6162
14299TIP3   OH242818   6.321   0.423   5.920 -0.1348 -0.3451  0.0272
14299TIP3    H142819   6.274   0.413   5.837  1.7767  1.3555 -1.3222
14299TIP3    H242820   6.341   0.334   5.948 -1.6501 -0.9697 -0.8208
14300TIP3   OH242821   4.865   7.199   3.822  0.1746 -0.6681 -0.3098
14300TIP3    H142822   4.913   7.195   3.905  0.8595  0.2195 -0.6602
14300TIP3    H242823   4.794   7.135   3.833  0.7373 -1.1497  0.6492
14301TIP3   OH242824   0.058   0.706   6.876  0.5831  0.1975  0.0291
14301TIP3    H142825   0.037   0.613   6.869  0.5172  0.2543 -0.5379
14301TIP3    H242826   0.152   0.709   6.893  0.4941  0.0124  0.5750
14302TIP3   OH242827   3.458   6.359   3.949 -0.2658  0.5787  0.5886
14302TIP3    H142828   3.371   6.322   3.934 -0.7254  1.5580  0.8386
14302TIP3    H242829   3.481   6.330   4.037  0.1360 -0.6024  0.1068
14303TIP3   OH242830   5.158   8.159   6.943  0.4792  0.1033  0.1020
14303TIP3    H142831   5.181   8.251   6.955  2.1079 -0.3576  0.7347
14303TIP3    H242832   5.137   8.151   6.850 -0.3530  1.2557  0.1939
14304TIP3   OH242833   0.496   4.620   0.323 -0.2124  0.0585  0.1649
14304TIP3    H142834   0.545   4.568   0.387  0.8268  1.1080  0.2515
14304TIP3    H242835   0.506   4.572   0.240 -1.7938 -1.4500  0.8177
14305TIP3   OH242836   4.365   6.728   5.449 -0.0781 -0.2966 -0.2563
14305TIP3    H142837   4.448   6.776   5.445  0.8335 -1.8633 -0.4782
14305TIP3    H242838   4.320   6.750   5.367  0.1106  0.5593 -0.1300
14306TIP3   OH242839   5.580   7.692   4.593 -0.3684  0.5520 -0.2175
14306TIP3    H142840   5.513   7.625   4.596  0.2881 -0.1397 -0.9364
14306TIP3    H242841   5.606   7.696   4.501  0.1694  1.2168 -0.0397
14307TIP3   OH242842   3.070   4.758   4.868  0.0491  0.2947  0.2528
14307TIP3    H142843   3.067   4.853   4.860 -1.4185  0.1557 -0.9411
14307TIP3    H242844   3.022   4.738   4.948 -1.1072  0.4545 -0.3937
14308TIP3   OH242845   0.926   3.122   0.246  0.1066  0.2810 -0.4691
14308TIP3    H142846   1.000   3.117   0.185 -1.6200 -0.6818 -2.5344
14308TIP3    H242847   0.924   3.037   0.289 -1.6696 -0.8958 -2.7332
14309TIP3   OH242848   6.894   0.258   2.831 -0.0604  0.7343  0.9037
14309TIP3    H142849   6.946   0.305   2.766 -1.2365 -0.7153 -1.1547
14309TIP3    H242850   6.945   0.265   2.912  1.7050  2.1394 -0.2888
14310TIP3   OH242851   1.970   5.452   0.193  0.1937  0.2634 -0.5331
14310TIP3    H142852   2.026   5.437   0.117 -0.4611 -1.0376 -0.7780
14310TIP3    H242853   1.916   5.373   0.199  1.2866 -0.3210  2.2037
14311TIP3   OH242854   2.689   3.722   0.128 -0.1642  0.1630  0.0921
14311TIP3    H142855   2.655   3.663   0.195 -0.8999  0.6793  0.1834
14311TIP3    H242856   2.728   3.665   0.063 -0.4262 -0.4001  0.4199
14312TIP3   OH242857   5.790   7.635   6.051  0.3352  0.2713  0.1253
14312TIP3    H142858   5.705   7.655   6.092  0.7132  0.2438  0.9298
14312TIP3    H242859   5.817   7.553   6.091  0.4233 -0.0759 -0.6417
14313TIP3   OH242860   2.737   2.897   1.106  0.2454  0.1412  0.5696
14313TIP3    H142861   2.665   2.839   1.129  0.5977 -0.2513  0.6775
14313TIP3    H242862   2.807   2.839   1.076 -0.2356  0.6161 -1.6241
14314TIP3   OH242863   6.724   0.001   7.160  0.5389  0.1093  0.9298
14314TIP3    H142864   6.818   0.014   7.167  0.5713  1.2741 -1.2829
14314TIP3    H242865   6.708  -0.015   7.067 -1.6449  1.7817  0.9637
14315TIP3   OH242866   5.366   6.397   2.246 -0.2908 -0.4163  0.2605
14315TIP3    H142867   5.390   6.391   2.154 -0.1704  0.3728  0.2367
14315TIP3    H242868   5.403   6.480   2.275  0.2372 -0.9594  1.1891
14316TIP3   OH242869   4.872   7.998   6.686 -0.4310 -0.1395 -0.0052
14316TIP3    H142870   4.888   8.088   6.657  0.2198 -0.6194 -1.1481
14316TIP3    H242871   4.784   8.001   6.723 -0.8271  0.7371 -0.9927
14317TIP3   OH242872   4.372   6.995   6.870  0.5214  0.2103  0.3772
14317TIP3    H142873   4.362   6.915   6.818  0.2293  1.0419 -0.8820
14317TIP3    H242874   4.345   6.970   6.958 -0.1111 -0.9404 -0.1311
14318TIP3   OH242875   0.942   2.931   0.483 -0.1873 -0.2340  0.6274
14318TIP3    H142876   0.929   2.954   0.575 -0.8680  1.5426  0.1118
14318TIP3    H242877   0.871   2.870   0.464  0.3509 -1.1330  1.4462
14319TIP3   OH242878   0.505   3.013   0.469  0.1056 -0.1263 -0.2851
14319TIP3    H142879   0.577   2.970   0.514  0.6162  0.9087 -0.1041
14319TIP3    H242880   0.472   3.077   0.531 -1.0064 -0.6136 -0.3510
14320TIP3   OH242881   3.086   6.368   4.364  0.0572 -0.2542  0.4850
14320TIP3    H142882   3.107   6.402   4.277 -0.6636 -1.1250 -0.0379
14320TIP3    H242883   3.045   6.442   4.409 -0.4071 -0.0723 -0.2331
14321TIP3   OH242884   8.720   2.273   0.495  0.3482  0.1134  0.1338
14321TIP3    H142885   8.647   2.279   0.557 -1.3111  0.5040 -1.8100
14321TIP3    H242886   8.763   2.358   0.501 -1.1616  0.9877 -0.8139
14322TIP3   OH242887   7.605   0.149   5.425  0.5588  0.2216  0.5095
14322TIP3    H142888   7.699   0.151   5.439  0.6315 -1.0047  0.2308
14322TIP3    H242889   7.579   0.060   5.449 -0.0952 -0.3468 -2.1251
14323TIP3   OH242890   2.537   7.925   3.096  0.0981 -0.4376  0.0060
14323TIP3    H142891   2.475   7.858   3.069 -0.8491  0.6844 -0.6801
14323TIP3    H242892   2.542   7.917   3.191 -0.2787 -1.2295 -0.0353
14324TIP3   OH242893   6.470   1.554   2.688  0.2854  0.6738 -0.8235
14324TIP3    H142894   6.501   1.518   2.772  0.9706  0.5692 -1.1213
14324TIP3    H242895   6.376   1.537   2.689  0.5030 -0.5832 -0.6888
14325TIP3   OH242896   0.269   0.022   6.546  0.0113  0.0361  0.0934
14325TIP3    H142897   0.178   0.049   6.536 -0.4292 -0.8850  1.6048
14325TIP3    H242898   0.319   0.103   6.535 -0.9355  0.4685 -1.2243
14326TIP3   OH242899   0.350   3.312   0.195 -0.2328  0.0485 -0.3757
14326TIP3    H142900   0.389   3.340   0.278  1.0255  1.5605 -1.4539
14326TIP3    H242901   0.372   3.219   0.189  1.2580  0.3467  0.1374
14327TIP3   OH242902   0.880   0.531   4.798 -0.0403  0.2326  0.1476
14327TIP3    H142903   0.918   0.580   4.871 -0.2679  1.3090 -0.4459
14327TIP3    H242904   0.786   0.550   4.804 -0.3233 -1.3184  0.7952
14328TIP3   OH242905   7.299   0.697   5.695  0.0568 -0.5002  0.2101
14328TIP3    H142906   7.232   0.761   5.717 -0.9801 -1.0125 -1.3272
14328TIP3    H242907   7.337   0.730   5.613  1.7462 -0.1688  1.1179
14329TIP3   OH242908   5.244   7.088   3.679  0.0330 -0.3499 -0.6225
14329TIP3    H142909   5.290   7.021   3.730 -0.5616 -0.7653 -0.6226
14329TIP3    H242910   5.293   7.168   3.695 -0.9934 -0.1684  1.8151
14330TIP3   OH242911   8.803   1.147   6.355 -0.1091  0.1068  0.4060
14330TIP3    H142912   8.728   1.206   6.358  0.3463  0.6403  1.6849
14330TIP3    H242913   8.764   1.059   6.356 -0.7141  0.3765  1.7766
14331TIP3   OH242914   0.347   1.195   6.394  0.3565  0.5236  0.0945
14331TIP3    H142915   0.441   1.180   6.404  0.5878  1.5297 -0.4156
14331TIP3    H242916   0.328   1.267   6.455 -0.7848 -1.9563  2.7764
14332TIP3   OH242917   5.555   8.165   4.772 -0.2099  0.4287  0.0422
14332TIP3    H142918   5.576   8.071   4.771  1.1476  0.6603  2.4278
14332TIP3    H242919   5.591   8.198   4.689  2.5278 -0.5559  0.7636
14333TIP3   OH242920   1.740   0.774   0.727  0.3561  0.0312  0.6752
14333TIP3    H142921   1.750   0.800   0.636 -0.3886  2.2530  1.1861
14333TIP3    H242922   1.807   0.708   0.741  0.2969 -0.5245 -1.5513
14334TIP3   OH242923   4.248   5.305   6.580 -0.4565  0.1391 -0.0818
14334TIP3    H142924   4.232   5.211   6.585 -0.3000  0.2120  2.4070
14334TIP3    H242925   4.300   5.316   6.501 -1.2206 -1.7554 -0.8876
14335TIP3   OH242926   3.337   4.773   1.176  0.3668 -1.0315 -0.3029
14335TIP3    H142927   3.249   4.761   1.142 -0.1646 -2.0165  1.3660
14335TIP3    H242928   3.375   4.684   1.177  1.1188 -0.7162 -0.3381
14336TIP3   OH242929   3.068   7.466   6.565 -0.8281 -0.3805 -0.0722
14336TIP3    H142930   2.985   7.435   6.602 -1.7362  3.3619  1.3195
14336TIP3    H242931   3.133   7.449   6.633 -0.9615 -0.7941 -0.0450
14337TIP3   OH242932   7.774   0.980   5.619 -0.1397  0.1212  0.4584
14337TIP3    H142933   7.783   1.012   5.709  0.2527 -1.4928  1.0105
14337TIP3    H242934   7.829   1.038   5.567  2.5226 -1.1150  1.7892
14338TIP3   OH242935   4.849   7.738   4.062 -0.4503  0.1351 -0.5291
14338TIP3    H142936   4.880   7.647   4.064  2.0802  0.9136 -1.8821
14338TIP3    H242937   4.903   7.780   3.995 -0.7011  2.9343  0.9427
14339TIP3   OH242938   3.611   7.950   4.067 -0.4623 -0.8750 -0.6105
14339TIP3    H142939   3.698   7.975   4.098  0.0276 -1.2136 -1.7075
14339TIP3    H242940   3.598   7.862   4.103 -0.1889 -0.9844 -0.7764
14340TIP3   OH242941   1.510   4.067   0.699  0.0808  0.1644 -0.0916
14340TIP3    H142942   1.527   4.070   0.605 -1.1353 -0.0463 -0.3243
14340TIP3    H242943   1.417   4.089   0.708 -0.1379 -1.0762  0.9503
14341TIP3   OH242944   0.899   3.955   1.021  0.1586 -0.9403  0.4006
14341TIP3    H142945   0.839   3.881   1.012  0.9062 -1.8696  2.6788
14341TIP3    H242946   0.950   3.954   0.940 -1.8384 -1.0868 -0.8660
14342TIP3   OH242947   4.895   6.851   6.698 -0.7013 -0.2398  0.7169
14342TIP3    H142948   4.820   6.869   6.642  0.2839  2.3130  0.1193
14342TIP3    H242949   4.901   6.928   6.755  0.9297 -0.8034  1.3372
14343TIP3   OH242950   4.301   7.993   5.989 -0.2957 -0.2741  0.1368
14343TIP3    H142951   4.337   7.999   6.077  0.4031 -0.2303 -0.1477
14343TIP3    H242952   4.250   8.074   5.978 -1.9231 -1.1252  1.1621
14344TIP3   OH242953   3.890   6.623   2.446  0.2346 -0.1056  0.6334
14344TIP3    H142954   3.900   6.622   2.351  1.0441  1.7013  0.6727
14344TIP3    H242955   3.941   6.548   2.477  0.0775 -0.6187 -0.3532
14345TIP3   OH242956   3.277   7.977   6.556  0.0461  1.1199  0.4183
14345TIP3    H142957   3.340   8.049   6.557  1.7602 -0.3405  0.2204
14345TIP3    H242958   3.195   8.017   6.587  0.2892  3.7091 -2.0051
14346TIP3   OH242959   2.817   8.020   6.245 -0.2559  0.0710 -0.5552
14346TIP3    H142960   2.864   7.994   6.324 -0.1913  1.0100 -0.2667
14346TIP3    H242961   2.881   8.013   6.175 -0.1908 -0.3534 -0.4503
14347TIP3   OH242962   1.301   5.591   0.313  0.1075 -0.1646  0.2767
14347TIP3    H142963   1.361   5.638   0.371  1.5006 -0.4666 -0.8990
14347TIP3    H242964   1.301   5.641   0.232 -2.4585  0.6986  0.7649
14348TIP3   OH242965   5.111   6.155   3.577 -0.5739  0.4911 -0.7947
14348TIP3    H142966   5.145   6.243   3.590 -0.6663  0.3186  0.6089
14348TIP3    H242967   5.055   6.138   3.653 -1.2112 -0.4692 -1.4557
14349TIP3   OH242968   1.085   3.188   0.008 -0.1726 -0.5836 -0.1450
14349TIP3    H142969   1.158   3.168   0.067 -0.4064 -1.4623 -0.1444
14349TIP3    H242970   1.102   3.135  -0.070 -1.0001 -1.0645  0.0028
14350TIP3   OH242971   7.973   0.405   4.921 -0.0836 -0.1118 -0.0040
14350TIP3    H142972   8.039   0.338   4.941 -0.9517 -1.1205 -0.4787
14350TIP3    H242973   7.967   0.457   5.001  0.5484 -0.6478  0.3968
14351TIP3   OH242974   5.114   7.213   5.719 -0.4985 -0.0811  0.1663
14351TIP3    H142975   5.045   7.167   5.768  0.1847  0.5008  1.7200
14351TIP3    H242976   5.105   7.304   5.747  0.9304 -0.0082  0.4286
14352TIP3   OH242977   0.938   1.755   0.543 -0.1060  0.2559  0.3084
14352TIP3    H142978   0.914   1.815   0.473 -1.1880  0.1418  0.5612
14352TIP3    H242979   0.872   1.685   0.539  0.7525 -0.5741  0.4283
14353TIP3   OH242980   1.524   3.218   0.499 -0.3545 -0.1427 -0.3292
14353TIP3    H142981   1.579   3.291   0.471  0.1071 -0.2072  0.3899
14353TIP3    H242982   1.452   3.260   0.546 -0.2415 -0.1347 -0.1636
14354TIP3   OH242983   4.995   7.637   6.814  0.3980 -0.2975  0.1556
14354TIP3    H142984   4.910   7.631   6.769  0.8645 -0.4282 -0.7178
14354TIP3    H242985   5.029   7.723   6.791  0.3205 -0.0735  0.8523
14355TIP3   OH242986   2.684   3.994   0.687  0.7256  0.0633  0.5500
14355TIP3    H142987   2.748   4.057   0.656 -0.2192  0.1646 -1.2810
14355TIP3    H242988   2.727   3.909   0.677  0.0963 -0.0056 -2.1100
14356TIP3   OH242989   6.572   0.518   4.100 -0.2014  0.5232  0.0560
14356TIP3    H142990   6.579   0.557   4.013  0.3216 -0.3391 -0.2962
14356TIP3    H242991   6.518   0.440   4.087 -0.0220  0.3253  0.4771
14357TIP3   OH242992   5.159   8.376   4.637  0.2802  0.5479  0.2849
14357TIP3    H142993   5.190   8.294   4.600  0.7249  2.2087 -3.2509
14357TIP3    H242994   5.071   8.387   4.601  0.8533  2.3941 -0.6217
14358TIP3   OH242995   1.802   7.657   6.279  0.1089  0.2991 -0.2815
14358TIP3    H142996   1.889   7.671   6.242  0.6053  0.5001  0.9166
14358TIP3    H242997   1.777   7.742   6.315 -1.1656  0.5786 -1.7787
14359TIP3   OH242998   5.093   1.130   6.069 -0.2575  0.0226  0.1628
14359TIP3    H142999   5.094   1.207   6.011  2.0738  1.2846  1.8056
14359TIP3    H243000   5.091   1.167   6.157  1.4049 -1.7685  0.9815
14360TIP3   OH243001   0.850   2.621   0.041 -0.2559 -0.0465 -0.7741
14360TIP3    H143002   0.873   2.538  -0.003  1.2379  1.6260 -3.3145
14360TIP3    H243003   0.842   2.684  -0.031  1.3645  2.6059  1.2781
14361TIP3   OH243004   8.875   2.019   1.496 -0.3710  0.6002  0.0832
14361TIP3    H143005   8.887   1.990   1.405 -0.3329  1.6981 -0.2697
14361TIP3    H243006   8.780   2.023   1.507 -0.3773  1.1237 -0.1304
14362TIP3   OH243007   4.087   6.059   4.512  0.0466 -0.2234  0.0187
14362TIP3    H143008   4.121   5.971   4.530  0.7826  0.0212 -0.1708
14362TIP3    H243009   4.014   6.044   4.451 -0.3227 -0.7624  0.5897
14363TIP3   OH243010   3.741   0.562   3.938 -0.3557 -0.6580  0.0394
14363TIP3    H143011   3.790   0.592   3.862 -0.3518 -0.5502  0.0840
14363TIP3    H243012   3.713   0.473   3.916  1.5279 -1.4587  0.7917
14364TIP3   OH243013   3.326   5.878   6.218  0.6365  0.2633 -0.4872
14364TIP3    H143014   3.383   5.805   6.241 -0.4683 -0.3861  0.2661
14364TIP3    H243015   3.358   5.952   6.269  1.5016  0.2041 -0.9357
14365TIP3   OH243016   3.416   5.682   4.173 -0.0018 -0.3340  0.3025
14365TIP3    H143017   3.326   5.656   4.191 -0.0923  0.0225  0.3561
14365TIP3    H243018   3.451   5.610   4.121 -0.7896  0.2420 -1.0523
14366TIP3   OH243019   4.703   6.440   5.410 -0.0392  0.0947 -0.2477
14366TIP3    H143020   4.697   6.351   5.377  0.2409  0.2151 -0.6333
14366TIP3    H243021   4.766   6.483   5.352  1.2815  0.0178  1.1011
14367TIP3   OH243022   4.938   6.998   4.607  0.2030  0.6451  0.6494
14367TIP3    H143023   5.006   7.025   4.668 -0.2169 -0.4168  1.6202
14367TIP3    H243024   4.920   6.907   4.631 -2.6368  1.3565  1.4537
14368TIP3   OH243025   5.598   0.376   4.336 -0.3084  0.8638  0.5311
14368TIP3    H143026   5.541   0.313   4.381  2.0041 -1.0680  0.8516
14368TIP3    H243027   5.684   0.363   4.376  0.5531  3.1853 -0.4915
14369TIP3   OH243028   5.172   0.068   4.544  0.4423 -0.1670 -0.0166
14369TIP3    H143029   5.122   0.064   4.463  2.2324  1.3684 -1.2249
14369TIP3    H243030   5.112   0.106   4.608  0.0759  1.8311 -1.4991
14370TIP3   OH243031   3.907   6.548   6.485 -0.4924  0.2580 -0.3231
14370TIP3    H143032   3.863   6.520   6.565 -0.5325 -1.0178 -0.7753
14370TIP3    H243033   3.899   6.473   6.426  0.1306  0.9308 -1.2813
14371TIP3   OH243034   5.059   7.108   6.599 -0.0698 -0.2390 -0.4964
14371TIP3    H143035   5.035   7.194   6.563  1.2928  0.3766  0.0329
14371TIP3    H243036   5.043   7.047   6.528  0.3617  0.6636 -1.3840
14372TIP3   OH243037   7.406   1.018   4.417 -0.1846 -0.0103 -0.2133
14372TIP3    H143038   7.437   0.932   4.389 -1.4406 -0.8088  0.7866
14372TIP3    H243039   7.340   1.042   4.352 -0.5752 -0.2745  0.0830
14373TIP3   OH243040   5.120   7.015   5.335 -0.3547  0.3146  0.5316
14373TIP3    H143041   5.183   7.086   5.335  0.2250 -0.1519 -1.3369
14373TIP3    H243042   5.137   6.967   5.416  0.0655  1.5791  1.2002
14374TIP3   OH243043   0.627   2.838   0.063  0.1482 -0.4935  0.0184
14374TIP3    H143044   0.567   2.821   0.136  0.8927  0.6800  0.9153
14374TIP3    H243045   0.712   2.808   0.094  0.4738  0.0536 -0.3472
14375TIP3   OH243046   3.160   7.548   5.908 -0.1227 -0.3934  0.0633
14375TIP3    H143047   3.169   7.549   6.003 -0.1535  0.4951  0.0624
14375TIP3    H243048   3.240   7.505   5.877 -0.7780 -2.0069  0.5483
14376TIP3   OH243049   8.670   0.263   5.649 -0.2063 -0.3482 -0.1068
14376TIP3    H143050   8.629   0.247   5.564 -1.9480  0.5782  0.5462
14376TIP3    H243051   8.714   0.347   5.639  0.1817 -0.5691 -0.2939
14377TIP3   OH243052   2.514   2.320   4.846  0.4418  0.7273 -0.0206
14377TIP3    H143053   2.438   2.306   4.791 -0.4682  1.2931  1.0800
14377TIP3    H243054   2.587   2.328   4.784 -0.1915 -1.0566 -1.0148
14378TIP3   OH243055   8.343   1.215   5.497 -0.6097 -0.0139 -0.0838
14378TIP3    H143056   8.264   1.173   5.532 -1.9160  0.1899 -2.6397
14378TIP3    H243057   8.341   1.195   5.403  2.7870 -0.5990 -0.0826
14379TIP3   OH243058   8.670   1.005   5.588 -0.6662  0.7923  0.2549
14379TIP3    H143059   8.673   0.912   5.564 -0.0041  0.4802  1.4712
14379TIP3    H243060   8.743   1.045   5.540  0.9531  0.0840  2.0141
14380TIP3   OH243061   7.341   2.853   5.826  0.4984  0.1036  0.3105
14380TIP3    H143062   7.317   2.775   5.877  1.6055 -0.9057 -0.6766
14380TIP3    H243063   7.436   2.861   5.838  0.4874  0.9187 -0.1215
14381TIP3   OH243064   2.922   0.453   4.111  0.7402 -0.3035  0.6795
14381TIP3    H143065   3.011   0.423   4.131  1.0621  0.1315 -0.0742
14381TIP3    H243066   2.898   0.405   4.032  0.3707 -0.2873  0.7818
14382TIP3   OH243067   3.646   7.506   5.974  0.2664 -0.0600  0.3279
14382TIP3    H143068   3.734   7.522   6.009  1.5589 -1.9905 -1.8794
14382TIP3    H243069   3.648   7.544   5.886 -1.5199  0.9425  0.7059
14383TIP3   OH243070   4.766   6.999   5.512  0.3950  0.3917  0.3523
14383TIP3    H143071   4.788   6.946   5.589  0.7726  0.1796  0.1007
14383TIP3    H243072   4.815   7.080   5.524 -0.0476  0.6179  0.6519
14384TIP3   OH243073   0.260   0.029   6.962 -0.5997  0.1396  0.6202
14384TIP3    H143074   0.314   0.100   6.925  1.8060 -2.3175 -0.7705
14384TIP3    H243075   0.293   0.019   7.052  0.8861 -0.8812 -0.0022
14385TIP3   OH243076   0.667   0.566   4.451 -0.6426  0.4008  0.6559
14385TIP3    H143077   0.670   0.500   4.382  0.4318  1.1237 -0.0050
14385TIP3    H243078   0.620   0.523   4.523  2.2538 -1.9991  1.1945
14386TIP3   OH243079   1.991   0.652   4.808 -0.0705  0.2429 -0.0366
14386TIP3    H143080   2.016   0.571   4.851  1.2537  1.0842  0.8260
14386TIP3    H243081   2.066   0.674   4.751 -1.5137 -0.5057 -2.3000
14387TIP3   OH243082   1.777   0.419   5.092 -0.5050  0.2774 -0.3604
14387TIP3    H143083   1.799   0.456   5.007 -0.1676 -0.8415 -0.7691
14387TIP3    H243084   1.705   0.473   5.124 -0.6239  0.7110 -1.3515
14388TIP3   OH243085   4.739   7.060   2.131 -0.2847 -0.4145  0.1594
14388TIP3    H143086   4.784   7.099   2.056 -0.2551 -1.0028 -0.1290
14388TIP3    H243087   4.803   7.002   2.171 -0.1006  0.3789  1.0126
14389TIP3   OH243088   7.163   8.361   3.688 -0.0167 -0.3794 -0.0993
14389TIP3    H143089   7.078   8.405   3.697 -0.3458 -0.8040 -1.0962
14389TIP3    H243090   7.204   8.372   3.774 -1.3640 -0.7690  0.6179
14390TIP3   OH243091   5.971   7.398   5.853 -0.2610 -0.2482  0.1818
14390TIP3    H143092   6.024   7.387   5.773 -1.5778 -0.0491 -0.7314
14390TIP3    H243093   6.016   7.467   5.902 -0.1607  0.5466 -1.0060
14391TIP3   OH243094   1.398   5.302   0.349 -0.1847  0.2032  0.1032
14391TIP3    H143095   1.487   5.316   0.383 -0.3256  1.6088 -0.0852
14391TIP3    H243096   1.375   5.385   0.308 -0.9017 -0.7392 -1.4487
14392TIP3   OH243097   6.450   7.503   3.095 -0.2351 -0.0302  0.4074
14392TIP3    H143098   6.520   7.566   3.108 -0.9119  0.8756 -0.2768
14392TIP3    H243099   6.418   7.520   3.006 -1.3790 -0.3747  0.7448
14393TIP3   OH243100   6.358   7.655   6.643 -0.4656 -0.0738 -0.2345
14393TIP3    H143101   6.327   7.565   6.650 -1.8342  0.5545  2.5403
14393TIP3    H243102   6.438   7.649   6.591 -1.0166 -2.7529 -0.8320
14394TIP3   OH243103   1.069   0.293   5.549  0.0166  0.5858  0.2171
14394TIP3    H143104   1.101   0.208   5.518  2.4377  1.4120  0.2742
14394TIP3    H243105   0.975   0.290   5.535  0.3227 -1.2797 -1.8234
14395TIP3   OH243106   0.806   2.338   5.640 -0.0291  0.4616  0.1339
14395TIP3    H143107   0.798   2.398   5.567 -3.5554  0.1144  0.1339
14395TIP3    H243108   0.844   2.390   5.711  1.6601  1.2814 -1.3538
14396TIP3   OH243109   8.174   0.180   4.872  0.1862 -0.9716 -0.0601
14396TIP3    H143110   8.240   0.111   4.881  1.6988  0.2115 -1.7341
14396TIP3    H243111   8.115   0.148   4.804  0.6860 -0.7645 -0.5906
14397TIP3   OH243112   1.509   0.571   3.450 -0.1613  0.0640 -0.3358
14397TIP3    H143113   1.464   0.494   3.414 -0.1510 -0.7177  1.2826
14397TIP3    H243114   1.596   0.539   3.475  0.6470  1.1268 -1.6657
14398TIP3   OH243115   8.209   0.164   6.094  0.1754 -0.4746  0.2418
14398TIP3    H143116   8.202   0.144   6.001  0.0305  0.2966  0.0825
14398TIP3    H243117   8.292   0.211   6.102 -1.3117  2.3071 -0.0267
14399TIP3   OH243118   1.565   0.171   4.780 -0.1038  0.4190 -0.8238
14399TIP3    H143119   1.558   0.137   4.869 -1.1483  2.1954 -0.1825
14399TIP3    H243120   1.495   0.127   4.732  0.5699 -0.6711 -0.8144
14400TIP3   OH243121   6.749   0.244   3.947  1.1582 -0.3383 -0.0413
14400TIP3    H143122   6.710   0.158   3.935  1.4169 -0.5228  0.4374
14400TIP3    H243123   6.676   0.305   3.942  0.7062 -0.7302  1.5547
14401TIP3   OH243124   7.171   8.147   4.741 -0.5114 -0.4295  0.1351
14401TIP3    H143125   7.110   8.137   4.669 -1.5614 -0.4016  1.0126
14401TIP3    H243126   7.206   8.236   4.731 -0.4122 -0.5411 -0.5186
14402TIP3   OH243127   0.004   1.442   3.874  0.1641 -0.2400  0.2790
14402TIP3    H143128  -0.033   1.384   3.941  1.4730  1.4496  2.5387
14402TIP3    H243129   0.074   1.488   3.919 -1.4411  3.8055 -1.1744
14403TIP3   OH243130   1.332   7.856   5.466  0.1947 -0.3502 -0.1092
14403TIP3    H143131   1.408   7.914   5.468 -3.1485  4.3253 -0.5055
14403TIP3    H243132   1.289   7.870   5.550 -0.3282 -2.8497  0.0744
14404TIP3   OH243133   4.040   7.791   4.600  0.0357  0.3258  0.2835
14404TIP3    H143134   3.969   7.785   4.663  0.7767 -0.0605  1.0824
14404TIP3    H243135   4.064   7.884   4.599 -0.5787  0.4850 -0.1108
14405TIP3   OH243136   6.125   7.445   5.642  0.0909 -0.0297 -0.3753
14405TIP3    H143137   6.121   7.541   5.636  1.3502  0.0533 -0.0279
14405TIP3    H243138   6.218   7.426   5.650 -0.3050 -1.1510  1.8757
14406TIP3   OH243139   8.592   0.163   4.773  0.4735 -0.5924 -0.0075
14406TIP3    H143140   8.514   0.122   4.810 -0.9829  1.4522 -0.7363
14406TIP3    H243141   8.574   0.169   4.679  1.1395  0.6513 -0.0677
14407TIP3   OH243142   4.270   7.543   6.039 -0.1951 -0.1907 -0.3152
14407TIP3    H143143   4.262   7.449   6.020 -2.0867 -0.0532 -0.2699
14407TIP3    H243144   4.334   7.575   5.975  1.1547 -1.6625  0.2562
14408TIP3   OH243145   4.170   8.117   4.810 -0.4437  0.5226 -0.7057
14408TIP3    H143146   4.175   8.069   4.728 -0.0070 -1.0728  0.2305
14408TIP3    H243147   4.223   8.066   4.871 -2.4130  0.5654  1.0972
14409TIP3   OH243148   6.699   7.901   6.703  0.9699 -0.1321  0.3733
14409TIP3    H143149   6.718   7.992   6.679  0.4591  0.2237  1.3144
14409TIP3    H243150   6.621   7.906   6.758 -1.9874 -1.5378 -3.4304
14410TIP3   OH243151   1.511   1.220   4.439 -0.2216 -0.2647  0.2218
14410TIP3    H143152   1.524   1.272   4.518 -0.5679  0.2106 -0.0289
14410TIP3    H243153   1.455   1.274   4.384 -1.2935 -1.2536  0.3100
14411TIP3   OH243154   3.211   2.540   6.579 -0.0309 -0.8543  0.2679
14411TIP3    H143155   3.117   2.539   6.566 -0.0350 -0.8052  0.2921
14411TIP3    H243156   3.241   2.453   6.552  0.0038 -0.6390 -0.3763
14412TIP3   OH243157   7.016   1.875   4.372  0.1346  0.0589 -0.4661
14412TIP3    H143158   7.017   1.805   4.307 -2.4400  0.5081 -1.0395
14412TIP3    H243159   6.994   1.954   4.322  0.7715  0.8876  0.5397
14413TIP3   OH243160   6.873   0.055   6.333  0.0051 -0.2649  0.6630
14413TIP3    H143161   6.909  -0.021   6.289  0.2276  0.0464  0.3078
14413TIP3    H243162   6.845   0.113   6.262 -0.5423 -0.1957  0.9310
14414TIP3   OH243163   4.782   6.541   2.493 -0.0354 -0.2636  0.4986
14414TIP3    H143164   4.712   6.574   2.436 -0.5683 -1.0833  0.6777
14414TIP3    H243165   4.857   6.530   2.434 -0.2631 -0.0691  0.1704
14415TIP3   OH243166   8.108   2.536   5.158  0.4582 -0.3424 -0.1122
14415TIP3    H143167   8.066   2.551   5.243  0.5957 -0.2473 -0.0607
14415TIP3    H243168   8.187   2.590   5.161  1.1735 -1.4075  0.2398
14416TIP3   OH243169   2.471   1.266   3.775 -0.1990  0.1819 -0.3762
14416TIP3    H143170   2.386   1.235   3.807  0.3973 -0.8191  0.2601
14416TIP3    H243171   2.535   1.223   3.832  0.7409  0.7553 -0.9954
14417TIP3   OH243172   3.506   7.804   5.624  0.4614  0.0811 -0.4231
14417TIP3    H143173   3.438   7.750   5.665 -1.2837  0.3090 -2.9132
14417TIP3    H243174   3.565   7.740   5.583  2.8816 -0.2072  3.2714
14418TIP3   OH243175   2.324   0.116   4.820 -0.1365 -0.4743 -0.2314
14418TIP3    H143176   2.254   0.051   4.818 -2.0544  1.4839  0.8865
14418TIP3    H243177   2.327   0.146   4.911  0.7368  0.9627 -0.7077
14419TIP3   OH243178  -0.014   2.149   5.690  0.1880 -0.2843 -0.0139
14419TIP3    H143179  -0.028   2.194   5.774  0.1213  0.3932 -0.3916
14419TIP3    H243180   0.069   2.183   5.657 -0.1455 -0.0085 -0.5731
14420TIP3   OH243181   0.971   0.589   5.334 -0.3283  0.6897  0.0505
14420TIP3    H143182   0.960   0.675   5.294  1.5421  1.1503  0.4581
14420TIP3    H243183   1.066   0.573   5.330 -0.3741 -0.2643  2.2075
14421TIP3   OH243184   8.414   0.519   4.224 -0.1585  0.0068 -0.0444
14421TIP3    H143185   8.359   0.500   4.148 -0.7555  2.1299 -0.1794
14421TIP3    H243186   8.358   0.572   4.281  0.7570 -0.3552  1.2153
14422TIP3   OH243187   0.685   0.618   3.788 -0.0647 -0.1491  0.2387
14422TIP3    H143188   0.696   0.598   3.695 -0.9287  0.3804  0.0214
14422TIP3    H243189   0.703   0.535   3.832 -0.0923 -0.5153 -0.4261
14423TIP3   OH243190   7.918   0.526   4.233  0.5172 -0.1724  1.0468
14423TIP3    H143191   7.975   0.519   4.310  1.9399 -0.3657  0.0071
14423TIP3    H243192   7.912   0.620   4.217  1.2081 -0.1851  0.6886
14424TIP3   OH243193   6.018   8.118   6.426 -0.3195  0.3529 -0.4656
14424TIP3    H143194   5.997   8.211   6.431  0.0544  0.3726  1.2784
14424TIP3    H243195   6.093   8.107   6.485 -2.3714 -1.5617  1.9602
14425TIP3   OH243196   1.896   4.734  -0.029  0.1317  0.2469 -0.1024
14425TIP3    H143197   1.921   4.745   0.063  0.4695 -4.8418  0.5351
14425TIP3    H243198   1.801   4.717  -0.026 -0.1282  1.4856 -0.8670
14426TIP3   OH243199   8.795   8.301   4.347 -0.1780  0.2532 -0.2789
14426TIP3    H143200   8.800   8.306   4.443 -0.7494 -0.5584 -0.2076
14426TIP3    H243201   8.842   8.379   4.317  0.1834  0.4063  0.6600
14427TIP3   OH243202   7.751   0.746   6.084  0.5946 -0.4341 -0.9790
14427TIP3    H143203   7.801   0.675   6.043  1.2185 -0.8893  0.5309
14427TIP3    H243204   7.691   0.701   6.143  1.5694  0.3249  0.6133
14428TIP3   OH243205   6.118   8.060   2.677 -0.1267 -0.4684  0.0866
14428TIP3    H143206   6.151   8.055   2.588  0.1173  0.0662  0.1420
14428TIP3    H243207   6.083   8.149   2.684  0.9833 -0.0905  0.9106
14429TIP3   OH243208   7.368   0.451   3.677 -0.4752 -0.0838  0.2416
14429TIP3    H143209   7.448   0.403   3.655 -0.4841  0.2601 -0.5515
14429TIP3    H243210   7.397   0.541   3.693 -0.5053 -0.2670  1.4101
14430TIP3   OH243211   1.096   0.361   4.768 -0.4961 -0.4267 -0.1411
14430TIP3    H143212   1.077   0.276   4.807  0.4261 -0.6114 -0.0960
14430TIP3    H243213   1.011   0.406   4.766 -1.3296 -2.0256 -1.7901
14431TIP3   OH243214   4.356   6.976   7.156 -0.1814  0.1150  0.2358
14431TIP3    H143215   4.444   6.992   7.190 -0.4740 -0.1998  1.1574
14431TIP3    H243216   4.316   6.918   7.220 -0.7576 -0.4599 -0.6458
14432TIP3   OH243217   1.777   2.076   0.362  0.1926  0.0999 -0.3373
14432TIP3    H143218   1.716   2.037   0.299  2.2210 -1.6470 -1.2999
14432TIP3    H243219   1.745   2.048   0.447 -1.6476  1.1035 -0.6868
14433TIP3   OH243220   7.584   0.030   3.564 -0.4099 -0.1580  0.4279
14433TIP3    H143221   7.640  -0.022   3.506 -0.5470  2.7727 -2.5205
14433TIP3    H243222   7.643   0.092   3.607 -1.0729  1.8562 -1.4538
14434TIP3   OH243223   6.136   8.129   3.863  0.1439 -0.4066 -0.1568
14434TIP3    H143224   6.094   8.198   3.812  1.1413 -0.8140 -1.5589
14434TIP3    H243225   6.228   8.132   3.835  0.2686 -2.0463  0.0542
14435TIP3   OH243226   5.014   5.617   4.537 -0.3053  0.0554  0.1647
14435TIP3    H143227   5.023   5.526   4.509 -0.0917  0.3882 -0.8511
14435TIP3    H243228   5.006   5.667   4.456 -1.5685  0.8301  0.7519
14436TIP3   OH243229   8.256   0.568   3.995 -0.5469 -0.4103  0.1691
14436TIP3    H143230   8.344   0.586   3.960 -0.2348 -1.2420  0.5247
14436TIP3    H243231   8.200   0.564   3.917  0.0003 -1.4340 -0.1724
14437TIP3   OH243232   8.570   0.190   5.405 -0.2331 -0.7073  0.4175
14437TIP3    H143233   8.596   0.098   5.402 -1.1287 -0.9678  0.4824
14437TIP3    H243234   8.553   0.213   5.313  0.3343 -0.4974  0.3594
14438TIP3   OH243235   5.414   8.384   4.850  0.6001  0.2273 -0.2093
14438TIP3    H143236   5.443   8.388   4.941 -0.4147 -0.3021  0.1337
14438TIP3    H243237   5.458   8.307   4.814  0.0453 -0.2542  0.1578
14439TIP3   OH243238   5.370   8.150   2.975 -0.0492  1.0010  0.2878
14439TIP3    H143239   5.340   8.072   2.927 -0.1800  1.4547 -0.3880
14439TIP3    H243240   5.377   8.122   3.066  0.7987 -0.0535 -0.0897
14440TIP3   OH243241   7.001   8.030   6.134 -0.4747  0.6515  0.1432
14440TIP3    H143242   7.058   8.101   6.163  0.6840 -0.1887 -0.0330
14440TIP3    H243243   6.973   7.987   6.215 -0.4122  0.7225  0.2025
14441TIP3   OH243244   4.580   5.736   3.798  0.1462 -0.2266 -0.1829
14441TIP3    H143245   4.534   5.811   3.836  0.0248 -0.2804 -0.2231
14441TIP3    H243246   4.579   5.753   3.703  1.2961  0.3894 -0.0930
14442TIP3   OH243247   0.507   0.457   6.358 -0.1673 -0.4782  0.9889
14442TIP3    H143248   0.529   0.529   6.299  0.3408 -0.1483  1.5759
14442TIP3    H243249   0.529   0.490   6.445  0.4217 -1.4807  1.2273
14443TIP3   OH243250   4.567   7.327   3.476  0.2984  0.4454  0.0354
14443TIP3    H143251   4.520   7.272   3.538 -2.0210 -0.6178 -2.5801
14443TIP3    H243252   4.653   7.285   3.468 -0.5717 -1.3939 -0.0382
14444TIP3   OH243253   0.852   0.170   4.008  0.2996 -0.1300 -0.4797
14444TIP3    H143254   0.897   0.246   4.046  0.0730 -0.2118 -0.0422
14444TIP3    H243255   0.901   0.095   4.039 -0.6371 -0.2660  0.7000
14445TIP3   OH243256   4.308   6.744   5.718 -0.1200 -0.3738  0.2612
14445TIP3    H143257   4.339   6.745   5.628 -1.9284 -1.3006 -0.3922
14445TIP3    H243258   4.248   6.670   5.723  2.6755 -2.5604  3.1939
14446TIP3   OH243259   0.130   1.666   4.952 -0.4716 -0.0358  0.3570
14446TIP3    H143260   0.097   1.707   4.871  0.5259  1.6180  0.7796
14446TIP3    H243261   0.081   1.709   5.022 -0.1953 -0.3339  0.7333
14447TIP3   OH243262   5.611   5.344   3.722 -0.5848  0.4381  0.4837
14447TIP3    H143263   5.521   5.366   3.743 -0.7551 -0.9619  1.3393
14447TIP3    H243264   5.611   5.329   3.627 -1.2272  0.5640  0.4627
14448TIP3   OH243265   5.630   7.876   4.797  0.2558  0.0178  0.2197
14448TIP3    H143266   5.661   7.829   4.874  0.5472 -0.4012 -0.1512
14448TIP3    H243267   5.651   7.819   4.723 -0.5935  0.1323 -0.1154
14449TIP3   OH243268   3.555   7.559   4.766 -0.0348 -0.4476 -0.3169
14449TIP3    H143269   3.493   7.488   4.749  1.7235 -2.3594  0.9320
14449TIP3    H243270   3.623   7.547   4.700  1.0498 -0.9099  0.8551
14450TIP3   OH243271   3.059   7.636   6.361  0.0404  0.2299 -0.0225
14450TIP3    H143272   3.084   7.576   6.431 -0.7683 -0.1803 -0.0725
14450TIP3    H243273   3.121   7.618   6.290  0.2340 -0.0612  0.2190
14451TIP3   OH243274   4.708   6.573   3.215 -0.1142 -0.2847 -0.0803
14451TIP3    H143275   4.669   6.488   3.236 -0.0144  0.1791  2.0834
14451TIP3    H243276   4.783   6.551   3.160 -0.1188 -1.6107  0.4069
14452TIP3   OH243277   1.825   0.273   4.757 -0.0618 -0.2577  0.3640
14452TIP3    H143278   1.794   0.336   4.692 -0.4923 -0.3202  0.5031
14452TIP3    H243279   1.745   0.227   4.786  0.3879 -1.6716 -0.5765
14453TIP3   OH243280   7.423   1.016   7.221 -0.1248  0.6586  0.3067
14453TIP3    H143281   7.455   0.925   7.223  0.8028  1.0020  2.2632
14453TIP3    H243282   7.334   1.009   7.186 -0.0697 -1.0011  0.4464
14454TIP3   OH243283   4.642   6.937   6.551  0.1307  0.3822 -0.0613
14454TIP3    H143284   4.597   6.991   6.487  1.4648  0.2156 -1.1837
14454TIP3    H243285   4.590   6.944   6.631 -0.9327  1.5020 -0.8441
14455TIP3   OH243286   5.465   8.012   7.042 -0.0223  0.3470  0.2884
14455TIP3    H143287   5.411   7.968   6.976  0.5803  1.8516 -1.2493
14455TIP3    H243288   5.405   8.030   7.114 -0.4945 -2.1252  0.5832
14456TIP3   OH243289   0.941   3.910   0.525 -0.2559 -0.1281 -0.2099
14456TIP3    H143290   0.950   3.968   0.601  0.0337 -0.5742  0.0950
14456TIP3    H243291   0.968   3.824   0.557 -1.2981 -0.5676 -0.4999
14457TIP3   OH243292   6.936   8.285   3.467  0.3926 -0.1564  0.8223
14457TIP3    H143293   6.863   8.234   3.430 -0.4900  0.1836  2.0679
14457TIP3    H243294   6.925   8.277   3.562  1.8293  0.1338  1.0239
14458TIP3   OH243295   4.915   7.730   6.232 -0.1017 -0.6018  0.4062
14458TIP3    H143296   4.892   7.823   6.233 -2.8505 -1.1906 -1.3683
14458TIP3    H243297   4.883   7.696   6.315  0.6693 -0.0507  0.9438
14459TIP3   OH243298   8.240   1.022   4.584  0.3419  0.7319 -0.0603
14459TIP3    H143299   8.291   0.941   4.580 -0.1825  0.3324  1.1397
14459TIP3    H243300   8.303   1.090   4.561  1.1676  0.1388  0.3795
14460TIP3   OH243301   0.471   0.336   3.759  0.3109  0.2707 -0.3259
14460TIP3    H143302   0.382   0.371   3.760 -0.1603 -0.8015 -2.0405
14460TIP3    H243303   0.491   0.324   3.666  1.9512 -0.2474  0.0747
14461TIP3   OH243304   7.726   0.182   7.015 -0.4251  0.0755  0.0780
14461TIP3    H143305   7.761   0.271   7.016 -3.7269  1.4607  1.8312
14461TIP3    H243306   7.689   0.173   6.927  0.7224  0.0960 -0.4122
14462TIP3   OH243307   7.765   0.351   4.113  0.1818 -0.0094  0.0837
14462TIP3    H143308   7.683   0.387   4.148 -0.1596  2.1743 -2.7812
14462TIP3    H243309   7.833   0.411   4.145  0.4268 -0.6061  0.6982
14463TIP3   OH243310   6.966   7.256   5.909  0.8812 -0.0673 -0.4503
14463TIP3    H143311   6.979   7.271   5.815  0.1808  1.1719 -0.3693
14463TIP3    H243312   6.873   7.273   5.923  1.3122  1.4366  0.7500
14464TIP3   OH243313   6.563   7.660   5.345 -0.8272  0.5646 -0.0471
14464TIP3    H143314   6.547   7.748   5.377  1.1844  0.5776  1.0288
14464TIP3    H243315   6.479   7.614   5.355 -0.8117  1.1517  3.3863
14465TIP3   OH243316   8.458   1.778   6.405 -0.3617  0.4208 -0.4562
14465TIP3    H143317   8.548   1.753   6.384 -0.8967 -1.5308 -0.5054
14465TIP3    H243318   8.404   1.713   6.360 -1.7195 -0.1692  1.9467
14466TIP3   OH243319   5.481   7.629   3.937 -0.0166  0.3424  0.4017
14466TIP3    H143320   5.512   7.540   3.953 -1.1275  0.3207  2.6523
14466TIP3    H243321   5.488   7.640   3.842  0.2269 -2.1047  0.0996
14467TIP3   OH243322   0.972   1.736   3.775 -0.1487 -0.0171 -0.4889
14467TIP3    H143323   1.023   1.765   3.851  2.1266 -1.5580 -1.3616
14467TIP3    H243324   0.988   1.803   3.709 -0.2595  0.1359 -0.3613
14468TIP3   OH243325   7.783   0.201   3.681 -0.5384  0.3960 -0.0561
14468TIP3    H143326   7.769   0.277   3.737 -1.5696 -1.0339  1.6661
14468TIP3    H243327   7.748   0.228   3.596 -2.3580  1.3125  0.9463
14469TIP3   OH243328   3.407   4.686   0.042 -0.2297 -0.0999  0.2498
14469TIP3    H143329   3.413   4.613   0.104 -0.4654 -0.6364 -0.3577
14469TIP3    H243330   3.490   4.684  -0.006  0.0833  0.5096  0.7582
14470TIP3   OH243331   6.113   7.209   5.079  0.8918  0.2810  0.8371
14470TIP3    H143332   6.110   7.167   4.993 -2.1353 -1.1135  1.5765
14470TIP3    H243333   6.099   7.302   5.060  2.5542  0.3276 -0.3379
14471TIP3   OH243334   3.197   6.578   4.175 -0.1990 -0.1589 -0.2256
14471TIP3    H143335   3.167   6.587   4.085  1.0354 -0.1871 -0.6532
14471TIP3    H243336   3.290   6.601   4.171 -0.3452  0.7450  1.2008
14472TIP3   OH243337   7.953   2.574   4.022 -0.3197  0.1273  0.1588
14472TIP3    H143338   7.895   2.624   3.964 -0.2531 -0.6500 -0.5859
14472TIP3    H243339   8.033   2.626   4.026 -0.8715  0.9438  0.7713
14473TIP3   OH243340   1.845   1.458   5.202  0.0793 -0.1205 -0.1508
14473TIP3    H143341   1.757   1.496   5.211  0.5492  1.0483 -0.5878
14473TIP3    H243342   1.902   1.516   5.252  1.3288  1.6011 -3.4814
14474TIP3   OH243343   4.807   8.027   5.090  0.6932  0.1226 -0.2049
14474TIP3    H143344   4.870   8.017   5.162  0.2128  0.3810  0.2564
14474TIP3    H243345   4.753   7.948   5.094 -0.1151  0.6886  0.5031
14475TIP3   OH243346   2.468   1.579   3.140 -0.3087 -0.1840 -0.4553
14475TIP3    H143347   2.392   1.635   3.155  1.1311  1.7176  0.0151
14475TIP3    H243348   2.483   1.535   3.223 -0.0261  0.5497 -0.1172
14476TIP3   OH243349   8.145   0.214   2.717  0.2186  0.0376 -0.5579
14476TIP3    H143350   8.062   0.176   2.688  0.7299  0.7261 -3.0075
14476TIP3    H243351   8.203   0.138   2.727 -0.5153 -0.3858  0.5520
14477TIP3   OH243352   1.355   1.014   6.844 -0.3314  0.0133  0.2686
14477TIP3    H143353   1.407   1.088   6.810  0.0010 -0.3108  0.0723
14477TIP3    H243354   1.392   0.997   6.930  0.5418 -0.8636 -0.2761
14478TIP3   OH243355   8.101   0.460   2.812 -0.5077  0.4082 -0.1731
14478TIP3    H143356   8.161   0.491   2.880 -1.4786  1.4091  0.2457
14478TIP3    H243357   8.138   0.376   2.784  1.5982  1.4468 -0.6007
14479TIP3   OH243358   2.894   8.194   4.590 -0.4312 -0.3633 -0.4474
14479TIP3    H143359   2.967   8.256   4.592  0.0712 -0.9744  0.4325
14479TIP3    H243360   2.932   8.113   4.556 -0.3770 -1.0680  1.2287
14480TIP3   OH243361   0.216   0.385   5.225  0.4289 -0.2217 -0.1343
14480TIP3    H143362   0.125   0.373   5.200  0.1728 -1.8661  1.4005
14480TIP3    H243363   0.254   0.297   5.219  1.6184  0.2513  0.2849
14481TIP3   OH243364   7.609   0.412   5.970  0.1347 -0.1615  0.4237
14481TIP3    H143365   7.617   0.490   5.915  0.8462 -1.3512 -1.1952
14481TIP3    H243366   7.520   0.416   6.005 -0.0425  1.0254 -0.1522
14482TIP3   OH243367   3.749   6.688   3.420  0.0792  0.0057  0.0480
14482TIP3    H143368   3.680   6.623   3.435 -0.5325 -0.0577 -2.7791
14482TIP3    H243369   3.714   6.745   3.351  2.0218  1.2474  0.0467
14483TIP3   OH243370   4.874   6.254   4.375  0.4623  0.4681  0.0510
14483TIP3    H143371   4.870   6.165   4.410  1.0135  0.2450 -0.4347
14483TIP3    H243372   4.788   6.269   4.336  0.7879 -0.3411 -1.0108
14484TIP3   OH243373   6.827   8.226   4.705  0.0556  0.0219 -0.2279
14484TIP3    H143374   6.894   8.231   4.637 -0.1250  0.3986 -0.3755
14484TIP3    H243375   6.815   8.316   4.735  0.0190 -0.1223  0.1930
14485TIP3   OH243376   6.614   7.103   4.774  0.0872 -0.2322  0.0432
14485TIP3    H143377   6.585   7.045   4.845  0.0172 -1.1120 -0.6908
14485TIP3    H243378   6.589   7.191   4.803 -0.7773 -0.6858  0.6926
14486TIP3   OH243379   5.126   8.155   4.856  0.2370 -0.1233  1.0943
14486TIP3    H143380   5.152   8.245   4.873  0.4276 -0.4931  2.8697
14486TIP3    H243381   5.162   8.135   4.769 -0.2852  1.6721  0.4513
14487TIP3   OH243382   6.270   7.295   3.991  0.1706  0.6424  0.0024
14487TIP3    H143383   6.231   7.233   3.929 -0.4143  1.9442 -0.9547
14487TIP3    H243384   6.281   7.245   4.071 -1.0996 -0.4751 -0.4966
14488TIP3   OH243385   7.778   7.562   4.827  0.0702 -0.1023 -0.2110
14488TIP3    H143386   7.686   7.579   4.808 -0.5078 -0.3809  2.1431
14488TIP3    H243387   7.823   7.642   4.801 -0.8705  0.1226 -1.1713
14489TIP3   OH243388   0.537   0.891   4.750  0.3604 -0.5095 -0.3306
14489TIP3    H143389   0.469   0.824   4.757 -0.1413  0.0726  0.4587
14489TIP3    H243390   0.580   0.873   4.666 -1.3490 -0.3449 -1.2607
14490TIP3   OH243391   4.473   6.544   3.682 -0.0131  0.0769  0.1261
14490TIP3    H143392   4.467   6.564   3.588 -0.9887  0.6149  0.3009
14490TIP3    H243393   4.438   6.455   3.689  1.5236 -0.5668 -0.2325
14491TIP3   OH243394   1.313   0.919   4.905  0.3746  0.5526 -0.1617
14491TIP3    H143395   1.402   0.946   4.928  0.1935  0.7409  0.3162
14491TIP3    H243396   1.256   0.980   4.951  0.0039  0.8718 -1.0249
14492TIP3   OH243397   2.202   3.416   0.037  0.5485  0.0948 -0.0301
14492TIP3    H143398   2.175   3.364   0.113  0.3879  0.1333 -0.0607
14492TIP3    H243399   2.130   3.406  -0.026  0.5116  0.3687 -0.0298
14493TIP3   OH243400   4.194   7.178   2.246  0.2090  0.1261  0.4145
14493TIP3    H143401   4.251   7.104   2.224  1.0520  1.2784 -1.3514
14493TIP3    H243402   4.110   7.157   2.205  0.4292  0.1047 -0.0330
14494TIP3   OH243403   8.720   0.594   4.033  0.1285 -0.3080  0.1928
14494TIP3    H143404   8.812   0.620   4.037 -0.3217  1.3524  0.2246
14494TIP3    H243405   8.704   0.549   4.116  1.3765 -2.2570 -0.5958
14495TIP3   OH243406   7.329   1.167   3.930  0.3858  0.1201 -0.0461
14495TIP3    H143407   7.386   1.189   4.004  0.2046 -1.0951  0.4763
14495TIP3    H243408   7.375   1.097   3.884  0.7231  1.1975 -1.3756
14496TIP3   OH243409   4.969   7.125   4.335  0.0542  0.4442  0.2876
14496TIP3    H143410   5.022   7.201   4.359 -1.7646  1.6082  0.6750
14496TIP3    H243411   4.922   7.102   4.415 -1.0080  0.2229 -0.3950
14497TIP3   OH243412   0.821   1.824   5.642 -0.2263  0.4538 -0.2405
14497TIP3    H143413   0.910   1.860   5.652 -0.2140  1.4889 -3.4891
14497TIP3    H243414   0.770   1.869   5.709  1.3144  1.2418  0.4479
14498TIP3   OH243415   8.579   0.972   4.202 -0.5501 -0.8676 -0.3692
14498TIP3    H143416   8.608   1.054   4.162  0.8490 -1.0230  0.3251
14498TIP3    H243417   8.657   0.935   4.242 -1.9654 -0.5749  2.8108
14499TIP3   OH243418   8.002   1.155   4.661 -0.1784 -0.1369 -0.6947
14499TIP3    H143419   7.996   1.201   4.578 -1.6881 -0.8356 -0.9899
14499TIP3    H243420   8.085   1.108   4.657 -0.2797 -0.2287 -1.8459
14500TIP3   OH243421   7.560   0.026   4.742 -0.2968  0.2881 -0.2843
14500TIP3    H143422   7.591  -0.055   4.784  0.8077  0.3061 -1.0505
14500TIP3    H243423   7.547   0.087   4.815 -2.1617 -0.8856  0.4114
14501TIP3   OH243424   2.263   1.897   5.644 -0.0156 -0.3187 -0.6474
14501TIP3    H143425   2.315   1.823   5.676  0.9382  0.9434  0.7892
14501TIP3    H243426   2.203   1.858   5.580  0.9219 -2.2220 -0.4098
14502TIP3   OH243427   0.976   1.326   2.054 -0.1575  0.1071  0.2664
14502TIP3    H143428   0.945   1.374   1.977  0.8980  0.4179  0.0265
14502TIP3    H243429   0.979   1.234   2.026  0.2920  0.2288 -0.0875
14503TIP3   OH243430  -0.002   0.432   5.646 -0.1485  0.2360  0.1226
14503TIP3    H143431   0.087   0.465   5.656  0.4816 -1.5053  0.3514
14503TIP3    H243432  -0.048   0.501   5.599  1.6407  0.6236 -1.0937
14504TIP3   OH243433   6.563   7.642   6.284  0.4003  0.2120 -0.1491
14504TIP3    H143434   6.572   7.592   6.202 -2.4658 -2.3687  0.9988
14504TIP3    H243435   6.474   7.677   6.280  0.5727  0.8405  1.4547
14505TIP3   OH243436   0.174   0.428   4.130  0.4446  0.1595  0.1892
14505TIP3    H143437   0.212   0.428   4.218  0.3090 -1.3911  0.2623
14505TIP3    H243438   0.250   0.425   4.072  0.4999 -1.9076  0.3206
14506TIP3   OH243439   1.413   1.121   5.439 -0.2477  0.1201 -0.1490
14506TIP3    H143440   1.490   1.116   5.495 -0.3808  0.3679  0.0575
14506TIP3    H243441   1.446   1.149   5.354 -0.1919  0.8191  0.1041
14507TIP3   OH243442   5.129   7.892   6.688  0.0124  0.1347 -0.2403
14507TIP3    H143443   5.045   7.936   6.700 -0.8397 -1.6153  0.2432
14507TIP3    H243444   5.150   7.905   6.595 -0.1901  1.6066 -0.0871
14508TIP3   OH243445   2.701   7.551   2.587 -0.0555  0.1319 -0.4516
14508TIP3    H143446   2.779   7.500   2.607  0.0799  0.1678 -0.8899
14508TIP3    H243447   2.685   7.536   2.494  1.2719  2.6439 -1.1208
14509TIP3   OH243448   1.443   1.713   4.667  0.1963  0.3766  0.3566
14509TIP3    H143449   1.469   1.798   4.632  1.5599  0.1112  0.7073
14509TIP3    H243450   1.500   1.699   4.742  0.1475 -0.9668  0.1583
14510TIP3   OH243451   4.396   6.941   3.750 -0.6325 -0.1807  0.1738
14510TIP3    H143452   4.428   6.860   3.708 -0.4024  0.6579 -1.2900
14510TIP3    H243453   4.327   6.972   3.693 -0.2566  1.0315  0.3673
14511TIP3   OH243454   8.450   0.540   5.749 -0.3380  0.3588  0.1085
14511TIP3    H143455   8.485   0.455   5.779 -0.6066  0.5316  0.9085
14511TIP3    H243456   8.526   0.598   5.750 -0.3561  0.3758  0.4917
14512TIP3   OH243457   8.435   2.345   6.397  0.1756  0.2535  0.5703
14512TIP3    H143458   8.376   2.305   6.334  0.7619  0.0421  0.1517
14512TIP3    H243459   8.386   2.344   6.479 -0.8654  1.1763 -0.0246
14513TIP3   OH243460   6.547   8.136   6.224 -0.0505  0.2532  0.0885
14513TIP3    H143461   6.609   8.168   6.159 -0.8865 -3.4705 -2.7044
14513TIP3    H243462   6.597   8.071   6.275 -0.3116  0.8057  1.0654
14514TIP3   OH243463   0.021   0.191   4.036 -0.6094  0.2880 -0.2527
14514TIP3    H143464   0.081   0.266   4.034 -1.0079  0.6459  0.7834
14514TIP3    H243465  -0.027   0.196   3.954  1.7267 -0.7921 -1.7410
14515TIP3   OH243466   0.992   0.864   5.108 -0.0008 -0.0412  0.4838
14515TIP3    H143467   0.907   0.876   5.064  0.2187 -1.5411 -0.3898
14515TIP3    H243468   0.979   0.902   5.195 -1.3621  0.3579  0.1300
14516TIP3   OH243469   8.593   8.189   5.318 -0.1809  0.2485 -0.3074
14516TIP3    H143470   8.634   8.274   5.301  2.7524 -0.5666  2.3167
14516TIP3    H243471   8.661   8.125   5.300 -1.4050 -1.3864  0.7432
14517TIP3   OH243472   6.667   7.342   5.023 -1.3211 -0.2772  0.6691
14517TIP3    H143473   6.582   7.375   4.994 -0.4082  0.7035 -1.0354
14517TIP3    H243474   6.726   7.359   4.949  0.5089 -0.3042  2.0599
14518TIP3   OH243475   3.571   0.769   6.932  0.6605 -0.3162  0.6265
14518TIP3    H143476   3.644   0.778   6.993 -0.3724  1.8034  1.5994
14518TIP3    H243477   3.494   0.759   6.988 -0.0839 -0.0905 -0.3413
14519TIP3   OH243478   4.348   6.599   6.516  0.4616 -0.2645 -0.2664
14519TIP3    H143479   4.272   6.593   6.457  1.1719 -1.7828 -1.0616
14519TIP3    H243480   4.387   6.511   6.514  1.5987  0.1977  0.9935
14520TIP3   OH243481   6.659   7.938   6.371 -0.1116 -0.4730 -0.5284
14520TIP3    H143482   6.753   7.927   6.386 -0.3254 -1.2641  0.2950
14520TIP3    H243483   6.630   7.854   6.335 -0.7212 -0.6671  0.3903
14521TIP3   OH243484   6.492   8.042   6.843  0.1288  0.4815  0.0722
14521TIP3    H143485   6.414   8.005   6.802  0.5806 -0.6215  0.1872
14521TIP3    H243486   6.478   8.136   6.842  1.0897  0.6785 -4.5714
14522TIP3   OH243487   1.601   0.970   4.325 -0.1025 -0.0068  0.3628
14522TIP3    H143488   1.561   0.904   4.268  0.7451 -0.8380  0.7192
14522TIP3    H243489   1.571   1.054   4.289 -0.1341 -0.5379 -0.8912
14523TIP3   OH243490   5.260   7.238   5.470 -0.2533  0.1969 -0.0172
14523TIP3    H143491   5.212   7.263   5.549  0.9960  0.7025  0.5895
14523TIP3    H243492   5.350   7.227   5.499 -0.2268 -2.1231 -0.8695
14524TIP3   OH243493   7.249   6.941   5.549 -0.4539 -0.0153  0.1096
14524TIP3    H143494   7.200   7.010   5.504  0.4734  0.7781  0.2965
14524TIP3    H243495   7.333   6.982   5.571 -0.4348 -0.7657  1.4689
14525TIP3   OH243496   5.210   4.533   2.351  0.1642 -0.3123  0.7084
14525TIP3    H143497   5.129   4.581   2.369 -0.6577 -1.1010 -0.7505
14525TIP3    H243498   5.252   4.523   2.436 -0.5112  1.4587  1.2732
14526TIP3   OH243499   3.995   7.452   4.968  0.2647  0.8135 -0.4274
14526TIP3    H143500   3.905   7.448   4.935  0.2524  0.3270 -0.3397
14526TIP3    H243501   4.036   7.522   4.917  0.1168  0.3677 -1.1636
14527TIP3   OH243502   7.273  -0.011   5.552  0.1013 -0.2824 -0.4436
14527TIP3    H143503   7.303   0.080   5.562 -0.9470 -0.0308  0.6559
14527TIP3    H243504   7.189  -0.004   5.508  0.2696 -0.7554 -0.8378
14528TIP3   OH243505   0.064   1.766   4.709 -0.2763 -0.2753  0.3002
14528TIP3    H143506   0.055   1.858   4.683  0.1022 -0.2329  0.3061
14528TIP3    H243507  -0.021   1.727   4.689 -0.1547 -0.1273 -0.5401
14529TIP3   OH243508   0.828   2.138   4.146  0.4671 -0.5854  0.3296
14529TIP3    H143509   0.858   2.048   4.136 -2.4480 -1.5610 -0.1742
14529TIP3    H243510   0.862   2.184   4.069 -0.3556 -1.9512 -0.8847
14530TIP3   OH243511   8.847   0.461   5.171  0.2692  0.2164 -0.5758
14530TIP3    H143512   8.798   0.515   5.233 -0.4739 -0.8069 -0.2470
14530TIP3    H243513   8.835   0.505   5.087 -2.8779 -1.0103 -0.8537
14531TIP3   OH243514   6.879   0.249   6.079  0.0236 -0.6346  0.1169
14531TIP3    H143515   6.951   0.311   6.067 -0.7857  0.4693  0.7694
14531TIP3    H243516   6.870   0.206   5.994 -1.5633  2.5588 -1.4232
14532TIP3   OH243517   8.264   7.895   2.635 -0.0336 -0.2483 -0.2753
14532TIP3    H143518   8.301   7.911   2.722 -0.6450 -0.2151 -0.0179
14532TIP3    H243519   8.210   7.972   2.618  2.0981  0.9702 -1.7792
14533TIP3   OH243520   0.070   1.377   2.874 -0.4177  0.0452  0.1269
14533TIP3    H143521  -0.009   1.420   2.906 -1.2128 -1.1857 -0.1634
14533TIP3    H243522   0.044   1.287   2.857  1.1997 -0.5308  0.5952
14534TIP3   OH243523   1.790   0.733   4.338  0.7604  0.0792 -0.4990
14534TIP3    H143524   1.769   0.826   4.334  2.0637  0.3770 -0.8956
14534TIP3    H243525   1.740   0.700   4.413 -0.8967  0.7641 -1.3043
14535TIP3   OH243526   3.854   8.361   5.413 -0.6932 -0.4868  0.1248
14535TIP3    H143527   3.836   8.453   5.391 -0.1115 -0.8446 -1.9340
14535TIP3    H243528   3.789   8.311   5.364 -0.6230 -1.2081  0.7624
14536TIP3   OH243529   4.732   8.175   4.167 -0.1018  0.5076  0.0393
14536TIP3    H143530   4.780   8.155   4.247  0.0036 -0.6120 -0.2943
14536TIP3    H243531   4.794   8.222   4.112  0.3054 -0.0716  0.0033
14537TIP3   OH243532   4.977   7.912   3.826  0.0582  0.0228  0.5733
14537TIP3    H143533   5.033   7.846   3.785 -0.6641 -1.2874  1.6453
14537TIP3    H243534   4.893   7.903   3.781 -0.0688  0.1443  0.7864
14538TIP3   OH243535   5.400   5.596   0.768  0.6382 -0.0885 -0.2564
14538TIP3    H143536   5.476   5.592   0.827  0.6583 -0.2227 -0.2893
14538TIP3    H243537   5.348   5.519   0.792 -0.0972  0.6722  0.5854
14539TIP3   OH243538   7.098   8.167   5.720 -0.5888 -0.3400  0.7681
14539TIP3    H143539   7.181   8.184   5.764  0.4932  0.7558 -1.6041
14539TIP3    H243540   7.048   8.248   5.732  0.6892  0.9323 -2.0681
14540TIP3   OH243541   5.507   5.874   1.897 -0.1999  0.4064 -0.2999
14540TIP3    H143542   5.436   5.855   1.958  1.8512 -0.5655  1.8543
14540TIP3    H243543   5.540   5.960   1.924  1.0522 -0.2576  0.3303
14541TIP3   OH243544   5.863   6.458   3.389  0.1002  0.0335 -0.1641
14541TIP3    H143545   5.770   6.440   3.380  0.3134 -1.0672 -0.3325
14541TIP3    H243546   5.897   6.383   3.439  1.2533 -0.6850 -1.9593
14542TIP3   OH243547   2.933   0.991   6.027  0.1831 -0.2878  0.1656
14542TIP3    H143548   2.909   1.029   5.943  3.2783  1.0304 -0.1672
14542TIP3    H243549   2.954   0.899   6.007  1.0750  0.0673 -0.5560
14543TIP3   OH243550   2.172   0.830   6.456  0.1154  0.5853 -0.2148
14543TIP3    H143551   2.252   0.778   6.447 -0.9749 -1.0649 -0.5620
14543TIP3    H243552   2.199   0.907   6.505  1.3591 -1.2883  2.1806
14544TIP3   OH243553   6.176   6.812   5.503  0.5474  0.0299  0.1526
14544TIP3    H143554   6.194   6.846   5.415  0.5528 -0.1809  0.0731
14544TIP3    H243555   6.257   6.829   5.552  0.4127  0.4843  0.2199
14545TIP3   OH243556   8.340   7.407   4.309 -0.0619 -0.0298 -0.0438
14545TIP3    H143557   8.433   7.413   4.327 -0.1924  2.6344 -0.1129
14545TIP3    H243558   8.334   7.403   4.214  0.0508 -2.0000  0.0200
14546TIP3   OH243559   8.091   5.989   3.430 -0.3172  1.1086  0.3869
14546TIP3    H143560   8.177   5.948   3.427 -0.2465  1.2816  0.0743
14546TIP3    H243561   8.047   5.959   3.350 -1.0149 -0.0012  1.1624
14547TIP3   OH243562   4.710   6.755   5.962  0.2183  0.0446  0.4431
14547TIP3    H143563   4.785   6.712   5.920  0.9054  1.2101  0.4727
14547TIP3    H243564   4.634   6.704   5.932  0.9756 -0.9282  0.1304
14548TIP3   OH243565   1.070   5.586   0.475 -0.3382  0.1924 -0.2349
14548TIP3    H143566   1.014   5.657   0.444  0.8390  1.1897 -0.1334
14548TIP3    H243567   1.152   5.597   0.427  0.0484 -0.7584  0.1896
14549TIP3   OH243568   6.296   1.986   1.213 -0.2576 -0.2493  0.4452
14549TIP3    H143569   6.285   1.917   1.147  1.5783  0.5116 -0.7182
14549TIP3    H243570   6.299   2.067   1.163 -2.5259  0.7138  1.8189
14550TIP3   OH243571   6.484   6.749   3.424  0.1757  0.2698 -0.0972
14550TIP3    H143572   6.482   6.670   3.370  0.0918  0.3019 -0.1415
14550TIP3    H243573   6.428   6.729   3.499 -1.7670  1.1204 -1.2681
14551TIP3   OH243574   8.745   0.942   5.118 -0.4650  0.0105 -0.0599
14551TIP3    H143575   8.792   0.909   5.194  0.6212  0.3040 -0.5818
14551TIP3    H243576   8.814   0.978   5.062 -1.4554  1.6906 -0.2265
14552TIP3   OH243577   0.642   1.499   3.455  0.1796  0.7048  0.4361
14552TIP3    H143578   0.557   1.513   3.498  0.3754  3.0013  0.1555
14552TIP3    H243579   0.705   1.496   3.527 -0.1245 -1.0536  0.6486
14553TIP3   OH243580   3.662   5.459   2.977  0.2494  0.4034 -0.3885
14553TIP3    H143581   3.665   5.422   3.065  1.2655  0.5990 -0.3344
14553TIP3    H243582   3.572   5.491   2.968 -0.5073 -1.5950 -0.2526
14554TIP3   OH243583   5.350   8.069   6.132  0.3475 -0.5296  0.5175
14554TIP3    H143584   5.403   8.135   6.087  0.4872 -0.8819  0.1650
14554TIP3    H243585   5.323   8.112   6.213 -0.2990  0.2827 -0.1104
14555TIP3   OH243586   7.594   0.145   6.423  0.0690  0.2322 -0.4319
14555TIP3    H143587   7.505   0.180   6.421  0.2288  0.7995  1.4483
14555TIP3    H243588   7.622   0.144   6.331 -1.9266 -0.1139 -1.0594
14556TIP3   OH243589   6.882   7.794   4.025  0.4476  0.1595  0.2536
14556TIP3    H143590   6.931   7.750   4.094  0.5983 -0.4073 -0.2043
14556TIP3    H243591   6.890   7.735   3.949 -1.9683 -0.5812  0.5113
14557TIP3   OH243592   4.974   6.725   4.584 -0.6549  0.2396  0.2038
14557TIP3    H143593   4.945   6.643   4.623  0.3398 -0.4758 -0.5451
14557TIP3    H243594   4.945   6.720   4.493  0.0267  0.3986 -0.0269
14558TIP3   OH243595   2.729   1.103   6.193 -0.0628 -0.7847 -0.1364
14558TIP3    H143596   2.789   1.102   6.119  0.4292  2.5699  0.1551
14558TIP3    H243597   2.746   1.020   6.238  0.6946 -2.1774 -2.8762
14559TIP3   OH243598   5.806   8.004   5.262 -0.3458 -0.6433  0.0738
14559TIP3    H143599   5.766   8.048   5.186 -1.0831 -2.4135 -0.5867
14559TIP3    H243600   5.872   8.066   5.293 -1.1094  0.7792 -1.0534
14560TIP3   OH243601   8.462   0.719   6.025 -0.7610 -0.2698 -0.2435
14560TIP3    H143602   8.416   0.801   6.007  0.2911  0.2555 -0.5447
14560TIP3    H243603   8.532   0.716   5.960  0.2680 -0.5616  0.8751
14561TIP3   OH243604   4.991   8.261   5.211 -0.8553 -0.0920  0.0490
14561TIP3    H143605   4.984   8.344   5.164  0.3737 -0.2720 -0.4827
14561TIP3    H243606   4.932   8.202   5.163 -1.5728  0.4149  0.3031
14562TIP3   OH243607   5.971   6.945   3.682  0.2875  0.1884  0.1239
14562TIP3    H143608   5.922   6.875   3.727 -1.1544  1.4152  0.4834
14562TIP3    H243609   6.017   6.900   3.612 -1.1856 -1.0393 -0.0921
14563TIP3   OH243610   5.568   8.199   2.772  0.2278  0.3363 -0.7071
14563TIP3    H143611   5.648   8.241   2.807  0.7296  0.0861 -1.5500
14563TIP3    H243612   5.521   8.170   2.850  1.1780  0.0912 -0.2158
14564TIP3   OH243613   8.648   6.664   5.651 -0.1578 -0.0884 -0.2067
14564TIP3    H143614   8.624   6.735   5.710 -0.6811 -0.7986  0.4521
14564TIP3    H243615   8.651   6.704   5.564 -1.9779  0.4246 -0.0599
14565TIP3   OH243616   1.056   2.896   0.137 -0.1727  0.3697 -0.2570
14565TIP3    H143617   1.035   2.865   0.049  0.9500 -1.2751  0.0314
14565TIP3    H243618   1.152   2.895   0.140 -0.2081  0.2261  1.0464
14566TIP3   OH243619   4.176   6.392   4.783  0.1910 -0.3174 -0.1176
14566TIP3    H143620   4.184   6.385   4.879  0.5828  0.0539 -0.1203
14566TIP3    H243621   4.152   6.304   4.755 -0.0864 -0.3917  0.3403
14567TIP3   OH243622   5.522   6.184   2.335 -0.0733 -0.1188 -0.0473
14567TIP3    H143623   5.470   6.143   2.403  0.3453 -1.1215 -0.3285
14567TIP3    H243624   5.487   6.273   2.328 -1.2110 -0.5367  0.3107
14568TIP3   OH243625   6.657   6.894   5.773 -0.1045 -0.3504  0.3117
14568TIP3    H143626   6.748   6.880   5.800 -0.6138 -0.9971  1.7542
14568TIP3    H243627   6.618   6.942   5.846 -0.5074  1.4149 -1.0258
14569TIP3   OH243628   6.930   6.678   3.598  0.4864  0.5042  0.0376
14569TIP3    H143629   6.879   6.675   3.517 -0.7080 -1.6193  0.8162
14569TIP3    H243630   6.991   6.604   3.590 -0.3438 -0.3519  1.5024
14570TIP3   OH243631   3.877   5.998   4.350 -0.4308 -0.6864 -0.0809
14570TIP3    H143632   3.820   6.072   4.371 -0.3090 -0.5143 -0.3489
14570TIP3    H243633   3.817   5.924   4.339 -0.7882 -0.1169 -2.1931
14571TIP3   OH243634   0.229   0.568   5.654 -0.5219 -0.4364 -0.6474
14571TIP3    H143635   0.297   0.571   5.587  0.1960  3.5102  0.0953
14571TIP3    H243636   0.272   0.529   5.730  0.0777 -0.6046 -1.0718
14572TIP3   OH243637   3.288   7.887   6.301 -1.0510  0.7049 -0.1822
14572TIP3    H143638   3.327   7.933   6.227 -0.8242 -1.5465 -1.5266
14572TIP3    H243639   3.285   7.952   6.371  1.5636  2.0411 -1.2237
14573TIP3   OH243640   5.687   8.232   4.548  0.1741 -0.9559  0.1133
14573TIP3    H143641   5.659   8.206   4.461  0.4767 -2.2424  0.3769
14573TIP3    H243642   5.783   8.226   4.545  0.2720  0.3803  0.1268
14574TIP3   OH243643   8.393   1.745   4.569  0.5881 -0.2123  0.2867
14574TIP3    H143644   8.308   1.701   4.565  0.8527 -0.8307  1.3913
14574TIP3    H243645   8.437   1.717   4.488 -0.0096 -0.3930  0.0161
14575TIP3   OH243646   3.104   6.305   5.686 -0.1188  0.0083 -0.5197
14575TIP3    H143647   3.168   6.235   5.699 -1.1918 -1.0198 -0.7501
14575TIP3    H243648   3.023   6.271   5.722 -1.2969  0.0778 -2.9793
14576TIP3   OH243649   5.245   7.839   5.359  0.1249  0.0853 -0.2356
14576TIP3    H143650   5.321   7.897   5.367  0.1881 -0.0781  0.3820
14576TIP3    H243651   5.276   7.754   5.392 -0.8393  0.4650  1.6798
14577TIP3   OH243652   3.755   7.507   4.526  0.4803  0.3748  1.0206
14577TIP3    H143653   3.814   7.469   4.591 -0.1910 -1.5885  0.5237
14577TIP3    H243654   3.765   7.451   4.449  0.3955  1.9757 -0.1771
14578TIP3   OH243655   5.293   8.346   5.249  0.0360  0.2458 -0.0849
14578TIP3    H143656   5.237   8.421   5.228  0.4315  0.6624  0.3127
14578TIP3    H243657   5.234   8.284   5.293  0.2308  1.4368  1.9517
14579TIP3   OH243658   8.147   1.697   4.407  0.6061  0.1661  0.1150
14579TIP3    H143659   8.156   1.629   4.474 -1.5456 -0.0888  0.1764
14579TIP3    H243660   8.130   1.648   4.326 -2.5183  0.6414  0.4377
14580TIP3   OH243661   6.823   8.372   5.343  0.1125 -0.1355 -0.2560
14580TIP3    H143662   6.845   8.465   5.343 -1.8690  0.3676 -1.7472
14580TIP3    H243663   6.904   8.328   5.367  0.9251  2.0058  1.0321
14581TIP3   OH243664   0.372   1.438   3.333 -0.2583  0.2532  0.1114
14581TIP3    H143665   0.452   1.392   3.359 -0.3757 -1.0069 -1.6946
14581TIP3    H243666   0.400   1.494   3.260 -0.5996  1.3790  0.8307
14582TIP3   OH243667   8.131   7.588   4.354 -0.3798 -0.1509 -0.3469
14582TIP3    H143668   8.211   7.536   4.354 -1.3703 -1.6915 -0.7921
14582TIP3    H243669   8.060   7.524   4.353 -1.6275  1.2041 -0.7551
14583TIP3   OH243670   0.429   1.606   6.195 -0.6004  0.0971  0.0236
14583TIP3    H143671   0.347   1.642   6.228 -0.4364 -0.1458  0.6957
14583TIP3    H243672   0.402   1.544   6.127 -0.8715  1.6469 -1.3118
14584TIP3   OH243673   7.890   7.848   3.301 -0.3033  0.2032 -0.3379
14584TIP3    H143674   7.961   7.814   3.246 -1.8986 -1.0129 -1.6767
14584TIP3    H243675   7.935   7.887   3.376  1.7866 -0.5026 -1.1831
14585TIP3   OH243676   4.178   3.451   1.121 -0.5506 -0.4547  1.0771
14585TIP3    H143677   4.248   3.402   1.164  0.1510 -0.3756  0.0419
14585TIP3    H243678   4.181   3.422   1.030 -0.3297  1.2679  0.5128
14586TIP3   OH243679   0.865   7.781   5.181  0.0625  0.5336 -0.0269
14586TIP3    H143680   0.843   7.839   5.254  2.2404  2.3433 -0.7184
14586TIP3    H243681   0.959   7.763   5.192 -0.2813 -1.7272 -0.6324
14587TIP3   OH243682   7.109   8.033   5.446  0.0102 -0.6193 -0.2075
14587TIP3    H143683   7.134   8.080   5.525 -0.3901 -0.3419 -0.2457
14587TIP3    H243684   7.032   7.982   5.470  1.0168 -2.0124  0.0958
14588TIP3   OH243685   0.336   1.178   4.809 -0.0407  0.5431  0.0629
14588TIP3    H143686   0.374   1.113   4.749  2.3025  3.2619 -1.5027
14588TIP3    H243687   0.400   1.185   4.880 -0.5200  0.8126  0.4740
14589TIP3   OH243688   1.317   0.032   4.740  0.3907  0.6707  0.2549
14589TIP3    H143689   1.348   0.021   4.829  1.4043  2.4785  0.1255
14589TIP3    H243690   1.226   0.060   4.750  0.3562  0.4105  0.6971
14590TIP3   OH243691   8.197   7.651   3.361 -0.4770  0.4625  0.0363
14590TIP3    H143692   8.235   7.703   3.431 -0.8333 -1.9975  2.1261
14590TIP3    H243693   8.258   7.578   3.350  0.1508  1.3460 -3.0189
14591TIP3   OH243694   7.009   7.453   3.987 -0.2536 -0.1816  0.3962
14591TIP3    H143695   6.984   7.461   4.079  0.7989 -1.7909  0.8413
14591TIP3    H243696   7.104   7.458   3.987  0.0747 -4.4825 -0.0673
14592TIP3   OH243697   6.444   6.522   4.221 -0.1540  0.2036  0.0989
14592TIP3    H143698   6.400   6.563   4.147  0.8503  0.4587 -0.3586
14592TIP3    H243699   6.510   6.586   4.250 -1.7464  0.8947  2.3932
14593TIP3   OH243700   1.533  -0.022   2.888  0.5193 -0.5092 -0.1531
14593TIP3    H143701   1.528  -0.022   2.984 -1.4175  1.0312 -0.2257
14593TIP3    H243702   1.484   0.056   2.862  0.2142 -1.4429 -2.4433
14594TIP3   OH243703   0.249   0.984   4.616  0.2689  0.4790 -0.7686
14594TIP3    H143704   0.276   0.920   4.682  1.5301  1.9887  0.2279
14594TIP3    H243705   0.158   1.003   4.636  1.3581  2.9065  2.2732
14595TIP3   OH243706   7.332   8.127   4.378 -0.0853  0.2410 -0.0580
14595TIP3    H143707   7.268   8.177   4.328  0.1362 -0.6344 -1.2361
14595TIP3    H243708   7.293   8.039   4.384  0.1757  0.1777  0.7733
14596TIP3   OH243709   1.807   2.530   3.112  0.4225  0.1787 -0.8958
14596TIP3    H143710   1.796   2.444   3.154 -0.8650  0.6318 -0.3019
14596TIP3    H243711   1.775   2.593   3.176  2.6911  1.2417 -0.7532
14597TIP3   OH243712   8.702   1.984   5.085  0.2361  0.2302 -0.0038
14597TIP3    H143713   8.624   1.982   5.029  1.0528  0.7685 -1.1952
14597TIP3    H243714   8.678   2.042   5.157 -0.3734  0.6496 -0.5258
14598TIP3   OH243715   2.249   0.604   4.726 -0.1450  0.1535 -0.1039
14598TIP3    H143716   2.241   0.512   4.703 -0.2498  0.0800  0.2166
14598TIP3    H243717   2.281   0.647   4.646  4.4220 -0.8790  0.9860
14599TIP3   OH243718   1.832   0.292   3.175  0.2879  0.7493 -0.2569
14599TIP3    H143719   1.790   0.371   3.207 -2.9167 -1.5883  1.5805
14599TIP3    H243720   1.795   0.278   3.088 -1.2382 -0.2151  0.5422
14600TIP3   OH243721   6.792   8.172   2.511  0.1822 -0.2117 -0.1887
14600TIP3    H143722   6.700   8.148   2.520 -0.0329  0.8045  0.3268
14600TIP3    H243723   6.839   8.111   2.568 -0.4031  0.8732  1.4833
14601TIP3   OH243724   4.169   4.666   1.960  0.1793  0.0385 -0.4062
14601TIP3    H143725   4.239   4.731   1.970 -0.3785  0.6207 -0.2821
14601TIP3    H243726   4.201   4.607   1.892  1.4160 -0.5252  0.6427
14602TIP3   OH243727   7.946   6.911   2.084  0.2749  0.4191 -0.4206
14602TIP3    H143728   8.007   6.916   2.010 -0.5915  1.7840 -1.0633
14602TIP3    H243729   7.947   7.000   2.121  1.3469 -0.4733  1.7510
14603TIP3   OH243730   2.101   0.401   4.969 -0.3445 -0.4062  0.4420
14603TIP3    H143731   2.132   0.344   5.039  1.3700 -0.3781 -0.2728
14603TIP3    H243732   2.049   0.343   4.913  1.0204 -1.2079 -0.0425
14604TIP3   OH243733  -0.003   8.149   2.789  0.0780  0.4130 -0.2234
14604TIP3    H143734  -0.043   8.236   2.797  0.1531  0.5155 -0.9525
14604TIP3    H243735   0.074   8.162   2.735  1.1426  0.2142  1.2199
14605TIP3   OH243736   2.382   1.780   5.381  0.4056  0.0481  0.2344
14605TIP3    H143737   2.379   1.756   5.474 -1.3923 -0.3676  0.0882
14605TIP3    H243738   2.428   1.708   5.339 -0.3817 -0.6540  0.5582
14606TIP3   OH243739   3.122   0.394   1.390 -0.0367 -0.4029 -0.0008
14606TIP3    H143740   3.166   0.439   1.462 -1.4317 -0.2261  0.7487
14606TIP3    H243741   3.122   0.302   1.416 -1.7818 -0.1618  0.8913
14607TIP3   OH243742   7.312   8.149   5.013  0.3173  0.0836  0.5213
14607TIP3    H143743   7.297   8.103   4.930 -0.9659  0.7978  0.3421
14607TIP3    H243744   7.298   8.083   5.080  1.3254 -0.4910  0.1719
14608TIP3   OH243745   6.454   7.236   3.205  0.1945 -0.2049 -0.3751
14608TIP3    H143746   6.534   7.243   3.256  0.3082 -0.2373 -0.5495
14608TIP3    H243747   6.442   7.322   3.166 -1.1636  0.5390  1.5892
14609TIP3   OH243748   3.350   1.958   2.752  0.4567 -0.4776 -0.5916
14609TIP3    H143749   3.341   1.973   2.846  0.8074 -0.6180 -0.5343
14609TIP3    H243750   3.445   1.952   2.737  0.3881 -0.9219 -0.8780
14610TIP3   OH243751   3.969   0.289   2.688  0.3259 -0.4436 -0.2523
14610TIP3    H143752   3.990   0.322   2.601 -0.7489  1.7967  0.2853
14610TIP3    H243753   4.028   0.338   2.746 -1.9208  1.2750  0.6535
14611TIP3   OH243754   0.560   8.324   5.374 -0.0789  0.2548 -0.6132
14611TIP3    H143755   0.654   8.319   5.360  0.1432  1.2486  0.4023
14611TIP3    H243756   0.543   8.417   5.388 -1.1377  0.0184 -0.2649
14612TIP3   OH243757   7.697   0.403   4.998 -0.4358  0.2114 -0.0885
14612TIP3    H143758   7.684   0.496   4.978  2.0915  0.8000  0.8215
14612TIP3    H243759   7.772   0.378   4.945  0.9114 -0.4699  2.1088
14613TIP3   OH243760   1.557   2.042   4.780 -0.2292  0.5009  0.3350
14613TIP3    H143761   1.547   2.000   4.695 -0.0740  0.1406  0.4913
14613TIP3    H243762   1.550   1.970   4.843 -0.8356  0.8377  0.6523
14614TIP3   OH243763   4.841   7.665   2.157 -0.6874  0.0139  0.6365
14614TIP3    H143764   4.772   7.600   2.170 -1.1234  0.0888 -1.2111
14614TIP3    H243765   4.794   7.749   2.153 -0.6753 -0.0854 -2.1804
14615TIP3   OH243766   1.167   1.127   5.014  0.1222  0.2784  0.2159
14615TIP3    H143767   1.116   1.154   5.090  0.4034  1.7146 -0.0887
14615TIP3    H243768   1.102   1.103   4.948 -0.1203 -0.9280  0.8722
14616TIP3   OH243769   0.139   8.271   5.184 -0.6052 -0.0158 -0.4772
14616TIP3    H143770   0.097   8.333   5.124 -1.8297  0.2041  0.5803
14616TIP3    H243771   0.107   8.297   5.270  1.1795 -0.2878  0.2923
14617TIP3   OH243772   2.407   0.683   3.029 -0.0729 -0.4898  0.1823
14617TIP3    H143773   2.483   0.670   2.973 -0.8580  0.2044 -1.0796
14617TIP3    H243774   2.423   0.627   3.105  1.1096 -1.2899 -0.6347
14618TIP3   OH243775   2.865   2.147   3.628 -0.1211  0.1843 -0.4498
14618TIP3    H143776   2.905   2.174   3.545 -0.6814  0.7620 -0.5321
14618TIP3    H243777   2.771   2.147   3.611 -0.3898  2.4469  0.7927
14619TIP3   OH243778   8.575   8.128   2.718 -0.4141  0.5547 -0.3029
14619TIP3    H143779   8.610   8.083   2.641 -1.4447 -0.2305 -0.3345
14619TIP3    H243780   8.652   8.168   2.760  0.2252  0.5260 -1.4317
14620TIP3   OH243781   1.572   1.244   2.569 -0.1567 -0.2042  0.1005
14620TIP3    H143782   1.544   1.329   2.535 -1.9808 -0.3070  1.2949
14620TIP3    H243783   1.661   1.260   2.601 -0.8654  1.5265  1.2621
14621TIP3   OH243784   4.175   2.052   4.941 -0.5639 -0.8265 -0.6511
14621TIP3    H143785   4.259   2.026   4.904  0.7421 -1.0434  2.3774
14621TIP3    H243786   4.127   1.971   4.952 -0.3650 -0.9120 -0.4278
14622TIP3   OH243787   1.942   1.994   4.314  0.1520  0.2756  0.5674
14622TIP3    H143788   1.928   2.028   4.403 -1.4795  4.1213 -1.0624
14622TIP3    H243789   1.862   1.945   4.295 -0.1275  0.6589  0.7284
14623TIP3   OH243790   0.930   0.693   2.063  0.2897  0.1029 -0.2210
14623TIP3    H143791   0.907   0.632   1.993  0.7681  1.2460 -1.3921
14623TIP3    H243792   0.872   0.669   2.135  0.7309 -1.9740 -0.5150
14624TIP3   OH243793   7.215   7.701   5.157 -0.3766  0.1736 -0.7105
14624TIP3    H143794   7.304   7.666   5.149  0.4905  1.9516  0.6826
14624TIP3    H243795   7.158   7.632   5.123  1.3472 -2.0795  0.8779
14625TIP3   OH243796   8.150   1.457   5.420 -0.5626  0.0738 -0.2762
14625TIP3    H143797   8.205   1.439   5.496 -2.0026  0.0900  0.8070
14625TIP3    H243798   8.208   1.498   5.356  1.2337 -2.1973 -0.1559
14626TIP3   OH243799   2.799   0.037   5.258 -0.3966  0.3270 -0.3269
14626TIP3    H143800   2.747   0.113   5.284 -0.4527 -0.1713  1.1159
14626TIP3    H243801   2.819   0.051   5.166 -2.5538  0.8506 -0.7565
14627TIP3   OH243802   1.161   0.634   2.671 -0.3630 -0.0352  0.1415
14627TIP3    H143803   1.075   0.665   2.698 -0.3540 -0.3878  0.5763
14627TIP3    H243804   1.216   0.713   2.671 -1.3946  0.7666 -3.1063
14628TIP3   OH243805   2.103   0.388   4.410 -0.0589  0.3210  0.8806
14628TIP3    H143806   2.152   0.393   4.493 -0.6184  0.5832  1.1998
14628TIP3    H243807   2.090   0.480   4.385 -0.7433  0.2611  1.0109
14629TIP3   OH243808   0.794   0.311   5.021 -0.5269  0.1261 -0.1185
14629TIP3    H143809   0.868   0.316   5.081 -1.6572  1.7167  1.1815
14629TIP3    H243810   0.736   0.245   5.058 -0.6404  0.2344 -0.0981
14630TIP3   OH243811   6.861   7.551   4.299 -0.2484  0.0451 -0.3103
14630TIP3    H143812   6.845   7.615   4.369  1.0359  0.0160  0.0180
14630TIP3    H243813   6.931   7.495   4.333 -0.6947 -0.9429 -0.9889
14631TIP3   OH243814   1.037   0.570   5.834  0.2561  0.0326  0.0769
14631TIP3    H143815   1.097   0.586   5.761  1.7647 -0.7170  1.1133
14631TIP3    H243816   0.951   0.594   5.801  0.9536 -0.0963 -1.8753
14632TIP3   OH243817   1.098   0.025   4.359 -0.8310 -0.3526  0.5862
14632TIP3    H143818   1.164   0.089   4.330 -0.5444 -0.8648  0.1161
14632TIP3    H243819   1.059   0.066   4.437  0.6415 -0.4324  1.3803
14633TIP3   OH243820   8.628   1.980   3.856  0.0396  0.4449 -0.0440
14633TIP3    H143821   8.591   2.000   3.942 -0.4375 -0.6476  0.0164
14633TIP3    H243822   8.635   1.884   3.854  2.0739  0.5726 -0.3939
14634TIP3   OH243823   8.843   0.163   4.309 -0.0580 -0.1072 -0.3790
14634TIP3    H143824   8.761   0.115   4.304 -0.2499  0.2153 -0.3416
14634TIP3    H243825   8.873   0.170   4.219  0.6988 -1.5539 -0.2451
14635TIP3   OH243826   2.269   1.025   4.288  0.3448  0.1613 -0.0115
14635TIP3    H143827   2.253   1.097   4.226  0.2499 -0.3569 -0.5984
14635TIP3    H243828   2.209   1.041   4.360 -0.4368  0.0839 -0.6384
14636TIP3   OH243829   6.288   7.007   3.613 -0.6812 -0.4883 -0.6197
14636TIP3    H143830   6.265   7.077   3.552 -0.3537  0.9345  0.8422
14636TIP3    H243831   6.317   7.053   3.692 -2.4319 -2.2670  1.1254
14637TIP3   OH243832   3.151   0.104   3.504 -0.2814 -0.5871 -0.0375
14637TIP3    H143833   3.207   0.165   3.552 -0.7277 -1.0210  1.0596
14637TIP3    H243834   3.191   0.019   3.518  0.5273 -0.5241 -1.8402
14638TIP3   OH243835   8.556   0.553   3.689  0.5965 -0.0507 -0.0155
14638TIP3    H143836   8.591   0.473   3.728  0.0053  0.4512  1.5757
14638TIP3    H243837   8.540   0.611   3.764 -3.1557 -0.0828 -0.7110
14639TIP3   OH243838   8.518   1.346   4.347 -0.1788 -0.0109 -0.6133
14639TIP3    H143839   8.611   1.324   4.335  0.3406  1.3965  0.6789
14639TIP3    H243840   8.514   1.440   4.334 -1.2076  0.1328  0.7258
14640TIP3   OH243841   7.272   7.451   3.926  0.4388 -0.5087  0.0411
14640TIP3    H143842   7.270   7.417   3.837  1.6671  0.1991 -0.2772
14640TIP3    H243843   7.279   7.373   3.982  0.4297 -0.9150 -0.5256
14641TIP3   OH243844   7.805   5.067   6.479  0.1143  0.4884  0.1906
14641TIP3    H143845   7.741   5.070   6.551  1.3094 -0.3968  1.2987
14641TIP3    H243846   7.808   4.975   6.454 -1.1107  0.9524 -1.7633
14642TIP3   OH243847   8.544   1.175   3.247 -0.1247  0.3244 -0.2413
14642TIP3    H143848   8.524   1.266   3.272  0.8574  0.3647  0.4147
14642TIP3    H243849   8.537   1.126   3.329  2.0690  0.2741 -0.0681
14643TIP3   OH243850   5.320   7.847   6.890 -0.0343  0.3565 -0.2659
14643TIP3    H143851   5.249   7.879   6.835  1.2613  0.8545 -1.6961
14643TIP3    H243852   5.381   7.806   6.829  0.8868 -0.0868  0.9345
14644TIP3   OH243853   0.356   0.139   5.274 -0.3476 -0.3822  0.8654
14644TIP3    H143854   0.338   0.045   5.272  1.0189 -0.6618  1.4723
14644TIP3    H243855   0.360   0.161   5.367  1.2709 -0.0977  0.7270
14645TIP3   OH243856   6.836   8.217   3.713  0.5759  0.1296  0.4673
14645TIP3    H143857   6.895   8.272   3.763  1.1355 -0.3911  0.3827
14645TIP3    H243858   6.874   8.129   3.717 -0.7940 -0.4381  1.3592
14646TIP3   OH243859   2.077   0.684   6.218  0.1291 -0.0628  0.2513
14646TIP3    H143860   2.107   0.624   6.287 -3.7799  0.5490  2.6010
14646TIP3    H243861   2.137   0.758   6.223  0.5214 -0.4902  2.3470
14647TIP3   OH243862   2.306   0.178   4.094 -0.1402 -1.0561  0.0880
14647TIP3    H143863   2.366   0.215   4.029 -1.1833  2.2155  0.8986
14647TIP3    H243864   2.242   0.129   4.042  1.5494 -2.2202 -0.9803
14648TIP3   OH243865   3.874   2.274   5.163  0.2227 -0.4555 -0.5255
14648TIP3    H143866   3.795   2.325   5.143 -1.4320 -2.8025 -0.1515
14648TIP3    H243867   3.899   2.302   5.251 -0.0199  0.5259 -0.7635
14649TIP3   OH243868   7.169   0.934   3.740 -0.3220 -0.5182  0.0504
14649TIP3    H143869   7.201   0.849   3.768 -0.1260 -0.9606 -1.4995
14649TIP3    H243870   7.247   0.990   3.739 -0.1689 -0.7519 -0.5834
14650TIP3   OH243871   8.503   0.944   4.456 -0.0519  0.4928 -0.7902
14650TIP3    H143872   8.519   0.943   4.361  2.0659 -3.5690 -0.5026
14650TIP3    H243873   8.590   0.936   4.494 -1.0899 -0.4777  1.4422
14651TIP3   OH243874   4.948   7.970   5.624  0.6698 -0.6622 -0.2327
14651TIP3    H143875   5.030   7.926   5.645  1.4715  1.7095  1.9192
14651TIP3    H243876   4.964   8.014   5.541  2.4451  1.6752  1.2746
14652TIP3   OH243877   1.851   0.913   6.928 -0.3700  0.2612  0.5276
14652TIP3    H143878   1.791   0.966   6.980 -0.4627  0.0393  0.6469
14652TIP3    H243879   1.864   0.964   6.848 -0.6982  0.3200  0.5106
14653TIP3   OH243880   3.485   1.045   2.476  0.7122  0.2757 -0.1416
14653TIP3    H143881   3.475   1.071   2.568  0.1367 -0.5844  0.0568
14653TIP3    H243882   3.433   1.108   2.427  0.4587  0.3265  0.1906
14654TIP3   OH243883   8.224   7.185   5.082 -0.2358 -0.1559  0.1198
14654TIP3    H143884   8.247   7.103   5.038 -0.6151  0.7361 -1.7881
14654TIP3    H243885   8.309   7.222   5.109  0.0070 -0.6385  0.0330
14655TIP3   OH243886   1.793   0.260   5.392  0.2334  0.2593  0.0077
14655TIP3    H143887   1.846   0.301   5.461 -1.5601  1.0640  0.9433
14655TIP3    H243888   1.821   0.304   5.312  2.6531 -0.9930  0.1261
14656TIP3   OH243889   5.700   7.624   4.929 -0.0447 -0.0694 -0.3676
14656TIP3    H143890   5.750   7.584   4.857 -0.2600  0.1953 -0.6659
14656TIP3    H243891   5.663   7.549   4.977  0.2639 -0.2538 -0.4126
14657TIP3   OH243892   7.213   7.093   3.469  0.3933  0.0030  0.0321
14657TIP3    H143893   7.299   7.102   3.510  0.0963  0.5004  0.5451
14657TIP3    H243894   7.164   7.036   3.528  0.6481 -0.9559 -0.6888
14658TIP3   OH243895   0.319   2.032   6.364  0.4455  0.1814  0.5076
14658TIP3    H143896   0.248   1.969   6.369  0.2876  0.2399 -0.7454
14658TIP3    H243897   0.276   2.117   6.362  0.5302  0.2102 -0.4291
14659TIP3   OH243898   1.941   1.821   3.147 -0.5279 -0.0982  0.1165
14659TIP3    H143899   1.849   1.848   3.154 -0.3021  1.4027 -2.1922
14659TIP3    H243900   1.989   1.886   3.199 -0.4525  1.2434 -1.5849
14660TIP3   OH243901   1.256   5.773   5.447 -0.3053  0.1177 -0.1232
14660TIP3    H143902   1.335   5.826   5.450  1.4879 -2.5044  0.0558
14660TIP3    H243903   1.278   5.693   5.494 -2.7374 -1.0684 -0.9040
14661TIP3   OH243904   8.085   8.189   2.751  0.9912  0.8407  0.8145
14661TIP3    H143905   8.180   8.198   2.741  0.9691  1.5383  1.2037
14661TIP3    H243906   8.054   8.158   2.666  1.6228  0.1485  0.8279
14662TIP3   OH243907   6.098   8.338   5.955  0.2888 -0.3417 -0.5480
14662TIP3    H143908   6.047   8.322   5.875 -0.1398 -3.4572  0.3021
14662TIP3    H243909   6.039   8.313   6.026  1.3023  0.7240  0.6714
14663TIP3   OH243910   4.286   7.284   5.933 -0.2184  0.1089  0.4107
14663TIP3    H143911   4.344   7.310   5.861 -0.6412  0.3142  0.1366
14663TIP3    H243912   4.202   7.266   5.890 -0.4919  0.2942  0.8619
14664TIP3   OH243913   7.125   8.353   3.308 -0.5321 -0.1942  0.3313
14664TIP3    H143914   7.066   8.316   3.373  1.8627 -2.5818  1.2498
14664TIP3    H243915   7.149   8.279   3.252  0.0956  1.1216 -1.1867
14665TIP3   OH243916   2.629   0.436   5.100 -0.0268 -0.5900  0.1903
14665TIP3    H143917   2.704   0.411   5.155 -0.1076 -1.1097  0.0715
14665TIP3    H243918   2.611   0.527   5.123  0.6769 -0.4440  0.1809
14666TIP3   OH243919   0.069   8.087   4.307 -0.3211  1.0192 -0.1013
14666TIP3    H143920   0.009   8.161   4.302 -0.1089  1.3355  1.7261
14666TIP3    H243921   0.012   8.011   4.320 -0.4443  1.0617 -0.3934
14667TIP3   OH243922   0.928   1.591   4.215 -0.0929 -0.8478  0.2580
14667TIP3    H143923   0.884   1.535   4.151  0.0203 -0.4218 -0.1960
14667TIP3    H243924   0.869   1.593   4.290 -0.4531 -0.9570 -0.0237
14668TIP3   OH243925   6.586   7.457   3.759  0.2590 -0.3328  0.2125
14668TIP3    H143926   6.551   7.506   3.834 -1.1202 -0.5940 -0.2441
14668TIP3    H243927   6.675   7.433   3.785  0.7857  1.9406  0.6734
14669TIP3   OH243928   4.882   7.185   4.900 -0.1910  0.6626  0.0763
14669TIP3    H143929   4.967   7.229   4.903 -0.1518  0.5167  1.3972
14669TIP3    H243930   4.901   7.094   4.921 -0.7034  0.6716  0.5960
14670TIP3   OH243931   2.307   6.591   7.097 -0.1732  0.5397  0.0836
14670TIP3    H143932   2.336   6.680   7.117  0.8683  0.3537 -0.5667
14670TIP3    H243933   2.348   6.537   7.164  1.0632  0.2680 -0.8743
14671TIP3   OH243934   3.906   8.028   4.365 -0.0437 -0.2634 -0.2395
14671TIP3    H143935   3.952   7.992   4.288  1.0870  0.4707  0.0899
14671TIP3    H243936   3.859   7.953   4.401  2.4579 -1.5214  0.5514
14672TIP3   OH243937   8.805   6.396   0.850 -0.3457 -0.3670  0.5030
14672TIP3    H143938   8.735   6.378   0.786 -1.0187  0.2321  1.0614
14672TIP3    H243939   8.801   6.491   0.862  0.7461 -0.2972  0.3452
14673TIP3   OH243940   7.491   6.576   1.619  0.1629  0.5459  0.3413
14673TIP3    H143941   7.443   6.650   1.655  1.1919  1.7269 -0.6184
14673TIP3    H243942   7.564   6.617   1.570  1.4676 -1.1343  0.8334
14674TIP3   OH243943   7.569   6.468   1.200  0.1555  0.5497  0.0533
14674TIP3    H143944   7.560   6.379   1.165  2.2384 -0.4522  1.8620
14674TIP3    H243945   7.489   6.513   1.174 -0.7412 -1.7316 -1.2940
14675TIP3   OH243946   3.895   1.074   6.758  0.4020  0.1259 -0.0792
14675TIP3    H143947   3.813   1.087   6.805  0.1609  1.1863 -0.7561
14675TIP3    H243948   3.910   0.980   6.760 -2.6211 -0.5086 -2.9044
14676TIP3   OH243949   8.647   5.586   3.272  0.5703  0.5565 -0.0909
14676TIP3    H143950   8.739   5.609   3.257  1.5172 -1.2234  2.5628
14676TIP3    H243951   8.609   5.664   3.312  1.7725  0.1946  1.7844
14677TIP3   OH243952   8.508   5.575   0.661  0.1859 -0.6528  0.2201
14677TIP3    H143953   8.421   5.612   0.676 -0.2429 -0.8531 -1.6072
14677TIP3    H243954   8.566   5.652   0.653  0.0041 -0.4906  0.4634
14678TIP3   OH243955   0.299   7.396   0.321  0.2669  0.0607 -0.1833
14678TIP3    H143956   0.207   7.393   0.347  0.2324  2.3869  0.0034
14678TIP3    H243957   0.319   7.489   0.313  2.5659 -0.4286 -0.3880
14679TIP3   OH243958   8.344   5.387   2.407  0.1049 -0.2458  0.6454
14679TIP3    H143959   8.295   5.364   2.328  0.0116  1.3171  0.2347
14679TIP3    H243960   8.436   5.376   2.381  0.2005  2.9236 -0.5952
14680TIP3   OH243961   4.232   3.912   1.281 -0.1319  0.2600 -0.8878
14680TIP3    H143962   4.308   3.907   1.222  1.0729 -2.1201  0.8199
14680TIP3    H243963   4.255   3.981   1.343 -0.0584  0.6277 -1.3198
14681TIP3   OH243964   7.610   4.474   1.172 -0.0705 -0.5046  0.2433
14681TIP3    H143965   7.681   4.528   1.136 -1.2804  0.4779 -0.7412
14681TIP3    H243966   7.540   4.536   1.191 -1.6124 -1.7265 -1.1925
14682TIP3   OH243967   7.399   5.108   1.888  0.0061  0.2115  0.4176
14682TIP3    H143968   7.382   5.165   1.963 -0.6899  0.3694  0.1407
14682TIP3    H243969   7.313   5.093   1.849  0.3508  0.0403 -0.2845
14683TIP3   OH243970   5.064   2.994   2.123 -0.0143  0.2655  0.7187
14683TIP3    H143971   5.121   2.959   2.192  0.8387  1.2253  0.4936
14683TIP3    H243972   5.120   3.001   2.046 -1.7318 -4.0242 -1.1057
14684TIP3   OH243973   8.066   5.667   1.313 -0.0594  0.1990 -0.0036
14684TIP3    H143974   7.991   5.669   1.253  0.0220  1.4273 -0.0733
14684TIP3    H243975   8.028   5.644   1.398 -0.1307 -1.8316 -0.5791
14685TIP3   OH243976   6.452   4.647   3.233 -0.3395 -0.0979 -0.3529
14685TIP3    H143977   6.370   4.598   3.220 -0.6006 -0.0191  0.8990
14685TIP3    H243978   6.506   4.590   3.287 -0.7563  1.0822  1.3566
14686TIP3   OH243979   7.724   5.099   1.597 -0.3377  0.2638  0.0745
14686TIP3    H143980   7.735   5.118   1.504  0.9665 -0.2809  0.1045
14686TIP3    H243981   7.652   5.155   1.625 -1.7631 -0.6559 -1.5986
14687TIP3   OH243982   3.754   0.835   6.122  0.0493 -0.0377 -0.3306
14687TIP3    H143983   3.717   0.748   6.139  0.4630 -0.4604 -1.5147
14687TIP3    H243984   3.679   0.894   6.129 -0.1300 -0.4008  1.0781
14688TIP3   OH243985   8.696   2.959   1.031 -0.0102 -0.2800  0.8600
14688TIP3    H143986   8.625   2.918   0.982  1.6090  0.0547 -1.8728
14688TIP3    H243987   8.718   3.036   0.979  0.5090  1.1415  3.1522
14689TIP3   OH243988   8.009   6.512   2.645  0.3622 -0.1206 -0.3270
14689TIP3    H143989   7.938   6.549   2.592  0.6931 -1.4473 -1.7255
14689TIP3    H243990   8.088   6.556   2.614  0.6762 -1.5482 -1.5797
14690TIP3   OH243991   1.803   1.841   6.125  0.4457 -0.0502  0.1986
14690TIP3    H143992   1.732   1.799   6.077 -1.7755 -0.3573  3.5128
14690TIP3    H243993   1.864   1.771   6.145 -1.3470 -1.0774  2.3951
14691TIP3   OH243994   7.391   5.215   1.351 -0.1628 -0.8824  0.0696
14691TIP3    H143995   7.390   5.197   1.257 -0.9633  0.1026 -0.1161
14691TIP3    H243996   7.397   5.311   1.357  0.4404 -0.9759  1.0252
14692TIP3   OH243997   0.612   6.441   4.890  0.5228  0.6961  0.5068
14692TIP3    H143998   0.586   6.477   4.975  1.2401 -1.7275  1.8258
14692TIP3    H243999   0.707   6.437   4.894  0.4802 -1.3210  0.4743
14693TIP3   OH244000   8.756   4.823   1.715 -0.2656 -0.9071  0.3460
14693TIP3    H144001   8.700   4.782   1.649  0.2338 -1.5480  0.3185
14693TIP3    H244002   8.825   4.866   1.664  0.6862 -2.2496  0.4894
14694TIP3   OH244003   0.663   6.265   1.786  0.1259 -0.0825  0.1348
14694TIP3    H144004   0.676   6.247   1.879  1.0157  2.0718  0.4662
14694TIP3    H244005   0.748   6.300   1.757 -0.8030  1.2898 -0.9585
14695TIP3   OH244006   7.384   5.160   1.090  0.0992  0.1183 -0.6797
14695TIP3    H144007   7.309   5.204   1.051 -0.1994 -0.0629 -0.3100
14695TIP3    H244008   7.460   5.204   1.052 -0.1931  0.2454 -1.1180
14696TIP3   OH244009   5.744   2.324   6.866 -0.0265 -0.4038 -0.1325
14696TIP3    H144010   5.812   2.389   6.884 -0.0468  0.2317 -2.2071
14696TIP3    H244011   5.788   2.258   6.812 -0.9878 -0.1261 -1.2682
14697TIP3   OH244012   7.235   5.641   3.948  0.2543  0.2164  0.2234
14697TIP3    H144013   7.234   5.571   3.883  1.2068  0.5313 -0.1542
14697TIP3    H244014   7.307   5.698   3.919 -1.4805  2.1798 -0.3574
14698TIP3   OH244015   6.854   2.397   6.752  0.6891 -0.0982 -0.2089
14698TIP3    H144016   6.778   2.341   6.771  0.5362  0.0614 -0.3517
14698TIP3    H244017   6.819   2.468   6.699  1.0558 -0.3616 -0.8070
14699TIP3   OH244018   6.998   3.831   1.566  0.5080  0.3319  0.0224
14699TIP3    H144019   7.020   3.807   1.476  2.0423  1.4239  0.0929
14699TIP3    H244020   7.030   3.757   1.618  1.3122  0.5476 -0.1601
14700TIP3   OH244021   1.789   7.746   0.647 -0.2525  0.1960  0.0392
14700TIP3    H144022   1.843   7.683   0.694 -0.3289 -0.5216 -0.8198
14700TIP3    H244023   1.808   7.830   0.688  0.8029 -0.1970  0.3590
14701TIP3   OH244024   1.069   7.701   1.674  0.5899 -0.2235  0.0951
14701TIP3    H144025   1.055   7.645   1.750  0.4077  1.5157  1.3853
14701TIP3    H244026   1.133   7.654   1.621  1.0526 -1.2710  1.5371
14702TIP3   OH244027   7.628   5.799   3.187 -0.4841  0.0934 -0.0676
14702TIP3    H144028   7.653   5.804   3.095  0.2430 -2.6394 -0.0563
14702TIP3    H244029   7.665   5.716   3.218 -2.0319  0.2243  2.2801
14703TIP3   OH244030   7.198   6.276   2.070  1.1404  0.4847 -0.0803
14703TIP3    H144031   7.249   6.327   2.133 -0.5872  1.4048  0.6090
14703TIP3    H244032   7.199   6.187   2.104 -0.5575  1.1518  1.7811
14704TIP3   OH244033   0.146   6.092   0.660 -0.0815 -0.1617  0.0268
14704TIP3    H144034   0.125   6.016   0.714  1.8974  0.3466  1.6040
14704TIP3    H244035   0.162   6.163   0.723 -0.4115  1.1639 -1.3432
14705TIP3   OH244036   0.270   5.502   0.929  0.2961 -0.4089  0.2777
14705TIP3    H144037   0.267   5.408   0.907 -2.0345 -0.0151 -1.2165
14705TIP3    H244038   0.355   5.531   0.894  0.5160 -1.7124 -0.3238
14706TIP3   OH244039   8.528   7.098   1.194 -0.2232 -0.7783 -0.5136
14706TIP3    H144040   8.555   7.098   1.102  0.1263 -0.5166 -0.4116
14706TIP3    H244041   8.562   7.180   1.230 -0.0431 -1.0498 -0.0576
14707TIP3   OH244042   0.533   6.058   3.503 -0.2813 -0.6737  0.7952
14707TIP3    H144043   0.475   6.132   3.488 -1.7112 -1.8673  0.3504
14707TIP3    H244044   0.561   6.067   3.594  0.7935  1.2607  0.2981
14708TIP3   OH244045   0.510   7.713   0.067  0.9083 -0.3351  0.2232
14708TIP3    H144046   0.488   7.622   0.086  1.0872 -1.1199 -3.0388
14708TIP3    H244047   0.587   7.707   0.010  0.7606  1.8560 -0.2323
14709TIP3   OH244048   8.394   6.411   2.955  0.3437  0.3309 -0.1463
14709TIP3    H144049   8.329   6.413   3.025  2.4799  0.9291  1.8750
14709TIP3    H244050   8.365   6.478   2.893 -0.7979  0.7832  0.8561
14710TIP3   OH244051   0.856   4.556   1.923 -0.1406 -0.0513  0.1487
14710TIP3    H144052   0.916   4.552   1.998  0.9755  0.2464 -0.7193
14710TIP3    H244053   0.787   4.616   1.951  0.8648  0.9489  0.5280
14711TIP3   OH244054   6.621   2.914   7.075  0.1338 -0.2101  0.5218
14711TIP3    H144055   6.612   2.978   7.146 -0.3785 -0.8031  0.9945
14711TIP3    H244056   6.695   2.859   7.103 -0.3583 -0.7245  0.8130
14712TIP3   OH244057   8.663   5.334   3.166  0.6594 -0.1462  0.0705
14712TIP3    H144058   8.671   5.428   3.182 -0.9040 -0.3423  2.1712
14712TIP3    H244059   8.620   5.328   3.081  2.3326  1.0036 -0.8868
14713TIP3   OH244060   1.414   7.758   1.030  0.3384  0.2756 -0.0709
14713TIP3    H144061   1.370   7.677   1.054  0.3872  0.3431  0.2537
14713TIP3    H244062   1.476   7.773   1.102  0.6301  0.3707 -0.3452
14714TIP3   OH244063   8.673   4.886   2.213 -0.0177  0.4794 -0.1972
14714TIP3    H144064   8.667   4.925   2.301  1.4120  0.3983 -0.0438
14714TIP3    H244065   8.644   4.796   2.224 -0.2141  0.5794  0.1095
14715TIP3   OH244066   7.318   4.731   0.453  0.5325 -0.5692 -0.2851
14715TIP3    H144067   7.282   4.658   0.504 -0.8095  0.5753  0.4436
14715TIP3    H244068   7.411   4.711   0.444  0.5074 -1.4885  1.4229
14716TIP3   OH244069   2.080   7.022   0.864 -0.3063  0.0091  0.1934
14716TIP3    H144070   2.038   7.067   0.791 -1.0399 -0.3469  0.3916
14716TIP3    H244071   2.101   6.935   0.830  0.4872  0.2676  0.0224
14717TIP3   OH244072   1.169   0.228   3.364  0.2663 -0.0437  0.2396
14717TIP3    H144073   1.082   0.231   3.405  0.6155 -2.3919  1.2288
14717TIP3    H244074   1.186   0.135   3.351  2.5242  0.4093 -0.2030
14718TIP3   OH244075   0.954   3.593   0.419  0.2880  0.0108 -0.3136
14718TIP3    H144076   1.023   3.548   0.370  1.0811  0.1397  0.6828
14718TIP3    H244077   0.907   3.644   0.352  0.7691 -0.5476 -1.0866
14719TIP3   OH244078   5.060   0.843   6.449 -0.8026  0.0801 -0.0590
14719TIP3    H144079   5.090   0.918   6.398  2.3323 -2.0535 -1.5376
14719TIP3    H244080   5.098   0.855   6.536 -0.8918  0.5506 -0.0874
14720TIP3   OH244081   1.325   7.687   2.840 -0.0181  0.2558  0.2006
14720TIP3    H144082   1.261   7.636   2.790 -0.2311  0.5689  0.1508
14720TIP3    H244083   1.272   7.744   2.895  0.1776 -1.2625  2.0474
14721TIP3   OH244084   0.057   4.698   1.437 -0.5712 -0.2000  0.0846
14721TIP3    H144085  -0.022   4.672   1.484 -1.0465 -2.4202 -1.8447
14721TIP3    H244086   0.051   4.652   1.353  1.8581  1.0672 -0.8203
14722TIP3   OH244087   8.581   4.670   0.759  0.1345  0.0128 -0.5702
14722TIP3    H144088   8.670   4.705   0.765  0.3901 -0.6086 -0.7346
14722TIP3    H244089   8.572   4.613   0.835 -0.5942  1.1311  0.1906
14723TIP3   OH244090   7.968   4.106   0.732  0.4488  0.4512 -0.1638
14723TIP3    H144091   7.881   4.105   0.692  0.4956  0.6763 -0.2736
14723TIP3    H244092   7.956   4.155   0.813  0.1694 -0.7317  0.5252
14724TIP3   OH244093   6.486   1.930   5.676  0.1530 -0.1119 -0.0458
14724TIP3    H144094   6.441   1.893   5.752 -0.6432 -0.3626 -0.6246
14724TIP3    H244095   6.559   1.980   5.712 -0.3470 -0.0590  0.8933
14725TIP3   OH244096   0.349   6.959   1.366  0.1095 -0.7767  0.0215
14725TIP3    H144097   0.340   6.915   1.281 -0.6786  0.9306 -0.7999
14725TIP3    H244098   0.443   6.977   1.373 -0.1467  1.4474 -1.7400
14726TIP3   OH244099   6.607   3.899   2.576  0.2029  0.3588  0.0168
14726TIP3    H144100   6.682   3.929   2.626  0.5242 -1.3823  0.6105
14726TIP3    H244101   6.576   3.821   2.622 -2.1864  1.2353 -0.0104
14727TIP3   OH244102   7.124   1.829   1.605 -0.5292  0.6989  0.5385
14727TIP3    H144103   7.079   1.831   1.689  0.0432  1.2642  0.8377
14727TIP3    H244104   7.078   1.893   1.551 -1.8806 -0.7637 -0.1076
14728TIP3   OH244105   0.180   7.521   0.663 -0.6643  0.3825 -0.2945
14728TIP3    H144106   0.128   7.469   0.602  2.9566 -2.1368 -1.3386
14728TIP3    H244107   0.208   7.597   0.612  1.0079 -0.8998 -1.2961
14729TIP3   OH244108   0.879   5.979   2.977 -0.5622  0.6232 -0.6802
14729TIP3    H144109   0.909   5.896   2.941 -0.5030  1.1573 -1.8610
14729TIP3    H244110   0.936   6.044   2.937  1.6434  0.9532  2.7829
14730TIP3   OH244111   0.173   5.469   2.015  0.1941 -0.1278  0.0495
14730TIP3    H144112   0.142   5.530   2.082  1.6430 -0.7271  1.2943
14730TIP3    H244113   0.095   5.449   1.963 -0.8954  0.5611  1.3813
14731TIP3   OH244114   0.042   6.071   1.012  0.4528 -0.6107 -0.2755
14731TIP3    H144115   0.043   6.062   1.107 -0.3627 -2.2620 -0.4080
14731TIP3    H244116   0.075   6.160   0.996 -0.2096 -0.0036  1.5756
14732TIP3   OH244117   0.678   5.090   2.476 -0.2611  0.3282 -0.1090
14732TIP3    H144118   0.671   5.034   2.399  0.2910 -0.7345  0.5977
14732TIP3    H244119   0.661   5.179   2.444 -1.0908 -0.2449 -1.2409
14733TIP3   OH244120   0.788   6.980   1.597 -0.1864  0.1223  0.3415
14733TIP3    H144121   0.748   7.067   1.588 -0.7117 -0.4573 -4.3087
14733TIP3    H244122   0.882   6.996   1.589 -0.1764  0.4078  1.0050
14734TIP3   OH244123   0.126   5.693   1.755  0.2540 -0.3676  0.4977
14734TIP3    H144124   0.188   5.690   1.683  0.8567 -1.0123  1.0326
14734TIP3    H244125   0.113   5.601   1.780 -0.1456 -0.1725  1.0347
14735TIP3   OH244126   7.743   3.291   1.845 -0.1131  0.0270 -0.0445
14735TIP3    H144127   7.806   3.308   1.915 -0.5178 -0.3943  0.4346
14735TIP3    H244128   7.714   3.378   1.817  1.0818  0.2333 -0.6445
14736TIP3   OH244129   8.807   5.768   1.567  0.1747 -0.4151 -0.0760
14736TIP3    H144130   8.875   5.836   1.567  1.1614 -1.3767  0.7412
14736TIP3    H244131   8.816   5.725   1.652 -0.4899 -1.5110 -0.5420
14737TIP3   OH244132   0.471   4.934   2.660  0.6011 -0.8367  0.0932
14737TIP3    H144133   0.556   4.957   2.620  1.0354  0.4574  1.6734
14737TIP3    H244134   0.484   4.950   2.754 -1.2860 -0.9861  0.3998
14738TIP3   OH244135   0.385   6.947   1.809 -0.0859  0.5218  0.4806
14738TIP3    H144136   0.400   6.868   1.758  0.3773  1.4850 -0.8812
14738TIP3    H244137   0.312   6.991   1.764 -0.6881  0.6178  1.5315
14739TIP3   OH244138   8.566   6.941   3.024  0.2637  0.2467 -0.1178
14739TIP3    H144139   8.654   6.977   3.019 -0.0211  0.7145 -2.4828
14739TIP3    H244140   8.564   6.872   2.957 -0.2342 -1.8904  2.0474
14740TIP3   OH244141   8.183   5.007   1.868  0.1296 -0.1532 -0.3538
14740TIP3    H144142   8.233   4.985   1.790  1.0027 -0.2035  0.2041
14740TIP3    H244143   8.229   4.962   1.939 -2.3165 -2.4948 -0.1788
14741TIP3   OH244144   7.831   7.050   3.112  0.2012  0.4762  0.3664
14741TIP3    H144145   7.914   7.069   3.068  0.5989 -0.3105  0.7458
14741TIP3    H244146   7.774   7.017   3.043  0.0589  1.4355  0.0229
14742TIP3   OH244147   7.713   3.989   2.858  0.3758 -0.5669 -0.6072
14742TIP3    H144148   7.805   4.000   2.834  0.3059  3.5292  0.6450
14742TIP3    H244149   7.716   3.958   2.949  0.5187 -0.1569 -0.4712
14743TIP3   OH244150   6.288   4.293   6.618  0.1248  0.1761 -0.3711
14743TIP3    H144151   6.316   4.329   6.534  1.0375 -0.9483 -0.5603
14743TIP3    H244152   6.296   4.198   6.607  1.0949  0.0493  1.2804
14744TIP3   OH244153   0.054   7.481   2.793 -0.2077  0.0745 -0.0504
14744TIP3    H144154   0.131   7.433   2.760  0.9591  1.2039  0.9759
14744TIP3    H244155   0.072   7.572   2.772 -1.2222  0.3579  0.3045
14745TIP3   OH244156   0.227   7.082   2.280  0.3215  0.3015  0.1881
14745TIP3    H144157   0.171   7.146   2.324 -1.7543 -1.6597  0.4852
14745TIP3    H244158   0.222   7.106   2.188  0.2550  1.0903  0.3878
14746TIP3   OH244159   8.197   6.485   1.652 -0.0116 -0.6576  0.2683
14746TIP3    H144160   8.109   6.522   1.647  0.1443 -0.2873  0.1964
14746TIP3    H244161   8.240   6.515   1.571 -0.2682 -2.0201 -0.3795
14747TIP3   OH244162   0.743   3.155   1.440 -0.3009 -0.2709  0.3281
14747TIP3    H144163   0.698   3.237   1.419 -0.1238 -0.2398  0.0701
14747TIP3    H244164   0.823   3.157   1.387 -0.3645 -0.6788  0.2126
14748TIP3   OH244165   8.583   7.575   2.752 -0.2990 -1.2114 -0.4961
14748TIP3    H144166   8.634   7.518   2.810 -0.0321 -0.3742  0.1070
14748TIP3    H244167   8.642   7.594   2.679  0.4426  0.1023  0.4110
14749TIP3   OH244168   0.670   2.129   0.495 -0.2075  0.1888  0.0666
14749TIP3    H144169   0.640   2.162   0.579 -0.0114  0.4378  0.0405
14749TIP3    H244170   0.735   2.193   0.466  1.2456 -0.9580  0.6956
14750TIP3   OH244171   8.430   4.956   0.899  0.2021  0.1355 -0.3499
14750TIP3    H144172   8.381   4.943   0.817  0.2823  0.2508 -0.4173
14750TIP3    H244173   8.446   4.868   0.932 -2.4373  0.1282  1.0948
14751TIP3   OH244174   7.721   5.160   2.713 -0.1891 -0.8224 -0.2659
14751TIP3    H144175   7.700   5.200   2.797  0.0022  0.7428 -0.9634
14751TIP3    H244176   7.639   5.119   2.685 -0.3637 -0.9869  0.4810
14752TIP3   OH244177   0.196   4.883   0.805  0.4629  0.0184 -0.2777
14752TIP3    H144178   0.203   4.964   0.754  1.9381  0.2775  0.3006
14752TIP3    H244179   0.233   4.906   0.891  2.1801 -1.6198 -0.5396
14753TIP3   OH244180   8.260   4.522   1.508  0.7593  0.0740 -0.3145
14753TIP3    H144181   8.204   4.599   1.499  0.5844 -0.1678 -1.3457
14753TIP3    H244182   8.237   4.485   1.594 -1.5536 -0.7340 -1.2529
14754TIP3   OH244183   7.837   8.079   1.733  0.0055 -0.2790  0.4913
14754TIP3    H144184   7.756   8.122   1.706 -0.7641 -1.0657  1.4869
14754TIP3    H244185   7.812   7.987   1.745  0.2330  0.0300  3.9832
14755TIP3   OH244186   7.406   6.612   1.010  0.5023  0.2889  0.6495
14755TIP3    H144187   7.337   6.655   1.059  0.1958  0.3029  0.2148
14755TIP3    H244188   7.364   6.535   0.972  0.3562  1.0541 -0.7773
14756TIP3   OH244189   7.892   6.704   2.916  0.3156 -0.0990  0.5078
14756TIP3    H144190   7.952   6.655   2.860  0.4009  0.7458 -0.1485
14756TIP3    H244191   7.948   6.767   2.962 -0.3277  2.1170 -1.6615
14757TIP3   OH244192   8.654   5.345   0.282  0.0942 -0.4510  0.3553
14757TIP3    H144193   8.621   5.272   0.336 -2.1303 -0.7757 -1.3573
14757TIP3    H244194   8.720   5.305   0.226  1.6527 -0.3283  2.0599
14758TIP3   OH244195   7.308   1.730   7.125  0.0571  0.0640  0.2924
14758TIP3    H144196   7.363   1.798   7.164 -1.3621  1.3583  0.0569
14758TIP3    H244197   7.254   1.776   7.061  0.9549 -1.7110 -1.8004
14759TIP3   OH244198   6.712   2.054   5.895  0.0059 -0.0892 -0.1536
14759TIP3    H144199   6.687   2.093   5.979  2.5926  1.0449  0.1260
14759TIP3    H244200   6.786   2.107   5.866  0.2600 -1.6027 -2.3056
14760TIP3   OH244201   7.376   3.045   6.756 -0.0583  0.2918 -0.4537
14760TIP3    H144202   7.326   2.988   6.698 -0.5000  0.3856 -0.1662
14760TIP3    H244203   7.385   2.994   6.837 -0.2654  0.5444 -0.2711
14761TIP3   OH244204   8.276   4.261   0.523 -0.2330  0.4270 -0.3161
14761TIP3    H144205   8.332   4.313   0.465 -0.5235  0.0030 -0.9814
14761TIP3    H244206   8.201   4.236   0.468 -0.6676  0.2932  0.3322
14762TIP3   OH244207   7.448   2.331   7.172  0.6693  0.1235  0.2131
14762TIP3    H144208   7.392   2.323   7.249 -0.7884  0.7471 -0.7540
14762TIP3    H244209   7.536   2.343   7.207  0.2990 -1.4590  1.7678
14763TIP3   OH244210   0.229   5.066   0.616  0.1302  0.3059 -0.9157
14763TIP3    H144211   0.316   5.096   0.589  0.2019 -0.1499 -1.2084
14763TIP3    H244212   0.170   5.097   0.547  0.4120 -1.4557 -1.9933
14764TIP3   OH244213   0.720   6.485   1.341 -0.3366  0.0613  0.1901
14764TIP3    H144214   0.768   6.432   1.278 -1.8091 -1.9037  0.6688
14764TIP3    H244215   0.683   6.557   1.289 -0.1448 -0.6122 -0.8855
14765TIP3   OH244216   1.691   7.736   5.982 -0.5073 -0.1677 -0.7528
14765TIP3    H144217   1.697   7.645   6.010 -1.9594 -0.2420 -0.6618
14765TIP3    H244218   1.781   7.760   5.959  0.5436 -0.4825  2.7061
14766TIP3   OH244219   7.156   7.291   2.737  0.1877 -0.2244 -0.2613
14766TIP3    H144220   7.224   7.271   2.801  0.4115  0.4105 -0.2928
14766TIP3    H244221   7.082   7.236   2.763  0.5702 -0.6122  0.0201
14767TIP3   OH244222   4.134   0.882   0.516  0.0403  0.9217  0.0688
14767TIP3    H144223   4.171   0.811   0.465  0.4872  1.5396 -0.4764
14767TIP3    H244224   4.060   0.913   0.464  0.2429  1.2850 -0.0011
14768TIP3   OH244225   6.644   3.134   6.690  0.5185 -0.2212 -0.6135
14768TIP3    H144226   6.605   3.048   6.706 -1.0611 -0.0515 -3.3536
14768TIP3    H244227   6.739   3.118   6.693  0.2434 -1.9027 -0.3869
14769TIP3   OH244228   5.312   1.279   6.458  0.4937 -0.4466  0.1114
14769TIP3    H144229   5.306   1.288   6.554 -0.2332  0.6614 -0.0325
14769TIP3    H244230   5.393   1.323   6.435  0.0622  0.3408  0.0888
14770TIP3   OH244231   5.834   0.387   7.262 -0.2494  0.3027  0.7675
14770TIP3    H144232   5.782   0.460   7.229 -1.4236 -0.7123  0.3221
14770TIP3    H244233   5.894   0.367   7.190 -1.1890 -0.3605  0.1511
14771TIP3   OH244234   7.881   2.596   5.603  0.2429 -0.3982  0.6343
14771TIP3    H144235   7.913   2.544   5.529  0.7466  0.7108  0.0555
14771TIP3    H244236   7.928   2.560   5.679  0.2117 -1.1148  0.3223
14772TIP3   OH244237   1.035   6.622   1.154 -0.3107  0.6296 -0.0553
14772TIP3    H144238   0.987   6.557   1.102 -0.9171  1.3162 -0.3658
14772TIP3    H244239   1.103   6.572   1.198 -1.9247 -0.5657  1.1790
14773TIP3   OH244240   0.036   6.423   1.665 -0.3702  0.3774  0.0151
14773TIP3    H144241   0.044   6.497   1.605  2.4086  0.1259 -0.0053
14773TIP3    H244242   0.035   6.463   1.752  1.3304  0.4630  0.0135
14774TIP3   OH244243   7.848   6.975   0.639 -0.2170 -0.7810 -0.5024
14774TIP3    H144244   7.876   6.951   0.727 -1.4016 -0.8707 -0.1405
14774TIP3    H244245   7.831   6.892   0.595  1.9160 -0.7962 -1.3484
14775TIP3   OH244246   7.780   4.430   2.744 -0.0392 -0.3805 -0.6722
14775TIP3    H144247   7.865   4.393   2.768 -1.3006 -1.6835  1.9860
14775TIP3    H244248   7.775   4.419   2.649  1.4319 -3.1588 -0.4776
14776TIP3   OH244249   0.667   8.297   1.421  0.4291  0.2250 -0.0711
14776TIP3    H144250   0.734   8.366   1.423  2.0916 -1.2577 -2.6627
14776TIP3    H244251   0.691   8.238   1.492  1.2536  0.2674 -0.3124
14777TIP3   OH244252   8.908   5.427   1.785 -0.1033 -0.0471 -0.0498
14777TIP3    H144253   8.816   5.442   1.761 -0.5308 -3.3007 -0.6635
14777TIP3    H244254   8.951   5.406   1.702  0.9353  0.1490  0.4317
14778TIP3   OH244255   7.537   7.231   2.252  0.6990 -0.0959 -0.0819
14778TIP3    H144256   7.445   7.250   2.271  0.1083 -0.7102 -2.1805
14778TIP3    H244257   7.586   7.293   2.306 -0.9726  1.0552  0.1631
14779TIP3   OH244258   8.445   7.417   0.622  0.8512  0.1224 -0.2387
14779TIP3    H144259   8.419   7.485   0.560  0.6764  1.3233  1.1431
14779TIP3    H244260   8.375   7.352   0.616  1.3370 -0.2843 -2.0272
14780TIP3   OH244261   8.843   6.302   3.527 -0.2160 -0.4295 -0.2600
14780TIP3    H144262   8.790   6.345   3.595  1.5418  1.5809 -0.0893
14780TIP3    H244263   8.904   6.247   3.576 -1.1216 -1.5782 -0.3916
14781TIP3   OH244264   8.241   6.634   2.955  0.0220 -0.1886  0.0142
14781TIP3    H144265   8.315   6.631   3.015  0.5466  1.3553 -0.5116
14781TIP3    H244266   8.195   6.715   2.978 -1.4424 -1.0886  0.2639
14782TIP3   OH244267   8.453   4.219   2.090  0.1222 -0.5291 -0.9883
14782TIP3    H144268   8.425   4.129   2.107 -0.0376 -0.3476 -0.2671
14782TIP3    H244269   8.546   4.220   2.110 -0.3491  0.0344  1.4020
14783TIP3   OH244270   8.422   5.328   3.339  0.0587 -0.1661  0.8514
14783TIP3    H144271   8.449   5.322   3.431 -0.2185  1.3345  1.0431
14783TIP3    H244272   8.500   5.357   3.293  0.0189 -0.2807  0.7132
14784TIP3   OH244273   7.715   7.984   2.819 -0.2363  0.4568 -0.2468
14784TIP3    H144274   7.744   8.034   2.895 -2.0937  1.7700 -0.3594
14784TIP3    H244275   7.778   7.913   2.811  0.0099  0.3068  2.5024
14785TIP3   OH244276   4.884   0.784   5.929  0.8864 -0.6068  0.0377
14785TIP3    H144277   4.843   0.719   5.872 -0.4016 -1.3207  1.7224
14785TIP3    H244278   4.969   0.747   5.950  1.0612 -0.6905 -0.8083
14786TIP3   OH244279   2.510   0.371   3.175  0.5231  0.4666  0.2276
14786TIP3    H144280   2.490   0.353   3.083  1.9480  0.7316 -0.1434
14786TIP3    H244281   2.484   0.291   3.221 -0.0855  0.2917 -0.4262
14787TIP3   OH244282   6.180   2.423   7.085  0.3120 -0.0782  0.1773
14787TIP3    H144283   6.172   2.341   7.036 -0.5839  0.0051  0.1626
14787TIP3    H244284   6.158   2.399   7.175 -0.7822  0.3034  0.0173
14788TIP3   OH244285   8.523   6.172   1.870  0.1179 -1.0118  0.0846
14788TIP3    H144286   8.465   6.219   1.811  0.3091 -0.8850 -0.0034
14788TIP3    H244287   8.601   6.153   1.818  1.2098  1.0556  0.9145
14789TIP3   OH244288   8.698   6.900   2.367 -0.2735  0.2000 -0.1511
14789TIP3    H144289   8.730   6.989   2.383 -0.2979  0.0034  1.0006
14789TIP3    H244290   8.691   6.860   2.454  1.6351 -1.5969 -0.7948
14790TIP3   OH244291   1.008   4.334   1.786 -0.4877  0.2708  0.4545
14790TIP3    H144292   0.946   4.405   1.804 -1.1496  0.4378 -2.1343
14790TIP3    H244293   0.955   4.269   1.740  1.4770  0.9887 -2.9878
14791TIP3   OH244294   8.760   2.522   6.229  0.4711 -0.3846  0.3194
14791TIP3    H144295   8.773   2.432   6.257  2.5423  0.5040  2.4220
14791TIP3    H244296   8.738   2.569   6.310  0.1275  1.1240 -0.6274
14792TIP3   OH244297   8.820   4.783   0.809 -0.0685  0.1908  0.1652
14792TIP3    H144298   8.911   4.797   0.782  0.1969 -1.3949  0.1493
14792TIP3    H244299   8.805   4.847   0.878  0.4435  1.7482 -1.1234
14793TIP3   OH244300   8.819   2.283   7.278  0.4432  0.8145 -0.6432
14793TIP3    H144301   8.898   2.304   7.227  0.6611  0.9705 -0.2423
14793TIP3    H244302   8.749   2.333   7.235  0.2683 -0.5266 -1.9401
14794TIP3   OH244303   3.371   5.775   0.175  0.5224  0.2698 -0.2898
14794TIP3    H144304   3.349   5.868   0.174  0.7897  0.3491  0.7343
14794TIP3    H244305   3.288   5.730   0.184  0.5719  0.5029  1.6209
14795TIP3   OH244306   8.865   4.296   2.107  0.5114  0.2619  0.1676
14795TIP3    H144307   8.933   4.247   2.061  1.0999  1.2658 -0.0428
14795TIP3    H244308   8.859   4.255   2.193  2.6872  1.3176  0.8567
14796TIP3   OH244309   8.367   2.635   6.969  0.5820 -0.0722  0.0844
14796TIP3    H144310   8.314   2.714   6.962  2.4824  1.4592  2.1198
14796TIP3    H244311   8.304   2.563   6.962 -1.4997  1.6560  0.5430
14797TIP3   OH244312   0.177   7.497   0.947 -0.0171 -0.7193 -0.0432
14797TIP3    H144313   0.189   7.476   0.855  1.2312  0.5337 -0.1883
14797TIP3    H244314   0.123   7.576   0.947 -0.8399 -1.2692  0.3413
14798TIP3   OH244315   6.876   2.804   7.128 -0.3119 -0.0428 -0.3923
14798TIP3    H144316   6.878   2.883   7.075  0.4935  0.3982  0.2801
14798TIP3    H244317   6.905   2.734   7.070 -0.3343  0.2774 -0.7858
14799TIP3   OH244318   0.106   5.998   1.823  0.0368  0.6719 -0.3518
14799TIP3    H144319   0.183   6.009   1.768 -0.5235  0.8893 -1.1020
14799TIP3    H244320   0.094   5.904   1.830 -1.2317  0.6215 -2.5333
14800TIP3   OH244321   1.133   6.925   0.520  0.3981 -0.5942  0.2641
14800TIP3    H144322   1.121   6.903   0.428  1.1634 -0.7752  0.2032
14800TIP3    H244323   1.189   6.856   0.554  1.5177  0.3886  0.4512
14801TIP3   OH244324   7.269   0.433   5.689 -0.0499  0.2539  0.2123
14801TIP3    H144325   7.286   0.526   5.705  1.7636  0.1479 -0.9263
14801TIP3    H244326   7.174   0.428   5.677 -0.0646  2.1053 -0.6608
14802TIP3   OH244327   0.597   2.610   5.154 -0.1432  0.2951 -0.4492
14802TIP3    H144328   0.602   2.612   5.058  2.8584 -0.3001 -0.3791
14802TIP3    H244329   0.679   2.651   5.182 -0.1943 -1.1129  1.8258
14803TIP3   OH244330   7.919   1.435   6.557  0.0119 -0.1425 -0.1915
14803TIP3    H144331   8.001   1.452   6.512 -1.3873  0.8094 -2.4378
14803TIP3    H244332   7.918   1.340   6.570  0.0546 -0.5373 -2.9450
14804TIP3   OH244333   6.701   1.793   6.737  0.1592  0.3679 -0.4928
14804TIP3    H144334   6.788   1.804   6.774  0.1365  1.3039 -0.7131
14804TIP3    H244335   6.668   1.712   6.777  1.4826 -0.5010 -1.1041
14805TIP3   OH244336   0.681   5.749   1.200 -0.4224 -0.2597 -0.2341
14805TIP3    H144337   0.697   5.773   1.109 -0.6067  0.0113 -0.1947
14805TIP3    H244338   0.655   5.657   1.196  0.9215 -0.6486 -0.3225
14806TIP3   OH244339   7.142   0.421   6.616 -0.3540 -0.5625  0.3260
14806TIP3    H144340   7.234   0.445   6.632  0.0107 -1.4695 -0.3150
14806TIP3    H244341   7.142   0.388   6.526 -1.6036  0.8231 -0.1916
14807TIP3   OH244342   1.424   7.403   0.926  0.0970  0.0521  0.0411
14807TIP3    H144343   1.494   7.462   0.954  0.9553 -1.2369  0.6521
14807TIP3    H244344   1.464   7.316   0.927 -1.2330 -0.5850 -0.5732
14808TIP3   OH244345   5.566   1.394   5.059  0.2832  0.0837  0.1092
14808TIP3    H144346   5.608   1.419   5.141 -0.5038  1.0342  0.2315
14808TIP3    H244347   5.558   1.476   5.010 -1.9496  0.0457  0.3450
14809TIP3   OH244348   6.322   2.293   6.758 -0.4239  0.1219 -0.2522
14809TIP3    H144349   6.393   2.333   6.809 -1.0014  0.7922  0.0384
14809TIP3    H244350   6.252   2.278   6.822 -1.1492  0.9651 -0.8286
14810TIP3   OH244351   8.255   1.457   7.163  0.0109  0.3203 -0.8676
14810TIP3    H144352   8.210   1.540   7.147  0.2696  0.5669 -0.3581
14810TIP3    H244353   8.340   1.467   7.119 -0.7824 -0.5017 -2.6142
14811TIP3   OH244354   0.628   4.232   0.131 -0.4079  0.6621  0.0582
14811TIP3    H144355   0.656   4.211   0.042 -0.4310  0.9081 -0.0067
14811TIP3    H244356   0.598   4.322   0.126 -1.4699  0.3143  0.0700
14812TIP3   OH244357   0.189   1.791   5.990 -0.1532  0.1598 -0.0694
14812TIP3    H144358   0.187   1.867   5.932  0.3510  1.3087  1.3685
14812TIP3    H244359   0.277   1.791   6.027 -0.4168 -0.6421  0.5848
14813TIP3   OH244360   2.510   5.621   0.216 -0.3004  0.2985  0.4066
14813TIP3    H144361   2.487   5.559   0.286 -0.6043  0.8401  0.7898
14813TIP3    H244362   2.550   5.566   0.148 -2.5450 -0.6459 -0.1973
14814TIP3   OH244363   7.441   0.716   7.218 -1.0180  0.0969  0.8269
14814TIP3    H144364   7.347   0.712   7.203 -0.9755 -0.8141  0.8004
14814TIP3    H244365   7.452   0.689   7.308 -0.7364 -0.2605  0.6848
14815TIP3   OH244366   5.901   1.869   5.955  0.4884 -0.0668 -0.2736
14815TIP3    H144367   5.843   1.821   5.896  0.0005  1.9728 -1.5023
14815TIP3    H244368   5.970   1.807   5.977 -0.6992 -1.6637 -0.9527
14816TIP3   OH244369   0.913   5.006   1.624 -0.5071 -0.0541 -0.5140
14816TIP3    H144370   0.830   5.038   1.588 -0.7118  0.4894  0.4036
14816TIP3    H244371   0.950   4.950   1.556 -1.4131  0.0690 -1.1083
14817TIP3   OH244372   7.480   0.827   6.590  0.5173 -0.2873  0.5431
14817TIP3    H144373   7.412   0.770   6.554 -2.1072  1.5318  2.4228
14817TIP3    H244374   7.453   0.916   6.567  2.0689  0.5054  1.6048
14818TIP3   OH244375   1.915   6.743   0.990 -0.0222 -0.7192 -0.1740
14818TIP3    H144376   1.971   6.699   1.055 -0.0044 -1.0836 -0.4328
14818TIP3    H244377   1.932   6.696   0.908 -0.1854 -0.3824 -0.4032
14819TIP3   OH244378   7.961   3.168   5.352 -0.0498 -0.3641 -0.2922
14819TIP3    H144379   7.935   3.118   5.274 -2.0417  0.3256 -0.1082
14819TIP3    H244380   8.020   3.235   5.319 -0.8792 -0.0758 -1.2254
14820TIP3   OH244381   1.520   5.471   1.332  0.0335  0.3861 -0.9566
14820TIP3    H144382   1.432   5.464   1.369  0.2314 -0.6929 -0.6695
14820TIP3    H244383   1.505   5.485   1.238 -0.4475 -0.8969 -1.0842
14821TIP3   OH244384   7.804   5.867   1.329  0.1185 -0.1671  0.0310
14821TIP3    H144385   7.751   5.818   1.392 -0.5248  0.3039 -0.1358
14821TIP3    H244386   7.888   5.881   1.374  0.6559 -2.2270 -0.2863
14822TIP3   OH244387   8.647   6.575   0.446 -0.0759  0.6987 -0.2535
14822TIP3    H144388   8.619   6.545   0.359  0.8391  1.6946 -0.9055
14822TIP3    H244389   8.596   6.522   0.507 -0.4099 -0.3273 -1.3932
14823TIP3   OH244390   7.690   1.839   6.096  0.1510 -0.0906  0.2058
14823TIP3    H144391   7.762   1.876   6.147 -0.3990 -0.9414  1.6406
14823TIP3    H244392   7.644   1.915   6.060  1.7337  0.4556 -0.6818
14824TIP3   OH244393   3.844   3.326   0.724  0.7851 -0.4331 -0.3440
14824TIP3    H144394   3.806   3.408   0.756 -1.0417 -1.8324  1.1814
14824TIP3    H244395   3.899   3.352   0.650  1.0094  2.2802  0.7240
14825TIP3   OH244396   5.770   1.228   6.292 -0.5747 -0.7280 -0.0195
14825TIP3    H144397   5.675   1.231   6.305 -0.3726  2.3881  1.2047
14825TIP3    H244398   5.806   1.277   6.366  1.9789 -1.3147 -0.8171
14826TIP3   OH244399   1.176   5.158   0.227  0.0040 -0.1670 -0.0533
14826TIP3    H144400   1.263   5.194   0.246 -0.5949  1.1150  0.2369
14826TIP3    H244401   1.122   5.184   0.302 -1.3647  1.5207 -1.5893
14827TIP3   OH244402   7.852   2.392   6.696 -0.7262 -0.7476  0.2569
14827TIP3    H144403   7.849   2.478   6.654  0.6794 -0.4365  0.7524
14827TIP3    H244404   7.774   2.347   6.665 -0.0912 -0.2663 -2.0972
14828TIP3   OH244405   8.595   2.261   6.863  0.4790  0.4470  0.9530
14828TIP3    H144406   8.678   2.216   6.880  0.0038 -0.7320  0.1873
14828TIP3    H244407   8.529   2.192   6.866  0.0349  0.6489 -2.7561
14829TIP3   OH244408   0.061   1.553   5.915 -0.3900 -0.2457 -1.1345
14829TIP3    H144409   0.105   1.470   5.935 -0.1292  0.2739  0.5809
14829TIP3    H244410   0.112   1.619   5.961 -2.4691  0.4651  0.2794
14830TIP3   OH244411   7.243   2.603   6.557  0.4680 -0.4607 -0.6737
14830TIP3    H144412   7.181   2.575   6.490 -1.0540  1.3823 -0.0602
14830TIP3    H244413   7.323   2.625   6.508 -0.9888  1.9241 -2.0571
14831TIP3   OH244414   1.508   6.463   2.126 -0.0819  0.3975 -0.4434
14831TIP3    H144415   1.435   6.412   2.089  0.0657  0.0331 -0.2411
14831TIP3    H244416   1.509   6.439   2.219 -0.4168  1.2637 -0.2094
14832TIP3   OH244417   1.350   6.394   0.189 -0.5668 -0.4212  0.2061
14832TIP3    H144418   1.338   6.440   0.273 -0.3989 -1.0799  0.5904
14832TIP3    H244419   1.263   6.359   0.169 -0.9866  1.0554 -0.6845
14833TIP3   OH244420   0.686   7.765   1.095  0.3796  0.3154 -0.1702
14833TIP3    H144421   0.778   7.768   1.071  0.6641  1.6864  1.0613
14833TIP3    H244422   0.681   7.702   1.166  0.3883  0.3860 -0.1076
14834TIP3   OH244423   7.435   3.914   5.493 -0.0637 -0.5136 -0.1270
14834TIP3    H144424   7.355   3.920   5.545 -0.4610 -0.6804 -0.7032
14834TIP3    H244425   7.420   3.974   5.420  0.1865 -0.8216 -0.4324
14835TIP3   OH244426   0.604   7.471   2.988  0.5156  0.4644  0.8974
14835TIP3    H144427   0.599   7.553   3.037  0.8629  1.3332 -0.4974
14835TIP3    H244428   0.694   7.441   2.999 -0.0942 -0.7422  2.9721
14836TIP3   OH244429   0.103   8.193   0.993 -0.0538  0.1131  0.1953
14836TIP3    H144430   0.045   8.253   0.947  0.2715 -0.1575 -0.5706
14836TIP3    H244431   0.117   8.234   1.079 -2.6536 -0.6049  0.9838
14837TIP3   OH244432   6.797   2.551   6.555 -0.0269  0.5652 -0.4945
14837TIP3    H144433   6.720   2.534   6.500 -0.4780  0.2995  0.2056
14837TIP3    H244434   6.872   2.529   6.500 -0.4863  0.0621 -0.9258
14838TIP3   OH244435   7.866   2.719   6.071  0.1751  0.0304 -0.4204
14838TIP3    H144436   7.813   2.768   6.134  0.4658 -1.0717  0.7192
14838TIP3    H244437   7.956   2.744   6.092  0.2729 -0.3660 -0.3483
14839TIP3   OH244438   7.192   4.785   2.049  0.1503  1.3199 -0.1551
14839TIP3    H144439   7.278   4.762   2.014  0.3666  0.7392  0.7393
14839TIP3    H244440   7.184   4.734   2.129 -1.0728  1.2989 -0.2778
14840TIP3   OH244441   0.039   7.064   1.491 -0.2637  0.1901  0.5413
14840TIP3    H144442   0.048   7.148   1.445 -1.3452  0.1969  0.3311
14840TIP3    H244443  -0.032   7.019   1.445 -1.3029  0.1529  2.1400
14841TIP3   OH244444   5.845   3.887   5.760 -0.2164 -0.0394 -0.2084
14841TIP3    H144445   5.924   3.913   5.713  0.6199  0.8561  1.6337
14841TIP3    H244446   5.854   3.792   5.772 -0.0064 -0.1255 -1.0247
14842TIP3   OH244447   0.586   1.860   6.911  0.3042  0.1229  0.0333
14842TIP3    H144448   0.613   1.952   6.917  0.7304 -0.0411  0.6885
14842TIP3    H244449   0.557   1.837   6.999  2.1417 -0.9522  0.3917
14843TIP3   OH244450   0.482   6.073   0.365 -0.2379  0.1229  0.2738
14843TIP3    H144451   0.457   5.981   0.372  0.6361 -0.0152  1.8418
14843TIP3    H244452   0.399   6.120   0.360 -0.7174 -0.6632  0.7343
14844TIP3   OH244453   3.019   3.041   6.134  0.8637  0.0344 -0.1457
14844TIP3    H144454   2.957   3.113   6.144 -1.6319 -2.0250 -0.0348
14844TIP3    H244455   3.016   3.020   6.040  1.0135 -0.3986 -0.0544
14845TIP3   OH244456   8.734   1.693   4.592  0.6940  0.3502 -0.2413
14845TIP3    H144457   8.778   1.635   4.531 -0.0898  0.5185 -0.9828
14845TIP3    H244458   8.702   1.765   4.538  0.9305  1.0493  0.5334
14846TIP3   OH244459   8.163   2.449   6.954 -0.8374 -0.3628  0.1337
14846TIP3    H144460   8.069   2.433   6.963 -0.7353 -0.7070  0.5477
14846TIP3    H244461   8.194   2.376   6.900 -0.7666 -0.3723  0.1877
14847TIP3   OH244462   5.128   7.760   0.243  0.0403 -0.6449  0.1519
14847TIP3    H144463   5.046   7.779   0.289 -0.5159 -1.0522 -0.6531
14847TIP3    H244464   5.103   7.760   0.151  0.7868 -1.5444 -0.0551
14848TIP3   OH244465   4.315   7.516   0.077  0.2342  0.6420 -0.0599
14848TIP3    H144466   4.295   7.521  -0.016 -0.8780 -0.3715  0.1029
14848TIP3    H244467   4.232   7.536   0.120  0.6334  0.6641  0.7054
14849TIP3   OH244468   8.377   0.029   1.628  0.6312  0.4967  0.3491
14849TIP3    H144469   8.464   0.013   1.592 -0.1907 -0.0024 -1.4840
14849TIP3    H244470   8.356   0.118   1.601 -0.4049 -0.2353 -1.3146
14850TIP3   OH244471   8.026   0.626   0.267  0.3585  0.7665  0.2672
14850TIP3    H144472   8.014   0.553   0.207  0.0997  1.4458 -0.5183
14850TIP3    H244473   8.121   0.629   0.282  0.3765  0.3148  0.2459
14851TIP3   OH244474   5.494   5.660   3.100  0.5162 -0.4759 -0.3157
14851TIP3    H144475   5.529   5.573   3.081 -1.6482 -1.5184  0.2987
14851TIP3    H244476   5.489   5.663   3.195 -2.7775 -1.0996 -0.4301
14852TIP3   OH244477   7.168   8.253   1.965  0.0492 -0.4781 -0.2560
14852TIP3    H144478   7.165   8.170   2.011  0.7841 -0.2580  0.1922
14852TIP3    H244479   7.078   8.268   1.936 -0.6082 -0.1382  1.9296
14853TIP3   OH244480   1.919   1.199   2.843 -0.2809  0.0306 -0.0194
14853TIP3    H144481   1.955   1.153   2.767  2.0611  0.8130  0.5696
14853TIP3    H244482   1.878   1.277   2.806 -1.9811 -1.1845 -0.7629
14854TIP3   OH244483   7.309   8.203   2.473 -0.0253 -0.0008  0.5353
14854TIP3    H144484   7.301   8.195   2.568 -0.8024  0.5252  0.5265
14854TIP3    H244485   7.221   8.184   2.440  0.9294 -3.1022 -0.3111
14855TIP3   OH244486   7.529   7.599   0.944 -0.7896  0.2832  0.0128
14855TIP3    H144487   7.477   7.661   0.894 -0.3617 -0.0871 -0.9049
14855TIP3    H244488   7.480   7.517   0.941  0.1818 -0.2638 -1.4801
14856TIP3   OH244489   3.298   1.803   7.029  0.2379  0.3325 -0.0548
14856TIP3    H144490   3.238   1.729   7.029 -1.1896  1.4476  1.4831
14856TIP3    H244491   3.242   1.880   7.044  1.9370  1.4860  0.5526
14857TIP3   OH244492   6.461   8.069   0.682 -0.8286  0.3662  0.3911
14857TIP3    H144493   6.517   8.012   0.629 -1.7202 -1.6419  1.5828
14857TIP3    H244494   6.384   8.085   0.627  0.3459  2.2236 -0.7971
14858TIP3   OH244495   5.086   6.033   0.787  0.0046 -0.1018 -0.3775
14858TIP3    H144496   5.147   5.977   0.835  0.9162  0.4253 -0.9146
14858TIP3    H244497   5.044   6.085   0.855  1.0818  0.4361 -0.1102
14859TIP3   OH244498   6.522   6.297   1.660  0.0265 -0.2909 -0.0175
14859TIP3    H144499   6.468   6.355   1.607  0.4927  1.0633  0.9648
14859TIP3    H244500   6.460   6.241   1.706 -0.4838  0.3117  0.0315
14860TIP3   OH244501   2.629   4.179   5.584  0.0856  0.4777  0.3368
14860TIP3    H144502   2.544   4.188   5.540  0.8161  0.0900 -1.2087
14860TIP3    H244503   2.649   4.085   5.578  0.5584  0.5479  0.8105
14861TIP3   OH244504   0.690   1.380   1.054 -0.4312 -0.0048  0.0404
14861TIP3    H144505   0.609   1.430   1.064  0.8967  1.6714  2.8961
14861TIP3    H244506   0.758   1.446   1.039  0.6105 -1.3279 -1.2435
14862TIP3   OH244507   5.605   5.847   0.655 -0.3979 -0.2580  0.2567
14862TIP3    H144508   5.611   5.933   0.697  1.4435  0.8404 -2.1925
14862TIP3    H244509   5.654   5.789   0.714  3.3934  1.5447 -0.9540
14863TIP3   OH244510   3.691   1.655   6.588 -0.2829  0.0999  0.2638
14863TIP3    H144511   3.681   1.750   6.592  0.9219  0.2540 -0.1261
14863TIP3    H244512   3.744   1.639   6.510  0.0304 -0.8437  0.6515
14864TIP3   OH244513   8.211   7.532   1.738  0.6011  0.6057  0.1766
14864TIP3    H144514   8.226   7.550   1.831 -0.0103  1.5645  0.0905
14864TIP3    H244515   8.289   7.568   1.694  0.9022  0.1290  0.3197
14865TIP3   OH244516   7.745   6.067   3.764  0.1380  0.2836 -0.1564
14865TIP3    H144517   7.804   6.061   3.689 -1.0502  0.4161 -1.1251
14865TIP3    H244518   7.660   6.090   3.726 -0.7840 -0.9578  1.1060
14866TIP3   OH244519   6.230   7.728   0.857  0.1620  0.5018 -0.2773
14866TIP3    H144520   6.222   7.727   0.953 -1.9173  1.3258 -0.4191
14866TIP3    H244521   6.324   7.717   0.841  0.3408 -1.4612  1.8110
14867TIP3   OH244522   6.800   6.933   3.320  0.0665 -0.2531 -0.2613
14867TIP3    H144523   6.832   6.965   3.404  0.2297  0.4224 -0.5786
14867TIP3    H244524   6.824   6.840   3.318 -0.3280 -0.3733  0.6235
14868TIP3   OH244525   7.708   5.908   0.816  0.4468  0.5422  0.0736
14868TIP3    H144526   7.774   5.972   0.844  2.6196 -1.5097 -0.1601
14868TIP3    H244527   7.649   5.900   0.891  2.5159 -0.1598  1.6836
14869TIP3   OH244528   3.996   5.795   1.894 -0.0014  0.2591  0.6899
14869TIP3    H144529   4.042   5.845   1.962 -0.7972  1.4677  0.3640
14869TIP3    H244530   4.063   5.739   1.856  0.4544 -0.4513  2.4722
14870TIP3   OH244531   7.047   6.006   1.814 -0.2493 -0.0313 -0.3052
14870TIP3    H144532   7.085   5.923   1.785  0.4543  0.1213  0.1542
14870TIP3    H244533   7.022   6.051   1.733  0.8841  0.0137 -0.6434
14871TIP3   OH244534   7.981   0.726   1.762 -0.5655 -0.1305  0.2973
14871TIP3    H144535   8.026   0.651   1.799 -1.9609 -0.8364  0.6105
14871TIP3    H244536   7.940   0.769   1.837 -0.2405  0.6180  0.0491
14872TIP3   OH244537   4.953   7.389   0.225  0.0594  0.1625 -0.6295
14872TIP3    H144538   4.932   7.421   0.313 -0.4456 -0.4089 -0.5386
14872TIP3    H244539   5.004   7.460   0.186  1.5050 -0.1698  0.6234
14873TIP3   OH244540   5.199   8.281   0.195 -0.5521 -0.0145  0.2353
14873TIP3    H144541   5.124   8.222   0.203 -0.1704 -0.3150  1.8492
14873TIP3    H244542   5.264   8.245   0.256  0.6985  0.5450 -0.7561
14874TIP3   OH244543   8.027   7.870   1.796 -0.6150  0.2121  0.1298
14874TIP3    H144544   8.028   7.951   1.846  0.4772  1.4584 -1.8654
14874TIP3    H244545   7.982   7.892   1.715  0.4231 -0.9724 -0.7873
14875TIP3   OH244546   4.240   2.631   6.868 -0.3957  0.1365  0.2335
14875TIP3    H144547   4.326   2.665   6.896 -0.8818  1.8899 -0.3198
14875TIP3    H244548   4.246   2.628   6.772 -1.3862  1.5355  0.1121
14876TIP3   OH244549   8.003   7.507   3.718  0.9195  0.4317 -0.1353
14876TIP3    H144550   7.985   7.512   3.624  0.7191  2.4411  0.0067
14876TIP3    H244551   8.047   7.422   3.729 -0.5679 -0.5952 -1.7732
14877TIP3   OH244552   3.782   1.011   7.249  0.6450  0.2266 -0.2047
14877TIP3    H144553   3.820   1.077   7.192 -0.3658  1.4562  0.5101
14877TIP3    H244554   3.748   1.060   7.324 -2.2746 -0.7871 -0.7718
14878TIP3   OH244555   8.044   7.538   2.268  0.4024  0.2898  0.2592
14878TIP3    H144556   8.068   7.559   2.178  0.1871  0.7288  0.3009
14878TIP3    H244557   8.042   7.623   2.312 -2.6642  0.4631 -0.1040
14879TIP3   OH244558   6.924   5.268   0.509  0.4853  0.4971  0.2141
14879TIP3    H144559   6.896   5.359   0.499  0.9241  0.8925  2.3706
14879TIP3    H244560   6.850   5.225   0.553  0.2672 -0.2052 -0.8238
14880TIP3   OH244561   7.320   6.602   1.956  0.2918  0.3763 -0.9532
14880TIP3    H144562   7.257   6.541   1.918 -0.2379  0.1388  0.2853
14880TIP3    H244563   7.287   6.688   1.931 -1.3918  0.3248  0.9420
14881TIP3   OH244564   7.270   5.387   1.993 -0.3193 -0.9195  0.3000
14881TIP3    H144565   7.186   5.381   1.948 -0.2392 -0.5273  0.1060
14881TIP3    H244566   7.253   5.443   2.069  0.1560  0.5062 -0.6260
14882TIP3   OH244567   6.840   7.191   1.626  0.3205  0.5631  0.1812
14882TIP3    H144568   6.799   7.105   1.616 -0.1182  0.7650  0.2567
14882TIP3    H244569   6.776   7.243   1.673  0.0011  1.3622 -1.1149
14883TIP3   OH244570   6.713   5.799   0.323  0.4491  0.2514 -0.1920
14883TIP3    H144571   6.725   5.873   0.263 -0.1274  0.7284  0.2738
14883TIP3    H244572   6.722   5.721   0.268 -1.3316  0.6979 -1.1440
14884TIP3   OH244573   5.726   6.244   4.099  0.2995  0.3686 -0.2481
14884TIP3    H144574   5.710   6.289   4.016  2.2191 -0.8333 -1.2802
14884TIP3    H244575   5.699   6.308   4.166 -0.9801  1.4546 -1.7609
14885TIP3   OH244576   6.970   7.988   3.074 -0.0348  0.4355 -0.0432
14885TIP3    H144577   7.039   7.958   3.015  0.3192 -1.0418  1.0818
14885TIP3    H244578   6.901   8.020   3.016  0.3082 -0.9930 -1.2676
14886TIP3   OH244579   3.020   3.882   6.925  0.1378  0.3383 -0.3545
14886TIP3    H144580   3.041   3.844   7.010  1.4474  0.5786 -0.5629
14886TIP3    H244581   2.925   3.891   6.925 -0.0797 -1.8957  0.1235
14887TIP3   OH244582   2.649   4.369   7.045  0.6399  0.0104 -0.3622
14887TIP3    H144583   2.601   4.330   7.117 -0.5467  1.0308 -0.5759
14887TIP3    H244584   2.637   4.308   6.972  1.0904 -0.5723  0.0461
14888TIP3   OH244585   6.620   7.710   2.408 -0.2500  0.4162 -0.4089
14888TIP3    H144586   6.643   7.794   2.370 -0.8057 -0.0758 -1.8584
14888TIP3    H244587   6.654   7.645   2.346  1.0025 -0.4691  1.1427
14889TIP3   OH244588   7.078   5.996   2.385 -0.4289 -0.4633 -0.0981
14889TIP3    H144589   7.126   5.977   2.305 -1.8007 -0.0042 -1.0444
14889TIP3    H244590   7.145   6.001   2.453  0.7667 -0.6058 -1.2629
14890TIP3   OH244591   5.587   7.061   0.825  0.2527  0.2537  0.3257
14890TIP3    H144592   5.502   7.017   0.834  0.6310 -0.9765 -1.8533
14890TIP3    H244593   5.648   7.003   0.870  0.4889 -0.6766 -1.1586
14891TIP3   OH244594   8.341   0.138   3.198  0.4926 -0.0716  0.0859
14891TIP3    H144595   8.327   0.061   3.143 -1.9313 -0.6130  1.3838
14891TIP3    H244596   8.294   0.208   3.154  1.5764  0.3671 -0.3934
14892TIP3   OH244597   6.684   7.335   0.422 -0.3654 -0.1934  0.0140
14892TIP3    H144598   6.741   7.391   0.474 -0.9226  0.5165 -0.1417
14892TIP3    H244599   6.622   7.298   0.486 -3.0180  3.0780 -0.5465
14893TIP3   OH244600   6.335   7.993   2.209  0.0634 -0.0880  0.3825
14893TIP3    H144601   6.373   7.905   2.208 -0.0368 -0.1257 -0.0842
14893TIP3    H244602   6.288   8.001   2.126 -0.0590  0.3501  0.4880
14894TIP3   OH244603   5.196   5.118   0.938 -0.0068 -0.1560 -0.2982
14894TIP3    H144604   5.244   5.037   0.956 -0.9301 -0.3790  1.2383
14894TIP3    H244605   5.122   5.090   0.884 -0.2045 -0.2968  0.0465
14895TIP3   OH244606   8.693   6.545   2.387 -0.4703 -0.2235  0.1457
14895TIP3    H144607   8.720   6.479   2.451  0.9621  0.0365 -0.1720
14895TIP3    H244608   8.656   6.616   2.439  0.3508 -0.1716  0.6679
14896TIP3   OH244609   6.410   6.833   1.340 -0.2485 -0.7143  0.0185
14896TIP3    H144610   6.436   6.741   1.331  1.4122 -0.2386 -0.1243
14896TIP3    H244611   6.316   6.833   1.321 -0.1862 -2.3234 -0.3598
14897TIP3   OH244612   6.365   7.234   0.851  0.2757 -0.4437 -0.1475
14897TIP3    H144613   6.365   7.320   0.893  0.2632 -0.2288 -0.5824
14897TIP3    H244614   6.391   7.174   0.920 -0.5184 -0.1949  0.3690
14898TIP3   OH244615   4.678   1.393   7.087 -0.0504 -0.4797  0.4370
14898TIP3    H144616   4.723   1.472   7.116 -1.1552  0.4726 -0.3989
14898TIP3    H244617   4.596   1.392   7.136 -0.9578  0.0007 -1.0113
14899TIP3   OH244618   1.605   6.197   1.935 -0.0597  0.1252  0.6604
14899TIP3    H144619   1.542   6.258   1.896  2.8595  1.6349 -1.9391
14899TIP3    H244620   1.560   6.113   1.935 -1.7867  0.9779 -1.9347
14900TIP3   OH244621   1.565   2.168   6.179  0.2165  0.0451  0.4894
14900TIP3    H144622   1.550   2.172   6.273 -0.6138 -1.9421  0.4499
14900TIP3    H244623   1.499   2.108   6.146  3.1243 -2.6035 -0.7811
14901TIP3   OH244624   7.184   0.304   4.323 -0.1705 -0.5391 -0.1092
14901TIP3    H144625   7.213   0.303   4.232  0.0463 -1.6246 -0.0342
14901TIP3    H244626   7.119   0.233   4.328 -0.6444 -0.0715  0.4325
14902TIP3   OH244627   3.861   6.471   0.114 -0.1566 -0.1740  0.2790
14902TIP3    H144628   3.824   6.513   0.191  0.8765  0.4275  0.4533
14902TIP3    H244629   3.828   6.523   0.040  2.7014  2.2081  0.5990
14903TIP3   OH244630   8.210   6.866   1.667 -0.4843  0.0151  0.1275
14903TIP3    H144631   8.296   6.860   1.710 -0.1787 -0.1060 -0.4865
14903TIP3    H244632   8.231   6.872   1.574 -1.1826 -2.2748 -0.2258
14904TIP3   OH244633   0.692   0.140   2.154 -0.8900  0.0937 -0.0241
14904TIP3    H144634   0.755   0.097   2.097  1.2937  2.0545  0.8222
14904TIP3    H244635   0.615   0.083   2.152  1.1241 -2.7124 -0.5578
14905TIP3   OH244636   5.369   8.089   1.155 -0.3646  0.1233  0.5215
14905TIP3    H144637   5.372   8.028   1.081 -1.3866 -0.2174  0.7418
14905TIP3    H244638   5.378   8.033   1.232  0.0396  0.4052  0.6817
14906TIP3   OH244639   6.248   3.123   6.466  0.2046 -0.8010  0.4096
14906TIP3    H144640   6.330   3.156   6.503 -0.1837 -1.3496  1.7875
14906TIP3    H244641   6.182   3.148   6.530 -0.6303 -0.8764 -0.4169
14907TIP3   OH244642   5.564   6.164   3.059 -0.0111 -0.2388  0.6453
14907TIP3    H144643   5.540   6.074   3.037 -0.2925  0.1388 -0.6532
14907TIP3    H244644   5.659   6.161   3.075  0.2783 -0.4616 -1.0633
14908TIP3   OH244645   7.052   7.660   1.932  0.0723  0.0684 -0.0013
14908TIP3    H144646   7.012   7.663   1.845 -1.0845 -0.4588  0.5009
14908TIP3    H244647   7.026   7.575   1.968  0.4931  0.3039  0.8853
14909TIP3   OH244648   6.003   2.850   6.242  0.2986 -0.0037 -0.6910
14909TIP3    H144649   5.925   2.900   6.221  0.8240  1.1911  0.1327
14909TIP3    H244650   6.018   2.867   6.335  1.5199 -0.2447 -0.8327
14910TIP3   OH244651   2.012   2.900   6.704 -0.5369  0.2116 -0.1516
14910TIP3    H144652   1.962   2.979   6.725  0.2115  0.5430  0.4324
14910TIP3    H244653   2.015   2.851   6.786  1.1874  0.8193  0.1606
14911TIP3   OH244654   8.138   1.172   0.021 -0.0886 -0.1378 -0.9100
14911TIP3    H144655   8.189   1.146   0.098  0.4734  2.0279 -0.5152
14911TIP3    H244656   8.203   1.176  -0.050 -0.2868 -0.4848 -1.1069
14912TIP3   OH244657   5.606   6.401   1.821 -0.3526  0.5952 -0.4579
14912TIP3    H144658   5.566   6.335   1.764  1.2742 -0.6056 -0.2221
14912TIP3    H244659   5.700   6.383   1.817 -0.1790  0.7408  2.2629
14913TIP3   OH244660   6.872   6.759   2.018  0.0568 -0.4002 -0.1274
14913TIP3    H144661   6.953   6.808   2.024  0.3610 -0.5232 -2.6471
14913TIP3    H244662   6.897   6.668   2.038  0.3778 -0.3010 -0.0756
14914TIP3   OH244663   5.378   7.545   1.892 -0.4732  0.0347  0.8191
14914TIP3    H144664   5.429   7.620   1.862  1.1246 -1.0516  0.7327
14914TIP3    H244665   5.287   7.573   1.883  0.0893  1.9524  0.8079
14915TIP3   OH244666   3.745   3.640   6.210 -0.4854 -0.0698 -0.3368
14915TIP3    H144667   3.810   3.654   6.141  0.7880 -0.2203  0.8120
14915TIP3    H244668   3.661   3.639   6.164  0.3339 -0.0345 -1.8615
14916TIP3   OH244669   5.813   6.933   1.333 -0.4804  0.0923 -0.1161
14916TIP3    H144670   5.790   7.004   1.273 -0.2327 -0.0705 -0.4109
14916TIP3    H244671   5.902   6.954   1.362  0.2004 -0.8953 -1.4151
14917TIP3   OH244672   1.538   1.021   2.145  0.4344  0.2030 -0.3240
14917TIP3    H144673   1.620   0.973   2.157 -0.4922 -1.0505  1.2213
14917TIP3    H244674   1.492   0.973   2.077  0.6595  0.4803 -0.6746
14918TIP3   OH244675   5.281   7.408   2.571 -0.6284  0.1795  0.3302
14918TIP3    H144676   5.370   7.411   2.608  0.3707  0.7458 -2.0432
14918TIP3    H244677   5.294   7.414   2.476 -3.1363 -1.0272 -0.1357
14919TIP3   OH244678   1.185   0.092   1.743  0.1417 -0.7362 -0.5183
14919TIP3    H144679   1.170   0.107   1.650  2.4437 -0.1958 -0.8184
14919TIP3    H244680   1.247   0.019   1.747  0.2872 -0.5640  0.5814
14920TIP3   OH244681   7.125   5.767   1.446 -0.0606 -0.2579 -0.2271
14920TIP3    H144682   7.152   5.858   1.430 -0.4959 -0.0339  0.2897
14920TIP3    H244683   7.162   5.718   1.373  1.3192  0.1228  0.1923
14921TIP3   OH244684   7.557   8.264   4.337 -0.0340  0.3301 -0.4658
14921TIP3    H144685   7.475   8.223   4.362  0.4704  0.2405  1.1030
14921TIP3    H244686   7.547   8.356   4.360  0.0571  0.4607 -0.9308
14922TIP3   OH244687   0.032   6.649   0.143 -0.4270 -0.0445 -0.1654
14922TIP3    H144688   0.123   6.618   0.145 -0.9158 -1.4466  1.1338
14922TIP3    H244689  -0.009   6.598   0.073 -0.0305  1.1839 -1.3220
14923TIP3   OH244690   0.467   5.178   0.541  0.0238 -0.3652  0.0910
14923TIP3    H144691   0.533   5.246   0.529 -0.2558  0.1360  1.3543
14923TIP3    H244692   0.400   5.198   0.475  1.5404 -1.4073 -1.8066
14924TIP3   OH244693   0.185   5.468   1.548  0.8620  0.4678 -0.3656
14924TIP3    H144694   0.264   5.482   1.495  0.9280 -3.0328 -1.2889
14924TIP3    H244695   0.114   5.464   1.484  0.5129 -0.5631  0.0747
14925TIP3   OH244696   7.101   6.624   1.470  0.1807 -0.4177  0.2430
14925TIP3    H144697   7.136   6.562   1.534 -2.8521 -1.0515  1.3683
14925TIP3    H244698   7.159   6.699   1.475  2.4735 -2.1653  0.6627
14926TIP3   OH244699   1.153   6.921   1.162  0.5235 -0.1542  0.4574
14926TIP3    H144700   1.084   6.987   1.158  1.8187  1.3613  1.9470
14926TIP3    H244701   1.112   6.845   1.202 -0.1812  0.8810  1.7335
14927TIP3   OH244702   5.364   5.582   2.732 -0.0630 -0.2061 -0.5836
14927TIP3    H144703   5.312   5.506   2.758  0.0679 -0.4790 -1.0955
14927TIP3    H244704   5.400   5.557   2.647  1.6165 -0.3626  0.1694
14928TIP3   OH244705   7.988   6.559   0.873  0.1775  0.4334 -0.4780
14928TIP3    H144706   8.046   6.527   0.942  0.9962  1.9494 -0.4495
14928TIP3    H244707   7.900   6.556   0.912  0.2940 -1.2384 -0.3003
14929TIP3   OH244708   4.942   0.496   6.601  0.0467 -0.3247 -0.5649
14929TIP3    H144709   4.888   0.518   6.676  0.5726 -0.8990 -0.0198
14929TIP3    H244710   4.924   0.566   6.537 -2.1045 -1.0527 -0.7924
14930TIP3   OH244711   8.275   8.345   1.035 -0.4073 -0.0283 -0.0163
14930TIP3    H144712   8.181   8.360   1.045 -0.2686  2.2137 -1.5573
14930TIP3    H244713   8.313   8.434   1.033  1.6043 -0.8697 -0.6679
14931TIP3   OH244714   0.870   0.114   3.291  0.2004 -0.1284  0.3282
14931TIP3    H144715   0.895   0.076   3.206  1.3507 -0.7578  0.9357
14931TIP3    H244716   0.869   0.039   3.351 -1.3207  0.1996  0.7207
14932TIP3   OH244717   7.981   0.636   4.742  0.3616  0.4576 -0.5537
14932TIP3    H144718   7.919   0.611   4.674  0.1471 -0.0571 -0.1701
14932TIP3    H244719   7.968   0.571   4.811  0.0249  1.4343  0.3106
14933TIP3   OH244720   8.846   5.961   3.516  0.1000  0.1085  0.0926
14933TIP3    H144721   8.940   5.980   3.513  0.1727 -0.3635 -1.0369
14933TIP3    H244722   8.834   5.913   3.597  0.7828  0.4437  0.4008
14934TIP3   OH244723   7.262   5.108   0.304  0.3734 -0.3494 -0.2910
14934TIP3    H144724   7.175   5.146   0.318 -0.0358 -1.6647  0.9097
14934TIP3    H244725   7.270   5.101   0.208 -1.6509 -1.9426 -0.3865
14935TIP3   OH244726   6.194   5.177   3.322 -0.3373 -0.4447 -0.4134
14935TIP3    H144727   6.109   5.135   3.315 -1.4504  1.4564  1.1681
14935TIP3    H244728   6.222   5.189   3.232 -2.0605 -0.4419 -0.9664
14936TIP3   OH244729   3.126   2.760   7.206 -0.9430  0.1035  0.1444
14936TIP3    H144730   3.054   2.696   7.212  0.5064 -1.9123 -2.8404
14936TIP3    H244731   3.101   2.816   7.132  0.6615 -0.8637 -1.1819
14937TIP3   OH244732   7.532   4.948   2.539  0.1294  0.3080  0.0024
14937TIP3    H144733   7.526   4.927   2.446  2.3466 -1.1806  0.1549
14937TIP3    H244734   7.564   4.868   2.580  0.6233  1.4021  1.8342
14938TIP3   OH244735   4.887   6.417   3.065 -0.0910  0.1931  0.1288
14938TIP3    H144736   4.898   6.334   3.020 -1.5813 -0.2843  0.6128
14938TIP3    H244737   4.972   6.460   3.057 -0.2340  0.0230 -2.9093
14939TIP3   OH244738   8.885   0.469   2.192 -0.0147 -0.4639  0.4547
14939TIP3    H144739   8.902   0.376   2.176 -2.0324 -0.9923  1.2791
14939TIP3    H244740   8.827   0.495   2.122  1.0505  0.3544 -0.1341
14940TIP3   OH244741   5.543   7.503   2.125 -0.6506 -0.0250 -0.5376
14940TIP3    H144742   5.500   7.514   2.040 -0.1127 -0.0166 -0.8103
14940TIP3    H244743   5.560   7.593   2.154  0.7384 -0.0492 -1.2309
14941TIP3   OH244744   6.215   2.727   6.434 -0.5441 -0.5721  0.6045
14941TIP3    H144745   6.268   2.670   6.378 -1.1943  1.6571 -2.4410
14941TIP3    H244746   6.268   2.739   6.513  1.5936 -1.7703 -0.5933
14942TIP3   OH244747   4.198   0.082   0.098  0.1619 -0.4205  0.1794
14942TIP3    H144748   4.262   0.138   0.142 -0.0640 -0.9057  1.1326
14942TIP3    H244749   4.181   0.126   0.015  0.5518  0.5288  0.5957
14943TIP3   OH244750   8.242   7.809   0.207  0.6473  0.0130 -0.0284
14943TIP3    H144751   8.330   7.772   0.208  0.2638 -0.9013 -0.0692
14943TIP3    H244752   8.201   7.772   0.129 -0.9994 -2.4278  1.9201
14944TIP3   OH244753   2.505   8.148   2.095 -0.5700 -0.0917  0.3558
14944TIP3    H144754   2.530   8.140   2.003  1.1358  0.4282  0.7455
14944TIP3    H244755   2.539   8.069   2.136 -0.9446 -0.1174  0.6193
14945TIP3   OH244756   5.621   2.967   6.477  0.1543  0.8602  0.6309
14945TIP3    H144757   5.570   2.992   6.554 -1.9391  1.1469 -0.8028
14945TIP3    H244758   5.648   2.877   6.495 -0.1828  0.9732  1.7748
14946TIP3   OH244759   8.560   6.195   2.452  0.6661  0.2191  0.2833
14946TIP3    H144760   8.511   6.122   2.491  0.5736  0.4814  0.6608
14946TIP3    H244761   8.494   6.245   2.404  0.7759 -0.0886 -0.1942
14947TIP3   OH244762   6.059   3.140   6.261 -0.0962 -0.6422 -0.2127
14947TIP3    H144763   6.114   3.091   6.322 -1.3234 -0.9105  0.7152
14947TIP3    H244764   6.113   3.213   6.232  1.0808 -1.4509 -0.0829
14948TIP3   OH244765   6.483   4.227   5.517  0.3805  0.3403 -0.0444
14948TIP3    H144766   6.541   4.289   5.472 -0.2113 -0.6384 -2.2278
14948TIP3    H244767   6.539   4.153   5.539  0.3813  0.2411 -0.3808
14949TIP3   OH244768   7.161   4.862   2.919  0.0894 -0.4872  0.4975
14949TIP3    H144769   7.109   4.919   2.976 -0.1613 -0.5127  0.2982
14949TIP3    H244770   7.158   4.776   2.962  0.9656 -0.2072  1.1040
14950TIP3   OH244771   8.596   7.609   1.388 -0.2740  0.0356 -0.1487
14950TIP3    H144772   8.550   7.559   1.456 -0.0954  0.5309  0.3460
14950TIP3    H244773   8.526   7.636   1.328 -0.4320 -0.4184 -0.1738
14951TIP3   OH244774   8.528   0.390   0.427  0.2176 -0.4296 -0.6199
14951TIP3    H144775   8.511   0.484   0.437 -1.2220 -0.6993 -0.5007
14951TIP3    H244776   8.607   0.386   0.373  0.2179  0.8494 -0.7341
14952TIP3   OH244777   4.853   7.481   1.698 -0.2628 -0.2479  0.2853
14952TIP3    H144778   4.832   7.574   1.688 -1.4084 -0.4142  1.0656
14952TIP3    H244779   4.900   7.458   1.618  0.5225  1.1374  0.3396
14953TIP3   OH244780   3.990   0.518   0.572  0.1341  0.0437 -0.7179
14953TIP3    H144781   3.935   0.580   0.620  2.3391 -0.0137  2.0154
14953TIP3    H244782   3.929   0.454   0.537 -1.8138  1.6358 -0.3207
14954TIP3   OH244783   4.734   0.391   2.274 -0.0204  0.2397  0.4669
14954TIP3    H144784   4.821   0.430   2.289  0.7037 -1.0793 -0.2249
14954TIP3    H244785   4.704   0.430   2.192  0.7908 -0.7996 -0.3315
14955TIP3   OH244786   8.642   0.224   0.940 -0.5117 -0.0509  0.7181
14955TIP3    H144787   8.590   0.303   0.956  0.9406  0.6047  2.4563
14955TIP3    H244788   8.686   0.240   0.857 -0.4766  0.8331  0.9063
14956TIP3   OH244789   3.128   0.231   2.776 -0.1699 -0.0213 -0.4475
14956TIP3    H144790   3.039   0.206   2.754 -0.3941  0.4966 -0.1450
14956TIP3    H244791   3.173   0.149   2.793 -0.3473 -0.3420 -1.5002
14957TIP3   OH244792   1.303   6.122   2.343  0.0165  0.2457  0.0356
14957TIP3    H144793   1.246   6.054   2.378  0.5718  0.4500  1.3423
14957TIP3    H244794   1.352   6.077   2.273 -0.3879 -0.4093  0.1648
14958TIP3   OH244795   2.479   0.716   0.818 -0.7029  0.5768 -0.2747
14958TIP3    H144796   2.531   0.765   0.755 -1.7189  0.7023 -1.0346
14958TIP3    H244797   2.422   0.661   0.765 -0.9546  0.0317  0.5488
14959TIP3   OH244798   5.715   7.069   1.815 -0.1871  0.7733 -0.6535
14959TIP3    H144799   5.704   7.031   1.902  0.3554  1.7656 -0.1472
14959TIP3    H244800   5.693   6.998   1.755  2.4842 -0.9039  0.2482
14960TIP3   OH244801   0.094   8.182   1.720  0.1840 -0.2560 -0.3780
14960TIP3    H144802   0.000   8.163   1.711  0.4833 -1.4047 -1.0678
14960TIP3    H244803   0.117   8.228   1.640  0.3358 -0.4239 -0.4282
14961TIP3   OH244804   1.653   1.301   2.197  0.5250 -0.2736 -0.0658
14961TIP3    H144805   1.724   1.312   2.260  0.7524 -1.5962 -0.0676
14961TIP3    H244806   1.616   1.216   2.219 -2.4864  1.3216  1.3387
14962TIP3   OH244807   8.359   7.987   1.323 -0.5176 -0.0557 -0.3641
14962TIP3    H144808   8.361   7.914   1.385 -0.1502  0.7360  0.5468
14962TIP3    H244809   8.266   8.005   1.310 -0.6055 -0.5935 -0.4873
14963TIP3   OH244810   6.434   6.557   1.971 -0.1792  0.0505  0.4564
14963TIP3    H144811   6.368   6.490   1.951  0.1166 -0.7123  1.9993
14963TIP3    H244812   6.508   6.535   1.914 -0.5997 -0.1210 -0.0295
14964TIP3   OH244813   7.149   3.298   7.029 -0.4146 -0.5018  0.8616
14964TIP3    H144814   7.202   3.315   7.106  0.1255 -3.3923  1.1888
14964TIP3    H244815   7.209   3.310   6.955  0.1416 -1.6502  1.1170
14965TIP3   OH244816   4.283   1.289   2.385  0.1787 -0.0843  0.3713
14965TIP3    H144817   4.188   1.287   2.374  0.2757  0.7989 -0.7424
14965TIP3    H244818   4.296   1.303   2.479 -0.7840 -0.5080  0.5710
14966TIP3   OH244819   7.470   5.910   1.129  0.4703 -0.4019  0.2606
14966TIP3    H144820   7.401   5.975   1.141  0.6006  0.2694 -2.5092
14966TIP3    H244821   7.551   5.958   1.143  0.4863 -0.5607  0.7304
14967TIP3   OH244822   4.952   6.416   5.768 -0.4591  0.0030  0.0389
14967TIP3    H144823   4.932   6.362   5.845 -0.0588 -1.3035 -0.7624
14967TIP3    H244824   4.967   6.353   5.698  0.1245  1.1614 -0.8883
14968TIP3   OH244825   3.437   1.552   1.506  0.5651 -0.1889 -0.0344
14968TIP3    H144826   3.521   1.598   1.506  0.8624 -0.7217 -0.4387
14968TIP3    H244827   3.399   1.573   1.421  0.2748  0.0764  0.1610
14969TIP3   OH244828   8.026   7.359   2.687  0.8193 -0.5104  0.3732
14969TIP3    H144829   8.060   7.448   2.688 -1.9791  0.6275 -0.2828
14969TIP3    H244830   7.981   7.350   2.771 -0.4817 -0.6225 -0.3191
14970TIP3   OH244831   5.957   4.252   7.151  0.2051  0.0413 -0.0514
14970TIP3    H144832   5.945   4.313   7.223 -1.1409  0.0685 -0.2702
14970TIP3    H244833   5.919   4.297   7.075  0.1392 -0.6419 -0.4327
14971TIP3   OH244834   6.235   3.158   6.917  0.9021  0.2491  0.1537
14971TIP3    H144835   6.224   3.073   6.875  1.5516  0.2412 -0.0014
14971TIP3    H244836   6.325   3.184   6.896  1.0532  0.4909  1.0999
14972TIP3   OH244837   3.298   1.146   0.477  0.1128 -0.0700 -0.5260
14972TIP3    H144838   3.257   1.078   0.424  1.1719 -1.0949 -0.0555
14972TIP3    H244839   3.392   1.137   0.459  0.3769  0.3424  0.6281
14973TIP3   OH244840   5.213   3.526   6.774 -0.2138 -0.4155 -0.6637
14973TIP3    H144841   5.137   3.542   6.829 -0.2561 -1.6768 -0.3547
14973TIP3    H244842   5.271   3.600   6.791 -1.6268  0.8942 -1.3781
14974TIP3   OH244843   8.339   7.558   0.986  0.5223 -0.4113 -0.0209
14974TIP3    H144844   8.272   7.583   0.923  1.4734 -4.2441 -2.7355
14974TIP3    H244845   8.421   7.588   0.948  1.0561 -2.3327 -0.4202
14975TIP3   OH244846   8.677   6.925   0.232 -0.1926  0.3101 -0.0959
14975TIP3    H144847   8.688   7.018   0.251 -1.3152  0.8167 -1.7819
14975TIP3    H244848   8.589   6.905   0.263 -0.3684  0.0888 -0.7222
14976TIP3   OH244849   8.201   7.271   0.585  0.6430 -0.1285  0.1991
14976TIP3    H144850   8.233   7.184   0.611 -2.1767 -0.7690  1.6991
14976TIP3    H244851   8.154   7.255   0.504  0.6592  0.1179  0.1420
14977TIP3   OH244852   0.347   4.753   0.142  0.8063  0.7050  0.0047
14977TIP3    H144853   0.357   4.847   0.158  2.8602  0.5375 -0.1041
14977TIP3    H244854   0.365   4.713   0.227 -0.6879  0.4223  0.2034
14978TIP3   OH244855   6.310   6.699   6.507  0.1525 -0.0345  0.2482
14978TIP3    H144856   6.298   6.749   6.426  0.7459 -1.3475 -0.6569
14978TIP3    H244857   6.243   6.631   6.504 -0.2105  0.2714  1.1544
14979TIP3   OH244858   0.056   7.927   2.947 -0.4977  0.1525  0.2476
14979TIP3    H144859   0.025   8.005   2.901 -1.3105 -0.1149  0.3374
14979TIP3    H244860   0.150   7.926   2.931 -0.5373  0.9453 -0.0695
14980TIP3   OH244861   5.392   3.360   5.927 -0.0396  0.5394  0.1221
14980TIP3    H144862   5.327   3.291   5.910 -0.3862  0.6967  0.8209
14980TIP3    H244863   5.343   3.431   5.966  1.0124 -0.5062  3.5314
14981TIP3   OH244864   6.307   2.545   6.243  0.1358 -0.6414 -0.5686
14981TIP3    H144865   6.215   2.572   6.238  0.3154  0.0906  0.0824
14981TIP3    H244866   6.328   2.516   6.154 -0.2954  0.5751 -1.0742
14982TIP3   OH244867   3.243   0.037   0.033 -0.1212 -0.0063  0.2834
14982TIP3    H144868   3.235   0.131   0.023 -0.4984 -0.0837 -0.1332
14982TIP3    H244869   3.164   0.010   0.079  0.1314 -0.0777  0.6821
14983TIP3   OH244870   1.227   7.661   1.442 -0.0738 -0.3631 -0.1931
14983TIP3    H144871   1.235   7.753   1.417  1.1304  0.0593  1.7076
14983TIP3    H244872   1.136   7.639   1.421 -0.1798  1.0462 -1.3101
14984TIP3   OH244873   0.848   8.085   2.266  0.3791 -0.0065  0.1034
14984TIP3    H144874   0.816   8.007   2.221 -1.7767  1.3012 -0.6902
14984TIP3    H244875   0.787   8.097   2.339  1.0934  0.5884  0.6157
14985TIP3   OH244876   7.468   7.314   1.219  0.3998 -0.3220 -0.2644
14985TIP3    H144877   7.474   7.218   1.212 -0.4721 -0.5568  1.7939
14985TIP3    H244878   7.385   7.336   1.177  0.3159 -0.5351 -0.2098
14986TIP3   OH244879   6.863   3.249   6.251 -0.0945  0.0871  0.7959
14986TIP3    H144880   6.863   3.165   6.298  1.8738 -0.1667  0.3726
14986TIP3    H244881   6.909   3.309   6.309  1.0184  0.1493 -0.1387
14987TIP3   OH244882   1.913   0.228   1.765 -0.1359 -0.4613 -0.1006
14987TIP3    H144883   1.975   0.157   1.752  0.3907 -0.0420  0.1025
14987TIP3    H244884   1.827   0.186   1.760  0.1852 -1.2537  0.8971
14988TIP3   OH244885   7.632   8.286   1.459 -0.3316  0.0483  0.1419
14988TIP3    H144886   7.587   8.279   1.542  0.8902  2.4487  1.0632
14988TIP3    H244887   7.713   8.236   1.471 -0.8226 -0.8161 -0.1126
14989TIP3   OH244888   4.623   1.908   3.220  0.8326  0.5678 -0.3739
14989TIP3    H144889   4.562   1.839   3.245 -1.3209  1.9510 -1.6947
14989TIP3    H244890   4.709   1.871   3.239 -0.3403 -1.8263  0.5347
14990TIP3   OH244891   0.464   8.402   0.555 -0.3167  0.2605  0.0682
14990TIP3    H144892   0.510   8.321   0.536 -0.6731  0.5801 -2.3104
14990TIP3    H244893   0.385   8.375   0.603  0.1182 -0.6800  0.2514
14991TIP3   OH244894   2.232   4.376   6.654  0.2405  0.0336 -0.0163
14991TIP3    H144895   2.180   4.309   6.610  0.2140 -1.2484  1.9424
14991TIP3    H244896   2.263   4.335   6.734  2.2681  1.5760  0.0455
14992TIP3   OH244897   0.596   0.163   0.762  0.2565  0.0994 -0.4142
14992TIP3    H144898   0.579   0.075   0.796 -0.8774  0.3718 -0.2554
14992TIP3    H244899   0.669   0.151   0.701  0.2451 -0.9221 -0.2384
14993TIP3   OH244900   5.382   4.424   6.941 -0.5888 -0.2755  0.5152
14993TIP3    H144901   5.358   4.501   6.890 -0.9123 -1.5005 -1.2628
14993TIP3    H244902   5.476   4.431   6.953 -0.6577  0.5263  0.5777
14994TIP3   OH244903   4.635   3.801   5.174 -0.4539 -0.3809  0.1636
14994TIP3    H144904   4.547   3.837   5.167 -0.4980 -0.6929 -1.1896
14994TIP3    H244905   4.622   3.712   5.206 -0.6493 -0.4605 -0.1317
14995TIP3   OH244906   6.903   3.458   6.931  0.5272  0.0264  0.2298
14995TIP3    H144907   6.970   3.390   6.945  1.3007  0.5874 -0.6599
14995TIP3    H244908   6.822   3.409   6.917  0.9586 -0.6999  0.2231
14996TIP3   OH244909   0.931  -0.015   2.723 -0.3926  0.8984 -0.0750
14996TIP3    H144910   0.868  -0.032   2.653 -0.8751  0.8086  0.3832
14996TIP3    H244911   0.915   0.075   2.749 -1.0859  0.5205  0.8088
14997TIP3   OH244912   6.973   7.039   3.079  0.0924  0.7074  0.7855
14997TIP3    H144913   6.884   7.073   3.088 -0.2156  0.7541 -2.0140
14997TIP3    H244914   6.987   7.032   2.984  2.5750 -0.6058  1.1962
14998TIP3   OH244915   1.691   6.719   0.256 -0.2652  0.1282 -0.3564
14998TIP3    H144916   1.706   6.779   0.329  0.9938 -2.2605  1.4328
14998TIP3    H244917   1.619   6.662   0.285 -2.0223  1.2667 -2.3719
14999TIP3   OH244918   4.572   0.758   6.733  0.3304 -0.2855  0.6507
14999TIP3    H144919   4.627   0.769   6.810  1.5923 -2.8828  0.1696
14999TIP3    H244920   4.516   0.683   6.754  1.1019 -1.3938 -1.1548
15000TIP3   OH244921   0.271   8.332   1.217  0.1672  0.5051 -0.0441
15000TIP3    H144922   0.237   8.385   1.145  0.4038  1.0028  0.2075
15000TIP3    H244923   0.365   8.353   1.220 -0.0294  1.2550  1.0580
15001TIP3   OH244924   6.575   5.497   1.189 -0.0290  0.1745  0.5242
15001TIP3    H144925   6.589   5.440   1.264  0.4340  0.4418  0.6435
15001TIP3    H244926   6.485   5.479   1.161 -0.3449  0.3854  1.4006
15002TIP3   OH244927   5.668   6.410   2.124  0.6231 -0.7828 -0.4907
15002TIP3    H144928   5.618   6.402   2.042  1.2087  0.9759 -1.0249
15002TIP3    H244929   5.737   6.344   2.116 -0.1878 -1.6162 -0.7721
15003TIP3   OH244930   7.817   7.149   0.423 -0.6289  0.1439 -0.0073
15003TIP3    H144931   7.747   7.126   0.362 -1.2239  0.0932  0.6837
15003TIP3    H244932   7.819   7.078   0.486  0.6364 -0.2834 -0.5078
15004TIP3   OH244933   3.255   0.639   1.836  0.2996  0.4671 -0.2814
15004TIP3    H144934   3.306   0.719   1.827 -0.5689  1.1303  0.5470
15004TIP3    H244935   3.170   0.660   1.797 -0.5819  0.5785  1.6498
15005TIP3   OH244936   3.176   0.806   3.024  0.5724 -0.0573  0.1310
15005TIP3    H144937   3.129   0.886   3.000  1.1555  0.2046 -0.1623
15005TIP3    H244938   3.111   0.752   3.068  0.1288  0.5084  0.1771
15006TIP3   OH244939   6.450   2.914   6.679 -0.2905  0.4696 -0.2053
15006TIP3    H144940   6.489   2.852   6.618  0.0630 -0.4109  0.8901
15006TIP3    H244941   6.363   2.880   6.696 -0.4003  0.7284 -0.2462
15007TIP3   OH244942   5.459   0.037   5.537 -0.5651  0.1484  0.7764
15007TIP3    H144943   5.515   0.012   5.464  1.8622  0.7957  2.3727
15007TIP3    H244944   5.463  -0.037   5.597  0.1285  1.0076  1.7923
15008TIP3   OH244945   8.170   5.943   0.638  0.5289 -0.5466 -0.1247
15008TIP3    H144946   8.262   5.951   0.615  0.2475 -2.2047 -1.9863
15008TIP3    H244947   8.148   6.025   0.682  2.2101  0.9319 -1.9905
15009TIP3   OH244948   6.876   5.309   1.193 -0.3191  0.0391 -0.1587
15009TIP3    H144949   6.922   5.333   1.112 -0.3716 -0.4984 -0.3523
15009TIP3    H244950   6.883   5.386   1.248 -3.5076  1.8427 -2.0973
15010TIP3   OH244951   2.220   0.178   2.148 -0.3564 -0.0745 -0.2822
15010TIP3    H144952   2.125   0.179   2.154 -0.3336 -0.5221  0.1892
15010TIP3    H244953   2.240   0.232   2.071 -1.0271 -0.6712 -0.8777
15011TIP3   OH244954   7.585   5.479   2.486  0.4513 -0.9058  0.5313
15011TIP3    H144955   7.659   5.531   2.516  0.6304 -0.8735  0.0327
15011TIP3    H244956   7.624   5.407   2.436  0.1299 -0.6244 -0.1365
15012TIP3   OH244957   8.680   5.583   1.391  0.2803  0.7346 -0.2126
15012TIP3    H144958   8.717   5.646   1.453  0.9579  0.2489 -0.1185
15012TIP3    H244959   8.746   5.514   1.385 -0.1515  0.3758 -0.8458
15013TIP3   OH244960   6.243   2.132   6.540  0.1405  0.0120 -0.3029
15013TIP3    H144961   6.294   2.056   6.567 -0.0936 -0.1326 -0.2616
15013TIP3    H244962   6.273   2.203   6.596 -0.3606 -0.2911  0.3587
15014TIP3   OH244963   8.584   6.689   0.955  0.0093  0.2431  0.4508
15014TIP3    H144964   8.561   6.612   0.902 -1.4619  2.1095 -1.7118
15014TIP3    H244965   8.646   6.737   0.901  1.1695  0.4510  1.9350
15015TIP3   OH244966   6.499   4.277   6.344 -0.1805 -0.2863  0.2392
15015TIP3    H144967   6.490   4.183   6.331  1.8143 -0.4460 -0.1836
15015TIP3    H244968   6.470   4.316   6.262  2.1441 -0.7439 -0.8631
15016TIP3   OH244969   6.944   8.067   2.144  0.1325 -0.3094  0.0922
15016TIP3    H144970   7.004   7.993   2.133 -0.0684 -0.5018  0.2835
15016TIP3    H244971   6.860   8.033   2.115 -0.5702 -1.0570  2.8265
15017TIP3   OH244972   8.383   8.162   0.857 -0.2897  0.2587 -0.8837
15017TIP3    H144973   8.405   8.188   0.767  2.6084  0.2346 -0.2223
15017TIP3    H244974   8.375   8.244   0.904  1.4350  0.1878 -0.4520
15018TIP3   OH244975   8.651   7.004   4.204  0.2348  0.7122  0.2162
15018TIP3    H144976   8.642   6.966   4.117  0.9004 -1.1154  0.9143
15018TIP3    H244977   8.653   6.929   4.263  1.6603  1.8296  1.6405
15019TIP3   OH244978   8.172   8.013   0.941  0.2979  0.1667  0.0186
15019TIP3    H144979   8.247   8.070   0.923 -0.2623  0.6105 -0.9866
15019TIP3    H244980   8.156   8.022   1.035 -0.8629  3.0613 -0.4077
15020TIP3   OH244981   6.906   8.030   0.773 -0.1511  0.5099  0.0924
15020TIP3    H144982   6.842   8.024   0.703 -1.9944  0.1867  1.7826
15020TIP3    H244983   6.990   8.016   0.729 -1.5362 -4.1978 -1.4049
15021TIP3   OH244984   6.594   5.652   4.649  0.2078  0.0231  0.3018
15021TIP3    H144985   6.637   5.600   4.581  1.6761  1.3413  0.1928
15021TIP3    H244986   6.640   5.736   4.647  0.6340 -0.0751  3.2801
15022TIP3   OH244987   7.999   6.005   1.498 -0.5001  0.3332 -0.4203
15022TIP3    H144988   7.944   5.997   1.576 -1.0175 -0.8775 -0.9026
15022TIP3    H244989   7.979   6.092   1.463 -0.6594  0.6668  0.4876
15023TIP3   OH244990   1.130   0.085   0.170  0.5878  0.1338  0.0558
15023TIP3    H144991   1.143   0.164   0.119 -1.0404  0.3760 -0.0190
15023TIP3    H244992   1.181   0.100   0.250  0.2942  1.2703  0.0459
15024TIP3   OH244993   5.237   4.661   6.898  0.5266 -0.1885  0.1858
15024TIP3    H144994   5.149   4.643   6.865  0.7835  0.1746 -0.7261
15024TIP3    H244995   5.228   4.660   6.993 -1.0234  2.4330  0.1104
15025TIP3   OH244996   7.773   7.269   0.702  0.4227  0.6457  0.1669
15025TIP3    H144997   7.692   7.302   0.663  0.3655 -0.0048 -0.2585
15025TIP3    H244998   7.794   7.191   0.652  0.2635 -0.2981  1.5404
15026TIP3   OH244999   6.709   4.762   6.299 -0.1319  0.0121 -0.0517
15026TIP3    H145000   6.758   4.713   6.365 -0.0334 -0.2005 -0.2781
15026TIP3    H245001   6.761   4.841   6.285  0.2946 -0.3402 -0.4893
15027TIP3   OH245002   8.629   7.433   3.542 -0.2435 -0.4038 -0.0081
15027TIP3    H145003   8.695   7.409   3.477 -0.1516 -0.3827  0.0768
15027TIP3    H245004   8.667   7.509   3.587 -1.6480  1.5268 -1.9982
15028TIP3   OH245005   7.255   7.255   2.293 -0.2553 -0.5535 -0.1954
15028TIP3    H145006   7.231   7.222   2.207  0.5973 -1.5524 -0.0582
15028TIP3    H245007   7.191   7.215   2.353 -0.2955 -0.5706 -0.2502
15029TIP3   OH245008   4.050   0.045   1.407  0.5265 -0.0983 -0.2383
15029TIP3    H145009   4.008   0.066   1.324 -1.5682  0.2020  0.8667
15029TIP3    H245010   4.044   0.126   1.458  1.2984 -0.4426  0.4060
15030TIP3   OH245011   7.091   2.034   6.594  0.5036 -0.2485 -0.1292
15030TIP3    H145012   7.106   2.078   6.678 -1.1348  0.6186 -0.2624
15030TIP3    H245013   7.064   2.105   6.535  1.7607 -0.8314 -1.4216
15031TIP3   OH245014   8.696   8.150   1.677 -0.1279  0.0312 -0.4071
15031TIP3    H145015   8.708   8.169   1.584 -1.8290 -1.8299 -1.0398
15031TIP3    H245016   8.636   8.217   1.708 -1.1439 -0.5153 -1.1512
15032TIP3   OH245017   2.537   0.433   1.501  0.0033  0.3746  0.1792
15032TIP3    H145018   2.450   0.416   1.537 -0.1533 -1.3640 -0.9428
15032TIP3    H245019   2.520   0.465   1.412  0.4997  0.3160  0.0620
15033TIP3   OH245020   6.571   4.089   6.608 -0.1576  0.9403 -0.3653
15033TIP3    H145021   6.479   4.073   6.631  0.0013  0.9019  0.2543
15033TIP3    H245022   6.573   4.085   6.513 -0.0845 -2.9410 -0.2578
15034TIP3   OH245023   8.025   6.315   0.006  0.1274 -0.2436  0.2686
15034TIP3    H145024   8.084   6.337   0.078  0.4042  0.3016 -0.1167
15034TIP3    H245025   8.024   6.394  -0.049  0.8830 -1.0703 -0.9655
15035TIP3   OH245026   5.678   4.644   6.552 -0.2383  0.4715  0.4364
15035TIP3    H145027   5.598   4.692   6.532 -0.3842  0.0357 -0.0378
15035TIP3    H245028   5.739   4.668   6.483 -1.3560 -2.5031 -1.6882
15036TIP3   OH245029   8.693   7.191   2.690 -0.4260 -0.4190 -0.4677
15036TIP3    H145030   8.774   7.154   2.724 -0.9478 -0.7028  0.4897
15036TIP3    H245031   8.704   7.192   2.595  1.0392  0.3308 -0.3030
15037TIP3   OH245032   6.888   4.649   5.147 -0.0806  0.3557  0.1597
15037TIP3    H145033   6.873   4.704   5.070 -0.2336  0.9858  0.6396
15037TIP3    H245034   6.982   4.631   5.145 -0.1031  0.2714 -0.2365
15038TIP3   OH245035   5.826   5.389   7.260 -0.0393  0.0633 -0.3474
15038TIP3    H145036   5.902   5.336   7.285 -0.2651  0.3098  0.9525
15038TIP3    H245037   5.769   5.330   7.213 -0.1034 -0.7578  0.7333
15039TIP3   OH245038   0.124   7.005   0.985  0.3613 -0.0878  0.0482
15039TIP3    H145039   0.110   6.943   1.057  0.1358 -0.4734 -0.3272
15039TIP3    H245040   0.113   7.091   1.025  0.4099 -0.2983  0.5146
15040TIP3   OH245041   5.171   7.312   6.908 -0.2862 -0.0818 -0.1757
15040TIP3    H145042   5.247   7.341   6.858 -0.4810  0.4844 -0.1513
15040TIP3    H245043   5.101   7.304   6.844 -0.3588 -0.0241 -0.1053
15041TIP3   OH245044   6.925   3.429   6.003  0.1950  0.2399  0.2195
15041TIP3    H145045   7.013   3.443   5.969 -0.3573  0.7227 -1.0543
15041TIP3    H245046   6.898   3.516   6.036  0.0117  0.2065  0.1613
15042TIP3   OH245047   6.869   5.250   7.085  0.0697 -0.6515 -0.0334
15042TIP3    H145048   6.816   5.298   7.148  0.4264 -0.2010 -0.0770
15042TIP3    H245049   6.818   5.171   7.067 -0.2385 -0.5794  0.4880
15043TIP3   OH245050   8.192   8.367   0.515  0.1305  0.1732 -0.3451
15043TIP3    H145051   8.266   8.331   0.565  0.4760  0.3894 -0.6952
15043TIP3    H245052   8.219   8.360   0.424 -0.4260 -0.0505 -0.4926
15044TIP3   OH245053   4.984   5.035   5.528 -0.5372  0.1356 -0.0895
15044TIP3    H145054   5.003   4.968   5.462 -2.2182 -0.3681 -0.0878
15044TIP3    H245055   5.017   4.998   5.610 -0.1762 -0.0763 -0.3308
15045TIP3   OH245056   4.997   4.482   6.779 -0.3028 -0.7939  0.0273
15045TIP3    H145057   4.977   4.436   6.697 -1.8620  0.8737 -0.5736
15045TIP3    H245058   4.916   4.530   6.799  1.3068  1.7602  0.5620
15046TIP3   OH245059   8.300   6.324   0.605 -0.8266 -0.2588  0.3125
15046TIP3    H145060   8.245   6.260   0.650  0.8101 -1.3150  0.8555
15046TIP3    H245061   8.248   6.404   0.603 -1.5617 -0.6338  2.7148
15047TIP3   OH245062   8.245   8.043   2.329  0.1055 -0.3530  0.0094
15047TIP3    H145063   8.264   8.085   2.245  0.8932 -0.2841  0.2147
15047TIP3    H245064   8.325   7.993   2.350 -0.3389 -0.9208  0.3851
15048TIP3   OH245065   6.583   5.287   6.977  0.1957 -0.0091  0.0071
15048TIP3    H145066   6.539   5.228   7.038  0.0175  0.7618  0.6263
15048TIP3    H245067   6.541   5.270   6.892 -2.0266  1.4466  0.7713
15049TIP3   OH245068   1.060   8.166   1.692  0.0999  0.6591 -0.1734
15049TIP3    H145069   1.032   8.213   1.770  0.1797  1.2403 -0.4842
15049TIP3    H245070   1.156   8.177   1.691  0.2860 -0.8164  0.5747
15050TIP3   OH245071   4.635   1.196   6.116 -0.2525  0.0042 -0.1880
15050TIP3    H145072   4.621   1.202   6.211  0.4290  0.9795 -0.1352
15050TIP3    H245073   4.675   1.109   6.104  1.4015  0.6059  0.6669
15051TIP3   OH245074   8.225   7.774   2.356  0.4521  0.2424  0.3786
15051TIP3    H145075   8.213   7.867   2.334 -1.7293  0.1297  0.9171
15051TIP3    H245076   8.175   7.763   2.437  1.6983 -1.1485  0.9694
15052TIP3   OH245077   6.791   7.393   3.208 -0.3444 -0.3839  0.0370
15052TIP3    H145078   6.778   7.446   3.129 -0.9094 -1.2943 -0.4825
15052TIP3    H245079   6.884   7.404   3.228 -0.8644  2.4215  1.1153
15053TIP3   OH245080   7.122   8.025   0.621 -0.7294 -0.6117 -0.0755
15053TIP3    H145081   7.179   8.100   0.605 -1.2096  0.0846  1.3725
15053TIP3    H245082   7.180   7.950   0.624 -0.1173 -0.1546 -0.5036
15054TIP3   OH245083   7.277   5.998   1.388  0.4298  0.1692 -0.2143
15054TIP3    H145084   7.317   6.060   1.327  1.7674 -1.6280 -1.2066
15054TIP3    H245085   7.328   6.006   1.468  0.4651  0.4929 -0.2703
15055TIP3   OH245086   0.601   7.099   1.346  0.0988 -0.1121  0.0165
15055TIP3    H145087   0.563   7.161   1.283  0.8417 -0.0561 -0.3805
15055TIP3    H245088   0.656   7.153   1.403 -0.1424 -0.2430  0.3695
15056TIP3   OH245089   7.435   6.738   3.024 -0.0128 -0.0318 -0.2064
15056TIP3    H145090   7.436   6.798   3.098 -0.5562 -0.2207 -0.0390
15056TIP3    H245091   7.450   6.794   2.948 -2.0512  0.5771 -0.2077
15057TIP3   OH245092   8.298   7.035   1.431  0.2621  0.0384  0.2661
15057TIP3    H145093   8.207   7.041   1.459  0.8167  0.2985  2.0788
15057TIP3    H245094   8.296   6.978   1.354 -1.7251  2.0017 -1.2003
15058TIP3   OH245095   6.779   4.460   7.162  0.0176 -0.2438  0.1616
15058TIP3    H145096   6.772   4.390   7.097 -1.3853  0.2964 -0.2942
15058TIP3    H245097   6.786   4.540   7.109 -0.7018  0.1579  0.6706
15059TIP3   OH245098   6.599   5.571   6.040  0.3861 -0.2022 -0.4890
15059TIP3    H145099   6.589   5.595   6.133  0.6951 -0.4215 -0.3979
15059TIP3    H245100   6.693   5.555   6.030  0.0999 -2.0273 -0.3965
15060TIP3   OH245101   5.907   6.633   3.190  0.4503  0.0617  0.7186
15060TIP3    H145102   5.819   6.638   3.153  0.8195  0.0111 -0.1611
15060TIP3    H245103   5.895   6.589   3.274 -0.1574 -1.2307 -0.0469
15061TIP3   OH245104   7.742   7.184   2.455 -0.2880  0.0359  0.2904
15061TIP3    H145105   7.668   7.241   2.474  0.0424  1.0661 -1.3923
15061TIP3    H245106   7.752   7.189   2.360  2.6169  0.8308  0.5861
15062TIP3   OH245107   2.725   0.661   1.918 -0.0138  0.2206 -0.2547
15062TIP3    H145108   2.645   0.700   1.951  0.2157  0.4206  0.0683
15062TIP3    H245109   2.702   0.629   1.830  0.1470  2.2517 -1.0647
15063TIP3   OH245110   3.765   4.539   6.240 -0.0915 -0.0229  0.4786
15063TIP3    H145111   3.825   4.470   6.214 -0.0370  0.1975  0.0280
15063TIP3    H245112   3.821   4.615   6.258 -0.0961 -0.2702  1.5615
15064TIP3   OH245113   0.123   6.389   0.377 -0.5623 -0.1046 -0.3380
15064TIP3    H145114   0.036   6.391   0.417 -0.2403  2.4688  0.3546
15064TIP3    H245115   0.106   6.379   0.283 -1.6802  1.3859 -0.3189
15065TIP3   OH245116   4.388   1.408   6.613 -0.1244 -0.0522 -0.2207
15065TIP3    H145117   4.364   1.351   6.540 -2.3722  1.5116 -0.7645
15065TIP3    H245118   4.379   1.353   6.690  0.9374 -1.3407 -0.9929
15066TIP3   OH245119   4.667   3.895   6.488 -0.2345 -0.0286 -0.2060
15066TIP3    H145120   4.657   3.986   6.516 -0.0766  0.2030 -0.8865
15066TIP3    H245121   4.734   3.898   6.420 -0.2820 -0.6447 -0.2833
15067TIP3   OH245122   8.675   7.047   1.654 -0.6569 -0.1642 -0.2665
15067TIP3    H145123   8.660   6.953   1.647  0.8980 -0.3240 -1.6241
15067TIP3    H245124   8.746   7.065   1.593 -0.6129  1.8198  0.3306
15068TIP3   OH245125   4.642   4.129   5.513  0.2024  0.0535 -0.0607
15068TIP3    H145126   4.716   4.143   5.572  0.5834 -0.9872 -0.2794
15068TIP3    H245127   4.675   4.069   5.446 -1.0514 -1.0395  0.2697
15069TIP3   OH245128   0.808   8.372   0.156  0.3083  0.5695  0.0863
15069TIP3    H145129   0.713   8.372   0.170  0.1555 -0.1002 -0.9361
15069TIP3    H245130   0.843   8.412   0.236 -0.7941  0.3607  0.6939
15070TIP3   OH245131   8.246   4.625   1.002 -0.2579 -0.1945  0.3623
15070TIP3    H145132   8.174   4.564   0.987  0.4046 -0.9504  0.2073
15070TIP3    H245133   8.204   4.706   1.030 -1.2081 -0.3762 -0.5264
15071TIP3   OH245134   7.226   7.440   0.769 -0.2142  0.1540  0.0594
15071TIP3    H145135   7.281   7.495   0.714 -0.1915  0.6734  0.6007
15071TIP3    H245136   7.181   7.501   0.827  0.7116 -0.4848  1.4780
15072TIP3   OH245137   1.167   7.315   0.732 -0.0584  0.1723  0.1363
15072TIP3    H145138   1.253   7.295   0.769  0.0420 -0.5338 -0.4678
15072TIP3    H245139   1.185   7.344   0.643 -0.5180 -1.1885 -0.4242
15073TIP3   OH245140   0.086   7.406   3.120 -0.2282  0.1579  0.0426
15073TIP3    H145141   0.040   7.448   3.048 -0.7599  0.5413  0.5904
15073TIP3    H245142   0.177   7.433   3.110  0.4138 -2.7316 -2.5793
15074TIP3   OH245143   8.017   6.224   0.861  0.2437 -0.6390  0.3615
15074TIP3    H145144   8.048   6.268   0.940  0.7832 -0.6301  0.1518
15074TIP3    H245145   7.968   6.292   0.814  1.0169 -0.2689  0.0718
15075TIP3   OH245146   2.524   0.814   1.997 -0.1311  0.0280  0.4388
15075TIP3    H145147   2.498   0.899   2.032  0.4827 -0.0417  1.0782
15075TIP3    H245148   2.442   0.765   1.989 -0.4713  0.6352  0.1844
15076TIP3   OH245149   6.229   3.919   7.244 -0.1281  0.1544  0.4204
15076TIP3    H145150   6.267   4.001   7.278 -1.4681  0.5537  0.9690
15076TIP3    H245151   6.292   3.852   7.270  1.5142  1.1146 -0.9328
15077TIP3   OH245152   7.680   7.705   2.257  0.0809 -0.3077  0.1544
15077TIP3    H145153   7.750   7.770   2.257 -0.0104 -0.1846 -1.5077
15077TIP3    H245154   7.716   7.630   2.303  0.4619  0.6324  1.4105
15078TIP3   OH245155   3.217   1.142   3.065  0.0254 -0.1829 -0.1535
15078TIP3    H145156   3.135   1.094   3.079 -0.6559  0.9095 -0.2901
15078TIP3    H245157   3.192   1.234   3.074  1.5289  0.1173  1.2529
15079TIP3   OH245158   8.223   8.336   2.030  0.2819 -0.2436 -0.5110
15079TIP3    H145159   8.319   8.337   2.025  0.3765 -1.0670  0.9566
15079TIP3    H245160   8.201   8.413   2.081  0.1985 -0.3766 -0.3461
15080TIP3   OH245161   0.090   6.843   1.214  0.4655  0.0749  0.0941
15080TIP3    H145162   0.003   6.865   1.246  0.3903 -0.0362 -0.0313
15080TIP3    H245163   0.087   6.749   1.199  0.7378  0.0007  0.4887
15081TIP3   OH245164   4.327   1.608   0.039  0.3453 -0.6379 -0.6743
15081TIP3    H145165   4.348   1.692  -0.002 -0.2462  1.7790  3.6344
15081TIP3    H245166   4.278   1.632   0.118 -0.6793 -5.1149  0.1745
15082TIP3   OH245167   2.690   1.824   5.540 -0.9493  0.8362 -0.3179
15082TIP3    H145168   2.774   1.787   5.513 -1.4383  2.1069 -3.8217
15082TIP3    H245169   2.712   1.891   5.604  0.5042 -0.4920  0.5969
15083TIP3   OH245170   6.203   5.823   6.233 -0.5359 -0.0887 -0.2869
15083TIP3    H145171   6.216   5.728   6.238  1.3775 -0.0615 -3.3896
15083TIP3    H245172   6.266   5.859   6.295  0.2734 -0.7690 -0.7087
15084TIP3   OH245173   6.878   7.668   1.710 -0.1085  0.0254  0.4357
15084TIP3    H145174   6.887   7.588   1.658 -0.2406  0.0846  0.3213
15084TIP3    H245175   6.784   7.682   1.717 -0.1224 -0.7378  1.8617
15085TIP3   OH245176   7.439   5.944   6.993 -0.0928  0.2013 -0.6929
15085TIP3    H145177   7.513   6.004   6.994 -0.3601  0.5354  0.3618
15085TIP3    H245178   7.421   5.929   6.900 -0.1702  1.9460 -0.9727
15086TIP3   OH245179   6.426   3.560   6.551 -0.5593  0.2211 -0.0748
15086TIP3    H145180   6.468   3.593   6.472 -2.8556  3.5332 -0.0222
15086TIP3    H245181   6.343   3.524   6.521 -1.2056  1.0064  0.7622
15087TIP3   OH245182   3.410   0.025   1.540 -0.0875 -0.4488  0.7322
15087TIP3    H145183   3.503   0.015   1.523  0.0460 -2.7912  2.5269
15087TIP3    H245184   3.367  -0.024   1.469  0.1441 -1.5484  1.3416
15088TIP3   OH245185   7.321   5.570   6.634 -0.5489 -0.3522  0.2976
15088TIP3    H145186   7.381   5.517   6.581 -0.3795  2.0330 -2.0314
15088TIP3    H245187   7.359   5.658   6.632 -1.5986  0.2139  2.8389
15089TIP3   OH245188   5.438   5.318   6.303  0.7443  0.1043  0.4966
15089TIP3    H145189   5.397   5.232   6.296 -0.1162  0.4532  1.1727
15089TIP3    H245190   5.469   5.337   6.215 -1.1146  0.1041 -0.1908
15090TIP3   OH245191   5.808   3.961   7.039  0.4744 -0.3346 -0.1404
15090TIP3    H145192   5.798   4.051   7.008  1.7148  0.1823  0.9239
15090TIP3    H245193   5.863   3.919   6.973 -1.0312 -0.6502 -1.2283
15091TIP3   OH245194   1.904   1.287   2.355 -0.0092  0.0377 -0.0104
15091TIP3    H145195   1.952   1.312   2.275  0.2861  0.9866  0.4595
15091TIP3    H245196   1.893   1.192   2.347 -0.5639  0.2077 -1.5008
15092TIP3   OH245197   7.402   3.508   6.552 -0.2250 -0.6201  0.3119
15092TIP3    H145198   7.456   3.584   6.530 -0.3224 -0.2222  1.4216
15092TIP3    H245199   7.318   3.525   6.509  0.4466 -1.1450 -1.2479
15093TIP3   OH245200   7.074   3.345   6.554  0.1892  0.2711 -0.0730
15093TIP3    H145201   7.094   3.357   6.461 -1.6589  0.7865 -0.4140
15093TIP3    H245202   7.052   3.432   6.586 -0.1146 -0.0590  0.6247
15094TIP3   OH245203   3.227   2.507   0.180 -0.8154 -0.0727 -0.1581
15094TIP3    H145204   3.209   2.416   0.203 -1.0339  0.0217  0.0349
15094TIP3    H245205   3.154   2.532   0.123 -1.1566  0.2286  0.4206
15095TIP3   OH245206   6.642   5.949   0.795  0.2909 -0.0874 -0.0253
15095TIP3    H145207   6.562   5.945   0.847  0.9240 -0.4937  0.9174
15095TIP3    H245208   6.629   5.883   0.726  0.0949 -0.6312  0.5270
15096TIP3   OH245209   8.118   6.646   0.046  0.1234 -0.6855  0.2783
15096TIP3    H145210   8.058   6.719   0.060  1.6811  0.3979  1.4968
15096TIP3    H245211   8.103   6.619  -0.045 -1.1584  0.5034  0.1249
15097TIP3   OH245212   7.566   8.210   1.726  0.0358  0.4859  0.4007
15097TIP3    H145213   7.526   8.282   1.774  1.3567 -1.1909  4.2254
15097TIP3    H245214   7.497   8.145   1.716 -0.4988  1.2243 -0.9408
15098TIP3   OH245215   7.123   8.036   1.257  0.0425 -0.1380 -0.2328
15098TIP3    H145216   7.185   8.089   1.307 -0.4175  0.5203 -0.3525
15098TIP3    H245217   7.130   8.069   1.168  0.6043 -1.0732 -0.5369
15099TIP3   OH245218   8.109   8.044   1.203 -0.0781  0.7003 -0.1981
15099TIP3    H145219   8.023   8.005   1.216  0.4051 -0.2914  0.0876
15099TIP3    H245220   8.092   8.138   1.193 -1.1461  0.5695  0.3209
15100TIP3   OH245221   7.049   3.565   7.157 -0.1505  0.4300  0.2409
15100TIP3    H145222   7.138   3.528   7.163 -0.4908 -0.4423 -0.0194
15100TIP3    H245223   7.042   3.593   7.065 -0.5124 -0.4605 -0.0099
15101TIP3   OH245224   6.693   6.460   1.118  0.4272 -0.8822 -0.1757
15101TIP3    H145225   6.734   6.415   1.044  0.1080  0.0098 -0.9141
15101TIP3    H245226   6.747   6.538   1.130 -1.1615  0.4268 -1.3137
15102TIP3   OH245227   7.871   6.012   2.896  0.0110  0.2794  0.3170
15102TIP3    H145228   7.891   6.060   2.977 -1.9718  0.3672  0.7727
15102TIP3    H245229   7.832   6.078   2.839  1.1096  0.1420 -0.6189
15103TIP3   OH245230   6.830   7.288   2.641 -0.3701 -0.0248  0.3607
15103TIP3    H145231   6.853   7.333   2.560 -0.0153 -0.2569  0.3318
15103TIP3    H245232   6.734   7.290   2.643 -0.3772  0.0338 -0.0321
15104TIP3   OH245233   0.700   7.973   2.874  0.0460 -0.1017 -0.9890
15104TIP3    H145234   0.706   8.029   2.796 -0.7525  0.1449 -0.8770
15104TIP3    H245235   0.778   7.995   2.925  0.9031 -0.6968 -2.0005
15105TIP3   OH245236   4.910   1.972   5.628  0.4508 -0.1915  0.0100
15105TIP3    H145237   4.873   1.954   5.715  0.8007  0.6528  0.3415
15105TIP3    H245238   4.999   2.004   5.646  0.7519 -0.6343 -0.6916
15106TIP3   OH245239   7.969   6.258   1.946 -0.0112  0.5996 -0.8741
15106TIP3    H145240   7.878   6.241   1.923 -1.2596  1.2816  3.2531
15106TIP3    H245241   7.976   6.353   1.951  0.1669  0.4911  1.5170
15107TIP3   OH245242   6.338   3.809   6.151  0.0633 -0.2070 -0.1675
15107TIP3    H145243   6.281   3.734   6.169 -0.7431  0.1024 -1.3828
15107TIP3    H245244   6.424   3.783   6.186 -1.4384  0.4522  4.3191
15108TIP3   OH245245   0.143   4.547   0.618  0.0788 -0.1733  0.0495
15108TIP3    H145246   0.146   4.642   0.627  0.1341 -0.1995  0.3217
15108TIP3    H245247   0.083   4.519   0.687  1.3318 -0.4706  1.0388
15109TIP3   OH245248   0.546   8.397   2.209 -0.0164  0.3623 -0.0642
15109TIP3    H145249   0.602   8.321   2.196 -1.1188 -0.5850  0.5977
15109TIP3    H245250   0.549   8.445   2.126  0.7569 -0.3561 -0.4458
15110TIP3   OH245251   6.153   6.183   7.163  0.1239  0.4748 -0.5044
15110TIP3    H145252   6.213   6.122   7.205  1.7335  2.2089 -0.2440
15110TIP3    H245253   6.117   6.134   7.089  1.9472 -0.5537 -0.7353
15111TIP3   OH245254   7.763   7.628   1.547  0.1393  0.4255  0.2664
15111TIP3    H145255   7.824   7.593   1.612 -0.3656 -1.2124 -0.1209
15111TIP3    H245256   7.749   7.556   1.485 -1.7577  0.9361  0.0577
15112TIP3   OH245257   8.000   6.513   1.977  0.1020 -0.2693 -0.2895
15112TIP3    H145258   8.029   6.605   1.973  0.4088 -0.2957  1.0663
15112TIP3    H245259   7.950   6.507   2.058 -0.2552 -1.2124 -0.5734
15113TIP3   OH245260   7.615   8.105   1.026 -0.3805 -0.2220  0.6595
15113TIP3    H145261   7.559   8.090   0.950  2.5541  0.3070 -1.6752
15113TIP3    H245262   7.656   8.190   1.010  0.0326  0.0693  3.0156
15114TIP3   OH245263   2.319   0.389   0.126  0.0343  0.0204 -0.3791
15114TIP3    H145264   2.323   0.330   0.051  1.6072  0.7222 -0.8717
15114TIP3    H245265   2.272   0.466   0.093 -1.7531 -0.8037  0.1786
15115TIP3   OH245266   8.602   5.935   2.038  0.0020 -0.2644  0.3312
15115TIP3    H145267   8.570   6.006   1.983 -3.1911 -1.6306  0.2799
15115TIP3    H245268   8.639   5.978   2.115 -0.8394  1.5099 -0.2356
15116TIP3   OH245269   2.309   0.568   3.807 -0.4762  0.0201 -0.5068
15116TIP3    H145270   2.376   0.563   3.875 -0.4146 -0.1537 -0.5792
15116TIP3    H245271   2.229   0.592   3.853 -0.4206 -0.0341 -0.3821
15117TIP3   OH245272   6.838   8.305   0.945  0.4551 -0.2559  0.0329
15117TIP3    H145273   6.752   8.268   0.924  0.1508  1.2304 -1.5128
15117TIP3    H245274   6.888   8.296   0.864  0.9630  1.0393  0.1883
15118TIP3   OH245275   8.550   7.597   0.811 -0.1814  0.2594 -0.6119
15118TIP3    H145276   8.591   7.664   0.756 -3.5894  1.4222 -1.8434
15118TIP3    H245277   8.521   7.530   0.749 -1.9357  0.4290  0.0153
15119TIP3   OH245278   0.093   7.997   0.320 -0.0716 -0.3613 -0.3086
15119TIP3    H145279   0.077   8.060   0.250  0.0510 -0.8679 -0.7918
15119TIP3    H245280   0.069   7.913   0.283  0.6886 -0.7245  0.0095
15120TIP3   OH245281   0.031   6.137   1.297 -0.1964 -0.0805  0.6793
15120TIP3    H145282   0.038   6.188   1.378 -0.8791 -0.0875  0.7402
15120TIP3    H245283  -0.035   6.183   1.246 -1.7483 -1.6401  1.2646
15121TIP3   OH245284   8.777   0.036   1.958  0.1959 -0.0736 -0.0579
15121TIP3    H145285   8.712   0.082   1.905 -0.7915 -1.0048  0.3337
15121TIP3    H245286   8.844   0.009   1.896  0.1961  0.8624 -0.4711
15122TIP3   OH245287   6.719   2.857   6.795  0.0114  0.0988 -0.0740
15122TIP3    H145288   6.706   2.764   6.815 -0.9049  0.0712 -0.7451
15122TIP3    H245289   6.693   2.902   6.875 -0.3248 -0.1885 -0.0155
15123TIP3   OH245290   6.951   6.560   3.115  0.2746 -0.6188 -0.5328
15123TIP3    H145291   6.920   6.512   3.039 -0.4642 -0.5554 -0.2703
15123TIP3    H245292   6.911   6.515   3.190 -1.9532  1.5483 -0.3814
15124TIP3   OH245293   6.267   3.042   5.225  0.1245  0.0988 -0.6843
15124TIP3    H145294   6.265   3.017   5.133 -0.5776 -0.2490 -0.5774
15124TIP3    H245295   6.186   3.006   5.262 -0.6309  2.0404 -0.3972
15125TIP3   OH245296   0.087   7.266   1.068  0.0338 -0.1455 -0.3345
15125TIP3    H145297   0.125   7.348   1.035  0.2361  0.3076  1.0150
15125TIP3    H245298   0.108   7.265   1.161 -1.3071 -0.9856 -0.0250
15126TIP3   OH245299   6.202   2.785   6.697  0.4663  0.9850  0.1562
15126TIP3    H145300   6.180   2.772   6.789 -0.0907  2.1599  0.2022
15126TIP3    H245301   6.119   2.773   6.650  0.9713 -0.7761 -0.3294
15127TIP3   OH245302   8.148   5.129   0.523  0.1872 -0.2522 -0.3749
15127TIP3    H145303   8.223   5.186   0.541 -0.0063  0.3801 -1.4948
15127TIP3    H245304   8.073   5.178   0.556 -0.0153  0.3119 -1.6097
15128TIP3   OH245305   4.907   3.466   6.482 -0.0609 -0.2966 -0.3146
15128TIP3    H145306   4.884   3.413   6.558 -2.2907 -0.6317 -1.1795
15128TIP3    H245307   4.936   3.403   6.416 -2.8383 -0.5406 -1.3886
15129TIP3   OH245308   7.709   7.822   1.756 -0.0433 -0.3420 -0.2945
15129TIP3    H145309   7.763   7.764   1.701 -0.1848 -1.4944  0.7446
15129TIP3    H245310   7.629   7.835   1.706  0.0974 -0.8471 -0.6619
15130TIP3   OH245311   6.674   1.265   5.862 -0.7870 -0.2059 -0.0381
15130TIP3    H145312   6.708   1.353   5.847  0.2654 -0.8715 -1.6174
15130TIP3    H245313   6.712   1.240   5.946 -0.5358  0.5740  0.0898
15131TIP3   OH245314   3.970   5.035   6.502  0.1515  0.3425  0.3556
15131TIP3    H145315   4.001   5.066   6.417 -0.1190 -0.7056 -0.1383
15131TIP3    H245316   4.047   4.997   6.544  0.1501  0.2869  0.3087
15132TIP3   OH245317   1.296   7.618   0.582 -0.2193  0.4906 -0.2882
15132TIP3    H145318   1.355   7.634   0.655 -2.5525  0.4070  1.7013
15132TIP3    H245319   1.337   7.662   0.507  1.7513  1.3847  1.2688
15133TIP3   OH245320   1.843   0.604   2.073 -0.1135 -0.0780 -0.3996
15133TIP3    H145321   1.798   0.572   1.995 -2.2266  0.3181  0.6202
15133TIP3    H245322   1.877   0.525   2.116 -0.5546 -0.4488 -0.7361
15134TIP3   OH245323   0.971   1.257   0.863  0.5561  0.5552 -0.0441
15134TIP3    H145324   1.003   1.223   0.779 -0.5994  0.3440 -0.4045
15134TIP3    H245325   0.896   1.202   0.885  0.1655  1.3160  0.5738
15135TIP3   OH245326   1.733   7.004   0.872 -0.0208 -0.3270  0.1656
15135TIP3    H145327   1.799   6.948   0.914  0.1710 -0.6281 -0.5387
15135TIP3    H245328   1.781   7.051   0.804 -0.4119 -0.1120  0.0376
15136TIP3   OH245329   7.432   2.473   5.848  0.0439 -0.2836 -0.1512
15136TIP3    H145330   7.466   2.391   5.813 -0.8281 -1.0842  0.8531
15136TIP3    H245331   7.510   2.528   5.860  0.5120 -0.5524 -1.8757
15137TIP3   OH245332   4.472   1.043   0.914 -0.4648 -0.5164 -0.1508
15137TIP3    H145333   4.498   1.007   0.999  2.2688  0.5479 -0.4981
15137TIP3    H245334   4.422   0.972   0.873 -0.4937 -1.6031  1.7099
15138TIP3   OH245335   5.631   2.205   7.115 -0.1958  0.2717 -0.1433
15138TIP3    H145336   5.641   2.221   7.022  0.0143  3.6096  0.3926
15138TIP3    H245337   5.539   2.224   7.133  0.1232  1.2106  0.5770
15139TIP3   OH245338   6.579   4.154   6.038 -0.3789 -0.0983  0.3103
15139TIP3    H145339   6.662   4.165   6.085 -0.1347  0.5721 -0.2833
15139TIP3    H245340   6.598   4.179   5.948 -0.7826 -1.6485 -0.2360
15140TIP3   OH245341   7.837   4.531   6.655 -0.3337  0.1159 -0.1910
15140TIP3    H145342   7.776   4.596   6.688  0.5776  0.1330  1.4748
15140TIP3    H245343   7.784   4.477   6.595 -1.2563  1.8957 -1.0054
15141TIP3   OH245344   2.879   1.033   0.550  0.4789  0.2044 -0.2152
15141TIP3    H145345   2.856   0.952   0.503 -1.7588  1.9157 -2.2003
15141TIP3    H245346   2.919   1.088   0.483 -3.2203  2.8837 -0.3734
15142TIP3   OH245347   5.710   5.364   6.890 -0.0420 -0.2089 -0.2211
15142TIP3    H145348   5.627   5.412   6.889 -0.0892 -0.2955 -1.1350
15142TIP3    H245349   5.762   5.404   6.820  0.4286 -0.6008 -0.0974
15143TIP3   OH245350   1.239   6.672   0.923  0.2485 -0.2206  0.2886
15143TIP3    H145351   1.168   6.691   0.985  0.4941  2.3912 -0.1605
15143TIP3    H245352   1.278   6.591   0.955 -1.8291 -0.7596  1.5444
15144TIP3   OH245353   7.360   3.837   6.612  0.4247 -0.0824  0.3514
15144TIP3    H145354   7.340   3.916   6.563  1.1467  0.1292  0.3980
15144TIP3    H245355   7.297   3.772   6.580  0.1647  0.3669 -0.0442
15145TIP3   OH245356   0.263   6.236   2.208  0.4518 -0.2548 -0.6379
15145TIP3    H145357   0.305   6.161   2.166  0.2835 -0.5408 -0.2909
15145TIP3    H245358   0.187   6.256   2.153  0.6548 -0.1617 -0.8854
15146TIP3   OH245359   0.645   5.589   0.001 -0.2318 -0.1662 -0.3102
15146TIP3    H145360   0.699   5.524  -0.044 -0.5856 -0.7921  0.1573
15146TIP3    H245361   0.703   5.628   0.066 -0.7412 -1.9646  1.2854
15147TIP3   OH245362   8.899   5.659   2.187 -0.4712  0.0058 -0.4823
15147TIP3    H145363   8.835   5.650   2.258  1.0602  0.9210  1.0541
15147TIP3    H245364   8.901   5.754   2.170 -0.6096 -0.1813 -1.5513
15148TIP3   OH245365   3.545   0.233   0.235  0.2318 -0.4033 -0.1699
15148TIP3    H145366   3.482   0.276   0.177  0.3846 -0.1035 -0.1157
15148TIP3    H245367   3.532   0.139   0.221 -0.6022 -0.3483  0.2427
15149TIP3   OH245368   3.661   1.360   0.459 -0.2054  0.5779 -0.0754
15149TIP3    H145369   3.753   1.385   0.459  0.2098 -0.8133  2.2753
15149TIP3    H245370   3.658   1.274   0.419 -0.6442  1.0929 -1.1716
15150TIP3   OH245371   2.383   7.330   0.247  0.1760 -0.4201 -0.1839
15150TIP3    H145372   2.340   7.386   0.312  0.2209 -1.2701  0.5918
15150TIP3    H245373   2.314   7.271   0.217  0.6645 -1.4777  0.7231
15151TIP3   OH245374   1.255   7.967   1.645  0.7069  0.2126  0.1758
15151TIP3    H145375   1.169   7.988   1.679  0.3022 -1.5323  0.2722
15151TIP3    H245376   1.239   7.930   1.559  1.3409 -0.3273  0.2823
15152TIP3   OH245377   8.520   2.601   3.716 -0.2558 -0.2961 -0.1673
15152TIP3    H145378   8.504   2.674   3.776  1.4881 -0.5571  0.6784
15152TIP3    H245379   8.434   2.566   3.696 -0.9748  0.8372  0.8975
15153TIP3   OH245380   0.247   7.214   1.313 -0.2023 -0.3712 -0.4185
15153TIP3    H145381   0.335   7.242   1.287  0.2782 -2.1948 -0.8242
15153TIP3    H245382   0.260   7.129   1.353 -1.8171 -0.7614 -0.6866
15154TIP3   OH245383   1.815   6.268   0.732  0.6806 -0.2939  0.8533
15154TIP3    H145384   1.759   6.212   0.679  1.2525 -1.0929  1.0826
15154TIP3    H245385   1.834   6.216   0.810  2.4295 -0.3738  0.3980
15155TIP3   OH245386   5.436   5.307   5.855 -0.1420  0.4330  0.2519
15155TIP3    H145387   5.395   5.297   5.941  0.8847 -0.2793  0.6563
15155TIP3    H245388   5.381   5.255   5.796 -0.6206  0.6079  0.5381
15156TIP3   OH245389   5.185   0.256   0.601 -0.3806  0.6256 -0.3262
15156TIP3    H145390   5.124   0.246   0.674 -1.8287  0.2034 -1.5830
15156TIP3    H245391   5.131   0.245   0.522  0.5756  4.0972 -1.5527
15157TIP3   OH245392   7.620   1.692   6.670 -0.1809 -0.1885 -0.3824
15157TIP3    H145393   7.590   1.782   6.683  1.2342  0.2215  0.0969
15157TIP3    H245394   7.545   1.638   6.693 -1.0773  0.8722 -0.7810
15158TIP3   OH245395   5.827   5.163   4.935 -0.0559  0.1590 -0.2051
15158TIP3    H145396   5.740   5.124   4.941 -0.5350  1.2454 -0.0293
15158TIP3    H245397   5.816   5.237   4.875  1.0638 -0.5708 -1.3271
15159TIP3   OH245398   7.530   3.696   7.012  0.3382  0.5878 -0.6806
15159TIP3    H145399   7.564   3.669   7.098  0.3454 -0.6763 -1.0833
15159TIP3    H245400   7.514   3.615   6.965 -1.7785  1.2044 -1.0833
15160TIP3   OH245401   2.545   7.240   1.211 -0.0851 -0.1544  0.2652
15160TIP3    H145402   2.621   7.193   1.177  0.1487 -1.1691  2.1625
15160TIP3    H245403   2.567   7.260   1.302 -1.2703  1.3163  0.2598
15161TIP3   OH245404   7.150   2.020   6.211  0.0175  0.6734  0.4201
15161TIP3    H145405   7.090   2.094   6.204  0.8332  1.2861 -0.2251
15161TIP3    H245406   7.237   2.059   6.202  0.5718 -0.0770  2.2536
15162TIP3   OH245407   7.758   3.451   7.148 -0.9164  0.5480  0.0833
15162TIP3    H145408   7.850   3.469   7.163 -0.6311 -1.1688  0.4856
15162TIP3    H245409   7.745   3.466   7.054 -0.7650  2.9825  0.4242
15163TIP3   OH245410   2.122   7.778   0.914  0.2644 -0.3977 -0.0634
15163TIP3    H145411   2.104   7.869   0.895 -1.7853 -0.7254  0.2235
15163TIP3    H245412   2.202   7.780   0.967 -0.6280  1.3472  1.2559
15164TIP3   OH245413   5.374   4.622   6.650 -0.6375  0.1847 -0.2522
15164TIP3    H145414   5.323   4.643   6.728  0.0607 -0.3521  0.3569
15164TIP3    H245415   5.341   4.681   6.582  1.7623  3.8468  1.6071
15165TIP3   OH245416   0.737   8.117   0.720  0.0190  0.0070 -0.1788
15165TIP3    H145417   0.808   8.056   0.740 -0.6872 -1.0611 -0.9159
15165TIP3    H245418   0.679   8.112   0.796  0.2800  0.2485  0.0418
15166TIP3   OH245419   7.596   4.720   6.132 -0.3829 -0.2764 -0.3743
15166TIP3    H145420   7.528   4.743   6.196  0.1978 -1.1830  0.5874
15166TIP3    H245421   7.674   4.705   6.185 -0.0482 -1.6589 -1.2452
15167TIP3   OH245422   6.921   2.229   5.692 -0.5416  0.1388  0.1882
15167TIP3    H145423   6.941   2.308   5.742  0.0669  0.9421 -1.2948
15167TIP3    H245424   6.989   2.225   5.625  0.3393 -2.4867  1.1770
15168TIP3   OH245425   6.703   4.239   5.784  0.4836  0.5072 -0.5623
15168TIP3    H145426   6.622   4.287   5.767  0.8637  1.3928  0.0845
15168TIP3    H245427   6.697   4.161   5.728 -0.9296  0.4265 -0.3267
15169TIP3   OH245428   8.222   2.913   7.054  0.0498 -0.5234 -0.2717
15169TIP3    H145429   8.201   3.000   7.088  0.4627 -1.0612  1.3871
15169TIP3    H245430   8.274   2.930   6.976  1.1207  0.7131  0.6959
15170TIP3   OH245431   4.825   0.115   0.952  0.5464 -0.0323 -0.5146
15170TIP3    H145432   4.902   0.079   0.996  1.7560  1.5198 -1.3159
15170TIP3    H245433   4.755   0.110   1.018  1.5608 -0.5705  0.5406
15171TIP3   OH245434   8.245   2.788   6.545 -0.0603 -0.2510 -0.1532
15171TIP3    H145435   8.171   2.804   6.603  0.1685 -1.6653  0.5739
15171TIP3    H245436   8.257   2.869   6.496 -0.7530  0.6907  1.2336
15172TIP3   OH245437   1.017   7.967   0.531  0.4583  0.1476 -0.2864
15172TIP3    H145438   1.071   7.972   0.610 -0.1416  0.0369  0.1390
15172TIP3    H245439   1.079   7.958   0.459  0.9630 -1.1963  0.2958
15173TIP3   OH245440   6.356   4.877   6.730 -0.1214 -0.2355 -0.2027
15173TIP3    H145441   6.379   4.796   6.775 -0.8771 -1.2721 -1.6594
15173TIP3    H245442   6.273   4.858   6.687 -0.2243  1.2596 -0.6883
15174TIP3   OH245443   7.410   5.480   6.895  0.1078 -0.2912  0.4556
15174TIP3    H145444   7.365   5.497   6.812  2.8773  1.3893 -0.8135
15174TIP3    H245445   7.383   5.552   6.952 -0.8349 -0.7517  0.5907
15175TIP3   OH245446   6.373   1.960   6.259 -0.0537 -0.4423 -0.1574
15175TIP3    H145447   6.395   1.884   6.311  2.2824  1.1089  1.2105
15175TIP3    H245448   6.442   1.965   6.193  0.1630  0.8049  0.1425
15176TIP3   OH245449   7.990   5.566   0.276  0.3661  0.1854  0.0218
15176TIP3    H145450   8.045   5.642   0.296  0.6500  0.2101 -0.8298
15176TIP3    H245451   8.051   5.492   0.271  0.0646 -0.1542  1.0825
15177TIP3   OH245452   7.739   1.597   6.430  0.4843 -0.7358 -0.2876
15177TIP3    H145453   7.785   1.531   6.481 -0.3148 -1.0844 -0.0031
15177TIP3    H245454   7.683   1.642   6.494  0.3203 -0.4196 -0.6486
15178TIP3   OH245455   3.674   0.519   0.497  0.8815  0.2769 -0.0868
15178TIP3    H145456   3.728   0.463   0.441 -0.3494  1.5604 -2.6384
15178TIP3    H245457   3.584   0.494   0.476  0.4087 -0.1527  2.3501
15179TIP3   OH245458   6.912   2.589   6.953 -0.6599 -0.9663 -0.0966
15179TIP3    H145459   6.977   2.539   6.905 -0.1879  1.5571 -2.2046
15179TIP3    H245460   6.829   2.566   6.911 -0.8282 -2.2499  0.9215
15180TIP3   OH245461   7.668   3.985   6.304 -0.2954 -0.4433  0.0819
15180TIP3    H145462   7.631   4.045   6.368 -1.6903  2.3891 -3.1917
15180TIP3    H245463   7.593   3.934   6.273  0.0175 -0.4924 -0.6050
15181TIP3   OH245464   7.175   4.108   6.883 -0.1186  0.1104 -0.4396
15181TIP3    H145465   7.207   4.017   6.879 -0.1649 -0.0669  2.2276
15181TIP3    H245466   7.248   4.157   6.920 -0.7326  0.8419 -0.1879
15182TIP3   OH245467   8.331   4.692   5.859 -0.7382  0.3635  0.6671
15182TIP3    H145468   8.300   4.612   5.903  1.0527 -1.1533 -0.7351
15182TIP3    H245469   8.350   4.753   5.931 -0.4030 -1.1243  1.8806
15183TIP3   OH245470   5.621   0.208   0.871 -0.3176 -0.0361  0.4810
15183TIP3    H145471   5.532   0.185   0.845 -0.1676 -0.8578  0.6780
15183TIP3    H245472   5.647   0.275   0.808 -0.4274 -1.0757 -0.7081
15184TIP3   OH245473   6.199   3.578   7.086  0.1510  0.1542  0.4489
15184TIP3    H145474   6.201   3.492   7.129  0.2094  0.5860  1.3226
15184TIP3    H245475   6.290   3.596   7.064  0.0135 -0.4734 -0.7005
15185TIP3   OH245476   8.685   4.665   5.914  0.2114 -0.3346  0.3160
15185TIP3    H145477   8.635   4.628   5.986  0.3826  0.6858  0.9716
15185TIP3    H245478   8.623   4.724   5.869  0.5715  0.2893  0.6262
15186TIP3   OH245479   5.926   4.490   5.394 -0.0064 -0.1854  0.0737
15186TIP3    H145480   5.849   4.544   5.376 -1.1529 -1.1997  1.7682
15186TIP3    H245481   5.899   4.434   5.467  2.4840 -0.3018  0.9387
15187TIP3   OH245482   8.500   6.391   0.228  0.0837 -0.1315 -0.2842
15187TIP3    H145483   8.468   6.310   0.269  0.7114 -0.6017 -0.7174
15187TIP3    H245484   8.557   6.361   0.157 -1.0288  0.6667 -1.5493
15188TIP3   OH245485   7.888   2.963   3.829  0.4144 -0.4388 -0.5427
15188TIP3    H145486   7.932   2.954   3.914 -1.8145  0.1305  0.7237
15188TIP3    H245487   7.874   3.057   3.819 -1.1586 -0.6604 -0.5478
15189TIP3   OH245488   7.303   1.671   6.497  0.2961 -0.0458  0.1697
15189TIP3    H145489   7.292   1.766   6.488 -0.8218 -0.3412 -1.7539
15189TIP3    H245490   7.339   1.660   6.585 -0.1112  2.1205  0.6472
15190TIP3   OH245491   3.617   0.457  -0.014  0.5184 -0.0268  0.0035
15190TIP3    H145492   3.611   0.496   0.073  2.0694  0.8367 -0.2591
15190TIP3    H245493   3.692   0.398  -0.009  0.7790  0.2265 -0.8141
15191TIP3   OH245494   8.373   7.535   2.417  0.8161  0.1648  0.1541
15191TIP3    H145495   8.405   7.501   2.334 -1.5970 -1.1349 -0.2765
15191TIP3    H245496   8.335   7.621   2.396 -1.7320 -1.0757 -0.5375
15192TIP3   OH245497   2.190   6.943   1.703 -0.1156  0.3834  0.3727
15192TIP3    H145498   2.278   6.946   1.741 -0.5159  1.2856  1.2519
15192TIP3    H245499   2.160   7.034   1.706 -0.5891  0.2908 -1.1067
15193TIP3   OH245500   2.108   4.143   0.881 -0.1598  0.2581  0.4744
15193TIP3    H145501   2.055   4.179   0.810  1.1146 -0.2644 -0.7634
15193TIP3    H245502   2.188   4.111   0.838  0.3399 -0.6734  2.0417
15194TIP3   OH245503   7.506   4.675   7.209  0.1141  0.7176  0.7273
15194TIP3    H145504   7.477   4.600   7.260  0.9720  0.1752  0.4083
15194TIP3    H245505   7.455   4.749   7.245 -2.1183 -0.3057 -0.2123
15195TIP3   OH245506   7.634   2.293   5.043 -0.1927  0.0376 -0.1206
15195TIP3    H145507   7.695   2.367   5.036 -1.5959  1.1218 -1.0904
15195TIP3    H245508   7.606   2.277   4.953  0.4298 -1.9939  0.0109
15196TIP3   OH245509   0.445   7.434   0.106 -0.5850 -0.0226  0.2082
15196TIP3    H145510   0.393   7.396   0.177 -1.4031  0.6262 -0.0373
15196TIP3    H245511   0.383   7.447   0.035  0.2138 -0.5900 -0.6139
15197TIP3   OH245512   3.758   0.172   1.496  1.1314  0.6662  0.5423
15197TIP3    H145513   3.830   0.158   1.557  1.5175  0.1264 -0.0265
15197TIP3    H245514   3.795   0.224   1.425  1.2634 -0.5137 -0.2827
15198TIP3   OH245515   5.875   2.365   7.118 -0.0428 -0.2416  0.6650
15198TIP3    H145516   5.921   2.281   7.129 -0.2113 -0.4014  0.1283
15198TIP3    H245517   5.784   2.341   7.102  0.2348 -0.0232 -1.3654
15199TIP3   OH245518   6.615   2.445   5.699 -0.0859  0.0940  0.3969
15199TIP3    H145519   6.694   2.410   5.740  0.4788 -0.3042 -1.0015
15199TIP3    H245520   6.581   2.508   5.763  0.8274 -0.4353  1.4194
15200TIP3   OH245521   8.744   7.729   0.651  0.3005 -0.3841 -0.1927
15200TIP3    H145522   8.715   7.819   0.639 -1.1217 -0.7855  0.0766
15200TIP3    H245523   8.827   7.735   0.697 -0.5084  0.7363  1.1171
15201TIP3   OH245524   8.577   7.896   1.734  0.4126  0.2226  0.1714
15201TIP3    H145525   8.590   7.983   1.697 -1.4081  0.2130 -0.5163
15201TIP3    H245526   8.663   7.872   1.769  1.4905  1.3470 -1.6426
15202TIP3   OH245527   5.724   2.952   6.227  0.3097  0.3679 -0.3093
15202TIP3    H145528   5.672   3.021   6.186  2.0775  1.8935 -0.0666
15202TIP3    H245529   5.735   2.981   6.317  0.5822 -0.5197 -0.0539
15203TIP3   OH245530   2.046   0.299   0.232  0.2351 -0.2524 -0.5052
15203TIP3    H145531   2.019   0.273   0.144 -0.3661 -3.0752  0.4436
15203TIP3    H245532   2.141   0.306   0.227  0.2532 -0.9544 -1.2728
15204TIP3   OH245533   4.436   1.532   1.230 -0.3189 -0.5454  0.1546
15204TIP3    H145534   4.416   1.560   1.319 -0.0526  1.1784 -0.3146
15204TIP3    H245535   4.512   1.584   1.204 -0.4575 -0.9385 -1.1210
15205TIP3   OH245536   7.284   4.505   6.595  0.0217  0.1438 -0.3059
15205TIP3    H145537   7.245   4.496   6.509 -0.7058 -1.3742  0.1711
15205TIP3    H245538   7.210   4.512   6.655  0.5185  0.9273  0.2199
15206TIP3   OH245539   1.485   5.429   0.790 -0.0564  0.7577 -0.1603
15206TIP3    H145540   1.519   5.454   0.704  1.5056 -1.5212 -0.2649
15206TIP3    H245541   1.424   5.499   0.814 -1.0187  1.1229 -3.4143
15207TIP3   OH245542   6.086   1.819   6.658 -0.4002  0.2171  0.4542
15207TIP3    H145543   6.021   1.847   6.593  1.3635  0.1455 -1.3835
15207TIP3    H245544   6.111   1.731   6.631  1.3693  0.7197  0.4047
15208TIP3   OH245545   2.560   4.648   0.880  0.0493  0.1881  0.9209
15208TIP3    H145546   2.592   4.603   0.958 -0.6844 -3.7509 -0.9269
15208TIP3    H245547   2.633   4.646   0.819  0.0372  1.6540  0.8392
15209TIP3   OH245548   6.784   4.301   4.952 -0.5509 -0.3916 -0.0962
15209TIP3    H145549   6.741   4.380   4.985 -1.0272 -0.7845  0.2572
15209TIP3    H245550   6.840   4.272   5.025  0.2555  0.0768 -0.5283
15210TIP3   OH245551   3.326   7.906   1.054 -0.0284  0.0313  0.0119
15210TIP3    H145552   3.321   7.998   1.028  2.3017  0.4874  1.0224
15210TIP3    H245553   3.327   7.909   1.150  1.3387 -0.9490  0.0395
15211TIP3   OH245554   0.013   2.548   5.978  0.1206  0.3031 -0.3687
15211TIP3    H145555   0.107   2.563   5.980  0.3310 -0.9514 -0.2532
15211TIP3    H245556  -0.011   2.532   6.069 -0.2312  0.7884 -0.3753
15212TIP3   OH245557   0.954   7.225   0.200 -0.6008 -0.3570 -0.2415
15212TIP3    H145558   0.937   7.175   0.120  0.2782 -0.5721 -0.3038
15212TIP3    H245559   0.918   7.311   0.182  1.9173  0.4232 -1.9282
15213TIP3   OH245560   7.383   2.661   6.050 -0.4857 -0.5265  0.1030
15213TIP3    H145561   7.462   2.653   6.104 -0.7643 -1.6789  0.3458
15213TIP3    H245562   7.378   2.579   6.002  0.1670  0.7877 -2.2743
15214TIP3   OH245563   8.390   7.311   0.095 -0.5089  0.3156 -0.3549
15214TIP3    H145564   8.480   7.282   0.080 -0.5372  0.6932 -1.2956
15214TIP3    H245565   8.336   7.234   0.078 -0.4248  0.3162 -0.6212
15215TIP3   OH245566   6.806   2.528   5.490 -0.2901 -0.1522  0.2915
15215TIP3    H145567   6.857   2.451   5.513 -0.0099  0.3996  1.5709
15215TIP3    H245568   6.715   2.501   5.500 -0.1824 -0.1616  1.2974
15216TIP3   OH245569   1.275   6.909   0.229 -0.3262  0.3686 -0.5244
15216TIP3    H145570   1.320   6.849   0.288 -2.4135  0.3428  1.1399
15216TIP3    H245571   1.249   6.855   0.154 -1.6842 -0.7330  0.6947
15217TIP3   OH245572   7.785   4.145   6.600 -0.5929  0.0147  0.2504
15217TIP3    H145573   7.780   4.050   6.591  0.2390 -0.0325  0.2548
15217TIP3    H245574   7.849   4.159   6.669 -0.5240  0.5826  0.0747
15218TIP3   OH245575   7.354   5.277   7.156  0.1486  0.1420 -0.0678
15218TIP3    H145576   7.269   5.321   7.147  0.4504  0.7495  0.0271
15218TIP3    H245577   7.410   5.342   7.197  0.5518 -0.3986  0.2446
15219TIP3   OH245578   7.010   3.337   4.379  0.3139  0.4298 -0.2035
15219TIP3    H145579   7.015   3.310   4.287 -1.9150 -0.4397 -0.1120
15219TIP3    H245580   6.935   3.396   4.383  1.0724  1.3485  0.8706
15220TIP3   OH245581   0.331   6.603   0.080 -0.2294 -0.7684  0.6675
15220TIP3    H145582   0.353   6.552   0.157  2.0420  1.1319  1.3333
15220TIP3    H245583   0.414   6.617   0.035 -1.0719  0.7266 -0.5089
15221TIP3   OH245584   7.236   3.379   6.050  0.2526 -0.2324  0.0367
15221TIP3    H145585   7.317   3.408   6.093 -0.1144 -0.1832  0.7108
15221TIP3    H245586   7.255   3.290   6.020  1.0636  0.3302 -1.1793
15222TIP3   OH245587   2.063   8.041   0.934  0.3716 -0.4443 -0.0092
15222TIP3    H145588   2.063   8.115   0.994 -0.7345 -0.2308 -0.2695
15222TIP3    H245589   2.086   8.079   0.849  2.3345 -0.8074  0.3343
15223TIP3   OH245590   7.695   2.297   5.465 -0.2330  0.3459 -0.7945
15223TIP3    H145591   7.769   2.259   5.417 -0.3825 -1.6811  0.5034
15223TIP3    H245592   7.636   2.223   5.480 -2.0038  1.7148 -0.8249
15224TIP3   OH245593   5.451   4.949   5.626  0.1919 -0.3690 -0.2360
15224TIP3    H145594   5.534   4.993   5.607  0.0757 -0.0841 -0.0953
15224TIP3    H245595   5.470   4.894   5.702  0.5010 -1.0427 -0.7903
15225TIP3   OH245596   4.510   0.643   0.648  0.4072 -0.2493 -0.2148
15225TIP3    H145597   4.462   0.585   0.706  0.8095 -0.8115 -0.4378
15225TIP3    H245598   4.505   0.601   0.562 -0.1451  0.5500 -0.5778
15226TIP3   OH245599   5.497   3.058   6.700 -0.0467 -0.3604 -0.0667
15226TIP3    H145600   5.409   3.094   6.708 -0.1787 -0.4442 -1.1650
15226TIP3    H245601   5.554   3.125   6.739 -0.4002  0.5515 -1.1146
15227TIP3   OH245602   1.858   7.246   1.253 -0.4981 -0.1734 -0.4974
15227TIP3    H145603   1.762   7.252   1.245 -0.3557 -1.5144 -3.9774
15227TIP3    H245604   1.879   7.158   1.221  1.8185 -0.2726  1.2536
15228TIP3   OH245605   5.031   0.252   0.084 -0.4698  0.2368  0.3579
15228TIP3    H145606   5.050   0.332   0.036  1.6134 -0.5249 -0.1402
15228TIP3    H245607   4.977   0.200   0.024 -0.6605  0.6779  0.1488
15229TIP3   OH245608   0.238   7.671   0.310  0.2230 -0.3696  0.1536
15229TIP3    H145609   0.260   7.723   0.386 -0.4822  1.4759 -0.8805
15229TIP3    H245610   0.143   7.679   0.301  0.1757 -1.3185 -0.3866
15230TIP3   OH245611   5.011   0.094   1.172  0.1197 -0.6707 -0.5029
15230TIP3    H145612   4.931   0.090   1.225  0.1519  1.0032 -0.3065
15230TIP3    H245613   5.052   0.177   1.197  1.0807 -0.7382 -1.8175
15231TIP3   OH245614   6.702   4.247   4.435  0.1498  0.5218 -0.4181
15231TIP3    H145615   6.728   4.334   4.404  0.2756  0.4583 -0.4938
15231TIP3    H245616   6.670   4.262   4.524  0.4932  0.5970 -0.3054
15232TIP3   OH245617   1.744   7.785   3.406  0.0447  0.3335 -0.6159
15232TIP3    H145618   1.806   7.774   3.334  0.4488  1.3059 -0.4220
15232TIP3    H245619   1.778   7.859   3.457 -1.4642  1.1437 -0.7283
15233TIP3   OH245620   2.998   1.412   0.489  0.4111 -0.0140 -0.3361
15233TIP3    H145621   3.019   1.425   0.581  0.4599 -0.6597 -0.2481
15233TIP3    H245622   2.906   1.437   0.482  0.1260 -0.9156  0.1033
15234TIP3   OH245623   3.101   0.216   1.077 -0.3070  0.2618 -0.0986
15234TIP3    H145624   3.166   0.234   1.009 -0.5504 -0.1603 -0.4366
15234TIP3    H245625   3.116   0.285   1.142 -1.1007  1.5895 -1.2964
15235TIP3   OH245626   6.408   4.958   5.060  0.3490  0.7621  0.0770
15235TIP3    H145627   6.317   4.931   5.074  0.6933 -0.3665  0.2291
15235TIP3    H245628   6.402   5.045   5.021 -0.8075  0.4999 -0.3426
15236TIP3   OH245629   5.939   0.685   0.595 -0.1129 -0.4252 -0.5344
15236TIP3    H145630   5.992   0.606   0.581 -1.4163 -1.2173 -1.0877
15236TIP3    H245631   5.878   0.686   0.521 -0.9856  0.3838  0.1875
15237TIP3   OH245632   3.640   3.815   6.797 -0.7004  0.3482  0.2112
15237TIP3    H145633   3.647   3.725   6.766 -2.3875  0.4741 -0.6162
15237TIP3    H245634   3.547   3.837   6.786 -0.4499  1.9396  1.0940
15238TIP3   OH245635   1.288   1.164   3.489  0.1490 -0.0947 -0.2274
15238TIP3    H145636   1.355   1.138   3.552  1.2121  0.2299 -1.2143
15238TIP3    H245637   1.309   1.255   3.467 -1.2634  0.3727  0.2798
15239TIP3   OH245638   6.905   3.181   6.695  0.0114  0.0745 -0.6819
15239TIP3    H145639   6.945   3.252   6.645 -2.8782  1.2264 -1.4505
15239TIP3    H245640   6.891   3.111   6.631  1.4998 -0.6762 -0.2282
15240TIP3   OH245641   7.165   3.553   4.563  0.1513  0.0664 -0.3832
15240TIP3    H145642   7.159   3.481   4.500  1.0249  0.8393 -1.3706
15240TIP3    H245643   7.092   3.611   4.540  0.5748  0.4359 -0.8036
15241TIP3   OH245644   4.974   0.090   1.759 -0.2319  0.1686  0.2454
15241TIP3    H145645   4.910   0.146   1.715  0.5238  0.6465 -0.2422
15241TIP3    H245646   4.982   0.128   1.847  2.3172  2.5159 -0.9259
15242TIP3   OH245647   3.286   6.771   0.686  0.4267 -0.2843  0.2793
15242TIP3    H145648   3.273   6.842   0.748 -0.7643 -0.6956  0.5070
15242TIP3    H245649   3.300   6.815   0.602  0.7705  0.2358  0.6041
15243TIP3   OH245650   3.473   0.149   2.447  0.1135  0.2246  0.0604
15243TIP3    H145651   3.462   0.089   2.374  2.3924 -0.3560  0.1453
15243TIP3    H245652   3.513   0.096   2.516 -1.7548  0.8207  1.6681
15244TIP3   OH245653   6.529   6.491   7.140 -0.1008 -0.1274  0.2086
15244TIP3    H145654   6.536   6.579   7.101  1.1801  0.5740  1.9472
15244TIP3    H245655   6.554   6.504   7.231 -2.0593 -1.9169  1.0343
15245TIP3   OH245656   0.445   1.435   6.520  0.8767  0.1205  0.1002
15245TIP3    H145657   0.501   1.512   6.529  2.8464 -1.2250 -0.4618
15245TIP3    H245658   0.505   1.361   6.524 -0.9349 -1.3842  0.0571
15246TIP3   OH245659   3.467   7.368   1.313 -0.1200  0.4871 -0.3728
15246TIP3    H145660   3.454   7.365   1.407 -1.4573  1.0711 -0.5189
15246TIP3    H245661   3.543   7.425   1.300  1.1585 -1.0023  0.4208
15247TIP3   OH245662   5.494   3.497   7.266 -0.3466 -0.2707 -0.0704
15247TIP3    H145663   5.511   3.589   7.248  0.6076 -0.3176  0.5431
15247TIP3    H245664   5.516   3.452   7.184  0.5151 -0.0988  0.0617
15248TIP3   OH245665   2.221   7.588   0.636 -0.2896 -0.3311  0.0166
15248TIP3    H145666   2.250   7.499   0.657 -0.4472 -0.7002 -1.2905
15248TIP3    H245667   2.127   7.587   0.650 -0.3650 -0.5176 -0.5048
15249TIP3   OH245668   0.332   3.568   6.940 -0.1808 -0.1677  0.6314
15249TIP3    H145669   0.308   3.660   6.931 -0.0519 -0.0718  1.2524
15249TIP3    H245670   0.274   3.522   6.880  0.1460  0.3794 -0.1036
15250TIP3   OH245671   8.141   3.779   6.569 -0.1600  0.1142  0.1198
15250TIP3    H145672   8.179   3.834   6.502 -0.8935 -2.0667 -2.1632
15250TIP3    H245673   8.209   3.770   6.635  0.5213  2.3927 -0.2486
15251TIP3   OH245674   2.841   0.823   0.981 -0.0989 -1.5912  0.9479
15251TIP3    H145675   2.866   0.884   0.911  0.7613 -2.4589  0.4876
15251TIP3    H245676   2.765   0.864   1.022 -1.4673 -1.6957 -1.3672
15252TIP3   OH245677   4.559   2.321   0.716  0.3929  0.1920 -0.1844
15252TIP3    H145678   4.647   2.286   0.701 -0.2170 -1.5653  0.2286
15252TIP3    H245679   4.573   2.403   0.764  1.8008 -0.1283 -0.0429
15253TIP3   OH245680   7.158   5.961   6.507 -0.5030 -0.2103  0.0413
15253TIP3    H145681   7.153   5.895   6.438  0.1591  0.6989 -0.8871
15253TIP3    H245682   7.122   5.917   6.585 -1.5427 -1.1447 -0.9459
15254TIP3   OH245683   3.645   2.302   0.129 -0.0087  0.0586 -0.0050
15254TIP3    H145684   3.673   2.380   0.178  1.2434  0.0770 -0.7181
15254TIP3    H245685   3.612   2.242   0.196 -0.6035  1.0461  0.5918
15255TIP3   OH245686   8.617   5.374   5.406 -0.0199  0.0000  0.7800
15255TIP3    H145687   8.633   5.437   5.476  0.3047  1.0734 -0.2440
15255TIP3    H245688   8.700   5.327   5.398 -0.2710 -0.5945  1.5653
15256TIP3   OH245689   5.934   3.975   6.270 -0.1225 -0.1718  0.6455
15256TIP3    H145690   5.938   4.035   6.195 -1.2609 -0.8858  0.0074
15256TIP3    H245691   5.948   4.031   6.346  0.1245  0.7051 -0.0407
15257TIP3   OH245692   7.413   4.501   4.027  0.8141 -0.2992 -0.5164
15257TIP3    H145693   7.394   4.469   4.115  0.5285  1.7998  0.2262
15257TIP3    H245694   7.509   4.501   4.022  0.8303 -0.4756 -0.2197
15258TIP3   OH245695   7.174   3.688   6.482 -0.3600 -0.5870  0.1273
15258TIP3    H145696   7.083   3.695   6.511 -0.5904  0.5750 -0.8517
15258TIP3    H245697   7.172   3.716   6.390  0.4638 -3.4942 -0.8398
15259TIP3   OH245698   5.963   0.245   6.492 -0.9810 -0.4307 -0.2066
15259TIP3    H145699   6.013   0.164   6.493  0.8198  0.6796  1.8425
15259TIP3    H245700   5.991   0.289   6.412  0.8339 -0.1198  0.5894
15260TIP3   OH245701   4.773   0.745   0.668  0.5670  0.3683 -0.2211
15260TIP3    H145702   4.681   0.717   0.668  0.8562 -0.5933  0.1484
15260TIP3    H245703   4.769   0.839   0.687 -0.3592  0.3868 -0.4732
15261TIP3   OH245704   4.785   2.245   7.039  0.1055  0.0904 -0.5041
15261TIP3    H145705   4.758   2.162   7.077  2.2944  0.2314  1.5042
15261TIP3    H245706   4.838   2.221   6.963  1.8898 -0.4363  0.8668
15262TIP3   OH245707   1.075   8.178   1.403 -0.8843  0.2717  1.0049
15262TIP3    H145708   1.092   8.271   1.387  0.3237 -0.0351  0.3936
15262TIP3    H245709   1.087   8.167   1.497  1.5463  0.2652  0.7397
15263TIP3   OH245710   0.637   6.470   0.715  0.2697  0.2764 -0.4376
15263TIP3    H145711   0.700   6.483   0.787  0.9763 -1.5154 -0.7041
15263TIP3    H245712   0.643   6.550   0.663  1.3349  0.6947  0.3064
15264TIP3   OH245713   6.078   3.834   7.011 -0.8073  0.1097  0.3664
15264TIP3    H145714   6.102   3.743   6.996 -0.8074  0.1920 -0.1320
15264TIP3    H245715   6.125   3.858   7.091 -1.2405 -0.4883  0.8044
15265TIP3   OH245716   7.073   4.894   7.038 -0.1068  0.3254  0.9465
15265TIP3    H145717   7.072   4.867   6.946 -0.0744 -0.0139  1.0439
15265TIP3    H245718   7.101   4.816   7.085  1.2322  0.9072  1.1135
15266TIP3   OH245719   6.693   2.958   4.799  0.0020 -0.4882 -0.5661
15266TIP3    H145720   6.659   2.872   4.826  0.5074 -0.2398  0.8898
15266TIP3    H245721   6.732   2.994   4.878  0.1951  0.9044 -1.2881
15267TIP3   OH245722   0.874   7.993   1.927  0.1559  0.8888 -0.1257
15267TIP3    H145723   0.893   7.966   1.837  2.0820 -0.4143  0.6232
15267TIP3    H245724   0.949   7.961   1.977  0.3714  3.8530  1.5479
15268TIP3   OH245725   0.307   6.662   2.172 -0.0570  0.2234  0.0371
15268TIP3    H145726   0.241   6.725   2.202 -1.6378 -1.7347  0.7994
15268TIP3    H245727   0.318   6.602   2.246  1.7441 -0.1378 -0.5115
15269TIP3   OH245728   7.252   5.665   7.045 -0.3569 -0.1482 -0.1427
15269TIP3    H145729   7.255   5.672   7.141 -2.2671  0.4939 -0.1072
15269TIP3    H245730   7.160   5.678   7.023  0.3400  1.5868 -2.2248
15270TIP3   OH245731   7.608   3.043   7.086 -0.3311  0.0542 -1.1706
15270TIP3    H145732   7.688   3.004   7.053 -0.1264 -0.4878 -0.0707
15270TIP3    H245733   7.603   3.129   7.044  0.4095 -0.2327 -1.8480
15271TIP3   OH245734   0.212   6.840   0.389 -0.1322  0.3184 -0.2387
15271TIP3    H145735   0.187   6.906   0.325 -0.2761  1.5324  1.0383
15271TIP3    H245736   0.130   6.797   0.414 -0.2152  0.5478 -0.1141
15272TIP3   OH245737   4.104   0.074   0.347  0.6992 -0.0477 -0.5537
15272TIP3    H145738   4.055  -0.008   0.348  1.4932 -0.5269 -0.6937
15272TIP3    H245739   4.150   0.074   0.263  0.1003  0.9041 -0.8920
15273TIP3   OH245740   2.933   0.197   2.290  0.0728  0.5019  0.3561
15273TIP3    H145741   2.877   0.256   2.239 -1.9073 -1.5651  0.0512
15273TIP3    H245742   2.964   0.132   2.226  3.4239  1.9499  0.3771
15274TIP3   OH245743   5.779   6.111   5.628  0.4873  0.4427  0.1999
15274TIP3    H145744   5.858   6.109   5.682 -1.5530 -1.4101  3.2736
15274TIP3    H245745   5.709   6.081   5.686 -2.0207 -0.7051 -3.2180
15275TIP3   OH245746   6.847   3.129   5.946  0.2088  0.4908 -0.0769
15275TIP3    H145747   6.780   3.080   5.897  0.7597 -0.4086  0.0518
15275TIP3    H245748   6.929   3.111   5.898  0.4920  0.8904  0.2591
15276TIP3   OH245749   7.393   8.032   0.579 -0.1098  0.6537  0.1095
15276TIP3    H145750   7.443   8.047   0.498  2.5782 -2.5116  1.0917
15276TIP3    H245751   7.416   8.106   0.635  3.2203 -0.4546  0.3408
15277TIP3   OH245752   6.292   5.964   6.017 -0.8203  0.4517  0.2107
15277TIP3    H145753   6.253   5.947   6.102 -0.9228 -1.3062 -0.1842
15277TIP3    H245754   6.233   5.923   5.954  0.7183 -0.7073 -0.5200
15278TIP3   OH245755   0.592   5.626   6.658  0.0261 -0.2300 -0.1104
15278TIP3    H145756   0.500   5.599   6.649  0.1697 -1.3159  1.5052
15278TIP3    H245757   0.611   5.616   6.751  1.4300  1.1928 -0.2239
15279TIP3   OH245758   0.452   5.087   6.720 -0.3718 -0.1318  0.5443
15279TIP3    H145759   0.438   4.997   6.692 -0.6749  0.3043 -0.7325
15279TIP3    H245760   0.415   5.141   6.650  2.5447  1.0135 -0.2055
15280TIP3   OH245761   3.682   7.268   0.990 -0.0963 -0.6478 -0.0540
15280TIP3    H145762   3.766   7.287   1.033 -2.0625  1.5704  3.0053
15280TIP3    H245763   3.658   7.182   1.024 -0.0172 -0.3745  0.7260
15281TIP3   OH245764   0.321   3.606   6.475  1.1522 -0.5189 -0.5584
15281TIP3    H145765   0.249   3.667   6.490  1.9854  0.3131  0.1503
15281TIP3    H245766   0.279   3.525   6.446 -0.0137  0.1573 -0.7664
15282TIP3   OH245767   4.680   1.008   0.563 -0.4082 -0.4932  0.0387
15282TIP3    H145768   4.734   0.986   0.487 -0.5134  0.9132 -0.4566
15282TIP3    H245769   4.590   0.996   0.533 -0.4189 -1.3562  0.3984
15283TIP3   OH245770   5.933   1.989   0.579  0.3002  0.1129 -0.5078
15283TIP3    H145771   5.957   1.918   0.519 -1.0802 -0.4780 -0.3562
15283TIP3    H245772   5.990   1.977   0.655  1.5678  0.4471 -1.3801
15284TIP3   OH245773   2.089   7.926   0.305 -0.1380 -0.1618  0.1556
15284TIP3    H145774   2.080   7.840   0.264  1.3679  0.1542 -0.8557
15284TIP3    H245775   2.154   7.913   0.374  0.1322  0.1871 -0.0349
15285TIP3   OH245776   7.636   1.385   5.724  0.3936  0.1777  0.0934
15285TIP3    H145777   7.624   1.342   5.809  0.2768 -0.7104 -0.3701
15285TIP3    H245778   7.603   1.322   5.660 -0.7178  1.3594 -0.5290
15286TIP3   OH245779   7.003   4.180   6.701 -0.8712 -0.6405  0.1494
15286TIP3    H145780   6.926   4.122   6.705  0.1468 -1.9835  0.5589
15286TIP3    H245781   7.049   4.164   6.783 -0.4394  0.5707  0.1480
15287TIP3   OH245782   6.618   5.570   7.019 -0.0811 -0.1842 -0.6333
15287TIP3    H145783   6.626   5.476   7.002 -0.0780 -0.4231  0.6800
15287TIP3    H245784   6.709   5.602   7.021 -0.0002 -0.4774  0.7050
15288TIP3   OH245785   6.895   2.238   6.528 -0.1092  0.1856  0.1593
15288TIP3    H145786   6.856   2.290   6.598  0.1510 -0.1433  0.5426
15288TIP3    H245787   6.971   2.289   6.500 -0.5771  0.6288 -0.3155
15289TIP3   OH245788   8.218   2.182   6.832 -0.5048 -0.2697 -0.0918
15289TIP3    H145789   8.259   2.099   6.856 -0.8561 -0.1183  1.1019
15289TIP3    H245790   8.138   2.157   6.786 -0.4565 -0.5978  0.0009
15290TIP3   OH245791   7.982   2.788   7.095 -0.0145  0.2524  0.4011
15290TIP3    H145792   8.070   2.824   7.087  0.5692 -1.4950 -1.8708
15290TIP3    H245793   7.988   2.723   7.164  0.9905 -1.1773 -0.9963
15291TIP3   OH245794   0.716   7.533   1.257 -0.4843  0.3656  0.3948
15291TIP3    H145795   0.773   7.474   1.208 -3.3458 -0.8727 -1.5736
15291TIP3    H245796   0.675   7.478   1.324 -2.5260  0.2462 -0.9078
15292TIP3   OH245797   3.037   1.056   1.680 -0.0233  0.3482  0.1182
15292TIP3    H145798   3.118   1.067   1.729 -0.4673  0.2446  0.8878
15292TIP3    H245799   3.054   0.982   1.621  0.6415  0.7187 -0.1602
15293TIP3   OH245800   7.923   2.328   6.949 -0.1137  0.0694  0.3997
15293TIP3    H145801   7.906   2.235   6.962 -0.0010 -0.0165 -0.0802
15293TIP3    H245802   7.867   2.353   6.876  2.2423 -0.3493 -1.5949
15294TIP3   OH245803   1.335   6.127   1.083  0.3174 -0.4229  0.0357
15294TIP3    H145804   1.273   6.062   1.050 -0.9506  0.3906  0.7770
15294TIP3    H245805   1.282   6.185   1.137  1.9751 -0.5173  1.8195
15295TIP3   OH245806   7.240   2.314   6.558 -0.0159  0.3962 -1.0220
15295TIP3    H145807   7.291   2.297   6.479  0.6668  1.3947 -0.8142
15295TIP3    H245808   7.193   2.396   6.539 -0.4099  0.2507 -0.6717
15296TIP3   OH245809   8.137   4.019   5.174 -0.3993 -0.5872  0.1072
15296TIP3    H145810   8.186   4.059   5.102 -1.3379 -0.6461 -0.5788
15296TIP3    H245811   8.189   3.943   5.200  1.2283  0.8920  1.2112
15297TIP3   OH245812   2.937   2.214   0.668 -0.4332 -0.2156 -0.0856
15297TIP3    H145813   3.007   2.238   0.607 -1.0195 -1.2029 -1.1554
15297TIP3    H245814   2.982   2.206   0.753  0.5813  0.0925 -0.5815
15298TIP3   OH245815   0.116   6.353   4.609  0.0459 -0.0750  0.2074
15298TIP3    H145816   0.022   6.367   4.591 -0.0562 -0.5399  0.3890
15298TIP3    H245817   0.160   6.414   4.549 -0.4008  1.1012  1.0400
15299TIP3   OH245818   6.307   1.229   6.227 -0.1835 -0.2202  0.1103
15299TIP3    H145819   6.273   1.140   6.238 -0.5686 -0.0076  0.6916
15299TIP3    H245820   6.229   1.285   6.233  0.2244  0.2490  1.1744
15300TIP3   OH245821   4.458   3.811   5.688  0.0035 -0.1803 -0.2450
15300TIP3    H145822   4.513   3.782   5.761 -2.6491 -1.2929  1.3920
15300TIP3    H245823   4.449   3.905   5.701  0.2414 -0.2408  0.3982
15301TIP3   OH245824   7.786   4.552   5.430 -0.0871 -0.1820 -0.5880
15301TIP3    H145825   7.827   4.479   5.384  1.1801  0.7102 -0.8795
15301TIP3    H245826   7.758   4.515   5.514 -0.0624 -1.1647 -1.0053
15302TIP3   OH245827   3.595   8.283   0.828  0.7181  0.8606  0.1966
15302TIP3    H145828   3.681   8.259   0.861  0.2930  0.6640  1.1834
15302TIP3    H245829   3.581   8.225   0.753 -0.0471 -1.5829  2.1956
15303TIP3   OH245830   7.160   4.737   6.456 -0.0517 -0.3725 -0.5680
15303TIP3    H145831   7.157   4.815   6.511  2.1430 -0.3781 -0.4221
15303TIP3    H245832   7.089   4.749   6.393 -1.3613  0.5212  1.0552
15304TIP3   OH245833   3.349   1.868   1.214  0.1412 -0.1905  0.6723
15304TIP3    H145834   3.276   1.867   1.153 -0.0352 -2.3926  0.8877
15304TIP3    H245835   3.323   1.931   1.282 -0.8115  0.2713 -0.1212
15305TIP3   OH245836   7.316   5.675   5.370 -0.1862 -0.7281 -0.3472
15305TIP3    H145837   7.357   5.725   5.299  0.0087 -0.9230 -0.3721
15305TIP3    H245838   7.378   5.604   5.387  0.2650 -0.0831  0.7360
15306TIP3   OH245839   8.616   6.190   4.072 -0.4546 -0.1749  0.5020
15306TIP3    H145840   8.614   6.286   4.064 -0.2958 -0.1986  0.1930
15306TIP3    H245841   8.528   6.167   4.103 -0.3503  0.1095  1.0207
15307TIP3   OH245842   8.707   7.586   1.034 -0.0341  0.4942  0.0687
15307TIP3    H145843   8.695   7.491   1.042  1.1497  0.4203  1.1197
15307TIP3    H245844   8.663   7.609   0.952  0.0008 -1.0267 -0.3926
15308TIP3   OH245845   0.835   6.548   5.866  0.0414  0.1101 -0.1440
15308TIP3    H145846   0.826   6.643   5.873  0.0961  0.2807 -2.2455
15308TIP3    H245847   0.752   6.519   5.829  0.6242 -0.4788 -1.0073
15309TIP3   OH245848   7.175   5.203   6.030 -0.1803 -0.5802 -0.5417
15309TIP3    H145849   7.163   5.293   6.000  1.2991 -0.3384 -0.4572
15309TIP3    H245850   7.181   5.210   6.125  0.5247 -0.6833 -0.5729
15310TIP3   OH245851   1.258   7.979   0.379 -0.5303  0.0240 -0.1477
15310TIP3    H145852   1.338   7.945   0.419 -1.0145 -0.9792 -0.0174
15310TIP3    H245853   1.282   8.067   0.348  0.3410  0.1191  0.7613
15311TIP3   OH245854   3.028   1.255   0.910  0.0057 -0.1777  0.1824
15311TIP3    H145855   3.016   1.340   0.869 -1.4194 -0.1360  0.6374
15311TIP3    H245856   2.982   1.262   0.994 -0.0909 -1.3806  0.2488
15312TIP3   OH245857   8.556   6.459   0.749 -0.2235 -0.1137 -0.3721
15312TIP3    H145858   8.545   6.382   0.693  0.6538 -1.1174  0.7968
15312TIP3    H245859   8.467   6.493   0.760 -0.7417 -1.4803 -0.1962
15313TIP3   OH245860   3.549   5.994   0.647 -0.1031 -0.4883 -0.5999
15313TIP3    H145861   3.478   5.934   0.671  0.0395 -0.5442 -0.3103
15313TIP3    H245862   3.629   5.948   0.674  0.0700 -0.6182 -1.3414
15314TIP3   OH245863   8.838   3.532   6.533 -0.1505 -0.7431 -0.1694
15314TIP3    H145864   8.748   3.547   6.564  0.4207  0.2635  1.0617
15314TIP3    H245865   8.828   3.476   6.456 -1.9084  0.2113 -0.6631
15315TIP3   OH245866   0.361   5.228   2.283  0.0829  0.2072 -0.2614
15315TIP3    H145867   0.366   5.269   2.196 -0.4085 -0.9284 -0.8316
15315TIP3    H245868   0.449   5.237   2.319  0.9128 -1.3453 -1.8110
15316TIP3   OH245869   5.729   4.235   6.933 -0.0847  0.3975 -0.2179
15316TIP3    H145870   5.753   4.180   6.859 -1.1116  1.0387 -1.0333
15316TIP3    H245871   5.729   4.324   6.899  0.2075  0.7779  0.7483
15317TIP3   OH245872   5.531   1.238   7.174  0.0032 -0.2868 -0.6246
15317TIP3    H145873   5.474   1.226   7.249  0.1540 -0.7158 -0.5786
15317TIP3    H245874   5.594   1.166   7.179 -0.0742 -0.4056 -1.2406
15318TIP3   OH245875   6.979   2.237   6.162  0.5499 -0.3956 -0.2384
15318TIP3    H145876   6.996   2.290   6.240  0.3105 -2.0314  0.9832
15318TIP3    H245877   7.038   2.271   6.095  0.2152  1.5439  0.4189
15319TIP3   OH245878   3.193   0.693   0.190  0.1006 -0.0967  0.4256
15319TIP3    H145879   3.120   0.664   0.244  0.1102  0.2902  0.6523
15319TIP3    H245880   3.195   0.633   0.116 -0.6853  0.1243  0.2223
15320TIP3   OH245881   5.895   2.133   6.771  0.2315  0.2559  0.4824
15320TIP3    H145882   5.940   2.126   6.687 -0.4946  2.2119 -0.0971
15320TIP3    H245883   5.855   2.047   6.784  1.5670 -0.5241 -0.4717
15321TIP3   OH245884   0.660   6.685   0.545 -0.2247  0.2789  0.3270
15321TIP3    H145885   0.585   6.741   0.568 -0.5308 -0.9229  2.3470
15321TIP3    H245886   0.691   6.720   0.461 -1.7419  2.1158  0.4997
15322TIP3   OH245887   6.111   4.849   5.338  0.0533 -0.3962 -0.2686
15322TIP3    H145888   6.135   4.826   5.248  1.0364  0.0407 -0.1233
15322TIP3    H245889   6.031   4.799   5.355 -0.1122 -0.5145 -1.3721
15323TIP3   OH245890   5.400   1.918   1.033 -0.4919  0.4180 -0.8832
15323TIP3    H145891   5.366   1.871   1.109  2.1760  0.8010  0.6051
15323TIP3    H245892   5.396   1.855   0.961  0.8493 -1.3164  0.5415
15324TIP3   OH245893   6.208   3.427   6.509 -0.8101 -0.3439  0.0498
15324TIP3    H145894   6.135   3.443   6.569 -0.8042  0.1492 -0.0746
15324TIP3    H245895   6.249   3.347   6.542  0.9110  1.4335  2.4161
15325TIP3   OH245896   1.739   8.064   2.051  0.5656  0.2149  0.1883
15325TIP3    H145897   1.807   8.129   2.065  0.5599  0.4074 -0.6216
15325TIP3    H245898   1.759   7.994   2.113  2.3275 -0.3748 -1.0064
15326TIP3   OH245899   8.192   5.258   5.088  0.7454  0.8010 -0.5488
15326TIP3    H145900   8.280   5.226   5.069  1.2807  1.2787  1.0904
15326TIP3    H245901   8.135   5.204   5.033  2.1926  1.8972 -3.2793
15327TIP3   OH245902   8.486   2.723   5.813  0.2124  0.0910  0.2501
15327TIP3    H145903   8.553   2.746   5.877 -0.3372  0.6182  0.6504
15327TIP3    H245904   8.534   2.706   5.732  0.8026  0.7618  0.4542
15328TIP3   OH245905   6.996   4.006   5.980 -0.1067  0.0142 -0.3599
15328TIP3    H145906   7.005   4.085   5.928  0.0316  0.0379 -0.2981
15328TIP3    H245907   6.971   3.938   5.917  0.8531 -0.1325 -0.5777
15329TIP3   OH245908   0.511   4.201   6.406  0.3594 -0.0483 -0.3830
15329TIP3    H145909   0.579   4.219   6.342  0.3131  1.7471  0.0486
15329TIP3    H245910   0.502   4.282   6.456 -1.7091 -0.4258 -0.0705
15330TIP3   OH245911   6.753   4.682   6.022 -0.5708 -0.6067 -0.4846
15330TIP3    H145912   6.703   4.600   6.029 -1.2419 -0.3207 -1.8221
15330TIP3    H245913   6.753   4.717   6.111 -0.7231 -1.8047 -0.0013
15331TIP3   OH245914   7.651   3.409   5.655 -0.0347 -0.5977  0.5311
15331TIP3    H145915   7.655   3.488   5.601  0.7174 -1.3649 -0.5619
15331TIP3    H245916   7.743   3.384   5.665 -0.3369 -2.0272 -0.1780
15332TIP3   OH245917   8.330   4.598   6.631  0.0390 -0.0693  0.1856
15332TIP3    H145918   8.398   4.544   6.591  0.7739  0.1245  1.1544
15332TIP3    H245919   8.287   4.540   6.693 -1.3652 -0.4847 -1.1454
15333TIP3   OH245920   6.626   2.610   6.863  0.4206  0.6096  0.3526
15333TIP3    H145921   6.586   2.571   6.940 -1.0605  0.3749 -0.5207
15333TIP3    H245922   6.570   2.584   6.790  1.6676  1.0169 -0.7829
15334TIP3   OH245923   8.807   3.559   5.907 -0.1611 -0.5062 -0.3486
15334TIP3    H145924   8.846   3.525   5.826 -0.5209 -0.2585 -0.6263
15334TIP3    H245925   8.866   3.630   5.934 -0.7652  0.2970 -1.1167
15335TIP3   OH245926   8.349   2.958   6.279 -0.1887 -0.0952 -0.0927
15335TIP3    H145927   8.303   3.031   6.237 -1.0325  0.5173  1.8115
15335TIP3    H245928   8.424   2.999   6.321  0.2962 -0.5972 -0.4767
15336TIP3   OH245929   1.864   3.989   7.066  0.0626 -0.2301 -0.0977
15336TIP3    H145930   1.793   3.968   7.126 -1.0072  0.5027 -1.0856
15336TIP3    H245931   1.866   4.085   7.063  0.0864 -0.2591 -1.2538
15337TIP3   OH245932   1.304   2.594   6.189 -0.7156  0.3077  0.3634
15337TIP3    H145933   1.396   2.602   6.166 -0.2700 -0.2540  1.8424
15337TIP3    H245934   1.274   2.515   6.144  0.0147 -0.5227  1.3065
15338TIP3   OH245935   7.781   4.403   7.196  0.0588 -0.3327  0.0909
15338TIP3    H145936   7.696   4.381   7.234  0.1647 -0.7955  0.0646
15338TIP3    H245937   7.760   4.456   7.120 -0.1466  0.7957  0.9294
15339TIP3   OH245938   0.115   7.938   1.403  0.1025 -0.1561  0.2395
15339TIP3    H145939   0.187   7.987   1.363  1.2168 -2.0734 -0.1975
15339TIP3    H245940   0.037   7.967   1.356  0.9942 -0.2023 -1.3111
15340TIP3   OH245941   7.205   1.781   6.042  0.1235  0.0471 -0.0941
15340TIP3    H145942   7.211   1.871   6.074  0.7212 -0.6637  1.8414
15340TIP3    H245943   7.259   1.730   6.102 -0.9839 -1.7628 -0.5901
15341TIP3   OH245944   8.179   5.098   6.060 -0.0657 -0.1095  0.4151
15341TIP3    H145945   8.273   5.099   6.079  0.3950  1.1380 -1.7526
15341TIP3    H245946   8.166   5.174   6.003 -2.0656 -1.2964 -0.7467
15342TIP3   OH245947   6.200   1.576   0.590  0.0450  0.1236 -0.2680
15342TIP3    H145948   6.193   1.617   0.676  0.2839  2.4776 -1.3460
15342TIP3    H245949   6.123   1.606   0.542  0.2292 -0.6608 -1.0797
15343TIP3   OH245950   6.990   1.374   6.210 -0.4051 -0.0100 -0.0154
15343TIP3    H145951   7.018   1.427   6.136  2.3305 -0.0695  0.8856
15343TIP3    H245952   7.070   1.363   6.262 -1.5320 -2.6655  1.2471
15344TIP3   OH245953   7.338   4.772   4.372 -0.4757 -0.2427 -0.0768
15344TIP3    H145954   7.350   4.855   4.326 -0.6470 -1.7636 -3.0507
15344TIP3    H245955   7.414   4.719   4.346 -0.0016 -0.7762  2.3336
15345TIP3   OH245956   1.698   6.326   1.572  0.7170 -0.1027  0.1148
15345TIP3    H145957   1.654   6.403   1.607 -0.2630 -0.1313 -1.0153
15345TIP3    H245958   1.702   6.342   1.477  1.7173 -0.8267  0.0211
15346TIP3   OH245959   8.363   3.710   6.739  0.7498  0.1999  0.2908
15346TIP3    H145960   8.406   3.642   6.687 -0.1402 -0.0292 -0.1503
15346TIP3    H245961   8.427   3.732   6.807  2.0429  0.6782 -1.0426
15347TIP3   OH245962   0.586   3.561   6.462 -0.2217  0.2161 -0.4620
15347TIP3    H145963   0.625   3.550   6.375  0.2548 -1.3918 -0.0807
15347TIP3    H245964   0.496   3.588   6.446  0.0988  0.7165 -1.4360
15348TIP3   OH245965   5.871   5.796   4.572  0.0116 -0.2060  0.2230
15348TIP3    H145966   5.901   5.734   4.505  1.0492 -1.2299  1.6126
15348TIP3    H245967   5.932   5.870   4.566  0.1355 -0.3208  0.0636
15349TIP3   OH245968   1.695   6.128   6.810 -0.1816  0.5472 -0.1488
15349TIP3    H145969   1.762   6.167   6.865 -1.1705  1.2434  0.5855
15349TIP3    H245970   1.742   6.066   6.755  1.5626  3.2727 -1.8651
15350TIP3   OH245971   7.998   3.797   6.018 -0.1360  0.4307  0.3320
15350TIP3    H145972   7.979   3.801   5.924 -2.1018 -0.2866  0.6690
15350TIP3    H245973   8.011   3.888   6.044  1.4171  0.5612 -0.8143
15351TIP3   OH245974   6.640   1.017   0.112  0.5959 -0.6120  0.4787
15351TIP3    H145975   6.634   1.061   0.027 -0.6846 -1.6008  0.0414
15351TIP3    H245976   6.716   0.960   0.105  1.4129  0.4442  0.5500
15352TIP3   OH245977   1.776   2.838   4.771  0.3783  0.5894  0.3764
15352TIP3    H145978   1.733   2.923   4.768 -0.0302  0.4166  1.3096
15352TIP3    H245979   1.796   2.823   4.863 -0.5086 -0.7867  0.3708
15353TIP3   OH245980   7.385   4.067   4.428  0.3840  0.0852  0.3762
15353TIP3    H145981   7.351   4.072   4.339  0.3755  0.8248  0.4171
15353TIP3    H245982   7.348   3.987   4.464 -1.1269  0.7544  0.3423
15354TIP3   OH245983   4.174   7.580   1.203 -0.2723 -0.3325  0.5291
15354TIP3    H145984   4.212   7.561   1.288  0.0237  0.0844  0.4893
15354TIP3    H245985   4.187   7.674   1.191 -0.4641 -0.3586  0.0999
15355TIP3   OH245986   5.001   4.397   1.009 -0.0623  0.3420  0.2687
15355TIP3    H145987   5.042   4.312   0.992 -0.2441  0.0825  1.1040
15355TIP3    H245988   5.054   4.435   1.079 -1.8655 -0.4419  2.0700
15356TIP3   OH245989   1.241   7.952   0.981 -0.2332  0.1304 -0.5801
15356TIP3    H145990   1.297   7.885   1.019 -0.5882  0.7372  1.0952
15356TIP3    H245991   1.251   7.942   0.887  0.5738 -1.5376 -0.3378
15357TIP3   OH245992   0.039   2.819   5.567  0.0640 -0.0759  0.0921
15357TIP3    H145993   0.118   2.782   5.607 -1.3869 -1.4366  1.7622
15357TIP3    H245994   0.018   2.894   5.623  0.2938  0.4170 -0.4803
15358TIP3   OH245995   6.491   3.712   6.787  0.4543  0.0232 -0.3442
15358TIP3    H145996   6.431   3.690   6.715  0.4741 -0.0564 -0.3360
15358TIP3    H245997   6.475   3.805   6.803  1.8661  0.5388 -1.7919
15359TIP3   OH245998   5.118  -0.006   0.278  0.2465  0.4446  0.2021
15359TIP3    H145999   5.122   0.089   0.264  0.2086  0.8952  2.9972
15359TIP3    H246000   5.208  -0.036   0.261  0.4121  1.0560 -0.0480
15360TIP3   OH246001   8.633   3.495   6.173  0.3505 -0.1329 -0.8626
15360TIP3    H146002   8.679   3.510   6.091 -0.9861 -2.9422 -2.1582
15360TIP3    H246003   8.677   3.420   6.212  0.3346  0.5678  0.5629
15361TIP3   OH246004   3.652   6.735   1.981 -0.1401 -0.6007 -0.3468
15361TIP3    H146005   3.606   6.704   1.903  1.2641 -2.5078 -0.4609
15361TIP3    H246006   3.590   6.720   2.053 -0.1317 -2.1566 -0.6417
15362TIP3   OH246007   8.318   5.338   6.929 -0.4090  0.2992  0.3907
15362TIP3    H146008   8.355   5.336   7.018 -1.4848  0.3185  0.8392
15362TIP3    H246009   8.245   5.399   6.934  0.0994  1.0070 -0.7456
15363TIP3   OH246010   5.299   0.208   0.142  0.3160  0.2415 -0.2610
15363TIP3    H146011   5.212   0.211   0.101 -0.1302  0.4174  0.6996
15363TIP3    H246012   5.314   0.297   0.173  0.7954  0.1809 -0.3137
15364TIP3   OH246013   8.259   5.876   6.616  0.5414 -0.3590 -0.2607
15364TIP3    H146014   8.273   5.923   6.533  1.2677 -0.1032  0.0022
15364TIP3    H246015   8.348   5.857   6.647  0.2756  0.0892  0.7691
15365TIP3   OH246016   6.286   5.405   5.976  0.0261 -0.7577 -0.3817
15365TIP3    H146017   6.220   5.457   5.931  0.7013 -0.4265 -1.0088
15365TIP3    H246018   6.320   5.346   5.908  1.5382  0.2169 -0.5025
15366TIP3   OH246019   1.309   6.674   0.060  0.7265  0.0902 -0.0638
15366TIP3    H146020   1.221   6.645   0.036  1.3339 -0.9404 -1.0636
15366TIP3    H246021   1.329   6.625   0.140  0.7334 -0.3472 -0.3294
15367TIP3   OH246022   8.317   2.903   4.675  0.2073 -0.5156  0.6832
15367TIP3    H146023   8.373   2.828   4.696  2.0866  0.7429  0.3074
15367TIP3    H246024   8.268   2.875   4.598  1.4705 -1.0694  0.0656
15368TIP3   OH246025   8.188   3.630   5.349  0.0046 -0.6805  0.2570
15368TIP3    H146026   8.235   3.703   5.309  0.7223 -1.9539 -1.2598
15368TIP3    H246027   8.118   3.609   5.287 -0.2039 -1.2861  0.6902
15369TIP3   OH246028   4.929   0.980   0.949 -0.4933 -0.3104 -0.5076
15369TIP3    H146029   5.022   1.003   0.938 -0.0374 -0.8473  1.9188
15369TIP3    H246030   4.881   1.054   0.913  0.9102  0.6758 -0.3888
15370TIP3   OH246031   7.642   4.785   5.524 -0.3308 -0.1791  0.5420
15370TIP3    H146032   7.681   4.709   5.480 -0.7130 -0.1311  0.1248
15370TIP3    H246033   7.704   4.805   5.594 -0.1723 -0.8140  0.5927
15371TIP3   OH246034   8.453   2.861   7.224  0.4189  0.4674 -0.5337
15371TIP3    H146035   8.441   2.789   7.286 -0.9413  1.7319  0.6803
15371TIP3    H246036   8.377   2.856   7.166  1.0823  0.0276 -1.3919
15372TIP3   OH246037   8.481   3.194   2.348 -0.1891  0.1862 -0.8384
15372TIP3    H146038   8.460   3.117   2.401 -0.3576 -0.7746 -2.2808
15372TIP3    H246039   8.405   3.252   2.359 -0.0425  0.1756  0.2855
15373TIP3   OH246040   8.880   3.924   6.927 -0.1401 -0.0870  0.3377
15373TIP3    H146041   8.876   4.016   6.902 -2.5373  0.1181  1.3700
15373TIP3    H246042   8.907   3.925   7.018 -1.8886 -0.2810  0.8832
15374TIP3   OH246043   0.258   6.487   1.248  0.3423 -0.0493 -0.1131
15374TIP3    H146044   0.320   6.497   1.176 -0.2416 -1.5546 -0.8428
15374TIP3    H246045   0.259   6.393   1.268 -0.7322  0.1117  0.7392
15375TIP3   OH246046   7.931   4.163   6.833 -0.0142  0.1192  0.0724
15375TIP3    H146047   7.854   4.120   6.869  0.6944 -0.8668  0.4453
15375TIP3    H246048   7.938   4.245   6.883 -0.9442  0.3287 -0.1292
15376TIP3   OH246049   8.643   3.054   7.118  0.4536  0.7814  0.2168
15376TIP3    H146050   8.611   3.143   7.135 -2.5215 -0.3737  1.0160
15376TIP3    H246051   8.577   2.997   7.157  2.4356 -1.8091 -0.0508
15377TIP3   OH246052   7.184   2.874   6.637 -0.1410 -0.5511 -0.7127
15377TIP3    H146053   7.213   2.787   6.611 -0.7609 -0.9793 -0.0177
15377TIP3    H246054   7.090   2.864   6.651 -0.2525  0.2881 -0.8725
15378TIP3   OH246055   7.180   2.561   5.387  0.5445  0.0174  0.0219
15378TIP3    H146056   7.225   2.578   5.470  0.1778 -0.5131  0.3355
15378TIP3    H246057   7.249   2.560   5.321  0.9529 -0.5109  0.4564
15379TIP3   OH246058   1.517   7.688   0.750 -0.3407  0.1455  0.2160
15379TIP3    H146059   1.518   7.694   0.845 -2.6031  0.1929  0.2596
15379TIP3    H246060   1.609   7.676   0.725  0.4297  1.5592  2.2959
15380TIP3   OH246061   7.066   6.169   4.319 -0.2132  0.9140  0.0248
15380TIP3    H146062   7.127   6.199   4.386  0.0728  0.8865 -0.2263
15380TIP3    H246063   7.107   6.092   4.281 -1.0153  0.1022  0.7673
15381TIP3   OH246064   0.018   5.951   7.053 -0.1685 -1.0993  0.0533
15381TIP3    H146065   0.064   5.951   6.969  1.8502 -1.2249  1.1300
15381TIP3    H246066   0.033   6.038   7.089 -1.5333 -0.8430  0.0221
15382TIP3   OH246067   0.026   3.223   6.062  0.4796 -0.0942 -0.3795
15382TIP3    H146068   0.103   3.170   6.082  0.7852 -0.0985 -1.5259
15382TIP3    H246069   0.037   3.248   5.970  0.5273  2.2418  0.2292
15383TIP3   OH246070   8.254   4.689   4.191  0.2642  0.2814 -0.6223
15383TIP3    H146071   8.205   4.615   4.155  0.2687 -0.3882  0.7162
15383TIP3    H246072   8.227   4.693   4.282  0.5732  1.6969 -0.5895
15384TIP3   OH246073   1.978   3.059   4.907  0.2288 -0.0371  0.2727
15384TIP3    H146074   2.036   2.983   4.907 -1.1377 -1.1085 -0.6120
15384TIP3    H246075   1.940   3.060   4.995  1.6093  0.7075  0.8774
15385TIP3   OH246076   0.132   2.760   4.317 -0.2751 -0.5449  0.8477
15385TIP3    H146077   0.118   2.667   4.336  0.7993 -0.3176  2.8413
15385TIP3    H246078   0.227   2.770   4.312 -0.4120  0.2470 -0.4738
15386TIP3   OH246079   1.021   2.655   6.142 -0.1397  0.4463  0.4142
15386TIP3    H146080   1.033   2.675   6.234  1.2196 -0.1042  0.3633
15386TIP3    H246081   1.106   2.671   6.102  0.2229 -2.5145 -0.1360
15387TIP3   OH246082   8.260   2.216   5.546 -0.6301  0.1911  0.3954
15387TIP3    H146083   8.322   2.290   5.543 -0.0270 -0.2650  1.5806
15387TIP3    H246084   8.225   2.212   5.457  2.2148 -0.5275 -0.7543
15388TIP3   OH246085   8.125   0.772   6.121  0.4978 -0.0587 -0.0297
15388TIP3    H146086   8.063   0.723   6.175 -0.9732  1.1822 -0.5912
15388TIP3    H246087   8.145   0.713   6.048  0.4609 -0.6939  0.4597
15389TIP3   OH246088   5.256   1.607   0.573 -0.5422  0.1320  0.2964
15389TIP3    H146089   5.327   1.547   0.550 -0.3340 -0.1630  1.6726
15389TIP3    H246090   5.295   1.668   0.636 -1.5771 -0.1679  1.2289
15390TIP3   OH246091   3.803   0.274   0.172 -0.1220  0.3998  0.3381
15390TIP3    H146092   3.710   0.259   0.193  0.1226 -1.0935  0.3694
15390TIP3    H246093   3.810   0.257   0.079  0.5821 -1.8471  0.7779
15391TIP3   OH246094   7.389   3.730   5.984  0.1956 -0.5421 -0.2940
15391TIP3    H146095   7.305   3.688   5.963  0.4327  0.1512 -2.7678
15391TIP3    H246096   7.450   3.657   5.995  0.2395 -0.9547 -2.9544
15392TIP3   OH246097   7.960   2.793   6.666  0.9686 -0.7417  0.1250
15392TIP3    H146098   7.912   2.872   6.644 -1.1221 -1.7970  0.7252
15392TIP3    H246099   7.915   2.758   6.743  2.1533 -2.2512  0.1630
15393TIP3   OH246100   8.559   5.087   6.579  0.1625 -0.1665 -0.0769
15393TIP3    H146101   8.512   5.014   6.618  0.0708 -0.6279 -1.0423
15393TIP3    H246102   8.605   5.049   6.504 -1.5352  1.1378 -1.8415
15394TIP3   OH246103   5.926   0.976   0.042  0.3968  0.6358  0.0353
15394TIP3    H146104   5.887   1.033   0.108  1.4918  0.3330  0.9578
15394TIP3    H246105   6.015   1.011   0.030  0.1782  0.7680 -1.3808
15395TIP3   OH246106   0.110   6.283   5.661  0.1819 -0.2324  0.3793
15395TIP3    H146107   0.100   6.195   5.627 -1.1891  0.6073 -1.4665
15395TIP3    H246108   0.182   6.321   5.611 -0.1138  0.1468  0.2427
15396TIP3   OH246109   7.466   5.957   4.289  0.1708 -0.1622  0.0530
15396TIP3    H146110   7.377   5.922   4.282 -1.2222  3.1632  0.1603
15396TIP3    H246111   7.485   5.956   4.383 -0.0259 -0.2369  0.0915
15397TIP3   OH246112   8.635   5.238   7.114  0.2831  0.3527 -0.0136
15397TIP3    H146113   8.550   5.274   7.141  0.3951  0.5210  0.1158
15397TIP3    H246114   8.641   5.259   7.021 -0.2781 -0.5633 -0.2665
15398TIP3   OH246115   8.275   3.421   7.232  0.3126 -0.7170  0.4900
15398TIP3    H146116   8.315   3.501   7.267 -0.9417  0.0537  0.2262
15398TIP3    H246117   8.182   3.442   7.227 -0.5574 -3.3242  3.5414
15399TIP3   OH246118   7.391   3.662   5.654 -0.4217  0.0256  1.0726
15399TIP3    H146119   7.352   3.611   5.725 -0.9026  0.1716  0.9133
15399TIP3    H246120   7.389   3.752   5.686  0.3300 -0.0412  1.3097
15400TIP3   OH246121   1.518   7.862   1.580  0.0730 -0.4305  0.3715
15400TIP3    H146122   1.536   7.769   1.593  0.5502 -0.2834  0.7502
15400TIP3    H246123   1.585   7.891   1.518  0.5452 -0.1091  1.0298
15401TIP3   OH246124   7.953   3.344   5.568 -0.2913  0.0250  0.4331
15401TIP3    H146125   8.047   3.359   5.562 -0.2010 -0.1087  1.4095
15401TIP3    H246126   7.938   3.264   5.518  0.0084  0.4176 -0.2907
15402TIP3   OH246127   1.848   4.360   5.401 -0.3214 -0.9140 -0.1362
15402TIP3    H146128   1.858   4.400   5.488  3.7360 -1.3222 -0.2966
15402TIP3    H246129   1.831   4.433   5.342  1.8096 -0.0078  0.3301
15403TIP3   OH246130   6.843   2.397   3.705  0.3064  0.5401 -0.0967
15403TIP3    H146131   6.855   2.311   3.745 -1.9002 -0.4544 -1.4654
15403TIP3    H246132   6.798   2.448   3.772  2.5901  1.0102  1.1258
15404TIP3   OH246133   8.633   0.710   3.101 -0.0792 -0.2476 -0.3889
15404TIP3    H146134   8.569   0.750   3.161 -1.2671 -0.2774 -1.6263
15404TIP3    H246135   8.601   0.622   3.087  0.7393 -0.5651 -0.3060
15405TIP3   OH246136   5.236   8.053   2.109 -0.2739 -0.0474  0.3981
15405TIP3    H146137   5.161   8.105   2.081 -0.7364 -0.1233  1.4761
15405TIP3    H246138   5.312   8.108   2.088 -0.6756  0.4304  0.1852
15406TIP3   OH246139   4.701   8.138   1.489  0.0208  0.1067 -0.4209
15406TIP3    H146140   4.741   8.191   1.420  1.3696  2.0020  1.7519
15406TIP3    H246141   4.774   8.111   1.545 -1.0753 -1.1731  0.4333
15407TIP3   OH246142   5.069   8.261   2.088 -0.1908 -0.3437  0.2796
15407TIP3    H146143   5.034   8.336   2.040  0.2465 -0.3117  0.0111
15407TIP3    H246144   5.084   8.294   2.177 -0.4259 -0.2399  0.2807
15408TIP3   OH246145   6.626   0.278   1.015 -0.2183  0.4841 -0.3138
15408TIP3    H146146   6.620   0.345   1.083 -0.6597  1.0218 -0.8749
15408TIP3    H246147   6.538   0.276   0.976  0.8163  2.2106 -2.7838
15409TIP3   OH246148   7.674   1.104   1.469  0.1402 -0.3995  0.8244
15409TIP3    H146149   7.613   1.101   1.396  0.0492 -0.1733  0.8906
15409TIP3    H246150   7.733   1.176   1.448  1.6018 -1.8775 -0.1988
15410TIP3   OH246151   2.727   2.993   6.853 -0.8206  0.2447  0.3890
15410TIP3    H146152   2.795   2.929   6.832 -2.0596 -1.1532  0.5415
15410TIP3    H246153   2.771   3.078   6.846  0.6174 -0.5670 -0.7018
15411TIP3   OH246154   3.639   8.134   3.423 -0.8488  0.3701  0.2437
15411TIP3    H146155   3.595   8.051   3.440  1.3311 -1.2749 -1.9515
15411TIP3    H246156   3.585   8.176   3.356  0.2184 -1.0844 -1.5453
15412TIP3   OH246157   7.011   0.345   1.755  0.7755  0.3027  0.4093
15412TIP3    H146158   6.994   0.264   1.804 -0.6891 -0.1190 -0.7588
15412TIP3    H246159   6.939   0.351   1.693 -0.1588  3.4862  1.7044
15413TIP3   OH246160   0.498   0.049   1.878 -0.1038 -0.5422 -0.0422
15413TIP3    H146161   0.439  -0.002   1.933  0.7409  0.9166  2.2981
15413TIP3    H246162   0.472   0.140   1.894  2.4858  0.1061  0.7574
15414TIP3   OH246163   8.874   2.965   1.385  0.0683  0.1940  0.1517
15414TIP3    H146164   8.793   2.998   1.345  0.1611  0.4039  0.1392
15414TIP3    H246165   8.853   2.874   1.408  0.1555 -0.0815 -0.8042
15415TIP3   OH246166   7.416   0.919   1.633  0.4777 -0.0432  0.3729
15415TIP3    H146167   7.502   0.914   1.674 -0.8071  1.0070  3.3434
15415TIP3    H246168   7.370   0.987   1.682 -0.8951  1.8950 -3.3887
15416TIP3   OH246169   8.402   1.069   0.505 -0.5380 -0.1801 -0.5071
15416TIP3    H146170   8.415   1.004   0.574 -0.0417  1.7011  1.2642
15416TIP3    H246171   8.489   1.083   0.468 -0.2030  1.1119  0.7031
15417TIP3   OH246172   1.026   3.965   6.859 -0.2727  0.3946  0.2450
15417TIP3    H146173   0.937   3.977   6.828 -0.5979  1.9066  1.7215
15417TIP3    H246174   1.073   4.042   6.828  0.2682  0.1232  0.3811
15418TIP3   OH246175   1.797   4.183   6.512 -0.3341  0.4576  0.1794
15418TIP3    H146176   1.782   4.092   6.535 -0.4404  0.5824  0.6048
15418TIP3    H246177   1.786   4.186   6.417  3.1962 -0.6664 -0.3126
15419TIP3   OH246178   5.882   7.627   1.883  0.2156 -0.1154  0.1506
15419TIP3    H146179   5.956   7.629   1.822 -0.4416  1.1515 -0.6071
15419TIP3    H246180   5.905   7.557   1.945  2.7589  1.2480  0.8250
15420TIP3   OH246181   6.007   0.834   1.259 -0.4969 -0.2761 -0.2302
15420TIP3    H146182   6.038   0.903   1.318 -0.3446 -0.7556  0.2615
15420TIP3    H246183   6.006   0.755   1.314 -2.0930 -0.3720 -0.3897
15421TIP3   OH246184   4.215   6.972   1.796  0.6483  0.1017 -0.0200
15421TIP3    H146185   4.244   7.060   1.772  0.3353  0.6683  1.6208
15421TIP3    H246186   4.290   6.915   1.774 -0.0954  0.3632 -3.5307
15422TIP3   OH246187   7.238   0.291   1.636 -0.1331 -0.2505  0.5549
15422TIP3    H146188   7.291   0.354   1.686  1.2446 -2.2533  1.6781
15422TIP3    H246189   7.150   0.298   1.673  0.0938  0.7451  0.9252
15423TIP3   OH246190   3.738   8.195   1.110 -0.1265 -0.2911  0.6152
15423TIP3    H146191   3.770   8.105   1.107  1.1051  0.1548 -0.0791
15423TIP3    H246192   3.645   8.188   1.088  0.1601 -1.3124 -0.3091
15424TIP3   OH246193   0.100   1.612   2.442  0.3719  0.4466  0.1775
15424TIP3    H146194   0.014   1.585   2.475  0.4824 -0.3338 -0.1679
15424TIP3    H246195   0.131   1.538   2.391  0.3929  1.4871 -1.3421
15425TIP3   OH246196   5.606   0.709   0.711  0.1472  0.0370  0.6484
15425TIP3    H146197   5.527   0.685   0.663  0.9100 -1.2412  0.0071
15425TIP3    H246198   5.611   0.804   0.703 -0.1685 -0.0847 -1.1378
15426TIP3   OH246199   0.195   1.036   1.773  0.1272 -0.3767  0.0765
15426TIP3    H146200   0.106   1.008   1.755  0.2545 -0.7986  0.0894
15426TIP3    H246201   0.194   1.059   1.866 -0.3445  1.0913 -0.2876
15427TIP3   OH246202   0.320   2.612   6.848  0.2711 -0.3592  0.5358
15427TIP3    H146203   0.341   2.592   6.757  1.0475  1.5716  0.2595
15427TIP3    H246204   0.250   2.677   6.842 -0.1734 -0.7667  1.3296
15428TIP3   OH246205   5.979   1.727   0.415  0.3082 -0.0780  0.1017
15428TIP3    H146206   6.050   1.760   0.360 -0.2342  1.0907  0.0963
15428TIP3    H246207   5.929   1.669   0.357  0.0162  0.7721 -0.5148
15429TIP3   OH246208   2.092   2.115   6.506 -0.4069 -0.7072  0.1947
15429TIP3    H146209   2.084   2.038   6.450  1.1601 -1.2598  0.7027
15429TIP3    H246210   2.129   2.182   6.448  0.0397 -0.9148  0.2331
15430TIP3   OH246211   2.059   3.851   7.230 -0.0212 -0.8075  0.1368
15430TIP3    H146212   1.990   3.806   7.280 -1.0259 -1.4081 -1.7394
15430TIP3    H246213   2.016   3.876   7.148  1.4290  0.7283 -0.1715
15431TIP3   OH246214   6.209   0.757   0.383  0.1498  0.2111  0.3734
15431TIP3    H146215   6.123   0.799   0.387 -1.1455 -2.4979  2.5594
15431TIP3    H246216   6.258   0.808   0.318 -2.8560  2.2325 -0.3935
15432TIP3   OH246217   5.421   1.402   0.408 -0.1512 -0.5068  0.0604
15432TIP3    H146218   5.381   1.341   0.345 -3.6051  1.5299  0.1404
15432TIP3    H246219   5.441   1.480   0.356  1.2387 -0.4902  0.6031
15433TIP3   OH246220   7.938   0.128   3.201 -0.4942  0.3251  0.5023
15433TIP3    H146221   7.862   0.073   3.218 -1.0879  1.1631  0.5761
15433TIP3    H246222   7.965   0.105   3.112 -1.2554  0.5300  0.2156
15434TIP3   OH246223   7.949   0.709   0.508 -1.0332 -0.2504  0.4305
15434TIP3    H146224   7.955   0.651   0.432 -2.0390  0.5879 -0.3087
15434TIP3    H246225   7.866   0.755   0.496 -1.4328 -0.4640  2.3100
15435TIP3   OH246226   6.730   1.787   0.441 -0.1193 -0.2137 -0.9215
15435TIP3    H146227   6.680   1.803   0.521 -0.0911  0.4747 -1.0345
15435TIP3    H246228   6.695   1.706   0.406 -0.4880 -0.2459 -0.4815
15436TIP3   OH246229   6.391   1.094   2.052  0.5198  0.0959  0.5601
15436TIP3    H146230   6.367   1.134   2.135 -0.5732  0.5185  0.0540
15436TIP3    H246231   6.427   1.167   2.000 -1.6850  0.5167 -0.4469
15437TIP3   OH246232   4.184   4.455   7.234 -0.0893  0.2395 -0.4526
15437TIP3    H146233   4.206   4.542   7.269  0.6597  0.1392 -0.6590
15437TIP3    H246234   4.234   4.449   7.153 -2.4256  0.7811 -1.9823
15438TIP3   OH246235   1.385   4.803   6.782  0.4837 -0.4198 -0.3972
15438TIP3    H146236   1.381   4.885   6.733  2.7555 -0.8918 -1.4395
15438TIP3    H246237   1.395   4.831   6.873  0.4123  0.4492 -0.6478
15439TIP3   OH246238   3.481   8.126   0.270 -0.2740  0.3065 -0.0813
15439TIP3    H146239   3.407   8.184   0.290 -0.7546  0.2860 -1.7342
15439TIP3    H246240   3.447   8.067   0.203  0.5749 -1.1391  0.7423
15440TIP3   OH246241   1.141   1.190   0.354  0.0029  0.1174 -1.2545
15440TIP3    H146242   1.191   1.117   0.390 -1.3196 -1.2796 -2.2025
15440TIP3    H246243   1.106   1.157   0.271 -3.2485  0.7210 -0.1863
15441TIP3   OH246244   2.371   3.574   5.804 -0.1682  0.8346 -0.1743
15441TIP3    H146245   2.429   3.647   5.782  1.1873  0.1692  1.0532
15441TIP3    H246246   2.421   3.523   5.868 -1.2578 -0.9376 -0.7055
15442TIP3   OH246247   5.896   7.640   1.081  0.1384  1.0250  0.1373
15442TIP3    H146248   5.913   7.719   1.132  2.8529 -0.0436  0.9234
15442TIP3    H246249   5.847   7.583   1.140  0.5861  1.0187  0.5028
15443TIP3   OH246250   4.807   0.535   1.296 -0.3818 -0.0984  0.5604
15443TIP3    H146251   4.866   0.606   1.275 -0.9135  0.1076 -0.2662
15443TIP3    H246252   4.863   0.467   1.333  0.2899  0.3025  0.2895
15444TIP3   OH246253   3.605   6.443   2.973  0.4564  0.4030 -0.6398
15444TIP3    H146254   3.518   6.482   2.967 -0.0163  0.3302  3.7097
15444TIP3    H246255   3.591   6.351   2.952 -0.5174  0.4293 -0.1716
15445TIP3   OH246256   5.687   6.718   0.975 -0.4275 -0.5797  0.3258
15445TIP3    H146257   5.608   6.671   1.002 -1.7997  0.5603 -1.5587
15445TIP3    H246258   5.683   6.718   0.879  2.0585 -0.8137  0.1945
15446TIP3   OH246259   2.463   3.221   4.234  0.2109  0.3872 -0.0278
15446TIP3    H146260   2.383   3.177   4.263  0.4631 -2.0214 -2.7224
15446TIP3    H246261   2.533   3.158   4.252  1.0089  0.9559 -1.0607
15447TIP3   OH246262   4.928   8.056   1.026  0.1947 -0.2104 -0.2214
15447TIP3    H146263   4.940   8.136   1.077 -1.2959 -0.2624  0.2341
15447TIP3    H246264   5.002   8.001   1.050  1.3044  1.0677 -0.6293
15448TIP3   OH246265   7.900   0.984   0.424  0.2093  0.0207 -0.1425
15448TIP3    H146266   7.835   0.934   0.373 -0.7592 -1.2023  2.2293
15448TIP3    H246267   7.966   0.920   0.449 -0.9195 -0.0845  2.7316
15449TIP3   OH246268   0.063  -0.009   1.750 -0.0832  0.0302 -0.3061
15449TIP3    H146269   0.104   0.073   1.723  1.6817 -0.8808 -0.4345
15449TIP3    H246270   0.061  -0.062   1.671 -2.0576  0.2591 -0.4401
15450TIP3   OH246271   5.668   3.859   1.992 -0.0602  0.4337  0.2592
15450TIP3    H146272   5.757   3.840   2.022  0.3089  0.5552 -0.7112
15450TIP3    H246273   5.634   3.774   1.962 -0.7332  0.1573  1.7914
15451TIP3   OH246274   4.746   8.087   0.458 -0.4976  0.1514 -0.5123
15451TIP3    H146275   4.754   8.094   0.553  0.7158 -0.1622 -0.5760
15451TIP3    H246276   4.652   8.081   0.442 -0.7132  0.2381  0.6634
15452TIP3   OH246277   5.302   8.166   1.526 -0.1106 -0.0943  0.3745
15452TIP3    H146278   5.336   8.254   1.544 -2.1629  0.9073 -0.4553
15452TIP3    H246279   5.273   8.133   1.611  1.5810 -0.4053  0.8572
15453TIP3   OH246280   1.581   5.101   5.799 -0.4001 -0.1054  0.0231
15453TIP3    H146281   1.589   5.008   5.822  0.1509 -0.0630  0.0157
15453TIP3    H246282   1.659   5.120   5.747 -1.2828 -0.0177 -1.2970
15454TIP3   OH246283   5.044   7.605   2.868 -0.3382  0.2661 -0.0584
15454TIP3    H146284   4.970   7.571   2.818 -0.2544 -0.8236  0.5598
15454TIP3    H246285   5.034   7.700   2.863 -1.2416  0.1404 -0.7794
15455TIP3   OH246286   3.833   2.759   6.983 -0.0837 -0.0811  0.1466
15455TIP3    H146287   3.794   2.675   7.009  1.5558 -1.4012 -1.5615
15455TIP3    H246288   3.784   2.824   7.033 -1.5628 -2.0284  1.3119
15456TIP3   OH246289   4.772   7.766   1.881  0.9087  0.2666  0.2666
15456TIP3    H146290   4.721   7.716   1.945 -0.9603 -0.0752 -1.4576
15456TIP3    H246291   4.804   7.842   1.930 -0.4233 -0.0267  1.6277
15457TIP3   OH246292   0.224   1.272   0.975 -0.0352  0.1011 -0.1033
15457TIP3    H146293   0.245   1.300   0.886 -0.7771  1.4799  0.1403
15457TIP3    H246294   0.135   1.238   0.969 -0.3900  0.9558  0.2671
15458TIP3   OH246295   1.249   1.556   3.711 -0.2771 -0.1742  0.3979
15458TIP3    H146296   1.172   1.563   3.766 -0.6263  0.2054 -0.1311
15458TIP3    H246297   1.305   1.491   3.755 -0.5422  0.1334  1.1872
15459TIP3   OH246298   6.378   7.394   1.144  0.6789 -0.7134  0.8188
15459TIP3    H146299   6.302   7.446   1.118  0.4782 -0.2648  2.2165
15459TIP3    H246300   6.341   7.311   1.176  0.9736 -1.5827 -1.0416
15460TIP3   OH246301   7.217   0.142   0.268 -0.1538  0.7218  0.5600
15460TIP3    H146302   7.130   0.183   0.266 -0.2211  0.6024  1.0579
15460TIP3    H246303   7.214   0.077   0.198  0.3918  2.4584 -1.1405
15461TIP3   OH246304   4.753   4.407   7.132  0.5048  0.1208 -0.1436
15461TIP3    H146305   4.729   4.486   7.083  0.4946  0.8543  1.0464
15461TIP3    H246306   4.701   4.338   7.092 -0.1474  0.8710 -0.6008
15462TIP3   OH246307   1.326   0.820   3.829  0.1846 -0.8190 -0.6572
15462TIP3    H146308   1.264   0.762   3.785 -0.1397 -0.8842 -0.1247
15462TIP3    H246309   1.409   0.807   3.783 -0.4999  0.2356 -2.2023
15463TIP3   OH246310   1.531   1.085   1.513  0.1815  0.5805 -0.4493
15463TIP3    H146311   1.574   1.095   1.598  0.7420 -0.3009 -0.6272
15463TIP3    H246312   1.440   1.111   1.530  0.0399 -0.5627  0.6793
15464TIP3   OH246313   8.314   0.589   0.243  0.4513  0.4589  0.1489
15464TIP3    H146314   8.302   0.607   0.150 -0.2150  0.1103  0.1650
15464TIP3    H246315   8.316   0.676   0.284  1.3959  0.6394 -0.2573
15465TIP3   OH246316   3.574   5.505   6.188  0.7765  0.5372  0.2635
15465TIP3    H146317   3.550   5.513   6.096 -0.1601  1.2869  0.5611
15465TIP3    H246318   3.545   5.418   6.214  0.6203  0.5023 -0.0317
15466TIP3   OH246319   4.639   4.156   6.557  0.2136  0.1832  0.6088
15466TIP3    H146320   4.727   4.169   6.593  0.8456  0.2834 -0.9628
15466TIP3    H246321   4.581   4.197   6.622  1.1658 -1.4315  2.5345
15467TIP3   OH246322   0.277   0.662   3.613  0.5980 -0.4915 -0.0228
15467TIP3    H146323   0.229   0.736   3.650  1.2777 -0.3426  0.5872
15467TIP3    H246324   0.345   0.702   3.559 -0.9258 -0.7205 -2.1581
15468TIP3   OH246325   1.331   1.611   2.116  0.3291 -0.1706 -0.2803
15468TIP3    H146326   1.268   1.615   2.188 -1.7124 -0.3154 -1.9891
15468TIP3    H246327   1.312   1.527   2.073  1.6666 -0.1845 -0.8424
15469TIP3   OH246328   0.084   0.780   3.772 -0.9297 -0.0369  0.0608
15469TIP3    H146329   0.059   0.871   3.755 -0.0117  0.0662 -0.7945
15469TIP3    H246330   0.081   0.771   3.868 -4.4261 -0.1163 -0.0213
15470TIP3   OH246331   1.765   0.828   2.186 -0.1033  0.0619  0.1826
15470TIP3    H146332   1.744   0.771   2.260 -0.5361  0.3231  0.2622
15470TIP3    H246333   1.783   0.767   2.114 -0.7311 -0.1795  0.2212
15471TIP3   OH246334   8.615   0.649   3.452  0.0168 -0.6192 -0.0735
15471TIP3    H146335   8.580   0.619   3.536 -1.4616 -1.1876 -0.8778
15471TIP3    H246336   8.553   0.616   3.387  0.1285  1.3821 -1.2467
15472TIP3   OH246337   0.443   0.924   1.749  0.5961  0.0144 -0.1206
15472TIP3    H146338   0.447   0.830   1.733  1.9757  0.1461 -0.5721
15472TIP3    H246339   0.352   0.940   1.774  0.1223 -1.2899 -0.9740
15473TIP3   OH246340   6.199   8.308   1.948  0.4526 -0.5105 -0.7602
15473TIP3    H146341   6.129   8.321   1.885  2.1156  3.6632 -1.9060
15473TIP3    H246342   6.167   8.349   2.029  0.7371 -0.4538 -0.6740
15474TIP3   OH246343   3.599   3.514   7.160 -0.0800  0.4871 -0.2907
15474TIP3    H146344   3.694   3.515   7.144 -0.0099  0.4928  0.1162
15474TIP3    H246345   3.566   3.447   7.100  0.1041  0.9054 -0.8575
15475TIP3   OH246346   3.500   8.058   1.771 -0.2598 -0.2828  0.2457
15475TIP3    H146347   3.520   8.022   1.684  1.4920 -0.5614  0.7263
15475TIP3    H246348   3.560   8.132   1.780  1.6684 -2.0126  2.3395
15476TIP3   OH246349   1.965   5.539   6.894 -0.6128 -0.4034  0.0148
15476TIP3    H146350   2.050   5.527   6.852 -0.0423  1.0362  0.7331
15476TIP3    H246351   1.974   5.496   6.979 -0.4365  0.2092  0.3028
15477TIP3   OH246352   3.867   3.220   6.755 -0.4933 -0.3830  0.2654
15477TIP3    H146353   3.927   3.167   6.702 -0.1792  1.0277 -0.8133
15477TIP3    H246354   3.924   3.265   6.817 -0.4198  0.8858 -0.6987
15478TIP3   OH246355   6.485   8.281   2.184 -0.1132  0.4658  0.0675
15478TIP3    H146356   6.433   8.287   2.264  1.2023  1.5078  0.8701
15478TIP3    H246357   6.440   8.216   2.130 -1.1001 -0.1251  1.5898
15479TIP3   OH246358   0.933   0.815   0.216  0.3296  0.2605  0.0583
15479TIP3    H146359   0.922   0.900   0.260 -0.0197 -0.3220  1.1167
15479TIP3    H246360   0.883   0.754   0.270  2.2900 -1.0066  0.4973
15480TIP3   OH246361   1.810   0.772   1.666 -0.6531  0.0224 -0.5070
15480TIP3    H146362   1.806   0.706   1.597 -1.2609 -1.2917  0.7612
15480TIP3    H246363   1.801   0.723   1.747 -1.3668  1.6815  0.4587
15481TIP3   OH246364   3.175   0.476   2.893 -0.0562 -0.0452 -0.3207
15481TIP3    H146365   3.163   0.457   2.986  1.8426  1.9122  0.3462
15481TIP3    H246366   3.157   0.392   2.849 -0.4560 -1.1149  1.8258
15482TIP3   OH246367   2.038   3.905   5.794  0.2585  0.8622  0.0720
15482TIP3    H146368   1.999   3.950   5.718  1.7726 -0.2185 -1.3796
15482TIP3    H246369   2.093   3.972   5.834 -0.4206  1.3952  0.1402
15483TIP3   OH246370   5.173   3.830   7.070  0.1843  0.1027  0.4466
15483TIP3    H146371   5.228   3.797   6.999  0.5334  1.0589  0.2701
15483TIP3    H246372   5.094   3.863   7.027 -0.0645 -0.2834  0.6022
15484TIP3   OH246373   1.282   1.180   1.467 -0.1392  0.7708 -0.0578
15484TIP3    H146374   1.276   1.143   1.379 -0.6591  1.3422 -0.2662
15484TIP3    H246375   1.266   1.274   1.455  2.2931  1.2615  0.3089
15485TIP3   OH246376   4.964   8.069   0.701  0.1199  0.0736  0.1225
15485TIP3    H146377   4.885   8.077   0.755  1.0115 -0.1764  1.4694
15485TIP3    H246378   5.020   8.141   0.731  1.1716 -0.8842  0.4691
15486TIP3   OH246379   0.734   0.544   2.653 -0.1094  0.4009  0.1918
15486TIP3    H146380   0.649   0.546   2.610 -0.7679 -2.1708  1.2768
15486TIP3    H246381   0.788   0.488   2.597  0.5636  1.1887  0.0446
15487TIP3   OH246382   5.264   7.439   2.189 -1.0362  0.2777  0.6783
15487TIP3    H146383   5.253   7.346   2.211 -1.5986  0.1455 -0.1721
15487TIP3    H246384   5.348   7.442   2.144 -0.6496  0.3032  1.3870
15488TIP3   OH246385   0.936   0.898   2.690 -0.0164 -0.1555  0.1390
15488TIP3    H146386   0.879   0.875   2.617  0.2061 -0.9903  0.2312
15488TIP3    H246387   0.965   0.987   2.670 -1.8734  0.5431  0.4143
15489TIP3   OH246388   8.413   7.318   1.416  0.6206 -0.2492 -0.1220
15489TIP3    H146389   8.380   7.228   1.421  0.2317 -0.2364 -2.2880
15489TIP3    H246390   8.508   7.308   1.422  0.5854 -0.7981 -0.4484
15490TIP3   OH246391   0.275   0.953   2.664  0.6726 -0.4632 -0.3310
15490TIP3    H146392   0.316   0.944   2.750 -1.2283 -1.0269  0.5476
15490TIP3    H246393   0.283   1.046   2.643  1.5475 -0.4035  0.2338
15491TIP3   OH246394   3.430   5.231   7.188 -0.4477 -0.3491  0.0576
15491TIP3    H146395   3.344   5.247   7.149 -1.3479 -1.9572  1.2877
15491TIP3    H246396   3.410   5.212   7.280  1.4727  1.8699  0.9717
15492TIP3   OH246397   0.285   0.121   0.654  0.0419  0.1001  0.3491
15492TIP3    H146398   0.254   0.036   0.685  2.9347 -1.2662 -0.3510
15492TIP3    H246399   0.374   0.128   0.688  0.4234  2.1349 -0.9627
15493TIP3   OH246400   6.718   6.945   1.625 -0.6822  0.1214 -0.3845
15493TIP3    H146401   6.702   6.911   1.713 -0.4894  0.2739 -0.2883
15493TIP3    H246402   6.746   6.869   1.574 -1.1539 -0.0369 -0.4091
15494TIP3   OH246403   3.181   3.217   7.002  0.1130 -0.0052 -0.1688
15494TIP3    H146404   3.256   3.161   6.980  0.2197 -0.3623  1.0243
15494TIP3    H246405   3.213   3.273   7.072 -0.9787 -0.7583  0.9587
15495TIP3   OH246406   1.307   2.077   2.547  0.4007 -0.1789 -0.2772
15495TIP3    H146407   1.401   2.087   2.561  0.4929 -0.6574 -0.5611
15495TIP3    H246408   1.276   2.031   2.625  0.3384  0.3165 -0.0071
15496TIP3   OH246409   6.660   7.935   1.453  0.3496  0.0641  0.4763
15496TIP3    H146410   6.663   7.970   1.364 -0.3376  1.2452  0.9117
15496TIP3    H246411   6.627   8.007   1.507  1.5701 -0.3567  1.8299
15497TIP3   OH246412   1.188   1.556   0.889  0.1014 -0.0224  0.0094
15497TIP3    H146413   1.191   1.574   0.795  0.3467 -0.1141  0.0008
15497TIP3    H246414   1.272   1.517   0.909  1.6491  3.5943  0.9729
15498TIP3   OH246415   0.423   1.012   3.943  0.1215  0.7806  0.1912
15498TIP3    H146416   0.455   1.009   3.853  0.5196 -0.4271  0.3720
15498TIP3    H246417   0.383   0.927   3.958  0.3920  0.8304  1.2720
15499TIP3   OH246418   2.607   5.618   6.080  0.1462  0.2133  0.0067
15499TIP3    H146419   2.617   5.531   6.118  0.5121  0.5273  0.6220
15499TIP3    H246420   2.661   5.675   6.134 -1.4671  1.1423  0.6848
15500TIP3   OH246421   8.771   0.671   1.430  0.5404  0.2936  0.0254
15500TIP3    H146422   8.712   0.621   1.374  0.1588  0.6863  0.0760
15500TIP3    H246423   8.859   0.646   1.401  0.3567 -0.8470  0.4360
15501TIP3   OH246424   0.476   0.579   2.522 -0.2941 -0.0052  0.7776
15501TIP3    H146425   0.473   0.491   2.487 -0.2151  0.7734 -1.2470
15501TIP3    H246426   0.390   0.617   2.501 -0.0598  0.6494  0.9717
15502TIP3   OH246427   0.573   0.312   1.004  0.4884  0.3028 -0.1597
15502TIP3    H146428   0.481   0.340   1.002  0.0234 -1.1423 -0.1492
15502TIP3    H246429   0.586   0.270   0.918  0.1724 -2.3510  1.0382
15503TIP3   OH246430   8.684   7.321   1.017 -0.1338 -0.5229 -0.7343
15503TIP3    H146431   8.771   7.295   1.047  0.7593  0.4004 -2.4223
15503TIP3    H246432   8.684   7.300   0.923 -0.6653  2.1565 -1.3778
15504TIP3   OH246433   7.033   7.585   1.177 -0.0715  0.4981  0.4030
15504TIP3    H146434   6.979   7.658   1.206 -1.6239 -1.1401  1.7140
15504TIP3    H246435   6.973   7.526   1.134  1.1447 -0.1266 -0.4688
15505TIP3   OH246436   4.587   4.674   7.102  0.7254  0.9822 -0.0652
15505TIP3    H146437   4.566   4.689   7.194 -1.4830  1.5818 -0.6445
15505TIP3    H246438   4.535   4.739   7.055  0.5669 -0.3969 -1.8382
15506TIP3   OH246439   6.526   5.275   6.707 -0.4551  0.3342  0.2567
15506TIP3    H146440   6.549   5.365   6.683  0.4870 -0.1064 -0.4801
15506TIP3    H246441   6.453   5.252   6.649 -1.0877  0.8105  0.8400
15507TIP3   OH246442   7.963   2.242   2.430  0.1052 -0.0869  0.0021
15507TIP3    H146443   8.043   2.202   2.397  0.4698 -0.2167  1.0134
15507TIP3    H246444   7.929   2.293   2.356  1.0827 -0.0855 -0.4554
15508TIP3   OH246445   7.403   1.412   3.141  0.3284  0.5661 -0.0492
15508TIP3    H146446   7.349   1.337   3.115  0.2826  0.9776 -1.1659
15508TIP3    H246447   7.358   1.449   3.217  0.4746 -0.6752  0.6483
15509TIP3   OH246448   8.174   5.643   2.277  0.1015  0.5926 -0.6219
15509TIP3    H146449   8.265   5.664   2.253  0.3364  2.8923  2.0143
15509TIP3    H246450   8.169   5.548   2.270  3.0215  0.3353  0.0909
15510TIP3   OH246451   7.580   0.035   1.700  0.2800 -0.3398  0.0053
15510TIP3    H146452   7.571   0.101   1.769 -1.3898 -0.4437 -0.0714
15510TIP3    H246453   7.506  -0.025   1.715 -0.0324 -0.4323 -1.7755
15511TIP3   OH246454   3.149   5.709   5.799  0.1988 -0.0483 -0.2868
15511TIP3    H146455   3.154   5.771   5.727  1.6552  0.2321  0.0307
15511TIP3    H246456   3.210   5.744   5.865 -0.5732 -0.6695  0.7728
15512TIP3   OH246457   0.722   0.996   0.695  0.0682  0.0588 -0.1082
15512TIP3    H146458   0.704   1.064   0.760 -0.8233  0.1554 -0.4521
15512TIP3    H246459   0.817   1.000   0.682  0.3348 -0.3349  1.5879
15513TIP3   OH246460   8.801   0.345   0.377  0.6172 -0.3212  0.0426
15513TIP3    H146461   8.838   0.431   0.399 -0.0234  0.3247 -1.3302
15513TIP3    H246462   8.855   0.282   0.424  1.2956  0.8236  0.8003
15514TIP3   OH246463   1.924   0.719   2.854 -0.8836  0.1463  0.0978
15514TIP3    H146464   1.986   0.783   2.889 -3.2537  1.9475  1.1258
15514TIP3    H246465   1.930   0.645   2.913 -0.8614  0.9671  1.1433
15515TIP3   OH246466   7.491   0.354   0.886  0.3200 -0.2835  0.1878
15515TIP3    H146467   7.434   0.419   0.928 -0.1607  0.7378 -1.9370
15515TIP3    H246468   7.431   0.286   0.855  0.7046 -1.1949  1.4233
15516TIP3   OH246469   4.954   7.528   1.457  0.1453  0.0871 -0.1846
15516TIP3    H146470   5.037   7.504   1.415  0.8916  0.1547  1.2407
15516TIP3    H246471   4.898   7.556   1.384  1.6051  0.7011 -1.0963
15517TIP3   OH246472   5.219   7.162   2.364  0.4029  0.1969 -0.4153
15517TIP3    H146473   5.129   7.192   2.355 -0.0085 -0.8292  0.1696
15517TIP3    H246474   5.212   7.078   2.410  1.6918  0.3880  0.1563
15518TIP3   OH246475   8.527   2.151   2.802  0.1157 -0.2369  0.3289
15518TIP3    H146476   8.475   2.196   2.869  1.8073 -0.4703  1.8139
15518TIP3    H246477   8.611   2.135   2.843  1.1286 -0.5729 -1.7977
15519TIP3   OH246478   3.147   4.625   6.803  0.0735  0.8281 -0.2528
15519TIP3    H146479   3.177   4.703   6.757 -0.5315  1.3523  0.2342
15519TIP3    H246480   3.207   4.556   6.774 -1.3761  0.7334 -3.1929
15520TIP3   OH246481   1.560   3.815   1.869  0.2027 -0.0134  0.7479
15520TIP3    H146482   1.464   3.813   1.862  0.0745  0.4941  2.1223
15520TIP3    H246483   1.588   3.730   1.833 -0.4018  1.6415 -4.0158
15521TIP3   OH246484   5.250   7.349   1.730 -0.1306 -0.2955  0.7664
15521TIP3    H146485   5.329   7.391   1.763  0.2307 -0.7660  0.5158
15521TIP3    H246486   5.180   7.381   1.786 -0.2147  2.3154 -0.7826
15522TIP3   OH246487   1.529   0.496   2.170 -0.0710 -0.1906  0.3939
15522TIP3    H146488   1.491   0.568   2.220  0.4003  0.3768 -0.0590
15522TIP3    H246489   1.620   0.492   2.198 -0.2415 -1.0152  0.8675
15523TIP3   OH246490   7.158   1.045   2.859  0.0356 -0.3355  0.1428
15523TIP3    H146491   7.120   0.961   2.886  0.5131 -0.4306  0.5205
15523TIP3    H246492   7.154   1.043   2.763 -0.8469 -0.3744  0.1712
15524TIP3   OH246493   3.178   4.555   6.221 -0.0895  0.4822  0.2170
15524TIP3    H146494   3.260   4.524   6.259 -0.6297 -1.4460 -0.1501
15524TIP3    H246495   3.170   4.646   6.252  1.3288  0.1464  1.6306
15525TIP3   OH246496   1.943   0.165   2.671  0.0239 -0.4615 -0.5060
15525TIP3    H146497   1.988   0.164   2.755 -0.8417  0.2517 -0.0290
15525TIP3    H246498   1.876   0.097   2.679  0.8369 -1.3500 -1.1256
15526TIP3   OH246499   3.284   2.876   6.037 -0.2148  0.0662  0.0080
15526TIP3    H146500   3.239   2.879   6.121  0.9429  1.7683  0.5908
15526TIP3    H246501   3.233   2.934   5.980 -0.4052 -0.2687 -0.1629
15527TIP3   OH246502   4.626   8.215   2.372  0.2286 -0.2502 -0.1352
15527TIP3    H146503   4.574   8.292   2.394  0.0986 -0.5119  0.4814
15527TIP3    H246504   4.600   8.193   2.283  0.4364  0.5569 -0.4004
15528TIP3   OH246505   4.084   3.779   7.122  0.0116  0.9887 -0.3579
15528TIP3    H146506   4.102   3.838   7.196  0.9877 -0.8200  0.8748
15528TIP3    H246507   4.116   3.827   7.045 -1.3193  3.0384  0.3204
15529TIP3   OH246508   7.622   1.446   1.619 -0.5384  0.5686 -0.1020
15529TIP3    H146509   7.548   1.386   1.630 -1.6353  1.8571 -0.2369
15529TIP3    H246510   7.657   1.458   1.707  0.0261 -0.6819 -0.1523
15530TIP3   OH246511   2.183   0.801   2.345 -0.5892 -0.0901 -0.1332
15530TIP3    H146512   2.150   0.872   2.291  0.6222  0.7383  0.2013
15530TIP3    H246513   2.111   0.780   2.404 -1.6851 -0.5472 -1.5784
15531TIP3   OH246514   6.404   8.115   1.461  0.4426  0.0346 -0.0282
15531TIP3    H146515   6.445   8.063   1.392 -0.4675 -0.1924 -0.4025
15531TIP3    H246516   6.343   8.172   1.414  0.4733  0.5162  0.5097
15532TIP3   OH246517   4.971   5.356   6.581  0.1553 -0.7629  0.0145
15532TIP3    H146518   5.003   5.271   6.612  2.0995 -0.6064 -1.4344
15532TIP3    H246519   4.876   5.348   6.582  0.2746 -2.2994  1.6675
15533TIP3   OH246520   3.016   4.130   5.486  0.2488 -0.3079 -0.3074
15533TIP3    H146521   3.059   4.140   5.571 -3.0152 -0.3372  1.4249
15533TIP3    H246522   3.081   4.162   5.423  1.9607  1.7528  2.3595
15534TIP3   OH246523   7.849   7.397   0.259 -0.7578 -0.0383  0.1927
15534TIP3    H146524   7.861   7.338   0.184 -0.7468  0.2025  0.0037
15534TIP3    H246525   7.793   7.348   0.320  0.6837 -0.9220  0.8101
15535TIP3   OH246526   2.933   1.355   3.251 -0.3470 -0.4223  0.6370
15535TIP3    H146527   2.964   1.438   3.213 -0.1784 -1.3864 -1.4222
15535TIP3    H246528   2.851   1.337   3.204 -1.4547 -0.4114  2.5168
15536TIP3   OH246529   8.852   2.843   2.202 -0.3332 -0.1107 -0.1123
15536TIP3    H146530   8.782   2.868   2.262 -0.1304  0.7791 -0.2346
15536TIP3    H246531   8.830   2.888   2.120  0.2315 -0.0513 -0.2338
15537TIP3   OH246532   4.640   7.885   2.158 -0.3901 -0.1208 -0.8452
15537TIP3    H146533   4.579   7.957   2.144 -0.8302  0.1089  1.8451
15537TIP3    H246534   4.585   7.814   2.193  0.4141 -0.9256 -1.1949
15538TIP3   OH246535   0.184   2.424   2.249 -0.8132  0.0930  0.9942
15538TIP3    H146536   0.202   2.444   2.341  3.2929  0.6515  0.1648
15538TIP3    H246537   0.219   2.498   2.201 -1.4290 -0.9571 -1.1510
15539TIP3   OH246538   1.134   1.926   0.722 -0.1614  0.0929 -0.6060
15539TIP3    H146539   1.107   1.834   0.724 -2.3588  0.6964  2.2573
15539TIP3    H246540   1.221   1.925   0.684 -0.2462 -3.1459 -0.8800
15540TIP3   OH246541   1.062   0.135   1.078 -0.1816  0.3673  0.0093
15540TIP3    H146542   1.027   0.058   1.033 -1.7209  0.5160  0.9146
15540TIP3    H246543   0.995   0.202   1.066  1.6224  1.9505 -1.7165
15541TIP3   OH246544   1.416   0.850   1.678 -0.1707  0.0055  0.4831
15541TIP3    H146545   1.420   0.758   1.650 -0.7462 -0.3833  1.6564
15541TIP3    H246546   1.504   0.883   1.663  0.2421 -0.9514  0.7533
15542TIP3   OH246547   1.114   1.099   3.044  0.7351  0.1889 -0.0727
15542TIP3    H146548   1.182   1.098   3.111 -0.2839 -0.6634  0.9712
15542TIP3    H246549   1.045   1.042   3.078 -0.6129  1.2136 -0.9947
15543TIP3   OH246550   7.937   7.884   2.213  0.3574 -0.2401  0.1384
15543TIP3    H146551   7.930   7.972   2.251 -1.6079 -1.1899  2.0784
15543TIP3    H246552   7.882   7.888   2.135  1.1957  0.5721 -0.4194
15544TIP3   OH246553   7.813   7.897   0.853  0.0129  0.0839  0.0290
15544TIP3    H146554   7.762   7.908   0.772 -0.6027  0.2787  0.4443
15544TIP3    H246555   7.862   7.979   0.861 -1.5296  0.9275  0.9762
15545TIP3   OH246556   1.404   0.932   1.926  0.3494  0.0187  0.4653
15545TIP3    H146557   1.383   0.881   1.847  1.3794 -0.3097  0.3910
15545TIP3    H246558   1.428   1.018   1.893 -1.3746  0.5682  0.5895
15546TIP3   OH246559   3.842   7.860   1.133  0.6083  0.4707  0.7519
15546TIP3    H146560   3.865   7.773   1.101  0.6951  0.3531  1.1346
15546TIP3    H246561   3.750   7.870   1.110  0.5851  0.2576  0.7502
15547TIP3   OH246562   7.710   1.674   0.953  0.0585  0.3284 -0.2049
15547TIP3    H146563   7.653   1.631   1.018  0.7962 -0.9231 -0.3752
15547TIP3    H246564   7.663   1.664   0.870 -0.1811  0.6116 -0.1031
15548TIP3   OH246565   7.548   0.351   2.412 -0.1629 -0.1445 -0.2845
15548TIP3    H146566   7.469   0.368   2.463  0.8991  3.6825  0.2393
15548TIP3    H246567   7.544   0.412   2.339  1.9461 -0.3767 -0.6479
15549TIP3   OH246568   5.210   7.945   0.546  0.3302  0.3627 -0.3134
15549TIP3    H146569   5.292   7.977   0.509  1.2907 -0.2014  1.2739
15549TIP3    H246570   5.155   8.023   0.553  0.6316  0.7020 -1.6037
15550TIP3   OH246571   7.082   1.287   3.983 -0.1944 -0.6566 -0.5518
15550TIP3    H146572   7.160   1.251   3.938  0.2352  1.4627 -1.5504
15550TIP3    H246573   7.115   1.362   4.031 -1.1025 -1.5570  1.5249
15551TIP3   OH246574   0.757   0.584   0.979 -0.3009  0.3147  0.5573
15551TIP3    H146575   0.669   0.582   1.017 -0.4404  1.1838  0.2831
15551TIP3    H246576   0.742   0.603   0.886  0.1107 -0.6551  0.2838
15552TIP3   OH246577   5.537   7.932   0.216  0.1958 -0.9231  0.0304
15552TIP3    H146578   5.458   7.978   0.185 -0.0619 -0.2200  1.6918
15552TIP3    H246579   5.595   8.002   0.245  1.2801 -1.4671 -0.7950
15553TIP3   OH246580   7.070   6.790   0.141  0.2405 -0.6132 -0.3364
15553TIP3    H146581   7.146   6.765   0.193 -1.2950 -2.3269  1.1537
15553TIP3    H246582   7.088   6.754   0.054  1.8891  0.4713 -0.4533
15554TIP3   OH246583   8.734   0.160   1.227  0.0072 -0.2606 -0.3294
15554TIP3    H146584   8.768   0.090   1.171  0.1414 -0.9004  0.5428
15554TIP3    H246585   8.675   0.209   1.170 -0.6520 -1.5211 -0.7583
15555TIP3   OH246586   1.109   3.678   6.880 -0.1090 -0.0169 -0.2440
15555TIP3    H146587   1.074   3.766   6.863 -1.0521  0.0952  2.0719
15555TIP3    H246588   1.199   3.693   6.907 -0.9183  0.4998  2.3719
15556TIP3   OH246589   1.660   0.339   1.097  0.3170  0.4199 -0.5127
15556TIP3    H146590   1.567   0.361   1.089  0.1937  0.3481  0.6419
15556TIP3    H246591   1.678   0.283   1.021 -0.9166 -0.6252 -0.0528
15557TIP3   OH246592   0.781   0.098   1.532  0.1077 -1.0349  0.3062
15557TIP3    H146593   0.870   0.077   1.561 -0.2278 -3.0868 -0.1233
15557TIP3    H246594   0.788   0.108   1.437  0.6650  2.9799  0.6786
15558TIP3   OH246595   6.623   7.484   1.016  0.5590  0.4389 -0.0801
15558TIP3    H146596   6.692   7.422   1.040  0.3359  0.5603  0.8843
15558TIP3    H246597   6.542   7.442   1.045  0.3201  0.7519 -0.2947
15559TIP3   OH246598   7.247   0.331   1.199  0.0146 -0.5810  0.2545
15559TIP3    H146599   7.290   0.356   1.281 -1.2996 -1.1861  1.1491
15559TIP3    H246600   7.207   0.411   1.168  1.9639  0.0527 -0.7239
15560TIP3   OH246601   8.691   6.933   1.375  0.0406 -0.8845  0.2129
15560TIP3    H146602   8.631   6.896   1.439 -0.7343  2.6319  1.6207
15560TIP3    H246603   8.636   6.985   1.316  1.2797 -0.3156 -0.4897
15561TIP3   OH246604   6.883   1.239   0.812 -0.1665  0.4829  0.0590
15561TIP3    H146605   6.959   1.257   0.757  0.2373  0.9003  0.7536
15561TIP3    H246606   6.837   1.323   0.818 -0.4853  0.3173 -0.0601
15562TIP3   OH246607   3.879   5.487   5.826  0.4119 -0.2469  0.0753
15562TIP3    H146608   3.827   5.407   5.818 -0.2457  0.2366 -0.5633
15562TIP3    H246609   3.956   5.471   5.771  1.3031 -1.2327  1.5713
15563TIP3   OH246610   0.960   0.161   1.884  0.1883 -0.4650  0.3199
15563TIP3    H146611   0.886   0.121   1.839  1.1150 -0.4694 -1.2416
15563TIP3    H246612   1.038   0.128   1.838  1.0085  2.4117 -0.4754
15564TIP3   OH246613   7.857   0.362   2.441  0.1034 -0.2531 -0.0507
15564TIP3    H146614   7.857   0.341   2.348 -0.3595  0.0639 -0.1277
15564TIP3    H246615   7.764   0.375   2.463  0.2847  0.6940  0.2116
15565TIP3   OH246616   1.384   4.669   5.382 -0.1062 -0.0829  0.0678
15565TIP3    H146617   1.464   4.721   5.384 -0.2987  0.1874  1.0088
15565TIP3    H246618   1.319   4.725   5.339 -0.0165  0.0237  0.0732
15566TIP3   OH246619   0.997   1.120   0.126  0.2774  0.2708  0.2155
15566TIP3    H146620   1.061   1.058   0.090  0.8082  1.3899 -0.7863
15566TIP3    H246621   0.924   1.065   0.154 -0.5211 -0.6205 -3.3181
15567TIP3   OH246622   6.630   7.765   1.733  0.9996  0.2873  0.4437
15567TIP3    H146623   6.588   7.721   1.659  0.5261 -0.0829  0.9350
15567TIP3    H246624   6.596   7.855   1.729 -0.8335 -0.3218  1.5788
15568TIP3   OH246625   3.279   3.294   6.254 -0.2751 -0.1968  1.1058
15568TIP3    H146626   3.200   3.285   6.308 -0.4143  0.3059  0.9790
15568TIP3    H246627   3.284   3.387   6.234 -0.6073 -0.4854 -0.3399
15569TIP3   OH246628   4.551   3.626   6.625 -0.7473 -0.4466  0.4503
15569TIP3    H146629   4.602   3.682   6.567 -1.3205  0.1641  0.5241
15569TIP3    H246630   4.460   3.652   6.610 -1.1189 -2.0411 -0.2368
15570TIP3   OH246631   4.993   5.912   5.463  0.7039 -0.6730  0.3602
15570TIP3    H146632   4.934   5.930   5.536  2.3630 -0.8468  1.7817
15570TIP3    H246633   5.034   5.829   5.486  0.7222 -1.0867 -1.1331
15571TIP3   OH246634   4.735   6.967   3.902 -0.2232  0.1981  0.2690
15571TIP3    H146635   4.777   6.960   3.988 -0.2788 -0.7087  0.2327
15571TIP3    H246636   4.754   6.883   3.859 -2.8330 -0.6290  0.6232
15572TIP3   OH246637   0.473   2.404   2.221 -0.1818 -0.1289 -0.1391
15572TIP3    H146638   0.554   2.367   2.186  0.8563 -0.1546  2.1891
15572TIP3    H246639   0.443   2.339   2.285 -1.1195  0.6611  0.2270
15573TIP3   OH246640   4.188   8.389   2.754  0.1489  0.0091 -0.3235
15573TIP3    H146641   4.229   8.312   2.715  1.0599  1.8478 -3.1708
15573TIP3    H246642   4.094   8.376   2.742  0.2891 -0.7817 -0.5320
15574TIP3   OH246643   7.949   0.237   2.213 -0.6263  0.4325 -0.3063
15574TIP3    H146644   8.012   0.175   2.248 -3.1011 -2.1148 -0.2153
15574TIP3    H246645   7.923   0.201   2.129 -3.5731  0.2162  0.6282
15575TIP3   OH246646   8.511   0.660   1.703 -0.3095  0.0139  0.0510
15575TIP3    H146647   8.437   0.605   1.727 -0.0510 -0.5950 -0.5204
15575TIP3    H246648   8.567   0.604   1.649 -0.2537  0.9629 -0.9128
15576TIP3   OH246649   5.816   0.423   4.005 -0.3436 -0.3506  0.0845
15576TIP3    H146650   5.798   0.460   3.919  0.1303 -0.4003 -0.0390
15576TIP3    H246651   5.911   0.411   4.006 -0.2378  0.5945  0.9999
15577TIP3   OH246652   3.736   2.611   0.022 -0.2108 -0.1701  0.0440
15577TIP3    H146653   3.712   2.538   0.080  0.5043 -0.9520 -0.6296
15577TIP3    H246654   3.814   2.649   0.062 -0.5688  0.2176  0.3815
15578TIP3   OH246655   5.847   8.022   3.187  0.0654 -0.3838  0.0317
15578TIP3    H146656   5.758   8.049   3.209 -0.5203 -1.7765 -0.5697
15578TIP3    H246657   5.903   8.081   3.237 -1.2082 -0.6931  1.8855
15579TIP3   OH246658   2.510   0.898   4.287  0.1056  0.5102 -0.4533
15579TIP3    H146659   2.575   0.947   4.237  0.1962  1.2001  0.3270
15579TIP3    H246660   2.428   0.944   4.270  0.2921  1.3389  0.7799
15580TIP3   OH246661   6.424   7.347   1.534  0.0264 -0.2910  0.6068
15580TIP3    H146662   6.502   7.384   1.492 -0.9972 -0.1904 -1.2741
15580TIP3    H246663   6.410   7.402   1.611  1.1229  0.4345  0.3119
15581TIP3   OH246664   0.738   0.300   1.902  0.1549  0.0253 -0.2728
15581TIP3    H146665   0.676   0.241   1.946  0.6224  0.1404  0.5461
15581TIP3    H246666   0.823   0.258   1.913  0.4233  0.6083 -0.1114
15582TIP3   OH246667   6.522   7.696   0.854  0.1330 -0.9191  0.3674
15582TIP3    H146668   6.534   7.778   0.902 -0.4952 -0.5538 -0.0954
15582TIP3    H246669   6.556   7.628   0.913 -1.4429 -0.5832  1.6891
15583TIP3   OH246670   7.941   0.111   0.875 -0.9983  0.2769 -0.2371
15583TIP3    H146671   8.018   0.055   0.865  0.2076  1.9631 -0.6357
15583TIP3    H246672   7.887   0.092   0.798 -0.3130  0.0676 -0.6727
15584TIP3   OH246673   8.362   0.830   0.693  0.6716  0.2357 -0.4275
15584TIP3    H146674   8.283   0.871   0.659  0.9567  0.9651 -0.2123
15584TIP3    H246675   8.349   0.829   0.788 -0.6709 -2.8986 -0.5735
15585TIP3   OH246676   2.559   3.499   6.843 -0.3262 -0.1550 -0.0637
15585TIP3    H146677   2.631   3.448   6.880 -0.6843 -1.0534 -0.5964
15585TIP3    H246678   2.554   3.471   6.752 -1.9306 -0.7671  0.1935
15586TIP3   OH246679   2.915   4.700   6.352 -0.3275  0.0826 -0.2813
15586TIP3    H146680   2.936   4.752   6.275  0.6311 -2.1007 -1.5338
15586TIP3    H246681   2.982   4.723   6.416  0.5626 -0.2154 -1.1019
15587TIP3   OH246682   0.452   0.857   3.443  0.4620  0.5771  0.3437
15587TIP3    H146683   0.410   0.939   3.468  0.1497  1.0554 -1.6765
15587TIP3    H246684   0.398   0.822   3.372  0.5198 -1.4535  1.2624
15588TIP3   OH246685   8.063   7.406   1.523 -0.0858  0.1581  0.8979
15588TIP3    H146686   8.105   7.434   1.441 -1.9778  3.2563  0.9083
15588TIP3    H246687   8.134   7.404   1.587  1.0847 -0.5246 -0.3835
15589TIP3   OH246688   3.890   5.995   5.142 -0.3089 -0.2645  0.0680
15589TIP3    H146689   3.941   6.069   5.177 -0.8176  0.3018 -0.3756
15589TIP3    H246690   3.954   5.924   5.136  0.3947  0.3826 -0.2929
15590TIP3   OH246691   3.625   2.890   7.189 -0.0747 -0.3909  0.4114
15590TIP3    H146692   3.580   2.974   7.177  1.9929  0.3971 -2.6998
15590TIP3    H246693   3.673   2.900   7.271 -1.3895  0.7586  1.0558
15591TIP3   OH246694   6.512   8.026   1.726  0.2443 -0.3381  0.1101
15591TIP3    H146695   6.462   8.040   1.806  0.9193 -0.6990  0.6050
15591TIP3    H246696   6.461   8.069   1.657 -0.3148  0.0183  0.7426
15592TIP3   OH246697   5.620   7.156   1.537 -0.3034  0.2989  0.7332
15592TIP3    H146698   5.643   7.092   1.470  0.5929  0.6500  0.6909
15592TIP3    H246699   5.677   7.135   1.611 -0.0279  1.0192  0.7336
15593TIP3   OH246700   1.854   4.491   6.895 -0.3385  0.6791  0.2649
15593TIP3    H146701   1.792   4.445   6.952 -1.2081 -0.8363 -1.8254
15593TIP3    H246702   1.939   4.453   6.915 -0.6318  0.1996  0.6108
15594TIP3   OH246703   6.064   7.027   1.415 -0.1242 -0.2347  0.2352
15594TIP3    H146704   6.029   7.083   1.345  0.9163 -0.7376 -0.6905
15594TIP3    H246705   6.047   7.076   1.495  0.6782  1.3752 -0.5554
15595TIP3   OH246706   7.916   6.901   0.927  0.3126 -0.0613 -0.7763
15595TIP3    H146707   7.968   6.979   0.942  0.2037  0.1865 -1.6516
15595TIP3    H246708   7.977   6.828   0.937 -0.3803 -0.1801  4.1403
15596TIP3   OH246709   6.482   6.855   0.785  0.5552 -0.1636  0.3690
15596TIP3    H146710   6.566   6.892   0.760  0.0476  0.9507  0.2699
15596TIP3    H246711   6.485   6.850   0.880  0.5165  0.3896  0.3970
15597TIP3   OH246712   7.456   1.449   0.892 -1.1239 -0.0131 -0.0993
15597TIP3    H146713   7.504   1.519   0.849 -0.7071 -0.5233 -0.4667
15597TIP3    H246714   7.385   1.427   0.832 -0.8736 -0.3436 -0.2759
15598TIP3   OH246715   7.881   0.558   1.560 -0.2325 -0.5537 -0.7791
15598TIP3    H146716   7.798   0.597   1.533 -1.2055  1.1423  4.3191
15598TIP3    H246717   7.945   0.628   1.550 -0.7108  0.2824  1.6756
15599TIP3   OH246718   0.940   1.466   1.290  0.4890 -0.0038  0.1905
15599TIP3    H146719   0.964   1.377   1.264 -0.7497 -0.3130  0.0673
15599TIP3    H246720   0.948   1.517   1.210 -1.7751 -0.6347 -0.4679
15600TIP3   OH246721   3.364   3.124   2.324 -0.0920  0.4673  0.0962
15600TIP3    H146722   3.342   3.195   2.264 -0.3801 -0.2582 -0.6633
15600TIP3    H246723   3.280   3.085   2.348 -0.0742  1.4086  1.8090
15601TIP3   OH246724   4.274   7.567   3.011 -0.1059 -0.0286  0.4278
15601TIP3    H146725   4.198   7.553   2.955  0.2091  1.2085 -0.3082
15601TIP3    H246726   4.247   7.531   3.096 -1.8045  1.1027  0.3952
15602TIP3   OH246727   8.437   0.256   2.828  0.1092 -0.0421 -0.0397
15602TIP3    H146728   8.521   0.213   2.811 -0.6746 -1.0576 -1.4411
15602TIP3    H246729   8.391   0.253   2.745 -1.4101  0.3097  0.7707
15603TIP3   OH246730   2.858   3.030   0.692 -0.2495  0.6656  0.3222
15603TIP3    H146731   2.822   2.946   0.720 -0.3822 -0.0592 -1.9274
15603TIP3    H246732   2.827   3.041   0.602 -0.9129  3.5077  0.8196
15604TIP3   OH246733   1.309   1.089   1.203  0.5701  0.1906 -0.6077
15604TIP3    H146734   1.322   0.998   1.175  1.0058  0.2953 -0.7579
15604TIP3    H246735   1.380   1.137   1.161  0.3194  0.6085 -0.5556
15605TIP3   OH246736   1.992   0.899   0.120 -0.2853 -0.4090  0.0188
15605TIP3    H146737   1.959   0.989   0.120  1.2861  0.1900 -0.9913
15605TIP3    H246738   1.919   0.847   0.154 -1.3033  1.2069  0.3840
15606TIP3   OH246739   7.676   6.963   1.022  0.5802 -0.4660 -0.0951
15606TIP3    H146740   7.697   7.054   1.042  0.4368 -1.0259  2.8715
15606TIP3    H246741   7.755   6.929   0.980  1.5430  0.3938  0.9822
15607TIP3   OH246742   1.368   0.720   1.251  0.6328  0.0088  0.5682
15607TIP3    H146743   1.348   0.629   1.271 -0.2441  0.1469  0.3276
15607TIP3    H246744   1.283   0.763   1.246  1.0163  0.7335  0.1688
15608TIP3   OH246745   8.688   1.827   2.319  0.5729 -0.0279 -0.3648
15608TIP3    H146746   8.680   1.829   2.414 -0.5276  0.8283 -0.4706
15608TIP3    H246747   8.670   1.737   2.295 -0.4515  0.0420  0.1322
15609TIP3   OH246748   0.556   0.827   2.595 -0.4261  0.4701 -0.0075
15609TIP3    H146749   0.491   0.822   2.665 -0.2319  0.3513  0.1632
15609TIP3    H246750   0.533   0.754   2.537 -0.1232  0.1083  0.3279
15610TIP3   OH246751   4.143   3.977   6.948 -0.5276  0.4998 -0.8343
15610TIP3    H146752   4.094   4.035   6.889  0.9045  3.5357  0.8255
15610TIP3    H246753   4.227   4.021   6.959  1.4240 -2.9958 -1.1011
15611TIP3   OH246754   6.408   7.375   0.144 -0.3463  0.1087 -0.1863
15611TIP3    H146755   6.322   7.357   0.107 -0.2842  0.2161 -0.3795
15611TIP3    H246756   6.403   7.339   0.233  0.0347 -1.5833 -0.8291
15612TIP3   OH246757   2.015   3.445   2.807 -0.2901  0.8736 -0.0407
15612TIP3    H146758   1.965   3.372   2.845 -0.6174  0.9845 -0.2628
15612TIP3    H246759   2.049   3.410   2.725  0.2872  0.6863  0.2691
15613TIP3   OH246760   5.639   8.354   0.842  0.1805  0.2429 -0.1190
15613TIP3    H146761   5.547   8.328   0.845  0.0733  0.4210 -1.2593
15613TIP3    H246762   5.639   8.444   0.873 -0.1928  0.5879 -1.0771
15614TIP3   OH246763   5.072   7.103   0.119  0.1168 -0.0963 -0.1805
15614TIP3    H146764   5.150   7.093   0.173  0.5029  3.0735 -0.0716
15614TIP3    H246765   5.024   7.176   0.158 -2.6903 -1.6581 -0.5268
15615TIP3   OH246766   1.614   3.210   7.014 -0.0046  0.5212  0.0088
15615TIP3    H146767   1.539   3.263   7.040 -0.0604  1.0137 -1.1321
15615TIP3    H246768   1.666   3.201   7.093 -0.2219  1.9069  0.3187
15616TIP3   OH246769   6.082   7.405   0.664  0.1241  0.0424  0.3659
15616TIP3    H146770   6.132   7.460   0.605  0.1702  0.4544  0.7877
15616TIP3    H246771   6.147   7.365   0.722  0.0367 -0.0025  0.4348
15617TIP3   OH246772   2.400   4.425   6.440 -0.8055  0.6724  0.0682
15617TIP3    H146773   2.336   4.396   6.505 -2.2766  1.7572 -0.8663
15617TIP3    H246774   2.430   4.344   6.399 -0.6599  0.0604  1.3522
15618TIP3   OH246775   0.541   0.520   1.644  0.3368 -0.1369 -0.2981
15618TIP3    H146776   0.577   0.554   1.726 -1.7811 -1.1570  1.1121
15618TIP3    H246777   0.561   0.426   1.646 -0.5052 -0.3292 -0.4834
15619TIP3   OH246778   5.966   7.190   0.944 -0.0355 -0.0130  0.1731
15619TIP3    H146779   6.005   7.139   0.873 -0.2514 -0.2129  0.1996
15619TIP3    H246780   5.888   7.229   0.905  1.1424  1.8392 -0.4071
15620TIP3   OH246781   2.786   4.588   7.086 -0.0171 -0.3224  0.3237
15620TIP3    H146782   2.722   4.517   7.087 -0.5100  0.0831 -0.7102
15620TIP3    H246783   2.736   4.665   7.112  0.3244 -0.2120  0.6552
15621TIP3   OH246784   8.851   0.359   1.388  0.2243  0.0642  0.2803
15621TIP3    H146785   8.829   0.344   1.296 -0.4014 -0.7516  0.5591
15621TIP3    H246786   8.946   0.372   1.388  0.2350  0.0171 -0.4774
15622TIP3   OH246787   2.961   1.006   0.802 -0.7229 -0.0735 -0.5782
15622TIP3    H146788   2.974   1.096   0.831 -2.0439  0.4005 -1.4360
15622TIP3    H246789   2.934   1.014   0.711 -1.0532 -1.3226 -0.5955
15623TIP3   OH246790   0.813   0.317   0.156  0.4582 -0.0927  0.2277
15623TIP3    H146791   0.725   0.305   0.192  0.7509  0.7278  1.2397
15623TIP3    H246792   0.853   0.230   0.161 -0.5924 -0.6654 -1.0783
15624TIP3   OH246793   8.434   1.294   2.620  0.0504 -0.3192 -0.2111
15624TIP3    H146794   8.518   1.263   2.652 -0.1458 -0.5300  0.1010
15624TIP3    H246795   8.404   1.225   2.561 -0.7245 -1.0654  1.0489
15625TIP3   OH246796   2.661   0.676   1.641 -0.0295  0.5066  0.0371
15625TIP3    H146797   2.628   0.587   1.648 -1.3909  0.9652 -0.4437
15625TIP3    H246798   2.696   0.682   1.553  2.4347 -0.3341  0.9290
15626TIP3   OH246799   0.276   2.204   2.101 -0.4342 -0.5843 -0.3558
15626TIP3    H146800   0.244   2.220   2.012 -0.8311 -0.1510 -0.1411
15626TIP3    H246801   0.234   2.272   2.154 -0.0093 -0.6890  0.1225
15627TIP3   OH246802   1.417   2.043   3.736 -0.1404 -0.4793 -0.2365
15627TIP3    H146803   1.431   2.028   3.829  2.0400  0.2134 -0.4242
15627TIP3    H246804   1.330   2.082   3.730 -0.1407 -0.1962  1.5284
15628TIP3   OH246805   1.840   0.435   0.794  0.2538 -0.7864  0.3359
15628TIP3    H146806   1.854   0.479   0.710  1.6761 -2.1674 -0.1713
15628TIP3    H246807   1.858   0.501   0.860 -2.2470  0.7278 -0.4239
15629TIP3   OH246808   6.563   7.226   0.655  0.2941 -0.2480 -0.1597
15629TIP3    H146809   6.596   7.142   0.687  1.6451 -0.0706 -1.0273
15629TIP3    H246810   6.484   7.242   0.706  0.0839 -1.9913  0.1012
15630TIP3   OH246811   4.238   3.549   6.247  0.3157 -0.2077  0.1928
15630TIP3    H146812   4.173   3.486   6.277 -0.9289  1.2588  0.6387
15630TIP3    H246813   4.290   3.569   6.325 -1.0349  1.3554  0.7334
15631TIP3   OH246814   7.142   7.437   1.383 -0.1620 -0.0754 -0.2462
15631TIP3    H146815   7.233   7.466   1.382  0.4706 -1.9930 -0.5593
15631TIP3    H246816   7.099   7.492   1.318  1.0132  0.0956 -0.8987
15632TIP3   OH246817   7.310   8.066   0.243  0.1500  0.1220  0.0688
15632TIP3    H146818   7.394   8.050   0.286  0.4688 -0.3841 -0.7370
15632TIP3    H246819   7.257   8.108   0.310  1.1824  0.8192  0.4690
15633TIP3   OH246820   1.956   1.738   1.085 -0.0398  0.1097  0.1990
15633TIP3    H146821   1.932   1.817   1.134 -0.2809 -0.0499  0.3379
15633TIP3    H246822   1.918   1.666   1.135  0.2068 -0.0983  0.0889
15634TIP3   OH246823   6.880   5.298   6.055  0.0381 -0.5826  0.3049
15634TIP3    H146824   6.795   5.266   6.085 -0.1906 -0.4301 -0.1784
15634TIP3    H246825   6.943   5.241   6.099 -0.3125 -0.7266  0.6289
15635TIP3   OH246826   1.339   1.184   2.224 -0.2612  0.2673 -0.4943
15635TIP3    H146827   1.403   1.126   2.182  1.5839  1.1752  0.9475
15635TIP3    H246828   1.342   1.160   2.317 -2.5615 -0.1406 -0.5074
15636TIP3   OH246829   0.949   0.913   1.123 -0.2812  0.0248  0.6036
15636TIP3    H146830   0.879   0.928   1.186  0.8438  3.4080  1.1654
15636TIP3    H246831   1.016   0.865   1.172 -0.5205  0.3546  1.2599
15637TIP3   OH246832   5.657   5.066   6.867 -0.2771  0.2486  0.5113
15637TIP3    H146833   5.602   5.046   6.792  0.9665 -0.7871 -0.1453
15637TIP3    H246834   5.669   5.161   6.864  0.8547  0.0623 -1.3800
15638TIP3   OH246835   6.077   2.485   5.878  0.3376  0.3269  0.2412
15638TIP3    H146836   6.038   2.398   5.883  0.9678  0.0878  1.2289
15638TIP3    H246837   6.042   2.523   5.797 -1.4997 -0.0866  0.8247
15639TIP3   OH246838   3.662   0.792   0.011 -0.3981  0.0624 -0.5852
15639TIP3    H146839   3.698   0.868   0.056 -1.6811  1.8387 -2.4206
15639TIP3    H246840   3.720   0.779  -0.064  0.1890 -1.1892  0.0807
15640TIP3   OH246841   8.312   7.828   1.799  0.9364 -0.2586  0.3215
15640TIP3    H146842   8.281   7.915   1.822  0.0132 -0.1922 -1.1393
15640TIP3    H246843   8.407   7.832   1.813  1.1699  1.5542 -1.5081
15641TIP3   OH246844   5.191   7.481   6.114  0.0110  0.4762  0.1806
15641TIP3    H146845   5.139   7.405   6.089 -1.9315  1.6597  0.5130
15641TIP3    H246846   5.232   7.457   6.197 -0.7681 -0.1212  0.3917
15642TIP3   OH246847   5.580   8.357   3.613 -0.3674 -0.7262  0.4860
15642TIP3    H146848   5.608   8.386   3.526 -0.2411  0.4094  0.9066
15642TIP3    H246849   5.632   8.278   3.630  2.0435  0.9068  0.9369
15643TIP3   OH246850   3.162   1.829   1.013  0.2548 -0.4526  0.0708
15643TIP3    H146851   3.130   1.852   0.925 -0.9488 -1.6133  0.1846
15643TIP3    H246852   3.217   1.752   0.998 -1.5256 -1.8393  0.5605
15644TIP3   OH246853   4.612   3.505   7.249  0.3845 -0.2158  0.1647
15644TIP3    H146854   4.590   3.440   7.317 -1.0309  0.7796  0.6808
15644TIP3    H246855   4.528   3.524   7.206  0.6011  1.9965  0.6662
15645TIP3   OH246856   5.710   4.009   7.279  0.5395  0.3469 -0.0874
15645TIP3    H146857   5.730   4.021   7.187  1.3454  0.0282  0.0385
15645TIP3    H246858   5.794   3.983   7.319  0.7530  2.7754  1.1620
15646TIP3   OH246859   1.025   0.573   0.608 -0.1506  0.2554 -0.0890
15646TIP3    H146860   1.105   0.625   0.605  0.1017  0.0037  1.7204
15646TIP3    H246861   1.037   0.508   0.539  1.3980 -0.0259  0.4179
15647TIP3   OH246862   7.743   7.933   2.011 -0.2022 -0.0010 -0.1374
15647TIP3    H146863   7.660   7.953   2.054 -0.3740  0.0700 -0.5010
15647TIP3    H246864   7.718   7.877   1.938  0.1388 -0.5071  0.1288
15648TIP3   OH246865   1.903   6.529   0.745  0.0929 -0.2687 -0.5169
15648TIP3    H146866   1.931   6.563   0.660  0.1340 -0.1273 -0.4472
15648TIP3    H246867   1.884   6.437   0.729 -0.5964 -0.0751 -0.8394
15649TIP3   OH246868   5.776   5.977   6.895 -0.0490  0.3546 -0.1428
15649TIP3    H146869   5.711   6.011   6.833  1.4433  0.2770 -1.7601
15649TIP3    H246870   5.752   5.885   6.905 -0.1671  0.3099 -0.7775
15650TIP3   OH246871   4.573   4.217   7.061 -0.5547 -0.1090 -0.0201
15650TIP3    H146872   4.512   4.173   7.120 -1.3732  0.7640 -0.1939
15650TIP3    H246873   4.564   4.170   6.978  1.7020 -2.2985  0.9208
15651TIP3   OH246874   2.089   3.046   0.009  0.0592  0.4020 -0.3711
15651TIP3    H146875   2.175   3.058  -0.032 -0.4480  0.8862 -1.3045
15651TIP3    H246876   2.095   3.093   0.092  0.2415  1.6066 -1.0592
15652TIP3   OH246877   6.410   3.284   6.709 -0.1866 -0.2576 -0.8754
15652TIP3    H146878   6.492   3.237   6.724  0.0744  0.2819 -0.5830
15652TIP3    H246879   6.437   3.366   6.667 -0.3826  0.8041  1.0260
15653TIP3   OH246880   8.040   7.783   0.959 -0.2845 -0.2626 -0.0072
15653TIP3    H146881   8.081   7.732   0.889  0.2550  0.5214 -0.2759
15653TIP3    H246882   8.076   7.871   0.947 -1.7678  0.3497 -0.0124
15654TIP3   OH246883   5.970   5.659   5.947  0.3770  0.8089 -0.2412
15654TIP3    H146884   5.889   5.609   5.954  0.3071  0.7040 -1.7142
15654TIP3    H246885   6.034   5.596   5.911  0.4488  1.5929 -1.5019
15655TIP3   OH246886   6.050   3.997   5.411 -0.3242  0.1028 -0.1064
15655TIP3    H146887   6.104   4.074   5.392 -0.1264  0.3577  1.4235
15655TIP3    H246888   5.961   4.025   5.393 -0.1863  0.4929 -0.1890
15656TIP3   OH246889   2.776   0.286   0.526  0.1049  0.0450  0.3408
15656TIP3    H146890   2.857   0.238   0.510  0.0066 -0.4101  1.1838
15656TIP3    H246891   2.719   0.223   0.570 -1.2015 -0.0589 -1.4341
15657TIP3   OH246892   7.379   7.564   1.375  0.1522 -0.2495 -0.0856
15657TIP3    H146893   7.443   7.526   1.314 -1.8435 -1.0200 -1.7648
15657TIP3    H246894   7.355   7.647   1.335 -0.7929 -0.5225 -0.0927
15658TIP3   OH246895   5.184   5.300   4.784  0.0192  0.4625 -0.1883
15658TIP3    H146896   5.272   5.333   4.802 -0.4241  0.8089  1.4175
15658TIP3    H246897   5.188   5.270   4.693  1.2668  2.2143 -0.7377
15659TIP3   OH246898   0.400   1.530   2.480 -0.6839  0.1444  0.1159
15659TIP3    H146899   0.316   1.529   2.524 -0.1465  0.0238  1.1500
15659TIP3    H246900   0.464   1.518   2.550  0.2149  0.6877 -0.6020
15660TIP3   OH246901   0.462   1.267   1.923  0.3973  0.1418 -0.3036
15660TIP3    H146902   0.482   1.228   1.838  0.0960 -0.8748  0.0727
15660TIP3    H246903   0.547   1.280   1.965  0.5571  0.8489 -0.8438
15661TIP3   OH246904   1.363   2.075   0.425 -0.3717  0.5920  0.1759
15661TIP3    H146905   1.280   2.051   0.384  0.0771 -0.4033 -0.1518
15661TIP3    H246906   1.382   2.162   0.390  0.0183 -0.2383 -1.7838
15662TIP3   OH246907   5.121   4.355   6.990  0.4067  0.8889  0.1372
15662TIP3    H146908   5.214   4.352   6.968  0.2027 -0.1928 -0.6277
15662TIP3    H246909   5.079   4.387   6.910 -0.0536 -0.3426 -0.1233
15663TIP3   OH246910   5.894   7.953   0.716  0.0764 -0.1541 -0.1207
15663TIP3    H146911   5.930   7.864   0.715  1.4045  0.3619  0.5715
15663TIP3    H246912   5.863   7.966   0.805  1.5560  0.7166  0.2818
15664TIP3   OH246913   5.034   6.454   6.163 -0.0812  0.6135  0.0040
15664TIP3    H146914   4.948   6.495   6.162 -0.0905  0.5790 -1.3120
15664TIP3    H246915   5.094   6.523   6.134  0.2411  0.4180  0.2015
15665TIP3   OH246916   1.857   1.592   3.006  0.2191 -0.2652 -0.0338
15665TIP3    H146917   1.892   1.678   3.028 -2.1816  0.7728 -0.1913
15665TIP3    H246918   1.799   1.607   2.931 -1.0528 -1.8366  0.5962
15666TIP3   OH246919   1.323   7.754   0.209 -0.3666 -0.5466 -0.1420
15666TIP3    H146920   1.245   7.809   0.206 -0.5726 -0.8454 -0.3750
15666TIP3    H246921   1.389   7.807   0.253 -0.1857  0.3700 -1.4631
15667TIP3   OH246922   6.277   5.420   0.742 -0.4142 -0.4885  0.1004
15667TIP3    H146923   6.330   5.350   0.779 -0.7363 -0.6303  0.2956
15667TIP3    H246924   6.193   5.379   0.722 -0.6410 -0.1316  0.3206
15668TIP3   OH246925   4.529   3.846   7.164  0.1957  0.3375 -0.4469
15668TIP3    H146926   4.574   3.870   7.083 -1.1889  1.2159 -0.9793
15668TIP3    H246927   4.530   3.750   7.163 -0.5108  0.3191 -1.9320
15669TIP3   OH246928   5.524   2.255   6.502 -0.2074  0.0037  0.2254
15669TIP3    H146929   5.608   2.234   6.460 -0.2801 -0.9003  0.5121
15669TIP3    H246930   5.517   2.190   6.572 -0.2993  1.2205  1.3465
15670TIP3   OH246931   3.490   0.962   0.873  0.2811  0.0771  0.0874
15670TIP3    H146932   3.493   0.992   0.963  1.1197  0.4658 -0.0591
15670TIP3    H246933   3.405   0.991   0.840  0.4297  0.8992  0.4235
15671TIP3   OH246934   1.666   0.272   3.961  0.4444  0.2726  0.2055
15671TIP3    H146935   1.695   0.264   3.871 -1.0670 -2.0757 -0.1141
15671TIP3    H246936   1.746   0.268   4.013  1.1106 -1.2323 -0.8935
15672TIP3   OH246937   1.759   1.902   0.934 -0.2004  0.4564 -0.5457
15672TIP3    H146938   1.760   1.846   0.857 -1.9605 -0.9162  0.3833
15672TIP3    H246939   1.810   1.854   1.000 -1.6938 -0.0876  0.2435
15673TIP3   OH246940   2.455   0.225   1.041 -0.0976 -0.1660 -0.3188
15673TIP3    H146941   2.515   0.198   1.111 -0.2366 -0.9761 -0.5138
15673TIP3    H246942   2.510   0.273   0.979  0.0249  0.5679  0.3438
15674TIP3   OH246943   4.544   6.294   4.949  0.4813  0.4183 -0.1658
15674TIP3    H146944   4.539   6.264   4.859 -0.7972  0.4313 -0.1040
15674TIP3    H246945   4.512   6.384   4.947 -1.6286 -0.2870  0.6278
15675TIP3   OH246946   5.587   6.037   6.707 -0.9585  0.7150 -0.0060
15675TIP3    H146947   5.495   6.016   6.719 -0.6182 -0.2097  0.9838
15675TIP3    H246948   5.602   6.026   6.613 -1.9061  1.1247 -0.2123
15676TIP3   OH246949   2.903   1.821   2.290 -0.6580 -0.2831 -0.4769
15676TIP3    H146950   2.975   1.770   2.325 -1.6356 -1.7530 -0.5930
15676TIP3    H246951   2.903   1.802   2.196 -1.4688 -0.6238 -0.4094
15677TIP3   OH246952   2.487   1.048   2.147  0.6994  0.0165  0.0543
15677TIP3    H146953   2.415   1.094   2.104 -0.1631 -0.4671  0.9858
15677TIP3    H246954   2.555   1.115   2.157 -0.5868  1.1439  1.4948
15678TIP3   OH246955   8.132   7.272   2.412  0.3054  0.2194  0.0577
15678TIP3    H146956   8.096   7.275   2.501 -1.2172 -1.5681 -0.4776
15678TIP3    H246957   8.126   7.362   2.380  0.3412  0.7627  1.5416
15679TIP3   OH246958   6.004   3.692   6.535 -0.1349 -0.6955  0.2848
15679TIP3    H146959   6.055   3.660   6.460 -0.0508  0.8894 -0.3557
15679TIP3    H246960   5.913   3.680   6.508 -0.1037 -0.3006 -0.0099
15680TIP3   OH246961   1.687   7.834  -0.002  0.0204 -0.1651  0.4700
15680TIP3    H146962   1.722   7.750  -0.030 -0.4107 -0.0902 -0.3118
15680TIP3    H246963   1.759   7.876   0.045  0.4212 -0.7208  0.3517
15681TIP3   OH246964   3.242   5.121   6.804 -0.2338 -0.2759 -0.2305
15681TIP3    H146965   3.308   5.186   6.782 -0.7810  0.7168  0.9738
15681TIP3    H246966   3.159   5.163   6.782 -0.7066  0.2083  2.2600
15682TIP3   OH246967   6.855   4.849   6.696  0.6032 -0.2289 -0.2280
15682TIP3    H146968   6.778   4.893   6.733  0.7350 -0.3872  0.2274
15682TIP3    H246969   6.908   4.920   6.660  0.5687 -0.0623  0.0539
15683TIP3   OH246970   7.858   7.845   0.316 -0.3533 -0.1432  0.4021
15683TIP3    H146971   7.838   7.883   0.230  0.3636  0.3018  0.4262
15683TIP3    H246972   7.905   7.763   0.296 -0.4947 -0.2153  0.3663
15684TIP3   OH246973   6.311   8.071   1.938  0.1740  0.4646 -0.0940
15684TIP3    H146974   6.257   8.027   1.871  0.5217  0.7350 -0.5550
15684TIP3    H246975   6.292   8.164   1.926  1.3888  0.6326 -0.8397
15685TIP3   OH246976   7.723   7.883   0.593 -0.4214  0.0912 -0.0667
15685TIP3    H146977   7.672   7.925   0.524  1.1316  0.2348 -1.1344
15685TIP3    H246978   7.805   7.857   0.551 -0.0927 -1.2305  1.3375
15686TIP3   OH246979   5.415   7.701   0.290  0.2339 -0.2401 -0.0201
15686TIP3    H146980   5.328   7.720   0.258 -0.2180 -0.8771  0.8022
15686TIP3    H246981   5.455   7.787   0.305 -0.7730  0.0583  0.9982
15687TIP3   OH246982   6.671   7.369   1.828 -0.3153 -0.5191 -0.3084
15687TIP3    H146983   6.601   7.404   1.884 -0.2714  0.0878 -0.6352
15687TIP3    H246984   6.732   7.442   1.818  0.0447 -0.8560 -0.5505
15688TIP3   OH246985   4.287   0.840   7.283 -0.0536  0.1901 -0.2210
15688TIP3    H146986   4.365   0.797   7.318 -1.2093 -2.0482 -0.3619
15688TIP3    H246987   4.291   0.824   7.188 -0.4407  0.4962 -0.2918
15689TIP3   OH246988   8.632   1.399   3.592  0.3795  0.4486 -0.0278
15689TIP3    H146989   8.660   1.473   3.645 -0.6254  0.9326 -0.1714
15689TIP3    H246990   8.569   1.352   3.647  0.3652  0.1845 -0.2659
15690TIP3   OH246991   0.189   8.092   0.560 -0.0294  0.9226 -0.5321
15690TIP3    H146992   0.191   8.036   0.638 -0.8618 -1.7755 -2.3543
15690TIP3    H246993   0.173   8.031   0.487 -1.0503  3.5759 -2.6204
15691TIP3   OH246994   7.900   1.190   0.253  0.0891  0.3976  0.1791
15691TIP3    H146995   7.902   1.126   0.324  1.2595  0.3463  0.1012
15691TIP3    H246996   7.952   1.150   0.183 -0.7593  0.5986 -0.5928
15692TIP3   OH246997   1.304   0.671   0.724  0.3669  0.1171  0.6740
15692TIP3    H146998   1.297   0.594   0.779  0.0783  0.0925  0.6039
15692TIP3    H246999   1.238   0.732   0.757 -1.3017 -0.7331 -0.9816
15693TIP3   OH247000   4.458   1.020   3.430  0.1418  0.3648  0.2165
15693TIP3    H147001   4.526   1.065   3.380 -0.3714  0.1059 -0.7314
15693TIP3    H247002   4.463   1.059   3.517  1.2158  0.6463  0.0355
15694TIP3   OH247003   4.307   2.468   7.249 -0.5487  0.5791 -0.0420
15694TIP3    H147004   4.351   2.457   7.334  0.2957 -1.9321 -0.7602
15694TIP3    H247005   4.350   2.543   7.209  0.6714  0.3184  0.7594
15695TIP3   OH247006   2.605   1.462   2.321 -0.5858 -0.2601 -0.4032
15695TIP3    H147007   2.519   1.476   2.282 -0.0020  1.2522 -1.1916
15695TIP3    H247008   2.592   1.390   2.384 -2.2317 -0.5675 -1.0787
15696TIP3   OH247009   3.087   0.349   1.725  0.1246  0.0793 -0.0574
15696TIP3    H147010   3.122   0.322   1.810  0.7968 -1.0437 -0.6752
15696TIP3    H247011   3.158   0.400   1.686  1.7225 -3.3402 -1.8871
15697TIP3   OH247012   6.052   5.169   5.864  0.3146  0.2200 -0.4024
15697TIP3    H147013   6.102   5.114   5.923 -0.1737  0.8180  0.5851
15697TIP3    H247014   5.964   5.129   5.862 -0.0084  0.8982  0.2299
15698TIP3   OH247015   8.593   0.537   0.196  0.3918 -0.3620  0.2577
15698TIP3    H147016   8.506   0.515   0.229  0.2677 -0.5502 -0.1900
15698TIP3    H247017   8.626   0.455   0.159  0.2995 -0.0186 -0.5934
15699TIP3   OH247018   2.426   2.164   3.103 -0.2488 -0.0310  0.3010
15699TIP3    H147019   2.475   2.082   3.102  0.9283  0.6444  0.8332
15699TIP3    H247020   2.470   2.219   3.037  0.1318  0.8057  1.2330
15700TIP3   OH247021   6.220   4.870   4.833  0.9954 -0.3650  0.1458
15700TIP3    H147022   6.226   4.802   4.766 -3.4741  0.3798 -1.1846
15700TIP3    H247023   6.224   4.952   4.785 -0.7427  0.1862  0.8851
15701TIP3   OH247024   1.173   0.472   0.871 -0.6569 -0.4451  0.0776
15701TIP3    H147025   1.129   0.508   0.948 -0.6937 -0.9179  0.2802
15701TIP3    H247026   1.110   0.483   0.799 -0.6470 -0.0606  0.1296
15702TIP3   OH247027   4.345   3.955   6.123  0.4547 -0.4295 -0.3166
15702TIP3    H147028   4.264   3.989   6.087  1.0790  0.6487 -0.7304
15702TIP3    H247029   4.336   3.860   6.118 -2.9764 -0.5745  4.4337
15703TIP3   OH247030   1.180   1.864   1.018 -0.8440  0.4565  0.1533
15703TIP3    H147031   1.113   1.853   0.951 -0.5925  0.5845 -0.1172
15703TIP3    H247032   1.263   1.853   0.972 -0.6907 -0.3118  0.6033
15704TIP3   OH247033   5.514   6.805   6.928 -0.0292  0.3150  0.1270
15704TIP3    H147034   5.448   6.737   6.945  0.8293 -0.5447  0.0972
15704TIP3    H247035   5.549   6.784   6.841  0.9491  0.1923  0.5378
15705TIP3   OH247036   6.473   3.600   7.032 -0.2208  0.1019  0.2647
15705TIP3    H147037   6.443   3.510   7.021  0.7708 -0.1197 -0.6522
15705TIP3    H247038   6.491   3.630   6.943  1.5344  0.4957  0.7492
15706TIP3   OH247039   5.294   4.703   5.432  0.2703 -0.2305 -0.0316
15706TIP3    H147040   5.328   4.786   5.464 -1.0874  0.0359  0.7477
15706TIP3    H247041   5.330   4.638   5.493 -1.2515  0.1402  1.3051
15707TIP3   OH247042   2.701   0.710   1.368  0.5541  0.0667 -0.0594
15707TIP3    H147043   2.653   0.663   1.300 -0.8466 -0.3687  1.2022
15707TIP3    H247044   2.734   0.789   1.324 -0.0316 -0.3802 -1.3197
15708TIP3   OH247045   2.228   1.538   2.918 -0.1148 -0.5983 -0.8712
15708TIP3    H147046   2.318   1.511   2.937  0.4938  2.6897  1.4573
15708TIP3    H247047   2.173   1.483   2.973  0.7501 -0.0976  0.5051
15709TIP3   OH247048   5.778   6.045   6.270 -0.0602  0.5404 -0.1293
15709TIP3    H147049   5.844   5.979   6.249 -1.4493 -0.8750 -0.1614
15709TIP3    H247050   5.828   6.125   6.284  1.7884 -0.8268  1.3497
15710TIP3   OH247051   2.528   2.795   3.929  0.1653 -0.8052  0.1321
15710TIP3    H147052   2.554   2.886   3.917 -0.0007 -0.7181  0.4507
15710TIP3    H247053   2.519   2.784   4.023  0.3261 -1.1921  0.1067
15711TIP3   OH247054   6.646   6.421   4.456 -0.3302  0.1951 -0.2366
15711TIP3    H147055   6.623   6.506   4.421  0.4913 -0.3632 -2.1723
15711TIP3    H247056   6.565   6.371   4.454 -1.0272  1.1901  1.7616
15712TIP3   OH247057   3.303   3.428   0.440  0.1486 -0.0514  0.6478
15712TIP3    H147058   3.256   3.467   0.514 -0.6386  0.6024 -0.1838
15712TIP3    H247059   3.353   3.501   0.403  2.4996 -0.9066  2.0103
15713TIP3   OH247060   6.985   7.514   6.759 -0.2739  0.0970 -0.4627
15713TIP3    H147061   6.970   7.608   6.762  2.3768  0.5375  0.1431
15713TIP3    H247062   6.978   7.486   6.850 -1.6955 -0.4069 -0.7212
15714TIP3   OH247063   5.352   7.157   0.147 -0.0734  0.1566 -0.1142
15714TIP3    H147064   5.323   7.245   0.125 -0.9736 -0.2634 -0.6223
15714TIP3    H247065   5.416   7.135   0.079 -2.3015 -0.8551 -1.9206
15715TIP3   OH247066   1.700   1.563  -0.017  0.0740  0.5314 -0.4264
15715TIP3    H147067   1.795   1.574  -0.017  0.2541 -0.8382  0.8208
15715TIP3    H247068   1.682   1.509   0.060 -1.2990 -2.4787 -2.7475
15716TIP3   OH247069   2.709   2.038   2.652  0.1610 -0.1149  0.3498
15716TIP3    H147070   2.774   1.982   2.694  0.3100  0.3254  0.7021
15716TIP3    H247071   2.738   2.042   2.560  1.2978  1.0377  0.7529
15717TIP3   OH247072   4.622   4.751   6.432  0.0974 -0.1793 -0.2060
15717TIP3    H147073   4.603   4.710   6.517  0.2419  2.1395  1.0124
15717TIP3    H247074   4.555   4.819   6.424  1.6482  1.3245 -0.7085
15718TIP3   OH247075   3.187   0.475   1.145 -0.0269 -0.9922 -0.0173
15718TIP3    H147076   3.133   0.552   1.127 -0.2314 -1.0097  0.5062
15718TIP3    H247077   3.199   0.476   1.240 -1.9218 -2.8526  0.2789
15719TIP3   OH247078   5.847   4.691   6.754  0.0196  0.3555 -0.5019
15719TIP3    H147079   5.778   4.676   6.689 -0.8529  0.0871  0.4785
15719TIP3    H247080   5.839   4.618   6.815  1.2064  0.2950 -0.4006
15720TIP3   OH247081   1.503   1.752   1.182  0.0857 -1.1099  0.3120
15720TIP3    H147082   1.534   1.836   1.216  1.1348 -0.8943 -1.1401
15720TIP3    H247083   1.469   1.773   1.094 -0.1434 -2.1040  0.1582
15721TIP3   OH247084   5.072   4.830   5.324  0.2025 -0.4562 -0.0538
15721TIP3    H147085   5.115   4.861   5.245  2.4934  2.3667  2.1949
15721TIP3    H247086   5.136   4.770   5.365 -0.2371 -0.5283  0.5409
15722TIP3   OH247087   4.435   7.720   0.245  0.0701 -0.1877 -0.3724
15722TIP3    H147088   4.367   7.785   0.224  1.9973  1.2077 -2.4767
15722TIP3    H247089   4.415   7.645   0.189 -0.3767 -0.2222 -0.1696
15723TIP3   OH247090   6.663   7.719   7.121 -0.7737  0.3980  0.3855
15723TIP3    H147091   6.630   7.673   7.044  1.4554 -1.1420  0.3410
15723TIP3    H247092   6.590   7.776   7.147 -3.4966 -2.9163  0.3026
15724TIP3   OH247093   0.675   0.910   2.866  0.2933 -0.3909  0.2500
15724TIP3    H147094   0.641   0.824   2.889  0.6088 -0.8223 -0.9080
15724TIP3    H247095   0.762   0.893   2.829  1.0886  0.5631  1.5916
15725TIP3   OH247096   4.599   3.886   6.898  0.5941  0.0928  0.4129
15725TIP3    H147097   4.534   3.930   6.844 -0.3901 -1.6958  0.1152
15725TIP3    H247098   4.673   3.871   6.839  2.7619  5.1539  1.5791
15726TIP3   OH247099   4.032   6.626   5.644  0.4409  0.2348 -0.1907
15726TIP3    H147100   3.956   6.605   5.589  0.2611  1.2547 -0.3287
15726TIP3    H247101   4.008   6.595   5.731  0.4991 -0.8770 -0.5600
15727TIP3   OH247102   8.666   7.281   0.033  0.5043 -0.1348 -0.2521
15727TIP3    H147103   8.677   7.345  -0.037  0.6438 -1.7438 -1.7256
15727TIP3    H247104   8.755   7.262   0.063  0.5372 -0.4300 -0.5366
15728TIP3   OH247105   3.007   0.040   0.178 -0.2260  0.3777 -0.5468
15728TIP3    H147106   3.063   0.071   0.249 -0.8556  0.5274 -0.1053
15728TIP3    H247107   2.921   0.077   0.199 -0.3221  0.7763 -1.6127
15729TIP3   OH247108   6.765   4.356   5.468  0.1193 -0.0540 -0.3749
15729TIP3    H147109   6.857   4.371   5.491  0.0779  0.0720 -0.2892
15729TIP3    H247110   6.718   4.428   5.511 -0.1535 -0.7764  0.5602
15730TIP3   OH247111   5.739   6.969   7.017  0.8983 -0.2257  0.3748
15730TIP3    H147112   5.745   7.047   6.962  1.7295 -1.2277 -0.9943
15730TIP3    H247113   5.657   6.927   6.990  1.2034 -0.6099  0.0375
15731TIP3   OH247114   8.507   7.938   1.106 -0.7486 -0.0963 -0.1173
15731TIP3    H147115   8.467   7.992   1.037 -0.3393 -0.0120 -0.2930
15731TIP3    H247116   8.465   7.968   1.186 -1.3000 -0.2622 -0.3435
15732TIP3   OH247117   6.729   2.173   6.852  0.1581 -0.3644  0.2408
15732TIP3    H147118   6.730   2.120   6.932 -2.2875 -0.3714  0.3162
15732TIP3    H247119   6.763   2.115   6.784 -0.3006 -1.2660  0.7662
15733TIP3   OH247120   8.553   0.067   6.218 -0.7086  0.4582 -0.5052
15733TIP3    H147121   8.516   0.039   6.301  0.6675 -1.1373 -0.4033
15733TIP3    H247122   8.523   0.157   6.207 -0.5203  0.8411  1.9451
15734TIP3   OH247123   8.317   6.672   0.228  0.1144  0.1372 -0.5468
15734TIP3    H147124   8.362   6.588   0.219  1.2140  0.6064  0.3567
15734TIP3    H247125   8.265   6.681   0.149 -0.6452 -1.7734 -0.2837
15735TIP3   OH247126   3.039   1.936   3.186 -0.0504 -0.1661 -0.6172
15735TIP3    H147127   2.978   1.945   3.259 -0.6987  0.8218 -1.2735
15735TIP3    H247128   3.106   1.876   3.218  0.4786  1.4273  1.3343
15736TIP3   OH247129   1.543   1.232   2.922 -0.7826  0.0423  0.5873
15736TIP3    H147130   1.476   1.275   2.868  0.2096  0.7633 -0.0782
15736TIP3    H247131   1.597   1.303   2.956 -0.6171 -0.5085  1.4962
15737TIP3   OH247132   2.324   4.696   3.434  0.1668 -0.2983  0.1483
15737TIP3    H147133   2.410   4.676   3.471 -0.3684 -0.2678  1.4445
15737TIP3    H247134   2.309   4.788   3.456 -1.0309 -0.8363  1.6822
15738TIP3   OH247135   5.824   8.119   2.476  0.6583 -0.2322 -0.0720
15738TIP3    H147136   5.871   8.200   2.498 -0.9653  1.2479 -1.8685
15738TIP3    H247137   5.850   8.101   2.386  0.1338 -1.0939 -0.0487
15739TIP3   OH247138   5.532   5.562   6.821 -0.1400 -0.2623  0.3831
15739TIP3    H147139   5.503   5.631   6.761 -0.2043  0.7397  1.5399
15739TIP3    H247140   5.451   5.520   6.849 -0.2062  0.0794  0.7121
15740TIP3   OH247141   0.246   8.324   0.679  0.6385 -0.4312  0.1837
15740TIP3    H147142   0.228   8.267   0.604  0.8518  0.0412 -0.2297
15740TIP3    H247143   0.162   8.334   0.723  0.3418 -0.0482 -0.4615
15741TIP3   OH247144   5.882   7.453   0.477  0.1926 -0.4113  0.0418
15741TIP3    H147145   5.956   7.416   0.525  0.5601  1.2875  0.8240
15741TIP3    H247146   5.886   7.410   0.391  1.6688 -0.8576  0.3094
15742TIP3   OH247147   0.270   1.414   2.281  0.6538 -0.4946 -0.2842
15742TIP3    H147148   0.325   1.455   2.348  0.0707 -1.1253  0.5927
15742TIP3    H247149   0.313   1.331   2.262 -0.6587 -1.6113  1.3780
15743TIP3   OH247150   2.267   1.751   2.043 -0.3678 -0.0349  0.2127
15743TIP3    H147151   2.242   1.769   2.134  0.5649 -0.2204  0.5070
15743TIP3    H247152   2.292   1.837   2.008  1.5637 -0.3206  0.8442
15744TIP3   OH247153   0.180   0.777   0.538 -0.0473  0.4942 -0.2694
15744TIP3    H147154   0.208   0.761   0.629 -2.1471  1.8157  0.6408
15744TIP3    H247155   0.260   0.766   0.486  1.2646  0.0733  1.7794
15745TIP3   OH247156   7.409   7.995   2.035  0.2731  0.4736  0.1419
15745TIP3    H147157   7.392   8.071   2.091 -0.0734  0.0283  0.6497
15745TIP3    H247158   7.408   7.920   2.095 -1.2540 -0.1521 -0.6089
15746TIP3   OH247159   5.874   4.924   7.012  0.0660  0.3470  0.2998
15746TIP3    H147160   5.924   5.006   7.016 -1.7687  1.4525  1.4688
15746TIP3    H247161   5.803   4.943   6.949 -0.9519 -0.0059  1.3280
15747TIP3   OH247162   5.226   4.749   7.142  0.2820 -0.5196  0.1224
15747TIP3    H147163   5.168   4.759   7.217  0.4706  0.1354  0.1829
15747TIP3    H247164   5.267   4.835   7.131 -0.0470 -0.4960 -0.9760
15748TIP3   OH247165   2.951   1.186   0.313  0.2518 -0.1867  0.3807
15748TIP3    H147166   2.970   1.267   0.361  0.1182  0.8895 -1.3348
15748TIP3    H247167   3.023   1.179   0.250 -0.2199 -0.9301 -0.0747
15749TIP3   OH247168   2.071   4.614   6.539 -0.6846  0.2471 -0.4669
15749TIP3    H147169   2.006   4.553   6.575 -0.8644 -0.3178 -1.7026
15749TIP3    H247170   2.144   4.558   6.514  0.0800  0.8261  0.4808
15750TIP3   OH247171   5.368   2.189   0.736 -0.4245  0.1314 -0.1275
15750TIP3    H147172   5.401   2.224   0.653 -1.8452  0.2336 -0.6692
15750TIP3    H247173   5.404   2.101   0.742 -0.2509  0.1549 -0.8186
15751TIP3   OH247174   1.123   0.520   1.434 -0.4230 -0.1477  0.1518
15751TIP3    H147175   1.052   0.542   1.373 -0.5332 -0.9797 -0.0169
15751TIP3    H247176   1.087   0.542   1.520 -0.9372 -0.7022  0.0804
15752TIP3   OH247177   1.805   0.327   0.365  0.5269  0.5675  0.3286
15752TIP3    H147178   1.896   0.316   0.394  0.1151  0.1174  1.4719
15752TIP3    H247179   1.802   0.285   0.279  1.9289  2.4875 -0.7058
15753TIP3   OH247180   7.317   7.267   0.263  0.3021 -0.3966  0.4429
15753TIP3    H147181   7.291   7.175   0.275 -1.0878  0.1305  1.7361
15753TIP3    H247182   7.243   7.317   0.299  0.7914  1.2336 -0.7782
15754TIP3   OH247183   5.530   5.429   5.614  0.0222  0.9712 -0.0925
15754TIP3    H147184   5.503   5.409   5.704  2.8156 -0.7344  0.4273
15754TIP3    H247185   5.610   5.480   5.624  1.7041 -1.2775 -1.5753
15755TIP3   OH247186   1.990   0.008   1.405  0.2234  0.4021 -0.0993
15755TIP3    H147187   1.897  -0.002   1.423 -0.1364  0.4809 -1.8372
15755TIP3    H247188   2.007   0.102   1.417 -0.3334  0.7080 -1.5555
15756TIP3   OH247189   5.857   6.713   6.966 -0.0050 -0.0053  0.1337
15756TIP3    H147190   5.807   6.792   6.987 -1.3517 -0.3482 -1.6720
15756TIP3    H247191   5.838   6.653   7.039 -1.2806  0.3103  0.0830
15757TIP3   OH247192   2.668   2.011   1.224 -0.1040 -0.3540  0.3404
15757TIP3    H147193   2.616   2.076   1.271 -0.2510 -0.1743 -0.0682
15757TIP3    H247194   2.605   1.969   1.165 -0.4406 -2.1922  1.9627
15758TIP3   OH247195   4.763   4.589   6.910 -0.1221 -0.1728 -0.1272
15758TIP3    H147196   4.734   4.639   6.986  1.4457  0.7037 -0.0886
15758TIP3    H247197   4.742   4.645   6.835  1.0077  0.2527 -0.1312
15759TIP3   OH247198   3.725   1.490   2.227  0.1307  0.0346 -0.3038
15759TIP3    H147199   3.662   1.544   2.275 -0.0969 -1.2376  0.8676
15759TIP3    H247200   3.810   1.523   2.254  0.0071 -0.7085  1.0741
15760TIP3   OH247201   3.376   0.477   0.927 -0.0135 -0.3381 -0.8055
15760TIP3    H147202   3.339   0.417   0.863  0.0372 -0.4832 -0.6999
15760TIP3    H247203   3.305   0.490   0.990  0.7732 -2.2508  0.5332
15761TIP3   OH247204   5.357   5.180   7.234  0.0473 -0.1189  0.0149
15761TIP3    H147205   5.382   5.271   7.252  0.7828 -0.1443 -0.8535
15761TIP3    H247206   5.296   5.158   7.305 -0.2959  1.1162  0.1304
15762TIP3   OH247207   5.361   3.981   7.258 -0.0789 -0.1091  0.1221
15762TIP3    H147208   5.266   3.972   7.262  0.0064 -1.3511 -0.4708
15762TIP3    H247209   5.378   4.028   7.176 -0.1682  0.0828  0.2116
15763TIP3   OH247210   6.062   5.978   6.982  0.6793  0.5646 -0.6058
15763TIP3    H147211   6.102   5.907   6.931 -0.0361 -1.0903  1.0749
15763TIP3    H247212   5.991   6.010   6.926  0.5395 -0.5499 -1.0914
15764TIP3   OH247213   0.665   1.058   2.520  0.0922 -0.0871  0.0293
15764TIP3    H147214   0.632   0.975   2.554  2.0443 -0.4637  1.0953
15764TIP3    H247215   0.708   1.034   2.438  2.3642 -0.4794  1.2970
15765TIP3   OH247216   7.048   4.371   5.467 -0.3315  0.5405  0.1530
15765TIP3    H147217   7.096   4.447   5.501 -0.3770 -0.1536  1.8190
15765TIP3    H247218   7.113   4.300   5.467  0.4877  1.1727 -3.9818
15766TIP3   OH247219   3.597   2.084   0.823 -0.6564  0.3966 -0.2020
15766TIP3    H147220   3.688   2.093   0.850 -0.2187 -0.7774 -1.2121
15766TIP3    H247221   3.581   2.159   0.766 -0.9447  1.7097  1.5676
15767TIP3   OH247222   2.088   0.868   1.153 -0.1799 -0.2529  0.3615
15767TIP3    H147223   2.066   0.780   1.184  0.0159  0.0979  1.5345
15767TIP3    H247224   2.053   0.872   1.064  2.0320 -2.3949 -0.6441
15768TIP3   OH247225   1.762   1.292   0.928 -0.5310  0.3607  0.0862
15768TIP3    H147226   1.848   1.325   0.903  0.8026 -2.8799  0.0845
15768TIP3    H247227   1.718   1.274   0.845 -1.3186  2.2007  0.0857
15769TIP3   OH247228   5.668   5.736   6.973  0.1409 -0.1273  0.2429
15769TIP3    H147229   5.610   5.680   6.920 -0.7049  2.2595 -1.4594
15769TIP3    H247230   5.743   5.681   6.993  0.9026 -0.9344 -4.2092
15770TIP3   OH247231   0.672   1.085   0.191 -0.1564  0.1176  0.1082
15770TIP3    H147232   0.593   1.107   0.241 -0.3305  0.7565 -0.4291
15770TIP3    H247233   0.733   1.156   0.210 -0.0845  0.1600 -0.2764
15771TIP3   OH247234   1.412   0.331   3.324  0.0172  0.5905  0.4139
15771TIP3    H147235   1.318   0.316   3.333  0.1597 -1.9523 -1.6698
15771TIP3    H247236   1.452   0.252   3.362  1.3582  1.8713  1.7433
15772TIP3   OH247237   1.667   1.912   3.730  0.2822  0.2115  0.6259
15772TIP3    H147238   1.589   1.966   3.718  0.7726  0.5517 -1.2199
15772TIP3    H247239   1.740   1.972   3.715  0.9116 -0.1694  2.0472
15773TIP3   OH247240   0.069   7.365   0.466  0.0334  0.4359  0.1051
15773TIP3    H147241   0.080   7.283   0.418 -0.0935  0.6747 -0.3411
15773TIP3    H247242  -0.026   7.372   0.479 -0.2668  1.9678 -2.4864
15774TIP3   OH247243   3.444   6.288   5.599  0.0889  0.2452  1.0626
15774TIP3    H147244   3.395   6.355   5.550 -1.0459 -0.2716  1.4900
15774TIP3    H247245   3.385   6.213   5.604  0.9350 -0.3981  1.5579
15775TIP3   OH247246   3.218   1.661   2.181 -0.5229 -0.8852  0.2205
15775TIP3    H147247   3.150   1.603   2.215 -1.7701 -0.3506 -1.2854
15775TIP3    H247248   3.228   1.633   2.090  2.3402 -1.9278  0.8028
15776TIP3   OH247249   2.144   3.375   2.574  0.2189 -0.1952 -0.1723
15776TIP3    H147250   2.202   3.336   2.639  1.3978 -1.3332 -1.8714
15776TIP3    H247251   2.193   3.370   2.491 -1.6969  0.1672 -1.3636
15777TIP3   OH247252   3.605   1.681   0.739 -0.1157  0.3816  0.7338
15777TIP3    H147253   3.591   1.657   0.647  0.9333  1.1276  0.3684
15777TIP3    H247254   3.672   1.620   0.769 -0.9149 -0.2815  1.2013
15778TIP3   OH247255   5.832   4.808   5.017 -0.3683 -0.2011  0.3256
15778TIP3    H147256   5.904   4.871   5.024 -0.9446  0.4978 -0.0244
15778TIP3    H247257   5.767   4.839   5.080 -0.1424 -1.1494  1.0482
15779TIP3   OH247258   5.179   5.731   6.142 -0.1150 -0.2810 -0.1485
15779TIP3    H147259   5.274   5.733   6.152 -0.1551  0.4416  0.1654
15779TIP3    H247260   5.152   5.648   6.180  0.2864 -0.0133  0.7463
15780TIP3   OH247261   2.279   1.364   0.530 -0.2006  0.6453  0.2450
15780TIP3    H147262   2.283   1.269   0.516  1.1416  0.8198 -0.6260
15780TIP3    H247263   2.189   1.388   0.505 -0.1899 -0.2283 -0.6622
15781TIP3   OH247264   6.349   4.716   6.008  0.0624 -0.0569 -0.6453
15781TIP3    H147265   6.375   4.713   6.100  2.0282  0.0465 -1.1648
15781TIP3    H247266   6.289   4.642   5.997 -1.0041  0.5466  0.9387
15782TIP3   OH247267   5.090   4.471   5.359  0.8998 -0.5192 -0.1229
15782TIP3    H147268   5.174   4.514   5.338 -0.0387  0.7278 -1.4543
15782TIP3    H247269   5.063   4.432   5.276  0.4950 -1.5402  0.4828
15783TIP3   OH247270   7.490   7.874   1.593 -0.3064  0.1073  0.1717
15783TIP3    H147271   7.432   7.938   1.634 -0.5395 -0.0281  0.0533
15783TIP3    H247272   7.437   7.794   1.585 -0.4853  0.3332 -1.0116
15784TIP3   OH247273   1.636   0.019   1.207 -0.3619 -0.8709  0.4143
15784TIP3    H147274   1.627   0.103   1.252  0.6001 -0.8446  0.5642
15784TIP3    H247275   1.640  -0.046   1.277 -0.6402 -0.9955  0.3137
15785TIP3   OH247276   1.397   2.170   4.006  0.1547  0.6558  0.0678
15785TIP3    H147277   1.484   2.187   3.971  0.5724 -1.4139  0.0661
15785TIP3    H247278   1.401   2.081   4.038 -2.3969  0.0077 -1.2774
15786TIP3   OH247279   4.209   0.317   3.539 -0.4811  0.1259 -0.3384
15786TIP3    H147280   4.124   0.281   3.565  0.2130 -0.5313  1.0644
15786TIP3    H247281   4.198   0.412   3.548 -1.3370  0.1099 -1.0571
15787TIP3   OH247282   5.904   2.932   6.491 -0.4213 -0.4251  0.2561
15787TIP3    H147283   5.827   2.984   6.512 -0.1611  0.1467 -0.1939
15787TIP3    H247284   5.910   2.867   6.562 -1.2126 -0.3654  0.3772
15788TIP3   OH247285   3.832   1.310   1.430  0.9927  0.2941 -0.3114
15788TIP3    H147286   3.851   1.378   1.365  0.0308  0.8878  0.0123
15788TIP3    H247287   3.916   1.267   1.446  1.9394  2.4120  0.6049
15789TIP3   OH247288   2.198   0.758   0.671 -0.1615  0.3986  0.4099
15789TIP3    H147289   2.248   0.835   0.644 -0.4493  0.2907 -0.4676
15789TIP3    H247290   2.263   0.689   0.681  0.1533  0.8567  1.6317
15790TIP3   OH247291   8.800   8.174   0.488  0.2312  0.3286  0.6931
15790TIP3    H147292   8.776   8.090   0.526  0.0385 -0.2129 -0.6025
15790TIP3    H247293   8.890   8.162   0.456  0.3206  0.7097  0.7998
15791TIP3   OH247294   6.224   8.070   0.516 -0.6290  0.1461  0.0864
15791TIP3    H147295   6.249   8.068   0.424  1.0529  0.1460  0.5333
15791TIP3    H247296   6.152   8.133   0.520 -1.2078 -0.4185 -1.3424
15792TIP3   OH247297   0.934   7.528   1.870  0.1804 -0.1255 -0.0991
15792TIP3    H147298   0.951   7.518   1.964  0.0442  1.6579  0.1292
15792TIP3    H247299   0.842   7.502   1.859  0.6934 -2.0164 -0.0356
15793TIP3   OH247300   1.467   0.238   0.258 -0.5854  0.1663  0.2387
15793TIP3    H147301   1.435   0.156   0.219  0.0953 -0.3966  0.8466
15793TIP3    H247302   1.551   0.254   0.216 -1.6016  1.5978 -1.2886
15794TIP3   OH247303   0.146   1.132   0.562 -0.3010  0.2405  0.0561
15794TIP3    H147304   0.118   1.060   0.506 -0.3612 -0.4067  0.9121
15794TIP3    H247305   0.165   1.204   0.501  0.1402 -0.6188 -0.8301
15795TIP3   OH247306   3.322   2.365   2.403  0.0435  0.2854 -0.4299
15795TIP3    H147307   3.289   2.325   2.483  1.6123  1.3624  0.7811
15795TIP3    H247308   3.369   2.293   2.359  0.8524  0.1732  0.5907
15796TIP3   OH247309   4.497   0.445   1.889  0.5690 -0.3809 -0.0509
15796TIP3    H147310   4.469   0.524   1.844 -1.3551  1.3211  3.8639
15796TIP3    H247311   4.422   0.385   1.881  0.7134 -0.5398 -0.2062
15797TIP3   OH247312   5.377   3.733   6.871 -0.3701 -0.0647  0.5092
15797TIP3    H147313   5.399   3.812   6.821  0.7804 -0.9148 -0.3615
15797TIP3    H247314   5.451   3.722   6.932 -0.6212 -0.3584  0.7634
15798TIP3   OH247315   8.878   8.331   0.730  0.2407 -0.3234  0.0773
15798TIP3    H147316   8.905   8.408   0.679  0.8914  0.2817  1.3158
15798TIP3    H247317   8.838   8.273   0.666  0.2599  0.8043 -0.9786
15799TIP3   OH247318   5.539   7.408   7.122  0.1368 -0.2276 -0.3917
15799TIP3    H147319   5.507   7.495   7.144 -0.2552 -0.0252 -1.7190
15799TIP3    H247320   5.616   7.396   7.177 -0.3148  0.5990  0.4356
15800TIP3   OH247321   2.125   0.770   2.009 -0.7026  0.1774 -0.6382
15800TIP3    H147322   2.042   0.722   2.014 -0.5958  0.1590  1.2079
15800TIP3    H247323   2.192   0.703   2.020 -0.4776  0.3885 -0.7242
15801TIP3   OH247324   6.650   7.957   2.294  0.8432  0.0684 -0.0139
15801TIP3    H147325   6.724   7.990   2.345  1.2887  2.1819 -1.9411
15801TIP3    H247326   6.574   8.003   2.329  0.8106 -0.2308  0.3053
15802TIP3   OH247327   1.416   0.694   2.358 -0.4656 -1.2612  0.4379
15802TIP3    H147328   1.362   0.768   2.331  2.4069  0.9707  0.5207
15802TIP3    H247329   1.451   0.720   2.443 -0.8592 -3.5464  1.3313
15803TIP3   OH247330   0.296   1.137   0.294  0.0413 -0.8167 -0.3993
15803TIP3    H147331   0.277   1.153   0.202  0.0136 -0.3402 -0.3094
15803TIP3    H247332   0.295   1.223   0.335 -0.2213 -1.0548  0.1023
15804TIP3   OH247333   4.766   5.612   6.733 -0.2204  0.4794  0.3545
15804TIP3    H147334   4.788   5.545   6.798 -1.0945 -0.4323 -0.2814
15804TIP3    H247335   4.703   5.669   6.778  0.6300  0.9717  0.9418
15805TIP3   OH247336   3.356   0.335   0.078  0.0857  0.1838  0.1782
15805TIP3    H147337   3.278   0.390   0.068  0.1878  0.1513 -0.9002
15805TIP3    H247338   3.411   0.358   0.003  1.5873  0.9417  1.5083
15806TIP3   OH247339   0.533   0.555   3.384 -0.3149 -0.2016 -0.1290
15806TIP3    H147340   0.560   0.612   3.456  0.6430  0.9114 -1.3447
15806TIP3    H247341   0.556   0.604   3.305  0.1058 -2.1007 -1.1972
15807TIP3   OH247342   2.460   2.230   2.438 -0.0214  0.9569 -0.2552
15807TIP3    H147343   2.525   2.171   2.401 -0.1995  0.9742 -0.6077
15807TIP3    H247344   2.427   2.185   2.515  1.3461  1.5289  0.6801
15808TIP3   OH247345   1.367   0.379   1.036 -0.2468  0.3220 -0.4472
15808TIP3    H147346   1.300   0.406   0.973 -0.0797  0.0810 -0.7310
15808TIP3    H247347   1.327   0.395   1.122 -0.0936  1.5987 -0.6050
15809TIP3   OH247348   2.426   1.869   1.137 -0.0056  0.6488  0.0039
15809TIP3    H147349   2.336   1.863   1.169 -0.2321 -0.1103 -0.7682
15809TIP3    H247350   2.421   1.846   1.045  1.0313  0.2593  0.0332
15810TIP3   OH247351   2.917   1.696   0.993  0.8223 -0.4056  0.0824
15810TIP3    H147352   2.998   1.746   1.008 -1.8138  3.5087  2.1930
15810TIP3    H247353   2.879   1.684   1.080 -2.2161  0.2924 -1.0865
15811TIP3   OH247354   0.170   0.366   0.720 -0.0118 -1.1607  0.4322
15811TIP3    H147355   0.216   0.285   0.698  0.6872 -0.5309 -0.4556
15811TIP3    H247356   0.173   0.370   0.816  1.9952 -1.0193  0.3875
15812TIP3   OH247357   5.607   3.268   6.844 -0.0021 -0.1893 -0.1737
15812TIP3    H147358   5.702   3.274   6.844 -0.0380  0.5624 -0.7433
15812TIP3    H247359   5.580   3.324   6.770 -0.8937 -0.0450  0.2573
15813TIP3   OH247360   0.176   0.757   0.823  0.2104 -0.1394  0.6674
15813TIP3    H147361   0.206   0.744   0.913  0.7687  1.1028  0.6763
15813TIP3    H247362   0.119   0.682   0.805  2.4654 -2.0054  1.0201
15814TIP3   OH247363   5.671   5.700   6.250  0.4894 -0.3284 -0.1791
15814TIP3    H147364   5.738   5.739   6.194  1.0912  1.7083  1.9081
15814TIP3    H247365   5.720   5.669   6.327 -1.1121  2.6897  2.1377
15815TIP3   OH247366   1.902   1.141   0.102  0.0987  0.2888 -0.2762
15815TIP3    H147367   1.864   1.184   0.178 -0.2061  0.2153 -0.3863
15815TIP3    H247368   1.866   1.188   0.027  0.5955  0.5242 -0.3719
15816TIP3   OH247369   6.879   4.648   6.955 -0.2510  0.3438 -0.5068
15816TIP3    H147370   6.906   4.645   6.863  0.6083 -0.9760 -0.2368
15816TIP3    H247371   6.961   4.645   7.004 -0.7974 -2.9750  0.3279
15817TIP3   OH247372   6.918   7.882   1.527  0.6412  0.2822 -0.3894
15817TIP3    H147373   6.924   7.830   1.607  0.2367  1.9393  0.7296
15817TIP3    H247374   6.824   7.898   1.516  0.2638 -3.2250 -3.3783
15818TIP3   OH247375   8.160   6.279   0.256  0.2278 -0.1965  0.0392
15818TIP3    H147376   8.122   6.222   0.322 -1.6007 -0.6402 -1.3515
15818TIP3    H247377   8.218   6.338   0.305 -3.4149  1.5359  2.4525
15819TIP3   OH247378   2.019   1.462   0.222 -0.0621 -0.1728  0.9723
15819TIP3    H147379   2.050   1.522   0.290  2.4362 -1.9205  1.4516
15819TIP3    H247380   1.973   1.394   0.271 -1.0924  0.2467  0.6031
15820TIP3   OH247381   7.904   8.128   0.364  0.5096 -0.3080  0.4208
15820TIP3    H147382   7.848   8.052   0.379  0.4597 -0.3667 -0.0786
15820TIP3    H247383   7.992   8.091   0.355  0.3747 -0.3811 -0.6209
15821TIP3   OH247384   4.963   6.227   5.245 -0.1332 -0.1060 -0.7023
15821TIP3    H147385   4.921   6.268   5.169 -1.8817  0.4445  0.5270
15821TIP3    H247386   5.029   6.291   5.273 -0.8227  0.5723 -0.5926
15822TIP3   OH247387   5.561   3.771   7.266  0.0891  0.0572  0.5744
15822TIP3    H147388   5.478   3.806   7.235  0.3814 -0.6291 -1.0483
15822TIP3    H247389   5.621   3.846   7.265 -0.0665  0.1727  0.1026
15823TIP3   OH247390   4.725   4.288   5.280 -0.1640 -0.3748  0.7459
15823TIP3    H147391   4.660   4.275   5.348  1.8140 -0.4875  2.6656
15823TIP3    H247392   4.801   4.239   5.310  1.0755  0.3533 -1.0944
15824TIP3   OH247393   6.190   4.595   6.323  0.1770 -0.5695  0.2322
15824TIP3    H147394   6.268   4.642   6.293  0.2423 -0.2681  0.8617
15824TIP3    H247395   6.117   4.653   6.302  0.0119 -1.3085 -1.3163
15825TIP3   OH247396   1.948   1.780   2.506  0.0924 -0.7434 -0.1248
15825TIP3    H147397   1.892   1.853   2.531 -0.1538 -1.1142  0.4346
15825TIP3    H247398   1.980   1.802   2.419  1.7179  1.0412  0.8805
15826TIP3   OH247399   4.451   4.957   5.888  0.5504 -0.4954  0.2130
15826TIP3    H147400   4.468   5.045   5.919 -1.5575 -0.2383  0.7403
15826TIP3    H247401   4.426   4.908   5.966 -0.6065 -0.9337 -0.4106
15827TIP3   OH247402   6.845   7.172   1.963 -0.5326  0.2518 -0.3155
15827TIP3    H147403   6.784   7.227   1.912  0.1897 -0.4211 -1.9590
15827TIP3    H247404   6.818   7.082   1.943  0.7872 -0.0457 -0.8207
15828TIP3   OH247405   2.231   0.731   1.389  0.6410  0.7675  0.2843
15828TIP3    H147406   2.305   0.678   1.360  0.1777  0.1965  0.1462
15828TIP3    H247407   2.244   0.815   1.345 -0.6777 -0.4543 -2.5633
15829TIP3   OH247408   1.483   0.055   0.636 -0.1429  0.1342  0.2769
15829TIP3    H147409   1.505   0.051   0.543  1.5396 -1.2912  0.7061
15829TIP3    H247410   1.561   0.090   0.679 -0.8624  0.6768  1.1779
15830TIP3   OH247411   2.775   1.873   1.751 -0.4686  0.3385 -0.0061
15830TIP3    H147412   2.782   1.858   1.845  1.4436 -1.8048 -0.4289
15830TIP3    H247413   2.835   1.946   1.734 -0.0466  0.0597  0.2859
15831TIP3   OH247414   3.276   1.059   0.733 -0.2934  0.0717 -0.1645
15831TIP3    H147415   3.228   1.127   0.779 -1.6900 -1.1340  0.1884
15831TIP3    H247416   3.299   1.099   0.649 -0.2166  1.3124  0.4382
15832TIP3   OH247417   4.255   1.246   0.865  0.0025 -0.3573 -0.1977
15832TIP3    H147418   4.287   1.168   0.910 -1.2699 -1.5256 -1.2530
15832TIP3    H247419   4.192   1.212   0.801 -1.6659  1.6554  0.3099
15833TIP3   OH247420   7.402   3.476   6.893 -0.0801  0.1732  0.4904
15833TIP3    H147421   7.327   3.530   6.917 -1.9787 -1.6641 -1.1597
15833TIP3    H247422   7.395   3.466   6.798  1.9235 -0.5448  0.3997
15834TIP3   OH247423   7.066   6.644   6.315  0.1665  0.2805 -0.1873
15834TIP3    H147424   7.006   6.604   6.252 -0.9182  2.5105 -0.5982
15834TIP3    H247425   7.010   6.690   6.377  1.2770 -1.0112  1.8430
15835TIP3   OH247426   3.145   6.186   4.988 -0.3062 -0.5178  0.0996
15835TIP3    H147427   3.158   6.152   4.899 -0.2187  0.3289 -0.2118
15835TIP3    H247428   3.106   6.113   5.036 -2.3612 -0.2855 -1.1837
15836TIP3   OH247429   7.940   8.151   0.801 -0.0526 -0.5895 -0.3470
15836TIP3    H147430   8.026   8.113   0.820  0.9294  2.2292  1.0007
15836TIP3    H247431   7.950   8.194   0.716  0.0094  0.2087  0.0671
15837TIP3   OH247432   6.924   5.750   4.533 -0.1179  0.8065  0.3110
15837TIP3    H147433   6.849   5.762   4.591 -1.2256 -0.2998 -0.8700
15837TIP3    H247434   6.886   5.730   4.448  1.5213 -0.0907 -0.2362
15838TIP3   OH247435   0.481   0.646   6.555 -0.7886  0.7266  0.5144
15838TIP3    H147436   0.482   0.620   6.647 -0.4643  2.0316  0.8870
15838TIP3    H247437   0.467   0.741   6.557  1.3859  1.1130 -0.6920
15839TIP3   OH247438   5.626   5.248   4.669  0.1673  0.2220  0.1473
15839TIP3    H147439   5.620   5.330   4.717 -3.6779  1.0559 -1.5018
15839TIP3    H247440   5.622   5.274   4.577  0.2290 -1.7319 -0.4360
15840TIP3   OH247441   4.437   6.389   6.232  0.1267 -0.0500  0.4028
15840TIP3    H147442   4.381   6.352   6.300 -0.2790  0.6890  0.4770
15840TIP3    H247443   4.521   6.402   6.275 -0.2692  0.8777  0.9153
15841TIP3   OH247444   5.582   1.994   0.160 -0.2815 -0.0683  0.3867
15841TIP3    H147445   5.622   1.994   0.247  1.1695 -0.5704 -0.2663
15841TIP3    H247446   5.616   2.073   0.118 -0.3894 -0.2223  0.0091
15842TIP3   OH247447   5.948   4.100   5.981  0.4589  0.0337 -0.2782
15842TIP3    H147448   5.998   4.020   5.997  1.4846  0.7634  0.1829
15842TIP3    H247449   5.856   4.073   5.993  0.8837 -0.7231  1.4483
15843TIP3   OH247450   5.543   5.860   7.205 -0.0621 -0.4501 -0.6177
15843TIP3    H147451   5.615   5.812   7.246  0.5471  0.3857 -0.6968
15843TIP3    H247452   5.550   5.837   7.112  0.6130  0.2769 -0.7502
15844TIP3   OH247453   3.100   2.215   0.054 -0.1135  0.5113 -0.4592
15844TIP3    H147454   3.144   2.154  -0.005 -2.8115 -1.3137 -0.7177
15844TIP3    H247455   3.158   2.222   0.130  1.0118 -1.1039 -1.1480
15845TIP3   OH247456   8.021   6.223   5.884 -0.1522  0.0918 -0.2095
15845TIP3    H147457   8.056   6.306   5.918 -0.6190 -0.2254  1.0707
15845TIP3    H247458   7.963   6.192   5.953  1.5235 -2.2795  0.1949
15846TIP3   OH247459   6.072   2.071   2.830  0.1064  0.8677 -0.1028
15846TIP3    H147460   6.159   2.083   2.790 -0.0864  0.8414 -0.5324
15846TIP3    H247461   6.077   2.118   2.913  1.7033 -2.0279  1.5117
15847TIP3   OH247462   2.047   1.271   1.866  0.8389  0.2660 -0.0451
15847TIP3    H147463   2.021   1.180   1.854  1.8995 -0.2064  1.1277
15847TIP3    H247464   2.022   1.314   1.784  0.9148 -1.2043 -0.8548
15848TIP3   OH247465   6.549   5.866   6.014  0.1105 -0.1266  0.1118
15848TIP3    H147466   6.466   5.913   6.024  0.8709  1.1614  0.4390
15848TIP3    H247467   6.523   5.779   5.982 -1.4317 -0.0529  1.0762
15849TIP3   OH247468   4.125   6.673   6.336 -0.3088 -0.4434  0.4962
15849TIP3    H147469   4.147   6.630   6.254 -1.4219 -0.8305  0.3839
15849TIP3    H247470   4.035   6.645   6.354 -0.4343  0.4599  1.3117
15850TIP3   OH247471   6.594   1.298   0.053 -0.3070  0.6852 -0.4629
15850TIP3    H147472   6.645   1.379   0.042  0.8163  0.1887  0.9496
15850TIP3    H247473   6.616   1.246  -0.024  1.4809  0.4117  0.1974
15851TIP3   OH247474   5.433   6.149   5.508  0.1892 -0.0278  0.9884
15851TIP3    H147475   5.507   6.100   5.543  1.3258  0.6493 -0.4196
15851TIP3    H247476   5.445   6.238   5.540  1.3985  0.6701 -1.2454
15852TIP3   OH247477   4.142   1.484   0.741 -0.1878 -0.0783  0.2195
15852TIP3    H147478   4.151   1.395   0.777  1.5156  0.0121  0.0848
15852TIP3    H247479   4.175   1.541   0.811  0.6306  0.2854 -0.4542
15853TIP3   OH247480   4.850   6.284   6.015 -1.0424 -0.1060 -0.0802
15853TIP3    H147481   4.762   6.321   6.023 -0.9367  0.3657 -0.9901
15853TIP3    H247482   4.890   6.298   6.100 -2.0243 -0.7966  0.5075
15854TIP3   OH247483   5.811   2.204   0.975  0.0685  0.2447 -0.6829
15854TIP3    H147484   5.759   2.135   1.014  0.1436 -0.1520 -1.2741
15854TIP3    H247485   5.822   2.269   1.044 -1.0634  0.2523 -0.5037
15855TIP3   OH247486   5.209   1.221   0.623  0.3034  0.2195 -0.0624
15855TIP3    H147487   5.300   1.250   0.617  0.2573  0.3171 -0.2756
15855TIP3    H247488   5.187   1.192   0.535  0.4849 -0.8539  0.2275
15856TIP3   OH247489   5.499   3.401   6.612  0.2366 -0.1820  0.3458
15856TIP3    H147490   5.448   3.470   6.654 -0.3414  0.2107 -0.9497
15856TIP3    H247491   5.480   3.411   6.519  0.6740 -1.6624  0.0757
15857TIP3   OH247492   8.787   6.798   5.107  0.0094 -0.0486 -0.7940
15857TIP3    H147493   8.821   6.737   5.172  0.5673 -1.0037 -1.9738
15857TIP3    H247494   8.729   6.746   5.052  0.4465  0.4880 -1.7779
15858TIP3   OH247495   5.221   6.568   6.811  0.7453  0.5777  0.0840
15858TIP3    H147496   5.184   6.545   6.726  0.7461 -0.7032  0.4186
15858TIP3    H247497   5.240   6.661   6.804  0.1961  0.6153 -1.1139
15859TIP3   OH247498   7.916   5.228   6.873 -0.0044  0.1182  0.4324
15859TIP3    H147499   7.896   5.200   6.962  0.5164 -2.4049 -0.2209
15859TIP3    H247500   8.003   5.194   6.855 -1.2439 -1.9166 -2.0389
15860TIP3   OH247501   5.627   6.377   4.884 -0.2041  0.0591  0.6458
15860TIP3    H147502   5.543   6.335   4.868  0.0380  0.0983 -0.9010
15860TIP3    H247503   5.689   6.326   4.832  0.3355  1.3933 -0.0688
15861TIP3   OH247504   6.404   5.069   6.516 -0.5547 -0.2417  0.2454
15861TIP3    H147505   6.397   4.995   6.577 -0.8061  0.4114  1.0057
15861TIP3    H247506   6.346   5.045   6.443 -0.3638 -0.9514  0.3215
15862TIP3   OH247507   7.542   3.486   3.910 -0.3987 -0.6127 -0.1659
15862TIP3    H147508   7.553   3.434   3.990  0.8294 -2.2816 -1.4010
15862TIP3    H247509   7.622   3.538   3.904 -0.3001 -0.8114 -0.5463
15863TIP3   OH247510   4.551   0.036  -0.016  0.2955 -0.0223 -0.5205
15863TIP3    H147511   4.497   0.107   0.018 -1.7059 -1.4426 -0.6701
15863TIP3    H247512   4.559  -0.026   0.057  4.0222  1.3700  0.4116
15864TIP3   OH247513   5.069   7.196   6.147  0.1454  0.1466 -0.1989
15864TIP3    H147514   5.009   7.256   6.192  1.3245  0.2844  1.2244
15864TIP3    H247515   5.077   7.122   6.206 -0.5542 -1.0034 -1.5235
15865TIP3   OH247516   2.719   3.116   0.064 -0.0881 -0.2685  0.0987
15865TIP3    H147517   2.755   3.151   0.146  0.5320  0.6541 -0.5687
15865TIP3    H247518   2.772   3.039   0.046 -1.0900 -1.2598  1.2695
15866TIP3   OH247519   4.450   6.297   7.206  0.3195 -0.7896 -0.2867
15866TIP3    H147520   4.462   6.204   7.225  1.5964 -0.3650  1.0929
15866TIP3    H247521   4.538   6.330   7.189  0.3266  0.8699  2.6700
15867TIP3   OH247522   3.778   1.054   1.125 -0.1793  0.4579  0.0939
15867TIP3    H147523   3.833   0.994   1.175 -0.2284  0.9413  0.7341
15867TIP3    H247524   3.715   1.088   1.189  0.4890  1.9558 -0.0217
15868TIP3   OH247525   5.680   7.462   5.495  0.5226  0.0810 -0.6450
15868TIP3    H147526   5.584   7.465   5.496  0.5162 -0.2595  0.3284
15868TIP3    H247527   5.705   7.471   5.587  1.3975 -0.6551 -0.8044
15869TIP3   OH247528   3.832   0.895   0.390  0.2434  0.1505  0.1635
15869TIP3    H147529   3.816   0.804   0.365  0.6357  0.0750  0.1868
15869TIP3    H247530   3.784   0.906   0.472 -0.3741  0.1657 -0.1969
15870TIP3   OH247531   2.583   2.647   0.920  0.3600  0.1895 -0.1193
15870TIP3    H147532   2.499   2.601   0.915  0.3932  0.2528 -1.3465
15870TIP3    H247533   2.647   2.582   0.893  0.9653 -0.4704  2.7104
15871TIP3   OH247534   6.420   6.816   7.288  0.7552  0.6309 -0.1577
15871TIP3    H147535   6.379   6.786   7.207  0.7943  0.1278  0.0061
15871TIP3    H247536   6.514   6.816   7.269  0.7947  0.0992  0.0188
15872TIP3   OH247537   3.609   2.410   0.991 -0.0472  0.0044 -0.3954
15872TIP3    H147538   3.673   2.408   1.062  1.0497 -0.6867 -1.3916
15872TIP3    H247539   3.658   2.382   0.914 -0.9374  1.8564 -1.6694
15873TIP3   OH247540   6.663   3.869   4.956  0.3443  0.8145  0.2003
15873TIP3    H147541   6.751   3.856   4.920 -0.0021 -0.3727 -0.2470
15873TIP3    H247542   6.623   3.782   4.952 -0.7320  1.2813  0.7240
15874TIP3   OH247543   3.974   3.253   0.228  0.5999  0.0194 -0.3621
15874TIP3    H147544   3.924   3.285   0.153  0.0588  0.4127  0.1606
15874TIP3    H247545   4.066   3.267   0.204  0.4034  0.9468 -0.5949
15875TIP3   OH247546   2.286   1.552   1.291  0.0102  0.4689  0.1163
15875TIP3    H147547   2.360   1.524   1.237 -0.2201  2.1385 -1.0954
15875TIP3    H247548   2.210   1.507   1.253  0.0267  0.7264 -0.2250
15876TIP3   OH247549   5.048   5.147   6.765 -0.1717 -0.0811  0.0129
15876TIP3    H147550   5.090   5.109   6.843  0.1045  0.9818  0.3817
15876TIP3    H247551   4.956   5.159   6.791  0.2527  1.7731  0.7419
15877TIP3   OH247552   5.549   7.185   6.206  0.1467 -0.0919  0.2909
15877TIP3    H147553   5.612   7.163   6.274  0.2582  0.3639  0.3401
15877TIP3    H247554   5.600   7.235   6.142 -0.1946  0.4004  0.4007
15878TIP3   OH247555   5.701   7.058   5.779  0.2666  0.2671  0.3799
15878TIP3    H147556   5.691   6.997   5.851  0.4943 -0.8832 -0.5592
15878TIP3    H247557   5.794   7.081   5.779  0.4004 -0.2574  0.0418
15879TIP3   OH247558   7.419   6.093   6.748  0.3569 -0.1559  0.1535
15879TIP3    H147559   7.350   6.137   6.699  1.5675  0.0555 -1.3647
15879TIP3    H247560   7.455   6.161   6.806  1.3892  0.5503 -1.2993
15880TIP3   OH247561   6.836   4.216   7.000 -0.1634 -0.5540 -0.0748
15880TIP3    H147562   6.750   4.178   7.016  0.8547 -2.5135  0.9863
15880TIP3    H247563   6.897   4.151   7.036  1.7084  1.2154 -0.0147
15881TIP3   OH247564   5.761   2.203   0.705  0.4331 -0.1627  0.4017
15881TIP3    H147565   5.828   2.156   0.657  0.3207 -1.1797  1.2321
15881TIP3    H247566   5.786   2.195   0.797 -0.3344  0.2098  0.6512
15882TIP3   OH247567   2.677   1.250   2.123 -0.2794  0.4165  0.6544
15882TIP3    H147568   2.631   1.268   2.042  0.1172 -1.4106 -0.0150
15882TIP3    H247569   2.729   1.328   2.140 -1.2640  1.2758 -0.2059
15883TIP3   OH247570   5.858   6.556   7.189 -0.0793 -0.2870  0.8378
15883TIP3    H147571   5.923   6.512   7.243 -0.3437  0.8754  2.1318
15883TIP3    H247572   5.786   6.576   7.249  0.9664  3.9175  0.8592
15884TIP3   OH247573   7.154   2.245   5.930  0.1233  0.3313  0.3842
15884TIP3    H147574   7.144   2.197   5.848 -3.0401  2.4426 -0.6020
15884TIP3    H247575   7.151   2.337   5.904  1.5355  1.0582  2.6522
15885TIP3   OH247576   3.926   2.173   2.791 -0.2245 -0.4678 -0.0805
15885TIP3    H147577   3.904   2.138   2.705  0.1039 -0.0520 -0.3358
15885TIP3    H247578   3.883   2.258   2.794 -1.5287 -1.1470  0.7769
15886TIP3   OH247579   5.737   6.786   5.687  0.1004 -0.1253 -0.2990
15886TIP3    H147580   5.714   6.879   5.676  1.8328  0.2402 -1.0330
15886TIP3    H247581   5.819   6.776   5.639  0.8635 -1.6377  1.2611
15887TIP3   OH247582   4.439   0.065   1.747  0.1429 -0.9899 -0.4644
15887TIP3    H147583   4.524   0.034   1.779 -1.3526 -0.3722  4.6255
15887TIP3    H247584   4.446   0.160   1.745  0.4170 -1.0447 -2.7325
15888TIP3   OH247585   7.355   8.047   1.744  0.0146 -0.0395 -0.4647
15888TIP3    H147586   7.261   8.054   1.731 -0.1771  1.0807  1.4158
15888TIP3    H247587   7.366   8.033   1.838  1.6457 -2.0822 -0.9242
15889TIP3   OH247588   2.248   2.458   2.353  0.7377 -0.3691 -0.2015
15889TIP3    H147589   2.192   2.451   2.430 -0.6753  0.7522 -1.0948
15889TIP3    H247590   2.301   2.379   2.353 -0.5992 -1.2688  0.8729
15890TIP3   OH247591   6.503   5.050   5.686 -0.0228  0.1606 -0.5292
15890TIP3    H147592   6.483   4.982   5.621 -0.3997 -0.0687 -0.1793
15890TIP3    H247593   6.566   5.008   5.745 -0.8196 -0.1357  0.1159
15891TIP3   OH247594   4.692   0.551   2.063  0.4191  0.4301  0.6222
15891TIP3    H147595   4.623   0.496   2.025 -0.8590  0.6678  2.5338
15891TIP3    H247596   4.690   0.632   2.013 -0.3845  0.2584  0.3844
15892TIP3   OH247597   3.315   3.157   0.490  0.0428  0.3765  0.1043
15892TIP3    H147598   3.410   3.151   0.479  0.2650  1.4760  1.3113
15892TIP3    H247599   3.296   3.250   0.483 -0.9030  0.2062  0.3344
15893TIP3   OH247600   4.190   2.693   1.380 -0.3589  0.0844  0.2293
15893TIP3    H147601   4.160   2.774   1.339 -2.0139  0.3051  1.7989
15893TIP3    H247602   4.175   2.626   1.314 -0.9486  0.7482 -0.3215
15894TIP3   OH247603   6.245   6.108   6.542 -0.3521  0.7138  0.2061
15894TIP3    H147604   6.219   6.178   6.602 -0.6117  0.7977 -0.0070
15894TIP3    H247605   6.318   6.065   6.587 -2.4181 -1.1248  1.9658
15895TIP3   OH247606   2.708   3.707   7.129  0.1819  0.3376 -0.3849
15895TIP3    H147607   2.708   3.793   7.087  0.7939  0.0698 -0.9228
15895TIP3    H247608   2.775   3.657   7.083  0.1102 -0.3000  0.1983
15896TIP3   OH247609   3.484   1.467   0.142  0.3979 -0.3933 -0.3181
15896TIP3    H147610   3.420   1.468   0.071 -0.4527  1.0442  0.4350
15896TIP3    H247611   3.432   1.476   0.221  1.4598 -0.1461  0.3631
15897TIP3   OH247612   8.114   3.600   6.194 -0.4189 -0.3786 -0.2309
15897TIP3    H147613   8.075   3.653   6.123 -0.7970 -0.5694 -0.1669
15897TIP3    H247614   8.187   3.653   6.225  0.7730 -1.0359 -1.8745
15898TIP3   OH247615   6.598   4.140   7.093 -0.2814 -0.5074 -0.6954
15898TIP3    H147616   6.529   4.154   7.029  0.1685 -0.3480 -1.1503
15898TIP3    H247617   6.573   4.061   7.140  0.1631 -1.5009 -2.0995
15899TIP3   OH247618   3.100   3.066   0.104 -0.3665  0.4819 -0.0956
15899TIP3    H147619   3.095   3.001   0.174 -0.5338 -0.3721 -0.8878
15899TIP3    H247620   3.125   3.147   0.148  1.2086 -0.4208  0.7137
15900TIP3   OH247621   8.432   5.076   6.179 -0.1810 -0.0587  0.0887
15900TIP3    H147622   8.476   5.161   6.172 -0.0878 -0.0952  0.2085
15900TIP3    H247623   8.404   5.071   6.270  0.7182 -0.5895  0.3467
15901TIP3   OH247624   6.496   6.331   5.442  0.2870  0.2107  0.1230
15901TIP3    H147625   6.575   6.341   5.495  0.0174 -0.3857  0.6524
15901TIP3    H247626   6.460   6.419   5.435  0.0507  0.2205  1.3666
15902TIP3   OH247627   8.472   8.002   2.031 -0.3062  0.0821 -0.3436
15902TIP3    H147628   8.406   8.060   1.993  1.1420  1.8497 -0.2476
15902TIP3    H247629   8.548   8.058   2.044  1.8486 -2.3411 -2.1513
15903TIP3   OH247630   4.008   2.547   0.392 -0.1500 -0.1222  0.3070
15903TIP3    H147631   4.079   2.499   0.349 -0.6897 -0.2374 -0.4725
15903TIP3    H247632   4.021   2.532   0.486  0.5635 -0.5494  0.1376
15904TIP3   OH247633   0.669   8.044   0.998 -0.4889  0.0377 -0.4266
15904TIP3    H147634   0.640   7.963   1.039 -0.6102  0.0428 -0.5026
15904TIP3    H247635   0.763   8.047   1.014 -0.7287  0.6798  0.9898
15905TIP3   OH247636   0.449   4.808   6.700  0.0623  0.6675 -0.2721
15905TIP3    H147637   0.456   4.747   6.627  0.3739  0.0030  0.3056
15905TIP3    H247638   0.540   4.821   6.729 -0.1239  0.3489  0.4692
15906TIP3   OH247639   6.220   6.215   5.397 -0.4432 -0.7160 -0.2560
15906TIP3    H147640   6.223   6.190   5.490 -0.7497  1.6474  0.4190
15906TIP3    H247641   6.300   6.266   5.383 -1.1138  0.1803 -0.9068
15907TIP3   OH247642   4.444   1.766   0.999 -0.2555 -0.2465 -0.2494
15907TIP3    H147643   4.460   1.762   0.904  0.5929 -1.2956 -0.0700
15907TIP3    H247644   4.404   1.682   1.020  0.5033 -0.4292  0.4901
15908TIP3   OH247645   7.893   5.488   6.989 -0.3760 -0.4144 -0.2472
15908TIP3    H147646   7.899   5.402   6.946 -0.3534 -0.5918  0.1075
15908TIP3    H247647   7.838   5.540   6.931  0.1624 -0.4594 -0.8009
15909TIP3   OH247648   4.144   0.259   0.529 -0.3213  0.5600  0.3114
15909TIP3    H147649   4.108   0.180   0.488  0.5456  0.2552  0.1327
15909TIP3    H247650   4.070   0.297   0.576 -1.1461  0.5258 -0.9481
15910TIP3   OH247651   4.520   0.935   2.130 -0.3576  0.2265 -1.1697
15910TIP3    H147652   4.492   1.013   2.082  0.6730 -0.0911 -2.3463
15910TIP3    H247653   4.571   0.885   2.065  3.1366  0.9307  0.9009
15911TIP3   OH247654   7.568   0.641   6.819 -0.0320  0.7332 -0.0014
15911TIP3    H147655   7.621   0.581   6.766 -0.3417  0.2209  0.2647
15911TIP3    H247656   7.548   0.714   6.760 -0.1873  0.2714 -0.5201
15912TIP3   OH247657   6.546   7.662   6.864 -0.2242  0.0841  0.5801
15912TIP3    H147658   6.491   7.686   6.789  1.4409  1.3388 -0.2600
15912TIP3    H247659   6.608   7.599   6.828  0.8372  0.9979  0.8108
15913TIP3   OH247660   5.891   5.517   6.755  0.1580  0.3247  0.2282
15913TIP3    H147661   5.871   5.595   6.704  0.3277  0.6613  0.6737
15913TIP3    H247662   5.976   5.536   6.796  0.2794 -0.1561  0.2053
15914TIP3   OH247663   2.850   0.544   0.958 -0.0030  1.0471  0.9262
15914TIP3    H147664   2.827   0.637   0.963 -2.3261  0.4001  3.0035
15914TIP3    H247665   2.907   0.529   1.033  0.8354  0.9109  0.2667
15915TIP3   OH247666   8.419   4.886   6.694  0.6051  0.0454 -0.3280
15915TIP3    H147667   8.488   4.820   6.686  0.1176 -0.4746 -0.2405
15915TIP3    H247668   8.338   4.836   6.694  0.2228  0.6623 -0.4739
15916TIP3   OH247669   7.736   5.878   6.660 -0.6541  0.1921  0.1886
15916TIP3    H147670   7.738   5.956   6.716 -0.2622  2.1070 -2.3614
15916TIP3    H247671   7.825   5.871   6.627 -1.2354  0.0514 -1.3981
15917TIP3   OH247672   4.082   1.925   0.078 -0.5380 -0.1300  0.4041
15917TIP3    H147673   4.016   1.855   0.082 -1.0569  0.4005  1.2005
15917TIP3    H247674   4.153   1.888   0.025 -1.8639 -0.3828 -1.2433
15918TIP3   OH247675   2.907   0.651   0.014  0.0067 -0.2233  0.1636
15918TIP3    H147676   2.856   0.714   0.066  0.3689 -0.1086  0.3802
15918TIP3    H247677   2.868   0.655  -0.073 -2.0936 -2.0472  0.9720
15919TIP3   OH247678   2.926   1.552   1.710 -0.2021 -0.4736  0.2208
15919TIP3    H147679   2.961   1.592   1.630  2.5027  0.3846  1.7649
15919TIP3    H247680   2.884   1.624   1.756 -0.5043 -0.6633  0.2415
15920TIP3   OH247681   5.897   5.608   7.093 -0.0101 -0.2143  0.4761
15920TIP3    H147682   5.992   5.613   7.089 -0.0361 -0.2364 -0.3097
15920TIP3    H247683   5.878   5.533   7.149  0.4554 -2.1789 -1.9149
15921TIP3   OH247684   5.824   7.095   7.252  0.0700 -0.2952 -0.3823
15921TIP3    H147685   5.913   7.106   7.220  0.5277 -2.5140  0.0324
15921TIP3    H247686   5.785   7.030   7.192 -1.4087  0.9537 -0.8154
15922TIP3   OH247687   4.145   2.483   1.951  0.3711  0.4368 -0.2577
15922TIP3    H147688   4.205   2.550   1.983  0.1508 -0.4986  2.1937
15922TIP3    H247689   4.076   2.479   2.016 -0.8947 -0.4889 -1.6114
15923TIP3   OH247690   4.886   0.670   0.424  0.9554 -0.1713  0.4694
15923TIP3    H147691   4.877   0.579   0.453  0.5343  0.3983  2.1977
15923TIP3    H247692   4.853   0.721   0.498 -1.5832  1.3028 -1.5867
15924TIP3   OH247693   5.760   5.369   5.825 -0.5330 -0.4501 -0.2619
15924TIP3    H147694   5.756   5.424   5.746  1.5070  0.4307  0.2070
15924TIP3    H247695   5.779   5.281   5.792  0.4003 -0.0654 -0.7508
15925TIP3   OH247696   6.990   6.082   6.090  0.0088  1.2009  0.2093
15925TIP3    H147697   6.992   5.999   6.137  0.9910 -0.1855 -2.1910
15925TIP3    H247698   7.052   6.138   6.138  1.7350 -0.4988  0.0376
15926TIP3   OH247699   4.141   1.299   0.190  0.3675  0.4871 -0.0686
15926TIP3    H147700   4.195   1.264   0.118  1.8132  1.1639  0.6600
15926TIP3    H247701   4.082   1.228   0.212 -0.5877  0.5049 -2.4096
15927TIP3   OH247702   6.542   6.991   6.003  0.4365  0.6273  0.3778
15927TIP3    H147703   6.464   7.008   5.950 -0.3548 -0.5785  1.1348
15927TIP3    H247704   6.543   6.896   6.014  1.9314  0.6547  0.5148
15928TIP3   OH247705   7.035   6.123   6.886 -0.2367 -0.1438 -0.5666
15928TIP3    H147706   7.045   6.028   6.883  2.4241 -0.0141  1.3887
15928TIP3    H247707   6.974   6.139   6.958  2.1274 -0.3012  1.5324
15929TIP3   OH247708   6.141   4.591   4.431 -0.1312 -0.2954  0.5766
15929TIP3    H147709   6.108   4.579   4.519 -2.3842 -1.3856 -0.3720
15929TIP3    H247710   6.102   4.520   4.380  2.1284 -0.4483 -1.0450
15930TIP3   OH247711   7.074   6.920   5.778 -0.1028 -0.0677 -0.1357
15930TIP3    H147712   7.036   6.994   5.730 -2.0095 -0.3869  0.8262
15930TIP3    H247713   7.152   6.896   5.728 -1.4061  0.3574 -2.4330
15931TIP3   OH247714   7.249   5.784   5.936 -0.5915 -0.0466 -0.0434
15931TIP3    H147715   7.208   5.698   5.935  0.1629 -0.4060 -0.5665
15931TIP3    H247716   7.185   5.842   5.895 -2.1447  0.1519  2.5130
15932TIP3   OH247717   6.794   5.775   6.773 -0.1279 -0.0896  0.4912
15932TIP3    H147718   6.703   5.744   6.774 -0.6288  1.2864  0.1194
15932TIP3    H247719   6.828   5.752   6.859 -0.9878 -0.1954  0.8120
15933TIP3   OH247720   1.761   8.195   0.006 -0.1257  0.3238  0.4604
15933TIP3    H147721   1.800   8.109   0.021  0.4654  0.5311  0.1289
15933TIP3    H247722   1.805   8.253   0.068  0.3916  0.6414 -0.1945
15934TIP3   OH247723   6.033   6.185   6.373 -0.3786  0.6207  0.6849
15934TIP3    H147724   6.054   6.269   6.332  0.8579 -0.5118 -1.0706
15934TIP3    H247725   6.116   6.156   6.412  0.5378 -2.1076 -3.0405
15935TIP3   OH247726   5.428   5.831   5.977 -0.3027  0.2757  0.0218
15935TIP3    H147727   5.512   5.837   5.933 -0.1221 -1.0804  0.1591
15935TIP3    H247728   5.440   5.762   6.042 -1.4090  0.3211  0.2845
15936TIP3   OH247729   7.126   4.970   6.602 -0.2878  0.2617  0.4651
15936TIP3    H147730   7.062   5.028   6.643  0.5274  2.5774 -1.4283
15936TIP3    H247731   7.211   5.005   6.630  0.1996 -0.2060 -0.4138
15937TIP3   OH247732   7.951   7.875   3.852  0.3447 -0.2330  0.3414
15937TIP3    H147733   7.864   7.842   3.832  0.5363 -0.0763 -0.7847
15937TIP3    H247734   7.983   7.911   3.769  0.7733  1.3230  1.1575
15938TIP3   OH247735   6.484   5.704   5.259  0.3219  0.4561  0.1826
15938TIP3    H147736   6.460   5.634   5.319  0.3441  0.6644  0.4314
15938TIP3    H247737   6.401   5.741   5.230  0.3356  1.0031  0.8412
15939TIP3   OH247738   8.352   7.097   4.764  0.4316 -0.5120 -0.3354
15939TIP3    H147739   8.367   7.137   4.678  1.4322  2.4287  1.1707
15939TIP3    H247740   8.439   7.091   4.803 -0.1079 -1.1815  0.7763
15940TIP3   OH247741   7.086   4.175   4.577 -0.1223 -0.3182  0.1977
15940TIP3    H147742   7.011   4.159   4.635  0.0614  1.4930  0.9750
15940TIP3    H247743   7.154   4.116   4.610 -0.3553 -0.0504  1.1857
15941TIP3   OH247744   7.697   7.176   4.651  0.2798 -0.4174  0.6282
15941TIP3    H147745   7.775   7.202   4.700  1.3675 -2.4500  0.0630
15941TIP3    H247746   7.727   7.169   4.560 -0.5255 -1.3261  0.4219
15942TIP3   OH247747   4.041   2.189   1.105 -0.4417 -0.5251  0.1279
15942TIP3    H147748   4.098   2.239   1.046 -0.3367 -0.2828  0.4361
15942TIP3    H247749   4.102   2.137   1.158 -0.4996 -0.0778  0.6282
15943TIP3   OH247750   4.230   0.680   0.356 -0.0959  0.9982  0.1358
15943TIP3    H147751   4.238   0.669   0.262  0.8852  0.2218  0.3004
15943TIP3    H247752   4.222   0.592   0.391 -3.2723  1.3944  0.5794
15944TIP3   OH247753   6.857   5.040   6.313  0.3751  0.4285  0.1960
15944TIP3    H147754   6.929   5.080   6.362  0.5527  3.4782 -2.4489
15944TIP3    H247755   6.779   5.088   6.340  0.0429  0.2590 -0.4494
15945TIP3   OH247756   6.595   5.725   4.996 -0.4572  0.3229 -0.6581
15945TIP3    H147757   6.583   5.806   4.946 -0.9888  0.4106 -0.3863
15945TIP3    H247758   6.547   5.739   5.078  1.8061  0.8408  0.6193
15946TIP3   OH247759   3.605   2.454   2.938  0.1795  0.1388  0.0130
15946TIP3    H147760   3.675   2.480   2.997 -0.1095  3.5316 -0.9762
15946TIP3    H247761   3.526   2.492   2.977 -0.7188 -1.4861 -0.1903
15947TIP3   OH247762   6.034   6.331   2.226 -0.7305 -0.2682  0.6248
15947TIP3    H147763   6.096   6.403   2.222  0.3155 -1.2404 -2.0991
15947TIP3    H247764   6.088   6.253   2.243 -1.5827 -0.6991  1.4130
15948TIP3   OH247765   6.353   7.307   5.260  0.7920  0.0620  0.3776
15948TIP3    H147766   6.412   7.314   5.185  0.9336  0.9712  0.5725
15948TIP3    H247767   6.293   7.236   5.237  0.9090  0.2591 -0.5478
15949TIP3   OH247768   1.931   3.041   3.227 -0.0353  0.5391  0.0625
15949TIP3    H147769   1.845   2.998   3.227 -1.3544  3.0572 -0.8186
15949TIP3    H247770   1.944   3.069   3.317 -0.0581  0.0042  0.2338
15950TIP3   OH247771   5.611   5.934   6.468  0.0204 -0.1789  0.1359
15950TIP3    H147772   5.673   5.983   6.414 -0.2457 -0.0949 -0.0926
15950TIP3    H247773   5.559   5.883   6.406  0.6945 -1.2188  0.4156
15951TIP3   OH247774   4.875   1.934   0.314 -0.4393  0.1784 -0.1429
15951TIP3    H147775   4.790   1.895   0.335 -0.2038  0.3333  1.1252
15951TIP3    H247776   4.922   1.866   0.268 -1.6178  0.4188 -1.7395
15952TIP3   OH247777   7.391   5.431   5.022  0.4857 -0.2214  0.0502
15952TIP3    H147778   7.393   5.464   4.932 -0.5217 -0.0017  0.1027
15952TIP3    H247779   7.381   5.509   5.076 -1.4794 -0.5446  0.1984
15953TIP3   OH247780   6.303   5.245   5.754 -0.2581 -0.3021 -0.4946
15953TIP3    H147781   6.372   5.180   5.745  0.3194  0.2943 -0.4680
15953TIP3    H247782   6.223   5.200   5.726  0.4894 -0.3705 -2.6503
15954TIP3   OH247783   2.611   0.903   0.625 -0.0374  0.6331 -0.0992
15954TIP3    H147784   2.654   0.871   0.546 -0.0225  0.9820 -0.2361
15954TIP3    H247785   2.665   0.976   0.654  0.8253 -0.4901  1.1297
15955TIP3   OH247786   6.384   7.422   6.005 -0.2530  0.1718  0.2640
15955TIP3    H147787   6.396   7.335   6.044  1.5845  0.7074  0.9248
15955TIP3    H247788   6.291   7.441   6.018 -0.3690 -1.0776  1.4014
15956TIP3   OH247789   5.504   6.567   6.166  0.2594 -0.3059  0.4546
15956TIP3    H147790   5.410   6.553   6.172  0.3761 -0.6237  1.7365
15956TIP3    H247791   5.539   6.487   6.128  0.0928 -0.4962  0.7026
15957TIP3   OH247792   6.001   5.682   4.365  0.5491 -0.1473 -0.4075
15957TIP3    H147793   6.042   5.720   4.287  2.0886 -0.8090  0.0571
15957TIP3    H247794   6.058   5.609   4.389  0.4090  0.3985  1.6549
15958TIP3   OH247795   5.984   5.331   4.445 -0.1154  0.3073 -0.1710
15958TIP3    H147796   6.027   5.281   4.376 -0.8317  0.9455 -1.1064
15958TIP3    H247797   5.894   5.297   4.446  0.3984 -1.0865  1.8260
15959TIP3   OH247798   6.584   3.740   6.264 -0.5151 -0.1746  0.4771
15959TIP3    H147799   6.659   3.743   6.205 -0.6748  1.5409  0.3247
15959TIP3    H247800   6.568   3.647   6.278  0.2316 -0.5965 -1.2844
15960TIP3   OH247801   6.092   6.910   6.294 -0.7049  0.0434 -0.0857
15960TIP3    H147802   6.082   6.990   6.243  0.8091 -0.0870 -0.6344
15960TIP3    H247803   6.063   6.840   6.234 -1.6208  0.1353  0.2441
15961TIP3   OH247804   2.544   1.937   0.088  0.5190  0.0516  0.4510
15961TIP3    H147805   2.574   1.953   0.178  1.3213  0.4830  0.1130
15961TIP3    H247806   2.550   1.842   0.077  0.0012 -0.0529  0.9882
15962TIP3   OH247807   5.785   4.971   6.259  0.0835 -0.1912  0.3042
15962TIP3    H147808   5.755   5.004   6.344 -1.0959 -0.0898 -0.1301
15962TIP3    H247809   5.821   5.048   6.215  2.6245 -0.6454  1.4921
15963TIP3   OH247810   4.034   1.644   0.975  0.0770 -0.2029  0.3291
15963TIP3    H147811   4.036   1.736   1.003  0.0009  0.2596 -1.1795
15963TIP3    H247812   4.121   1.611   0.998 -0.1650  0.0081  1.6128
15964TIP3   OH247813   4.382   2.869   0.072 -0.1373  0.3130 -0.4537
15964TIP3    H147814   4.374   2.777   0.098  1.4931  0.5418  0.8726
15964TIP3    H247815   4.291   2.896   0.056 -0.8022 -1.0343  0.8522
15965TIP3   OH247816   4.307   1.517   1.001 -0.3247 -0.3452 -0.5210
15965TIP3    H147817   4.246   1.444   1.008 -3.2538  2.1927  1.9808
15965TIP3    H247818   4.347   1.523   1.088  1.8785 -0.5972 -1.4904
15966TIP3   OH247819   7.060   4.871   6.189 -0.3241 -0.4164  0.2585
15966TIP3    H147820   7.147   4.911   6.194 -0.2111 -0.7808  1.2967
15966TIP3    H247821   7.001   4.938   6.223 -0.4742 -0.1227 -0.5618
15967TIP3   OH247822   3.199   3.276   0.755 -0.1523 -0.2185  0.2935
15967TIP3    H147823   3.292   3.270   0.733 -0.3827  0.1911 -0.8186
15967TIP3    H247824   3.192   3.233   0.840  0.7928 -1.6541 -0.3296
15968TIP3   OH247825   4.186   1.421   3.274  0.6824 -0.1112  0.0021
15968TIP3    H147826   4.102   1.458   3.301  0.4032  0.2983 -1.3522
15968TIP3    H247827   4.165   1.367   3.197  1.5449 -0.6398  0.1200
15969TIP3   OH247828   5.150   1.897   0.798 -0.0883 -0.0436 -0.1867
15969TIP3    H147829   5.119   1.910   0.887  1.7479  0.3551  0.4153
15969TIP3    H247830   5.074   1.865   0.750 -1.4837  1.2064  1.1693
15970TIP3   OH247831   3.130   2.200   0.894 -0.4886 -1.2848  0.3764
15970TIP3    H147832   3.213   2.227   0.934 -0.0338 -0.3448 -1.1698
15970TIP3    H247833   3.130   2.105   0.901  1.2042 -1.3680 -0.5326
15971TIP3   OH247834   6.292   3.545   4.893 -0.0042 -0.3162  0.1162
15971TIP3    H147835   6.256   3.547   4.982  0.4775 -3.4374  0.4373
15971TIP3    H247836   6.215   3.540   4.836 -0.2625 -0.2166  0.4549
15972TIP3   OH247837   6.316   5.559   6.215  0.7859 -0.6440 -0.1044
15972TIP3    H147838   6.337   5.536   6.124  0.9723  0.9848 -0.4878
15972TIP3    H247839   6.355   5.489   6.267  0.7014 -1.5778 -1.2765
15973TIP3   OH247840   6.962   6.873   7.059  0.2577 -0.0536 -0.1793
15973TIP3    H147841   6.957   6.782   7.087  0.5365  0.0475  0.2057
15973TIP3    H247842   7.048   6.881   7.018 -0.4739 -0.4045 -1.8094
15974TIP3   OH247843   5.728   6.780   4.417 -0.3537  0.4450  0.0064
15974TIP3    H147844   5.765   6.810   4.500 -1.7046 -0.2019  0.8614
15974TIP3    H247845   5.804   6.756   4.364  0.5787  2.0286  0.5991
15975TIP3   OH247846   8.782   5.373   4.213  0.1586  0.5087 -0.2304
15975TIP3    H147847   8.758   5.301   4.271  1.2887  1.3801  1.3650
15975TIP3    H247848   8.798   5.332   4.128 -0.1352 -0.9846  0.4320
15976TIP3   OH247849   8.675   5.041   5.884  0.2231 -0.1334 -0.2924
15976TIP3    H147850   8.614   5.110   5.909  0.5905  1.1014 -2.6672
15976TIP3    H247851   8.620   4.971   5.850 -0.1129 -0.8314  1.6102
15977TIP3   OH247852   5.430   3.850   4.174  0.3261 -0.6890  0.3481
15977TIP3    H147853   5.490   3.870   4.102  1.5046  0.1657  1.5447
15977TIP3    H247854   5.348   3.894   4.151  1.4019  1.4961  0.6340
15978TIP3   OH247855   6.130   4.846   5.800 -0.5408 -0.1489 -0.1962
15978TIP3    H147856   6.168   4.768   5.839  2.2599  0.9163 -0.6736
15978TIP3    H247857   6.120   4.908   5.873 -1.3199 -0.4035 -0.0830
15979TIP3   OH247858   7.280   4.108   6.587  0.2855  0.1597  0.0610
15979TIP3    H147859   7.195   4.145   6.567 -0.1361 -0.7571  0.1538
15979TIP3    H247860   7.282   4.103   6.683  1.2862  2.1457  0.1783
15980TIP3   OH247861   6.253   5.715   5.114  0.2187 -0.0263  0.2769
15980TIP3    H147862   6.177   5.773   5.118  0.2342 -0.0623  1.0996
15980TIP3    H247863   6.217   5.628   5.126 -0.0230 -0.3799 -2.6725
15981TIP3   OH247864   7.676   5.639   6.881 -0.0874 -0.0169 -0.2071
15981TIP3    H147865   7.707   5.677   6.798  0.2469  0.4438  0.1249
15981TIP3    H247866   7.585   5.616   6.864  0.3185 -1.0377 -1.0776
15982TIP3   OH247867   5.529   5.253   5.177 -0.1010  0.4682 -0.6993
15982TIP3    H147868   5.488   5.329   5.218  1.3715  0.5652  0.6243
15982TIP3    H247869   5.623   5.271   5.181  0.1899 -0.6881 -1.8457
15983TIP3   OH247870   4.574   6.357   6.012 -0.0338  0.0665  0.5628
15983TIP3    H147871   4.544   6.420   5.947 -0.0750  0.2595  0.7683
15983TIP3    H247872   4.508   6.360   6.082 -0.6347 -1.0203  0.0609
15984TIP3   OH247873   5.893   6.652   6.699 -0.1901 -0.0334  0.0957
15984TIP3    H147874   5.837   6.710   6.647 -0.8659  0.8449  1.7471
15984TIP3    H247875   5.887   6.688   6.788  0.6939 -1.6788  0.8281
15985TIP3   OH247876   6.812   7.042   6.810  0.6712  0.4859  0.2717
15985TIP3    H147877   6.822   6.970   6.746 -0.1911 -0.7714  1.5116
15985TIP3    H247878   6.736   7.091   6.778  1.3255  0.9089 -0.6411
15986TIP3   OH247879   6.419   3.859   5.743 -0.0726  0.1855  0.0341
15986TIP3    H147880   6.354   3.789   5.751  0.6158 -0.5827 -1.0366
15986TIP3    H247881   6.498   3.815   5.711  0.2358  1.5269 -1.0877
15987TIP3   OH247882   5.427   4.558   5.899 -0.3691 -0.1889  0.0516
15987TIP3    H147883   5.407   4.476   5.945  0.3315  0.0708  0.8293
15987TIP3    H247884   5.522   4.554   5.884 -0.2339  0.7533  0.6214
15988TIP3   OH247885   6.177   5.667   7.094 -0.6338 -0.0396  0.7821
15988TIP3    H147886   6.253   5.616   7.120  0.2197  0.9572  0.2567
15988TIP3    H247887   6.213   5.746   7.054 -1.9328 -0.1178 -0.5887
15989TIP3   OH247888   6.340   1.757   1.997  0.9526  0.0141 -0.2672
15989TIP3    H147889   6.429   1.769   1.962  1.4744  1.2752  1.4523
15989TIP3    H247890   6.284   1.808   1.938  1.6687  1.0608 -0.0636
15990TIP3   OH247891   5.565   3.431   5.714 -0.2011  0.3042  1.3374
15990TIP3    H147892   5.641   3.429   5.772 -0.0258  0.0326  1.0956
15990TIP3    H247893   5.490   3.421   5.772 -0.0325  0.1897  1.5319
15991TIP3   OH247894   4.939   4.705   6.502 -0.0294 -0.7005  0.0793
15991TIP3    H147895   4.864   4.747   6.461  1.4400  0.3224 -1.6101
15991TIP3    H247896   4.921   4.611   6.495 -1.6962 -0.4506  0.7706
15992TIP3   OH247897   6.893   4.024   5.349 -0.1822  0.1349  0.2563
15992TIP3    H147898   6.938   3.945   5.316 -0.6701  0.6694 -1.7421
15992TIP3    H247899   6.936   4.041   5.433  2.1448 -0.4251 -0.7510
15993TIP3   OH247900   1.013   8.386   2.553 -0.4375  0.0444 -0.2525
15993TIP3    H147901   1.057   8.318   2.501 -0.6445 -0.2655 -0.0259
15993TIP3    H247902   1.006   8.460   2.493 -1.4401 -0.5952 -0.9636
15994TIP3   OH247903   1.328   2.468   0.536 -0.4475  0.4082 -0.3079
15994TIP3    H147904   1.415   2.489   0.570 -0.5823 -1.5809  1.3568
15994TIP3    H247905   1.345   2.422   0.454  0.0697 -0.1570  0.1133
15995TIP3   OH247906   4.540   1.457   1.768 -0.4221 -0.3815  0.5461
15995TIP3    H147907   4.496   1.381   1.804  0.4680 -1.5134 -0.7162
15995TIP3    H247908   4.632   1.434   1.767  0.3252  2.1201  3.5301
15996TIP3   OH247909   7.931   3.983   6.293  0.2567  0.4752 -0.8339
15996TIP3    H147910   7.836   3.994   6.288  0.1120 -0.7807 -1.0046
15996TIP3    H247911   7.948   3.969   6.386 -0.0837 -2.1424 -1.1099
15997TIP3   OH247912   5.987   6.990   6.722  0.5876  0.2675 -0.5020
15997TIP3    H147913   5.946   6.984   6.636  0.3770  0.6004 -0.4225
15997TIP3    H247914   5.940   7.060   6.767  0.0351 -0.5682  0.2416
15998TIP3   OH247915   3.552   1.662   0.463 -1.2431  0.0911 -0.0558
15998TIP3    H147916   3.480   1.685   0.406 -2.2997 -0.0411  1.1986
15998TIP3    H247917   3.576   1.573   0.438 -0.6261  0.6058 -1.3555
15999TIP3   OH247918   4.681   1.562   0.552 -0.5548  0.9212 -0.0106
15999TIP3    H147919   4.674   1.472   0.586 -0.7530  1.1169  0.4805
15999TIP3    H247920   4.629   1.614   0.614 -1.6387  1.1611 -1.1099
16000TIP3   OH247921   3.674   1.986   0.410 -0.5876 -0.0912  0.7185
16000TIP3    H147922   3.704   1.914   0.465  1.2223 -0.7197 -1.0424
16000TIP3    H247923   3.692   2.064   0.462 -1.7006 -0.8174  2.2487
16001TIP3   OH247924   4.785   2.396   0.354  0.5786 -0.3692  0.1060
16001TIP3    H147925   4.825   2.314   0.326  0.0259 -0.9036  0.8729
16001TIP3    H247926   4.829   2.418   0.436  0.2470 -0.2543  0.2536
16002TIP3   OH247927   6.090   6.527   6.554 -0.4378 -0.1480  0.0798
16002TIP3    H147928   6.116   6.447   6.600  1.3631  2.0525  2.9908
16002TIP3    H247929   6.039   6.576   6.618  0.0719  1.8993 -1.0637
16003TIP3   OH247930   7.608   7.265   4.112  0.3209  0.4118  0.8550
16003TIP3    H147931   7.521   7.242   4.079 -0.5095  2.4662  1.4783
16003TIP3    H247932   7.641   7.185   4.151 -0.9482 -0.6198 -0.1264
16004TIP3   OH247933   6.695   5.264   5.369 -0.0460  0.3676  0.1912
16004TIP3    H147934   6.688   5.170   5.383  0.5847  0.5254  1.6946
16004TIP3    H247935   6.771   5.273   5.311 -0.9282 -0.1234 -1.0588
16005TIP3   OH247936   6.885   7.527   7.223 -0.4656  0.1330 -0.2758
16005TIP3    H147937   6.859   7.619   7.217 -1.4454 -0.1464 -0.3770
16005TIP3    H247938   6.934   7.510   7.142 -1.2116  0.2672 -0.7520
16006TIP3   OH247939   0.922   7.729   0.961  0.3630 -0.2689 -1.1406
16006TIP3    H147940   0.907   7.786   0.886 -0.8713  1.9628  0.7519
16006TIP3    H247941   0.905   7.641   0.927 -0.1930  0.6867 -3.4706
16007TIP3   OH247942   6.504   4.661   6.822 -0.1449 -0.0127  0.1247
16007TIP3    H147943   6.433   4.620   6.872 -0.1655  0.8472  0.7929
16007TIP3    H247944   6.557   4.706   6.887 -0.4603  1.5471 -0.6890
16008TIP3   OH247945   7.161   3.288   5.700 -0.2457 -0.1923 -0.6299
16008TIP3    H147946   7.253   3.283   5.676 -0.4800 -1.1233 -1.3925
16008TIP3    H247947   7.151   3.223   5.770 -0.1702  0.4304 -0.0423
16009TIP3   OH247948   3.602   0.555   1.063 -0.1171  0.1196 -0.1345
16009TIP3    H147949   3.630   0.538   1.153  1.4413  1.0532 -0.4106
16009TIP3    H247950   3.516   0.514   1.056  0.9790 -2.4836  0.9158
16010TIP3   OH247951   0.095   4.965   6.544  0.1456  0.0441 -0.4645
16010TIP3    H147952   0.018   4.984   6.490 -0.7038 -0.5559  0.5010
16010TIP3    H247953   0.093   5.031   6.613  0.9280  0.4863 -0.8602
16011TIP3   OH247954   4.537  -0.003   0.775 -0.4370  0.3095 -0.5321
16011TIP3    H147955   4.588   0.012   0.695 -0.0847  0.1018 -0.3450
16011TIP3    H247956   4.562   0.070   0.832  0.5663 -0.4479  0.0194
16012TIP3   OH247957   5.343   4.814   4.749 -0.4040  0.1184  0.0338
16012TIP3    H147958   5.328   4.836   4.840  1.7458  2.2057 -0.0818
16012TIP3    H247959   5.416   4.753   4.750  1.6990  2.5562 -0.4515
16013TIP3   OH247960   7.142   4.442   6.347  0.1886  0.4509 -0.0572
16013TIP3    H147961   7.190   4.499   6.286  0.4817 -0.0706 -0.3205
16013TIP3    H247962   7.058   4.486   6.360  0.8356  1.4938  0.5999
16014TIP3   OH247963   7.918   1.726   5.819 -0.2097  0.2328  0.5905
16014TIP3    H147964   7.978   1.786   5.864  0.3826  0.0473  0.0674
16014TIP3    H247965   7.952   1.723   5.730 -1.0587  0.1839  0.2724
16015TIP3   OH247966   4.852   4.988   6.108  0.3846  0.0706  0.8660
16015TIP3    H147967   4.903   5.002   6.028 -1.4153 -1.1563 -0.5382
16015TIP3    H247968   4.840   4.893   6.113 -1.3002  0.2866  1.4316
16016TIP3   OH247969   2.907   0.547   5.777  0.1527  0.1205  0.2951
16016TIP3    H147970   2.823   0.592   5.767  0.2862  0.2554 -0.2385
16016TIP3    H247971   2.956   0.602   5.838  0.3927  0.8031 -0.5215
16017TIP3   OH247972   5.391   0.589   2.129  0.1356 -0.2319 -0.9886
16017TIP3    H147973   5.375   0.595   2.035 -0.3314  0.1593 -0.8873
16017TIP3    H247974   5.482   0.562   2.136  0.6322  1.2522 -1.5504
16018TIP3   OH247975   2.856   2.031   0.093 -0.0453 -0.0632 -0.1375
16018TIP3    H147976   2.839   1.960   0.031  0.3634 -0.1656 -0.1371
16018TIP3    H247977   2.931   2.077   0.055 -0.2368  0.3004 -0.0789
16019TIP3   OH247978   1.665   2.959   0.911 -0.6512 -0.2059 -0.5018
16019TIP3    H147979   1.689   2.872   0.945 -0.6739 -1.0376 -2.5437
16019TIP3    H247980   1.577   2.947   0.877 -1.4738  1.1802  1.0730
16020TIP3   OH247981   8.640   5.643   7.092 -0.4506 -0.3677  0.3871
16020TIP3    H147982   8.688   5.575   7.045 -1.8516  0.2930 -2.1064
16020TIP3    H247983   8.705   5.710   7.110  0.0761 -0.5314 -0.8436
16021TIP3   OH247984   8.068   7.885   4.344 -0.4422  0.1736 -0.0297
16021TIP3    H147985   8.135   7.923   4.402  0.0221 -0.7480  0.0491
16021TIP3    H247986   8.085   7.791   4.348 -1.2252  0.0116 -0.6677
16022TIP3   OH247987   8.148   2.756   6.105 -0.9034  0.4253 -0.5981
16022TIP3    H147988   8.226   2.740   6.158 -1.2931  1.6287  0.3800
16022TIP3    H247989   8.176   2.742   6.015 -0.0862 -1.1115 -0.1079
16023TIP3   OH247990   6.877   7.053   5.385 -0.2838  0.5906 -0.2589
16023TIP3    H147991   6.791   7.012   5.391 -0.2194  0.2257 -1.6534
16023TIP3    H247992   6.859   7.145   5.363 -0.3990  1.1508  2.0630
16024TIP3   OH247993   4.854   1.627   0.340  0.2501 -0.7109 -0.4077
16024TIP3    H147994   4.786   1.598   0.280  1.1437 -2.2172 -0.7126
16024TIP3    H247995   4.831   1.589   0.424  0.1381 -0.3295 -0.2629
16025TIP3   OH247996   6.703   5.173   4.331 -0.1648 -0.1154  0.0835
16025TIP3    H147997   6.764   5.186   4.404  0.4800  1.3817 -0.6981
16025TIP3    H247998   6.616   5.179   4.372  0.1805  1.6851  0.5795
16026TIP3   OH247999  -0.005   5.024   7.044  0.0076  0.2350 -0.3456
16026TIP3    H148000   0.030   4.937   7.063  0.7470  0.4245 -0.8177
16026TIP3    H248001   0.044   5.053   6.967 -1.9190  0.0669 -1.6808
16027TIP3   OH248002   6.981   5.092   5.850  0.3091 -0.3358 -0.4299
16027TIP3    H148003   6.975   5.143   5.769  1.1804 -0.4942 -0.5980
16027TIP3    H248004   7.027   5.150   5.911 -2.5370  0.7545  0.7475
16028TIP3   OH248005   5.704   6.072   5.366 -0.5037 -0.2428 -0.5826
16028TIP3    H148006   5.686   5.987   5.406  0.6556 -0.3374 -0.2423
16028TIP3    H248007   5.732   6.127   5.438 -1.7691  0.5950 -0.7207
16029TIP3   OH248008   8.405   4.135   4.957 -0.0301  0.0456 -0.0254
16029TIP3    H148009   8.450   4.218   4.966 -0.5617  0.4521 -1.0089
16029TIP3    H248010   8.318   4.158   4.925 -0.4791 -0.8238  0.5430
16030TIP3   OH248011   6.362   4.549   5.694 -0.2006 -0.4900  0.3962
16030TIP3    H148012   6.449   4.578   5.665 -0.7256 -0.3157 -1.0527
16030TIP3    H248013   6.347   4.597   5.776  0.2331  1.0370 -0.3899
16031TIP3   OH248014   7.671   5.259   4.609  0.3191 -0.1014  0.1699
16031TIP3    H148015   7.760   5.226   4.597  1.1390  2.2480 -0.4404
16031TIP3    H248016   7.672   5.297   4.697  0.0817  0.3717 -0.0313
16032TIP3   OH248017   7.253   4.192   5.473 -0.0791 -0.5599  0.4145
16032TIP3    H148018   7.323   4.214   5.534  0.4863 -0.1154 -0.3832
16032TIP3    H248019   7.297   4.146   5.402 -0.4342  0.6484 -0.5939
16033TIP3   OH248020   7.359   2.505   0.133  0.1540 -0.1401  0.3161
16033TIP3    H148021   7.381   2.441   0.064  0.9301 -1.1974  1.5309
16033TIP3    H248022   7.276   2.473   0.169  0.0767  0.0520  0.3083
16034TIP3   OH248023   7.809   5.652   1.141  0.7000 -0.2146 -0.2921
16034TIP3    H148024   7.780   5.660   1.050  1.9316 -0.8191 -0.7634
16034TIP3    H248025   7.806   5.740   1.176  1.4387  0.2327 -1.3233
16035TIP3   OH248026   7.744   6.150   5.810 -0.5091  0.2251  0.4696
16035TIP3    H148027   7.776   6.200   5.885  1.8642 -0.4965 -0.0333
16035TIP3    H248028   7.651   6.138   5.828 -0.9636  3.9935  1.0548
16036TIP3   OH248029   0.226   4.820   6.352 -0.0033  0.2670 -0.5152
16036TIP3    H148030   0.322   4.828   6.345  0.1949 -1.2616  0.1610
16036TIP3    H248031   0.204   4.871   6.430  0.4675 -0.6355  0.2235
16037TIP3   OH248032   7.467   5.788   6.615  0.1236 -0.0318 -0.3688
16037TIP3    H148033   7.436   5.874   6.641  0.8462  0.5175 -1.3123
16037TIP3    H248034   7.562   5.798   6.607  0.1388 -0.7468 -1.1057
16038TIP3   OH248035   8.812   0.208   6.639  0.0363 -0.0777 -0.1279
16038TIP3    H148036   8.813   0.115   6.616 -0.7936 -0.1014 -0.0724
16038TIP3    H248037   8.773   0.252   6.564 -0.9801  0.0502  0.4651
16039TIP3   OH248038   7.554   4.376   6.156 -0.1212  0.4859 -0.3135
16039TIP3    H148039   7.555   4.320   6.078 -0.1980  2.6288 -1.8925
16039TIP3    H248040   7.645   4.400   6.170 -0.2258  0.8770 -0.3021
16040TIP3   OH248041   7.466   7.309   5.360 -0.0003 -0.6721  0.8405
16040TIP3    H148042   7.561   7.321   5.359 -0.1107  0.1926 -0.1773
16040TIP3    H248043   7.452   7.226   5.313  0.2142 -0.5022  0.4710
16041TIP3   OH248044   0.522   3.523   6.719  0.8179  0.0095  0.8053
16041TIP3    H148045   0.459   3.587   6.754  1.0521  1.4598 -1.3335
16041TIP3    H248046   0.538   3.552   6.630  2.3480 -2.0239  0.3910
16042TIP3   OH248047   7.692   5.756   6.381  0.2390 -0.0421  0.0354
16042TIP3    H148048   7.734   5.793   6.458 -1.8504  0.0273  1.1830
16042TIP3    H248049   7.704   5.823   6.313  2.7637 -0.4488  0.0566
16043TIP3   OH248050   4.555   0.038   0.405  0.1950 -0.0142 -0.3769
16043TIP3    H148051   4.646   0.034   0.378  0.4474  1.5356  0.1710
16043TIP3    H248052   4.515   0.102   0.347 -1.1962 -2.5426 -2.3196
16044TIP3   OH248053   0.169   6.114   6.401  0.2647  0.0721 -1.0189
16044TIP3    H148054   0.074   6.127   6.404  0.2937  0.0396 -0.0542
16044TIP3    H248055   0.196   6.157   6.320 -0.3946  1.2339 -0.6283
16045TIP3   OH248056   4.785   2.618   0.724  0.5809  0.1133  0.1007
16045TIP3    H148057   4.792   2.562   0.647  0.0306 -0.6351  0.5910
16045TIP3    H248058   4.871   2.661   0.730  1.5322 -1.7883  0.5588
16046TIP3   OH248059   7.802   3.104   6.796  0.0891  0.3211 -0.3578
16046TIP3    H148060   7.716   3.134   6.825  0.7388 -0.0038  2.0370
16046TIP3    H248061   7.813   3.018   6.836  0.3370 -0.9359 -3.0478
16047TIP3   OH248062   3.167   0.483   5.367 -0.0779  0.2797  0.0343
16047TIP3    H148063   3.247   0.453   5.409 -0.4292 -1.0229 -0.2047
16047TIP3    H248064   3.196   0.531   5.290  0.6151  3.5852  2.2499
16048TIP3   OH248065   0.059   5.515   6.217  0.5470  0.3672  0.5148
16048TIP3    H148066  -0.025   5.490   6.255  0.6064  1.2022  1.1997
16048TIP3    H248067   0.112   5.542   6.291  1.8763 -1.3796  0.2388
16049TIP3   OH248068   6.785   5.484   4.549  0.4030  0.2829  0.1540
16049TIP3    H148069   6.814   5.435   4.471 -1.4439 -0.8291  0.1469
16049TIP3    H248070   6.794   5.421   4.621 -2.7582 -0.3852  0.0201
16050TIP3   OH248071   4.454   1.904   0.301 -1.1202  0.1053  0.4590
16050TIP3    H148072   4.543   1.910   0.265 -0.7467  1.8241  1.5689
16050TIP3    H248073   4.444   1.812   0.325  0.3969 -0.0960  0.3920
16051TIP3   OH248074   6.776   4.206   6.212  0.5364 -0.1886 -0.0001
16051TIP3    H148075   6.796   4.246   6.297 -0.3032 -0.9932  0.5883
16051TIP3    H248076   6.807   4.270   6.148 -1.2037  1.6313  0.9073
16052TIP3   OH248077   7.111   4.620   7.128  0.2574  0.0899 -0.1228
16052TIP3    H148078   7.060   4.613   7.208 -0.7075 -1.2896 -0.8436
16052TIP3    H248079   7.130   4.529   7.103  0.8121  0.5089 -1.2904
16053TIP3   OH248080   2.117   7.279   0.544 -0.2528 -0.6120 -0.1522
16053TIP3    H148081   2.128   7.184   0.542 -1.7539 -0.7952  0.0551
16053TIP3    H248082   2.202   7.312   0.573  0.0917 -1.9232  0.3720
16054TIP3   OH248083   1.895   3.816   6.788  0.2990  0.3404  0.0125
16054TIP3    H148084   1.880   3.877   6.861  0.7080  0.9278 -0.3926
16054TIP3    H248085   1.989   3.801   6.788  0.3002  0.3637 -0.4211
16055TIP3   OH248086   7.806   3.459   6.851 -0.8961  0.1877 -0.8326
16055TIP3    H148087   7.847   3.372   6.845 -1.7455 -0.3643  0.9984
16055TIP3    H248088   7.810   3.493   6.762  0.9849 -1.0242 -1.2436
16056TIP3   OH248089   2.893   2.420   0.305  0.2548 -0.4798  0.3960
16056TIP3    H148090   2.848   2.470   0.236  0.1983 -0.0712  0.7256
16056TIP3    H248091   2.833   2.348   0.325 -0.5009  0.3665  1.2113
16057TIP3   OH248092   7.479   6.655   5.246 -0.0872 -0.2852 -0.1580
16057TIP3    H148093   7.566   6.619   5.232  0.0803  0.5999 -1.3727
16057TIP3    H248094   7.494   6.737   5.293 -0.2147  0.3166 -1.1734
16058TIP3   OH248095   2.616   3.076   5.932  0.0072  0.0372 -0.6519
16058TIP3    H148096   2.680   3.007   5.917 -0.3211 -0.4651  0.2291
16058TIP3    H248097   2.663   3.140   5.987  0.2590  0.4349 -1.3297
16059TIP3   OH248098   3.641   7.678   0.059 -0.0380  0.3922 -0.6407
16059TIP3    H148099   3.583   7.728   0.003 -0.6789  0.4977  0.1057
16059TIP3    H248100   3.596   7.595   0.072 -0.7803  1.0489  1.1960
16060TIP3   OH248101   8.418   4.821   6.087 -0.0349  0.0491 -0.3059
16060TIP3    H148102   8.500   4.776   6.105 -0.7512 -0.8152  0.8846
16060TIP3    H248103   8.424   4.903   6.135  1.0377  0.9769 -2.0133
16061TIP3   OH248104   4.776   0.608   0.049  0.0122 -0.1072 -0.1530
16061TIP3    H148105   4.715   0.674   0.014  0.2372 -0.1535 -0.6343
16061TIP3    H248106   4.722   0.555   0.108 -0.2605  0.2681 -0.0604
16062TIP3   OH248107   7.401   4.001   5.968  0.1749  0.4038  0.4497
16062TIP3    H148108   7.344   3.958   6.031  0.8518 -0.9722  0.1527
16062TIP3    H248109   7.434   3.929   5.913 -0.5783  1.5805 -1.6171
16063TIP3   OH248110   0.460   5.798   7.032  0.0122  0.4949  0.4845
16063TIP3    H148111   0.511   5.740   6.975  0.0697 -0.0762  1.1055
16063TIP3    H248112   0.520   5.870   7.053  0.2642  0.2884  0.4799
16064TIP3   OH248113   4.830   3.041   1.253  0.1611 -0.1133  0.4810
16064TIP3    H148114   4.837   3.060   1.160  1.1168 -0.5457  0.4555
16064TIP3    H248115   4.872   2.956   1.264 -3.5391 -2.0046  0.6943
16065TIP3   OH248116   5.717   5.090   6.511 -0.3236  0.1158  0.0531
16065TIP3    H148117   5.638   5.040   6.531 -0.6262  0.5030 -0.1623
16065TIP3    H248118   5.687   5.181   6.507 -0.0272  0.1819 -0.8329
16066TIP3   OH248119   7.539   1.693   0.736  0.2316 -0.1308 -0.4000
16066TIP3    H148120   7.462   1.748   0.745  0.8969  0.6072  1.0069
16066TIP3    H248121   7.539   1.665   0.645 -1.2441  0.5267 -0.6036
16067TIP3   OH248122   6.867   4.653   6.507 -0.4772  0.1939 -0.1436
16067TIP3    H148123   6.882   4.721   6.573 -0.3455 -0.6229  0.6858
16067TIP3    H248124   6.791   4.604   6.540 -0.5802 -0.0503 -0.7384
16068TIP3   OH248125   0.960   5.761   6.619 -1.1273 -0.0263 -1.1224
16068TIP3    H148126   1.012   5.824   6.668 -1.4051 -0.3903 -0.3601
16068TIP3    H248127   1.010   5.746   6.539 -0.1821 -0.1728 -0.5078
16069TIP3   OH248128   3.565   0.502   5.082  0.0947  0.0666 -0.4623
16069TIP3    H148129   3.597   0.418   5.117  0.5950  0.1211 -0.7862
16069TIP3    H248130   3.548   0.485   4.990 -2.6503 -0.4772  0.0843
16070TIP3   OH248131   0.092   4.778   7.112  0.1305 -0.4935  0.3874
16070TIP3    H148132   0.123   4.795   7.201  0.8414  1.3664 -0.1992
16070TIP3    H248133   0.167   4.796   7.056 -1.4273  2.3733 -0.9194
16071TIP3   OH248134   0.502   3.920   7.167  0.1553  0.3633  0.5274
16071TIP3    H148135   0.588   3.935   7.205  1.4379 -1.6372 -1.5191
16071TIP3    H248136   0.518   3.908   7.074 -2.0586 -2.2030  0.4127
16072TIP3   OH248137   6.032   5.970   5.416 -0.2380  0.2220 -0.1101
16072TIP3    H148138   5.979   5.977   5.495 -0.8114  1.2681 -0.5868
16072TIP3    H248139   6.056   6.060   5.394  3.0887 -0.3225  1.0072
16073TIP3   OH248140   0.647   5.336   6.608 -0.3111  0.1055 -0.0046
16073TIP3    H148141   0.695   5.397   6.552  0.9566  0.5645  1.5547
16073TIP3    H248142   0.555   5.349   6.584 -0.0221  2.3643  0.0530
16074TIP3   OH248143   8.005   3.558   6.471 -0.0841  0.4475 -0.3833
16074TIP3    H148144   8.026   3.642   6.511  0.7992  0.6699 -1.2871
16074TIP3    H248145   8.042   3.564   6.383 -0.1749 -0.8267 -0.5091
16075TIP3   OH248146   7.871   5.253   6.284  0.4842 -0.3373  0.4560
16075TIP3    H148147   7.820   5.206   6.349  1.7155  0.5230  2.0714
16075TIP3    H248148   7.944   5.194   6.264  0.6481 -0.1731  0.5795
16076TIP3   OH248149   1.930   8.138   5.110 -0.2523  0.7959  0.1638
16076TIP3    H148150   1.927   8.043   5.125  2.3489  0.4430 -1.3224
16076TIP3    H248151   1.981   8.148   5.030  1.2707  3.5580  1.4210
16077TIP3   OH248152   8.704   6.830   5.423  0.3240  0.0004  0.8943
16077TIP3    H148153   8.671   6.853   5.336  1.1284 -2.1631 -0.0012
16077TIP3    H248154   8.762   6.903   5.446  0.9258  0.0876 -0.8288
16078TIP3   OH248155   6.302   5.337   6.572  0.1689 -0.1601  0.5411
16078TIP3    H148156   6.208   5.320   6.561  0.1216  0.1925  0.3841
16078TIP3    H248157   6.343   5.300   6.494 -0.1292  2.0260 -0.6965
16079TIP3   OH248158   1.537   5.987   6.566  0.0046 -0.0510  0.1615
16079TIP3    H148159   1.613   5.949   6.611 -0.0197  0.3148  0.5018
16079TIP3    H248160   1.505   5.915   6.511  1.4496  0.2110 -1.0537
16080TIP3   OH248161   6.424   5.571   4.856 -0.0309 -0.4540  0.0863
16080TIP3    H148162   6.483   5.603   4.787  0.0459 -0.4164  0.1689
16080TIP3    H248163   6.452   5.618   4.934 -2.4311  2.1776 -0.5702
16081TIP3   OH248164   8.292   5.966   6.961  0.5803 -1.3372  0.1046
16081TIP3    H148165   8.334   5.887   6.926  0.2618 -2.4204  2.1090
16081TIP3    H248166   8.354   6.000   7.026  1.7130  1.3452 -2.2466
16082TIP3   OH248167   0.583   7.058   5.549  0.3445 -0.1947 -0.2237
16082TIP3    H148168   0.550   7.136   5.595  0.9422 -0.4927  0.7294
16082TIP3    H248169   0.649   7.092   5.489  2.0760 -0.1506  1.6395
16083TIP3   OH248170   5.711   7.176   6.415  0.4129 -0.3733 -0.0883
16083TIP3    H148171   5.752   7.262   6.423 -0.9901  0.3865 -0.8795
16083TIP3    H248172   5.780   7.114   6.439  1.5451  0.9492  0.1206
16084TIP3   OH248173   7.287   2.451   2.144  0.3812 -0.4147  0.3505
16084TIP3    H148174   7.352   2.386   2.169  0.6336  0.2471  1.4573
16084TIP3    H248175   7.258   2.490   2.227 -1.4551 -0.7252 -0.1146
16085TIP3   OH248176   7.193   4.918   5.591  0.0830 -0.0793 -0.0585
16085TIP3    H148177   7.287   4.918   5.570  0.1457 -1.2925  0.1539
16085TIP3    H248178   7.181   4.993   5.649  0.8574  0.3036 -0.3861
16086TIP3   OH248179   6.484   2.092   0.919 -0.3006  0.2222  0.0626
16086TIP3    H148180   6.404   2.041   0.934  0.4123 -0.6333  0.9607
16086TIP3    H248181   6.491   2.098   0.824  0.7181 -3.1300 -0.1352
16087TIP3   OH248182   5.967   0.877   0.365 -0.1436 -0.3873 -0.2519
16087TIP3    H148183   5.873   0.858   0.370  0.3730 -2.8615  0.5542
16087TIP3    H248184   5.985   0.926   0.444 -0.6574 -0.3490 -0.1538
16088TIP3   OH248185   7.310   6.270   5.801 -0.1807 -0.7231 -0.3234
16088TIP3    H148186   7.387   6.219   5.828  0.4285  0.7136  0.8073
16088TIP3    H248187   7.303   6.338   5.869 -1.8991 -0.2794 -0.9338
16089TIP3   OH248188   7.708   4.881   4.153  0.1295  0.1186  0.6531
16089TIP3    H148189   7.693   4.802   4.101  0.4610  0.2473  0.3573
16089TIP3    H248190   7.628   4.892   4.204 -0.1901 -0.0217  0.1877
16090TIP3   OH248191   4.663   1.748   1.396  0.1150 -0.0523 -0.3777
16090TIP3    H148192   4.678   1.813   1.328 -0.1304 -0.6986 -1.0549
16090TIP3    H248193   4.749   1.707   1.408  0.2846  0.4389  0.0932
16091TIP3   OH248194   7.028   2.203   0.805  0.5638 -0.1671 -0.1653
16091TIP3    H148195   6.989   2.250   0.731  1.0656 -1.1712 -1.0963
16091TIP3    H248196   7.119   2.188   0.778  1.4322  1.6213  1.7192
16092TIP3   OH248197   4.185   1.478   1.548  0.0742  0.5815 -0.2028
16092TIP3    H148198   4.151   1.502   1.462  0.6020  2.5395  0.1015
16092TIP3    H248199   4.279   1.466   1.534  0.4268  2.4950  0.3950
16093TIP3   OH248200   4.100   1.537   1.272  0.0775 -0.3498  0.0673
16093TIP3    H148201   4.006   1.550   1.272  0.1446  0.3678  2.3638
16093TIP3    H248202   4.137   1.625   1.276  0.8079 -0.6717  0.6083
16094TIP3   OH248203   5.903   4.699   4.772  0.3646 -0.2402 -0.9396
16094TIP3    H148204   5.885   4.780   4.723  0.2965 -0.0108 -0.5393
16094TIP3    H248205   5.867   4.715   4.859  1.5208 -0.1917 -0.4564
16095TIP3   OH248206   8.136   5.260   5.368 -0.2732 -0.4053  0.9732
16095TIP3    H148207   8.210   5.247   5.428  0.2880  0.5154  0.4918
16095TIP3    H248208   8.173   5.243   5.281  0.1326  2.9149  0.4484
16096TIP3   OH248209   0.030   2.877   6.499 -0.4511 -0.5583  0.5266
16096TIP3    H148210   0.067   2.849   6.415  1.3150 -0.6779  1.3139
16096TIP3    H248211   0.103   2.869   6.560 -0.4697  3.6870  1.2464
16097TIP3   OH248212   2.832   7.702   0.679 -0.7406 -0.6870 -1.0822
16097TIP3    H148213   2.781   7.783   0.674  1.2617  0.6920  0.4816
16097TIP3    H248214   2.831   7.678   0.772  1.0864 -0.8955 -1.1016
16098TIP3   OH248215   8.246   1.619   5.950  0.3717  0.4946  0.1360
16098TIP3    H148216   8.278   1.584   6.033  0.7458 -0.8612 -0.5783
16098TIP3    H248217   8.253   1.714   5.960 -0.1623  0.3572  1.8825
16099TIP3   OH248218   8.809   7.738   4.855 -0.1983  0.1494  0.0717
16099TIP3    H148219   8.780   7.648   4.870 -0.1802 -0.0122 -0.8709
16099TIP3    H248220   8.870   7.756   4.927 -1.0382 -0.2119  0.8864
16100TIP3   OH248221   7.125   0.763   0.546 -0.8640  0.0159 -0.1185
16100TIP3    H148222   7.150   0.855   0.539  0.1769 -0.2632 -0.2100
16100TIP3    H248223   7.112   0.748   0.640  0.2424 -0.0642  0.0271
16101TIP3   OH248224   7.968   6.827   5.467 -0.2505 -0.0506 -0.5284
16101TIP3    H148225   7.991   6.738   5.493 -1.1909  0.3611  1.8357
16101TIP3    H248226   8.041   6.881   5.500 -0.7391  0.3029 -0.0136
16102TIP3   OH248227   1.082   8.257   6.062  0.3162  0.0331 -0.1981
16102TIP3    H148228   1.113   8.173   6.027  0.0320 -0.3486  0.4427
16102TIP3    H248229   1.110   8.256   6.154 -1.9391 -0.5210  0.5340
16103TIP3   OH248230   7.659   1.651   5.770  0.2259 -0.3045  0.2439
16103TIP3    H148231   7.746   1.673   5.803 -0.0573  0.9105  0.1942
16103TIP3    H248232   7.658   1.555   5.766  1.0473 -0.3751  1.6101
16104TIP3   OH248233   8.246   3.903   5.786  0.5934  0.6306  0.7681
16104TIP3    H148234   8.162   3.857   5.794  0.8587  0.0948  0.4722
16104TIP3    H248235   8.306   3.853   5.841  0.5784  1.3596  1.4509
16105TIP3   OH248236   6.787   5.861   5.740 -0.3512  0.2699  0.0618
16105TIP3    H148237   6.718   5.885   5.802 -0.9822 -0.4846 -0.3423
16105TIP3    H248238   6.776   5.922   5.667 -1.2945 -0.5829 -0.5016
16106TIP3   OH248239   5.424   2.593   1.705  0.5855 -0.4424  0.7198
16106TIP3    H148240   5.407   2.555   1.619  0.8706  0.8621  0.0744
16106TIP3    H248241   5.516   2.574   1.722  1.0078  0.8435 -0.0689
16107TIP3   OH248242   7.756   1.210   0.576  0.1234 -0.4759  0.0306
16107TIP3    H148243   7.810   1.211   0.655  1.8104  0.1072 -1.1191
16107TIP3    H248244   7.789   1.136   0.525 -0.0454 -0.0105 -0.7584
16108TIP3   OH248245   0.286   1.052   3.244  0.4769  0.1177 -1.0848
16108TIP3    H148246   0.347   1.094   3.305  1.0746 -0.6956 -1.1102
16108TIP3    H248247   0.201   1.089   3.265  0.8665  0.6965 -0.5275
16109TIP3   OH248248   7.726   3.002   0.649  0.5613 -0.0637  0.3390
16109TIP3    H148249   7.695   3.037   0.732  1.5769 -0.4913  0.9054
16109TIP3    H248250   7.800   2.946   0.673  0.8917 -0.1453 -0.8569
16110TIP3   OH248251   0.190   2.470   0.860  0.0453 -0.3232  0.1630
16110TIP3    H148252   0.115   2.486   0.803 -0.1376 -4.2848 -0.8509
16110TIP3    H248253   0.266   2.474   0.801  0.3568  0.7415  0.6320
16111TIP3   OH248254   8.099   0.664   1.426  0.3472 -0.8892 -0.3051
16111TIP3    H148255   8.071   0.752   1.452 -0.8905 -1.7587  1.3826
16111TIP3    H248256   8.062   0.652   1.338  0.6372  0.3008 -0.6041
16112TIP3   OH248257   0.598   1.270   2.744  0.4128 -0.4495 -0.2651
16112TIP3    H148258   0.654   1.204   2.703 -1.4843 -1.0214 -2.0685
16112TIP3    H248259   0.552   1.222   2.813  1.6150 -0.1502  0.7501
16113TIP3   OH248260   6.073   7.481   1.477  0.0512  0.1163 -0.3249
16113TIP3    H148261   6.055   7.557   1.422  1.0418  0.6091  0.0191
16113TIP3    H248262   6.164   7.458   1.458  0.4786  0.4188  1.2397
16114TIP3   OH248263   1.435   5.439   6.260 -0.3829 -0.1483  0.0629
16114TIP3    H148264   1.500   5.391   6.209 -0.6658 -0.1422 -0.3058
16114TIP3    H248265   1.470   5.528   6.266 -0.9008  0.1538 -1.1224
16115TIP3   OH248266   3.691   8.212   1.899 -0.0428 -0.5721  0.1594
16115TIP3    H148267   3.629   8.282   1.920  0.1447  0.2020 -1.8037
16115TIP3    H248268   3.774   8.240   1.938 -0.0458  0.1511 -0.3502
16116TIP3   OH248269   1.474   3.048   2.207 -0.4924 -0.0335  0.6159
16116TIP3    H148270   1.420   3.105   2.154 -1.0389 -0.6758  0.4700
16116TIP3    H248271   1.482   3.093   2.291 -0.8109  0.3124  0.4596
16117TIP3   OH248272   2.392   5.352   7.093  0.4069 -0.0317 -0.5992
16117TIP3    H148273   2.486   5.343   7.112  1.0614  0.4786 -3.4064
16117TIP3    H248274   2.382   5.441   7.062 -1.0950  0.0083 -0.0500
16118TIP3   OH248275   6.773   4.105   0.930  0.4331  0.2785 -0.2702
16118TIP3    H148276   6.833   4.037   0.962  1.5778  1.5818  0.3776
16118TIP3    H248277   6.698   4.056   0.897 -0.3713 -1.2168  3.4921
16119TIP3   OH248278   3.310   7.293   3.735  0.1317 -0.0182 -0.0172
16119TIP3    H148279   3.404   7.277   3.746  0.1855 -0.5533 -1.1160
16119TIP3    H248280   3.268   7.213   3.766 -0.0404  0.7699  1.7794
16120TIP3   OH248281   5.928   8.002   3.560 -1.0077 -0.7112  0.1307
16120TIP3    H148282   5.884   7.925   3.595  1.1572 -1.2450  1.7687
16120TIP3    H248283   6.016   7.972   3.539 -0.7480  0.8495 -1.1172
16121TIP3   OH248284   7.598   4.725   0.972 -0.3660 -0.5818 -0.0293
16121TIP3    H148285   7.572   4.773   0.893 -1.3054 -0.7804  0.1509
16121TIP3    H248286   7.641   4.646   0.939  2.8914  1.2158 -0.3422
16122TIP3   OH248287   0.330   0.979   0.726  0.0441  0.2336 -0.2937
16122TIP3    H148288   0.260   1.036   0.697 -0.8717 -0.8448 -0.2314
16122TIP3    H248289   0.286   0.900   0.757  1.1872  0.2028  1.2820
16123TIP3   OH248290   6.160   7.805   1.310  0.5485 -0.1800  0.0743
16123TIP3    H148291   6.072   7.841   1.299  0.0937 -0.7325  1.7541
16123TIP3    H248292   6.214   7.855   1.248 -0.6146  1.3682  0.2769
16124TIP3   OH248293   7.369   3.769   1.261  0.3763  0.3962 -0.0504
16124TIP3    H148294   7.276   3.776   1.281  0.5262 -0.5160  1.0223
16124TIP3    H248295   7.382   3.829   1.188 -1.1030  0.3375 -0.3865
16125TIP3   OH248296   0.364   5.728   6.481 -0.0900 -0.1904  0.0448
16125TIP3    H148297   0.280   5.690   6.506 -0.1383 -0.0691  0.0695
16125TIP3    H248298   0.387   5.785   6.554  1.8861 -3.1224  1.8110
16126TIP3   OH248299   7.705   4.091   2.000  0.4913 -0.3121 -0.1322
16126TIP3    H148300   7.660   4.175   1.994  1.0482  0.1380  1.6492
16126TIP3    H248301   7.737   4.074   1.911 -0.9568  0.5939 -0.8351
16127TIP3   OH248302   1.521   6.274   6.960 -0.4396  0.5716  0.7667
16127TIP3    H148303   1.488   6.329   6.889  0.9245 -0.0982 -0.4243
16127TIP3    H248304   1.588   6.220   6.919  2.0273  1.7739  3.0244
16128TIP3   OH248305   2.718   7.179   2.470  0.2481 -0.3641 -0.4284
16128TIP3    H148306   2.692   7.088   2.463 -2.4060  0.3661 -0.6464
16128TIP3    H248307   2.658   7.226   2.412  2.3623  1.4008 -1.2706
16129TIP3   OH248308   5.393   1.166   0.248  0.0307 -0.3528 -0.2586
16129TIP3    H148309   5.323   1.134   0.304 -0.2157  0.2732 -0.2055
16129TIP3    H248310   5.444   1.088   0.226  1.6775 -0.2688  2.9469
16130TIP3   OH248311   7.196   1.393   2.516  0.3570  0.1364  0.3994
16130TIP3    H148312   7.113   1.352   2.492  1.3338 -1.6659  0.0470
16130TIP3    H248313   7.183   1.424   2.606  0.1944 -2.6342  1.3687
16131TIP3   OH248314   7.926   2.282   0.894  0.1621  0.4527  0.6090
16131TIP3    H148315   8.009   2.236   0.906 -0.6129 -0.4509  2.7042
16131TIP3    H248316   7.883   2.277   0.979 -2.3172  0.3877 -0.6005
16132TIP3   OH248317   5.654   8.076   3.452  0.3503  0.1722 -0.1980
16132TIP3    H148318   5.614   8.060   3.537 -0.0056 -1.7260 -0.6865
16132TIP3    H248319   5.746   8.054   3.464  0.4087  0.4454 -0.1528
16133TIP3   OH248320   7.935   1.584   1.335  0.0949  0.2233  0.1578
16133TIP3    H148321   7.985   1.544   1.264  1.0359 -0.2790  1.0965
16133TIP3    H248322   7.852   1.608   1.294  0.6910  0.1124 -1.1609
16134TIP3   OH248323   8.406   0.772   3.258  0.4101  0.1177 -0.9196
16134TIP3    H148324   8.368   0.781   3.345  0.4720  0.1177 -0.8922
16134TIP3    H248325   8.332   0.750   3.201  0.5432 -1.0814 -0.6591
16135TIP3   OH248326   7.333   1.148   2.449 -0.1432  0.2096 -0.5238
16135TIP3    H148327   7.337   1.243   2.464  0.7679 -0.0994  1.3468
16135TIP3    H248328   7.272   1.116   2.516  0.4387 -0.6513 -0.3925
16136TIP3   OH248329   6.122   0.813   1.688 -0.3857 -0.3368  0.2292
16136TIP3    H148330   6.052   0.838   1.747 -1.3843  0.0550 -1.0987
16136TIP3    H248331   6.195   0.870   1.712 -1.6450  1.7427 -0.6903
16137TIP3   OH248332   8.880   2.256   1.745  0.4637  0.0090 -0.3963
16137TIP3    H148333   8.840   2.282   1.662  0.7918  1.7065 -0.0431
16137TIP3    H248334   8.973   2.278   1.735  0.7726 -1.1462 -0.1201
16138TIP3   OH248335   1.654   7.659   7.185 -0.4113  0.3729 -0.0849
16138TIP3    H148336   1.745   7.634   7.197 -1.0225 -1.5212  0.7956
16138TIP3    H248337   1.652   7.703   7.101  0.8858 -1.8105 -1.2994
16139TIP3   OH248338   0.194   1.510   2.024  0.7426 -0.3388  0.3722
16139TIP3    H148339   0.209   1.445   2.092  0.5685 -1.6704 -0.8414
16139TIP3    H248340   0.101   1.503   2.004  0.5213  0.9647  0.9119
16140TIP3   OH248341   7.915   2.737   0.039 -0.1823 -0.5665 -0.0459
16140TIP3    H148342   7.878   2.695   0.117  2.5776 -1.4751  0.8302
16140TIP3    H248343   7.839   2.774  -0.006 -1.7536  1.4613  3.9442
16141TIP3   OH248344   8.433   1.278   1.387  0.0610  0.0153 -0.0103
16141TIP3    H148345   8.378   1.301   1.462  0.4093  0.5272  0.0981
16141TIP3    H248346   8.424   1.184   1.377  0.2255 -0.0934  0.8495
16142TIP3   OH248347   4.874   0.550   7.225  0.3297  0.2439 -0.2952
16142TIP3    H148348   4.867   0.562   7.320 -0.4332 -1.1405 -0.1634
16142TIP3    H248349   4.795   0.589   7.189 -1.1870 -2.4546 -0.0296
16143TIP3   OH248350   7.740   2.635   1.121  0.3893 -0.5700  0.6609
16143TIP3    H148351   7.803   2.602   1.186  0.7582 -1.8027 -0.2860
16143TIP3    H248352   7.665   2.662   1.172  0.8611 -1.0946  1.6524
16144TIP3   OH248353   8.229   3.083   1.536 -0.8299  0.1317 -0.3679
16144TIP3    H148354   8.251   3.174   1.556 -1.0401  0.3442 -1.0770
16144TIP3    H248355   8.306   3.033   1.564 -1.1607  0.3940  1.0672
16145TIP3   OH248356   1.327   5.275   6.726 -0.6234 -0.0255  0.0404
16145TIP3    H148357   1.382   5.276   6.804 -0.0671  0.7614 -0.3483
16145TIP3    H248358   1.342   5.189   6.687  1.0311  0.4946 -0.5306
16146TIP3   OH248359   6.592   0.320   3.204  0.6769  0.3417  0.5096
16146TIP3    H148360   6.600   0.235   3.162  0.3842  0.7683 -0.4130
16146TIP3    H248361   6.663   0.321   3.269  0.0410 -1.0113  1.2515
16147TIP3   OH248362   7.444   0.362   2.842 -0.2860  0.2180 -0.5599
16147TIP3    H148363   7.492   0.322   2.915  0.9307  1.3600 -0.6914
16147TIP3    H248364   7.378   0.418   2.884  0.1798  0.5974 -0.3188
16148TIP3   OH248365   4.329   1.698   0.720 -0.1732  0.0720 -0.5820
16148TIP3    H148366   4.315   1.704   0.625 -0.6444 -2.8763 -0.7664
16148TIP3    H248367   4.240   1.698   0.757  0.0426  3.3711  0.0867
16149TIP3   OH248368   0.490   0.308   3.491 -0.5886  0.1586 -0.4824
16149TIP3    H148369   0.553   0.239   3.470  0.3291  1.1487 -1.0889
16149TIP3    H248370   0.527   0.386   3.449 -1.1390  1.2071  0.9675
16150TIP3   OH248371   7.176   3.977   2.510  0.1841  0.1388 -0.1477
16150TIP3    H148372   7.227   4.012   2.583 -0.0189 -0.5001  0.3055
16150TIP3    H248373   7.147   4.055   2.463  0.2372  0.5671  0.5067
16151TIP3   OH248374   3.802   0.761   7.113  0.3301  0.6702  0.1601
16151TIP3    H148375   3.789   0.837   7.169 -1.7535 -0.5198  1.3660
16151TIP3    H248376   3.872   0.711   7.156  2.7922  2.6150 -1.4648
16152TIP3   OH248377   6.109   1.831   0.184 -0.5699 -0.1870 -0.0751
16152TIP3    H148378   6.027   1.815   0.137 -0.4485  0.1801 -0.4129
16152TIP3    H248379   6.177   1.799   0.125 -0.0780  4.2095 -2.1174
16153TIP3   OH248380   8.717   0.756   0.129 -0.5214 -0.0833 -0.2522
16153TIP3    H148381   8.791   0.712   0.086  0.5397  1.8239 -0.4275
16153TIP3    H248382   8.656   0.685   0.149  0.7889 -1.5372 -1.2378
16154TIP3   OH248383   8.316   2.116   0.661 -0.0494  0.1732  0.1629
16154TIP3    H148384   8.261   2.101   0.584  0.5741 -0.9804 -0.0671
16154TIP3    H248385   8.358   2.201   0.644  1.3726 -0.8496 -1.5670
16155TIP3   OH248386   6.952   1.171   0.387  0.1697 -0.2394  0.1982
16155TIP3    H148387   6.981   1.262   0.376 -0.0237 -0.2596 -0.5180
16155TIP3    H248388   6.857   1.175   0.375  0.2247 -0.6184 -0.4329
16156TIP3   OH248389   7.397   3.395   1.780  0.8666 -0.4090  0.3544
16156TIP3    H148390   7.452   3.318   1.792 -1.7956 -2.5946 -0.9736
16156TIP3    H248391   7.444   3.448   1.715  2.1794 -1.3916  0.4788
16157TIP3   OH248392   7.539   1.916   2.227  0.1789  0.0956  0.1081
16157TIP3    H148393   7.449   1.886   2.222  0.2557  0.2186 -2.7526
16157TIP3    H248394   7.536   1.991   2.286 -1.9943  1.5323 -1.7628
16158TIP3   OH248395   7.018   1.534   1.403  0.8576 -0.0920  0.5576
16158TIP3    H148396   6.951   1.602   1.404  0.1052 -0.7712 -0.9272
16158TIP3    H248397   6.970   1.453   1.385  2.1012 -0.5275 -0.9452
16159TIP3   OH248398   1.740   4.745   6.862  0.1459 -0.0977  0.4236
16159TIP3    H148399   1.765   4.652   6.863 -1.1939 -0.4840 -0.0276
16159TIP3    H248400   1.698   4.756   6.776  0.0081  0.8466  0.6156
16160TIP3   OH248401   7.487   0.764   0.846  0.5767  0.2057 -0.3094
16160TIP3    H148402   7.578   0.740   0.827  0.3793 -1.6341  0.8595
16160TIP3    H248403   7.436   0.725   0.775  0.3906 -1.8672  0.8942
16161TIP3   OH248404   4.702   8.168   1.831  0.1408 -0.1046  0.2746
16161TIP3    H148405   4.674   8.133   1.747 -0.3174 -1.1400  0.8456
16161TIP3    H248406   4.725   8.259   1.813 -1.6253  0.1793 -0.6102
16162TIP3   OH248407   7.618   0.446   1.622 -0.4140  0.1699  0.4032
16162TIP3    H148408   7.713   0.458   1.626 -0.5747  1.1117  1.5183
16162TIP3    H248409   7.605   0.389   1.547  0.9328  1.2278 -0.6766
16163TIP3   OH248410   0.907   1.851   2.788  0.4020  0.1317 -0.3974
16163TIP3    H148411   0.824   1.871   2.832 -0.0452  1.2635 -1.7331
16163TIP3    H248412   0.882   1.824   2.700  1.5000  1.5904 -1.1749
16164TIP3   OH248413   3.734   8.324   3.648 -0.3133  0.4018 -0.3129
16164TIP3    H148414   3.667   8.394   3.649 -2.3324 -1.4668 -0.4471
16164TIP3    H248415   3.690   8.250   3.605  1.2097 -1.4990  1.3331
16165TIP3   OH248416   8.349   0.171   2.259 -0.5437  0.3216  0.3131
16165TIP3    H148417   8.404   0.094   2.273 -0.4315  0.0489 -1.4562
16165TIP3    H248418   8.260   0.137   2.264 -0.4907 -0.1105 -1.2683
16166TIP3   OH248419   1.535   4.677   6.203 -0.2213  0.0670 -0.2400
16166TIP3    H148420   1.576   4.675   6.116  0.3858  0.5668  0.0225
16166TIP3    H248421   1.598   4.725   6.257 -0.7857  0.1186  0.3769
16167TIP3   OH248422   6.174   0.270   1.960 -0.3090 -0.2829 -0.5924
16167TIP3    H148423   6.172   0.201   1.895  1.5712 -0.0142 -0.9488
16167TIP3    H248424   6.130   0.344   1.917 -0.6586 -0.6529 -0.8841
16168TIP3   OH248425   4.211   8.246   2.411  0.4460  0.7132 -0.4221
16168TIP3    H148426   4.239   8.179   2.474  2.1666  0.8865 -0.9615
16168TIP3    H248427   4.274   8.317   2.423  0.7363  0.7921 -2.2658
16169TIP3   OH248428   8.670   0.231   1.791 -0.2378 -0.2189 -0.6149
16169TIP3    H148429   8.705   0.200   1.707 -0.7715  0.3352 -1.0489
16169TIP3    H248430   8.659   0.325   1.779  0.7588  0.0542  0.4766
16170TIP3   OH248431   5.415   0.425   0.604  0.0946 -0.4942 -0.5084
16170TIP3    H148432   5.392   0.515   0.582  3.2163 -0.3045 -3.4642
16170TIP3    H248433   5.339   0.374   0.577 -0.9585  1.0554 -0.5340
16171TIP3   OH248434   5.384   8.054   1.830  0.7147  0.8164  0.6342
16171TIP3    H148435   5.387   7.961   1.854 -0.8576  0.6637  0.3035
16171TIP3    H248436   5.399   8.101   1.911 -0.5562  0.2757  1.1958
16172TIP3   OH248437   3.283   8.422   2.967  0.2739 -0.2427  0.6975
16172TIP3    H148438   3.370   8.383   2.973  0.6819  0.1182 -2.4152
16172TIP3    H248439   3.230   8.355   2.923 -0.0159  1.0638 -0.9986
16173TIP3   OH248440   8.308   0.989   1.693 -0.8312 -0.1475 -0.0637
16173TIP3    H148441   8.237   0.937   1.655 -1.5127  1.1201 -0.6051
16173TIP3    H248442   8.263   1.050   1.752 -0.0733 -0.1398  0.5001
16174TIP3   OH248443   1.526   4.057   0.427 -0.4169  0.1679  0.3065
16174TIP3    H148444   1.560   4.143   0.403 -0.0378 -0.8472 -3.0603
16174TIP3    H248445   1.600   3.998   0.414 -1.5617 -1.1014 -0.5841
16175TIP3   OH248446   8.495   2.048   0.152 -0.1139 -0.0780  0.0511
16175TIP3    H148447   8.502   1.963   0.196  3.1750 -1.1512 -2.2936
16175TIP3    H248448   8.468   2.026   0.063 -0.6013  1.4741 -0.1883
16176TIP3   OH248449   0.267   2.076   1.484 -0.2918  0.8012 -0.0984
16176TIP3    H148450   0.280   2.013   1.413  1.4291 -1.0712  1.8046
16176TIP3    H248451   0.178   2.059   1.515  0.2284 -0.8973  0.5363
16177TIP3   OH248452   4.872   8.055   2.286 -0.0700  0.4690  0.2411
16177TIP3    H148453   4.786   8.015   2.275  0.1994 -0.3674  1.0715
16177TIP3    H248454   4.892   8.094   2.201 -0.7132 -0.4311 -0.3250
16178TIP3   OH248455   6.927   0.844   3.575  0.2195 -0.1900  0.1913
16178TIP3    H148456   6.995   0.856   3.641 -1.3256 -2.0685  2.1827
16178TIP3    H248457   6.945   0.758   3.537 -1.0243 -0.6916  0.7224
16179TIP3   OH248458   3.073   4.482   4.202  0.3575 -0.7155 -0.3743
16179TIP3    H148459   3.166   4.490   4.182  0.2226  1.7585 -0.2387
16179TIP3    H248460   3.068   4.495   4.297 -0.1877  0.0859 -0.5036
16180TIP3   OH248461   8.237   2.406   0.539  0.4966 -0.1503 -0.4544
16180TIP3    H148462   8.302   2.468   0.573  0.5545 -0.8481  0.7152
16180TIP3    H248463   8.269   2.383   0.452  0.0268  2.1359 -1.2813
16181TIP3   OH248464   6.883   1.817   2.448 -0.2025 -0.1028 -0.0620
16181TIP3    H148465   6.840   1.896   2.417  1.3318  0.7578 -0.0004
16181TIP3    H248466   6.890   1.829   2.543  1.0432  0.1847 -0.1927
16182TIP3   OH248467   0.038   4.721   2.291 -0.0590  0.1647 -0.2841
16182TIP3    H148468  -0.000   4.806   2.267  0.2237  0.2911 -0.2920
16182TIP3    H248469  -0.002   4.700   2.375  0.2629  0.5582 -0.0278
16183TIP3   OH248470   0.237   3.576   1.221 -0.0732  0.3102 -0.0377
16183TIP3    H148471   0.213   3.567   1.129 -2.3704  0.4753  0.5183
16183TIP3    H248472   0.289   3.498   1.240 -1.2681 -0.7261 -0.9659
16184TIP3   OH248473   5.198   6.254   6.291 -0.7478  0.3944 -0.3015
16184TIP3    H148474   5.176   6.261   6.384 -2.5080  0.4220 -0.7156
16184TIP3    H248475   5.136   6.311   6.247 -0.0465  0.2286 -1.5292
16185TIP3   OH248476   8.483   1.818   0.286 -0.4294 -0.3299  0.0799
16185TIP3    H148477   8.477   1.723   0.296  3.7359 -0.5310  1.7299
16185TIP3    H248478   8.456   1.853   0.371  3.1105 -0.3868  1.3087
16186TIP3   OH248479   8.519   2.117   1.602  0.1073  0.0174 -0.0130
16186TIP3    H148480   8.573   2.190   1.573 -0.9401  0.2604 -1.3844
16186TIP3    H248481   8.544   2.045   1.545 -1.9020  0.4729 -1.5092
16187TIP3   OH248482   2.382   1.811   0.860 -0.0661 -0.6459 -0.2184
16187TIP3    H148483   2.474   1.833   0.848  0.0877  0.3767  2.4811
16187TIP3    H248484   2.372   1.724   0.819  2.5573 -1.6912  1.2777
16188TIP3   OH248485   0.897   1.038   0.380 -0.1289 -0.6150  0.5567
16188TIP3    H148486   0.898   1.133   0.368  0.7543 -0.5753  0.8836
16188TIP3    H248487   0.826   1.022   0.443 -0.4976 -0.2074  0.2451
16189TIP3   OH248488   1.056   2.114   0.492 -0.0696 -0.6541  0.7183
16189TIP3    H148489   1.047   2.068   0.408  0.6738 -2.2824  1.5157
16189TIP3    H248490   1.034   2.048   0.557  0.6607  0.2388  1.8756
16190TIP3   OH248491   0.297   0.124   0.213 -0.5433 -0.6471 -0.2004
16190TIP3    H148492   0.250   0.166   0.286  2.5818 -0.0235  1.5375
16190TIP3    H248493   0.272   0.032   0.218 -0.9728 -0.4646  1.1685
16191TIP3   OH248494   1.943   2.167   2.910  0.1002  0.3064  0.3945
16191TIP3    H148495   2.032   2.203   2.912  0.5234 -0.8252  2.3614
16191TIP3    H248496   1.899   2.218   2.841  2.2994  0.7585 -0.7204
16192TIP3   OH248497   8.384   2.556   1.094  0.4056 -0.6601 -0.5786
16192TIP3    H148498   8.312   2.618   1.102  0.9422 -0.0753 -0.2903
16192TIP3    H248499   8.410   2.536   1.184  0.0669 -1.5068 -0.6574
16193TIP3   OH248500   0.895   0.658   1.333  0.5848  0.0199 -0.1159
16193TIP3    H148501   0.871   0.751   1.339  1.2041  0.2466 -1.0778
16193TIP3    H248502   0.828   0.613   1.384  0.2012  0.9824  0.2511
16194TIP3   OH248503   3.262   4.837   6.685  0.2273 -0.3007  0.1447
16194TIP3    H148504   3.352   4.839   6.651 -0.0037 -2.3075 -0.6634
16194TIP3    H248505   3.258   4.910   6.746  2.7337 -0.7835  0.9610
16195TIP3   OH248506   0.250   2.896   3.148 -0.5017 -0.1943 -0.1997
16195TIP3    H148507   0.179   2.956   3.172 -1.9010 -1.5956 -0.7880
16195TIP3    H248508   0.208   2.827   3.097  1.4127 -0.6501 -1.2221
16196TIP3   OH248509   2.462   5.403   2.130 -0.0358 -0.1339 -0.0242
16196TIP3    H148510   2.554   5.429   2.118  0.1972 -0.5425  0.8344
16196TIP3    H248511   2.461   5.309   2.111 -0.4246  0.0279 -0.7945
16197TIP3   OH248512   0.327   1.372   1.207  0.1433  0.2695  0.0170
16197TIP3    H148513   0.315   1.323   1.126  1.9808 -0.2992  0.0644
16197TIP3    H248514   0.262   1.442   1.204 -1.7016 -1.4337 -0.6354
16198TIP3   OH248515   8.134   3.327   0.323 -1.0511  0.2731  0.1577
16198TIP3    H148516   8.173   3.354   0.407 -1.1404 -0.3755  0.4119
16198TIP3    H248517   8.042   3.313   0.343 -1.1331  0.4205 -0.1232
16199TIP3   OH248518   8.456   8.309   0.615 -0.2598  0.2180  0.0223
16199TIP3    H148519   8.484   8.297   0.525 -1.0683  0.3168 -0.2466
16199TIP3    H248520   8.473   8.402   0.633 -1.0948  0.4550 -0.3824
16200TIP3   OH248521   7.644   0.073   2.708  0.2789  0.5911  0.3925
16200TIP3    H148522   7.696   0.100   2.633 -0.3788  0.4422 -0.1183
16200TIP3    H248523   7.688   0.113   2.784  1.9712 -0.7052  0.1274
16201TIP3   OH248524   2.054   6.684   5.320 -0.3267 -0.0123  0.3938
16201TIP3    H148525   2.109   6.709   5.394 -0.5729 -0.7087  0.8187
16201TIP3    H248526   2.011   6.765   5.293 -0.1997  0.2524  0.9860
16202TIP3   OH248527   4.012   6.644   5.924 -0.4055 -0.5483 -0.1363
16202TIP3    H148528   4.086   6.584   5.913 -0.7574 -0.8365 -0.9564
16202TIP3    H248529   3.967   6.611   6.001 -1.2916 -2.0964 -1.2735
16203TIP3   OH248530   1.530   3.128   2.512 -0.4257 -0.2103 -0.2689
16203TIP3    H148531   1.605   3.073   2.489  0.3062 -0.2407  2.0538
16203TIP3    H248532   1.565   3.216   2.519 -0.5820 -0.2229  0.8253
16204TIP3   OH248533   1.681   2.662   2.699  0.1755  0.3030  0.0009
16204TIP3    H148534   1.645   2.705   2.777 -1.3918 -0.8000 -0.0921
16204TIP3    H248535   1.627   2.584   2.688  2.4847 -1.2980 -0.2781
16205TIP3   OH248536   1.020   2.510   0.421  0.4436 -0.5099  0.4223
16205TIP3    H148537   1.065   2.531   0.502  1.4102 -0.3648 -0.1446
16205TIP3    H248538   0.969   2.588   0.400  1.6675  0.1676 -0.0914
16206TIP3   OH248539   1.653   3.451   0.393  0.5434  0.5020  0.1836
16206TIP3    H148540   1.745   3.457   0.421  0.5218  0.1597  0.3362
16206TIP3    H248541   1.655   3.466   0.299  0.8447 -0.2410  0.0690
16207TIP3   OH248542   1.939   3.070   0.586 -0.5088 -0.3937 -0.0310
16207TIP3    H148543   1.873   3.022   0.537  0.8546  0.1170 -2.4719
16207TIP3    H248544   2.020   3.059   0.535  0.5354  1.8078  1.0486
16208TIP3   OH248545   0.711   2.771   0.487  0.6711 -0.1486 -0.5689
16208TIP3    H148546   0.738   2.725   0.408  2.5401 -0.9666  0.5224
16208TIP3    H248547   0.686   2.702   0.548  1.4595  0.3546  0.3394
16209TIP3   OH248548   0.564   0.143   2.512  0.0728  0.4648  0.2620
16209TIP3    H148549   0.655   0.119   2.493  0.4133  1.3265  0.7716
16209TIP3    H248550   0.567   0.177   2.602 -1.0868 -1.2641  0.9910
16210TIP3   OH248551   8.604   3.992   1.502 -0.3305  0.0021  0.0665
16210TIP3    H148552   8.668   3.966   1.436 -0.0202 -0.8668  0.7067
16210TIP3    H248553   8.615   4.087   1.510  0.8749 -0.1422  0.1725
16211TIP3   OH248554   1.043   3.648   2.463  0.1724 -0.2892 -0.0631
16211TIP3    H148555   1.074   3.649   2.553  4.1127 -1.5090 -1.3055
16211TIP3    H248556   1.046   3.556   2.437  0.4862  0.2280 -1.9096
16212TIP3   OH248557   0.990   4.920   0.589  0.4213  0.6672 -0.3449
16212TIP3    H148558   1.080   4.912   0.557 -0.6554  1.3649 -3.8719
16212TIP3    H248559   0.958   5.000   0.547 -2.0487  0.0456  0.2822
16213TIP3   OH248560   1.414   6.500   6.146 -0.2996  0.5990  0.1462
16213TIP3    H148561   1.362   6.423   6.120 -0.0826  0.5647 -0.1888
16213TIP3    H248562   1.413   6.498   6.242 -0.1932  0.1071  0.1419
16214TIP3   OH248563   6.884   3.976   3.322 -0.0849 -0.1844  0.4635
16214TIP3    H148564   6.845   3.975   3.234 -2.1605 -1.1605  1.3570
16214TIP3    H248565   6.870   3.887   3.354  0.7326  0.1493  1.7594
16215TIP3   OH248566   7.449   2.377   6.368 -0.0528  0.1920 -0.1428
16215TIP3    H148567   7.442   2.472   6.373 -0.5494  0.1880 -0.6716
16215TIP3    H248568   7.537   2.361   6.333 -0.0572  0.4615 -0.2791
16216TIP3   OH248569   1.177   0.652   0.248 -0.1114  0.3670  0.0037
16216TIP3    H148570   1.113   0.694   0.191  0.0189  1.3576  0.5750
16216TIP3    H248571   1.135   0.570   0.276 -1.1892  1.0741  0.4961
16217TIP3   OH248572   0.090   1.844   2.309  0.2878 -0.1701  0.1600
16217TIP3    H148573   0.081   1.776   2.377  4.0211  1.0675  2.0594
16217TIP3    H248574   0.129   1.798   2.235 -0.4742 -0.8336  0.1717
16218TIP3   OH248575   0.532   0.026   6.303 -0.3821 -0.0144 -0.0660
16218TIP3    H148576   0.533  -0.069   6.288 -0.2443 -0.3170  1.6944
16218TIP3    H248577   0.541   0.064   6.216  0.5744 -1.6295 -0.7028
16219TIP3   OH248578   0.084   0.790   0.281  0.0082 -0.7433 -0.3719
16219TIP3    H148579   0.116   0.804   0.370 -0.7251 -1.8907  0.0785
16219TIP3    H248580   0.004   0.738   0.291 -0.4450 -0.3490 -1.6594
16220TIP3   OH248581   1.459   2.131   0.768 -0.3146  0.3405  0.2045
16220TIP3    H148582   1.372   2.160   0.739 -0.2701  2.1249  1.7558
16220TIP3    H248583   1.504   2.211   0.794  1.5919 -0.6387  0.0228
16221TIP3   OH248584   0.878   2.723   0.286 -0.1400 -0.2050  0.0795
16221TIP3    H148585   0.937   2.793   0.259  0.8251 -0.7587  0.7453
16221TIP3    H248586   0.859   2.675   0.205  0.4192 -0.1091 -0.1096
16222TIP3   OH248587   8.716   4.292   4.011 -0.1590  0.0629 -0.0052
16222TIP3    H148588   8.659   4.362   3.978 -1.0841 -0.5652  0.2382
16222TIP3    H248589   8.751   4.327   4.093 -0.7436  0.1829  0.1988
16223TIP3   OH248590   6.287   0.917   6.830  0.8003 -0.5305 -0.1679
16223TIP3    H148591   6.310   0.939   6.740  0.5871 -1.6347 -0.4983
16223TIP3    H248592   6.281   0.822   6.831 -0.1316 -0.4715  0.7946
16224TIP3   OH248593   8.612   3.600   1.189 -0.4085  0.1242 -0.8043
16224TIP3    H148594   8.650   3.679   1.227 -2.0395  0.8372 -0.6342
16224TIP3    H248595   8.587   3.625   1.101  0.7625 -0.7398 -1.3967
16225TIP3   OH248596   8.506   4.369   1.726 -0.3561 -0.0744 -0.0469
16225TIP3    H148597   8.416   4.399   1.744  0.1528  0.7709  1.1526
16225TIP3    H248598   8.561   4.428   1.777  0.9730  0.2352 -1.7866
16226TIP3   OH248599   8.723   5.713   1.873  0.0027  0.1007 -0.3968
16226TIP3    H148600   8.777   5.648   1.919  0.9708  1.2362  0.1070
16226TIP3    H248601   8.696   5.774   1.942 -1.2624  0.0055 -0.7920
16227TIP3   OH248602   3.820   4.311   6.863  0.3404 -0.3857 -0.2582
16227TIP3    H148603   3.809   4.395   6.818  1.8473 -0.3261 -0.5429
16227TIP3    H248604   3.744   4.259   6.837 -1.4729  1.4660  1.2466
16228TIP3   OH248605   1.152   0.914   1.544  0.2349 -0.1922  0.4060
16228TIP3    H148606   1.157   1.009   1.557  0.5456 -0.1149 -0.3001
16228TIP3    H248607   1.227   0.879   1.592  1.5608  0.1219 -1.3850
16229TIP3   OH248608   0.668   1.195   1.288  0.6654 -0.0067 -0.3264
16229TIP3    H148609   0.703   1.238   1.210  0.2052  1.5691  0.3260
16229TIP3    H248610   0.650   1.266   1.349 -0.3911 -1.0969  0.6562
16230TIP3   OH248611   6.542   7.691   1.489 -0.2054  0.5708 -0.3125
16230TIP3    H148612   6.577   7.779   1.473 -2.0794  1.0368 -2.1040
16230TIP3    H248613   6.594   7.634   1.432 -0.0509  0.7519 -0.3554
16231TIP3   OH248614   3.887   4.682   7.236  0.0957 -0.3254  0.5114
16231TIP3    H148615   3.875   4.602   7.288  0.9557 -0.1549  0.9925
16231TIP3    H248616   3.798   4.712   7.218 -0.2262 -0.5953  1.5838
16232TIP3   OH248617   8.501   0.446   0.995 -0.1723  0.2779 -0.0095
16232TIP3    H148618   8.542   0.530   1.018 -0.5387  0.1340  1.2062
16232TIP3    H248619   8.443   0.467   0.923 -2.6717  1.7448  2.3207
16233TIP3   OH248620   7.695   3.816   1.577  0.1121  0.0639  0.0749
16233TIP3    H148621   7.701   3.911   1.588 -1.3815  0.1703  0.0321
16233TIP3    H248622   7.776   3.782   1.617  0.0968  1.2657  1.1566
16234TIP3   OH248623   1.215   1.420   2.331 -0.2510  0.5703 -1.0559
16234TIP3    H148624   1.132   1.380   2.358 -0.7829  1.2071 -1.7722
16234TIP3    H248625   1.252   1.357   2.269 -0.6027  0.6889 -1.3910
16235TIP3   OH248626   0.518   1.679   0.675 -0.5407 -0.0977 -0.8169
16235TIP3    H148627   0.534   1.770   0.648 -0.6688 -0.1781 -1.1724
16235TIP3    H248628   0.497   1.633   0.593  0.3690 -0.6264 -0.7676
16236TIP3   OH248629   1.835   3.115   6.554  0.2040 -0.4756  0.5589
16236TIP3    H148630   1.745   3.136   6.530  0.6219 -1.0898 -1.6885
16236TIP3    H248631   1.833   3.107   6.649 -1.7319  1.2542  0.6947
16237TIP3   OH248632   2.500   2.578   0.300  0.0245 -0.1761  0.3754
16237TIP3    H148633   2.571   2.630   0.338  0.5002  0.2717 -1.0945
16237TIP3    H248634   2.436   2.643   0.270 -0.1511 -0.5050  0.0316
16238TIP3   OH248635   1.563   2.489   1.117 -0.0575  0.5271  0.4231
16238TIP3    H148636   1.483   2.531   1.088  0.1938  1.3556  0.8924
16238TIP3    H248637   1.536   2.401   1.144 -0.8223  0.8245  0.6499
16239TIP3   OH248638   2.397   6.213   7.194  0.4750  0.4385  0.0483
16239TIP3    H148639   2.304   6.210   7.170  0.4649 -0.3820  0.1689
16239TIP3    H248640   2.420   6.305   7.188  0.1721  0.4021 -1.9732
16240TIP3   OH248641   0.533   1.688   1.512  0.6280 -0.4262 -0.1529
16240TIP3    H148642   0.464   1.623   1.500  1.2568 -1.0378 -0.5489
16240TIP3    H248643   0.502   1.765   1.464 -0.7780  0.0709  1.5389
16241TIP3   OH248644   1.338   0.100   2.110  0.0652  0.1102  0.1806
16241TIP3    H148645   1.363   0.009   2.092 -0.8601 -0.0711 -0.1773
16241TIP3    H248646   1.243   0.099   2.116  0.0920  0.9299  0.9120
16242TIP3   OH248647   0.501   2.457   1.583  0.1805  0.2526 -0.0606
16242TIP3    H148648   0.433   2.435   1.519  0.8242 -0.3266 -0.5570
16242TIP3    H248649   0.456   2.510   1.649 -0.4022  1.2825 -1.2544
16243TIP3   OH248650   7.822   3.169   2.835 -0.3334 -0.0877 -0.3147
16243TIP3    H148651   7.770   3.205   2.764  1.4313  1.3175 -0.9399
16243TIP3    H248652   7.851   3.245   2.885  1.0711 -0.8204  0.0334
16244TIP3   OH248653   0.270   1.511   3.031 -0.5884  0.2261 -0.7107
16244TIP3    H148654   0.263   1.473   2.943 -3.4201  0.0449 -0.4512
16244TIP3    H248655   0.194   1.477   3.078  0.8849  0.3122  1.8359
16245TIP3   OH248656   1.526   1.294   0.513 -0.1893 -0.0618 -0.3200
16245TIP3    H148657   1.553   1.298   0.604 -1.8160 -1.5851  0.2665
16245TIP3    H248658   1.601   1.254   0.467  0.3059 -0.0582  0.4825
16246TIP3   OH248659   0.488   1.321   0.616  0.0269 -0.2451 -0.2064
16246TIP3    H148660   0.490   1.231   0.582  1.5844  0.0495 -0.9225
16246TIP3    H248661   0.577   1.336   0.649 -0.5840  0.5949  1.0906
16247TIP3   OH248662   0.319   0.693   1.061 -0.4583 -0.3207 -0.1164
16247TIP3    H148663   0.334   0.608   1.020 -0.1163  0.0256 -0.7096
16247TIP3    H248664   0.405   0.719   1.095 -0.7206 -0.5648  0.7402
16248TIP3   OH248665   1.708   1.958   2.459 -0.7040 -0.4181  0.3406
16248TIP3    H148666   1.690   1.956   2.365 -0.1628 -0.1382  0.2305
16248TIP3    H248667   1.687   2.047   2.485  0.2440 -0.1703  0.2665
16249TIP3   OH248668   3.882   8.415   0.999 -0.7271 -0.3734 -0.3983
16249TIP3    H148669   3.805   8.364   1.023 -2.0349  0.8348 -1.8872
16249TIP3    H248670   3.956   8.357   1.018 -2.0295 -1.8355  0.3496
16250TIP3   OH248671   0.683   2.717   1.951 -0.6537  0.2149  0.2270
16250TIP3    H148672   0.774   2.687   1.951 -0.9007 -0.5812  0.6678
16250TIP3    H248673   0.639   2.661   1.886 -1.3643 -1.2125  1.8741
16251TIP3   OH248674   0.504   4.254   0.405  0.1297 -0.3382  0.7855
16251TIP3    H148675   0.549   4.332   0.436 -0.1414  0.5367 -0.9912
16251TIP3    H248676   0.418   4.285   0.377  0.7171 -0.9378 -1.7694
16252TIP3   OH248677   7.808   4.068   1.491  0.0875 -0.3238 -0.3336
16252TIP3    H148678   7.871   4.091   1.423  0.3768  1.8999  0.6431
16252TIP3    H248679   7.725   4.103   1.460  0.3751  1.4449  0.7934
16253TIP3   OH248680   2.071   1.188   0.769  0.7250 -0.5297 -0.2266
16253TIP3    H148681   2.060   1.283   0.769  2.7166 -0.2660 -1.0074
16253TIP3    H248682   2.006   1.156   0.707 -0.5083  0.2474  0.6585
16254TIP3   OH248683   1.863   2.304   1.022  0.3383  0.2185 -0.2468
16254TIP3    H148684   1.806   2.375   0.995  0.6254  0.5632  0.0463
16254TIP3    H248685   1.805   2.229   1.034 -0.1598  0.7726  0.8312
16255TIP3   OH248686   8.730   0.447   1.646  0.4339  0.1556  0.1587
16255TIP3    H148687   8.749   0.420   1.556  1.4692  1.5109 -0.0367
16255TIP3    H248688   8.816   0.459   1.686 -0.0176  0.9154  0.9143
16256TIP3   OH248689   8.701   3.042   1.625 -1.1362 -0.2915 -0.4772
16256TIP3    H148690   8.737   3.087   1.548 -0.6418  0.1223 -0.0003
16256TIP3    H248691   8.766   3.055   1.694 -1.5315 -0.7544 -0.0112
16257TIP3   OH248692   3.001   5.491   5.088  0.7929  0.0791 -0.4705
16257TIP3    H148693   2.996   5.397   5.105 -2.9664  0.1135 -0.9672
16257TIP3    H248694   2.992   5.532   5.174  2.7754  0.0331 -0.2116
16258TIP3   OH248695   8.797   3.720   2.472 -0.4765 -0.2125  0.4210
16258TIP3    H148696   8.707   3.687   2.476 -0.2201 -1.3198 -2.0168
16258TIP3    H248697   8.850   3.647   2.502 -0.3306  0.1969  1.1671
16259TIP3   OH248698   1.171   3.807   1.124  0.1592 -0.0150  0.5761
16259TIP3    H148699   1.259   3.839   1.143 -0.3509  1.0813  1.1433
16259TIP3    H248700   1.141   3.859   1.050 -0.5558  0.6260  1.3039
16260TIP3   OH248701   8.127   0.919   0.630  0.2161  0.2127  0.5751
16260TIP3    H148702   8.115   1.006   0.592  1.4104 -0.8951 -2.5337
16260TIP3    H248703   8.038   0.888   0.647 -0.3270  1.1326 -0.5151
16261TIP3   OH248704   3.627   4.382   6.437 -0.1251  0.9363  0.2679
16261TIP3    H148705   3.648   4.433   6.359  0.2439  0.5997  0.1476
16261TIP3    H248706   3.685   4.306   6.433  0.8079  1.5724  1.5565
16262TIP3   OH248707   0.647   3.216   0.315 -0.2639 -0.5379 -0.3867
16262TIP3    H148708   0.683   3.247   0.398 -3.6792  2.0043  0.2686
16262TIP3    H248709   0.601   3.134   0.337 -0.4031 -0.3365  0.0778
16263TIP3   OH248710   0.933   3.753   1.256  0.7047  0.2090 -0.0060
16263TIP3    H148711   1.006   3.748   1.195 -1.3338  2.2269 -2.7129
16263TIP3    H248712   0.939   3.842   1.293 -1.1490  0.9027 -1.3027
16264TIP3   OH248713   7.523   2.101   1.273  0.5437  0.2970  0.8067
16264TIP3    H148714   7.563   2.188   1.272 -1.1065  1.0660 -2.8948
16264TIP3    H248715   7.585   2.046   1.225 -1.2230  0.8271 -2.2173
16265TIP3   OH248716   8.797   2.690   1.428 -0.1738  0.1592 -0.2097
16265TIP3    H148717   8.835   2.612   1.467  2.0566  1.8968  1.2296
16265TIP3    H248718   8.842   2.701   1.344  0.6233  0.7160  0.2793
16266TIP3   OH248719   2.226   3.898   0.060  0.1508 -0.1780  0.2334
16266TIP3    H148720   2.320   3.895   0.079 -0.0981  0.7927  1.6959
16266TIP3    H248721   2.212   3.985   0.023 -0.4660  0.3601  1.6998
16267TIP3   OH248722   1.924   2.423   2.355 -0.4375 -0.2713 -0.3415
16267TIP3    H148723   1.980   2.465   2.421  0.7884 -1.2102 -0.7539
16267TIP3    H248724   1.923   2.484   2.281 -0.8339  0.2407  0.0913
16268TIP3   OH248725   0.045   3.079   0.329 -0.2494  0.7893 -0.5054
16268TIP3    H148726   0.015   3.006   0.383  1.0068  0.6474  0.0191
16268TIP3    H248727   0.136   3.058   0.308 -0.0805  1.8802 -0.8952
16269TIP3   OH248728   7.770   6.273   2.819 -0.2707 -0.3036 -0.0982
16269TIP3    H148729   7.744   6.365   2.816 -1.8719 -0.7159  0.6279
16269TIP3    H248730   7.847   6.268   2.763 -0.6980  1.3052 -0.8562
16270TIP3   OH248731   1.541   1.258   1.150 -0.0947 -0.1313 -0.5951
16270TIP3    H148732   1.609   1.239   1.085  1.6610  0.6354  0.9747
16270TIP3    H248733   1.501   1.339   1.119 -0.2169 -0.5054 -1.4514
16271TIP3   OH248734   8.778   2.156   2.571 -0.7871 -0.4305  0.3839
16271TIP3    H148735   8.772   2.167   2.666 -2.0718 -0.4593  0.3158
16271TIP3    H248736   8.689   2.171   2.539 -0.1034  0.9116 -0.9676
16272TIP3   OH248737   6.876   1.276   2.273 -0.0492 -0.4625  0.5048
16272TIP3    H148738   6.962   1.252   2.239  0.0445 -0.8796  1.0239
16272TIP3    H248739   6.893   1.350   2.332 -0.1700  0.0626 -0.1218
16273TIP3   OH248740   0.356   3.457   0.530 -0.0120  0.0131 -0.5049
16273TIP3    H148741   0.274   3.507   0.532  0.2780  0.5011 -0.5369
16273TIP3    H248742   0.421   3.519   0.496  0.4647 -0.2181 -0.0320
16274TIP3   OH248743   7.362   1.846   1.016  0.0664  0.1386 -0.7889
16274TIP3    H148744   7.342   1.843   0.922  0.8081  2.0421 -1.0222
16274TIP3    H248745   7.442   1.898   1.022  1.7045 -2.3970  0.6639
16275TIP3   OH248746   7.867   4.017   1.756  0.1827 -0.1680 -0.0205
16275TIP3    H148747   7.840   4.040   1.668 -0.2590  0.5608  0.3025
16275TIP3    H248748   7.962   4.026   1.756  0.0678  1.0806 -0.0677
16276TIP3   OH248749   0.798   0.908   1.344 -0.0832 -0.4265  0.7257
16276TIP3    H148750   0.818   0.904   1.437  2.8143 -0.2297  0.1556
16276TIP3    H248751   0.706   0.934   1.340 -0.7266 -2.1521  3.5268
16277TIP3   OH248752   0.874   2.206   3.345 -0.0118  0.1666  0.0650
16277TIP3    H148753   0.852   2.198   3.252 -0.3102  1.6435  0.0071
16277TIP3    H248754   0.966   2.179   3.350 -0.7208 -2.5118 -0.2335
16278TIP3   OH248755   5.926   8.165   1.335  0.3655 -0.0372 -0.5060
16278TIP3    H148756   5.991   8.208   1.389  1.7022 -0.1591 -1.9899
16278TIP3    H248757   5.843   8.207   1.359  0.6413 -1.3274  2.8768
16279TIP3   OH248758   1.102   2.572   1.246  0.2742  0.5196 -0.0584
16279TIP3    H148759   1.028   2.606   1.295  1.2637 -0.1461  1.9528
16279TIP3    H248760   1.062   2.525   1.172 -1.5386 -2.9796  2.9599
16280TIP3   OH248761   7.397   0.449   1.779  0.2731  0.3612 -0.0980
16280TIP3    H148762   7.471   0.449   1.718 -0.4722  2.0497 -1.0256
16280TIP3    H248763   7.429   0.400   1.855  1.8455 -0.1707 -1.0673
16281TIP3   OH248764   6.299   8.057   0.920  0.0046  0.2100  0.7275
16281TIP3    H148765   6.362   8.037   0.850  1.1495  0.8380  1.5661
16281TIP3    H248766   6.231   7.991   0.909 -0.0152  0.5062 -1.2014
16282TIP3   OH248767   6.324   8.327   2.458 -0.3337 -0.0581  0.5789
16282TIP3    H148768   6.399   8.379   2.487 -0.2533 -1.1774  2.4455
16282TIP3    H248769   6.250   8.362   2.507 -0.6754 -0.2840  0.2282
16283TIP3   OH248770   4.388   0.981   5.994  0.1269  0.1609 -0.9334
16283TIP3    H148771   4.405   0.892   6.023 -0.8364 -0.0261 -0.9099
16283TIP3    H248772   4.418   0.984   5.903  0.3048 -0.1394 -0.8818
16284TIP3   OH248773   0.907   1.483   0.172  0.2879  0.3694 -0.3533
16284TIP3    H148774   0.834   1.541   0.150  0.3479  0.1822 -1.0554
16284TIP3    H248775   0.927   1.438   0.090  0.0564 -0.8442  0.2374
16285TIP3   OH248776   8.152   8.015   0.392 -0.4641  0.0169 -0.3711
16285TIP3    H148777   8.170   7.942   0.333 -2.0733 -1.1054  0.4896
16285TIP3    H248778   8.205   8.087   0.357  2.3492 -1.9576 -0.3400
16286TIP3   OH248779   2.316   4.683   0.730 -0.3336  0.3088  0.1818
16286TIP3    H148780   2.268   4.753   0.774 -1.0678 -0.0647 -0.0180
16286TIP3    H248781   2.385   4.659   0.791 -1.5193 -0.3945  1.2635
16287TIP3   OH248782   2.509   6.504   6.542 -0.4982  0.2618  0.3865
16287TIP3    H148783   2.531   6.547   6.459  1.1939  0.8238  1.1127
16287TIP3    H248784   2.418   6.477   6.531 -0.4178  0.6751 -1.5098
16288TIP3   OH248785   0.215   0.439   1.338  0.6813  0.4277 -0.2400
16288TIP3    H148786   0.203   0.530   1.308 -0.6025 -0.2314 -1.8383
16288TIP3    H248787   0.303   0.437   1.375  1.7537  1.7263 -2.5704
16289TIP3   OH248788   0.606   2.452   0.391  0.2880  0.1852 -0.1451
16289TIP3    H148789   0.560   2.483   0.312  0.1838 -2.1021 -1.0216
16289TIP3    H248790   0.536   2.421   0.448  0.2190  3.3569  1.6262
16290TIP3   OH248791   8.687   1.164   0.181  0.2703 -0.2227 -0.2399
16290TIP3    H148792   8.780   1.179   0.164  0.3081  0.8613  0.8680
16290TIP3    H248793   8.642   1.221   0.119  0.3826  1.4429  1.1756
16291TIP3   OH248794   3.010   4.819   6.972 -0.1049 -0.3087  0.0256
16291TIP3    H148795   3.079   4.757   6.948  0.4347 -0.7326  2.5734
16291TIP3    H248796   2.936   4.796   6.916  0.9241 -1.6012 -0.8263
16292TIP3   OH248797   0.834   4.361   0.657 -0.3021  0.3806 -0.6575
16292TIP3    H148798   0.876   4.435   0.613  0.5616 -0.4184 -1.2077
16292TIP3    H248799   0.859   4.285   0.604 -0.4970 -0.4074  0.3750
16293TIP3   OH248800   0.823   1.804   0.033  0.1659  0.1758  0.0286
16293TIP3    H148801   0.891   1.854   0.078 -0.1257 -0.8144  1.5986
16293TIP3    H248802   0.852   1.801  -0.059  1.8009  0.4811  0.5262
16294TIP3   OH248803   0.311   2.162   0.130 -0.4617  0.1612  0.1113
16294TIP3    H148804   0.233   2.206   0.164  0.4667  0.4189  1.9833
16294TIP3    H248805   0.350   2.120   0.207  0.6035 -0.9709 -1.0114
16295TIP3   OH248806   3.571   5.241   5.615 -0.4323 -0.5882  0.2855
16295TIP3    H148807   3.596   5.222   5.525 -1.0213 -0.8464  0.1740
16295TIP3    H248808   3.498   5.181   5.633 -0.2799 -0.5766  0.9483
16296TIP3   OH248809   8.834   2.135   2.307  0.4150 -0.3219  0.0377
16296TIP3    H148810   8.837   2.221   2.265  0.2337 -0.2809  0.1132
16296TIP3    H248811   8.836   2.153   2.401  1.7132 -0.4398  0.0503
16297TIP3   OH248812   4.490   5.871   6.438  0.7453  0.4693 -0.1178
16297TIP3    H148813   4.413   5.886   6.494  1.0790  0.1815  0.4244
16297TIP3    H248814   4.563   5.902   6.491  0.9875  0.8390 -0.6798
16298TIP3   OH248815   0.580   2.010   2.676 -0.6552 -0.0753  0.4111
16298TIP3    H148816   0.596   2.094   2.634 -0.9491  0.0430  0.5404
16298TIP3    H248817   0.642   1.950   2.634 -0.6500  0.1385  0.1160
16299TIP3   OH248818   3.133   5.915   7.114  0.2018 -0.0794 -0.4406
16299TIP3    H148819   3.067   5.849   7.092  2.8380 -2.9598  0.0270
16299TIP3    H248820   3.150   5.902   7.207 -0.0160  2.0217 -0.0907
16300TIP3   OH248821   1.126   0.801   1.291  0.5876 -0.9101  0.1815
16300TIP3    H148822   1.047   0.749   1.309 -0.3426  0.3110 -0.3237
16300TIP3    H248823   1.146   0.845   1.374  0.5872 -1.0032  0.2316
16301TIP3   OH248824   4.749   0.723   5.498 -0.1323  0.0602 -0.0621
16301TIP3    H148825   4.759   0.716   5.593 -0.6015 -0.8312 -0.0763
16301TIP3    H248826   4.776   0.638   5.465 -1.4335 -0.1457 -0.6144
16302TIP3   OH248827   2.667   3.080   2.384 -0.2496  0.2597  0.0888
16302TIP3    H148828   2.734   3.015   2.365 -0.9745 -0.1044 -1.2558
16302TIP3    H248829   2.690   3.113   2.471  1.4725 -0.0874 -0.2196
16303TIP3   OH248830   0.821   1.732   1.504 -0.3377  0.5029 -0.6597
16303TIP3    H148831   0.864   1.723   1.589 -0.0771  0.5116 -0.7922
16303TIP3    H248832   0.728   1.741   1.526 -0.3826 -0.4734 -0.4239
16304TIP3   OH248833   0.366   2.542   4.096  0.1712  0.0120  0.0089
16304TIP3    H148834   0.432   2.473   4.103  0.7579  0.6812  1.3498
16304TIP3    H248835   0.311   2.516   4.023 -0.1397 -2.3227  1.0379
16305TIP3   OH248836   1.151   2.110   3.678 -0.6359 -0.4188 -0.5403
16305TIP3    H148837   1.135   2.186   3.622  2.1187  0.1013 -0.6691
16305TIP3    H248838   1.101   2.039   3.636 -1.5075  0.7953 -1.6129
16306TIP3   OH248839   0.204   0.913   1.437 -0.1261 -0.0384 -0.6718
16306TIP3    H148840   0.247   0.998   1.434 -1.2528  0.6142  0.7928
16306TIP3    H248841   0.270   0.854   1.472  0.3255  0.4694 -0.6644
16307TIP3   OH248842   8.870   2.033   3.663 -0.9081  0.0936  0.0960
16307TIP3    H148843   8.798   2.011   3.723  0.7627 -2.1213  1.3800
16307TIP3    H248844   8.846   1.991   3.580 -1.7209  0.4762  0.1354
16308TIP3   OH248845   0.922   1.986   2.163 -0.1565 -0.5436 -0.3565
16308TIP3    H148846   0.940   1.909   2.217  0.3645  0.4956  0.9656
16308TIP3    H248847   0.831   2.008   2.184  0.5027  0.7377  1.2315
16309TIP3   OH248848   1.740   1.756   0.707  0.2015  0.1988 -0.0684
16309TIP3    H148849   1.720   1.849   0.693  0.8896  0.6725  1.8711
16309TIP3    H248850   1.731   1.716   0.621  0.5614  2.1986 -1.0692
16310TIP3   OH248851   0.332   3.288   2.294 -0.0977  0.0535  0.3754
16310TIP3    H148852   0.239   3.291   2.317 -0.5208  1.3203 -1.4052
16310TIP3    H248853   0.367   3.371   2.325  1.2831 -1.8454  4.2449
16311TIP3   OH248854   0.455   2.848   2.460 -0.0572 -0.1313  0.4303
16311TIP3    H148855   0.525   2.851   2.395  0.1824 -1.6045  0.6102
16311TIP3    H248856   0.407   2.931   2.447 -0.8298 -0.9722 -2.5115
16312TIP3   OH248857   1.307   2.231   2.075  0.2274  0.3468 -0.2820
16312TIP3    H148858   1.374   2.197   2.017  1.4385 -2.6958  2.7641
16312TIP3    H248859   1.232   2.173   2.062 -0.1778  0.8514 -0.2230
16313TIP3   OH248860   1.875   0.433   2.526  0.5360  0.3027  0.2691
16313TIP3    H148861   1.809   0.370   2.501  0.9517 -0.6784  1.6010
16313TIP3    H248862   1.941   0.382   2.574  0.6155  1.8082  1.8253
16314TIP3   OH248863   6.916   0.575   4.116  0.3881  0.3352 -0.4327
16314TIP3    H148864   6.987   0.536   4.065  0.6716 -0.5970  0.6482
16314TIP3    H248865   6.958   0.611   4.194 -0.1265  1.1536 -0.5270
16315TIP3   OH248866   8.321   1.052   2.492  0.5618  0.7609 -0.7170
16315TIP3    H148867   8.228   1.056   2.471  0.1660  0.4561  0.9423
16315TIP3    H248868   8.334   0.964   2.528  1.3144  1.1189 -0.1002
16316TIP3   OH248869   2.616   6.866   6.808 -0.4577 -0.6056 -0.0736
16316TIP3    H148870   2.669   6.910   6.875 -1.1589 -0.2277  0.2335
16316TIP3    H248871   2.671   6.867   6.730 -0.2748  0.3965  0.0642
16317TIP3   OH248872   0.151   3.647   2.608  0.4882 -0.1893 -0.7691
16317TIP3    H148873   0.119   3.663   2.697  2.2357  0.1661 -0.1924
16317TIP3    H248874   0.185   3.732   2.579 -0.0492 -0.3127 -1.7643
16318TIP3   OH248875   6.510   2.617   0.742 -0.1053 -0.1932 -0.0255
16318TIP3    H148876   6.479   2.536   0.783  0.1638  0.0419  0.6464
16318TIP3    H248877   6.487   2.686   0.804  0.5302  0.1370 -0.1491
16319TIP3   OH248878   0.688   3.102   0.056  0.3788 -0.5158 -0.5101
16319TIP3    H148879   0.645   3.019   0.072  1.9924 -1.2513  0.0629
16319TIP3    H248880   0.647   3.135  -0.025  0.3831 -2.2847 -1.2478
16320TIP3   OH248881   7.452   3.846   0.242  0.4909 -0.1609  0.2043
16320TIP3    H148882   7.414   3.759   0.255 -1.3682  0.6303  0.2798
16320TIP3    H248883   7.408   3.901   0.307  0.7308  1.0999 -0.6831
16321TIP3   OH248884  -0.006   4.126   2.616  0.0307 -0.6475 -0.0821
16321TIP3    H148885   0.010   4.207   2.665  0.8808  0.0386 -1.4908
16321TIP3    H248886   0.079   4.102   2.580 -0.1832 -2.2644  0.4332
16322TIP3   OH248887   0.135   2.793   1.684  0.2344  0.4974  0.0534
16322TIP3    H148888   0.194   2.813   1.756  2.1575  0.3088 -1.4497
16322TIP3    H248889   0.190   2.794   1.606 -1.4691 -1.0921 -1.2128
16323TIP3   OH248890   4.064   6.960   6.914 -0.2502  0.4552  0.1947
16323TIP3    H148891   4.003   6.940   6.842 -0.8964  0.5564  0.7141
16323TIP3    H248892   4.112   7.037   6.884  0.9109 -0.7055 -1.0021
16324TIP3   OH248893   0.525   1.600   0.952  0.4719  0.3135  0.2111
16324TIP3    H148894   0.531   1.611   0.857  0.4686  1.0818  0.2953
16324TIP3    H248895   0.438   1.633   0.975 -0.8186 -2.7946  0.1007
16325TIP3   OH248896   1.070   2.460   1.488  0.4745 -0.0727  0.4000
16325TIP3    H148897   1.126   2.506   1.425 -0.2598 -0.0522 -0.2472
16325TIP3    H248898   1.071   2.369   1.459 -0.0308 -0.0273  0.2366
16326TIP3   OH248899   1.898   5.201   6.559 -0.0704 -0.2830  0.0346
16326TIP3    H148900   1.989   5.191   6.533 -0.1436 -0.8556 -0.0049
16326TIP3    H248901   1.866   5.275   6.508  0.7017  0.6712  0.9066
16327TIP3   OH248902   0.661   2.032   2.329 -0.3375 -1.1319  0.4482
16327TIP3    H148903   0.588   1.971   2.327 -0.5974 -0.7847 -0.7053
16327TIP3    H248904   0.621   2.118   2.337 -0.2611 -0.6239 -3.6079
16328TIP3   OH248905   0.151   4.322   1.230  0.4568  0.1870 -0.7715
16328TIP3    H148906   0.184   4.250   1.285 -2.6306 -0.3803  0.4331
16328TIP3    H248907   0.210   4.324   1.155  2.4667 -1.5588  0.7050
16329TIP3   OH248908   2.762   4.530   6.110 -0.2146  0.0400 -0.2310
16329TIP3    H148909   2.821   4.471   6.157 -1.2121 -1.1611 -0.4616
16329TIP3    H248910   2.718   4.579   6.178 -1.0826 -1.1412  0.0640
16330TIP3   OH248911   7.510   5.474   6.461 -0.3105  0.0353  0.5211
16330TIP3    H148912   7.599   5.503   6.483  0.0180 -1.2162  0.9009
16330TIP3    H248913   7.476   5.543   6.404  0.7812  0.7030  0.6532
16331TIP3   OH248914   2.076   2.343   1.209  0.3923 -0.1135 -0.3417
16331TIP3    H148915   2.072   2.288   1.287 -1.6380  1.5945  0.8261
16331TIP3    H248916   1.985   2.352   1.181  0.8120  1.5427 -1.2748
16332TIP3   OH248917   8.486   2.658   0.291  0.1389 -0.1415 -0.2300
16332TIP3    H148918   8.554   2.717   0.258  0.2293  0.1033  0.3876
16332TIP3    H248919   8.474   2.594   0.221 -0.4238  0.9825 -1.1889
16333TIP3   OH248920   1.384   2.471   1.617  0.3663 -0.3715  0.2209
16333TIP3    H148921   1.456   2.530   1.641 -2.0998  2.8969 -0.0150
16333TIP3    H248922   1.307   2.527   1.617 -2.1529 -3.7013  0.0867
16334TIP3   OH248923   3.044   1.997   1.541 -0.5157  0.0800 -0.3893
16334TIP3    H148924   2.970   2.051   1.512 -1.5646 -0.1877  1.7255
16334TIP3    H248925   3.119   2.057   1.541 -0.4299  0.0881 -3.6218
16335TIP3   OH248926   3.150   7.878   7.014 -0.4926  0.3109 -0.1090
16335TIP3    H148927   3.137   7.800   7.068 -0.2191  1.1703  1.2107
16335TIP3    H248928   3.245   7.887   7.007 -0.5133  0.8381  0.2208
16336TIP3   OH248929   1.240   1.209   1.761 -0.0305 -0.2013 -0.0845
16336TIP3    H148930   1.279   1.194   1.675  0.7910  1.1929  0.0158
16336TIP3    H248931   1.147   1.221   1.744  0.0367 -0.5605 -0.7049
16337TIP3   OH248932   0.417   1.074   0.961  0.2566  0.0993 -0.0398
16337TIP3    H148933   0.365   1.154   0.951 -1.4973 -0.9039  0.8690
16337TIP3    H248934   0.403   1.026   0.879 -0.3256 -0.2119  0.2408
16338TIP3   OH248935   8.698   0.907   1.522  0.5316  0.2647 -0.0186
16338TIP3    H148936   8.703   0.820   1.482  0.2490 -0.6368  1.8265
16338TIP3    H248937   8.751   0.963   1.466 -0.8574 -0.6689 -2.3343
16339TIP3   OH248938   0.844   0.668   2.331 -0.6633 -0.0054 -0.1927
16339TIP3    H148939   0.938   0.652   2.321 -0.9774 -3.3383  1.4464
16339TIP3    H248940   0.804   0.582   2.323 -3.4092  1.1055  0.9390
16340TIP3   OH248941   2.932   1.757   2.028 -0.4482  0.3235  0.1162
16340TIP3    H148942   2.881   1.676   2.033 -1.9015  1.0217 -2.2568
16340TIP3    H248943   3.015   1.731   1.990 -1.1546  0.0043 -1.2547
16341TIP3   OH248944   3.866   2.825   6.732  0.6013 -0.1264 -0.0964
16341TIP3    H148945   3.865   2.812   6.826 -0.1761  1.9326  0.2002
16341TIP3    H248946   3.914   2.750   6.698  0.6148 -1.0493  1.9039
16342TIP3   OH248947   0.346   2.833   1.900  0.4533 -0.4165 -0.7746
16342TIP3    H148948   0.394   2.750   1.895  0.8048 -0.4096  1.8489
16342TIP3    H248949   0.407   2.894   1.942  0.2500  1.2433 -2.7845
16343TIP3   OH248950   0.474   6.550   0.326 -0.8168 -0.1031  0.1851
16343TIP3    H148951   0.558   6.524   0.287 -1.0270  0.7705 -0.8720
16343TIP3    H248952   0.498   6.596   0.406 -0.2913  0.0199 -0.0407
16344TIP3   OH248953   7.949   0.331   1.408  0.0936  0.0442 -0.2336
16344TIP3    H148954   7.932   0.398   1.474  2.3299  0.4414 -0.0263
16344TIP3    H248955   7.908   0.252   1.443 -1.0482  0.8732  0.3475
16345TIP3   OH248956   7.722   7.703   1.112  0.3099 -0.4843 -0.0902
16345TIP3    H148957   7.656   7.652   1.065  0.3875  0.4444 -1.2035
16345TIP3    H248958   7.682   7.719   1.198  0.8342 -3.5504  0.7752
16346TIP3   OH248959   0.843   1.474   1.857 -0.5724 -0.2671 -0.4300
16346TIP3    H148960   0.856   1.438   1.769 -3.1807  1.8065 -1.7363
16346TIP3    H248961   0.765   1.428   1.890  0.0115 -0.5605  0.5587
16347TIP3   OH248962   1.976   5.982   6.119 -0.0829  0.3378 -0.7220
16347TIP3    H148963   2.041   6.034   6.167 -0.6493  0.6543 -0.2856
16347TIP3    H248964   2.012   5.893   6.119 -0.5982  0.0903  1.2941
16348TIP3   OH248965   1.919   3.948   0.976  0.2133 -0.3905  0.6381
16348TIP3    H148966   2.002   3.996   0.972  0.8441 -1.3860  1.5483
16348TIP3    H248967   1.854   4.010   0.943  1.1888  0.6868  0.7027
16349TIP3   OH248968   0.660   1.047   2.142 -0.1055  0.7321  0.7920
16349TIP3    H148969   0.747   1.058   2.180  0.2592  0.1863  0.1433
16349TIP3    H248970   0.635   0.957   2.163  0.9338 -0.2268 -1.8658
16350TIP3   OH248971   1.913   2.659   2.197 -0.0368 -0.5405  0.0814
16350TIP3    H148972   1.845   2.679   2.261 -1.0311 -0.2994 -1.0404
16350TIP3    H248973   1.927   2.741   2.151  0.8316 -0.6603  0.1250
16351TIP3   OH248974   0.881   2.046   1.713 -0.2718  0.1601 -0.5898
16351TIP3    H148975   0.856   1.954   1.719  0.0178  0.1877  1.8234
16351TIP3    H248976   0.798   2.093   1.720 -0.2922  0.0889 -0.3115
16352TIP3   OH248977   0.709   2.685   1.569  0.0063 -0.0341  0.0761
16352TIP3    H148978   0.671   2.597   1.569 -0.5467  0.1823  1.4832
16352TIP3    H248979   0.647   2.737   1.518  0.7432 -0.6085 -1.4414
16353TIP3   OH248980   0.189   3.298   0.831 -0.5784  0.3232  0.6227
16353TIP3    H148981   0.152   3.384   0.809  0.7015  1.0154  1.0989
16353TIP3    H248982   0.256   3.317   0.897 -0.0116 -0.9969  0.4453
16354TIP3   OH248983   5.313   8.356   2.826  0.6458  0.2441  0.5258
16354TIP3    H148984   5.285   8.275   2.870 -1.6356  0.0527 -1.2034
16354TIP3    H248985   5.404   8.340   2.801  0.8152 -1.0430  1.8901
16355TIP3   OH248986   7.320   0.609   0.384 -0.3432  0.0259  0.0984
16355TIP3    H148987   7.273   0.675   0.436 -0.8261 -0.1456 -0.1207
16355TIP3    H248988   7.346   0.656   0.305  0.3447  0.2725  0.4690
16356TIP3   OH248989   1.069   0.220   2.404 -0.4887  0.1831  0.1381
16356TIP3    H148990   1.056   0.184   2.317 -0.1479 -0.4945  0.3665
16356TIP3    H248991   1.141   0.283   2.394  1.2751 -1.7080  0.4032
16357TIP3   OH248992   8.439   0.100   2.566 -0.3724  0.1345 -0.1580
16357TIP3    H148993   8.511   0.037   2.577 -0.5965  0.1895  1.8822
16357TIP3    H248994   8.366   0.047   2.532 -0.4352 -0.6513  1.1631
16358TIP3   OH248995   0.473   1.710   1.799  0.2342  0.3045  0.4567
16358TIP3    H148996   0.506   1.701   1.710  1.1230 -0.2685  0.8384
16358TIP3    H248997   0.442   1.623   1.823  1.2905  0.1345  1.2097
16359TIP3   OH248998   1.900   8.124   7.170  0.1080  0.7641  0.0218
16359TIP3    H148999   1.896   8.198   7.110 -1.3007 -0.6977 -1.7739
16359TIP3    H249000   1.918   8.049   7.113  1.8050 -0.2239  1.8356
16360TIP3   OH249001   0.572   0.644   1.914  0.0076 -0.5035  0.1367
16360TIP3    H149002   0.587   0.733   1.945  2.3861 -1.0331  0.6415
16360TIP3    H249003   0.569   0.591   1.994  0.3283 -1.0983 -0.2407
16361TIP3   OH249004   0.716   2.847   6.876  0.2888 -0.6199 -0.2119
16361TIP3    H149005   0.708   2.805   6.791  0.8066 -0.7933 -0.1763
16361TIP3    H249006   0.796   2.900   6.869  1.5858 -2.3600  0.8982
16362TIP3   OH249007   2.205   5.796   5.102  0.2474 -0.0370 -0.3674
16362TIP3    H149008   2.196   5.701   5.108  0.9385 -0.0398  0.8676
16362TIP3    H249009   2.300   5.811   5.099  0.1115  0.4783 -3.2556
16363TIP3   OH249010   3.722   2.236   0.565  0.6006 -0.3124 -0.3643
16363TIP3    H149011   3.817   2.230   0.558  0.6245 -0.9176  0.4722
16363TIP3    H249012   3.704   2.326   0.590  1.0244 -0.5411  0.7583
16364TIP3   OH249013   1.028   2.414   1.748 -0.3252 -0.2421  0.1808
16364TIP3    H149014   1.037   2.469   1.669  1.2007  0.6159  0.9291
16364TIP3    H249015   1.094   2.346   1.736 -1.3113 -1.1423 -0.1174
16365TIP3   OH249016   4.534   5.754   6.803  0.1629  0.1455  0.8015
16365TIP3    H149017   4.573   5.835   6.838 -1.3155  1.0121  0.4913
16365TIP3    H249018   4.456   5.784   6.757  0.1118 -1.3867 -0.1238
16366TIP3   OH249019   1.497   2.496   2.465  0.3187 -0.1178 -0.2396
16366TIP3    H149020   1.439   2.546   2.521 -2.7107 -2.5771 -1.0530
16366TIP3    H249021   1.523   2.420   2.518  0.9973 -0.1713 -0.6396
16367TIP3   OH249022   2.192   2.270   1.977 -0.0207  0.1143 -0.6388
16367TIP3    H149023   2.153   2.352   2.008 -2.1786 -1.2103  0.2869
16367TIP3    H249024   2.151   2.255   1.892  0.9928  0.3929 -1.1849
16368TIP3   OH249025   1.188   3.027   0.431 -0.2514  0.7252  0.5660
16368TIP3    H149026   1.183   3.105   0.486 -0.1199 -0.6960  2.6342
16368TIP3    H249027   1.109   2.978   0.452 -0.0764  0.0526 -0.3352
16369TIP3   OH249028   2.112   1.999   1.076 -0.0540 -0.0118 -0.6024
16369TIP3    H149029   2.049   1.966   1.140 -0.3286 -1.3218 -1.5417
16369TIP3    H249030   2.068   1.990   0.991  0.9964  0.0358 -1.1659
16370TIP3   OH249031   1.408   0.852   0.989 -0.6752 -0.0108  0.1767
16370TIP3    H149032   1.318   0.839   0.959  0.2732 -0.8356 -2.3946
16370TIP3    H249033   1.447   0.913   0.926  0.0429  1.8368  2.3374
16371TIP3   OH249034   3.006   4.247   7.052  0.2304  0.9077  0.0767
16371TIP3    H149035   3.003   4.204   7.138  1.7046  0.2772 -0.1545
16371TIP3    H249036   3.029   4.338   7.072 -0.0159  0.8989  0.3995
16372TIP3   OH249037   7.953   0.357   6.677 -0.3808 -1.1665  0.0412
16372TIP3    H149038   7.926   0.312   6.597  1.7646  0.0009 -1.4093
16372TIP3    H249039   8.019   0.300   6.716 -1.2298 -1.6048  0.8638
16373TIP3   OH249040   1.948   1.628   0.014  0.2784 -0.3421  0.2657
16373TIP3    H149041   1.968   1.709   0.061  0.1197 -0.0010 -0.2492
16373TIP3    H249042   1.981   1.559   0.070  1.8388  0.1514 -0.0181
16374TIP3   OH249043   7.117   6.229   6.665 -0.3231  0.2091 -0.6316
16374TIP3    H149044   7.052   6.174   6.621  0.9666 -1.2948 -0.7000
16374TIP3    H249045   7.111   6.204   6.757  0.8598 -0.6690 -0.7881
16375TIP3   OH249046   6.424   4.734   6.272  0.0556  0.1016 -0.1205
16375TIP3    H149047   6.425   4.667   6.341 -0.1801  0.5084  0.2775
16375TIP3    H249048   6.514   4.765   6.267  0.2511 -0.5288 -0.5829
16376TIP3   OH249049   2.679   2.425   0.104 -0.5732  0.4472  0.3426
16376TIP3    H149050   2.595   2.466   0.129 -1.2911 -0.3047 -0.7922
16376TIP3    H249051   2.665   2.331   0.117  0.1210  0.3262  0.2336
16377TIP3   OH249052   3.705   5.097   7.218 -0.2966  0.3085 -0.5796
16377TIP3    H149053   3.666   5.136   7.296 -2.1534 -0.2955 -1.1801
16377TIP3    H249054   3.637   5.102   7.151  0.4280 -1.3345 -1.4922
16378TIP3   OH249055   6.787   7.725   0.348  0.4358  0.3586  0.0485
16378TIP3    H149056   6.699   7.715   0.312  0.5833 -2.4022  0.3810
16378TIP3    H249057   6.805   7.819   0.341 -3.0012  1.1469  1.1373
16379TIP3   OH249058   5.022   6.078   6.884  0.5397  0.3852  0.4073
16379TIP3    H149059   5.043   5.991   6.852  2.2277  0.9902 -0.1960
16379TIP3    H249060   4.960   6.114   6.821  0.0585 -0.2686  0.5091
16380TIP3   OH249061   5.861   7.197   6.859 -0.3487 -0.0336  0.0706
16380TIP3    H149062   5.907   7.249   6.924  1.8143  0.5734 -1.8812
16380TIP3    H249063   5.788   7.252   6.831  1.1172  1.4357 -0.9689
16381TIP3   OH249064   6.503   8.029   0.289  0.0600  0.1240  0.1632
16381TIP3    H149065   6.441   7.993   0.226 -1.4571  0.6880  1.3012
16381TIP3    H249066   6.575   8.062   0.236  0.0170 -1.7137 -1.1084
16382TIP3   OH249067   2.200   3.416   0.872  0.2428 -0.1227 -0.5513
16382TIP3    H149068   2.236   3.363   0.801 -1.0404  0.3694 -1.5952
16382TIP3    H249069   2.276   3.458   0.913  1.1298 -1.6251 -0.6382
16383TIP3   OH249070   1.663   2.025   0.608 -0.3094  0.3434  0.2620
16383TIP3    H149071   1.740   2.051   0.659 -0.4372 -0.3491  0.8080
16383TIP3    H249072   1.589   2.067   0.652 -0.2079  1.2830 -0.4595
16384TIP3   OH249073   2.561   3.668   1.830 -0.1107 -0.8538 -0.1289
16384TIP3    H149074   2.571   3.575   1.809  1.9700 -1.3066  2.6378
16384TIP3    H249075   2.550   3.670   1.925 -1.4247  1.6620 -0.2862
16385TIP3   OH249076   5.927   8.090   5.924 -0.2919  0.2728  0.3123
16385TIP3    H149077   5.963   8.075   6.012 -0.8921 -1.8652  0.2156
16385TIP3    H249078   5.989   8.047   5.865 -0.3965  0.8869 -0.2535
16386TIP3   OH249079   0.233   1.192   0.049  0.1835  0.1092 -0.6755
16386TIP3    H149080   0.191   1.240  -0.023 -1.3306 -0.2596 -0.0626
16386TIP3    H249081   0.177   1.116   0.063  0.2104  0.3963  1.1633
16387TIP3   OH249082   3.681   7.118   6.609  0.6287 -0.1290  0.3063
16387TIP3    H149083   3.750   7.059   6.638  0.3058 -1.2594 -1.1636
16387TIP3    H249084   3.724   7.203   6.600  1.6103 -0.6251  0.3019
16388TIP3   OH249085   1.011   2.495   0.991  0.7062 -0.1922 -0.9336
16388TIP3    H149086   0.985   2.404   1.005  0.2195  0.2012  0.8750
16388TIP3    H249087   0.931   2.538   0.960  0.5857 -0.1258 -0.5430
16389TIP3   OH249088   4.478   2.200   2.900  0.0553 -0.3557  0.0403
16389TIP3    H149089   4.496   2.178   2.809  0.1121  3.1950 -0.8956
16389TIP3    H249090   4.500   2.293   2.907 -2.4060  0.0994  2.9929
16390TIP3   OH249091   3.819   6.815   5.628  0.0145 -0.0675 -0.2308
16390TIP3    H149092   3.836   6.908   5.640  0.7321 -0.4491  2.1939
16390TIP3    H249093   3.768   6.790   5.705 -0.0697 -1.6836 -0.7854
16391TIP3   OH249094   4.761   7.906   6.440 -0.2309  0.0539  0.0338
16391TIP3    H149095   4.814   7.890   6.519 -1.7975 -1.6864  0.7693
16391TIP3    H249096   4.818   7.959   6.384  1.2238  0.6414  1.9782
16392TIP3   OH249097   0.226   1.680   0.118 -0.6781 -0.2648  0.1660
16392TIP3    H149098   0.164   1.734   0.167 -0.0674  0.1498  0.4771
16392TIP3    H249099   0.290   1.652   0.183  0.1537  0.3061 -0.3983
16393TIP3   OH249100   4.849   1.247   0.526  0.2880  0.0341  0.1395
16393TIP3    H149101   4.880   1.213   0.442 -1.0927 -0.3650 -0.2356
16393TIP3    H249102   4.754   1.232   0.524  0.0385  1.3728  1.1563
16394TIP3   OH249103   5.717   8.375   6.526 -1.0081 -0.5653  0.2038
16394TIP3    H149104   5.625   8.369   6.502 -1.1549  0.1711  0.5469
16394TIP3    H249105   5.726   8.317   6.601 -1.2381 -0.4978  0.2839
16395TIP3   OH249106   0.464   0.225   6.850  0.1389  0.2497  0.2113
16395TIP3    H149107   0.539   0.285   6.852 -0.7601  1.5137 -2.1524
16395TIP3    H249108   0.502   0.140   6.830  0.9539  0.9140 -1.1500
16396TIP3   OH249109   3.046   3.850   0.887 -0.4346  0.2276 -0.7117
16396TIP3    H149110   3.001   3.774   0.850  0.6486  0.3178 -2.2173
16396TIP3    H249111   3.021   3.923   0.832 -1.1985  0.9286  0.5325
16397TIP3   OH249112   2.774   3.001   0.414 -0.1971 -0.2993  0.3903
16397TIP3    H149113   2.737   3.088   0.401  1.0626  0.1209 -0.5085
16397TIP3    H249114   2.824   2.984   0.333  2.3037 -0.4638  1.9111
16398TIP3   OH249115   0.953   4.013   1.330 -0.4217 -0.2091 -0.0872
16398TIP3    H149116   0.868   3.986   1.295 -0.1167  0.6698 -1.5784
16398TIP3    H249117   0.984   4.079   1.268  0.7694  0.4146  1.1483
16399TIP3   OH249118   0.478   1.066   0.528 -0.6511  0.1761 -0.3952
16399TIP3    H149119   0.456   1.006   0.457 -0.3839  0.8238 -1.0263
16399TIP3    H249120   0.448   1.021   0.607  0.0656 -1.0422 -0.8034
16400TIP3   OH249121   4.169   5.537   6.333  0.1371  0.2458  0.3559
16400TIP3    H149122   4.115   5.485   6.274  1.2679  0.1196 -0.5902
16400TIP3    H249123   4.259   5.506   6.317  0.4331  0.1162  2.2500
16401TIP3   OH249124   2.625   4.334   0.754  0.3082  0.3273  0.3702
16401TIP3    H149125   2.623   4.240   0.771 -1.8775  0.7421  2.7376
16401TIP3    H249126   2.653   4.374   0.836  1.4729  1.7546 -0.6827
16402TIP3   OH249127   6.898   7.128   7.174 -0.0599  0.2755 -0.5359
16402TIP3    H149128   6.928   7.181   7.101  0.4772  0.7268  0.0033
16402TIP3    H249129   6.901   7.037   7.142  1.2395  0.3767 -0.7030
16403TIP3   OH249130   8.086   7.837   0.597  0.0160  0.3589  0.0911
16403TIP3    H149131   8.109   7.866   0.685 -1.6306 -0.0674  0.6775
16403TIP3    H249132   8.122   7.904   0.539  2.1623  0.0231  0.9932
16404TIP3   OH249133   0.794   3.204   1.064 -0.1103 -0.3008 -0.3106
16404TIP3    H149134   0.867   3.211   1.002 -1.1015  0.1107 -1.4532
16404TIP3    H249135   0.718   3.186   1.009 -1.3780  2.1520  0.5567
16405TIP3   OH249136   5.301   6.277   6.641 -0.2679  0.4695  0.2720
16405TIP3    H149137   5.294   6.183   6.660  0.5229 -0.0639 -1.9060
16405TIP3    H249138   5.210   6.306   6.632 -0.5901  0.3423  2.8065
16406TIP3   OH249139   3.960   1.511   0.212 -0.4987 -0.4457 -0.2645
16406TIP3    H149140   4.008   1.430   0.193  1.2756  0.7712 -1.1074
16406TIP3    H249141   3.959   1.558   0.128 -2.7615 -0.2302 -0.1289
16407TIP3   OH249142   5.607   7.689   4.311 -0.4791 -0.2151 -0.1198
16407TIP3    H149143   5.632   7.724   4.225 -0.7558 -1.6638 -0.7974
16407TIP3    H249144   5.527   7.736   4.333  0.2853  1.0974 -0.0563
16408TIP3   OH249145   4.721   4.863   6.816 -0.6149 -0.0983  0.2294
16408TIP3    H149146   4.733   4.887   6.908  2.1535 -0.8628  0.1183
16408TIP3    H249147   4.666   4.932   6.780  0.6270  1.7433  1.7946
16409TIP3   OH249148   1.042   4.199   2.812 -0.7812  0.1214 -0.6398
16409TIP3    H149149   0.960   4.247   2.827 -0.8630 -0.4275  0.7591
16409TIP3    H249150   1.096   4.220   2.888  0.4351  0.5851 -1.6241
16410TIP3   OH249151   3.469   7.390   7.139  0.4637  0.8700  0.3743
16410TIP3    H149152   3.434   7.470   7.178  0.2649 -0.7060  3.4928
16410TIP3    H249153   3.392   7.340   7.113  0.5418  0.5557  0.7497
16411TIP3   OH249154   8.574   0.130   7.069 -0.2623  0.5428  0.1827
16411TIP3    H149155   8.657   0.148   7.025 -0.2414  0.0798  0.0377
16411TIP3    H249156   8.571   0.195   7.140  0.1514  0.6610  0.0953
16412TIP3   OH249157   0.638   0.615   1.425 -0.1748  0.5409 -0.0963
16412TIP3    H149158   0.593   0.562   1.360 -0.4134 -0.5902  0.9742
16412TIP3    H249159   0.602   0.586   1.509  1.1773  0.9594  0.6384
16413TIP3   OH249160   2.392   6.557   5.876  0.0624  0.6486  0.2069
16413TIP3    H149161   2.457   6.488   5.888  0.0663 -0.1610 -3.7930
16413TIP3    H249162   2.432   6.617   5.812 -0.6670  3.4229  2.2653
16414TIP3   OH249163   1.326   5.808   0.127 -0.0823 -0.0574 -0.4291
16414TIP3    H149164   1.327   5.847   0.039 -0.4720 -1.0763 -0.8980
16414TIP3    H249165   1.332   5.883   0.186 -0.6864  0.7111 -1.3149
16415TIP3   OH249166   2.643   0.527   0.352  0.4015  0.1523  0.3762
16415TIP3    H149167   2.704   0.486   0.291  1.2794  0.1774  1.2195
16415TIP3    H249168   2.645   0.470   0.429 -2.6359 -1.3106 -0.5521
16416TIP3   OH249169   1.730   3.020   2.396 -0.4315 -0.3052  0.4325
16416TIP3    H149170   1.816   3.062   2.403 -0.8294  0.6773 -0.4710
16416TIP3    H249171   1.749   2.928   2.376  0.4061 -0.0897  0.2336
16417TIP3   OH249172   2.552   1.016   1.757 -0.0057  0.2123  0.3758
16417TIP3    H149173   2.494   0.985   1.687  0.2480  0.7927 -0.0850
16417TIP3    H249174   2.561   0.940   1.815 -1.2540  0.1194  0.4739
16418TIP3   OH249175   1.115   1.785   2.936 -0.1076 -0.5288 -0.2961
16418TIP3    H149176   1.044   1.791   2.873  0.0918 -0.8611 -0.5545
16418TIP3    H249177   1.164   1.707   2.910 -0.4968 -1.1462  0.7602
16419TIP3   OH249178   1.086   3.446   1.615  0.1368 -0.2920  0.0397
16419TIP3    H149179   1.060   3.354   1.611 -0.2129 -0.3273  2.4161
16419TIP3    H249180   1.025   3.491   1.557  0.4056 -1.5482 -1.2635
16420TIP3   OH249181   5.139   6.546   7.108  0.5542  0.3952  0.2931
16420TIP3    H149182   5.104   6.516   7.192  1.4953  2.0408  1.3000
16420TIP3    H249183   5.111   6.637   7.101  1.1211  0.4995 -0.8469
16421TIP3   OH249184   5.619   6.775   6.643 -0.3719 -0.5840  0.0049
16421TIP3    H149185   5.549   6.716   6.672 -0.5401 -1.1170 -1.4242
16421TIP3    H249186   5.578   6.827   6.573  0.0261  0.6353  0.6688
16422TIP3   OH249187   1.996   3.654   0.697 -0.4787 -0.1433 -0.2632
16422TIP3    H149188   1.994   3.679   0.605  0.1921  0.7544 -0.0410
16422TIP3    H249189   2.070   3.593   0.703  0.3952  0.9217 -0.0508
16423TIP3   OH249190   2.172   1.872   1.755  0.4373 -0.1503 -0.4838
16423TIP3    H149191   2.222   1.793   1.775 -3.0509 -2.5289 -0.7956
16423TIP3    H249192   2.116   1.847   1.681 -0.1658  2.8597 -1.1047
16424TIP3   OH249193   2.504   1.850   0.425  0.1998  0.1181 -0.4702
16424TIP3    H149194   2.592   1.885   0.410  0.7153 -0.0730  1.9376
16424TIP3    H249195   2.473   1.894   0.504 -0.3527 -2.5732  0.8811
16425TIP3   OH249196   1.493   1.160   3.683 -0.3297  0.1638  0.1741
16425TIP3    H149197   1.570   1.209   3.655  0.1308 -0.2053  0.8072
16425TIP3    H249198   1.526   1.075   3.711 -1.3263 -1.3165 -2.8584
16426TIP3   OH249199   4.924   8.111   5.869 -0.3895  0.7374 -0.3683
16426TIP3    H149200   4.913   8.059   5.790 -0.9894 -0.8039  0.7027
16426TIP3    H249201   5.016   8.136   5.869  0.3027 -1.6978 -0.0955
16427TIP3   OH249202   1.034   3.684   0.670  0.3846  0.2082  0.2004
16427TIP3    H149203   0.953   3.688   0.720  0.1480 -1.0343 -0.0550
16427TIP3    H249204   1.012   3.628   0.595  0.4530  2.7427 -1.7997
16428TIP3   OH249205   2.318   1.571   0.740 -0.4246  0.5207  0.2390
16428TIP3    H149206   2.284   1.513   0.672  0.1669  1.0641 -0.5330
16428TIP3    H249207   2.246   1.580   0.801 -0.8977 -0.1447 -0.2064
16429TIP3   OH249208   6.118   8.234   0.251  0.0975  0.0613  0.6876
16429TIP3    H149209   6.152   8.169   0.190  4.4551  1.0389  1.9016
16429TIP3    H249210   6.070   8.183   0.317  0.0110 -1.4765 -0.5310
16430TIP3   OH249211   3.330   5.058   6.098  0.1492 -0.5298  0.0300
16430TIP3    H149212   3.292   5.072   6.011  0.2995 -0.7086 -0.0649
16430TIP3    H249213   3.376   5.139   6.118 -2.7018  0.8241  1.3948
16431TIP3   OH249214   1.594   3.550   1.740  0.0761  0.0682 -0.0228
16431TIP3    H149215   1.612   3.486   1.809 -2.7016 -1.3290 -0.5116
16431TIP3    H249216   1.508   3.525   1.706 -0.4196  3.1898 -1.2459
16432TIP3   OH249217   1.267   1.257   0.905  0.0770 -0.0459  0.2488
16432TIP3    H149218   1.172   1.261   0.898  0.1957  4.1015  0.3234
16432TIP3    H249219   1.286   1.283   0.995  1.2915 -2.3077  0.7047
16433TIP3   OH249220   5.126   5.554   6.752 -0.0858  0.2567 -0.3559
16433TIP3    H149221   5.197   5.495   6.730 -0.8022 -1.1349  0.9968
16433TIP3    H249222   5.048   5.516   6.710 -0.4375  0.6123 -0.0358
16434TIP3   OH249223   1.513   0.924   0.744  0.0019  0.3325  0.7374
16434TIP3    H149224   1.467   0.919   0.661 -1.0605  1.2303  1.2620
16434TIP3    H249225   1.598   0.883   0.727 -0.6504 -0.5216 -0.4665
16435TIP3   OH249226   3.535   3.261   0.704  0.5389 -0.4019  0.2041
16435TIP3    H149227   3.564   3.264   0.613 -1.4765 -2.5935 -0.5818
16435TIP3    H249228   3.612   3.231   0.753  1.1259 -0.9838 -1.0569
16436TIP3   OH249229   1.137   1.951   0.286  0.5235  0.1577  0.2782
16436TIP3    H149230   1.163   1.860   0.301 -1.6268 -0.5026  0.1299
16436TIP3    H249231   1.110   1.954   0.194 -0.6841  0.5993  0.6294
16437TIP3   OH249232   1.192   3.055   0.929 -0.4173 -0.5386 -0.4342
16437TIP3    H149233   1.208   3.050   1.023 -0.3817  0.6657 -0.3691
16437TIP3    H249234   1.254   2.994   0.890 -0.0426 -0.6108  0.2881
16438TIP3   OH249235   2.339   2.721   1.120 -0.1608 -0.4260  0.0187
16438TIP3    H149236   2.262   2.686   1.164 -1.5517  2.5678  0.0768
16438TIP3    H249237   2.315   2.723   1.027 -0.8787  2.1371  0.2203
16439TIP3   OH249238   4.848   7.248   5.879  0.0056  0.2752 -0.5617
16439TIP3    H149239   4.916   7.247   5.945  0.9349 -1.5691 -1.4919
16439TIP3    H249240   4.767   7.260   5.928  0.6523 -1.2469  0.9451
16440TIP3   OH249241   3.485   2.121   0.255  0.7394  0.1951 -0.3528
16440TIP3    H149242   3.522   2.070   0.327 -0.7396  0.2235  0.4424
16440TIP3    H249243   3.481   2.060   0.182  0.0992 -0.4977  0.2523
16441TIP3   OH249244   5.153   7.651   0.541  0.0261 -0.2440 -0.0109
16441TIP3    H149245   5.218   7.596   0.497  1.0928  1.4272 -0.5767
16441TIP3    H249246   5.160   7.736   0.497 -0.9253  0.6103  1.4533
16442TIP3   OH249247   1.141   3.548   0.130 -0.4818  0.1403  0.0238
16442TIP3    H149248   1.103   3.580   0.049 -0.7757 -0.4451 -0.0696
16442TIP3    H249249   1.205   3.482   0.103  0.6108  1.1198  0.1778
16443TIP3   OH249250   1.554   1.872   0.311  0.9549  0.2030  0.1419
16443TIP3    H149251   1.512   1.838   0.232  1.6793  1.0163 -0.6091
16443TIP3    H249252   1.490   1.933   0.347  0.5866 -0.2345  0.2370
16444TIP3   OH249253   4.827   6.000   7.054  0.0710  0.1892  0.9167
16444TIP3    H149254   4.867   5.948   7.124 -0.9320 -0.3871  1.0838
16444TIP3    H249255   4.898   6.020   6.994  0.1732 -2.7977 -0.0112
16445TIP3   OH249256   7.357   0.384   6.063 -0.2425 -0.0027  0.2932
16445TIP3    H149257   7.271   0.425   6.055 -0.0943  0.1704 -0.4559
16445TIP3    H249258   7.343   0.293   6.039 -0.3806 -0.1705  1.0046
16446TIP3   OH249259   0.044   2.730   3.054 -0.0495 -0.2193 -0.7229
16446TIP3    H149260   0.100   2.677   2.997 -0.1463  0.3001 -1.3038
16446TIP3    H249261  -0.036   2.743   3.003  1.1646  3.1204 -1.8880
16447TIP3   OH249262   1.800   2.150   1.914 -0.2173 -0.1029  0.1877
16447TIP3    H149263   1.864   2.196   1.860  0.3349 -0.6488  0.3730
16447TIP3    H249264   1.848   2.076   1.951  0.3069  1.9838  3.9506
16448TIP3   OH249265   2.335   2.186   1.068 -0.3302  0.1574  0.6736
16448TIP3    H149266   2.269   2.120   1.046 -1.6189  1.8406 -0.6765
16448TIP3    H249267   2.356   2.169   1.160  0.0166 -2.6652  0.1341
16449TIP3   OH249268   1.656   2.218   2.456 -0.7668 -0.2658 -0.1014
16449TIP3    H149269   1.708   2.293   2.428 -0.6672  0.1871  1.2538
16449TIP3    H249270   1.589   2.208   2.389 -0.4905  0.7441 -0.5351
16450TIP3   OH249271   7.038   6.412   5.806  0.1777  0.7683  0.5680
16450TIP3    H149272   7.056   6.422   5.900  0.8689 -0.0983  0.5298
16450TIP3    H249273   7.124   6.412   5.765 -0.0117 -0.8504  0.1308
16451TIP3   OH249274   5.384   3.969   3.642 -0.4095  0.0925 -0.8408
16451TIP3    H149275   5.302   3.929   3.611 -0.8683  0.7567 -0.4848
16451TIP3    H249276   5.374   4.062   3.623 -0.5065  0.4506  0.8803
16452TIP3   OH249277   0.490   3.727   0.577 -0.3068 -0.3761 -0.4538
16452TIP3    H149278   0.504   3.725   0.483  1.6157 -0.1509 -0.2029
16452TIP3    H249279   0.468   3.818   0.596  1.3941  0.0575 -0.4446
16453TIP3   OH249280   5.414   7.065   6.961  0.2583  0.3803 -0.1652
16453TIP3    H149281   5.411   6.969   6.958 -1.6973  0.4204  0.1305
16453TIP3    H249282   5.453   7.086   7.046  4.0973 -0.1461 -1.6626
16454TIP3   OH249283   0.065   4.017   1.521 -0.5077 -0.1692  0.1990
16454TIP3    H149284   0.109   4.004   1.437  0.7794 -1.1545  1.0209
16454TIP3    H249285   0.124   4.072   1.572 -1.3217  0.4923  0.4495
16455TIP3   OH249286   4.198   6.322   7.112 -0.1607 -0.1767 -0.1770
16455TIP3    H149287   4.286   6.303   7.145  0.3707  2.4383  0.0128
16455TIP3    H249288   4.213   6.360   7.025 -1.0057  1.4394  0.3680
16456TIP3   OH249289   3.086   5.678   6.634  0.3165 -0.2672 -0.3816
16456TIP3    H149290   3.179   5.696   6.649  0.4223 -0.9111 -0.2589
16456TIP3    H249291   3.080   5.655   6.542  0.5153 -1.6551 -0.0673
16457TIP3   OH249292   2.588   1.484   1.311 -0.1648  0.2554 -0.0603
16457TIP3    H149293   2.656   1.546   1.339 -0.2189  0.0148  0.5982
16457TIP3    H249294   2.611   1.402   1.353  0.0576 -0.2485 -1.1587
16458TIP3   OH249295   4.021   5.747   6.785  0.1632  0.0375 -0.1596
16458TIP3    H149296   4.037   5.747   6.879  1.0053  0.2843 -0.2960
16458TIP3    H249297   4.066   5.669   6.753 -0.3405 -0.1873 -0.3241
16459TIP3   OH249298   1.354   1.641   0.395  0.8621 -0.3282 -0.2283
16459TIP3    H149299   1.436   1.664   0.350 -0.7341  1.4478 -2.2955
16459TIP3    H249300   1.305   1.590   0.331 -0.9745  1.2818 -0.1379
16460TIP3   OH249301   4.664   7.920   6.878 -0.1322  0.1290 -0.0918
16460TIP3    H149302   4.725   7.890   6.946  1.2418  0.8595 -0.9997
16460TIP3    H249303   4.608   7.984   6.923  0.7316  0.5658  0.3702
16461TIP3   OH249304   1.337   4.811   1.772  0.5128  0.0093  0.2056
16461TIP3    H149305   1.259   4.779   1.726  0.8791 -2.2097  1.0734
16461TIP3    H249306   1.410   4.788   1.715  0.7668 -0.6248  0.7738
16462TIP3   OH249307   5.280   7.538   5.165  0.8358 -0.2152 -0.2370
16462TIP3    H149308   5.187   7.539   5.140  1.0027  1.0473 -0.8442
16462TIP3    H249309   5.280   7.517   5.258  0.0056 -1.4841 -0.5082
16463TIP3   OH249310   5.482   7.558   5.980 -0.4613 -0.6047  0.1315
16463TIP3    H149311   5.400   7.515   6.005 -0.7202  1.4015  3.1401
16463TIP3    H249312   5.456   7.649   5.963  0.9467 -0.2574 -0.1619
16464TIP3   OH249313   3.424   5.830   5.480  0.2731  0.3180 -0.0155
16464TIP3    H149314   3.487   5.847   5.549 -2.1642  1.6837  1.9450
16464TIP3    H249315   3.379   5.750   5.507  1.0633 -0.6010 -1.3535
16465TIP3   OH249316   1.347   4.071   1.967  0.1110 -0.1453  0.0535
16465TIP3    H149317   1.339   4.039   2.057  0.5840  0.6177  0.3665
16465TIP3    H249318   1.311   4.159   1.968 -0.1076 -0.2208 -0.5596
16466TIP3   OH249319   4.482   5.936   5.973 -0.0781 -0.3211 -0.5172
16466TIP3    H149320   4.425   6.008   5.948  0.0233  0.3331  1.0410
16466TIP3    H249321   4.427   5.858   5.969 -0.5199  0.0221 -1.0171
16467TIP3   OH249322   1.907   3.418   0.447 -0.3791 -0.1672 -0.1527
16467TIP3    H149323   1.920   3.325   0.466  0.7441  0.2844  1.3460
16467TIP3    H249324   1.985   3.461   0.483 -1.0509  1.4026 -0.5389
16468TIP3   OH249325   2.233   6.288   5.826  0.2945  0.3348  0.0133
16468TIP3    H149326   2.299   6.357   5.833 -1.5373  1.9787  1.3514
16468TIP3    H249327   2.181   6.311   5.750 -1.3177  1.3527  1.3864
16469TIP3   OH249328   2.153   2.385   0.536  0.0837 -0.2796 -0.4388
16469TIP3    H149329   2.162   2.334   0.617 -2.0765 -1.5892 -0.9868
16469TIP3    H249330   2.240   2.423   0.522  0.0629  1.4536  3.4535
16470TIP3   OH249331   3.104   6.325   6.613 -0.2253 -0.2609 -0.2423
16470TIP3    H149332   3.064   6.402   6.571 -2.2855 -0.9651  0.3815
16470TIP3    H249333   3.086   6.336   6.706 -0.8395 -1.6648 -0.1844
16471TIP3   OH249334   3.283   6.262   5.955  0.0624  0.0079  0.3476
16471TIP3    H149335   3.364   6.212   5.967  0.4562  0.2626 -1.1640
16471TIP3    H249336   3.257   6.286   6.043  0.9215 -1.2095  0.9585
16472TIP3   OH249337   0.680   4.833   1.643 -0.4198 -0.3956  0.3386
16472TIP3    H149338   0.691   4.886   1.722 -0.1671 -1.2947  0.9104
16472TIP3    H249339   0.672   4.897   1.572  0.8636  0.3852  0.8975
16473TIP3   OH249340   3.916   2.280   1.969  0.4032  0.4406  0.0787
16473TIP3    H149341   3.890   2.324   1.888  0.4019  0.5854  0.1581
16473TIP3    H249342   3.938   2.351   2.029  0.3447  0.3336  0.2260
16474TIP3   OH249343   2.187   2.779   0.553 -0.3674 -0.1157 -0.0951
16474TIP3    H149344   2.266   2.726   0.564 -0.6756 -0.2543  1.7460
16474TIP3    H249345   2.219   2.869   0.547 -0.1043 -0.0915  1.4815
16475TIP3   OH249346   7.855   0.274   6.441 -0.3608 -0.0010 -0.1165
16475TIP3    H149347   7.919   0.260   6.371  0.2074 -2.8499  0.9232
16475TIP3    H249348   7.781   0.218   6.417  0.1194 -1.5221  1.8885
16476TIP3   OH249349   2.548   2.105   1.668 -0.2184  0.1003  0.1661
16476TIP3    H149350   2.614   2.038   1.685 -0.8895 -0.6073  0.0399
16476TIP3    H249351   2.556   2.166   1.742  0.5520  0.0012  0.1614
16477TIP3   OH249352   2.774   2.589   2.361  0.0338  0.3400 -0.2885
16477TIP3    H149353   2.733   2.518   2.412 -0.9737  1.1989  0.1212
16477TIP3    H249354   2.868   2.576   2.374 -0.0095 -2.4550 -2.3151
16478TIP3   OH249355   5.726   7.593   5.767  0.1842 -0.5965 -0.2980
16478TIP3    H149356   5.805   7.544   5.791  2.0071  2.0856 -0.6026
16478TIP3    H249357   5.696   7.633   5.848 -1.1907 -2.0336 -0.0844
16479TIP3   OH249358   8.391   1.247   4.589 -0.1501  0.2436 -0.1876
16479TIP3    H149359   8.361   1.316   4.649  1.7798  1.0696 -0.1346
16479TIP3    H249360   8.450   1.292   4.529  0.0713 -1.1238 -1.0151
16480TIP3   OH249361   5.514   6.860   6.392  0.8263 -0.9002  0.0893
16480TIP3    H149362   5.450   6.925   6.419  1.1179 -0.4096 -0.3880
16480TIP3    H249363   5.490   6.839   6.301  0.3482 -1.9267  0.4446
16481TIP3   OH249364   2.145   3.439   0.577 -0.4568  0.0459 -0.0425
16481TIP3    H149365   2.229   3.485   0.574 -0.0223 -0.8709 -2.4939
16481TIP3    H249366   2.153   3.381   0.653  0.4408  1.2296  0.7925
16482TIP3   OH249367   1.978   1.461   0.791 -0.4807  0.3071 -0.0593
16482TIP3    H149368   2.033   1.517   0.846 -0.9980 -0.0617  0.8530
16482TIP3    H249369   1.981   1.501   0.705  3.0847 -0.9877 -0.6126
16483TIP3   OH249370   7.700   1.048   0.911 -0.1627  0.2489 -0.3561
16483TIP3    H149371   7.759   1.119   0.884 -1.3523  1.2453 -0.3558
16483TIP3    H249372   7.613   1.088   0.913 -0.9288 -1.3358 -0.8460
16484TIP3   OH249373   2.368   2.854   2.549  0.8147  0.1815  0.4540
16484TIP3    H149374   2.387   2.806   2.469  0.6134  0.7585  0.0621
16484TIP3    H249375   2.424   2.813   2.615  0.7377 -0.5112  0.0955
16485TIP3   OH249376   8.790   3.869   1.696  0.2329 -0.1785  0.4988
16485TIP3    H149377   8.697   3.876   1.674 -0.1390 -1.1080  1.6794
16485TIP3    H249378   8.835   3.916   1.627 -1.1574  0.7589  0.2097
16486TIP3   OH249379   0.961   3.501   1.356 -0.3229 -0.0512  0.0332
16486TIP3    H149380   0.878   3.466   1.325 -0.3440 -0.1302  0.1740
16486TIP3    H249381   0.960   3.593   1.331 -1.2126  0.3791  1.5377
16487TIP3   OH249382   1.723   2.604   1.409 -0.6719  0.2972 -0.6762
16487TIP3    H149383   1.668   2.601   1.487 -0.8194  1.8620 -0.7162
16487TIP3    H249384   1.673   2.555   1.343 -1.3117  0.3962 -0.2679
16488TIP3   OH249385   0.340   0.873   5.323  0.2987 -0.4553  0.5389
16488TIP3    H149386   0.344   0.911   5.410  1.3773  1.3084 -0.2430
16488TIP3    H249387   0.378   0.940   5.266 -3.1938 -0.2951 -1.7291
16489TIP3   OH249388   0.875   3.369   0.080 -0.0116  0.3803  0.5353
16489TIP3    H149389   0.924   3.319   0.015 -1.3977 -0.5168  0.1829
16489TIP3    H249390   0.927   3.449   0.092  2.2198 -1.0884  1.1121
16490TIP3   OH249391   5.159   6.860   5.127 -0.0358  0.0108 -0.3907
16490TIP3    H149392   5.145   6.907   5.209  2.5751  0.8945 -0.3942
16490TIP3    H249393   5.142   6.769   5.147  0.4449  0.2410  1.1049
16491TIP3   OH249394   0.613   0.778   2.228 -0.1926  0.2271  0.2511
16491TIP3    H149395   0.687   0.779   2.289  0.3756  0.9867 -0.4393
16491TIP3    H249396   0.607   0.687   2.199  0.0128  0.0184  0.8535
16492TIP3   OH249397   1.969   2.314   0.340 -1.1475 -0.1930  0.0995
16492TIP3    H149398   1.888   2.287   0.384 -0.2153 -0.7090  1.5747
16492TIP3    H249399   2.031   2.329   0.412  0.4522 -1.1312 -1.0300
16493TIP3   OH249400   3.460   3.258   1.530  0.3849  0.0582 -0.0544
16493TIP3    H149401   3.556   3.255   1.526  0.4507 -1.6111  1.9826
16493TIP3    H249402   3.438   3.206   1.607 -2.1123  1.4979  0.2496
16494TIP3   OH249403   1.943   1.530   0.509 -0.1259 -0.0365  0.3568
16494TIP3    H149404   1.887   1.595   0.467  1.0202  0.3933 -0.5235
16494TIP3    H249405   1.904   1.446   0.483  1.3355  0.1762 -2.7428
16495TIP3   OH249406   0.315   0.638   0.178 -0.5923  0.7808 -0.6476
16495TIP3    H149407   0.230   0.680   0.192  0.4712  3.0020 -0.7785
16495TIP3    H249408   0.301   0.580   0.103 -2.4418 -0.1880  0.4201
16496TIP3   OH249409   8.279   0.179   7.180 -0.4732 -0.1085 -0.6632
16496TIP3    H149410   8.272   0.269   7.148 -0.9820 -0.0626 -0.4269
16496TIP3    H249411   8.305   0.128   7.104  2.1348  0.5914 -0.3148
16497TIP3   OH249412   6.590   4.702   5.799 -0.3752  0.0903  0.0377
16497TIP3    H149413   6.543   4.769   5.850  0.5973 -0.0752  1.1801
16497TIP3    H249414   6.649   4.661   5.863  0.5346 -0.4385 -1.1314
16498TIP3   OH249415   1.617   2.919   1.623 -0.5410  0.0980 -0.4267
16498TIP3    H149416   1.656   2.983   1.682 -1.9734  0.6801 -0.0869
16498TIP3    H249417   1.609   2.965   1.539  1.1433 -0.6042 -0.9839
16499TIP3   OH249418   1.999   2.548   1.787  0.4993 -0.2901  0.0937
16499TIP3    H149419   2.074   2.585   1.834 -0.1838  1.3280 -0.0483
16499TIP3    H249420   1.945   2.624   1.765  0.4466 -1.0818 -2.6956
16500TIP3   OH249421   1.854   2.273   3.172 -0.7086  0.1870  0.7580
16500TIP3    H149422   1.766   2.234   3.177 -1.5887  2.0340 -0.0688
16500TIP3    H249423   1.896   2.227   3.100 -1.5332  0.3708  0.1527
16501TIP3   OH249424   1.799   3.214   0.766  0.1090 -0.6977  0.2766
16501TIP3    H149425   1.767   3.132   0.804  0.3961  0.1688  2.4502
16501TIP3    H249426   1.859   3.186   0.697 -1.0191 -2.3131 -0.0899
16502TIP3   OH249427   1.534   0.470   1.712 -0.2119  0.6103  0.0761
16502TIP3    H149428   1.459   0.446   1.766  0.2313  0.2844  0.5506
16502TIP3    H249429   1.500   0.536   1.652 -1.0583 -0.0584 -0.1874
16503TIP3   OH249430   5.197   6.668   6.113 -0.3552  0.1984  0.0283
16503TIP3    H149431   5.240   6.684   6.030 -0.2859 -0.0627  0.0147
16503TIP3    H249432   5.243   6.723   6.176 -0.3699  0.3505 -0.0945
16504TIP3   OH249433   2.387   2.968   2.231  0.0065 -0.0142 -0.2161
16504TIP3    H149434   2.398   2.873   2.238  0.6170 -0.0873 -1.7501
16504TIP3    H249435   2.467   3.004   2.268  0.1864 -0.1429 -0.4710
16505TIP3   OH249436   1.546   1.150   1.785 -0.4561  0.1326 -0.6768
16505TIP3    H149437   1.593   1.198   1.854  0.1317  1.3415 -1.8981
16505TIP3    H249438   1.470   1.205   1.766 -1.5378 -1.0391  0.1789
16506TIP3   OH249439   0.771   0.326   3.157 -0.5524  0.1988  0.7221
16506TIP3    H149440   0.701   0.263   3.142 -1.1494  1.2362 -1.0768
16506TIP3    H249441   0.820   0.291   3.231 -1.2920 -1.9945  0.2080
16507TIP3   OH249442   2.861   2.682   3.322  0.3716  0.2100 -0.4339
16507TIP3    H149443   2.916   2.623   3.374 -1.1081 -0.5963  0.2244
16507TIP3    H249444   2.778   2.636   3.312 -0.5189  1.8105 -0.6388
16508TIP3   OH249445   5.855   5.523   6.414 -0.6588 -0.7217  0.5964
16508TIP3    H149446   5.945   5.504   6.385 -1.1309  0.3120 -1.6341
16508TIP3    H249447   5.864   5.600   6.470 -0.1898 -0.3978  0.0807
16509TIP3   OH249448   6.138   8.069   1.166 -0.0200 -0.5827  0.2748
16509TIP3    H149449   6.193   8.141   1.134 -0.5224 -1.1656 -1.9929
16509TIP3    H249450   6.085   8.108   1.235 -0.1742  1.2034 -0.8106
16510TIP3   OH249451   2.745   1.124   2.382  0.1216  0.1297  0.2379
16510TIP3    H149452   2.810   1.057   2.360  1.5223  1.4867  0.0974
16510TIP3    H249453   2.724   1.164   2.297 -1.9936 -1.2521  0.0932
16511TIP3   OH249454   8.889   7.595   1.229 -0.1025  0.0919 -0.4668
16511TIP3    H149455   8.857   7.587   1.319  0.4918  3.0938  0.0494
16511TIP3    H249456   8.809   7.597   1.176 -0.5147  0.1669  0.1456
16512TIP3   OH249457   1.276   2.652   0.097 -0.0073  0.6051  0.3935
16512TIP3    H149458   1.180   2.659   0.090 -0.0144  1.3750  1.2761
16512TIP3    H249459   1.292   2.558   0.100 -0.8415  0.4843  1.5895
16513TIP3   OH249460   3.319   6.078   6.765 -0.0118 -0.4068  0.0822
16513TIP3    H149461   3.413   6.091   6.783  0.0144  0.0270 -0.3626
16513TIP3    H249462   3.276   6.102   6.847  0.1546  1.0166 -0.2341
16514TIP3   OH249463   8.420   3.664   1.888  0.2827  0.0192 -0.3892
16514TIP3    H149464   8.479   3.588   1.889 -0.4494 -0.5540  1.4102
16514TIP3    H249465   8.470   3.733   1.844  2.6436 -0.1710  1.8733
16515TIP3   OH249466   0.663   2.521   2.546  0.9189  0.1059  0.1329
16515TIP3    H149467   0.677   2.524   2.452  2.3835  2.0474  0.3686
16515TIP3    H249468   0.709   2.599   2.579  0.7054 -0.7270  2.4659
16516TIP3   OH249469   1.125   0.861   6.510  0.3286  0.6076  0.2798
16516TIP3    H149470   1.134   0.925   6.581 -0.6520 -1.1389  2.0453
16516TIP3    H249471   1.035   0.873   6.479 -0.6727 -1.5129  2.2579
16517TIP3   OH249472   2.821   2.693   0.161  0.8121 -0.3467 -0.4587
16517TIP3    H149473   2.777   2.627   0.108 -1.0948  1.5451 -1.2955
16517TIP3    H249474   2.858   2.755   0.097  0.2871  0.8260  0.3530
16518TIP3   OH249475   1.211   1.458   0.231  0.3792  0.3623 -0.0814
16518TIP3    H149476   1.127   1.497   0.207 -0.3512  0.1552  2.0132
16518TIP3    H249477   1.188   1.386   0.290  2.0506  0.7650  1.1133
16519TIP3   OH249478   6.122   7.734   5.570  0.1232 -0.2170 -0.0980
16519TIP3    H149479   6.109   7.822   5.535  1.3042  0.0917  0.2119
16519TIP3    H249480   6.208   7.737   5.611 -0.3055 -1.2038  0.9045
16520TIP3   OH249481   2.992   2.078   0.386  0.1441 -0.0198 -0.9092
16520TIP3    H149482   3.029   2.163   0.409  1.0102 -0.7084  0.3343
16520TIP3    H249483   2.984   2.079   0.291  1.1693  1.0317 -0.9873
16521TIP3   OH249484   2.460   3.489   0.109  0.0128  0.4218  0.2914
16521TIP3    H149485   2.505   3.509   0.027  0.0022 -0.7418 -0.0014
16521TIP3    H249486   2.370   3.470   0.083 -0.2388  1.0378  0.6901
16522TIP3   OH249487   1.541   0.043   5.622  0.0190 -0.2940 -0.0601
16522TIP3    H149488   1.538   0.136   5.601 -0.4679  0.0984  1.7064
16522TIP3    H249489   1.624   0.031   5.668 -0.7819 -0.3854  1.3604
16523TIP3   OH249490   5.193   7.857   5.723 -1.1112  0.1074  0.3136
16523TIP3    H149491   5.242   7.781   5.690 -3.7653 -1.1963 -0.7834
16523TIP3    H249492   5.185   7.840   5.817 -3.6327 -2.2164 -0.2478
16524TIP3   OH249493   3.359   6.903   7.248  0.3489  0.2208 -0.3106
16524TIP3    H149494   3.428   6.968   7.235  1.5486 -0.9858 -0.0952
16524TIP3    H249495   3.339   6.871   7.160  1.4166 -0.7765 -0.2095
16525TIP3   OH249496   0.851   4.016   2.673  0.0024  0.5788  0.0213
16525TIP3    H149497   0.830   4.090   2.616 -2.0397  1.2338  1.5572
16525TIP3    H249498   0.925   4.046   2.726  0.5165  0.7491 -0.7949
16526TIP3   OH249499   5.960   8.297   7.045  0.0531  0.2018  0.1003
16526TIP3    H149500   5.980   8.364   6.980 -2.0143 -0.7096 -1.5326
16526TIP3    H249501   6.045   8.258   7.067  0.8786  1.1493 -1.3705
16527TIP3   OH249502   1.346   4.754   0.959  0.3178  0.3417  0.5149
16527TIP3    H149503   1.287   4.681   0.943  1.2441 -0.5704  1.1851
16527TIP3    H249504   1.328   4.816   0.888 -1.7734  0.3084  0.9701
16528TIP3   OH249505   3.872   5.246   6.680  0.5882 -0.0948  0.0154
16528TIP3    H149506   3.882   5.232   6.774  2.3157 -0.3157 -0.1791
16528TIP3    H249507   3.909   5.167   6.640  1.0513  0.5710 -0.8770
16529TIP3   OH249508   3.404   3.397   1.300  0.6853  0.2589 -0.0379
16529TIP3    H149509   3.345   3.460   1.341  1.0853  0.3732  0.3690
16529TIP3    H249510   3.418   3.330   1.367  0.3239 -0.2221 -0.4424
16530TIP3   OH249511   5.340   3.090   0.608 -0.1766  0.7421  0.1681
16530TIP3    H149512   5.281   3.133   0.547 -0.4409 -0.3500 -0.3702
16530TIP3    H249513   5.420   3.142   0.605 -0.7746  1.6768  0.1747
16531TIP3   OH249514   5.756   7.749   7.219 -0.4706  0.8898 -0.3471
16531TIP3    H149515   5.844   7.778   7.243 -0.5737 -0.1547  1.3511
16531TIP3    H249516   5.769   7.662   7.182 -0.7485  0.8966 -0.4576
16532TIP3   OH249517   0.219   1.222   2.705  0.7471 -0.0041 -0.1574
16532TIP3    H149518   0.204   1.240   2.612  0.4640 -1.6185 -0.4474
16532TIP3    H249519   0.159   1.280   2.751  0.2578  0.1702 -1.0096
16533TIP3   OH249520   2.723   2.801   0.751  0.0099  0.4107 -0.0801
16533TIP3    H149521   2.791   2.742   0.722  0.2334  1.3047 -1.4253
16533TIP3    H249522   2.676   2.753   0.820  1.4696 -0.5074  0.2778
16534TIP3   OH249523   3.823   5.402   6.457  0.5596 -0.5528  0.2553
16534TIP3    H149524   3.902   5.436   6.415 -0.3018  0.0918 -0.8692
16534TIP3    H249525   3.855   5.344   6.526  2.1239  2.8527  2.5457
16535TIP3   OH249526   1.394   1.804   0.629  0.7623 -0.4378 -0.4529
16535TIP3    H149527   1.373   1.746   0.555  0.7429 -1.1806  0.1262
16535TIP3    H249528   1.441   1.877   0.590  0.3004 -0.5746 -1.2730
16536TIP3   OH249529   0.800   1.861   3.152  0.2004 -0.1596 -0.3919
16536TIP3    H149530   0.737   1.911   3.101 -0.4098 -0.6677 -0.1396
16536TIP3    H249531   0.880   1.861   3.099 -0.1790  0.0227 -0.9592
16537TIP3   OH249532   5.279   6.147   7.259  0.1551  0.7992  0.0681
16537TIP3    H149533   5.350   6.123   7.319 -0.9399  1.0206  1.4833
16537TIP3    H249534   5.308   6.114   7.174  0.7756 -1.4244  1.0994
16538TIP3   OH249535   5.009   4.016   4.548 -0.5002 -0.2596  0.1729
16538TIP3    H149536   5.006   4.021   4.644  2.0416 -0.2544  0.3032
16538TIP3    H249537   5.100   4.035   4.527 -1.1681  0.3390 -2.3048
16539TIP3   OH249538   1.913   0.301   1.219  0.2244  0.4087 -0.0265
16539TIP3    H149539   1.821   0.323   1.204 -0.0522 -0.7938 -0.1759
16539TIP3    H249540   1.948   0.375   1.269 -0.6106  1.2485 -0.6685
16540TIP3   OH249541   1.234   0.162   0.423 -0.1501 -0.0116  0.0490
16540TIP3    H149542   1.326   0.172   0.398 -0.3829 -1.7408 -1.5523
16540TIP3    H249543   1.229   0.203   0.509  2.4813 -1.2631  0.8654
16541TIP3   OH249544   6.506   8.081   2.931  0.1899 -0.3338 -0.5521
16541TIP3    H149545   6.492   8.039   2.846 -0.2987 -1.4083  0.0448
16541TIP3    H249546   6.503   8.009   2.994 -0.3912  0.5652  0.4719
16542TIP3   OH249547   8.759   3.415   2.479  0.2983 -0.7052  0.0746
16542TIP3    H149548   8.726   3.405   2.390 -1.7713  0.3213  0.6782
16542TIP3    H249549   8.685   3.386   2.534  0.7619  0.7203  1.4732
16543TIP3   OH249550   1.865   1.936   2.756  0.4440  0.1714 -0.0415
16543TIP3    H149551   1.786   1.898   2.793 -0.4392  1.0999 -0.9547
16543TIP3    H249552   1.890   2.004   2.820  1.4326 -1.1900  1.0562
16544TIP3   OH249553   1.303   1.708   2.431  0.7453 -0.0906  0.5796
16544TIP3    H149554   1.233   1.729   2.369  1.3781 -1.2037 -0.5405
16544TIP3    H249555   1.267   1.637   2.483  1.1994 -0.9887 -0.3126
16545TIP3   OH249556   3.063   3.044   0.875 -0.5342 -0.0313  0.7006
16545TIP3    H149557   3.012   3.066   0.953  0.5348 -0.0026  1.4080
16545TIP3    H249558   3.006   3.068   0.802 -1.1081  1.0216  1.4690
16546TIP3   OH249559   4.714   6.671   6.492 -0.3713 -0.1842  0.2655
16546TIP3    H149560   4.799   6.673   6.535  1.0276 -1.2101 -2.3614
16546TIP3    H249561   4.683   6.761   6.495  0.0092 -0.0907  2.7087
16547TIP3   OH249562   2.455   8.025   6.955 -0.3214  0.3300  0.4855
16547TIP3    H149563   2.544   7.996   6.936 -0.0283  2.0439 -0.8833
16547TIP3    H249564   2.462   8.069   7.040 -0.3556 -1.6050  1.5235
16548TIP3   OH249565   8.836   0.534   7.161  0.2989 -0.0950 -0.6414
16548TIP3    H149566   8.895   0.510   7.232  1.3370 -1.3913 -1.8996
16548TIP3    H249567   8.867   0.483   7.086  0.2379  2.4029 -2.4475
16549TIP3   OH249568   2.458   5.132   2.186  0.2305  0.2014 -0.7039
16549TIP3    H149569   2.375   5.087   2.203 -0.4010  1.9422  1.0502
16549TIP3    H249570   2.507   5.125   2.268  0.3208  2.2025 -0.5552
16550TIP3   OH249571   1.197   2.815   2.721 -0.1234  0.6145  0.1009
16550TIP3    H149572   1.260   2.860   2.666  1.1238  0.6367  1.5193
16550TIP3    H249573   1.124   2.877   2.730 -1.5087 -0.3327 -3.5096
16551TIP3   OH249574   0.320   3.314   1.241 -0.5124  0.5072 -0.3278
16551TIP3    H149575   0.318   3.236   1.297 -1.2385  0.7671  0.0189
16551TIP3    H249576   0.362   3.284   1.160  1.7483  0.4600  0.8185
16552TIP3   OH249577   2.348   2.777   0.227 -0.2706  0.0614 -0.3018
16552TIP3    H149578   2.308   2.773   0.140  0.6320 -0.4009 -0.7052
16552TIP3    H249579   2.374   2.868   0.237 -0.3067  0.1001 -0.5526
16553TIP3   OH249580   2.943   5.269   6.894  0.3850 -0.3848  0.0838
16553TIP3    H149581   2.868   5.299   6.844 -0.6195 -0.8402  1.2821
16553TIP3    H249582   2.982   5.349   6.930  0.2847 -0.1765 -0.2710
16554TIP3   OH249583   1.289   3.115   2.927  0.0279 -0.2459  0.0972
16554TIP3    H149584   1.287   3.187   2.991 -0.9727 -0.3545  0.1878
16554TIP3    H249585   1.380   3.113   2.898  0.9200 -1.2554  2.7549
16555TIP3   OH249586   4.868   7.787   7.052 -0.2583 -0.2675 -0.1206
16555TIP3    H149587   4.917   7.705   7.043  0.2813 -0.1182  1.3961
16555TIP3    H249588   4.932   7.849   7.088 -0.9324  0.5626 -0.3343
16556TIP3   OH249589   1.924   1.931   1.284 -0.3097 -0.3113  0.1441
16556TIP3    H149590   1.860   1.880   1.334 -0.4610 -0.0078  0.2563
16556TIP3    H249591   1.933   2.013   1.331 -0.8102  0.1670 -0.5842
16557TIP3   OH249592   5.191   7.305   0.658 -0.4143 -0.5227 -0.1107
16557TIP3    H149593   5.114   7.267   0.614 -1.0041 -0.3379  0.7470
16557TIP3    H249594   5.250   7.328   0.586 -2.0528  1.2733 -0.9657
16558TIP3   OH249595   4.494   3.213   5.972  0.0989 -0.3078  0.1691
16558TIP3    H149596   4.493   3.296   6.021 -0.0296 -1.2997  1.8827
16558TIP3    H249597   4.402   3.188   5.966  0.2753 -1.2434  1.2621
16559TIP3   OH249598   7.395   5.232   6.452 -0.0941  0.2592 -0.1389
16559TIP3    H149599   7.443   5.314   6.440 -1.0758  0.8849  0.0699
16559TIP3    H249600   7.419   5.203   6.540 -0.9533  1.1592  0.4015
16560TIP3   OH249601   1.265   3.156   0.191  0.0582 -0.8425  0.0494
16560TIP3    H149602   1.238   3.115   0.272  0.9334  0.8553  1.2332
16560TIP3    H249603   1.353   3.122   0.175  0.0616 -0.8336  0.0494
16561TIP3   OH249604   7.080   8.220   0.042 -0.3978 -0.0084  0.1662
16561TIP3    H149605   7.087   8.293   0.104  1.4336  1.3355 -1.5708
16561TIP3    H249606   6.990   8.223   0.012 -0.4776  1.2398  0.4869
16562TIP3   OH249607   7.952   7.591   1.765  0.1756 -0.5272  0.4549
16562TIP3    H149608   8.036   7.548   1.750  0.4256  0.6741 -1.8583
16562TIP3    H249609   7.974   7.682   1.784 -0.5842 -0.3382  0.4643
16563TIP3   OH249610   4.488   6.040   6.836  1.0831 -0.1170  0.7976
16563TIP3    H149611   4.538   6.081   6.765  1.5161  0.9052  1.6745
16563TIP3    H249612   4.417   5.993   6.792  2.5965 -1.2826 -0.4527
16564TIP3   OH249613   3.298   6.850   6.973  0.1376  0.0429 -0.2611
16564TIP3    H149614   3.248   6.779   6.933  0.6535 -1.5285  1.8771
16564TIP3    H249615   3.253   6.930   6.943 -2.2727 -1.2633 -0.2353
16565TIP3   OH249616   3.164   3.907   0.506 -0.3241 -0.0331 -1.0253
16565TIP3    H149617   3.193   3.858   0.430  0.6318 -0.9384 -0.0955
16565TIP3    H249618   3.243   3.917   0.560 -1.4269 -1.4713  0.9496
16566TIP3   OH249619   7.723   8.313   0.855  0.8411 -0.3789  0.1187
16566TIP3    H149620   7.795   8.251   0.840 -0.2733 -1.6394 -0.0694
16566TIP3    H249621   7.759   8.375   0.918  1.7154 -1.6958  0.9545
16567TIP3   OH249622   1.429   2.187   2.319  0.8553 -0.3122  0.1202
16567TIP3    H149623   1.390   2.117   2.371 -1.0243  0.3392 -0.3653
16567TIP3    H249624   1.360   2.212   2.257  2.4861  0.0367 -1.6041
16568TIP3   OH249625   2.096   6.211   6.296  0.0539  0.1358 -0.1176
16568TIP3    H149626   2.020   6.255   6.258  0.1506  0.2762 -0.1522
16568TIP3    H249627   2.132   6.276   6.356 -1.0976 -0.7045  1.5066
16569TIP3   OH249628   2.458   2.228   0.043 -0.1428 -0.4658 -0.0526
16569TIP3    H149629   2.496   2.140   0.036  0.7844 -0.0544 -0.2417
16569TIP3    H249630   2.473   2.254   0.134  0.5651 -0.0698 -0.2760
16570TIP3   OH249631   2.575   3.179   0.559  0.0879  0.0471  0.6788
16570TIP3    H149632   2.637   3.196   0.630 -2.1455 -1.6127  3.1055
16570TIP3    H249633   2.523   3.104   0.590 -1.5656 -0.1023 -2.3080
16571TIP3   OH249634   4.451   1.929   0.618  0.6589  0.4074  0.2147
16571TIP3    H149635   4.518   1.876   0.662 -0.8258 -1.2393  0.5213
16571TIP3    H249636   4.448   1.894   0.529  0.5396  0.8222  0.0537
16572TIP3   OH249637   2.549   4.914   0.574  0.0517 -0.1395 -0.4521
16572TIP3    H149638   2.501   4.956   0.502  1.6211  0.3999 -1.2068
16572TIP3    H249639   2.569   4.985   0.634 -0.5266 -0.4471  0.1069
16573TIP3   OH249640   2.029   5.317   1.044 -0.2561  0.3617  0.1227
16573TIP3    H149641   2.034   5.377   1.119 -0.4240 -0.0043  0.4260
16573TIP3    H249642   1.951   5.265   1.060 -0.4555  0.4783 -0.4585
16574TIP3   OH249643   3.615   5.792   6.973  0.0435  0.2678 -0.3473
16574TIP3    H149644   3.545   5.754   7.024 -0.4917  1.8742  0.1402
16574TIP3    H249645   3.605   5.887   6.983  1.5901  0.5564 -1.1788
16575TIP3   OH249646   7.277   6.186   6.416 -0.5949  0.2187 -0.4946
16575TIP3    H149647   7.199   6.232   6.384 -0.3851  1.3853  0.6298
16575TIP3    H249648   7.242   6.114   6.468 -0.9439  0.8156  0.1163
16576TIP3   OH249649   7.466   7.658   3.917  0.3129 -0.0304  0.2697
16576TIP3    H149650   7.510   7.582   3.955 -1.6699 -0.3274  2.1085
16576TIP3    H249651   7.394   7.620   3.866 -0.1166  0.5605  0.4302
16577TIP3   OH249652   6.645   7.213   6.666  0.1268  0.2584  0.4856
16577TIP3    H149653   6.648   7.298   6.711  0.7733  0.0016  0.9425
16577TIP3    H249654   6.726   7.211   6.615 -0.5581  0.5059 -0.6246
16578TIP3   OH249655   3.254   2.253   0.290  0.2728  0.7374 -0.5670
16578TIP3    H149656   3.341   2.222   0.267  0.6921  1.1794  0.4076
16578TIP3    H249657   3.256   2.261   0.385 -0.7516  0.9875 -0.5640
16579TIP3   OH249658   2.152   0.241   5.187  0.5485 -0.6542  0.0487
16579TIP3    H149659   2.093   0.171   5.160  0.5828 -0.7434  0.2021
16579TIP3    H249660   2.155   0.234   5.283  0.2665 -0.2141  0.0926
16580TIP3   OH249661   1.250   1.188   0.636 -0.1075 -0.3143  0.0792
16580TIP3    H149662   1.312   1.230   0.577 -0.4288 -0.1989 -0.1826
16580TIP3    H249663   1.268   1.227   0.721  1.1959 -1.3921  0.3055
16581TIP3   OH249664   0.743   0.123   7.085 -0.0158  0.3930 -0.5362
16581TIP3    H149665   0.703   0.066   7.019  1.5492 -0.7357 -0.5410
16581TIP3    H249666   0.724   0.212   7.055 -0.1983 -0.1117 -1.9785
16582TIP3   OH249667   7.685   6.120   7.011 -0.1796 -0.0129 -0.0602
16582TIP3    H149668   7.777   6.103   7.029 -0.3860 -0.5754  0.5031
16582TIP3    H249669   7.685   6.192   6.948  0.6505 -0.2692 -0.3558
16583TIP3   OH249670   4.524   6.598   5.840  0.3571  0.4166 -0.2031
16583TIP3    H149671   4.591   6.575   5.776  0.0269 -0.0971 -0.3633
16583TIP3    H249672   4.473   6.667   5.797  1.3488  1.4643  0.2807
16584TIP3   OH249673   5.858   7.558   4.362  0.4374  0.4552  0.8264
16584TIP3    H149674   5.903   7.628   4.410 -0.4250  0.5052  1.5683
16584TIP3    H249675   5.769   7.590   4.351  1.3025  1.6679 -3.2903
16585TIP3   OH249676   6.807   5.645   6.490 -0.1120  0.0770 -0.2123
16585TIP3    H149677   6.896   5.655   6.456  0.2820 -0.2796  0.6943
16585TIP3    H249678   6.811   5.684   6.578 -0.8635  0.1054 -0.1912
16586TIP3   OH249679   8.055   0.168   5.253 -0.4334 -0.3515  0.7301
16586TIP3    H149680   8.071   0.258   5.222  2.8612 -1.0122  0.2701
16586TIP3    H249681   7.972   0.143   5.212 -0.9608  2.1617  0.1622
16587TIP3   OH249682   4.456   7.966   3.647  0.1028 -0.4929  0.2510
16587TIP3    H149683   4.380   7.923   3.608 -0.7604  1.5678 -0.4197
16587TIP3    H249684   4.424   8.003   3.729  0.5803 -0.3442  0.3749
16588TIP3   OH249685   2.516   3.767   0.817 -0.6976 -0.0718 -0.2243
16588TIP3    H149686   2.579   3.798   0.882 -1.6890  1.1889  0.1445
16588TIP3    H249687   2.563   3.698   0.770  0.5555  0.0489  0.8127
16589TIP3   OH249688   5.328   2.159   0.367  0.2248  0.0456  0.2429
16589TIP3    H149689   5.256   2.202   0.322 -0.2293 -2.2194 -1.2980
16589TIP3    H249690   5.401   2.221   0.361 -0.7391  1.0817 -0.8727
16590TIP3   OH249691   3.600   6.707   4.368  0.2853  0.7716 -1.1225
16590TIP3    H149692   3.527   6.666   4.414 -0.9278  1.9072 -1.9637
16590TIP3    H249693   3.678   6.679   4.415 -0.8736  1.5127  1.3389
16591TIP3   OH249694   2.248   4.177   1.800  0.1590 -0.4690  0.0836
16591TIP3    H149695   2.292   4.262   1.794 -0.0773 -0.3384  0.2025
16591TIP3    H249696   2.317   4.118   1.832 -0.0940  0.0137  1.5769
16592TIP3   OH249697   5.591   1.984   0.717  0.1652  0.1575 -0.2496
16592TIP3    H149698   5.641   2.065   0.727  1.2007 -0.6009  0.9497
16592TIP3    H249699   5.642   1.932   0.656  1.4597 -1.0614  1.8184
16593TIP3   OH249700   0.549   0.182   6.043  0.0701 -0.4814 -0.3315
16593TIP3    H149701   0.608   0.228   5.984 -0.4050 -0.2770 -0.6567
16593TIP3    H249702   0.497   0.126   5.985 -0.6837  0.0306 -0.1527
16594TIP3   OH249703   5.748   6.512   0.250 -0.3259  0.1069 -0.1301
16594TIP3    H149704   5.665   6.527   0.205 -0.2544 -0.2515 -0.3849
16594TIP3    H249705   5.763   6.417   0.242 -1.0384 -0.2001  1.9107
16595TIP3   OH249706   4.457   1.331   0.013 -0.8104  0.1302 -0.1280
16595TIP3    H149707   4.423   1.409   0.056  1.0292  1.4754 -1.0732
16595TIP3    H249708   4.500   1.363  -0.065 -0.8787 -1.9428 -1.0496
16596TIP3   OH249709   3.079   4.297   0.772  0.0468 -0.3712  0.4209
16596TIP3    H149710   3.014   4.360   0.741  0.1312 -0.2327  0.5235
16596TIP3    H249711   3.053   4.214   0.732 -0.1895 -0.3149  0.4571
16597TIP3   OH249712   3.576   2.950   0.218  0.0082  0.5277 -0.2082
16597TIP3    H149713   3.508   2.910   0.164 -0.2435  0.7611 -0.0672
16597TIP3    H249714   3.624   3.006   0.158 -0.9798  1.6598  0.0418
16598TIP3   OH249715   4.065   3.881   0.816  0.0665  0.6052 -0.2819
16598TIP3    H149716   4.010   3.954   0.846  0.8971  0.7757  0.8516
16598TIP3    H249717   4.073   3.824   0.892 -0.2874 -0.5070 -1.0699
16599TIP3   OH249718   7.004   6.572   7.108  0.3543 -0.5893  0.0034
16599TIP3    H149719   6.957   6.488   7.113 -0.7561  0.1049  1.7067
16599TIP3    H249720   7.049   6.569   7.024 -0.8767 -2.2765 -0.6334
16600TIP3   OH249721   3.281   1.828   6.760  0.1065  0.5020 -0.0426
16600TIP3    H149722   3.270   1.755   6.821  1.5494 -1.5755 -2.1467
16600TIP3    H249723   3.211   1.816   6.696  0.3007  1.0235 -0.3550
16601TIP3   OH249724   4.577   8.076   7.180  0.1407  0.2209  0.2744
16601TIP3    H149725   4.571   8.122   7.096 -0.0547  2.1808  1.3428
16601TIP3    H249726   4.642   8.126   7.230  0.4151 -1.0566  1.2192
16602TIP3   OH249727   6.943   7.329   4.431 -0.1453  0.2090  0.2356
16602TIP3    H149728   6.944   7.255   4.491 -0.5388 -0.1429 -0.1867
16602TIP3    H249729   6.877   7.306   4.365 -0.3457  0.9802  0.1596
16603TIP3   OH249730   5.355   7.104   4.423  1.4924  0.0629  0.5035
16603TIP3    H149731   5.271   7.063   4.402  1.4257  0.1246  0.6505
16603TIP3    H249732   5.356   7.185   4.372  1.3901  0.1450  0.6328
16604TIP3   OH249733   3.400   2.693   0.347  0.1513  1.0318  0.3972
16604TIP3    H149734   3.347   2.726   0.419  1.6716  1.6637  1.2479
16604TIP3    H249735   3.490   2.702   0.377  0.8271  1.6104 -1.6990
16605TIP3   OH249736   4.132   2.293   2.514 -0.2788 -0.0117 -0.1638
16605TIP3    H149737   4.162   2.245   2.591  0.3060  0.5849 -0.0177
16605TIP3    H249738   4.043   2.322   2.538 -0.5711 -0.8664 -0.1901
16606TIP3   OH249739   3.506   2.229   1.347 -0.0611 -0.4625  0.7794
16606TIP3    H149740   3.536   2.318   1.362  0.5135 -0.4313 -0.5036
16606TIP3    H249741   3.417   2.238   1.313  1.3043 -0.1577 -2.9516
16607TIP3   OH249742   3.651   6.719   5.449  0.1555 -0.3701  0.4900
16607TIP3    H149743   3.709   6.771   5.504  1.1096  0.6639 -1.4362
16607TIP3    H249744   3.578   6.778   5.429  0.6590 -0.1373 -0.7267
16608TIP3   OH249745   3.307   3.803   0.269 -0.1121  0.2712 -0.5633
16608TIP3    H149746   3.359   3.728   0.240 -0.6308  0.2014 -1.3118
16608TIP3    H249747   3.372   3.869   0.294  0.3828 -1.0668  1.8340
16609TIP3   OH249748   6.997   6.630   5.258 -0.1125  0.2319  0.0736
16609TIP3    H149749   7.074   6.678   5.230  0.0629 -1.3278 -2.2740
16609TIP3    H249750   7.031   6.544   5.284 -0.8803 -0.0164  0.2668
16610TIP3   OH249751   0.419   0.009   7.215  0.3821 -0.0456 -0.0996
16610TIP3    H149752   0.474  -0.066   7.195  1.8249  0.9469  0.0805
16610TIP3    H249753   0.479   0.074   7.251 -0.9919  0.8695  0.5953
16611TIP3   OH249754   2.084   1.794   0.585 -0.8566  0.2857  0.2169
16611TIP3    H149755   2.051   1.848   0.513 -1.7696  0.2223  0.5788
16611TIP3    H249756   2.019   1.724   0.593  1.1745 -1.8653 -1.3715
16612TIP3   OH249757   6.026   6.635   3.554  0.1692  0.0861  0.5355
16612TIP3    H149758   6.022   6.576   3.630  2.4833 -2.3616 -1.1348
16612TIP3    H249759   5.964   6.596   3.491  0.4908  0.3832  0.0353
16613TIP3   OH249760   5.836   6.332   5.451  0.2270 -0.6676  0.0298
16613TIP3    H149761   5.830   6.309   5.544  0.5147  0.0094  0.2227
16613TIP3    H249762   5.868   6.422   5.451  0.5413 -0.7730 -0.7347
16614TIP3   OH249763   5.452   6.234   6.373  0.4532 -0.1099 -0.1388
16614TIP3    H149764   5.435   6.246   6.466 -1.6067  1.1887 -0.6441
16614TIP3    H249765   5.371   6.262   6.330  1.6366  0.0335 -2.3705
16615TIP3   OH249766   3.736   3.262   1.483  0.2092  0.8115  0.9183
16615TIP3    H149767   3.786   3.317   1.422  1.0003 -1.8831 -0.9312
16615TIP3    H249768   3.788   3.261   1.563  1.3397  0.8565  0.1816
16616TIP3   OH249769   5.805   7.048   5.318 -0.2874  0.4805 -0.1018
16616TIP3    H149770   5.779   7.035   5.227 -0.1874 -2.2679  0.2292
16616TIP3    H249771   5.778   6.967   5.363 -0.0201  1.6431  2.2361
16617TIP3   OH249772   4.960   7.345   6.441 -0.5244  0.2020  0.1995
16617TIP3    H149773   4.946   7.408   6.370  1.6960 -0.1255 -0.5508
16617TIP3    H249774   4.892   7.278   6.427 -1.9207  1.6167  0.1024
16618TIP3   OH249775   1.782   3.119   0.034 -0.2232  0.5171  0.2350
16618TIP3    H149776   1.712   3.124   0.099  0.5083  0.7797  1.0004
16618TIP3    H249777   1.859   3.088   0.082  0.5131  1.4246 -0.3389
16619TIP3   OH249778   5.272   7.197   4.017  0.1265 -0.6089  0.3438
16619TIP3    H149779   5.323   7.249   3.954  1.9607  0.5169  2.6909
16619TIP3    H249780   5.320   7.115   4.024  0.0536 -0.6425  0.4480
16620TIP3   OH249781   5.833   1.464   0.641  0.0012  0.1663  0.2948
16620TIP3    H149782   5.879   1.448   0.558  0.2403 -1.1503  0.6786
16620TIP3    H249783   5.743   1.485   0.615  0.2418  0.4573 -0.3247
16621TIP3   OH249784   6.536   4.438   1.628 -0.0655  0.0806  0.3147
16621TIP3    H149785   6.595   4.371   1.662  0.0160  1.2564  2.6626
16621TIP3    H249786   6.585   4.520   1.640 -1.2390  0.8213  0.1041
16622TIP3   OH249787   5.679   7.891   5.903 -0.0884  0.1630 -0.1839
16622TIP3    H149788   5.750   7.901   5.840  1.6321  0.7320  1.8063
16622TIP3    H249789   5.718   7.846   5.977 -1.2551  2.3224  1.8047
16623TIP3   OH249790   3.690   2.507   0.680  0.5864 -0.3002  0.2073
16623TIP3    H149791   3.784   2.522   0.692  0.2853 -0.4573  3.1861
16623TIP3    H249792   3.652   2.594   0.687  0.4694 -0.2652 -0.7890
16624TIP3   OH249793   6.286   6.932   6.708 -0.4817  0.3122 -0.1630
16624TIP3    H149794   6.205   6.982   6.699 -0.7415 -0.0383  0.2132
16624TIP3    H249795   6.264   6.846   6.671 -0.6126 -0.1363  0.9463
16625TIP3   OH249796   2.415   2.439   0.773  0.0819 -0.0459  0.0706
16625TIP3    H149797   2.335   2.411   0.818 -0.6119  1.9315  0.1002
16625TIP3    H249798   2.485   2.389   0.815 -0.7805  0.4021  2.0988
16626TIP3   OH249799   6.758   6.565   5.829  0.1044 -0.2430 -0.5247
16626TIP3    H149800   6.818   6.490   5.832  0.3938  0.0301  0.6581
16626TIP3    H249801   6.816   6.641   5.834 -0.2256  0.0602 -1.2269
16627TIP3   OH249802   8.323   1.831   1.045 -0.0358  0.7345  0.1383
16627TIP3    H149803   8.401   1.782   1.020  0.1222  0.3638  1.3603
16627TIP3    H249804   8.344   1.922   1.022  0.4754  0.5342 -0.1985
16628TIP3   OH249805   2.998   4.910   5.121  0.2835 -0.1524  0.6881
16628TIP3    H149806   3.022   4.838   5.179  0.7033 -0.0626  0.6298
16628TIP3    H249807   2.916   4.882   5.081  0.2462 -0.4290  0.9569
16629TIP3   OH249808   6.710   7.780   5.111  0.2885  0.2591 -0.0181
16629TIP3    H149809   6.615   7.792   5.103  0.4147  2.3576  1.3424
16629TIP3    H249810   6.720   7.717   5.182 -0.1286 -1.6001 -1.5747
16630TIP3   OH249811   8.565   7.130   4.553  0.0320  0.0813  0.0627
16630TIP3    H149812   8.540   7.182   4.476  1.1459  1.1134  0.3910
16630TIP3    H249813   8.660   7.125   4.548  0.1011  0.1052  1.3457
16631TIP3   OH249814   4.795   7.414   4.752  0.0436  0.2310 -0.4237
16631TIP3    H149815   4.831   7.342   4.804 -0.2601  2.0498  2.4223
16631TIP3    H249816   4.745   7.370   4.683  1.1535 -2.2886  0.3063
16632TIP3   OH249817   4.601   6.742   4.615 -0.3617 -0.6727  0.3394
16632TIP3    H149818   4.531   6.764   4.676  0.3906 -0.1105  1.0043
16632TIP3    H249819   4.680   6.777   4.655  0.2036 -0.6825 -0.7396
16633TIP3   OH249820   5.796   7.901   6.189  0.1420 -0.4459  0.0971
16633TIP3    H149821   5.778   7.932   6.278  2.0596  0.4518  0.1861
16633TIP3    H249822   5.875   7.948   6.162  0.3818 -1.7434 -1.5668
16634TIP3   OH249823   6.951   6.518   6.110  0.1571 -0.3896  0.0101
16634TIP3    H149824   6.880   6.455   6.098  1.3541 -1.3554 -2.4296
16634TIP3    H249825   6.956   6.565   6.027  2.2521 -0.2403  0.1909
16635TIP3   OH249826   5.688   8.151   5.599 -0.1067 -0.0595  0.0325
16635TIP3    H149827   5.685   8.118   5.689  1.6913  0.8644  0.4652
16635TIP3    H249828   5.597   8.157   5.572 -0.5915 -1.9034  1.2197
16636TIP3   OH249829   4.636   7.095   5.016  0.1451  0.1418  0.5034
16636TIP3    H149830   4.679   7.176   4.988  1.1654 -0.6445 -0.2037
16636TIP3    H249831   4.708   7.036   5.038 -0.6008 -0.4787  1.3199
16637TIP3   OH249832   1.924   3.803   1.780  0.8634  0.4821 -0.5913
16637TIP3    H149833   1.984   3.844   1.842  1.1447  1.2552 -1.3529
16637TIP3    H249834   1.838   3.813   1.819  1.2639 -0.9393  0.6731
16638TIP3   OH249835   6.931   7.774   6.791 -0.5158  0.0957  0.1367
16638TIP3    H149836   6.956   7.818   6.872  1.4947 -0.8900  0.1095
16638TIP3    H249837   6.845   7.810   6.769 -1.0576  0.4534  2.6399
16639TIP3   OH249838   6.122   4.687   7.244  0.1684 -0.2757 -0.0447
16639TIP3    H149839   6.037   4.723   7.272  0.1085 -1.2078  1.0217
16639TIP3    H249840   6.134   4.720   7.155 -0.9254  0.5458  0.1003
16640TIP3   OH249841   8.216   7.902   5.112 -0.2501 -0.0680 -0.0310
16640TIP3    H149842   8.297   7.952   5.097 -0.5863  0.3623 -0.4069
16640TIP3    H249843   8.246   7.822   5.157  0.3916  0.0508 -0.2351
16641TIP3   OH249844   6.943   8.246   6.406  0.4426  0.0939 -0.1657
16641TIP3    H149845   6.902   8.319   6.361  1.1154  1.7733  1.8463
16641TIP3    H249846   7.021   8.225   6.354 -0.2604  0.1693 -1.2636
16642TIP3   OH249847   7.169   6.489   6.622  0.2751  0.2401  0.9580
16642TIP3    H149848   7.122   6.531   6.550  3.2389  0.7638 -0.7298
16642TIP3    H249849   7.143   6.397   6.618 -1.0079  0.6162  0.4204
16643TIP3   OH249850   6.368   6.888   6.348  0.5292 -0.2367  0.1610
16643TIP3    H149851   6.403   6.959   6.403 -0.1740 -1.4962  2.3077
16643TIP3    H249852   6.274   6.906   6.343  0.0414 -1.9743  2.2598
16644TIP3   OH249853   5.307   2.053   1.368 -0.0772  0.0262 -0.0183
16644TIP3    H149854   5.247   2.122   1.340 -1.8230 -1.4566 -0.1136
16644TIP3    H249855   5.281   1.977   1.316  0.3911 -1.2511  1.5708
16645TIP3   OH249856   6.832   5.821   6.197 -0.1286  0.2213 -0.6285
16645TIP3    H149857   6.743   5.855   6.206 -0.0644  0.1317  0.3878
16645TIP3    H249858   6.827   5.758   6.125 -0.4239  1.7814 -2.0221
16646TIP3   OH249859   3.079   5.123   0.424  0.1638  0.0413  0.9544
16646TIP3    H149860   2.993   5.143   0.461  0.7616  1.2220  1.7290
16646TIP3    H249861   3.060   5.074   0.344 -1.2115 -0.1966  1.4170
16647TIP3   OH249862   7.214   6.317   4.867 -0.1100  0.6189  0.2133
16647TIP3    H149863   7.124   6.291   4.887  0.4088 -0.5015  1.0759
16647TIP3    H249864   7.259   6.315   4.951  0.6049  1.7130 -0.1279
16648TIP3   OH249865   7.641   0.816   7.050 -0.3510  0.1473 -0.1385
16648TIP3    H149866   7.690   0.745   7.010 -1.2284  0.3688 -1.6249
16648TIP3    H249867   7.565   0.774   7.090 -1.0257  0.2681 -1.2726
16649TIP3   OH249868   5.476   7.703   7.089  0.0322 -0.2452 -0.0223
16649TIP3    H149869   5.556   7.755   7.099 -0.4516  0.0766  2.4170
16649TIP3    H249870   5.415   7.762   7.046  0.0914  0.6093  1.0393
16650TIP3   OH249871   5.477   7.703   5.671 -0.2143  0.3132  0.0641
16650TIP3    H149872   5.501   7.789   5.635  1.8795 -0.0139  0.6249
16650TIP3    H249873   5.560   7.665   5.699 -1.0471 -2.1929 -0.7876
16651TIP3   OH249874   8.441   0.298   6.111  0.2699 -0.1876  0.0399
16651TIP3    H149875   8.503   0.278   6.040  1.4879 -0.3905  1.1426
16651TIP3    H249876   8.449   0.392   6.124  0.5631 -0.2593  0.3808
16652TIP3   OH249877   1.278   2.436   3.926 -0.6666 -0.1576 -0.2451
16652TIP3    H149878   1.320   2.351   3.913  1.2126  0.7492 -0.2778
16652TIP3    H249879   1.314   2.468   4.009  1.8072  2.3800 -2.1846
16653TIP3   OH249880   6.242   6.510   5.630  0.0552 -0.0026 -0.4506
16653TIP3    H149881   6.220   6.579   5.693 -1.1906 -1.2748  0.5272
16653TIP3    H249882   6.288   6.556   5.560 -0.8396  1.8479  0.1497
16654TIP3   OH249883   6.106   7.617   4.802 -0.2223  0.2111 -0.0258
16654TIP3    H149884   6.078   7.670   4.877  0.1381 -0.0250  0.2717
16654TIP3    H249885   6.127   7.681   4.734  0.8318  0.4723  0.5454
16655TIP3   OH249886   7.273   7.453   5.211  0.7672 -0.4779 -0.3885
16655TIP3    H149887   7.304   7.536   5.247  1.1426 -0.3138 -1.0753
16655TIP3    H249888   7.335   7.388   5.244  2.3425 -0.0476 -2.3770
16656TIP3   OH249889   5.549   6.641   5.824 -0.4078 -0.4078 -0.0232
16656TIP3    H149890   5.624   6.667   5.770 -0.3327  0.3152  0.4132
16656TIP3    H249891   5.574   6.556   5.860  0.3515 -0.0224  0.3784
16657TIP3   OH249892   3.872   3.968   6.872  0.3816 -0.9765  0.0448
16657TIP3    H149893   3.814   4.029   6.827  1.7117 -1.3326 -2.2042
16657TIP3    H249894   3.821   3.887   6.878 -0.1902 -0.6112  0.1342
16658TIP3   OH249895   7.091   7.406   4.995  0.2307  0.8092  0.0152
16658TIP3    H149896   7.064   7.314   4.984  0.4788  0.5972  1.1888
16658TIP3    H249897   7.186   7.404   4.985  0.2227  0.9711 -0.0998
16659TIP3   OH249898   2.164   2.353   0.893  0.1155 -0.2549 -0.3982
16659TIP3    H149899   2.113   2.380   0.969  0.7751 -0.2669  0.0540
16659TIP3    H249900   2.228   2.291   0.929 -0.4428 -1.2937 -1.1783
16660TIP3   OH249901   6.255   7.015   5.868 -0.5108 -0.5992 -0.1334
16660TIP3    H149902   6.237   7.066   5.789  0.8308 -1.9341 -1.3324
16660TIP3    H249903   6.213   7.064   5.938  0.5885  2.0702 -1.2762
16661TIP3   OH249904   4.263   4.800   0.523  0.1200  0.3405  0.3391
16661TIP3    H149905   4.268   4.713   0.484  0.7772  0.6269 -0.2399
16661TIP3    H249906   4.202   4.848   0.467  1.0951  0.7640 -0.3871
16662TIP3   OH249907   4.808   5.630   5.721 -0.2007 -0.1636 -0.3724
16662TIP3    H149908   4.897   5.614   5.752 -0.2049 -1.1471 -0.8454
16662TIP3    H249909   4.772   5.694   5.783  0.1816 -1.2228  0.9535
16663TIP3   OH249910   2.584   6.270   1.880 -0.5397 -0.3126 -0.0592
16663TIP3    H149911   2.509   6.329   1.883 -0.3927 -0.1724  0.8446
16663TIP3    H249912   2.659   6.328   1.864 -0.3435 -0.2038  1.2294
16664TIP3   OH249913   4.077   4.204   0.688  0.0941  0.3591  0.3884
16664TIP3    H149914   4.032   4.248   0.616  0.3989  0.3297  0.1789
16664TIP3    H249915   4.066   4.111   0.671  2.7125  0.3016 -1.2614
16665TIP3   OH249916   1.265   0.771   4.658  0.0728  0.3847  0.2319
16665TIP3    H149917   1.313   0.816   4.589 -0.4569 -0.4394 -0.6866
16665TIP3    H249918   1.287   0.819   4.738  1.4980  0.7279 -0.3525
16666TIP3   OH249919   4.281   1.668   1.849  0.0253 -0.5991 -0.1147
16666TIP3    H149920   4.275   1.758   1.816 -1.1655  0.2289  2.2369
16666TIP3    H249921   4.372   1.643   1.832  0.0671  0.6189 -1.8405
16667TIP3   OH249922   8.900   0.244   5.424 -0.1378  0.5785 -0.2160
16667TIP3    H149923   8.915   0.281   5.511 -0.3660  1.0558 -0.3764
16667TIP3    H249924   8.828   0.181   5.437 -0.4302  0.9280 -0.1314
16668TIP3   OH249925   1.024   0.234   7.232  0.1789 -0.2950  0.3160
16668TIP3    H149926   1.074   0.316   7.240  0.0484 -0.3639  2.0851
16668TIP3    H249927   0.970   0.247   7.154  0.9697  0.8620 -0.0627
16669TIP3   OH249928   6.085   6.662   6.079  0.2691  0.0001 -0.0623
16669TIP3    H149929   6.048   6.623   6.158  0.7602 -1.5990 -0.6245
16669TIP3    H249930   6.136   6.592   6.039 -1.5780  0.2074 -2.8521
16670TIP3   OH249931   4.883   6.708   6.961 -0.2205  0.6381 -0.2243
16670TIP3    H149932   4.820   6.780   6.948 -1.7458 -0.8780 -1.5377
16670TIP3    H249933   4.965   6.741   6.923 -0.5473  2.1763  0.3740
16671TIP3   OH249934   4.772   6.858   4.836 -0.1770  0.0396  0.0858
16671TIP3    H149935   4.755   6.829   4.926  1.0943  2.1775  1.0602
16671TIP3    H249936   4.866   6.846   4.825 -0.1912  0.6223 -0.6469
16672TIP3   OH249937   8.654   7.202   5.228  0.5016 -0.3921  0.5126
16672TIP3    H149938   8.679   7.169   5.314  0.1374 -0.1916  0.6979
16672TIP3    H249939   8.571   7.158   5.210  1.9110 -2.5482 -0.9499
16673TIP3   OH249940   1.139   3.850   1.560 -0.1803  0.1235 -0.4388
16673TIP3    H149941   1.047   3.830   1.572 -0.1706 -0.6458 -1.5942
16673TIP3    H249942   1.151   3.853   1.465  0.8820  0.6807 -0.2956
16674TIP3   OH249943   5.248   6.816   4.623 -0.6673  0.1398  0.0354
16674TIP3    H149944   5.303   6.776   4.556 -1.5268  2.0092 -1.8688
16674TIP3    H249945   5.161   6.780   4.606 -0.5648 -0.7045  1.2706
16675TIP3   OH249946   5.314   3.006   1.275  0.3443  0.1643  0.6058
16675TIP3    H149947   5.328   2.918   1.309 -0.1413  0.1813  0.8459
16675TIP3    H249948   5.302   3.060   1.353 -1.6675  0.0557  0.3915
16676TIP3   OH249949   5.721   5.585   5.987 -0.0951 -0.4769 -0.3343
16676TIP3    H149950   5.730   5.538   5.904  0.0226 -0.6539 -0.2229
16676TIP3    H249951   5.666   5.528   6.040  0.6357 -0.8247  0.0521
16677TIP3   OH249952   6.614   7.666   6.551  0.0650 -0.0327  0.4656
16677TIP3    H149953   6.674   7.740   6.568 -0.3704  0.6303 -0.8426
16677TIP3    H249954   6.597   7.670   6.457 -2.0680 -0.1932  0.8260
16678TIP3   OH249955   2.643   3.515   0.324 -0.4510 -0.4437 -0.0507
16678TIP3    H149956   2.613   3.508   0.415  0.9222 -2.1503  0.2901
16678TIP3    H249957   2.563   3.507   0.272 -1.0016 -1.5826  0.9458
16679TIP3   OH249958   5.464   5.016   5.019  0.1153 -0.2392 -0.0746
16679TIP3    H149959   5.445   5.101   5.059  1.0007 -0.2729  0.4352
16679TIP3    H249960   5.540   4.984   5.067  0.6812 -0.6589 -1.2331
16680TIP3   OH249961   2.690   3.785   1.057  0.2762 -0.4721 -0.0037
16680TIP3    H149962   2.698   3.693   1.081  1.1042 -0.4232 -0.0627
16680TIP3    H249963   2.778   3.821   1.071 -0.1439  0.4032  0.4161
16681TIP3   OH249964   4.510   7.944   5.298  0.2307  0.0794  0.2570
16681TIP3    H149965   4.556   7.963   5.380  2.0767  1.7894 -1.1629
16681TIP3    H249966   4.418   7.964   5.318  0.3555 -1.3538  2.4661
16682TIP3   OH249967   6.704   7.288   6.072  0.1157  0.0149  0.5828
16682TIP3    H149968   6.619   7.270   6.113  0.4526 -0.9003  0.8788
16682TIP3    H249969   6.750   7.342   6.136 -0.7417  1.6462 -0.1400
16683TIP3   OH249970   8.832   0.208   6.901  0.0372 -0.4299 -0.2269
16683TIP3    H149971   8.824   0.204   6.805 -1.0946  0.1049 -0.1719
16683TIP3    H249972   8.916   0.249   6.917 -1.0624  2.2607 -1.0536
16684TIP3   OH249973   1.302   2.639   0.781 -0.3098 -0.1694  0.3399
16684TIP3    H149974   1.291   2.559   0.832  1.1169 -0.6029 -0.0270
16684TIP3    H249975   1.382   2.625   0.730 -0.6616  1.0301 -0.5783
16685TIP3   OH249976   4.559   5.888   5.630  0.6028  0.1121 -0.3409
16685TIP3    H149977   4.629   5.907   5.692  0.2405  0.3007  0.0119
16685TIP3    H249978   4.516   5.810   5.665 -0.6727  1.2013  0.5634
16686TIP3   OH249979   7.544   5.772   5.549 -0.0852 -0.0080  0.1965
16686TIP3    H149980   7.504   5.687   5.531  0.3609 -0.4258  1.1370
16686TIP3    H249981   7.597   5.758   5.628  1.0768  0.8008 -0.4183
16687TIP3   OH249982   4.699   1.566   0.094  0.4741 -0.2722 -0.2080
16687TIP3    H149983   4.776   1.514   0.072  0.2809 -0.3270 -0.7631
16687TIP3    H249984   4.634   1.541   0.028  0.0148 -0.1584  0.2020
16688TIP3   OH249985   0.343   0.721   6.834 -0.1987 -0.5441 -0.6149
16688TIP3    H149986   0.348   0.684   6.922  0.8607 -0.4895 -0.6482
16688TIP3    H249987   0.405   0.794   6.835 -1.2136  0.3401 -0.9847
16689TIP3   OH249988   6.160   4.273   5.938  0.4498 -0.5637 -0.1872
16689TIP3    H149989   6.068   4.247   5.947  0.8805 -1.3629  2.3534
16689TIP3    H249990   6.209   4.195   5.966  1.8751  0.4948  0.2964
16690TIP3   OH249991   4.257   1.132   1.194 -0.6609 -0.0727 -0.2414
16690TIP3    H149992   4.346   1.167   1.202 -0.2824 -1.1305  0.2170
16690TIP3    H249993   4.206   1.206   1.163  0.0066  1.0971  1.3559
16691TIP3   OH249994   2.861   3.946   0.131  0.5600 -0.1247  0.9657
16691TIP3    H149995   2.837   3.865   0.085 -0.0135  0.5006  0.1526
16691TIP3    H249996   2.954   3.957   0.114  0.1212  0.6860 -0.9786
16692TIP3   OH249997   2.413   1.426   2.029 -0.2576  0.4701  0.1484
16692TIP3    H149998   2.384   1.376   2.105 -0.9447 -0.0792 -0.4853
16692TIP3    H249999   2.333   1.452   1.985  0.0953  1.8887  0.3064
16693TIP3   OH250000   6.565   8.001   3.643  0.4251 -0.4774  0.4185
16693TIP3    H150001   6.523   8.057   3.708  1.0715  1.9884 -1.2463
16693TIP3    H250002   6.648   7.975   3.683  0.4354  0.3172  0.9093
16694TIP3   OH250003   6.450   6.737   7.027  0.2239  0.0982  0.3344
16694TIP3    H150004   6.510   6.803   6.993  0.5562 -0.6307 -0.5019
16694TIP3    H250005   6.406   6.701   6.950 -1.1488  0.4730  0.9176
16695TIP3   OH250006   7.941   5.687   5.523 -0.4711  0.2475 -0.1342
16695TIP3    H150007   7.976   5.602   5.496 -1.2622  0.0536 -0.5539
16695TIP3    H250008   7.953   5.688   5.618 -0.8377 -0.5094 -0.0729
16696TIP3   OH250009   2.259   7.861   5.941  0.5541  0.5424  0.5461
16696TIP3    H150010   2.290   7.907   6.019  0.9252  1.3937 -0.0968
16696TIP3    H250011   2.165   7.875   5.940  0.6513  1.1908  0.4159
16697TIP3   OH250012   5.132   1.643   0.346  0.1081 -0.2210  0.4097
16697TIP3    H150013   5.165   1.630   0.435 -0.7987  1.0483  0.9494
16697TIP3    H250014   5.040   1.616   0.351  0.3409 -1.2071 -0.4302
16698TIP3   OH250015   7.941   5.697   5.211 -0.0089  0.4184 -0.1250
16698TIP3    H150016   7.851   5.729   5.221  0.2313  1.2491 -0.5855
16698TIP3    H250017   7.986   5.728   5.289 -0.4726 -1.2503  0.8249
16699TIP3   OH250018   5.130   1.691   0.066 -0.0300  0.1636  0.1127
16699TIP3    H150019   5.098   1.751  -0.001  1.4726  2.0781  1.0385
16699TIP3    H250020   5.090   1.607   0.045 -3.5001  1.8433 -0.2946
16700TIP3   OH250021   6.531   8.363   5.362  0.1520  0.2383 -0.0555
16700TIP3    H150022   6.620   8.391   5.383  0.6012 -0.2506 -1.2148
16700TIP3    H250023   6.543   8.277   5.320 -0.8745  0.1077 -0.0826
16701TIP3   OH250024   1.985   1.815   5.809  0.2636  0.2493  0.0055
16701TIP3    H150025   1.982   1.729   5.852 -1.8221 -1.4486 -3.3457
16701TIP3    H250026   1.894   1.843   5.804  0.7514  1.7727 -0.6788
16702TIP3   OH250027   3.747   2.508   0.275  0.3427 -0.1691 -0.1443
16702TIP3    H150028   3.733   2.602   0.262  0.6052 -0.4370 -2.5289
16702TIP3    H250029   3.829   2.503   0.324  0.1994  0.8481  0.2229
16703TIP3   OH250030   6.633   6.686   6.276 -0.5621 -1.0473 -0.1391
16703TIP3    H150031   6.705   6.738   6.241 -0.8227 -1.0513 -0.6887
16703TIP3    H250032   6.567   6.751   6.301  0.2980 -0.9267  1.9537
16704TIP3   OH250033   6.201   7.909   5.898 -0.2787  0.0789 -0.0689
16704TIP3    H150034   6.200   7.856   5.977 -1.4503 -1.0826 -0.8477
16704TIP3    H250035   6.235   7.851   5.830 -2.1160  0.1111 -1.0555
16705TIP3   OH250036   5.247   1.933   0.217  0.6737  0.2032  0.1310
16705TIP3    H150037   5.260   1.977   0.133  2.4210 -0.6272 -0.0662
16705TIP3    H250038   5.273   1.998   0.282 -0.5486  0.7993  0.0339
16706TIP3   OH250039   7.654   5.928   6.139 -0.8230 -0.0902 -0.8753
16706TIP3    H150040   7.651   5.913   6.045 -0.4248  0.7772 -1.0322
16706TIP3    H250041   7.569   5.968   6.160 -1.0514 -0.6117 -0.8056
16707TIP3   OH250042   7.735   5.668   5.760  0.3940 -0.1525  0.3193
16707TIP3    H150043   7.772   5.750   5.727  0.7658 -0.5709 -0.3252
16707TIP3    H250044   7.700   5.690   5.846  0.3622  0.7150  0.0866
16708TIP3   OH250045   8.123   6.935   4.797  0.8506 -0.0904  0.2840
16708TIP3    H150046   8.138   6.860   4.739 -1.4640 -1.1325  0.9888
16708TIP3    H250047   8.208   6.979   4.801  2.1453 -2.4221 -0.4798
16709TIP3   OH250048   7.512   3.803   0.998  0.1486  0.1106 -0.1329
16709TIP3    H150049   7.492   3.883   0.951 -1.4204 -0.1688  0.0152
16709TIP3    H250050   7.608   3.799   1.000  0.2367  1.4915 -0.9373
16710TIP3   OH250051   7.067   4.930   0.810 -0.6027  0.2040  0.4223
16710TIP3    H150052   7.038   4.924   0.901 -0.7996  0.9595  0.4152
16710TIP3    H250053   7.102   5.019   0.802  1.2471 -0.5180  0.2941
16711TIP3   OH250054   5.087   0.567   5.618 -0.2103 -0.1289 -0.6691
16711TIP3    H150055   5.068   0.474   5.630  0.3038  0.0025  1.3469
16711TIP3    H250056   5.181   0.572   5.605 -0.4153 -0.0043 -2.1814
16712TIP3   OH250057   1.003   1.837   1.317 -0.5521 -0.9380 -0.9687
16712TIP3    H150058   0.966   1.792   1.393  1.0563 -0.2078  0.2876
16712TIP3    H250059   1.073   1.779   1.287  0.8976  0.2080  0.0781
16713TIP3   OH250060   7.106   4.879   0.523 -0.1458 -0.0695  0.0816
16713TIP3    H150061   7.192   4.866   0.484 -0.8384 -3.5769 -0.4702
16713TIP3    H250062   7.123   4.883   0.617  0.7891  1.2118 -0.1273
16714TIP3   OH250063   3.725   6.706   5.871 -0.3557 -0.0897 -0.2895
16714TIP3    H150064   3.643   6.659   5.886 -1.5692  2.0899  0.1267
16714TIP3    H250065   3.784   6.675   5.940 -0.8483 -1.6156 -0.5436
16715TIP3   OH250066   6.821   1.105   6.610  0.0210 -0.3720 -0.2945
16715TIP3    H150067   6.752   1.103   6.543 -1.8090 -1.9115  1.5629
16715TIP3    H250068   6.830   1.198   6.631  0.2544  0.0774 -2.2945
16716TIP3   OH250069   0.383   2.429   0.696  0.4829 -0.0964  0.3234
16716TIP3    H150070   0.405   2.386   0.613 -0.5985 -0.0392  0.0016
16716TIP3    H250071   0.451   2.399   0.757 -1.0647 -3.5276  0.5010
16717TIP3   OH250072   0.743   2.535   2.241  0.0329 -0.2430  0.3993
16717TIP3    H150073   0.737   2.630   2.231  1.4209 -0.1351  0.4500
16717TIP3    H250074   0.745   2.501   2.152 -2.5866 -0.3972  0.3706
16718TIP3   OH250075   7.668   6.317   1.580  0.1095 -0.0758  0.0205
16718TIP3    H150076   7.763   6.317   1.572 -0.1403 -1.2521 -4.4265
16718TIP3    H250077   7.642   6.404   1.548 -0.4050 -0.5845 -0.9658
16719TIP3   OH250078   1.225   3.344   1.889 -0.5971  0.0473  0.3226
16719TIP3    H150079   1.281   3.338   1.967 -1.2235  1.1203  0.8616
16719TIP3    H250080   1.201   3.253   1.870  0.0457 -0.2722  1.0310
16720TIP3   OH250081   1.608   4.661   1.860 -0.2360  0.1982  0.2193
16720TIP3    H150082   1.595   4.695   1.948  1.4266  2.7685 -0.4740
16720TIP3    H250083   1.699   4.683   1.839 -0.0248 -2.0369 -1.4537
16721TIP3   OH250084   7.625   0.526   6.227  0.6954  0.3948 -0.0197
16721TIP3    H150085   7.641   0.433   6.214  1.1278  0.3636  0.7047
16721TIP3    H250086   7.614   0.536   6.322 -0.1323  0.9595 -0.1689
16722TIP3   OH250087   5.992   1.385   6.987  0.3692  0.5843  0.2919
16722TIP3    H150088   6.073   1.435   6.999 -0.5994  2.2092  0.3254
16722TIP3    H250089   5.923   1.452   6.988 -1.1161 -0.8987  1.8298
16723TIP3   OH250090   3.790   8.381   4.875  0.0528 -0.2879 -0.1635
16723TIP3    H150091   3.839   8.331   4.810  0.3462  0.7473 -0.7397
16723TIP3    H250092   3.825   8.351   4.959  1.6124  0.3435 -0.5607
16724TIP3   OH250093   6.883   0.759   7.256  0.5276 -0.4374 -0.2800
16724TIP3    H150094   6.792   0.736   7.274  1.3723 -1.8149  2.5664
16724TIP3    H250095   6.878   0.838   7.202 -2.3500  1.0300  1.9871
16725TIP3   OH250096   6.746   3.559   1.875 -0.1629  0.6823  0.5323
16725TIP3    H150097   6.765   3.471   1.845  1.6423  0.5263  2.0300
16725TIP3    H250098   6.700   3.601   1.802 -2.2804 -1.8970  0.3207
16726TIP3   OH250099   2.161   6.592   6.789 -0.2261  0.0276  0.0632
16726TIP3    H150100   2.110   6.673   6.798 -0.5039 -0.2226  0.8691
16726TIP3    H250101   2.136   6.557   6.704  0.2573  1.0326 -0.5028
16727TIP3   OH250102   8.043   4.925   0.783 -0.1755 -0.1735  0.2396
16727TIP3    H150103   8.027   5.018   0.798  2.6512  0.3981  0.0963
16727TIP3    H250104   8.135   4.921   0.755 -0.0992 -3.0500  0.7308
16728TIP3   OH250105   2.980   8.405   7.102 -0.1318  0.1336  0.7741
16728TIP3    H150106   3.042   8.333   7.117  0.2323  0.9742  3.4689
16728TIP3    H250107   2.933   8.379   7.022  1.7638 -1.8419  0.2400
16729TIP3   OH250108   1.391   2.901   0.816 -0.0384  0.5096 -0.4137
16729TIP3    H150109   1.354   2.815   0.799  0.1868  0.4378 -0.5356
16729TIP3    H250110   1.403   2.939   0.729  1.3190  0.0598 -0.4244
16730TIP3   OH250111   8.482   2.474   1.316  0.8889 -0.1172 -0.1729
16730TIP3    H150112   8.504   2.556   1.360  0.8340 -0.6296  0.8231
16730TIP3    H250113   8.405   2.442   1.363  1.5617 -1.2790  0.1438
16731TIP3   OH250114   7.419   5.603   1.033  1.0034 -0.6679  0.7289
16731TIP3    H150115   7.432   5.541   0.961  2.0438 -1.7745  1.8667
16731TIP3    H250116   7.421   5.689   0.991  0.4197 -1.3484 -0.7311
16732TIP3   OH250117   8.751   3.385   1.352  0.3152  0.4696 -0.0822
16732TIP3    H150118   8.794   3.334   1.283  0.3144 -0.1368  0.3637
16732TIP3    H250119   8.699   3.450   1.305  1.5759  1.0928 -0.6371
16733TIP3   OH250120   0.998   6.287   4.505  0.0957  0.0161 -0.2805
16733TIP3    H150121   1.089   6.290   4.475 -0.6041 -0.9710 -2.6446
16733TIP3    H250122   0.964   6.375   4.490 -0.5216 -0.6958 -3.5001
16734TIP3   OH250123   3.910   7.291   5.415  0.1900  0.3191 -0.2362
16734TIP3    H150124   3.993   7.248   5.392 -0.7916 -1.3593 -0.6861
16734TIP3    H250125   3.906   7.366   5.356  0.4643 -0.6951 -1.5774
16735TIP3   OH250126   2.384   7.414   5.268  0.2440 -0.6080  0.2898
16735TIP3    H150127   2.373   7.412   5.363 -2.1399  2.2602  0.1647
16735TIP3    H250128   2.298   7.443   5.235  1.1072 -1.2993 -2.7211
16736TIP3   OH250129   7.663   4.718   2.643 -0.0109  0.1415  0.1938
16736TIP3    H150130   7.658   4.630   2.605 -1.3040  1.1161 -2.0137
16736TIP3    H250131   7.598   4.719   2.712 -0.4456 -0.4537 -0.2040
16737TIP3   OH250132   2.934   6.646   6.211 -0.1741 -0.0541 -0.2113
16737TIP3    H150133   2.974   6.704   6.146 -0.1071 -1.2361 -1.2512
16737TIP3    H250134   2.999   6.576   6.224 -1.0839 -0.9741 -0.4978
16738TIP3   OH250135   8.537   5.190   0.836  0.0296  0.3538  0.8584
16738TIP3    H150136   8.463   5.234   0.794  0.0448  0.2175  0.6914
16738TIP3    H250137   8.496   5.130   0.898 -0.0093 -0.0660  0.4269
16739TIP3   OH250138   7.037   1.492   5.938  0.2305  0.1596 -0.5647
16739TIP3    H150139   6.992   1.516   5.857  0.0382  0.8927 -0.2487
16739TIP3    H250140   7.129   1.507   5.920  0.1373  0.8365 -0.4705
16740TIP3   OH250141   1.836   6.761   6.797 -0.2955  0.4165 -0.6620
16740TIP3    H150142   1.818   6.669   6.778 -0.0767  0.1223  0.5474
16740TIP3    H250143   1.904   6.758   6.864  1.8519  1.4711 -2.7216
16741TIP3   OH250144   5.997   7.843   0.448 -0.2308 -0.5472  0.4015
16741TIP3    H150145   6.016   7.808   0.535  0.7334 -1.7618 -0.2847
16741TIP3    H250146   5.913   7.804   0.425 -0.4473 -0.2940  0.7506
16742TIP3   OH250147   1.355   2.746   2.036 -0.0647  0.0155 -0.0505
16742TIP3    H150148   1.395   2.671   2.080  0.9251  0.2330 -0.5680
16742TIP3    H250149   1.424   2.779   1.978 -1.4413 -0.4326 -1.9712
16743TIP3   OH250150   3.061   8.134   6.659  0.0987  0.4439 -0.1590
16743TIP3    H150151   2.976   8.101   6.688  0.5831  0.1680  1.0108
16743TIP3    H250152   3.070   8.219   6.703  0.3922  0.5135 -0.3518
16744TIP3   OH250153   8.377   5.051   2.119 -0.0067 -0.0783 -0.1918
16744TIP3    H150154   8.311   5.046   2.187 -1.4672 -0.4479 -1.6139
16744TIP3    H250155   8.401   4.960   2.102 -0.8870 -0.0898 -1.3687
16745TIP3   OH250156   0.389   4.492   1.227 -0.9028  0.1206  0.1995
16745TIP3    H150157   0.396   4.535   1.141 -0.5392  1.0884  0.7107
16745TIP3    H250158   0.295   4.478   1.238 -1.0903  1.4282  0.3386
16746TIP3   OH250159   5.204   1.575   7.041  0.1012  0.6539 -0.2297
16746TIP3    H150160   5.159   1.595   6.959  0.7063  2.2287 -0.1947
16746TIP3    H250161   5.288   1.539   7.013 -0.0561  0.3221 -0.2879
16747TIP3   OH250162   0.778   3.697   2.462 -0.5712 -0.4046  0.2757
16747TIP3    H150163   0.870   3.677   2.447 -0.9707 -1.0757 -1.4326
16747TIP3    H250164   0.758   3.659   2.547  0.5388 -0.8871  0.3206
16748TIP3   OH250165   0.376   5.009   1.580  0.3983  0.1814 -0.2012
16748TIP3    H150166   0.391   4.931   1.633  1.3055  0.4295 -0.0783
16748TIP3    H250167   0.323   4.978   1.506 -0.7044 -0.1944  0.7418
16749TIP3   OH250168   2.132   3.918   1.930 -0.0851 -0.3431 -0.3008
16749TIP3    H150169   2.182   3.988   1.888  0.6065 -0.5296  0.2081
16749TIP3    H250170   2.145   3.932   2.024  0.2233 -1.2833 -0.2023
16750TIP3   OH250171   2.752   7.712   6.573  0.4409  0.6118 -0.3973
16750TIP3    H150172   2.798   7.677   6.496 -1.3533  1.1605 -1.7651
16750TIP3    H250173   2.813   7.776   6.609  1.4498  0.1213 -1.1886
16751TIP3   OH250174   4.943   0.295   4.327  0.3718  0.1754  0.2754
16751TIP3    H150175   4.866   0.285   4.382  0.6696 -0.8307  0.5164
16751TIP3    H250176   4.971   0.206   4.308  1.1420  0.5286 -0.2787
16752TIP3   OH250177   4.066   8.175   6.246 -0.1276 -0.7654 -0.3688
16752TIP3    H150178   4.001   8.108   6.268 -0.3384 -0.2439  0.6136
16752TIP3    H250179   4.073   8.171   6.151 -0.8386 -1.5398 -0.3917
16753TIP3   OH250180   8.536   4.375   0.374 -0.2298  0.1654 -0.2207
16753TIP3    H150181   8.577   4.317   0.439 -1.0540  1.0885  1.1682
16753TIP3    H250182   8.600   4.445   0.361 -0.5085  0.5557  0.4472
16754TIP3   OH250183   0.610   3.590   1.166 -0.7995 -0.7841 -0.1435
16754TIP3    H150184   0.597   3.678   1.201  0.0624 -1.9159  3.1649
16754TIP3    H250185   0.691   3.595   1.116 -1.2543  0.5014 -0.7743
16755TIP3   OH250186   2.463   7.981   6.371 -0.5429  0.0395  0.3111
16755TIP3    H150187   2.504   7.949   6.291 -0.9498  1.9038 -0.6578
16755TIP3    H250188   2.504   8.066   6.387  0.4639 -0.8443  2.8145
16756TIP3   OH250189   3.831   7.717   5.904  0.3449 -0.0074 -0.8158
16756TIP3    H150190   3.833   7.758   5.818  2.8822  0.4628 -0.5847
16756TIP3    H250191   3.921   7.725   5.936 -0.0486 -2.1418  0.9504
16757TIP3   OH250192   2.640   8.001   5.973  0.0089 -0.1087  0.1975
16757TIP3    H150193   2.634   8.081   6.025 -2.0780  0.6490 -1.1583
16757TIP3    H250194   2.626   7.930   6.037 -0.4603  0.7026  1.0086
16758TIP3   OH250195   8.790   4.167   0.674  0.3581  0.8000 -0.1576
16758TIP3    H150196   8.732   4.242   0.678 -0.9245 -0.0596 -1.7234
16758TIP3    H250197   8.733   4.094   0.649  1.6316 -0.6286  1.0074
16759TIP3   OH250198   2.293   7.305   6.368 -0.0586  0.2845 -0.7632
16759TIP3    H150199   2.274   7.362   6.442  1.4928  0.8975 -0.8168
16759TIP3    H250200   2.230   7.331   6.301 -1.0911  0.1190  0.1437
16760TIP3   OH250201   4.870   0.935   6.841  0.2323  0.1828  0.3983
16760TIP3    H150202   4.881   0.845   6.811 -0.5996  0.6267 -1.3027
16760TIP3    H250203   4.919   0.939   6.923 -0.3604 -2.0131  0.8823
16761TIP3   OH250204   6.720   3.744   2.374  0.1481  0.0125  0.7589
16761TIP3    H150205   6.678   3.806   2.433 -2.5208 -0.6867 -0.3084
16761TIP3    H250206   6.677   3.661   2.391  1.0021 -0.7104 -0.4848
16762TIP3   OH250207   0.673   2.566   1.166  0.1670  0.1175 -0.0615
16762TIP3    H150208   0.688   2.472   1.165  1.4762  0.3250 -1.9608
16762TIP3    H250209   0.650   2.588   1.076  0.5849  1.7178  0.2036
16763TIP3   OH250210   0.120   3.518  -0.005 -0.4189 -0.7534  0.2172
16763TIP3    H150211   0.212   3.537   0.014 -0.7714 -0.0120  1.2279
16763TIP3    H250212   0.110   3.425   0.013 -0.0006 -0.7054  0.7039
16764TIP3   OH250213   8.619   0.964   1.150  0.2142 -0.2239 -0.4584
16764TIP3    H150214   8.540   0.982   1.200 -0.5706 -0.0316 -1.7596
16764TIP3    H250215   8.690   0.969   1.214 -0.8618 -0.7694  0.7790
16765TIP3   OH250216   8.614   1.385   1.611  0.3393 -0.3029 -0.6583
16765TIP3    H150217   8.624   1.405   1.518 -2.0588  1.2286 -0.6418
16765TIP3    H250218   8.588   1.293   1.613 -0.2880 -0.1546 -1.5672
16766TIP3   OH250219   0.745   1.304   1.635  0.0480 -0.6296  0.5214
16766TIP3    H150220   0.688   1.229   1.615 -1.3783 -0.3936  3.4930
16766TIP3    H250221   0.730   1.365   1.563 -0.3528 -2.3104 -0.8474
16767TIP3   OH250222   8.170   2.779   0.618 -0.7469 -0.0729  0.1771
16767TIP3    H150223   8.192   2.705   0.674 -1.5719  0.5614  1.3737
16767TIP3    H250224   8.254   2.807   0.581 -0.5481 -2.1741 -1.0387
16768TIP3   OH250225   0.428   4.104   1.568 -0.6287 -0.6642 -0.7085
16768TIP3    H150226   0.476   4.022   1.567  1.4741  0.5405 -0.9719
16768TIP3    H250227   0.451   4.145   1.652 -0.5641  0.2763 -1.1742
16769TIP3   OH250228   0.827   2.220   1.408  0.1169 -0.2635  0.3104
16769TIP3    H150229   0.796   2.224   1.499  0.2544 -2.7294  0.4879
16769TIP3    H250230   0.921   2.207   1.415  0.1882 -0.0172 -0.1870
16770TIP3   OH250231   1.664   7.880   6.413  0.6209 -0.2671  0.6814
16770TIP3    H150232   1.727   7.870   6.484 -0.0029 -0.3268  1.2356
16770TIP3    H250233   1.656   7.975   6.401  1.7586 -0.2858 -0.2466
16771TIP3   OH250234   7.051   0.784   6.906  0.0621 -0.2578  0.4437
16771TIP3    H150235   7.045   0.879   6.911  0.0608 -0.2118 -0.3849
16771TIP3    H250236   7.111   0.767   6.834 -1.6079 -0.8947 -0.8291
16772TIP3   OH250237   0.015   3.371   0.343  0.6638 -0.2399 -0.3210
16772TIP3    H150238   0.016   3.384   0.248 -0.6470 -2.2395 -0.6531
16772TIP3    H250239   0.022   3.277   0.354  0.4173 -0.0524  1.5700
16773TIP3   OH250240   0.269   3.062   1.440  0.8991 -0.1323  0.1994
16773TIP3    H150241   0.281   3.100   1.527  0.7396 -1.4760  0.8254
16773TIP3    H250242   0.174   3.055   1.429  0.9272 -0.9747  0.3910
16774TIP3   OH250243   1.935   6.387   5.932  0.0344 -0.2405  0.3491
16774TIP3    H150244   2.027   6.401   5.957  0.5820  2.2202 -2.6348
16774TIP3    H250245   1.909   6.470   5.892 -3.2312 -1.2188  0.3274
16775TIP3   OH250246   7.753   5.087   0.266 -0.2004 -0.4383  0.0294
16775TIP3    H150247   7.845   5.100   0.244 -0.0040 -1.1671  0.4095
16775TIP3    H250248   7.748   5.102   0.361  0.2116 -3.9248  0.6672
16776TIP3   OH250249   1.689   4.793   0.416 -0.3943  0.3665  0.0352
16776TIP3    H150250   1.629   4.810   0.344 -0.4032 -0.1644 -0.0846
16776TIP3    H250251   1.701   4.698   0.416  1.8092  0.6084 -1.0515
16777TIP3   OH250252   8.693   3.074   0.623  0.3607 -0.2894 -0.0286
16777TIP3    H150253   8.778   3.090   0.664  0.6780 -2.1187  0.0897
16777TIP3    H250254   8.629   3.106   0.688  0.9097 -1.2740  1.0175
16778TIP3   OH250255   0.288   3.556   2.174  0.2854 -0.0362  0.0005
16778TIP3    H150256   0.318   3.556   2.083  2.1032 -0.1961  0.5903
16778TIP3    H250257   0.197   3.526   2.169  0.8469 -1.5615 -1.6278
16779TIP3   OH250258   0.110   3.871   0.402 -0.0947  0.4890  0.2763
16779TIP3    H150259   0.056   3.945   0.373 -0.6899  0.3155  0.9076
16779TIP3    H250260   0.154   3.841   0.323 -1.2503  0.3783 -0.3450
16780TIP3   OH250261   8.575   4.334   2.811  0.0470  0.1392 -0.0718
16780TIP3    H150262   8.614   4.249   2.790  0.1816  0.4486 -1.1007
16780TIP3    H250263   8.592   4.388   2.734 -0.6146  0.9051  0.3106
16781TIP3   OH250264   7.407   2.593   4.371  0.6034 -0.0113 -0.3821
16781TIP3    H150265   7.484   2.539   4.391  0.2505  0.1697  1.5267
16781TIP3    H250266   7.441   2.681   4.360  0.9576 -0.3164 -1.8085
16782TIP3   OH250267   1.062   4.056   0.237  0.2316  0.3959  0.7743
16782TIP3    H150268   1.123   4.068   0.310  0.4155  1.2956  0.4705
16782TIP3    H250269   1.117   4.033   0.163  0.3139  2.3765  0.2145
16783TIP3   OH250270   0.402   0.394   5.789 -0.6428 -0.5353 -0.1673
16783TIP3    H150271   0.392   0.353   5.874 -0.0567  1.7075  1.0439
16783TIP3    H250272   0.471   0.460   5.802 -1.3247  0.6226 -2.0697
16784TIP3   OH250273   2.396   3.803   3.200  0.0869 -0.1636  0.2333
16784TIP3    H150274   2.328   3.870   3.199  1.0805  0.8768 -0.0080
16784TIP3    H250275   2.364   3.736   3.259 -0.8141  0.6742  0.7038
16785TIP3   OH250276   8.396   3.981   1.265  0.0242 -0.8083 -0.4229
16785TIP3    H150277   8.411   4.063   1.311 -2.9706 -0.8671  0.7659
16785TIP3    H250278   8.428   3.914   1.326  0.5553 -0.6451 -0.5165
16786TIP3   OH250279   8.929   0.006   6.423  0.1236 -0.3049 -0.3559
16786TIP3    H150280   8.934   0.013   6.328  1.3275  1.7927 -0.1754
16786TIP3    H250281   8.836   0.016   6.444 -0.0447 -0.0032 -1.2610
16787TIP3   OH250282   7.836   4.711   1.177 -0.6024 -0.5318 -0.1043
16787TIP3    H150283   7.764   4.770   1.155  0.0874  0.8038  1.0976
16787TIP3    H250284   7.911   4.746   1.127 -0.7583 -1.8511 -1.2770
16788TIP3   OH250285   8.363   2.420   6.723  0.0557 -0.1302  0.0879
16788TIP3    H150286   8.441   2.396   6.774 -0.7334  0.2872  1.5369
16788TIP3    H250287   8.300   2.351   6.742  0.3698 -0.9502 -1.8045
16789TIP3   OH250288   8.253   2.857   1.274  0.1291  0.0025  0.0428
16789TIP3    H150289   8.163   2.885   1.259  1.0558  2.7832 -0.6261
16789TIP3    H250290   8.266   2.867   1.368  0.0539  0.6338 -0.0102
16790TIP3   OH250291   1.992   2.596   0.423  0.7011 -0.7423  0.2683
16790TIP3    H150292   2.050   2.520   0.427  1.2832 -0.2941  0.4231
16790TIP3    H250293   2.041   2.666   0.466 -0.3472 -0.5990  1.2531
16791TIP3   OH250294   2.040   1.977   0.062 -0.0907  0.5273 -0.2234
16791TIP3    H150295   2.043   1.964   0.157 -1.7521  1.2503 -0.0509
16791TIP3    H250296   2.128   1.955   0.032  0.2475 -0.4152  1.3915
16792TIP3   OH250297   3.387   3.993   0.643 -0.1480  0.2997  0.4052
16792TIP3    H150298   3.426   4.047   0.575  0.8930  2.6703  2.8033
16792TIP3    H250299   3.354   4.056   0.708 -1.2556 -1.8771  2.0312
16793TIP3   OH250300   0.771   5.683   3.187  0.0590 -0.4869 -0.0565
16793TIP3    H150301   0.732   5.603   3.150  1.1105 -1.0503  0.0277
16793TIP3    H250302   0.865   5.664   3.192  0.4689  1.1665 -1.0521
16794TIP3   OH250303   6.954   2.499   7.247  0.1641  0.0821  0.5443
16794TIP3    H150304   6.915   2.412   7.249  1.2877 -0.4304  1.2833
16794TIP3    H250305   6.946   2.527   7.156  0.2859 -1.0372  0.1738
16795TIP3   OH250306   3.251   2.837   0.074  0.3030  0.2028  0.3588
16795TIP3    H150307   3.234   2.845  -0.020  1.0805 -0.1312  0.1888
16795TIP3    H250308   3.214   2.916   0.112 -2.0303 -0.6940  0.0495
16796TIP3   OH250309   2.101   2.616   1.194 -0.0804  0.2221 -0.1641
16796TIP3    H150310   2.090   2.521   1.201  1.3429  0.1815  1.7947
16796TIP3    H250311   2.043   2.641   1.121 -0.5789 -2.1072 -0.6158
16797TIP3   OH250312   6.056   0.018   6.302 -0.2123  0.1636  0.3663
16797TIP3    H150313   5.986  -0.036   6.340  0.3654 -1.6440 -1.0397
16797TIP3    H250314   6.023   0.040   6.215 -0.7744  2.7974  1.2086
16798TIP3   OH250315   0.700   1.355   5.516 -0.0087 -0.3377 -0.2458
16798TIP3    H150316   0.723   1.294   5.585 -0.4565 -0.7575 -0.4637
16798TIP3    H250317   0.731   1.440   5.548  0.1972 -0.6025  0.2635
16799TIP3   OH250318   3.735   8.404   5.985 -0.6509  0.3582 -0.1563
16799TIP3    H150319   3.759   8.343   5.915 -1.8412  1.4366 -1.5350
16799TIP3    H250320   3.692   8.349   6.051  2.2437 -0.9993  0.6861
16800TIP3   OH250321   4.201   8.398   6.802 -0.0249  0.1847 -0.1506
16800TIP3    H150322   4.175   8.315   6.843 -1.0112  0.3755 -0.3889
16800TIP3    H250323   4.146   8.404   6.724 -0.1781  1.2191  0.0327
16801TIP3   OH250324   4.483   7.864   6.355 -0.2654  0.2643  0.3947
16801TIP3    H150325   4.499   7.932   6.290 -0.1193 -1.8193 -1.8199
16801TIP3    H250326   4.564   7.860   6.406  0.4980  0.3290 -0.7944
16802TIP3   OH250327   3.728   6.708   4.114 -0.4170 -0.1980 -0.4086
16802TIP3    H150328   3.682   6.719   4.197  1.1899 -0.3155  0.5035
16802TIP3    H250329   3.777   6.626   4.124 -0.0121 -0.0861 -1.3880
16803TIP3   OH250330   7.586   0.109   6.799 -0.5226  0.1253  0.4334
16803TIP3    H150331   7.496   0.142   6.808  0.6195  4.1491 -1.3454
16803TIP3    H250332   7.602   0.110   6.704  1.8202  0.7757  0.8103
16804TIP3   OH250333   0.928   4.934   1.102  0.3735 -0.1304  0.0482
16804TIP3    H150334   0.927   4.912   1.009 -0.3777 -1.4512  0.3560
16804TIP3    H250335   0.942   4.850   1.146 -0.4750  0.3075  1.1833
16805TIP3   OH250336   4.600   7.150   5.967 -0.2901 -0.3963  0.3188
16805TIP3    H150337   4.588   7.088   5.895 -1.9134 -1.0147  1.0958
16805TIP3    H250338   4.530   7.214   5.957  1.2910  1.2763 -0.3868
16806TIP3   OH250339   4.051   8.158   5.971 -0.1367  0.0002 -0.5207
16806TIP3    H150340   3.958   8.158   5.949 -0.5108  0.4263  0.9409
16806TIP3    H250341   4.091   8.217   5.907 -1.3478  2.0717  0.5562
16807TIP3   OH250342   6.993   0.445   5.726 -0.1011 -0.3671  0.2253
16807TIP3    H150343   6.951   0.525   5.756  1.1940  0.3262  0.2579
16807TIP3    H250344   6.963   0.435   5.635  1.7790  1.6342 -0.6664
16808TIP3   OH250345   8.214   5.501   0.470 -0.0198 -0.1413  0.2472
16808TIP3    H150346   8.273   5.506   0.395 -2.0195 -2.6047 -1.5761
16808TIP3    H250347   8.251   5.433   0.526  0.8026  0.8379  0.9092
16809TIP3   OH250348   6.649   0.855   4.881  0.3256 -0.2667  0.0166
16809TIP3    H150349   6.651   0.761   4.864  1.2093 -0.0438 -1.1841
16809TIP3    H250350   6.572   0.868   4.936 -0.3620 -1.5562 -0.6350
16810TIP3   OH250351   4.453   7.344   6.307  0.0362  0.2354  0.2602
16810TIP3    H150352   4.460   7.432   6.343  0.5905  0.0115  0.7121
16810TIP3    H250353   4.480   7.352   6.215  0.3463  0.4867  0.3746
16811TIP3   OH250354   6.717   1.792   5.983  0.4642  0.0889  0.0931
16811TIP3    H150355   6.684   1.804   6.072 -1.4662  2.3711 -0.8704
16811TIP3    H250356   6.733   1.881   5.951  0.7100 -0.6772 -1.9964
16812TIP3   OH250357   8.460   2.637   2.664 -0.1814  0.3966  0.4620
16812TIP3    H150358   8.452   2.544   2.641 -0.3324  0.7109 -0.7837
16812TIP3    H250359   8.446   2.639   2.758 -2.7783 -0.5587  0.1426
16813TIP3   OH250360   0.858   2.798   1.054  0.8501  0.6791 -0.2055
16813TIP3    H150361   0.905   2.817   1.135  1.9043  0.9550 -0.8786
16813TIP3    H250362   0.791   2.735   1.080  2.1021 -0.3423  0.6084
16814TIP3   OH250363   4.822   7.383   6.182 -0.3059 -0.5526 -0.2134
16814TIP3    H150364   4.761   7.442   6.137 -1.8548 -2.7386 -1.0623
16814TIP3    H250365   4.773   7.302   6.192  0.9717 -0.9922  3.0316
16815TIP3   OH250366   0.355   3.865   1.318  0.5600  0.2829 -0.1392
16815TIP3    H150367   0.345   3.846   1.411 -2.1927  0.9055 -0.2787
16815TIP3    H250368   0.337   3.782   1.274  2.3018 -0.1239 -0.1341
16816TIP3   OH250369   1.580   3.762   1.243 -0.5878  0.6976  0.5526
16816TIP3    H150370   1.673   3.777   1.257 -0.4559 -1.1101  1.8213
16816TIP3    H250371   1.539   3.846   1.263  1.0041  2.4582 -3.1536
16817TIP3   OH250372   2.366   6.435   5.489 -0.1153  0.1615 -0.1339
16817TIP3    H150373   2.288   6.459   5.539  0.4184 -1.1835  1.3631
16817TIP3    H250374   2.349   6.347   5.457  0.4780  0.1560 -0.4551
16818TIP3   OH250375   2.260   4.709   0.450 -0.4236 -0.2243 -0.2190
16818TIP3    H150376   2.294   4.695   0.538 -0.6654 -0.4473 -0.1612
16818TIP3    H250377   2.260   4.622   0.410 -0.7049 -0.1897 -0.2970
16819TIP3   OH250378   4.477   8.102   6.213  0.2281 -0.0766  0.4436
16819TIP3    H150379   4.534   8.122   6.139 -0.4346 -1.3499 -0.4279
16819TIP3    H250380   4.449   8.188   6.246 -0.2789  0.4893 -1.4123
16820TIP3   OH250381   0.686   5.515   2.679  0.3016 -0.2599 -0.0027
16820TIP3    H150382   0.597   5.517   2.643  0.3399 -1.2608 -0.1894
16820TIP3    H250383   0.692   5.428   2.719  0.8331  0.2117  0.9501
16821TIP3   OH250384   1.488   4.260   1.464  0.0469  0.3483  0.2450
16821TIP3    H150385   1.507   4.178   1.509  1.0245  1.1318  1.3279
16821TIP3    H250386   1.558   4.319   1.493  0.2192  1.1282 -1.6743
16822TIP3   OH250387   6.503   0.889   7.180  0.0026  0.6439 -0.2226
16822TIP3    H150388   6.554   0.820   7.138  0.5162  1.0017 -0.1810
16822TIP3    H250389   6.522   0.879   7.274  0.4801  1.1652 -0.2603
16823TIP3   OH250390   3.235   8.112   5.881 -0.2964 -0.0754  0.4772
16823TIP3    H150391   3.314   8.088   5.832 -0.9416  1.9272 -1.6093
16823TIP3    H250392   3.192   8.028   5.900  1.6467 -1.0986  0.5290
16824TIP3   OH250393   7.155   3.822   4.018 -0.0692  1.0886 -0.2483
16824TIP3    H150394   7.164   3.800   4.111 -0.3944 -0.0496 -0.4703
16824TIP3    H250395   7.242   3.855   3.992 -0.0654  1.6790  0.5253
16825TIP3   OH250396   3.458   4.505   1.229 -0.2291 -0.5862  0.3522
16825TIP3    H150397   3.426   4.423   1.191  0.7891 -0.1908 -1.3909
16825TIP3    H250398   3.551   4.508   1.206  0.0070  0.5074  1.3900
16826TIP3   OH250399   1.507   2.266   1.432  0.3104  0.4728  0.1317
16826TIP3    H150400   1.588   2.276   1.482  0.2683 -1.4057  0.6107
16826TIP3    H250401   1.438   2.291   1.493  0.2053 -2.4849  1.3078
16827TIP3   OH250402   4.980   8.229   2.786 -0.2692  0.2630 -0.1636
16827TIP3    H150403   4.900   8.185   2.758  0.4092 -1.3802  0.4267
16827TIP3    H250404   5.050   8.173   2.754  0.6290  1.3097 -0.0352
16828TIP3   OH250405   0.710   4.863   0.752 -0.7415 -0.0958  0.3673
16828TIP3    H150406   0.686   4.883   0.662  0.5158  1.5275  0.3734
16828TIP3    H250407   0.761   4.782   0.746  3.0655  2.2742 -0.9541
16829TIP3   OH250408   0.729   3.868   0.336 -0.2458 -0.5865  0.3362
16829TIP3    H150409   0.727   3.928   0.262  0.4360 -1.5341 -0.4673
16829TIP3    H250410   0.815   3.880   0.375 -1.1194  0.9454  1.8734
16830TIP3   OH250411   1.785   2.918   0.411 -0.1456  0.1889 -0.3704
16830TIP3    H150412   1.779   2.833   0.456  1.7753 -0.5854 -1.4930
16830TIP3    H250413   1.716   2.916   0.346 -1.0473  0.0990  0.5735
16831TIP3   OH250414   0.330   3.062   0.114  0.3792 -0.3107  0.1207
16831TIP3    H150415   0.353   2.974   0.144  1.5993  0.0312  0.2132
16831TIP3    H250416   0.316   3.053   0.020  0.1478 -0.6766  0.1902
16832TIP3   OH250417   0.756   2.099   3.676 -0.3026  0.2842 -0.3418
16832TIP3    H150418   0.774   2.076   3.585  0.4507  0.0043 -0.1311
16832TIP3    H250419   0.691   2.035   3.705 -1.5569  1.2097 -1.0732
16833TIP3   OH250420   7.998   4.400   2.066  0.2064  0.1100 -0.4608
16833TIP3    H150421   7.977   4.308   2.083 -0.7051  0.5986  1.1647
16833TIP3    H250422   7.982   4.412   1.973 -0.4702 -1.1838 -0.5157
16834TIP3   OH250423   2.430   2.358   0.510  0.0046  0.0216 -1.1873
16834TIP3    H150424   2.466   2.432   0.461  0.5568  0.5561 -0.0127
16834TIP3    H250425   2.423   2.391   0.600  1.2482 -1.6932 -0.4533
16835TIP3   OH250426   7.802   2.576   6.501  0.2793 -0.1835 -0.2891
16835TIP3    H150427   7.874   2.638   6.502 -0.3387  0.5349  0.8881
16835TIP3    H250428   7.723   2.630   6.511 -0.4188 -0.9650 -1.3492
16836TIP3   OH250429   6.178   0.631   6.743  0.3617 -0.5463 -0.3941
16836TIP3    H150430   6.217   0.603   6.660  0.3661 -0.3203 -0.4685
16836TIP3    H250431   6.163   0.550   6.791  1.0989 -0.6266 -0.2928
16837TIP3   OH250432   7.487   1.217   6.954  0.5328 -0.1133  0.1313
16837TIP3    H150433   7.491   1.223   7.050  1.3408 -1.7058  0.2224
16837TIP3    H250434   7.506   1.306   6.924  1.8186  0.0882  1.4272
16838TIP3   OH250435   2.889   8.299   6.455 -0.0150 -0.0970 -0.2488
16838TIP3    H150436   2.954   8.258   6.512 -0.5432 -0.3955  0.1427
16838TIP3    H250437   2.807   8.256   6.478  0.0672 -1.5076 -2.4995
16839TIP3   OH250438   7.528   2.046   5.455 -0.2218  0.0083 -0.1584
16839TIP3    H150439   7.573   2.043   5.371 -2.0873 -0.4838 -1.1642
16839TIP3    H250440   7.530   1.955   5.486 -0.5067 -0.0148 -0.2058
16840TIP3   OH250441   3.025   5.361   1.131  0.7521 -0.4660  0.3668
16840TIP3    H150442   2.950   5.391   1.080 -1.3204 -2.5949  2.0003
16840TIP3    H250443   3.101   5.398   1.086 -1.2132  1.2165 -1.7368
16841TIP3   OH250444   3.687   8.351   6.896 -0.4266 -1.0192 -0.4797
16841TIP3    H150445   3.720   8.266   6.867  1.0187 -1.6480  2.8067
16841TIP3    H250446   3.735   8.415   6.842  0.6075 -2.1810 -0.9683
16842TIP3   OH250447   1.873   2.869   1.400  0.2332  0.0570 -0.3114
16842TIP3    H150448   1.803   2.931   1.422 -0.7732 -1.5851  1.1853
16842TIP3    H250449   1.830   2.784   1.393  1.8287 -0.7265 -0.9345
16843TIP3   OH250450   4.431   7.707   6.958  0.2068  0.3521  0.2863
16843TIP3    H150451   4.457   7.660   7.037  2.0393  0.0619 -0.4705
16843TIP3    H250452   4.501   7.772   6.944  0.8321 -0.7551 -2.0583
16844TIP3   OH250453   0.088   5.938   2.303 -0.2986  0.2910  0.1581
16844TIP3    H150454   0.181   5.956   2.316 -0.2980 -0.1630  0.7540
16844TIP3    H250455   0.068   5.866   2.362 -0.2814 -1.7875 -2.2710
16845TIP3   OH250456   8.648   0.973   6.736  0.3456 -0.0669  0.6472
16845TIP3    H150457   8.676   0.924   6.814  2.3451 -0.4075 -0.2569
16845TIP3    H250458   8.729   1.008   6.699 -0.4708 -0.6930 -1.8199
16846TIP3   OH250459   6.004   0.529   6.060  0.1922 -0.2754 -0.0663
16846TIP3    H150460   6.069   0.571   6.004 -0.3967  0.9999  0.1963
16846TIP3    H250461   5.957   0.601   6.102 -1.5285 -1.1725 -0.3932
16847TIP3   OH250462   8.709   5.354   1.590  0.7400  0.5210 -0.4352
16847TIP3    H150463   8.615   5.344   1.604  0.8936 -0.3397  0.0043
16847TIP3    H250464   8.737   5.270   1.553  1.2822  0.8765 -0.8460
16848TIP3   OH250465   1.448   3.563   2.157  0.4404  0.5291 -0.1910
16848TIP3    H150466   1.539   3.552   2.129  0.2926 -0.2934 -0.3661
16848TIP3    H250467   1.436   3.657   2.163  0.7411  0.6955 -2.0308
16849TIP3   OH250468   6.652   6.826   5.520  0.2262  0.3129 -0.4075
16849TIP3    H150469   6.559   6.850   5.523 -0.0285 -0.7925  0.9646
16849TIP3    H250470   6.684   6.842   5.608  0.8844 -1.0538 -0.3853
16850TIP3   OH250471   6.235   1.516   6.988  0.8684  0.0100 -0.1551
16850TIP3    H150472   6.177   1.586   6.958 -0.0153 -0.8676 -0.5317
16850TIP3    H250473   6.290   1.557   7.055 -2.8209 -0.0347  3.1164
16851TIP3   OH250474   0.842   4.254   0.334 -0.4332  0.0411  0.0076
16851TIP3    H150475   0.763   4.222   0.291 -0.0503  0.9576 -1.4336
16851TIP3    H250476   0.903   4.180   0.332 -1.4948 -0.8921  1.7699
16852TIP3   OH250477   0.163   4.006   2.936  0.1184 -0.0801  0.0706
16852TIP3    H150478   0.209   3.997   3.020 -0.1778 -1.0277  0.1399
16852TIP3    H250479   0.231   4.036   2.875  0.4726  0.0444  0.5232
16853TIP3   OH250480   2.548   2.275   0.931  0.1735  0.0469 -0.2739
16853TIP3    H150481   2.479   2.255   0.994  0.0941  0.2927 -0.2822
16853TIP3    H250482   2.623   2.223   0.959  0.8391  1.8123  1.3006
16854TIP3   OH250483   2.361   6.864   0.956  0.6300 -0.2818 -0.2253
16854TIP3    H150484   2.387   6.783   0.914  1.1329 -0.1106 -0.2556
16854TIP3    H250485   2.279   6.888   0.914 -0.6085 -1.8679  1.2555
16855TIP3   OH250486   1.264   3.877   3.275 -0.0152 -0.5889  0.1257
16855TIP3    H150487   1.193   3.932   3.308  0.3288  0.1916 -0.3939
16855TIP3    H250488   1.333   3.940   3.252 -0.0884 -1.1317 -1.6666
16856TIP3   OH250489   0.073   3.526   0.746  0.1260  0.1853  0.0074
16856TIP3    H150490   0.072   3.555   0.655  0.2259  0.1962  0.0103
16856TIP3    H250491   0.156   3.559   0.781 -0.5530  1.4020  0.4923
16857TIP3   OH250492   0.834   5.525   1.324 -0.4307 -0.4829 -0.5235
16857TIP3    H150493   0.831   5.485   1.237  0.5766  0.0211 -0.7999
16857TIP3    H250494   0.776   5.471   1.378 -0.6394 -1.1129 -1.3757
16858TIP3   OH250495   3.411   5.967   6.523  0.0924  0.5553 -0.1429
16858TIP3    H150496   3.406   5.871   6.528 -1.3566  0.5971 -0.5604
16858TIP3    H250497   3.351   5.998   6.591  0.2781  1.1547 -0.2499
16859TIP3   OH250498   5.796   7.570   7.001  0.1539 -0.3656 -0.0271
16859TIP3    H150499   5.735   7.520   6.947  0.0375  0.5800 -0.7756
16859TIP3    H250500   5.872   7.513   7.011  0.3928 -0.3262 -1.6263
16860TIP3   OH250501   2.864   4.876   0.506 -0.0180 -0.4362 -0.4469
16860TIP3    H150502   2.841   4.853   0.416 -0.0350 -1.8768 -0.0752
16860TIP3    H250503   2.941   4.823   0.526  1.5684  1.7610 -0.4664
16861TIP3   OH250504   1.632   4.562   2.649 -0.0317 -0.2378  0.1296
16861TIP3    H150505   1.552   4.613   2.640 -0.2762 -0.6097  0.1576
16861TIP3    H250506   1.626   4.496   2.579 -0.0553 -0.6694  0.5406
16862TIP3   OH250507   0.625   5.363   0.433 -0.1921 -0.0770  0.3897
16862TIP3    H150508   0.668   5.449   0.440 -1.1550  0.4108  0.3353
16862TIP3    H250509   0.682   5.313   0.375  0.8343  0.2352  1.0935
16863TIP3   OH250510   1.579   6.060   0.973 -0.2823  0.3320  0.1620
16863TIP3    H150511   1.521   6.096   1.040  1.1504  2.2100  0.4405
16863TIP3    H250512   1.548   5.970   0.960 -2.5966  0.9850  1.0053
16864TIP3   OH250513   6.397   0.594   7.049 -0.2520  0.3370 -0.7760
16864TIP3    H150514   6.451   0.620   6.974 -0.5390  0.2062 -1.0273
16864TIP3    H250515   6.403   0.499   7.051 -0.9682  0.2770 -1.1799
16865TIP3   OH250516   7.873   1.946   6.277 -0.0877  0.5446  0.3247
16865TIP3    H150517   7.915   1.861   6.282 -1.7450 -0.6887 -4.2140
16865TIP3    H250518   7.944   2.007   6.259  0.5348 -0.6700 -1.4529
16866TIP3   OH250519   6.416   7.802   5.024  0.2162  0.9081  0.3895
16866TIP3    H150520   6.337   7.810   5.078 -1.0594  0.6089 -1.3666
16866TIP3    H250521   6.393   7.846   4.942  1.7749  0.5620 -0.2538
16867TIP3   OH250522   3.162   6.580   6.859 -0.0333 -0.1350 -0.1619
16867TIP3    H150523   3.091   6.523   6.887  0.5653  0.0394  1.7662
16867TIP3    H250524   3.241   6.528   6.870  0.6661  1.4343  2.9046
16868TIP3   OH250525   1.457   5.169   0.839  0.5516  0.5097  0.3330
16868TIP3    H150526   1.492   5.154   0.927  2.9127  0.1378 -0.6303
16868TIP3    H250527   1.455   5.264   0.830 -2.3266  0.6583  1.7468
16869TIP3   OH250528   2.456   2.683   0.615  0.1449  0.1153  0.1481
16869TIP3    H150529   2.532   2.678   0.558  0.0831  0.5952  0.0218
16869TIP3    H250530   2.480   2.630   0.691  0.5825  0.2064  0.0786
16870TIP3   OH250531   0.507   4.613   0.982 -0.2355 -0.1474 -0.4073
16870TIP3    H150532   0.576   4.653   1.035 -0.3251  0.3039 -0.6226
16870TIP3    H250533   0.553   4.554   0.923 -0.3853 -2.9112  2.1579
16871TIP3   OH250534   6.194   1.039   7.227 -0.2541 -0.1345 -0.2464
16871TIP3    H150535   6.136   0.965   7.207  0.3926 -0.7933  0.2850
16871TIP3    H250536   6.250   1.048   7.150  0.1162 -0.6364 -0.0395
16872TIP3   OH250537   5.277   6.990   5.810 -0.1064  0.3283  0.1881
16872TIP3    H150538   5.209   7.056   5.801 -1.3760 -1.1054 -1.2035
16872TIP3    H250539   5.309   7.000   5.899 -1.8661  1.3124  0.7310
16873TIP3   OH250540   1.255   5.002   0.842 -0.3097  0.2492  0.0578
16873TIP3    H150541   1.318   5.074   0.839  0.9219 -0.7830  0.2973
16873TIP3    H250542   1.225   4.992   0.752 -0.7387  1.2821  0.0890
16874TIP3   OH250543   7.355   2.651   1.975 -0.4163  0.6469  0.3838
16874TIP3    H150544   7.279   2.659   1.917  0.4356 -1.4997 -1.1007
16874TIP3    H250545   7.322   2.600   2.050 -0.5986  0.2231  0.0218
16875TIP3   OH250546   7.795   4.776   1.798  0.5941 -0.2315 -0.3038
16875TIP3    H150547   7.746   4.728   1.864 -1.7308  1.9404 -0.3477
16875TIP3    H250548   7.779   4.730   1.717  1.8036 -1.7387  0.2894
16876TIP3   OH250549   1.242   3.784   0.576  0.1121 -0.2392 -0.4292
16876TIP3    H150550   1.283   3.724   0.514 -0.9263 -1.0802 -0.3227
16876TIP3    H250551   1.160   3.741   0.601 -0.8139  1.3703 -0.6057
16877TIP3   OH250552   0.977   3.807   2.103 -0.0778 -0.3809  0.1193
16877TIP3    H150553   1.032   3.794   2.180 -1.1336  0.9378  1.1247
16877TIP3    H250554   0.989   3.899   2.080 -2.4613  0.1474  0.8512
16878TIP3   OH250555   0.886   3.390   1.837 -0.3028  0.3202 -0.4095
16878TIP3    H150556   0.819   3.374   1.903 -0.6782  0.4201 -0.7636
16878TIP3    H250557   0.907   3.302   1.803 -1.4373  0.4343 -1.4470
16879TIP3   OH250558   5.833   8.101   4.969 -0.5361 -0.3282 -0.3065
16879TIP3    H150559   5.801   8.192   4.972  0.2493  0.0008 -1.4094
16879TIP3    H250560   5.766   8.054   4.921 -0.5002 -0.1357 -0.5467
16880TIP3   OH250561   0.666   4.424   0.875 -0.0774 -0.3072 -0.6402
16880TIP3    H150562   0.725   4.414   0.801  0.2457  0.5944 -0.5182
16880TIP3    H250563   0.688   4.351   0.933  0.8240 -0.0726 -0.6685
16881TIP3   OH250564   1.957   2.611   4.681  0.1150  0.2851 -0.5465
16881TIP3    H150565   1.916   2.557   4.613 -3.2649  0.5518  1.1741
16881TIP3    H250566   1.885   2.663   4.717  2.1996  1.6032  1.8979
16882TIP3   OH250567   1.817   3.153   0.299  0.4895 -0.4637  0.4489
16882TIP3    H150568   1.749   3.217   0.322  0.2791  0.2565 -2.0293
16882TIP3    H250569   1.790   3.072   0.343 -3.8248 -1.1283 -3.0524
16883TIP3   OH250570   7.165   0.233   5.251 -0.5113  0.0591  0.4951
16883TIP3    H150571   7.223   0.240   5.327  0.0409 -0.8642  0.1708
16883TIP3    H250572   7.106   0.308   5.259 -0.8943 -0.4001  2.2010
16884TIP3   OH250573   2.402   4.533   1.419 -0.3690  0.2272 -0.1392
16884TIP3    H150574   2.409   4.438   1.407 -0.1247 -0.2236  3.0607
16884TIP3    H250575   2.493   4.563   1.424 -0.4549  0.3498  0.7019
16885TIP3   OH250576   7.723   5.758   1.900 -0.0319 -0.0936 -0.2418
16885TIP3    H150577   7.755   5.811   1.827 -2.2301 -0.3266 -1.4201
16885TIP3    H250578   7.784   5.684   1.904  1.5980  1.2114 -0.1760
16886TIP3   OH250579   5.138   6.446   4.975 -0.3894  0.0397  0.0272
16886TIP3    H150580   5.156   6.412   4.888  0.3011  0.7221 -0.1058
16886TIP3    H250581   5.216   6.424   5.026  0.0028  1.2589 -0.0218
16887TIP3   OH250582   6.371   8.376   5.880  0.0952  0.1152  0.4696
16887TIP3    H150583   6.349   8.372   5.787 -2.8446  2.0539  1.0106
16887TIP3    H250584   6.292   8.343   5.924  0.5091  1.5724  2.3390
16888TIP3   OH250585   4.181   8.211   5.731 -0.6515 -0.1394  0.0584
16888TIP3    H150586   4.238   8.136   5.713 -0.6036  0.2918 -1.6742
16888TIP3    H250587   4.228   8.286   5.695 -1.5417  0.4690  0.1461
16889TIP3   OH250588   7.985   0.364   3.371  0.3077  0.3879  0.2234
16889TIP3    H150589   8.001   0.290   3.313  0.5812 -0.0970  0.9120
16889TIP3    H250590   7.891   0.360   3.389  0.1531  0.7685 -0.4908
16890TIP3   OH250591   1.084   3.508   0.946  0.8072 -0.0799 -0.3500
16890TIP3    H150592   1.103   3.491   0.854  0.2156  0.5381 -0.5881
16890TIP3    H250593   1.156   3.564   0.975 -1.0107  2.9791 -1.4813
16891TIP3   OH250594   0.759   6.195   2.244  0.0691  0.4311 -0.4667
16891TIP3    H150595   0.730   6.120   2.295 -1.1978  0.2037 -1.5033
16891TIP3    H250596   0.837   6.165   2.198  1.3957  0.7240  1.5192
16892TIP3   OH250597   8.487   0.153   6.687 -0.3078  0.5483  0.2516
16892TIP3    H150598   8.534   0.196   6.615  0.0111  1.1445  0.8088
16892TIP3    H250599   8.482   0.220   6.755 -1.1138  0.1680  0.5625
16893TIP3   OH250600   0.748   4.137   1.803  0.1326  0.1586 -0.2084
16893TIP3    H150601   0.786   4.170   1.721  1.5137 -1.7224 -0.3628
16893TIP3    H250602   0.659   4.173   1.805  1.0228  2.5117 -1.1445
16894TIP3   OH250603   0.454   0.260   4.887 -0.1037  0.0827  0.0204
16894TIP3    H150604   0.361   0.273   4.903 -0.2506 -0.5012 -0.3363
16894TIP3    H250605   0.459   0.229   4.796  0.3758 -0.5639  0.2635
16895TIP3   OH250606   8.503   2.847   0.820 -0.3685  0.6206  0.2670
16895TIP3    H150607   8.490   2.876   0.730  1.3355  0.4187 -0.0566
16895TIP3    H250608   8.422   2.801   0.842 -0.9985  1.1182 -0.9834
16896TIP3   OH250609   0.404   3.191   0.642  0.8767 -0.9378  0.2389
16896TIP3    H150610   0.334   3.222   0.700 -0.0084 -0.8061 -0.8959
16896TIP3    H250611   0.440   3.271   0.604  1.6494 -1.0073  0.8112
16897TIP3   OH250612   2.588   4.061   1.118  0.1969 -0.6087  0.4389
16897TIP3    H150613   2.508   4.030   1.075  0.0847  0.5808 -0.2182
16897TIP3    H250614   2.594   4.008   1.198 -1.0631 -0.9431  0.3198
16898TIP3   OH250615   2.173   2.806   0.027 -0.7158  0.1680 -0.4513
16898TIP3    H150616   2.109   2.765   0.085  0.0973  0.9754  1.0661
16898TIP3    H250617   2.137   2.893   0.009 -0.3402  0.4129 -0.0508
16899TIP3   OH250618   1.073   3.660   1.820 -0.4035 -0.4316  0.4238
16899TIP3    H150619   1.022   3.680   1.741 -1.8420  0.2072  1.4969
16899TIP3    H250620   1.130   3.736   1.832  0.1655 -0.7414 -0.2547
16900TIP3   OH250621   0.224   2.705   1.034 -0.0079  0.2066 -0.1859
16900TIP3    H150622   0.298   2.727   1.090 -1.3308  2.0449  0.9207
16900TIP3    H250623   0.235   2.612   1.014  0.9563 -0.2788  2.4393
16901TIP3   OH250624   5.789   8.349   5.072 -0.1456  0.2146 -0.2131
16901TIP3    H150625   5.702   8.363   5.110  1.0866  0.5359  2.6570
16901TIP3    H250626   5.839   8.426   5.099  1.0649 -0.0188 -1.7395
16902TIP3   OH250627   8.177   5.829   1.059  0.1251  0.0031  0.2766
16902TIP3    H150628   8.145   5.780   1.134 -1.0021  1.8049  1.0140
16902TIP3    H250629   8.265   5.859   1.085 -1.0552  2.3383  1.7423
16903TIP3   OH250630   3.364   8.163   6.130  0.0949 -0.7011  0.3870
16903TIP3    H150631   3.345   8.180   6.037 -1.2006  1.0161  0.9531
16903TIP3    H250632   3.458   8.147   6.132  0.7346  2.6784 -0.7356
16904TIP3   OH250633   5.996   0.104   6.052  0.0886 -0.0600  0.1044
16904TIP3    H150634   5.933   0.163   6.011 -0.9758 -1.2640 -0.0211
16904TIP3    H250635   6.045   0.066   5.979  0.3849  0.2295  0.1502
16905TIP3   OH250636   1.412   2.323   0.296 -0.0449  0.4876 -0.9028
16905TIP3    H150637   1.481   2.342   0.233  0.2718  0.3656 -0.5920
16905TIP3    H250638   1.331   2.345   0.250  0.1485 -0.1576 -1.5586
16906TIP3   OH250639   6.818   0.160   6.750  0.3652 -0.4151  0.1768
16906TIP3    H150640   6.907   0.187   6.727  0.0582 -0.1599 -0.6907
16906TIP3    H250641   6.762   0.204   6.687 -0.3013 -1.3838  0.0919
16907TIP3   OH250642   5.021   8.234   6.388  0.3566  0.2093 -0.4426
16907TIP3    H150643   5.103   8.238   6.338  0.6585 -0.5678 -0.0362
16907TIP3    H250644   4.969   8.307   6.356  1.0842  0.5175 -0.9401
16908TIP3   OH250645   1.663   7.341   0.112 -0.0217 -0.3160 -0.1695
16908TIP3    H150646   1.571   7.364   0.117  0.1618  0.8585 -1.6840
16908TIP3    H250647   1.677   7.318   0.020  1.3621  0.2800 -0.1204
16909TIP3   OH250648   2.173   4.636   2.163 -0.2106  0.1869 -0.2131
16909TIP3    H150649   2.163   4.670   2.251 -1.5865  0.3912 -0.4289
16909TIP3    H250650   2.084   4.637   2.127 -0.3325 -3.6259 -0.2290
16910TIP3   OH250651   1.930   4.439   2.149  0.3629  0.3943 -0.3946
16910TIP3    H150652   1.841   4.473   2.138 -0.1976 -1.0652 -0.5046
16910TIP3    H250653   1.962   4.481   2.229 -0.9077 -0.0504  0.3668
16911TIP3   OH250654   3.618   7.331   5.547 -0.4358 -0.2395 -0.3528
16911TIP3    H150655   3.588   7.244   5.573  0.6720 -0.7786 -0.8482
16911TIP3    H250656   3.664   7.317   5.464  1.2871  0.5373  0.4554
16912TIP3   OH250657   5.592   8.064   4.365 -0.3496  0.1048  0.5748
16912TIP3    H150658   5.518   8.004   4.355 -0.3089  0.2367 -0.5792
16912TIP3    H250659   5.662   8.024   4.313 -0.5427  1.5073 -0.7937
16913TIP3   OH250660   1.693   4.651   1.348 -0.1126  0.1991  0.7846
16913TIP3    H150661   1.652   4.613   1.270 -0.1201  0.6529  0.5675
16913TIP3    H250662   1.694   4.745   1.331  1.9616  0.1148  0.3523
16914TIP3   OH250663   5.374   7.452   4.915  0.5877  0.0608  0.0407
16914TIP3    H150664   5.463   7.420   4.934  0.8322  1.0552  0.5906
16914TIP3    H250665   5.347   7.496   4.995  0.2142  1.1553 -0.6755
16915TIP3   OH250666   6.088   7.584   7.204 -0.2120 -0.0556 -0.5286
16915TIP3    H150667   6.104   7.568   7.297 -0.7652  0.3299 -0.3636
16915TIP3    H250668   6.173   7.611   7.169  0.0533 -0.4372 -0.1899
16916TIP3   OH250669   7.620   0.211   7.274 -0.0758  0.2466  0.0613
16916TIP3    H150670   7.637   0.140   7.213  0.6449  0.5500 -0.1084
16916TIP3    H250671   7.632   0.291   7.222  1.6120  0.5275  0.8328
16917TIP3   OH250672   8.222   0.403   5.891 -0.5983 -0.5852 -0.2782
16917TIP3    H150673   8.265   0.318   5.887 -0.5921 -0.6450  0.9863
16917TIP3    H250674   8.165   0.398   5.968 -0.1113  0.7800  0.1867
16918TIP3   OH250675   1.189   0.556   5.584 -0.1188 -0.2034  0.6100
16918TIP3    H150676   1.231   0.551   5.498  0.0775  0.8682  0.6424
16918TIP3    H250677   1.125   0.484   5.583 -0.0356 -0.2757 -0.3792
16919TIP3   OH250678   7.853   0.420   6.998 -0.1875  0.0905 -0.0278
16919TIP3    H150679   7.861   0.459   7.085 -2.4401  0.1250  0.1920
16919TIP3    H250680   7.940   0.432   6.958  0.2431  1.9893  1.4152
16920TIP3   OH250681   3.767   8.083   6.848  0.5413 -0.2237  0.1112
16920TIP3    H150682   3.762   8.039   6.763  2.3466 -0.9350  0.3583
16920TIP3    H250683   3.771   8.013   6.912 -0.7788  0.3131  0.8138
16921TIP3   OH250684   8.533   0.292   5.137 -0.1326 -0.1505 -0.1300
16921TIP3    H150685   8.588   0.311   5.061 -2.2754  0.9506 -1.4739
16921TIP3    H250686   8.505   0.378   5.168 -3.2544 -0.7224 -1.1537
16922TIP3   OH250687   4.513   5.794   0.228  0.5715 -0.3399 -0.9279
16922TIP3    H150688   4.590   5.795   0.171  0.5752  1.2655 -0.9246
16922TIP3    H250689   4.445   5.838   0.176  0.3136  0.3047 -0.0423
16923TIP3   OH250690   4.662   5.613   0.060  0.7383 -0.0666 -0.3482
16923TIP3    H150691   4.635   5.637  -0.029  1.8171 -0.0323 -0.6783
16923TIP3    H250692   4.757   5.604   0.054  1.2102  3.0668  1.5432
16924TIP3   OH250693   0.363   0.233   6.379  0.2530 -0.3283 -0.2892
16924TIP3    H150694   0.427   0.162   6.371 -0.0090 -0.5461 -0.4129
16924TIP3    H250695   0.415   0.312   6.365  0.6108 -0.4747  0.2011
16925TIP3   OH250696   3.276   4.064   2.477 -0.2896  0.2592 -0.4724
16925TIP3    H150697   3.209   4.123   2.513 -1.3520 -1.2235  0.0230
16925TIP3    H250698   3.265   4.071   2.382 -1.1689  0.0025 -0.3919
16926TIP3   OH250699   2.693   1.318   5.440  0.1464 -0.5151  0.1133
16926TIP3    H150700   2.639   1.253   5.395  0.2778  0.4333 -1.4522
16926TIP3    H250701   2.671   1.307   5.533 -2.5780 -0.3186 -0.4635
16927TIP3   OH250702   8.699   0.784   6.972 -0.1425  0.3745 -0.2910
16927TIP3    H150703   8.762   0.750   6.909  0.5541  1.2829 -0.0914
16927TIP3    H250704   8.618   0.735   6.954  0.4566 -0.3969 -0.9094
16928TIP3   OH250705   4.661   8.021   5.543 -0.0629 -0.3556  0.2096
16928TIP3    H150706   4.753   7.996   5.540 -0.7367 -2.9946  0.6902
16928TIP3    H250707   4.630   7.991   5.628 -1.1570  1.3513  0.4478
16929TIP3   OH250708   4.214   2.508  -0.006 -0.0473 -0.5186 -0.1520
16929TIP3    H150709   4.197   2.492   0.087  1.9551 -1.7144  0.0333
16929TIP3    H250710   4.139   2.469  -0.051 -0.7300 -0.4635  0.9257
16930TIP3   OH250711   7.465   7.828   5.576  0.1217 -0.0503  0.2207
16930TIP3    H150712   7.487   7.741   5.542  1.0031 -0.2320  1.2484
16930TIP3    H250713   7.520   7.887   5.525  0.9883 -0.2666  0.9074
16931TIP3   OH250714   7.024   7.759   5.920  0.3547 -0.0912  0.3980
16931TIP3    H150715   7.115   7.775   5.947 -0.4274  1.5497  2.1578
16931TIP3    H250716   6.974   7.763   6.001 -1.0342 -3.3866 -0.2110
16932TIP3   OH250717   8.092   0.776   5.467  0.3434 -0.6216 -0.1562
16932TIP3    H150718   8.106   0.733   5.552  1.1630  0.2463  0.1638
16932TIP3    H250719   8.078   0.868   5.489  0.4635 -0.4054 -0.9555
16933TIP3   OH250720   6.539   8.372   6.575 -0.0953 -0.1023 -0.1037
16933TIP3    H150721   6.634   8.360   6.575 -0.1185 -0.5219 -2.0546
16933TIP3    H250722   6.514   8.360   6.483 -1.9768  0.4634  0.3201
16934TIP3   OH250723   5.440   8.362   6.444 -0.0122  0.2487 -0.0720
16934TIP3    H150724   5.388   8.440   6.460 -0.6085 -0.2530  0.4686
16934TIP3    H250725   5.422   8.305   6.519  1.1863 -0.0011  0.0381
16935TIP3   OH250726   8.387   1.804   2.324  0.3241  0.0861 -1.0812
16935TIP3    H150727   8.445   1.728   2.319  1.6816  1.0574 -0.1338
16935TIP3    H250728   8.376   1.832   2.233  0.0087 -1.0732 -1.4169
16936TIP3   OH250729   3.037   5.095   1.263 -0.5426  0.6625  0.7306
16936TIP3    H150730   3.041   5.180   1.219 -0.6392  1.2797  1.8739
16936TIP3    H250731   2.988   5.039   1.204  2.0427  0.5462 -1.4182
16937TIP3   OH250732   8.026   2.015   6.699 -0.8448  0.2680  0.1157
16937TIP3    H150733   7.938   2.045   6.675 -0.2726  1.7033 -0.2417
16937TIP3    H250734   8.038   1.934   6.648 -1.4173  0.8142 -0.8984
16938TIP3   OH250735   2.683   4.413   1.011  0.8506 -0.2248  0.1894
16938TIP3    H150736   2.688   4.323   1.044 -1.3446  0.1626  1.6827
16938TIP3    H250737   2.732   4.465   1.075 -0.8810  0.1124  1.2650
16939TIP3   OH250738   8.521   1.498   7.113 -0.4547  0.1842  0.0207
16939TIP3    H150739   8.565   1.565   7.165 -0.6164  1.0206 -0.8992
16939TIP3    H250740   8.546   1.518   7.023 -0.7506 -0.8167 -0.2893
16940TIP3   OH250741   0.346   1.469   5.974 -0.4720  0.4842 -0.4796
16940TIP3    H150742   0.365   1.400   5.910 -1.5977 -0.1721 -0.1204
16940TIP3    H250743   0.388   1.547   5.938 -0.8530  0.0643 -1.8723
16941TIP3   OH250744   2.241   1.536   4.748  0.4060 -0.3645  0.5490
16941TIP3    H150745   2.294   1.530   4.668  1.2092 -0.1151  1.0555
16941TIP3    H250746   2.236   1.630   4.767  0.3828 -0.4346  0.8984
16942TIP3   OH250747   1.847   1.099   6.694 -0.1709  0.0018 -0.2136
16942TIP3    H150748   1.863   1.020   6.643 -0.1337  0.0504 -0.2757
16942TIP3    H250749   1.818   1.164   6.630 -0.9699 -0.1912 -0.0507
16943TIP3   OH250750   3.444   7.219   5.022 -0.7965 -0.3996  0.2936
16943TIP3    H150751   3.388   7.182   5.090 -0.2230 -0.8534  0.5281
16943TIP3    H250752   3.417   7.175   4.941 -2.3206  1.0420  0.0071
16944TIP3   OH250753   0.947   0.965   4.334 -0.4813  0.2272  0.2272
16944TIP3    H150754   1.015   0.908   4.368 -0.6480  0.6562  1.2781
16944TIP3    H250755   0.883   0.905   4.295  0.5762 -0.1592 -0.9241
16945TIP3   OH250756   8.171   0.505   5.592 -0.4259  0.1994 -0.7993
16945TIP3    H150757   8.212   0.476   5.511 -1.1139 -0.1720 -1.0126
16945TIP3    H250758   8.082   0.470   5.589 -0.0739 -0.8702  0.6854
16946TIP3   OH250759   6.161   1.715   5.586  0.0107 -0.3284  0.3383
16946TIP3    H150760   6.168   1.647   5.654  2.5557  0.7224  1.1934
16946TIP3    H250761   6.212   1.680   5.512 -1.7489 -0.9350 -0.6116
16947TIP3   OH250762   8.390   8.234   5.007 -0.4495 -0.5836 -0.0044
16947TIP3    H150763   8.320   8.295   5.030 -0.0377  0.4737 -1.4292
16947TIP3    H250764   8.468   8.289   5.001  0.2595 -1.5407  0.3496
16948TIP3   OH250765   7.343   8.416   5.008  0.2469  0.2988  0.6311
16948TIP3    H150766   7.316   8.330   5.043 -0.1240  0.6950  1.3412
16948TIP3    H250767   7.434   8.425   5.035  0.5362 -0.2246 -0.1493
16949TIP3   OH250768   5.169   4.650   2.110 -0.6839 -0.0545  0.8250
16949TIP3    H150769   5.123   4.630   2.192 -0.2710 -0.4251  0.9672
16949TIP3    H250770   5.256   4.612   2.122 -0.8143 -0.6149 -0.0110
16950TIP3   OH250771   0.820   5.353   0.172  0.1467 -0.0863  0.5946
16950TIP3    H150772   0.844   5.355   0.079  0.4101  1.2402  0.6815
16950TIP3    H250773   0.802   5.445   0.194 -2.5534 -0.7064  1.1725
16951TIP3   OH250774   7.782   1.583   6.160 -0.0030 -0.0065 -0.0908
16951TIP3    H150775   7.752   1.666   6.121  1.4109  0.5137 -0.0922
16951TIP3    H250776   7.730   1.575   6.240 -0.4689  0.6576 -0.3139
16952TIP3   OH250777   5.679   8.187   5.865  0.0827  0.7201  0.2764
16952TIP3    H150778   5.651   8.096   5.870 -0.5676  0.8209 -1.4492
16952TIP3    H250779   5.772   8.185   5.890  0.7684 -0.7930 -2.2045
16953TIP3   OH250780   8.604   0.094   5.864  0.5384  0.2022  0.1154
16953TIP3    H150781   8.631   0.005   5.840  0.9864 -0.2263  2.0635
16953TIP3    H250782   8.628   0.148   5.789 -0.7665 -1.4872 -1.5578
16954TIP3   OH250783   6.274   8.065   6.494  0.2850  0.1322  0.1280
16954TIP3    H150784   6.315   8.031   6.415  0.2544  1.4125 -0.4461
16954TIP3    H250785   6.339   8.125   6.531  0.4637 -0.7601  1.2973
16955TIP3   OH250786   4.999   7.591   5.504  0.3249  0.5002  0.0426
16955TIP3    H150787   5.081   7.549   5.531 -0.7160 -0.9124  1.1056
16955TIP3    H250788   4.960   7.622   5.586 -0.7172  0.1909 -0.3283
16956TIP3   OH250789   3.449   4.577   0.305 -0.3044  0.4556  0.6454
16956TIP3    H150790   3.533   4.582   0.258 -0.4050  0.9138  0.5152
16956TIP3    H250791   3.465   4.512   0.373 -0.0576  0.0232  0.1826
16957TIP3   OH250792   0.855   0.816   6.132  0.2987  0.4268  0.9694
16957TIP3    H150793   0.819   0.779   6.051  1.1038  0.7489  0.4617
16957TIP3    H250794   0.929   0.870   6.103  0.4213  0.7629  1.8962
16958TIP3   OH250795   5.190   8.231   5.892  0.0676 -0.1804 -0.1413
16958TIP3    H150796   5.244   8.271   5.960  0.8434 -1.2002 -0.1562
16958TIP3    H250797   5.237   8.249   5.811 -0.2179 -0.0466 -0.2758
16959TIP3   OH250798   3.210   6.062   0.743 -0.0959  0.2677  0.0400
16959TIP3    H150799   3.172   6.073   0.655  0.8174  0.7069 -0.2994
16959TIP3    H250800   3.229   6.151   0.772  1.9724 -0.0180 -0.3698
16960TIP3   OH250801   5.067   0.677   1.847  0.2020  0.1824  0.5157
16960TIP3    H150802   5.063   0.693   1.752 -0.1424  0.5194  0.5861
16960TIP3    H250803   5.059   0.764   1.886 -0.0463  0.0039  0.8634
16961TIP3   OH250804   0.640   7.763   3.067  0.1790  0.0315 -0.0019
16961TIP3    H150805   0.636   7.837   3.007 -1.3230  1.0587  1.3120
16961TIP3    H250806   0.727   7.768   3.106  0.3032  0.7545 -0.3599
16962TIP3   OH250807   5.442   5.624   6.139 -0.4496  0.4029 -0.1439
16962TIP3    H150808   5.429   5.530   6.128 -0.3812  0.3542  0.1654
16962TIP3    H250809   5.526   5.631   6.185 -0.0967  0.6443 -0.8228
16963TIP3   OH250810   4.452   1.471   2.738  0.1225  0.2709  0.2458
16963TIP3    H150811   4.501   1.413   2.680  1.0428  0.9149  0.3670
16963TIP3    H250812   4.364   1.434   2.740  0.3112 -0.2760 -0.8510
16964TIP3   OH250813   3.949   0.306   2.413 -0.6629 -0.0194  1.0968
16964TIP3    H150814   3.982   0.243   2.349 -1.3952  0.5831  0.1164
16964TIP3    H250815   3.854   0.303   2.404 -0.7542  0.4337  1.8171
16965TIP3   OH250816   0.702   7.004   2.858 -0.5404  0.3318  0.4500
16965TIP3    H150817   0.792   6.982   2.834 -0.6539  0.0266  0.2933
16965TIP3    H250818   0.691   7.095   2.831 -0.5242  0.1288 -0.2454
16966TIP3   OH250819   7.820   8.115   2.321 -0.0395  0.3738 -0.2240
16966TIP3    H150820   7.749   8.122   2.384  0.7721 -0.8416  0.8340
16966TIP3    H250821   7.787   8.161   2.243 -1.5339  0.7786  0.6259
16967TIP3   OH250822   8.575   8.345   0.377 -0.1111 -0.4429 -0.1939
16967TIP3    H150823   8.609   8.416   0.324  0.8740 -0.3808  0.5119
16967TIP3    H250824   8.652   8.306   0.419 -1.0298  1.0382  3.0669
16968TIP3   OH250825   4.419   0.717   2.272 -0.2751 -0.0396  0.1396
16968TIP3    H150826   4.465   0.742   2.192  0.1648  0.6901  0.6123
16968TIP3    H250827   4.488   0.699   2.336 -0.6207  0.3538  0.6405
16969TIP3   OH250828   2.994   0.627   1.428 -0.0815  0.5953 -0.1670
16969TIP3    H150829   3.023   0.539   1.405 -0.9604 -0.4455  2.5072
16969TIP3    H250830   2.906   0.633   1.393  0.3808  0.8388 -1.3171
16970TIP3   OH250831   7.087   8.069   1.682  0.0356  0.8205  0.9344
16970TIP3    H150832   7.016   8.109   1.733 -1.4195 -1.0812  0.4541
16970TIP3    H250833   7.070   8.095   1.592 -0.2354  0.1242  0.7790
16971TIP3   OH250834   5.901   5.743   6.590 -0.0731  0.0566  0.4229
16971TIP3    H150835   5.867   5.822   6.633 -0.4441  1.0083 -1.5631
16971TIP3    H250836   5.996   5.754   6.592  0.0070 -0.9253  2.8659
16972TIP3   OH250837   8.123   6.547   0.586 -0.6555 -0.4612 -0.7920
16972TIP3    H150838   8.073   6.551   0.504  0.4562 -1.8146 -1.5673
16972TIP3    H250839   8.058   6.562   0.655 -1.7173  0.0598 -1.8901
16973TIP3   OH250840   0.037   8.170   0.102  0.1595  0.1725 -0.4664
16973TIP3    H150841   0.109   8.141   0.046  0.3733  2.4791 -1.4522
16973TIP3    H250842   0.051   8.264   0.112 -1.1754  0.1792  1.6006
16974TIP3   OH250843   8.849   7.050   0.456  0.6584 -0.7023  0.6168
16974TIP3    H150844   8.880   7.078   0.542  1.6098 -0.8656  0.3286
16974TIP3    H250845   8.810   6.964   0.471 -0.4506 -0.1263  1.1336
16975TIP3   OH250846   4.406   0.708   1.420 -0.0931  0.5455  0.7501
16975TIP3    H150847   4.343   0.779   1.436  1.3102  1.7530  0.9940
16975TIP3    H250848   4.464   0.742   1.353 -0.5928 -1.1559 -0.5716
16976TIP3   OH250849   1.571   7.301   1.245 -0.4390  0.1775 -0.4878
16976TIP3    H150850   1.499   7.349   1.284 -0.5015  0.5426 -1.0455
16976TIP3    H250851   1.538   7.273   1.160  1.4258  3.9179 -2.5863
16977TIP3   OH250852   0.409   8.015   2.243  0.1415  0.3266 -0.1282
16977TIP3    H150853   0.341   7.965   2.289  0.3795  0.3852  0.2955
16977TIP3    H250854   0.370   8.101   2.229  0.1346  0.3701  0.1396
16978TIP3   OH250855   8.091   5.118   6.298  0.4528  0.4519 -0.1979
16978TIP3    H150856   8.135   5.123   6.213 -0.9158 -0.2610 -0.9683
16978TIP3    H250857   8.153   5.074   6.355  1.5317  1.2592 -0.7239
16979TIP3   OH250858   3.589   1.098   0.440 -0.8968  0.5330  0.3929
16979TIP3    H150859   3.630   1.066   0.520  1.0286 -0.0664 -0.7909
16979TIP3    H250860   3.583   1.020   0.384 -2.9694  0.7763  0.2341
16980TIP3   OH250861   3.856   0.330   1.302 -0.5274 -0.0521 -0.3676
16980TIP3    H150862   3.898   0.416   1.304  1.6314 -1.0724  0.0707
16980TIP3    H250863   3.855   0.306   1.209  1.2558 -0.6611 -0.2420
16981TIP3   OH250864   5.870   1.933   1.482  0.2707 -0.1628 -0.4224
16981TIP3    H150865   5.775   1.944   1.483  0.2882  0.3186  2.4657
16981TIP3    H250866   5.899   1.985   1.407 -1.6754  0.3739 -0.8444
16982TIP3   OH250867   4.667   2.729   1.373  0.5045 -0.0438  0.1195
16982TIP3    H150868   4.700   2.719   1.284 -0.7016 -0.7971 -0.2575
16982TIP3    H250869   4.745   2.727   1.429  1.3272  1.1603 -0.9691
16983TIP3   OH250870   8.011   7.402   0.745 -0.1550  0.0232 -0.3201
16983TIP3    H150871   7.930   7.352   0.749 -0.4446  0.6066  1.5435
16983TIP3    H250872   8.071   7.348   0.694 -0.4005 -2.3380  1.8051
16984TIP3   OH250873   2.822   7.977   0.871 -0.3172  0.1104  0.2037
16984TIP3    H150874   2.825   7.994   0.777 -1.4959 -1.0091 -0.0571
16984TIP3    H250875   2.910   7.950   0.894  0.2441  1.4062 -0.3646
16985TIP3   OH250876   2.795   0.886   2.127 -0.1429  0.0840 -1.0340
16985TIP3    H150877   2.764   0.798   2.108 -2.3179  0.2376  1.4636
16985TIP3    H250878   2.754   0.941   2.060 -2.1866 -0.2490 -0.0726
16986TIP3   OH250879   1.952   7.547   1.994  0.1922 -0.3666 -0.3690
16986TIP3    H150880   1.921   7.527   1.906 -0.0692  3.1708 -1.1517
16986TIP3    H250881   1.976   7.640   1.991 -2.9908  0.7691  4.1802
16987TIP3   OH250882   3.975   0.646   1.881 -0.0613  0.2699 -0.2759
16987TIP3    H150883   3.898   0.697   1.855 -0.6807 -1.5429 -2.0919
16987TIP3    H250884   4.018   0.701   1.947 -3.0463  1.1949  1.0208
16988TIP3   OH250885   3.538   5.847   2.484 -0.4216  0.3640  0.8546
16988TIP3    H150886   3.450   5.828   2.516 -0.6370 -1.1158 -0.5282
16988TIP3    H250887   3.526   5.915   2.417 -0.8972 -1.7650 -1.3038
16989TIP3   OH250888   3.169   1.234   0.143  0.2740  0.3217  0.4856
16989TIP3    H150889   3.181   1.326   0.119  2.0626 -0.2763 -1.0223
16989TIP3    H250890   3.256   1.195   0.130 -0.7836 -1.8655 -0.1667
16990TIP3   OH250891   2.835   0.431   0.190  0.1812  0.1879  0.3150
16990TIP3    H150892   2.841   0.491   0.116 -0.2232 -0.3120 -0.1308
16990TIP3    H250893   2.926   0.416   0.216  0.3387  0.2613 -0.1750
16991TIP3   OH250894   5.373   0.188   1.818  0.0216 -0.7874  0.5228
16991TIP3    H150895   5.356   0.250   1.889  0.7211 -0.2829  0.2592
16991TIP3    H250896   5.401   0.243   1.745  0.3981 -1.3959  0.2080
16992TIP3   OH250897   8.523   7.772   2.573  0.4264 -0.5667 -0.6406
16992TIP3    H150898   8.451   7.829   2.600  2.3998  0.7505  2.0077
16992TIP3    H250899   8.519   7.698   2.633  0.0998 -1.4647 -1.7533
16993TIP3   OH250900   2.286   1.477   2.641  0.0258  0.3663 -0.5401
16993TIP3    H150901   2.309   1.545   2.578 -1.3321  1.9284  0.6206
16993TIP3    H250902   2.220   1.518   2.698  0.0433 -1.5360  0.8887
16994TIP3   OH250903   1.323   1.867   2.743  0.8148 -0.1237 -0.1611
16994TIP3    H150904   1.275   1.915   2.810  1.7540 -0.1614  0.5472
16994TIP3    H250905   1.353   1.787   2.787  0.4039 -0.7325 -0.9638
16995TIP3   OH250906   0.041   1.938   2.642 -0.4016  0.6818 -0.2231
16995TIP3    H150907  -0.022   1.992   2.594 -0.3295  2.5151  1.7148
16995TIP3    H250908  -0.013   1.871   2.685 -0.4885 -0.8725 -2.6246
16996TIP3   OH250909   1.707   1.321   1.920 -0.5453 -0.1895  0.1364
16996TIP3    H150910   1.680   1.314   2.012 -2.4594 -0.0684 -0.4032
16996TIP3    H250911   1.803   1.325   1.924 -0.6884  2.2090  2.2729
16997TIP3   OH250912   3.317   1.788   0.046 -0.0088  0.0469  0.2383
16997TIP3    H150913   3.350   1.786  -0.044 -0.0442  1.4739  0.1849
16997TIP3    H250914   3.394   1.808   0.099 -0.2665  0.6642  0.3805
16998TIP3   OH250915   2.562   2.429   2.799  0.2157  0.0147  0.3631
16998TIP3    H150916   2.605   2.365   2.856  1.9595  0.5090 -0.3646
16998TIP3    H250917   2.595   2.514   2.828 -0.3085  0.4063 -0.1796
16999TIP3   OH250918   2.959   2.609   1.846 -0.3181  0.0420 -0.0917
16999TIP3    H150919   2.904   2.642   1.774 -0.0842 -1.5586 -1.0245
16999TIP3    H250920   3.048   2.618   1.813 -0.1129  0.8428  0.6656
17000TIP3   OH250921   4.564   2.372   1.412  0.1491 -0.9105 -0.1222
17000TIP3    H150922   4.568   2.441   1.478 -0.7918 -1.1463  0.1832
17000TIP3    H250923   4.588   2.292   1.460  2.9199 -0.5705 -0.8401
17001TIP3   OH250924   2.654   0.947   1.186 -0.3730 -0.4715  0.0246
17001TIP3    H150925   2.662   1.029   1.235  1.4407 -1.0182  0.7067
17001TIP3    H250926   2.564   0.919   1.200 -0.4940  0.4878  1.2906
17002TIP3   OH250927   3.741   1.150   2.845  0.3177  0.8217  0.0739
17002TIP3    H150928   3.764   1.081   2.906  1.7881  0.0292 -1.3352
17002TIP3    H250929   3.650   1.171   2.865 -0.1116 -1.4519  0.5878
17003TIP3   OH250930   1.773   3.161   3.515 -0.4014  0.0695 -0.2578
17003TIP3    H150931   1.735   3.140   3.600  0.7174  1.1237  0.5181
17003TIP3    H250932   1.855   3.113   3.512  0.7864  1.9877  0.3404
17004TIP3   OH250933   1.705   0.217   0.138 -0.3848  0.0490 -0.3731
17004TIP3    H150934   1.730   0.225   0.046 -0.3645  1.4497 -0.2680
17004TIP3    H250935   1.732   0.129   0.163 -0.8032 -0.5030 -1.8324
17005TIP3   OH250936   2.750   1.343   0.810 -0.1595  0.3331 -0.2830
17005TIP3    H150937   2.696   1.337   0.731 -0.5405 -4.7010  0.1778
17005TIP3    H250938   2.827   1.394   0.784  0.0699 -1.8272 -4.1463
17006TIP3   OH250939   4.374   3.644   2.390  0.6519 -0.2487  0.4398
17006TIP3    H150940   4.284   3.634   2.421  0.3644  1.2075  0.1147
17006TIP3    H250941   4.429   3.612   2.461 -0.0823  0.4757  1.3368
17007TIP3   OH250942   3.228   2.144   1.275  0.4306  0.0627 -0.0298
17007TIP3    H150943   3.227   2.195   1.356  0.2654  0.0196 -0.0049
17007TIP3    H250944   3.278   2.198   1.214  0.2169  0.2780 -0.0167
17008TIP3   OH250945   1.798   1.209   1.676 -0.0762  0.0799  0.6062
17008TIP3    H150946   1.768   1.256   1.754 -1.0938 -2.2976  1.7126
17008TIP3    H250947   1.807   1.118   1.705 -1.0394 -0.9771 -2.1807
17009TIP3   OH250948   4.795   3.195   3.596 -0.3876 -0.3383 -0.1330
17009TIP3    H150949   4.770   3.259   3.530  2.2107  0.8501  0.0049
17009TIP3    H250950   4.714   3.147   3.614 -1.6678  0.8803 -2.4335
17010TIP3   OH250951   1.881   2.848   2.602  0.0711  0.1351  0.1859
17010TIP3    H150952   1.829   2.781   2.647  0.9928 -0.9260 -0.2920
17010TIP3    H250953   1.932   2.798   2.538 -1.1187  1.5832 -1.9374
17011TIP3   OH250954   3.509   1.353   1.143 -0.0814 -0.3896  0.0343
17011TIP3    H150955   3.565   1.347   1.065  0.7684 -0.3839  0.6408
17011TIP3    H250956   3.508   1.264   1.178 -4.0875 -1.5008 -2.4459
17012TIP3   OH250957   6.082   6.755   7.183 -0.0810 -0.8825 -0.3158
17012TIP3    H150958   6.012   6.701   7.147  1.7256 -2.1420 -1.9920
17012TIP3    H250959   6.105   6.816   7.113  1.6323 -1.5817 -0.3773
17013TIP3   OH250960   3.041   0.124   0.549 -0.5256 -0.1750  0.2895
17013TIP3    H150961   3.084   0.201   0.587 -1.2746  0.6242 -0.4605
17013TIP3    H250962   3.102   0.094   0.481 -0.7860  0.4957 -0.2482
17014TIP3   OH250963   1.701   0.248   1.405  0.6968 -0.3122 -0.1602
17014TIP3    H150964   1.747   0.322   1.446 -2.3957  0.4283  2.0987
17014TIP3    H250965   1.704   0.268   1.311  1.5696  1.7077  0.2667
17015TIP3   OH250966   2.437   1.365   1.710 -0.1141 -0.0752 -0.1561
17015TIP3    H150967   2.381   1.411   1.772  1.3173  0.4949  0.7511
17015TIP3    H250968   2.381   1.350   1.633 -1.3614  0.8531  0.5472
17016TIP3   OH250969   2.013   1.466   1.668  0.0024 -0.2561 -0.4867
17016TIP3    H150970   1.959   1.538   1.634  0.6614 -1.3384 -3.9502
17016TIP3    H250971   2.099   1.505   1.680 -0.0296 -0.0747 -0.8379
17017TIP3   OH250972   2.699   1.839   0.857 -0.1099 -0.3121 -0.6542
17017TIP3    H150973   2.728   1.850   0.766  0.5740 -0.0582 -0.4007
17017TIP3    H250974   2.769   1.790   0.899 -0.2481 -0.0834 -0.1565
17018TIP3   OH250975   2.335   1.242   1.186 -0.2224  0.0750  0.2758
17018TIP3    H150976   2.350   1.247   1.092  0.2363 -0.9902  0.2826
17018TIP3    H250977   2.244   1.215   1.195  0.0970 -1.1007  0.1043
17019TIP3   OH250978   2.343   0.536   0.648 -0.1172 -0.6663  0.1836
17019TIP3    H150979   2.334   0.441   0.654 -0.4391 -0.6854 -0.5749
17019TIP3    H250980   2.383   0.550   0.563 -0.2947 -0.1011  0.1959
17020TIP3   OH250981   2.929   0.519   0.536 -0.3275 -0.3882 -0.3433
17020TIP3    H150982   2.970   0.557   0.613  0.9696  0.0680 -1.2462
17020TIP3    H250983   2.869   0.453   0.571  1.3052 -1.2035  0.9885
17021TIP3   OH250984   2.276   1.893   3.493 -0.0002 -0.0248  0.7681
17021TIP3    H150985   2.188   1.911   3.459  0.2108  0.4537  0.4843
17021TIP3    H250986   2.334   1.902   3.418  0.1017 -2.0333  0.5645
17022TIP3   OH250987   1.426   1.027   2.448  0.5841 -0.0081 -0.4168
17022TIP3    H150988   1.470   1.092   2.503 -1.0928  0.8686 -0.0768
17022TIP3    H250989   1.467   0.944   2.472  0.5775  0.5029  1.4302
17023TIP3   OH250990   0.628   1.395   2.353  0.3869 -0.2118 -0.3012
17023TIP3    H150991   0.554   1.445   2.387  1.1061  0.8886 -0.3233
17023TIP3    H250992   0.629   1.315   2.406  0.0071  0.3791  0.6147
17024TIP3   OH250993   2.940   1.207   1.269 -0.9659 -0.0773  0.4171
17024TIP3    H150994   2.965   1.116   1.282  1.6173  0.7414  1.7031
17024TIP3    H250995   2.870   1.205   1.204  0.7385 -2.7808 -1.4202
17025TIP3   OH250996   2.398   0.556   1.266 -0.1089 -0.1245 -0.2600
17025TIP3    H150997   2.451   0.582   1.190 -0.6067 -0.5761 -0.7618
17025TIP3    H250998   2.335   0.493   1.231 -0.4971 -0.1509  0.4834
17026TIP3   OH250999   4.542   3.400   2.087 -0.1971 -0.1886 -0.1109
17026TIP3    H151000   4.607   3.445   2.140 -1.2531  0.1396  0.9426
17026TIP3    H251001   4.464   3.456   2.092 -1.1670 -1.5534  0.2775
17027TIP3   OH251002   1.962   0.621   0.933 -0.5852  0.2146  0.4282
17027TIP3    H151003   1.993   0.708   0.908 -0.9872 -0.0950 -1.2547
17027TIP3    H251004   1.985   0.612   1.025  1.9267  1.0241 -0.0921
17028TIP3   OH251005   0.514   1.804   2.347  0.6638  0.5147 -0.2069
17028TIP3    H151006   0.434   1.856   2.350  1.0734  1.0834  1.5877
17028TIP3    H251007   0.487   1.717   2.379  1.2395  1.4257  2.9655
17029TIP3   OH251008   8.472   0.480   3.289 -0.1394  0.8524  0.0721
17029TIP3    H151009   8.388   0.520   3.268 -0.5324 -0.8785 -1.7609
17029TIP3    H251010   8.482   0.410   3.225  2.4846  0.7242  0.5717
17030TIP3   OH251011   8.774   8.018   0.968 -0.2214  0.2011 -0.5021
17030TIP3    H151012   8.711   8.008   1.039 -1.9411  0.4637 -1.9465
17030TIP3    H251013   8.823   8.097   0.989 -1.3434  0.7760 -0.0779
17031TIP3   OH251014   3.894   1.292   0.820 -0.3288  0.0957 -0.1255
17031TIP3    H151015   3.932   1.279   0.907 -0.2940 -1.9881 -0.4308
17031TIP3    H251016   3.944   1.233   0.763  0.8953  2.7571 -1.9483
17032TIP3   OH251017   1.313   1.333   1.997  0.0432 -0.0310 -0.3371
17032TIP3    H151018   1.283   1.272   1.930  0.7072  0.5448 -1.1718
17032TIP3    H251019   1.331   1.277   2.073 -1.4425 -0.5900 -0.3751
17033TIP3   OH251020   2.263   0.926   0.193 -0.2014 -0.5888  0.4648
17033TIP3    H151021   2.231   0.983   0.263 -1.3085 -2.5737  1.5897
17033TIP3    H251022   2.184   0.884   0.159  0.6325 -1.5480 -0.2789
17034TIP3   OH251023   7.357   7.930   3.287 -0.2547  0.0218 -0.1822
17034TIP3    H151024   7.441   7.972   3.306 -0.5367  1.0112 -1.0795
17034TIP3    H251025   7.367   7.840   3.320  0.3214  0.8040  1.8398
17035TIP3   OH251026   4.113   3.004   3.335  0.2398 -0.4281 -0.1409
17035TIP3    H151027   4.117   2.924   3.282 -0.2158 -0.4945 -0.0812
17035TIP3    H251028   4.107   3.075   3.270  3.1322 -0.2368 -0.2679
17036TIP3   OH251029   1.821   1.346   2.610  0.8828 -0.0065  0.1954
17036TIP3    H151030   1.851   1.310   2.527 -0.3639  1.4798 -0.9366
17036TIP3    H251031   1.894   1.399   2.641  0.9833  0.2337 -0.4432
17037TIP3   OH251032   3.304   1.478   0.719  0.0249  0.0899  0.1907
17037TIP3    H151033   3.284   1.539   0.649 -0.1842 -0.8298 -0.5559
17037TIP3    H251034   3.366   1.416   0.680 -0.1766 -0.4871  0.7816
17038TIP3   OH251035   6.837   4.373   5.994 -0.0190  0.9170 -0.1859
17038TIP3    H151036   6.893   4.444   5.963  0.7840  0.2122 -0.4070
17038TIP3    H251037   6.812   4.326   5.914 -0.3815  0.8406 -0.0270
17039TIP3   OH251038   1.521   1.782   1.934  0.3193 -0.1431  0.0439
17039TIP3    H151039   1.438   1.773   1.981  1.9313 -1.7175  2.8017
17039TIP3    H251040   1.575   1.834   1.993  1.5747  0.0585 -1.2843
17040TIP3   OH251041   3.452   1.189   2.110  0.5192  0.3582  0.7117
17040TIP3    H151042   3.505   1.264   2.084 -1.2316  1.0164 -1.1216
17040TIP3    H251043   3.390   1.224   2.174 -0.8235  0.7003 -0.7392
17041TIP3   OH251044   3.111   3.422   3.283 -0.1879 -0.1434 -0.4331
17041TIP3    H151045   3.197   3.422   3.242  0.4600 -1.1289  0.8830
17041TIP3    H251046   3.083   3.514   3.281  1.3320  0.3358  0.0609
17042TIP3   OH251047   2.166   8.237   1.474  0.0470 -0.2985  0.2839
17042TIP3    H151048   2.165   8.331   1.458 -0.0899 -0.1724  0.9849
17042TIP3    H251049   2.129   8.198   1.395 -0.0620  0.2503  0.0631
17043TIP3   OH251050   4.898   1.680   2.676 -0.0198 -0.0762  0.3028
17043TIP3    H151051   4.927   1.594   2.644 -2.0370 -0.8197  0.4068
17043TIP3    H251052   4.805   1.668   2.695 -0.4972  2.3441 -0.4091
17044TIP3   OH251053   4.447   1.168   1.511  0.0723  0.4442  0.1001
17044TIP3    H151054   4.398   1.165   1.592  0.2489 -0.9916  0.1708
17044TIP3    H251055   4.446   1.078   1.479  3.0565  0.2610  0.3601
17045TIP3   OH251056   3.794   0.702   0.648 -0.5923  0.0639  0.0465
17045TIP3    H151057   3.756   0.720   0.734  1.2964 -0.4280  1.0244
17045TIP3    H251058   3.741   0.630   0.613  0.2558 -1.5399  1.9607
17046TIP3   OH251059   2.593   3.117   0.967 -0.7117 -0.1622  0.3114
17046TIP3    H151060   2.651   3.042   0.953  0.0754  0.2805  1.1834
17046TIP3    H251061   2.525   3.084   1.025 -1.9704 -0.9863 -1.5566
17047TIP3   OH251062   3.871   2.008   1.913 -0.0184  0.1207  0.1102
17047TIP3    H151063   3.884   2.103   1.921 -0.9568  0.3805 -1.2428
17047TIP3    H251064   3.903   1.987   1.825  0.1056 -0.8002  0.3707
17048TIP3   OH251065   3.379   2.003   0.527 -0.1710  0.4708 -0.3054
17048TIP3    H151066   3.463   1.966   0.554 -0.2528  0.5625  0.0729
17048TIP3    H251067   3.314   1.937   0.555 -0.1277 -0.1874 -1.7040
17049TIP3   OH251068   1.878   1.252   1.323 -0.0831 -0.3531 -0.2281
17049TIP3    H151069   1.970   1.226   1.335  0.6531  2.4791  0.7715
17049TIP3    H251070   1.837   1.235   1.408  0.3716  1.5231  0.3904
17050TIP3   OH251071   1.835   4.437   6.603 -0.6334  0.1688 -0.0248
17050TIP3    H151072   1.802   4.350   6.580  0.4713 -0.5082  0.8696
17050TIP3    H251073   1.821   4.444   6.698  1.0529  0.1523  0.2542
17051TIP3   OH251074   0.360   0.286   1.925  0.0242  0.0510 -0.0543
17051TIP3    H151075   0.369   0.369   1.877  1.1975 -0.4412 -0.6802
17051TIP3    H251076   0.343   0.314   2.016 -0.8603  0.9713 -0.4788
17052TIP3   OH251077   0.291   1.967   2.536  0.1183 -1.3504 -0.4431
17052TIP3    H151078   0.306   1.964   2.441  1.2848  0.3924 -0.3432
17052TIP3    H251079   0.196   1.971   2.546  0.0673  1.2945 -1.6555
17053TIP3   OH251080   8.890   1.824   3.989 -0.2410  0.2350 -0.3078
17053TIP3    H151081   8.817   1.780   3.944 -0.2820 -1.6155  1.5072
17053TIP3    H251082   8.944   1.752   4.023 -0.1002  1.5609  2.3887
17054TIP3   OH251083   1.777   1.091   3.780  0.0965  0.0513  0.5932
17054TIP3    H151084   1.841   1.021   3.771 -0.5748 -0.5778  0.6899
17054TIP3    H251085   1.821   1.169   3.745  1.2684 -0.1681  1.5442
17055TIP3   OH251086   1.211   2.495   2.099 -0.4415  0.1007  0.3392
17055TIP3    H151087   1.211   2.399   2.105  0.0131  0.1460  1.1450
17055TIP3    H251088   1.302   2.520   2.110 -0.1290  0.4871 -2.6718
17056TIP3   OH251089   0.493   0.676   0.575  0.1202 -0.2588  0.5099
17056TIP3    H151090   0.572   0.668   0.629  1.6606 -0.1115 -1.6385
17056TIP3    H251091   0.524   0.717   0.494 -1.8577 -1.7516 -1.0489
17057TIP3   OH251092   4.126   4.810   5.937 -0.2054  0.1310 -0.0431
17057TIP3    H151093   4.205   4.790   5.988 -0.0745  1.7547  0.4264
17057TIP3    H251094   4.145   4.778   5.849  1.1726  0.9190 -0.0466
17058TIP3   OH251095   8.809   1.934   2.050 -0.1785 -0.0959 -0.1490
17058TIP3    H151096   8.728   1.888   2.028 -1.5962  2.3545 -0.2410
17058TIP3    H251097   8.836   1.975   1.968  1.1489 -0.8544 -0.1054
17059TIP3   OH251098   1.479   2.984   1.856  0.7171 -0.0980  0.4563
17059TIP3    H151099   1.543   2.968   1.925  0.7132 -2.0059  0.0602
17059TIP3    H251100   1.523   2.953   1.776  0.0385  0.3787 -0.1004
17060TIP3   OH251101   1.210   3.054   1.880  0.4422 -0.1720 -0.2893
17060TIP3    H151102   1.181   2.965   1.898  1.4208 -0.6679 -1.1121
17060TIP3    H251103   1.306   3.049   1.885  0.5075  0.7986 -0.5023
17061TIP3   OH251104   0.727   2.418   3.467  0.3886  0.5627  0.3425
17061TIP3    H151105   0.637   2.390   3.483  1.2459 -1.2178  2.4230
17061TIP3    H251106   0.767   2.346   3.418  1.2360  0.3473  1.3148
17062TIP3   OH251107   1.858   2.187   2.215  0.2115  0.5823  0.2949
17062TIP3    H151108   1.936   2.182   2.159  1.2966  0.6563  1.7791
17062TIP3    H251109   1.863   2.274   2.255 -1.6784  1.3627 -1.0763
17063TIP3   OH251110   0.206   0.707   1.903  0.3155  0.5953 -0.4050
17063TIP3    H151111   0.143   0.774   1.877 -0.3561  0.1973  0.2001
17063TIP3    H251112   0.242   0.738   1.986 -0.0975  0.1439 -0.0536
17064TIP3   OH251113   5.379   5.370   6.613 -0.6809 -0.3595 -0.3793
17064TIP3    H151114   5.393   5.391   6.521  1.8153 -0.8663 -0.1636
17064TIP3    H251115   5.461   5.328   6.640 -1.3117 -0.0336  2.1246
17065TIP3   OH251116   2.809   1.824   0.610 -0.5561  0.3759  0.0421
17065TIP3    H151117   2.725   1.809   0.567 -0.4600 -1.1382  0.3370
17065TIP3    H251118   2.872   1.830   0.538 -0.5991 -0.7523 -0.1019
17066TIP3   OH251119   0.745   1.882   1.195 -0.5142  0.5093  0.0258
17066TIP3    H151120   0.836   1.867   1.221 -1.1494 -1.8043  1.0665
17066TIP3    H251121   0.696   1.882   1.277 -1.6594 -0.0157 -0.6371
17067TIP3   OH251122   2.453   2.699   2.337 -0.2283 -0.1647 -0.0880
17067TIP3    H151123   2.419   2.618   2.301 -0.7698  0.0211  0.0058
17067TIP3    H251124   2.547   2.684   2.346  0.0143 -0.0392 -2.0830
17068TIP3   OH251125   0.616   1.617   0.054  0.1185  0.1932 -0.4425
17068TIP3    H151126   0.690   1.675   0.038 -0.1522  0.7891  0.4736
17068TIP3    H251127   0.551   1.672   0.096 -0.4417 -0.5911 -0.2810
17069TIP3   OH251128   3.026   1.482   0.782 -0.3427  0.1564  0.2877
17069TIP3    H151129   3.018   1.578   0.780 -0.8902  0.0938 -0.4761
17069TIP3    H251130   3.118   1.467   0.805 -0.8243  0.8615  2.8867
17070TIP3   OH251131   2.936   3.878   1.150 -0.4979  0.2983 -0.0403
17070TIP3    H151132   2.947   3.963   1.194  2.8499 -1.0381  1.8892
17070TIP3    H251133   2.986   3.887   1.069 -0.7825  0.4055 -0.2057
17071TIP3   OH251134   0.408   1.184   2.226  0.0172 -0.3190  0.0246
17071TIP3    H151135   0.480   1.139   2.183  0.7915  0.0083  0.9788
17071TIP3    H251136   0.421   1.169   2.319 -0.5500  0.6272  0.2644
17072TIP3   OH251137   1.948   2.715   0.991  0.1690 -0.0798 -0.1730
17072TIP3    H151138   1.912   2.800   0.964 -0.7025  0.2772  1.9849
17072TIP3    H251139   2.013   2.694   0.924  1.1022  2.7692 -0.2269
17073TIP3   OH251140   2.173   1.282   0.072 -0.0218  0.8793 -0.1620
17073TIP3    H151141   2.106   1.339   0.111  1.3501  0.9426  2.1972
17073TIP3    H251142   2.147   1.194   0.098  0.5699  0.8666  0.3856
17074TIP3   OH251143   4.534   5.405   6.994  0.0930  0.1161 -0.0183
17074TIP3    H151144   4.475   5.351   6.941 -1.3124 -0.0358  1.6336
17074TIP3    H251145   4.480   5.481   7.019  0.5572 -0.0639  1.5800
17075TIP3   OH251146   0.482   1.176   1.641 -0.2589 -0.3785 -0.4465
17075TIP3    H151147   0.414   1.197   1.577 -0.0861  0.6570 -0.2992
17075TIP3    H251148   0.455   1.093   1.679 -0.5888 -0.7867 -1.5588
17076TIP3   OH251149   2.516   2.094   2.839 -0.1006  0.0431  0.4515
17076TIP3    H151150   2.572   2.158   2.883  0.3784 -0.0860  0.0310
17076TIP3    H251151   2.567   2.064   2.764 -1.2329  0.8663 -0.6725
17077TIP3   OH251152   1.864   4.022   2.080  0.4303 -0.0593 -0.4535
17077TIP3    H151153   1.774   4.042   2.052  0.2586  1.4267  1.0869
17077TIP3    H251154   1.920   4.068   2.018  0.0865  0.8600 -0.0937
17078TIP3   OH251155   0.661   3.459   2.267  0.1398  0.1958  0.1480
17078TIP3    H151156   0.690   3.550   2.261  0.1942  0.0888 -1.3151
17078TIP3    H251157   0.699   3.428   2.349  2.3219  0.7308 -0.6317
17079TIP3   OH251158   0.548   0.241   1.584 -0.1902 -0.2801 -0.3809
17079TIP3    H151159   0.512   0.166   1.632  0.3373 -1.5043 -1.8590
17079TIP3    H251160   0.638   0.217   1.564 -0.5832 -0.1218 -2.5669
17080TIP3   OH251161   1.195   4.218   2.347  1.0405  0.7390 -0.2884
17080TIP3    H151162   1.256   4.282   2.312  0.5495  0.5488 -1.5192
17080TIP3    H251163   1.230   4.133   2.317  1.6966  0.4124  1.3348
17081TIP3   OH251164   8.796   1.532   3.426 -0.4636 -0.8041  0.2215
17081TIP3    H151165   8.729   1.491   3.482 -1.1705  2.1052  1.5888
17081TIP3    H251166   8.858   1.569   3.488 -0.8380  1.8009 -0.9118
17082TIP3   OH251167   1.607   5.319   6.508 -0.3181 -0.0410 -0.0270
17082TIP3    H151168   1.679   5.355   6.456  1.3245 -0.2353  2.0665
17082TIP3    H251169   1.592   5.384   6.576  0.0935 -1.5236  1.5070
17083TIP3   OH251170   1.807   3.486   1.169  0.1941  0.1919 -0.2119
17083TIP3    H151171   1.723   3.490   1.215 -0.0756 -0.3628 -0.6470
17083TIP3    H251172   1.843   3.400   1.192 -0.5455 -0.6307 -2.0544
17084TIP3   OH251173   0.246   1.777   2.089  0.6583 -0.2389 -0.4109
17084TIP3    H151174   0.234   1.828   2.009  1.5098 -1.1617 -1.1320
17084TIP3    H251175   0.234   1.686   2.062 -1.1112 -0.4136  0.9237
17085TIP3   OH251176   1.776   1.101   1.118  0.4923 -0.0835  0.3096
17085TIP3    H151177   1.771   1.161   1.044 -1.6903 -0.5858  0.0041
17085TIP3    H251178   1.806   1.156   1.191 -1.5891  1.4404  0.0667
17086TIP3   OH251179   0.068   3.723   1.368 -0.6359 -0.2880 -0.9147
17086TIP3    H151180   0.120   3.662   1.317 -0.8631  0.2698 -1.8262
17086TIP3    H251181   0.121   3.741   1.446 -1.4641 -3.2158  0.3857
   8.90000   8.39100   7.26682   0.00000   0.00000  -2.96667   0.00000  -2.96667  -4.19550
