Title t= 229.00000 step= 114500
44463
    1GLY      N    1   2.739   3.288   4.056
    1GLY    HT1    2   2.705   3.383   4.081
    1GLY    HT2    3   2.817   3.298   3.988
    1GLY    HT3    4   2.776   3.246   4.144
    1GLY     CA    5   2.631   3.196   4.009
    1GLY    HA1    6   2.669   3.143   3.922
    1GLY    HA2    7   2.538   3.244   3.982
    1GLY      C    8   2.599   3.089   4.112
    1GLY      O    9   2.661   3.088   4.216
    2PRO      N   10   2.518   2.988   4.077
    2PRO     CD   11   2.447   2.977   3.953
    2PRO    HD1   12   2.505   3.016   3.866
    2PRO    HD2   13   2.352   3.032   3.969
    2PRO     CA   14   2.530   2.862   4.147
    2PRO     HA   15   2.503   2.885   4.249
    2PRO     CB   16   2.420   2.771   4.082
    2PRO    HB1   17   2.327   2.789   4.139
    2PRO    HB2   18   2.456   2.665   4.081
    2PRO     CG   19   2.412   2.826   3.941
    2PRO    HG1   20   2.496   2.784   3.880
    2PRO    HG2   21   2.318   2.798   3.889
    2PRO      C   22   2.664   2.797   4.150
    2PRO      O   23   2.754   2.827   4.069
    3GLY      N   24   2.690   2.702   4.238
    3GLY     HN   25   2.624   2.659   4.298
    3GLY     CA   26   2.822   2.636   4.237
    3GLY    HA1   27   2.838   2.565   4.317
    3GLY    HA2   28   2.901   2.708   4.225
    3GLY      C   29   2.849   2.564   4.106
    3GLY      O   30   2.766   2.560   4.013
    4ASP      N   31   2.961   2.499   4.097
    4ASP     HN   32   3.023   2.492   4.174
    4ASP     CA   33   2.991   2.404   3.991
    4ASP     HA   34   2.920   2.413   3.910
    4ASP     CB   35   3.129   2.423   3.927
    4ASP    HB1   36   3.163   2.333   3.873
    4ASP    HB2   37   3.203   2.447   4.007
    4ASP     CG   38   3.140   2.533   3.827
    4ASP    OD1   39   3.256   2.577   3.802
    4ASP    OD2   40   3.039   2.571   3.765
    4ASP      C   41   2.973   2.258   4.052
    4ASP      O   42   2.975   2.236   4.177
    5PRO      N   43   2.953   2.148   3.968
    5PRO     CD   44   2.919   2.153   3.830
    5PRO    HD1   45   3.003   2.199   3.774
    5PRO    HD2   46   2.823   2.197   3.796
    5PRO     CA   47   2.983   2.005   4.014
    5PRO     HA   48   2.904   1.980   4.083
    5PRO     CB   49   2.988   1.921   3.888
    5PRO    HB1   50   2.948   1.818   3.891
    5PRO    HB2   51   3.091   1.914   3.847
    5PRO     CG   52   2.908   2.006   3.783
    5PRO    HG1   53   2.937   1.988   3.677
    5PRO    HG2   54   2.798   1.998   3.793
    5PRO      C   55   3.104   1.969   4.099
    5PRO      O   56   3.211   2.029   4.076
    6GLY      N   57   3.094   1.878   4.195
    6GLY     HN   58   3.009   1.827   4.209
    6GLY     CA   59   3.192   1.856   4.304
    6GLY    HA1   60   3.155   1.785   4.376
    6GLY    HA2   61   3.217   1.949   4.352
    6GLY      C   62   3.323   1.796   4.240
    6GLY      O   63   3.330   1.760   4.121
    7PRO      N   64   3.421   1.771   4.322
    7PRO     CD   65   3.414   1.810   4.465
    7PRO    HD1   66   3.318   1.780   4.513
    7PRO    HD2   67   3.426   1.918   4.488
    7PRO     CA   68   3.521   1.673   4.296
    7PRO     HA   69   3.576   1.698   4.207
    7PRO     CB   70   3.619   1.684   4.414
    7PRO    HB1   71   3.691   1.768   4.401
    7PRO    HB2   72   3.671   1.591   4.444
    7PRO     CG   73   3.528   1.724   4.533
    7PRO    HG1   74   3.479   1.631   4.569
    7PRO    HG2   75   3.567   1.781   4.620
    7PRO      C   76   3.465   1.532   4.270
    7PRO      O   77   3.358   1.506   4.329
    8GLY      N   78   3.538   1.448   4.194
    8GLY     HN   79   3.619   1.470   4.140
    8GLY     CA   80   3.501   1.303   4.166
    8GLY    HA1   81   3.433   1.270   4.243
    8GLY    HA2   82   3.590   1.244   4.153
    8GLY      C   83   3.410   1.272   4.047
    8GLY      O   84   3.338   1.358   3.999
    9ASP      N   85   3.415   1.152   4.004
    9ASP     HN   86   3.463   1.081   4.055
    9ASP     CA   87   3.364   1.106   3.873
    9ASP     HA   88   3.419   1.165   3.802
    9ASP     CB   89   3.398   0.960   3.843
    9ASP    HB1   90   3.346   0.931   3.749
    9ASP    HB2   91   3.352   0.898   3.923
    9ASP     CG   92   3.543   0.931   3.844
    9ASP    OD1   93   3.625   1.029   3.854
    9ASP    OD2   94   3.587   0.812   3.831
    9ASP      C   95   3.211   1.116   3.862
    9ASP      O   96   3.146   1.084   3.961
   10PRO      N   97   3.143   1.157   3.752
   10PRO     CD   98   3.210   1.178   3.623
   10PRO    HD1   99   3.237   1.083   3.573
   10PRO    HD2  100   3.289   1.254   3.642
   10PRO     CA  101   3.002   1.194   3.747
   10PRO     HA  102   2.996   1.298   3.773
   10PRO     CB  103   2.975   1.198   3.591
   10PRO    HB1  104   2.894   1.267   3.558
   10PRO    HB2  105   2.944   1.100   3.549
   10PRO     CG  106   3.108   1.242   3.528
   10PRO    HG1  107   3.121   1.213   3.422
   10PRO    HG2  108   3.119   1.352   3.544
   10PRO      C  109   2.898   1.125   3.829
   10PRO      O  110   2.887   1.004   3.832
   11GLY      N  111   2.808   1.199   3.893
   11GLY     HN  112   2.809   1.299   3.885
   11GLY     CA  113   2.698   1.146   3.961
   11GLY    HA1  114   2.721   1.051   4.006
   11GLY    HA2  115   2.612   1.151   3.895
   11GLY      C  116   2.662   1.236   4.077
   11GLY      O  117   2.755   1.287   4.142
   12PRO      N  118   2.542   1.263   4.112
   12PRO     CD  119   2.428   1.248   4.028
   12PRO    HD1  120   2.415   1.146   3.984
   12PRO    HD2  121   2.440   1.315   3.940
   12PRO     CA  122   2.507   1.317   4.245
   12PRO     HA  123   2.531   1.422   4.234
   12PRO     CB  124   2.359   1.293   4.254
   12PRO    HB1  125   2.310   1.378   4.307
   12PRO    HB2  126   2.333   1.201   4.310
   12PRO     CG  127   2.305   1.286   4.110
   12PRO    HG1  128   2.228   1.207   4.099
   12PRO    HG2  129   2.258   1.380   4.074
   12PRO      C  130   2.577   1.262   4.369
   12PRO      O  131   2.617   1.143   4.368
   13GLY      N  132   2.606   1.344   4.472
   13GLY     HN  133   2.601   1.443   4.457
   13GLY     CA  134   2.640   1.296   4.609
   13GLY    HA1  135   2.641   1.388   4.665
   13GLY    HA2  136   2.739   1.256   4.596
   13GLY      C  137   2.551   1.199   4.679
   13GLY      O  138   2.441   1.173   4.638
   14ASP      N  139   2.593   1.161   4.805
   14ASP     HN  140   2.686   1.182   4.837
   14ASP     CA  141   2.506   1.090   4.897
   14ASP     HA  142   2.494   0.990   4.858
   14ASP     CB  143   2.570   1.072   5.034
   14ASP    HB1  144   2.512   1.010   5.105
   14ASP    HB2  145   2.600   1.173   5.071
   14ASP     CG  146   2.700   0.986   5.026
   14ASP    OD1  147   2.736   0.931   4.920
   14ASP    OD2  148   2.771   0.966   5.130
   14ASP      C  149   2.370   1.150   4.918
   14ASP      O  150   2.358   1.272   4.931
   15PRO      N  151   2.263   1.065   4.935
   15PRO     CD  152   2.263   0.917   4.909
   15PRO    HD1  153   2.304   0.859   4.995
   15PRO    HD2  154   2.334   0.878   4.833
   15PRO     CA  155   2.130   1.117   4.933
   15PRO     HA  156   2.120   1.194   4.857
   15PRO     CB  157   2.030   0.998   4.907
   15PRO    HB1  158   1.962   1.029   4.825
   15PRO    HB2  159   1.966   0.977   4.996
   15PRO     CG  160   2.119   0.886   4.854
   15PRO    HG1  161   2.092   0.784   4.889
   15PRO    HG2  162   2.121   0.898   4.744
   15PRO      C  163   2.112   1.180   5.074
   15PRO    OT1  164   2.146   1.119   5.175
   15PRO    OT2  165   2.059   1.293   5.077
   16LIT    LIT  166   2.069   1.276   5.263
   17LIT    LIT  167   2.723   1.694   5.608
   18LIT    LIT  168   2.720   6.938   2.212
   19LIT    LIT  169   5.463   5.461   1.288
   20LIT    LIT  170   1.579   6.104   3.647
   21LIT    LIT  171   0.333   1.797   2.867
   22LIT    LIT  172   0.360   1.348   4.294
   23LIT    LIT  173   1.519   2.359   3.064
   24LIT    LIT  174   0.668   1.985   5.325
   25LIT    LIT  175   4.956   0.860   4.549
   26LIT    LIT  176   7.967   2.143   2.066
   27LIT    LIT  177   0.357   3.379   6.249
   28LIT    LIT  178   4.448   1.269   4.951
   29LIT    LIT  179   2.305   5.246   1.057
   30LIT    LIT  180   6.430   7.683   6.724
   31LIT    LIT  181   7.436   5.971   5.436
   32LIT    LIT  182   4.712   4.463   0.693
   33LIT    LIT  183   7.543   2.144   0.746
   34LIT    LIT  184   4.611   7.018   3.200
   35LIT    LIT  185   4.208   7.437   6.571
   36LIT    LIT  186   3.433   0.276   3.282
   37LIT    LIT  187   8.221   6.478   0.827
   38LIT    LIT  188   4.874   7.612   4.527
   39LIT    LIT  189   0.124   7.550   3.429
   40LIT    LIT  190   0.189   0.761   1.951
   41LIT    LIT  191   1.319   7.497   4.431
   42LIT    LIT  192   6.635   0.875   0.735
   43LIT    LIT  193   5.937   2.398   0.788
   44LIT    LIT  194   7.156   1.872   4.976
   45LIT    LIT  195   7.367   5.053   3.040
   46LIT    LIT  196   6.839   4.698   2.396
   47LIT    LIT  197   0.618   4.936   1.505
   48LIT    LIT  198   6.256   2.535   3.609
   49LIT    LIT  199   8.160   1.937   6.237
   50LIT    LIT  200   7.972   0.496   4.675
   51LIT    LIT  201   2.386   0.567   3.974
   52LIT    LIT  202   7.339   5.743   0.621
   53LIT    LIT  203   0.483   3.270   2.036
   54LIT    LIT  204   1.353   3.395   1.685
   55LIT    LIT  205   0.583   0.132   3.594
   56LIT    LIT  206   4.309   7.107   1.876
   57LIT    LIT  207   6.102   2.965   2.606
   58LIT    LIT  208   2.913   0.877   5.031
   59LIT    LIT  209   1.052   6.095   4.486
   60LIT    LIT  210   3.298   5.022   4.976
   61CLA    CLA  211   8.213   4.741   3.416
   62CLA    CLA  212   2.311   3.844   4.707
   63CLA    CLA  213   1.961   1.117   2.969
   64CLA    CLA  214   5.085   3.464   1.182
   65CLA    CLA  215   6.827   0.451   2.328
   66CLA    CLA  216   7.966   0.317   3.992
   67CLA    CLA  217   1.401   0.752   6.176
   68CLA    CLA  218   6.002   0.477   5.262
   69CLA    CLA  219   1.647   1.655   5.661
   70CLA    CLA  220   3.867   6.497   4.825
   71CLA    CLA  221   0.520   5.739   6.027
   72CLA    CLA  222   2.472   5.849   1.488
   73CLA    CLA  223   8.304   3.307   1.698
   74CLA    CLA  224   7.535   5.936   3.524
   75CLA    CLA  225   6.248   0.421   4.360
   76CLA    CLA  226   4.015   1.143   1.158
   77CLA    CLA  227   3.143   4.874   4.178
   78CLA    CLA  228   3.846   4.582   1.232
   79CLA    CLA  229   7.651   6.277   0.031
   80CLA    CLA  230   7.148   4.144   1.825
   81CLA    CLA  231   6.080   6.433   6.501
   82CLA    CLA  232   8.060   0.479   6.455
   83CLA    CLA  233   2.105   5.423   0.388
   84CLA    CLA  234   2.262   1.265   0.242
   85CLA    CLA  235   3.736   5.811   5.874
   86CLA    CLA  236   7.075   3.731   3.668
   87CLA    CLA  237   2.890   6.366   2.498
   88CLA    CLA  238   5.072   5.366   1.033
   89CLA    CLA  239   6.483   4.418   4.573
   90CLA    CLA  240   1.340   6.453   6.588
   91CLA    CLA  241   3.568   3.549   2.015
   92CLA    CLA  242   7.550   7.121   4.960
   93CLA    CLA  243   4.663   1.221   4.573
   94CLA    CLA  244   1.938   2.662   6.498
   95CLA    CLA  245   2.413   6.040   4.278
   96CLA    CLA  246   0.150   1.308   2.732
   97CLA    CLA  247   6.487   2.448   4.211
   98CLA    CLA  248   1.151   6.217   4.030
   99CLA    CLA  249   7.456   1.995   0.887
  100CLA    CLA  250   1.264   3.981   4.388
  101CLA    CLA  251   0.138   1.789   2.718
  102CLA    CLA  252   0.654   0.782   4.873
  103TIP3   OH2  253   1.965   6.439   5.113
  103TIP3    H1  254   1.958   6.484   5.029
  103TIP3    H2  255   2.059   6.437   5.131
  104TIP3   OH2  256   6.484   6.100   6.055
  104TIP3    H1  257   6.538   6.023   6.072
  104TIP3    H2  258   6.537   6.154   5.996
  105TIP3   OH2  259   7.593   2.804   3.654
  105TIP3    H1  260   7.546   2.737   3.604
  105TIP3    H2  261   7.657   2.839   3.593
  106TIP3   OH2  262   6.060   5.766   0.670
  106TIP3    H1  263   6.092   5.785   0.582
  106TIP3    H2  264   5.969   5.797   0.669
  107TIP3   OH2  265   2.033   4.426   2.744
  107TIP3    H1  266   1.959   4.384   2.788
  107TIP3    H2  267   1.996   4.504   2.703
  108TIP3   OH2  268   0.517   5.258   0.711
  108TIP3    H1  269   0.575   5.304   0.772
  108TIP3    H2  270   0.535   5.165   0.726
  109TIP3   OH2  271   7.589   5.908   2.342
  109TIP3    H1  272   7.528   5.846   2.381
  109TIP3    H2  273   7.620   5.961   2.415
  110TIP3   OH2  274   5.826   5.431   4.650
  110TIP3    H1  275   5.805   5.453   4.559
  110TIP3    H2  276   5.891   5.496   4.676
  111TIP3   OH2  277   0.342   6.048   5.246
  111TIP3    H1  278   0.345   6.088   5.159
  111TIP3    H2  279   0.262   6.083   5.286
  112TIP3   OH2  280   2.938   2.494   5.454
  112TIP3    H1  281   3.019   2.463   5.497
  112TIP3    H2  282   2.876   2.422   5.466
  113TIP3   OH2  283   6.420   2.759   4.078
  113TIP3    H1  284   6.425   2.669   4.108
  113TIP3    H2  285   6.338   2.792   4.115
  114TIP3   OH2  286   2.260   0.585   2.123
  114TIP3    H1  287   2.270   0.533   2.043
  114TIP3    H2  288   2.310   0.536   2.188
  115TIP3   OH2  289   5.713   6.979   3.568
  115TIP3    H1  290   5.764   7.031   3.631
  115TIP3    H2  291   5.677   7.043   3.507
  116TIP3   OH2  292   2.115   2.064   5.520
  116TIP3    H1  293   2.082   2.153   5.532
  116TIP3    H2  294   2.189   2.058   5.580
  117TIP3   OH2  295   6.294   5.508   4.051
  117TIP3    H1  296   6.253   5.585   4.091
  117TIP3    H2  297   6.382   5.506   4.090
  118TIP3   OH2  298   7.879   4.011   6.684
  118TIP3    H1  299   7.941   3.944   6.713
  118TIP3    H2  300   7.892   4.084   6.744
  119TIP3   OH2  301   7.750   6.548   1.505
  119TIP3    H1  302   7.677   6.528   1.564
  119TIP3    H2  303   7.798   6.465   1.498
  120TIP3   OH2  304   4.106   2.463   1.473
  120TIP3    H1  305   4.050   2.447   1.397
  120TIP3    H2  306   4.094   2.386   1.529
  121TIP3   OH2  307   1.616   2.126   5.858
  121TIP3    H1  308   1.552   2.157   5.923
  121TIP3    H2  309   1.698   2.167   5.885
  122TIP3   OH2  310   5.217   6.513   6.166
  122TIP3    H1  311   5.195   6.452   6.095
  122TIP3    H2  312   5.133   6.549   6.194
  123TIP3   OH2  313   5.036   6.238   2.074
  123TIP3    H1  314   4.983   6.303   2.029
  123TIP3    H2  315   5.001   6.235   2.163
  124TIP3   OH2  316   0.114   6.674   4.170
  124TIP3    H1  317   0.144   6.699   4.083
  124TIP3    H2  318   0.144   6.744   4.227
  125TIP3   OH2  319   0.401   5.160   3.258
  125TIP3    H1  320   0.373   5.249   3.279
  125TIP3    H2  321   0.382   5.151   3.165
  126TIP3   OH2  322   2.333   1.161   1.412
  126TIP3    H1  323   2.387   1.184   1.337
  126TIP3    H2  324   2.252   1.209   1.399
  127TIP3   OH2  325   1.905   2.874   6.020
  127TIP3    H1  326   1.894   2.893   6.113
  127TIP3    H2  327   1.969   2.802   6.018
  128TIP3   OH2  328   5.584   6.938   6.050
  128TIP3    H1  329   5.643   6.938   6.125
  128TIP3    H2  330   5.504   6.898   6.082
  129TIP3   OH2  331   7.918   6.776   1.468
  129TIP3    H1  332   8.012   6.760   1.461
  129TIP3    H2  333   7.879   6.690   1.450
  130TIP3   OH2  334   5.878   7.591   2.646
  130TIP3    H1  335   5.878   7.541   2.564
  130TIP3    H2  336   5.874   7.682   2.618
  131TIP3   OH2  337   4.841   2.525   0.184
  131TIP3    H1  338   4.763   2.541   0.238
  131TIP3    H2  339   4.884   2.611   0.180
  132TIP3   OH2  340   3.126   4.736   5.118
  132TIP3    H1  341   3.187   4.672   5.154
  132TIP3    H2  342   3.056   4.741   5.184
  133TIP3   OH2  343   0.959   6.996   5.483
  133TIP3    H1  344   1.022   7.050   5.436
  133TIP3    H2  345   0.940   7.046   5.563
  134TIP3   OH2  346   2.671   0.407   3.769
  134TIP3    H1  347   2.718   0.487   3.745
  134TIP3    H2  348   2.636   0.373   3.687
  135TIP3   OH2  349   6.585   7.104   6.182
  135TIP3    H1  350   6.645   7.039   6.147
  135TIP3    H2  351   6.562   7.159   6.107
  136TIP3   OH2  352   1.300   3.287   1.526
  136TIP3    H1  353   1.224   3.231   1.510
  136TIP3    H2  354   1.322   3.323   1.440
  137TIP3   OH2  355   1.901   4.369   0.478
  137TIP3    H1  356   1.888   4.357   0.384
  137TIP3    H2  357   1.971   4.434   0.483
  138TIP3   OH2  358   1.338   3.615   6.235
  138TIP3    H1  359   1.323   3.546   6.170
  138TIP3    H2  360   1.253   3.629   6.275
  139TIP3   OH2  361   7.905   4.915   0.052
  139TIP3    H1  362   7.963   4.881   0.120
  139TIP3    H2  363   7.846   4.842   0.032
  140TIP3   OH2  364   3.613   0.378   0.813
  140TIP3    H1  365   3.558   0.447   0.775
  140TIP3    H2  366   3.692   0.424   0.843
  141TIP3   OH2  367   3.139   3.613   1.065
  141TIP3    H1  368   3.076   3.542   1.054
  141TIP3    H2  369   3.223   3.575   1.040
  142TIP3   OH2  370   4.928   4.981   2.895
  142TIP3    H1  371   4.846   4.932   2.893
  142TIP3    H2  372   4.983   4.936   2.831
  143TIP3   OH2  373   6.262   3.028   5.677
  143TIP3    H1  374   6.221   3.110   5.704
  143TIP3    H2  375   6.196   2.983   5.624
  144TIP3   OH2  376   1.035   6.522   1.737
  144TIP3    H1  377   1.108   6.548   1.682
  144TIP3    H2  378   1.013   6.601   1.786
  145TIP3   OH2  379   7.397   5.371   4.110
  145TIP3    H1  380   7.365   5.381   4.020
  145TIP3    H2  381   7.485   5.408   4.108
  146TIP3   OH2  382   5.819   3.899   2.099
  146TIP3    H1  383   5.848   3.906   2.008
  146TIP3    H2  384   5.741   3.844   2.096
  147TIP3   OH2  385   1.074   2.758   2.964
  147TIP3    H1  386   1.087   2.831   2.904
  147TIP3    H2  387   1.026   2.693   2.914
  148TIP3   OH2  388   7.474   3.086   3.117
  148TIP3    H1  389   7.465   2.991   3.122
  148TIP3    H2  390   7.456   3.117   3.206
  149TIP3   OH2  391   6.697   2.515   6.298
  149TIP3    H1  392   6.786   2.537   6.269
  149TIP3    H2  393   6.706   2.499   6.392
  150TIP3   OH2  394   5.551   6.543   2.492
  150TIP3    H1  395   5.604   6.560   2.570
  150TIP3    H2  396   5.466   6.514   2.526
  151TIP3   OH2  397   0.388   4.702   4.562
  151TIP3    H1  398   0.384   4.673   4.472
  151TIP3    H2  399   0.378   4.622   4.614
  152TIP3   OH2  400   2.315   6.473   6.035
  152TIP3    H1  401   2.255   6.548   6.044
  152TIP3    H2  402   2.378   6.484   6.106
  153TIP3   OH2  403   5.946   5.762   2.952
  153TIP3    H1  404   5.886   5.792   3.020
  153TIP3    H2  405   5.996   5.692   2.993
  154TIP3   OH2  406   4.800   6.933   4.200
  154TIP3    H1  407   4.881   6.894   4.167
  154TIP3    H2  408   4.807   6.923   4.295
  155TIP3   OH2  409   5.950   6.491   0.431
  155TIP3    H1  410   5.856   6.511   0.425
  155TIP3    H2  411   5.963   6.419   0.368
  156TIP3   OH2  412   1.619   5.056   3.287
  156TIP3    H1  413   1.601   4.997   3.360
  156TIP3    H2  414   1.714   5.069   3.290
  157TIP3   OH2  415   1.588   2.949   0.500
  157TIP3    H1  416   1.494   2.959   0.513
  157TIP3    H2  417   1.621   3.039   0.496
  158TIP3   OH2  418   2.840   1.025   0.802
  158TIP3    H1  419   2.926   1.054   0.833
  158TIP3    H2  420   2.850   0.931   0.789
  159TIP3   OH2  421   5.371   7.090   1.497
  159TIP3    H1  422   5.426   7.167   1.506
  159TIP3    H2  423   5.287   7.124   1.466
  160TIP3   OH2  424   3.914   3.722   1.230
  160TIP3    H1  425   3.946   3.632   1.230
  160TIP3    H2  426   3.982   3.771   1.184
  161TIP3   OH2  427   5.422   3.937   0.037
  161TIP3    H1  428   5.379   3.994  -0.027
  161TIP3    H2  429   5.514   3.965   0.036
  162TIP3   OH2  430   8.103   2.475   1.052
  162TIP3    H1  431   8.036   2.409   1.070
  162TIP3    H2  432   8.055   2.547   1.010
  163TIP3   OH2  433   0.755   1.595   3.077
  163TIP3    H1  434   0.820   1.525   3.088
  163TIP3    H2  435   0.671   1.553   3.095
  164TIP3   OH2  436   7.577   6.092   0.594
  164TIP3    H1  437   7.635   6.135   0.658
  164TIP3    H2  438   7.488   6.115   0.623
  165TIP3   OH2  439   5.277   3.077   4.859
  165TIP3    H1  440   5.229   2.996   4.845
  165TIP3    H2  441   5.337   3.082   4.784
  166TIP3   OH2  442   5.733   6.968   0.814
  166TIP3    H1  443   5.718   6.898   0.877
  166TIP3    H2  444   5.806   6.937   0.760
  167TIP3   OH2  445   7.280   2.715   5.543
  167TIP3    H1  446   7.212   2.677   5.488
  167TIP3    H2  447   7.268   2.810   5.534
  168TIP3   OH2  448   7.362   4.086   1.055
  168TIP3    H1  449   7.420   4.010   1.046
  168TIP3    H2  450   7.288   4.066   0.998
  169TIP3   OH2  451   5.664   2.401   2.821
  169TIP3    H1  452   5.757   2.422   2.826
  169TIP3    H2  453   5.659   2.331   2.756
  170TIP3   OH2  454   4.203   0.367   0.069
  170TIP3    H1  455   4.291   0.336   0.093
  170TIP3    H2  456   4.172   0.303   0.005
  171TIP3   OH2  457   4.394   4.598   6.650
  171TIP3    H1  458   4.430   4.670   6.597
  171TIP3    H2  459   4.314   4.634   6.688
  172TIP3   OH2  460   5.324   1.945   2.621
  172TIP3    H1  461   5.231   1.955   2.601
  172TIP3    H2  462   5.368   1.975   2.542
  173TIP3   OH2  463   3.290   4.978   5.173
  173TIP3    H1  464   3.277   5.017   5.260
  173TIP3    H2  465   3.242   4.896   5.177
  174TIP3   OH2  466   6.990   4.439   4.397
  174TIP3    H1  467   6.900   4.427   4.426
  174TIP3    H2  468   7.008   4.364   4.341
  175TIP3   OH2  469   4.070   6.872   4.331
  175TIP3    H1  470   4.048   6.794   4.279
  175TIP3    H2  471   4.081   6.838   4.420
  176TIP3   OH2  472   3.994   4.036   4.630
  176TIP3    H1  473   4.042   4.028   4.547
  176TIP3    H2  474   3.911   3.991   4.613
  177TIP3   OH2  475   3.580   0.187   3.497
  177TIP3    H1  476   3.519   0.138   3.441
  177TIP3    H2  477   3.627   0.119   3.546
  178TIP3   OH2  478   7.078   0.602   2.765
  178TIP3    H1  479   7.094   0.694   2.747
  178TIP3    H2  480   7.077   0.560   2.679
  179TIP3   OH2  481   7.063   6.636   4.373
  179TIP3    H1  482   7.147   6.610   4.410
  179TIP3    H2  483   7.001   6.570   4.403
  180TIP3   OH2  484   0.893   0.929   4.608
  180TIP3    H1  485   0.869   1.017   4.579
  180TIP3    H2  486   0.905   0.938   4.703
  181TIP3   OH2  487   8.036   6.704   2.681
  181TIP3    H1  488   8.038   6.730   2.589
  181TIP3    H2  489   8.028   6.609   2.679
  182TIP3   OH2  490   7.851   6.421   0.813
  182TIP3    H1  491   7.945   6.437   0.824
  182TIP3    H2  492   7.811   6.507   0.812
  183TIP3   OH2  493   1.657   5.296   6.398
  183TIP3    H1  494   1.715   5.355   6.446
  183TIP3    H2  495   1.669   5.210   6.439
  184TIP3   OH2  496   7.919   7.341   1.653
  184TIP3    H1  497   7.929   7.253   1.617
  184TIP3    H2  498   7.853   7.330   1.722
  185TIP3   OH2  499   1.695   0.621   6.691
  185TIP3    H1  500   1.765   0.557   6.695
  185TIP3    H2  501   1.693   0.659   6.779
  186TIP3   OH2  502   4.010   7.662   5.777
  186TIP3    H1  503   4.013   7.666   5.681
  186TIP3    H2  504   4.036   7.750   5.806
  187TIP3   OH2  505   3.222   5.785   4.458
  187TIP3    H1  506   3.236   5.700   4.417
  187TIP3    H2  507   3.217   5.846   4.385
  188TIP3   OH2  508   3.523   3.642   5.543
  188TIP3    H1  509   3.499   3.552   5.521
  188TIP3    H2  510   3.502   3.651   5.636
  189TIP3   OH2  511   4.280   3.852   1.417
  189TIP3    H1  512   4.194   3.809   1.419
  189TIP3    H2  513   4.264   3.939   1.456
  190TIP3   OH2  514   3.453   6.087   1.239
  190TIP3    H1  515   3.494   6.066   1.155
  190TIP3    H2  516   3.396   6.161   1.220
  191TIP3   OH2  517   7.591   5.177   0.856
  191TIP3    H1  518   7.547   5.121   0.920
  191TIP3    H2  519   7.622   5.117   0.789
  192TIP3   OH2  520   4.858   5.670   6.581
  192TIP3    H1  521   4.824   5.632   6.500
  192TIP3    H2  522   4.878   5.761   6.558
  193TIP3   OH2  523   6.330   5.861   0.882
  193TIP3    H1  524   6.251   5.877   0.932
  193TIP3    H2  525   6.330   5.930   0.815
  194TIP3   OH2  526   6.366   3.655   3.066
  194TIP3    H1  527   6.336   3.714   3.136
  194TIP3    H2  528   6.461   3.666   3.065
  195TIP3   OH2  529   6.213   7.568   0.480
  195TIP3    H1  530   6.209   7.499   0.546
  195TIP3    H2  531   6.173   7.644   0.522
  196TIP3   OH2  532   4.035   6.414   6.339
  196TIP3    H1  533   4.093   6.357   6.391
  196TIP3    H2  534   4.094   6.457   6.277
  197TIP3   OH2  535   0.988   0.116   2.418
  197TIP3    H1  536   0.915   0.059   2.442
  197TIP3    H2  537   0.947   0.189   2.371
  198TIP3   OH2  538   7.027   6.254   2.991
  198TIP3    H1  539   7.076   6.180   3.025
  198TIP3    H2  540   7.081   6.290   2.921
  199TIP3   OH2  541   4.017   2.637   0.456
  199TIP3    H1  542   4.057   2.723   0.447
  199TIP3    H2  543   4.039   2.590   0.375
  200TIP3   OH2  544   4.007   3.821   4.143
  200TIP3    H1  545   4.040   3.777   4.064
  200TIP3    H2  546   4.045   3.772   4.215
  201TIP3   OH2  547   7.837   5.173   5.739
  201TIP3    H1  548   7.836   5.077   5.735
  201TIP3    H2  549   7.746   5.199   5.727
  202TIP3   OH2  550   2.167   0.537   4.820
  202TIP3    H1  551   2.171   0.451   4.778
  202TIP3    H2  552   2.182   0.599   4.748
  203TIP3   OH2  553   0.835   6.423   1.935
  203TIP3    H1  554   0.890   6.439   1.859
  203TIP3    H2  555   0.749   6.402   1.900
  204TIP3   OH2  556   4.308   4.470   3.592
  204TIP3    H1  557   4.374   4.538   3.604
  204TIP3    H2  558   4.229   4.507   3.632
  205TIP3   OH2  559   1.423   6.062   2.262
  205TIP3    H1  560   1.346   6.061   2.320
  205TIP3    H2  561   1.388   6.041   2.176
  206TIP3   OH2  562   4.199   4.979   5.854
  206TIP3    H1  563   4.218   5.069   5.826
  206TIP3    H2  564   4.162   4.988   5.941
  207TIP3   OH2  565   3.008   5.083   5.433
  207TIP3    H1  566   2.992   5.008   5.491
  207TIP3    H2  567   3.099   5.108   5.452
  208TIP3   OH2  568   7.500   1.800   3.239
  208TIP3    H1  569   7.512   1.872   3.301
  208TIP3    H2  570   7.576   1.744   3.253
  209TIP3   OH2  571   2.625   4.991   1.695
  209TIP3    H1  572   2.713   4.992   1.732
  209TIP3    H2  573   2.592   4.903   1.712
  210TIP3   OH2  574   7.226   2.974   4.599
  210TIP3    H1  575   7.192   2.886   4.584
  210TIP3    H2  576   7.163   3.013   4.660
  211TIP3   OH2  577   7.496   4.796   0.399
  211TIP3    H1  578   7.508   4.842   0.316
  211TIP3    H2  579   7.419   4.741   0.385
  212TIP3   OH2  580   0.839   7.120   1.218
  212TIP3    H1  581   0.801   7.036   1.243
  212TIP3    H2  582   0.932   7.112   1.240
  213TIP3   OH2  583   5.934   6.652   2.423
  213TIP3    H1  584   5.921   6.674   2.515
  213TIP3    H2  585   5.905   6.561   2.416
  214TIP3   OH2  586   1.994   6.343   0.499
  214TIP3    H1  587   2.059   6.278   0.472
  214TIP3    H2  588   2.024   6.372   0.585
  215TIP3   OH2  589   7.577   4.698   1.865
  215TIP3    H1  590   7.514   4.636   1.901
  215TIP3    H2  591   7.627   4.727   1.941
  216TIP3   OH2  592   1.656   3.921   3.626
  216TIP3    H1  593   1.750   3.932   3.609
  216TIP3    H2  594   1.651   3.899   3.718
  217TIP3   OH2  595   1.781   6.525   5.633
  217TIP3    H1  596   1.687   6.521   5.653
  217TIP3    H2  597   1.821   6.460   5.691
  218TIP3   OH2  598   8.086   2.463   3.197
  218TIP3    H1  599   8.134   2.504   3.269
  218TIP3    H2  600   8.143   2.392   3.167
  219TIP3   OH2  601   3.276   4.801   2.504
  219TIP3    H1  602   3.371   4.792   2.497
  219TIP3    H2  603   3.242   4.719   2.467
  220TIP3   OH2  604   2.512   4.727   1.500
  220TIP3    H1  605   2.497   4.636   1.473
  220TIP3    H2  606   2.578   4.721   1.569
  221TIP3   OH2  607   6.399   1.048   1.424
  221TIP3    H1  608   6.476   1.053   1.480
  221TIP3    H2  609   6.410   1.120   1.362
  222TIP3   OH2  610   2.312   0.527   5.212
  222TIP3    H1  611   2.363   0.507   5.133
  222TIP3    H2  612   2.264   0.607   5.190
  223TIP3   OH2  613   2.048   0.306   5.647
  223TIP3    H1  614   1.974   0.280   5.592
  223TIP3    H2  615   2.089   0.378   5.600
  224TIP3   OH2  616   6.567   1.002   0.589
  224TIP3    H1  617   6.562   1.082   0.642
  224TIP3    H2  618   6.614   1.028   0.510
  225TIP3   OH2  619   4.804   2.494   4.016
  225TIP3    H1  620   4.895   2.498   3.986
  225TIP3    H2  621   4.784   2.400   4.016
  226TIP3   OH2  622   1.908   7.158   4.836
  226TIP3    H1  623   1.906   7.097   4.910
  226TIP3    H2  624   1.991   7.206   4.847
  227TIP3   OH2  625   2.148   2.659   1.099
  227TIP3    H1  626   2.125   2.677   1.007
  227TIP3    H2  627   2.216   2.592   1.094
  228TIP3   OH2  628   0.552   7.339   3.964
  228TIP3    H1  629   0.540   7.398   4.039
  228TIP3    H2  630   0.508   7.258   3.990
  229TIP3   OH2  631   0.273   2.326   4.017
  229TIP3    H1  632   0.265   2.289   4.105
  229TIP3    H2  633   0.184   2.348   3.991
  230TIP3   OH2  634   7.030   3.317   2.227
  230TIP3    H1  635   6.958   3.334   2.287
  230TIP3    H2  636   7.021   3.225   2.204
  231TIP3   OH2  637   5.149   5.107   5.124
  231TIP3    H1  638   5.080   5.090   5.187
  231TIP3    H2  639   5.128   5.194   5.088
  232TIP3   OH2  640   3.071   3.933   2.167
  232TIP3    H1  641   3.121   3.892   2.096
  232TIP3    H2  642   2.992   3.879   2.176
  233TIP3   OH2  643   2.514   2.453   5.957
  233TIP3    H1  644   2.597   2.464   6.004
  233TIP3    H2  645   2.452   2.509   6.004
  234TIP3   OH2  646   3.770   0.742   4.622
  234TIP3    H1  647   3.810   0.771   4.540
  234TIP3    H2  648   3.677   0.733   4.601
  235TIP3   OH2  649   3.370   2.373   1.447
  235TIP3    H1  650   3.299   2.428   1.414
  235TIP3    H2  651   3.407   2.424   1.520
  236TIP3   OH2  652   4.811   2.861   3.780
  236TIP3    H1  653   4.785   2.943   3.739
  236TIP3    H2  654   4.906   2.868   3.790
  237TIP3   OH2  655   4.748   6.154   4.086
  237TIP3    H1  656   4.802   6.102   4.026
  237TIP3    H2  657   4.704   6.217   4.029
  238TIP3   OH2  658   2.461   4.957   3.383
  238TIP3    H1  659   2.390   4.907   3.424
  238TIP3    H2  660   2.484   5.023   3.448
  239TIP3   OH2  661   5.317   6.961   3.962
  239TIP3    H1  662   5.302   7.027   4.029
  239TIP3    H2  663   5.406   6.930   3.977
  240TIP3   OH2  664   2.324   2.909   5.859
  240TIP3    H1  665   2.385   2.875   5.794
  240TIP3    H2  666   2.255   2.843   5.865
  241TIP3   OH2  667   8.033   5.424   0.162
  241TIP3    H1  668   7.963   5.459   0.218
  241TIP3    H2  669   8.110   5.420   0.219
  242TIP3   OH2  670   4.059   7.765   3.540
  242TIP3    H1  671   3.967   7.737   3.538
  242TIP3    H2  672   4.055   7.860   3.535
  243TIP3   OH2  673   3.901   6.862   0.471
  243TIP3    H1  674   3.865   6.838   0.385
  243TIP3    H2  675   3.847   6.815   0.534
  244TIP3   OH2  676   2.567   2.237   1.347
  244TIP3    H1  677   2.602   2.325   1.330
  244TIP3    H2  678   2.631   2.197   1.406
  245TIP3   OH2  679   4.894   5.571   0.853
  245TIP3    H1  680   4.925   5.515   0.924
  245TIP3    H2  681   4.972   5.589   0.801
  246TIP3   OH2  682   5.506   6.296   4.483
  246TIP3    H1  683   5.482   6.232   4.415
  246TIP3    H2  684   5.497   6.381   4.440
  247TIP3   OH2  685   0.250   1.920   0.778
  247TIP3    H1  686   0.325   1.915   0.837
  247TIP3    H2  687   0.180   1.875   0.825
  248TIP3   OH2  688   2.634   1.890   3.229
  248TIP3    H1  689   2.623   1.983   3.208
  248TIP3    H2  690   2.567   1.846   3.177
  249TIP3   OH2  691   1.446   1.023   4.924
  249TIP3    H1  692   1.440   0.969   5.003
  249TIP3    H2  693   1.371   1.082   4.930
  250TIP3   OH2  694   3.422   1.652   6.605
  250TIP3    H1  695   3.357   1.687   6.667
  250TIP3    H2  696   3.399   1.693   6.522
  251TIP3   OH2  697   1.924   3.429   4.951
  251TIP3    H1  698   1.998   3.369   4.940
  251TIP3    H2  699   1.914   3.470   4.865
  252TIP3   OH2  700   8.054   4.425   2.684
  252TIP3    H1  701   8.009   4.348   2.720
  252TIP3    H2  702   7.987   4.494   2.686
  253TIP3   OH2  703   1.719   3.726   0.361
  253TIP3    H1  704   1.670   3.807   0.347
  253TIP3    H2  705   1.670   3.680   0.429
  254TIP3   OH2  706   3.271   3.512   5.271
  254TIP3    H1  707   3.360   3.484   5.250
  254TIP3    H2  708   3.215   3.460   5.214
  255TIP3   OH2  709   6.256   1.507   3.153
  255TIP3    H1  710   6.279   1.525   3.244
  255TIP3    H2  711   6.163   1.530   3.147
  256TIP3   OH2  712   5.911   4.818   3.036
  256TIP3    H1  713   5.908   4.724   3.054
  256TIP3    H2  714   5.822   4.848   3.052
  257TIP3   OH2  715   2.570   1.499   1.630
  257TIP3    H1  716   2.484   1.466   1.656
  257TIP3    H2  717   2.560   1.594   1.627
  258TIP3   OH2  718   8.058   7.191   6.269
  258TIP3    H1  719   8.116   7.237   6.331
  258TIP3    H2  720   8.024   7.261   6.214
  259TIP3   OH2  721   7.107   0.358   6.026
  259TIP3    H1  722   7.102   0.286   6.090
  259TIP3    H2  723   7.142   0.432   6.076
  260TIP3   OH2  724   6.279   5.452   1.002
  260TIP3    H1  725   6.217   5.474   1.072
  260TIP3    H2  726   6.250   5.504   0.927
  261TIP3   OH2  727   6.455   4.107   4.461
  261TIP3    H1  728   6.473   4.192   4.501
  261TIP3    H2  729   6.491   4.113   4.373
  262TIP3   OH2  730   3.517   3.980   0.767
  262TIP3    H1  731   3.502   3.955   0.858
  262TIP3    H2  732   3.595   3.931   0.741
  263TIP3   OH2  733   4.324   1.094   1.741
  263TIP3    H1  734   4.242   1.130   1.707
  263TIP3    H2  735   4.300   1.010   1.779
  264TIP3   OH2  736   6.058   5.903   0.964
  264TIP3    H1  737   5.988   5.898   0.899
  264TIP3    H2  738   6.052   5.821   1.012
  265TIP3   OH2  739   5.577   0.643   6.641
  265TIP3    H1  740   5.659   0.595   6.633
  265TIP3    H2  741   5.524   0.611   6.568
  266TIP3   OH2  742   4.358   5.079   1.136
  266TIP3    H1  743   4.314   5.068   1.052
  266TIP3    H2  744   4.421   5.150   1.122
  267TIP3   OH2  745   5.711   7.677   3.223
  267TIP3    H1  746   5.763   7.599   3.242
  267TIP3    H2  747   5.652   7.685   3.298
  268TIP3   OH2  748   6.385   2.944   4.654
  268TIP3    H1  749   6.441   2.866   4.654
  268TIP3    H2  750   6.443   3.015   4.682
  269TIP3   OH2  751   5.934   6.887   3.917
  269TIP3    H1  752   6.026   6.893   3.889
  269TIP3    H2  753   5.913   6.794   3.906
  270TIP3   OH2  754   7.266   3.159   3.628
  270TIP3    H1  755   7.226   3.154   3.542
  270TIP3    H2  756   7.313   3.243   3.627
  271TIP3   OH2  757   1.966   7.467   5.801
  271TIP3    H1  758   1.902   7.427   5.860
  271TIP3    H2  759   1.991   7.549   5.845
  272TIP3   OH2  760   6.036   0.199   6.479
  272TIP3    H1  761   6.012   0.273   6.423
  272TIP3    H2  762   6.114   0.229   6.525
  273TIP3   OH2  763   2.783   6.261   4.928
  273TIP3    H1  764   2.740   6.297   4.850
  273TIP3    H2  765   2.711   6.231   4.983
  274TIP3   OH2  766   8.113   1.950   4.817
  274TIP3    H1  767   8.101   1.971   4.724
  274TIP3    H2  768   8.078   1.861   4.825
  275TIP3   OH2  769   4.433   6.557   4.647
  275TIP3    H1  770   4.526   6.538   4.664
  275TIP3    H2  771   4.425   6.550   4.552
  276TIP3   OH2  772   4.267   5.974   3.619
  276TIP3    H1  773   4.321   5.898   3.640
  276TIP3    H2  774   4.327   6.048   3.621
  277TIP3   OH2  775   3.451   1.166   5.579
  277TIP3    H1  776   3.418   1.143   5.492
  277TIP3    H2  777   3.376   1.204   5.625
  278TIP3   OH2  778   7.782   7.299   1.903
  278TIP3    H1  779   7.866   7.344   1.905
  278TIP3    H2  780   7.772   7.262   1.990
  279TIP3   OH2  781   7.143   7.004   6.034
  279TIP3    H1  782   7.236   7.027   6.046
  279TIP3    H2  783   7.121   6.953   6.112
  280TIP3   OH2  784   3.482   6.054   3.679
  280TIP3    H1  785   3.566   6.081   3.717
  280TIP3    H2  786   3.425   6.039   3.753
  281TIP3   OH2  787   4.209   0.746   4.993
  281TIP3    H1  788   4.289   0.766   4.945
  281TIP3    H2  789   4.143   0.805   4.957
  282TIP3   OH2  790   0.464   0.752   1.053
  282TIP3    H1  791   0.556   0.738   1.076
  282TIP3    H2  792   0.467   0.800   0.971
  283TIP3   OH2  793   4.882   3.759   1.661
  283TIP3    H1  794   4.931   3.804   1.729
  283TIP3    H2  795   4.807   3.816   1.643
  284TIP3   OH2  796   2.296   1.144   5.652
  284TIP3    H1  797   2.335   1.188   5.577
  284TIP3    H2  798   2.368   1.135   5.714
  285TIP3   OH2  799   5.155   0.477   4.986
  285TIP3    H1  800   5.232   0.454   4.934
  285TIP3    H2  801   5.115   0.549   4.937
  286TIP3   OH2  802   2.446   2.386   4.121
  286TIP3    H1  803   2.480   2.397   4.032
  286TIP3    H2  804   2.523   2.362   4.173
  287TIP3   OH2  805   3.651   0.420   4.857
  287TIP3    H1  806   3.741   0.389   4.842
  287TIP3    H2  807   3.601   0.384   4.784
  288TIP3   OH2  808   5.646   6.430   1.191
  288TIP3    H1  809   5.664   6.389   1.275
  288TIP3    H2  810   5.732   6.455   1.158
  289TIP3   OH2  811   1.599   6.177   5.746
  289TIP3    H1  812   1.520   6.132   5.776
  289TIP3    H2  813   1.671   6.119   5.772
  290TIP3   OH2  814   8.023   2.646   3.026
  290TIP3    H1  815   8.017   2.725   3.080
  290TIP3    H2  816   8.080   2.587   3.076
  291TIP3   OH2  817   0.269   4.928   3.277
  291TIP3    H1  818   0.318   5.010   3.278
  291TIP3    H2  819   0.208   4.936   3.204
  292TIP3   OH2  820   6.084   7.810   0.269
  292TIP3    H1  821   6.113   7.723   0.241
  292TIP3    H2  822   6.013   7.792   0.332
  293TIP3   OH2  823   0.025   2.852   5.581
  293TIP3    H1  824  -0.043   2.861   5.514
  293TIP3    H2  825   0.072   2.935   5.579
  294TIP3   OH2  826   6.016   0.503   4.536
  294TIP3    H1  827   5.969   0.547   4.466
  294TIP3    H2  828   6.092   0.463   4.492
  295TIP3   OH2  829   2.651   5.584   3.370
  295TIP3    H1  830   2.688   5.664   3.333
  295TIP3    H2  831   2.628   5.607   3.460
  296TIP3   OH2  832   4.902   2.771   1.970
  296TIP3    H1  833   4.990   2.780   1.934
  296TIP3    H2  834   4.890   2.850   2.023
  297TIP3   OH2  835   7.134   6.647   0.614
  297TIP3    H1  836   7.046   6.660   0.648
  297TIP3    H2  837   7.158   6.731   0.576
  298TIP3   OH2  838   1.336   2.037   2.068
  298TIP3    H1  839   1.349   1.943   2.059
  298TIP3    H2  840   1.382   2.060   2.149
  299TIP3   OH2  841   7.905   4.866   4.005
  299TIP3    H1  842   7.995   4.893   4.022
  299TIP3    H2  843   7.851   4.936   4.042
  300TIP3   OH2  844   3.143   3.276   0.226
  300TIP3    H1  845   3.064   3.235   0.190
  300TIP3    H2  846   3.131   3.272   0.321
  301TIP3   OH2  847   4.218   0.177   0.561
  301TIP3    H1  848   4.178   0.247   0.509
  301TIP3    H2  849   4.311   0.180   0.538
  302TIP3   OH2  850   5.419   4.828   2.145
  302TIP3    H1  851   5.410   4.894   2.213
  302TIP3    H2  852   5.514   4.816   2.135
  303TIP3   OH2  853   4.407   3.273   3.891
  303TIP3    H1  854   4.414   3.280   3.796
  303TIP3    H2  855   4.330   3.218   3.906
  304TIP3   OH2  856   5.397   5.038   4.368
  304TIP3    H1  857   5.414   4.944   4.371
  304TIP3    H2  858   5.437   5.073   4.448
  305TIP3   OH2  859   1.107   5.270   3.786
  305TIP3    H1  860   1.201   5.277   3.803
  305TIP3    H2  861   1.072   5.230   3.866
  306TIP3   OH2  862   2.938   3.333   5.384
  306TIP3    H1  863   2.855   3.323   5.338
  306TIP3    H2  864   2.964   3.423   5.367
  307TIP3   OH2  865   2.354   6.215   6.275
  307TIP3    H1  866   2.393   6.199   6.189
  307TIP3    H2  867   2.382   6.304   6.298
  308TIP3   OH2  868   6.017   7.355   5.597
  308TIP3    H1  869   6.082   7.337   5.665
  308TIP3    H2  870   6.057   7.323   5.517
  309TIP3   OH2  871   2.885   5.204   4.511
  309TIP3    H1  872   2.790   5.195   4.514
  309TIP3    H2  873   2.900   5.289   4.469
  310TIP3   OH2  874   1.002   7.812   2.302
  310TIP3    H1  875   1.084   7.766   2.286
  310TIP3    H2  876   1.026   7.886   2.358
  311TIP3   OH2  877   2.799   1.814   0.638
  311TIP3    H1  878   2.759   1.854   0.715
  311TIP3    H2  879   2.725   1.777   0.590
  312TIP3   OH2  880   6.375   4.658   2.536
  312TIP3    H1  881   6.350   4.603   2.462
  312TIP3    H2  882   6.342   4.611   2.613
  313TIP3   OH2  883   2.997   1.484   2.239
  313TIP3    H1  884   3.068   1.540   2.207
  313TIP3    H2  885   3.042   1.406   2.271
  314TIP3   OH2  886   8.260   7.253   1.071
  314TIP3    H1  887   8.228   7.200   1.144
  314TIP3    H2  888   8.337   7.297   1.105
  315TIP3   OH2  889   7.276   5.886   5.350
  315TIP3    H1  890   7.262   5.872   5.256
  315TIP3    H2  891   7.190   5.869   5.389
  316TIP3   OH2  892   6.408   3.917   4.082
  316TIP3    H1  893   6.376   3.990   4.134
  316TIP3    H2  894   6.332   3.861   4.069
  317TIP3   OH2  895   1.361   6.074   6.289
  317TIP3    H1  896   1.308   6.100   6.365
  317TIP3    H2  897   1.299   6.028   6.232
  318TIP3   OH2  898   0.526   4.197   6.151
  318TIP3    H1  899   0.541   4.230   6.063
  318TIP3    H2  900   0.611   4.163   6.178
  319TIP3   OH2  901   7.213   1.193   5.151
  319TIP3    H1  902   7.160   1.130   5.200
  319TIP3    H2  903   7.150   1.239   5.095
  320TIP3   OH2  904   3.739   1.048   1.062
  320TIP3    H1  905   3.748   1.017   0.972
  320TIP3    H2  906   3.828   1.073   1.088
  321TIP3   OH2  907   5.390   0.643   3.687
  321TIP3    H1  908   5.309   0.592   3.688
  321TIP3    H2  909   5.362   0.732   3.665
  322TIP3   OH2  910   4.796   0.431   2.280
  322TIP3    H1  911   4.853   0.507   2.294
  322TIP3    H2  912   4.758   0.414   2.366
  323TIP3   OH2  913   5.614   0.930   1.411
  323TIP3    H1  914   5.557   0.948   1.336
  323TIP3    H2  915   5.699   0.911   1.372
  324TIP3   OH2  916   5.469   3.825   1.795
  324TIP3    H1  917   5.528   3.824   1.720
  324TIP3    H2  918   5.398   3.885   1.769
  325TIP3   OH2  919   6.390   0.918   5.242
  325TIP3    H1  920   6.339   0.880   5.313
  325TIP3    H2  921   6.327   0.973   5.194
  326TIP3   OH2  922   7.382   6.877   5.380
  326TIP3    H1  923   7.399   6.969   5.362
  326TIP3    H2  924   7.441   6.830   5.322
  327TIP3   OH2  925   0.145   0.560   0.535
  327TIP3    H1  926   0.189   0.579   0.618
  327TIP3    H2  927   0.121   0.646   0.500
  328TIP3   OH2  928   2.499   0.682   1.767
  328TIP3    H1  929   2.418   0.723   1.797
  328TIP3    H2  930   2.567   0.717   1.826
  329TIP3   OH2  931   6.758   7.485   5.613
  329TIP3    H1  932   6.688   7.550   5.602
  329TIP3    H2  933   6.837   7.536   5.624
  330TIP3   OH2  934   4.139   7.442   4.987
  330TIP3    H1  935   4.070   7.382   4.959
  330TIP3    H2  936   4.219   7.389   4.987
  331TIP3   OH2  937   1.040   5.383   3.090
  331TIP3    H1  938   0.973   5.423   3.146
  331TIP3    H2  939   1.096   5.335   3.151
  332TIP3   OH2  940   3.678   2.499   3.135
  332TIP3    H1  941   3.617   2.571   3.145
  332TIP3    H2  942   3.743   2.530   3.071
  333TIP3   OH2  943   5.819   1.646   3.652
  333TIP3    H1  944   5.807   1.737   3.680
  333TIP3    H2  945   5.734   1.620   3.617
  334TIP3   OH2  946   4.366   4.124   0.916
  334TIP3    H1  947   4.291   4.073   0.947
  334TIP3    H2  948   4.442   4.068   0.936
  335TIP3   OH2  949   2.326   3.781   5.109
  335TIP3    H1  950   2.244   3.769   5.060
  335TIP3    H2  951   2.362   3.864   5.076
  336TIP3   OH2  952   0.533   5.234   0.433
  336TIP3    H1  953   0.534   5.235   0.529
  336TIP3    H2  954   0.444   5.209   0.410
  337TIP3   OH2  955   1.823   7.400   3.400
  337TIP3    H1  956   1.813   7.472   3.338
  337TIP3    H2  957   1.791   7.323   3.353
  338TIP3   OH2  958   5.481   2.262   0.308
  338TIP3    H1  959   5.546   2.213   0.257
  338TIP3    H2  960   5.425   2.303   0.243
  339TIP3   OH2  961   6.545   2.737   4.637
  339TIP3    H1  962   6.555   2.676   4.564
  339TIP3    H2  963   6.574   2.689   4.714
  340TIP3   OH2  964   4.991   6.111   3.211
  340TIP3    H1  965   4.927   6.059   3.259
  340TIP3    H2  966   4.964   6.202   3.224
  341TIP3   OH2  967   6.274   4.752   0.672
  341TIP3    H1  968   6.347   4.766   0.733
  341TIP3    H2  969   6.259   4.838   0.633
  342TIP3   OH2  970   4.471   7.575   1.580
  342TIP3    H1  971   4.432   7.626   1.651
  342TIP3    H2  972   4.559   7.555   1.611
  343TIP3   OH2  973   6.796   7.476   6.692
  343TIP3    H1  974   6.798   7.403   6.753
  343TIP3    H2  975   6.836   7.549   6.739
  344TIP3   OH2  976   1.847   5.939   2.297
  344TIP3    H1  977   1.922   5.888   2.329
  344TIP3    H2  978   1.862   6.027   2.331
  345TIP3   OH2  979   7.181   2.169   0.097
  345TIP3    H1  980   7.108   2.197   0.041
  345TIP3    H2  981   7.177   2.073   0.093
  346TIP3   OH2  982   0.458   7.762   6.142
  346TIP3    H1  983   0.444   7.842   6.194
  346TIP3    H2  984   0.420   7.692   6.196
  347TIP3   OH2  985   2.010   3.782   4.683
  347TIP3    H1  986   2.093   3.816   4.719
  347TIP3    H2  987   2.026   3.775   4.589
  348TIP3   OH2  988   3.729   5.602   2.229
  348TIP3    H1  989   3.770   5.522   2.193
  348TIP3    H2  990   3.663   5.626   2.164
  349TIP3   OH2  991   5.253   1.795   3.470
  349TIP3    H1  992   5.183   1.736   3.443
  349TIP3    H2  993   5.299   1.748   3.540
  350TIP3   OH2  994   4.399   6.831   2.883
  350TIP3    H1  995   4.332   6.868   2.825
  350TIP3    H2  996   4.397   6.888   2.960
  351TIP3   OH2  997   6.188   7.296   2.956
  351TIP3    H1  998   6.209   7.287   2.863
  351TIP3    H2  999   6.148   7.383   2.964
  352TIP3   OH2 1000   1.995   2.670   2.407
  352TIP3    H1 1001   1.932   2.740   2.425
  352TIP3    H2 1002   1.951   2.612   2.345
  353TIP3   OH2 1003   6.945   4.571   5.288
  353TIP3    H1 1004   6.944   4.583   5.383
  353TIP3    H2 1005   6.936   4.476   5.277
  354TIP3   OH2 1006   7.875   2.514   4.888
  354TIP3    H1 1007   7.822   2.437   4.867
  354TIP3    H2 1008   7.864   2.526   4.982
  355TIP3   OH2 1009   8.148   6.840   3.984
  355TIP3    H1 1010   8.143   6.928   3.947
  355TIP3    H2 1011   8.114   6.783   3.914
  356TIP3   OH2 1012   0.530   0.410   1.369
  356TIP3    H1 1013   0.608   0.459   1.392
  356TIP3    H2 1014   0.560   0.342   1.309
  357TIP3   OH2 1015   0.459   5.963   1.228
  357TIP3    H1 1016   0.380   5.955   1.173
  357TIP3    H2 1017   0.448   5.895   1.294
  358TIP3   OH2 1018   2.926   7.765   0.164
  358TIP3    H1 1019   2.984   7.839   0.181
  358TIP3    H2 1020   2.840   7.805   0.153
  359TIP3   OH2 1021   4.342   7.635   3.104
  359TIP3    H1 1022   4.363   7.729   3.104
  359TIP3    H2 1023   4.386   7.601   3.026
  360TIP3   OH2 1024   4.371   0.571   2.993
  360TIP3    H1 1025   4.387   0.526   2.910
  360TIP3    H2 1026   4.444   0.632   3.002
  361TIP3   OH2 1027   2.774   4.483   2.550
  361TIP3    H1 1028   2.801   4.477   2.459
  361TIP3    H2 1029   2.689   4.528   2.547
  362TIP3   OH2 1030   2.712   4.307   1.724
  362TIP3    H1 1031   2.681   4.222   1.692
  362TIP3    H2 1032   2.770   4.286   1.796
  363TIP3   OH2 1033   3.187   0.557   1.686
  363TIP3    H1 1034   3.147   0.581   1.770
  363TIP3    H2 1035   3.194   0.639   1.638
  364TIP3   OH2 1036   5.384   4.150   3.019
  364TIP3    H1 1037   5.362   4.237   2.987
  364TIP3    H2 1038   5.392   4.159   3.113
  365TIP3   OH2 1039   6.961   6.542   3.714
  365TIP3    H1 1040   6.872   6.507   3.717
  365TIP3    H2 1041   7.013   6.480   3.767
  366TIP3   OH2 1042   4.613   0.428   4.290
  366TIP3    H1 1043   4.643   0.393   4.206
  366TIP3    H2 1044   4.536   0.374   4.312
  367TIP3   OH2 1045   3.200   6.229   5.593
  367TIP3    H1 1046   3.264   6.158   5.592
  367TIP3    H2 1047   3.242   6.300   5.543
  368TIP3   OH2 1048   8.216   2.310   0.682
  368TIP3    H1 1049   8.135   2.277   0.643
  368TIP3    H2 1050   8.211   2.405   0.670
  369TIP3   OH2 1051   0.360   3.931   0.404
  369TIP3    H1 1052   0.322   3.961   0.322
  369TIP3    H2 1053   0.289   3.940   0.468
  370TIP3   OH2 1054   0.270   5.196   4.216
  370TIP3    H1 1055   0.285   5.249   4.295
  370TIP3    H2 1056   0.358   5.172   4.186
  371TIP3   OH2 1057   7.835   3.449   2.969
  371TIP3    H1 1058   7.747   3.475   2.940
  371TIP3    H2 1059   7.857   3.372   2.917
  372TIP3   OH2 1060   2.086   0.782   4.070
  372TIP3    H1 1061   2.024   0.855   4.078
  372TIP3    H2 1062   2.045   0.712   4.121
  373TIP3   OH2 1063   7.435   4.941   0.158
  373TIP3    H1 1064   7.479   4.882   0.097
  373TIP3    H2 1065   7.351   4.960   0.115
  374TIP3   OH2 1066   4.860   3.821   5.660
  374TIP3    H1 1067   4.902   3.766   5.725
  374TIP3    H2 1068   4.796   3.872   5.709
  375TIP3   OH2 1069   5.108   1.214   6.489
  375TIP3    H1 1070   5.091   1.201   6.396
  375TIP3    H2 1071   5.051   1.150   6.532
  376TIP3   OH2 1072   0.589   2.276   4.711
  376TIP3    H1 1073   0.498   2.291   4.736
  376TIP3    H2 1074   0.589   2.289   4.616
  377TIP3   OH2 1075   2.061   6.663   2.639
  377TIP3    H1 1076   2.099   6.715   2.568
  377TIP3    H2 1077   2.132   6.656   2.704
  378TIP3   OH2 1078   3.318   1.025   1.333
  378TIP3    H1 1079   3.405   1.065   1.335
  378TIP3    H2 1080   3.260   1.097   1.307
  379TIP3   OH2 1081   0.327   1.572   2.231
  379TIP3    H1 1082   0.309   1.538   2.319
  379TIP3    H2 1083   0.242   1.598   2.197
  380TIP3   OH2 1084   1.219   7.761   4.734
  380TIP3    H1 1085   1.190   7.716   4.814
  380TIP3    H2 1086   1.311   7.781   4.751
  381TIP3   OH2 1087   0.520   4.625   5.006
  381TIP3    H1 1088   0.462   4.614   5.081
  381TIP3    H2 1089   0.464   4.661   4.937
  382TIP3   OH2 1090   6.161   3.607   2.903
  382TIP3    H1 1091   6.211   3.664   2.960
  382TIP3    H2 1092   6.184   3.636   2.814
  383TIP3   OH2 1093   3.006   3.466   6.093
  383TIP3    H1 1094   2.972   3.402   6.031
  383TIP3    H2 1095   2.933   3.527   6.107
  384TIP3   OH2 1096   5.957   5.023   4.551
  384TIP3    H1 1097   5.945   4.981   4.636
  384TIP3    H2 1098   5.908   4.969   4.490
  385TIP3   OH2 1099   7.401   0.070   6.060
  385TIP3    H1 1100   7.411   0.121   6.140
  385TIP3    H2 1101   7.480   0.090   6.009
  386TIP3   OH2 1102   4.319   3.160   0.960
  386TIP3    H1 1103   4.386   3.123   0.903
  386TIP3    H2 1104   4.334   3.121   1.046
  387TIP3   OH2 1105   7.856   0.683   1.669
  387TIP3    H1 1106   7.846   0.776   1.688
  387TIP3    H2 1107   7.827   0.639   1.748
  388TIP3   OH2 1108   5.672   4.998   3.621
  388TIP3    H1 1109   5.692   5.091   3.621
  388TIP3    H2 1110   5.621   4.984   3.700
  389TIP3   OH2 1111   5.958   5.435   1.052
  389TIP3    H1 1112   5.889   5.373   1.074
  389TIP3    H2 1113   5.943   5.457   0.960
  390TIP3   OH2 1114   8.028   5.790   5.244
  390TIP3    H1 1115   8.081   5.740   5.306
  390TIP3    H2 1116   8.062   5.765   5.158
  391TIP3   OH2 1117   3.869   2.751   5.829
  391TIP3    H1 1118   3.865   2.658   5.850
  391TIP3    H2 1119   3.815   2.761   5.750
  392TIP3   OH2 1120   1.254   2.529   1.759
  392TIP3    H1 1121   1.292   2.530   1.671
  392TIP3    H2 1122   1.319   2.484   1.812
  393TIP3   OH2 1123   3.365   1.614   3.894
  393TIP3    H1 1124   3.331   1.679   3.955
  393TIP3    H2 1125   3.333   1.530   3.928
  394TIP3   OH2 1126   1.814   0.004   5.171
  394TIP3    H1 1127   1.762   0.000   5.251
  394TIP3    H2 1128   1.841   0.096   5.165
  395TIP3   OH2 1129   3.578   4.813   1.252
  395TIP3    H1 1130   3.564   4.719   1.238
  395TIP3    H2 1131   3.671   4.827   1.235
  396TIP3   OH2 1132   8.004   0.664   2.855
  396TIP3    H1 1133   7.938   0.727   2.883
  396TIP3    H2 1134   8.004   0.596   2.923
  397TIP3   OH2 1135   2.595   6.320   4.262
  397TIP3    H1 1136   2.674   6.322   4.315
  397TIP3    H2 1137   2.554   6.236   4.282
  398TIP3   OH2 1138   6.623   1.181   4.208
  398TIP3    H1 1139   6.595   1.271   4.220
  398TIP3    H2 1140   6.545   1.128   4.225
  399TIP3   OH2 1141   1.641   6.294   1.539
  399TIP3    H1 1142   1.699   6.340   1.600
  399TIP3    H2 1143   1.683   6.305   1.454
  400TIP3   OH2 1144   6.645   5.464   2.116
  400TIP3    H1 1145   6.607   5.547   2.090
  400TIP3    H2 1146   6.604   5.443   2.200
  401TIP3   OH2 1147   7.878   7.665   5.100
  401TIP3    H1 1148   7.882   7.686   5.193
  401TIP3    H2 1149   7.792   7.697   5.072
  402TIP3   OH2 1150   3.097   0.740   0.047
  402TIP3    H1 1151   3.118   0.728   0.140
  402TIP3    H2 1152   3.012   0.785   0.048
  403TIP3   OH2 1153   0.148   6.119   3.860
  403TIP3    H1 1154   0.211   6.122   3.788
  403TIP3    H2 1155   0.113   6.031   3.857
  404TIP3   OH2 1156   4.823   4.284   4.377
  404TIP3    H1 1157   4.886   4.253   4.442
  404TIP3    H2 1158   4.744   4.305   4.428
  405TIP3   OH2 1159   0.822   6.226   1.461
  405TIP3    H1 1160   0.859   6.224   1.549
  405TIP3    H2 1161   0.872   6.159   1.413
  406TIP3   OH2 1162   5.497   3.256   3.630
  406TIP3    H1 1163   5.542   3.263   3.546
  406TIP3    H2 1164   5.559   3.211   3.687
  407TIP3   OH2 1165   5.160   6.536   4.981
  407TIP3    H1 1166   5.091   6.513   5.044
  407TIP3    H2 1167   5.213   6.457   4.973
  408TIP3   OH2 1168   3.498   1.739   2.278
  408TIP3    H1 1169   3.549   1.813   2.310
  408TIP3    H2 1170   3.501   1.747   2.183
  409TIP3   OH2 1171   3.778   6.693   5.803
  409TIP3    H1 1172   3.827   6.758   5.752
  409TIP3    H2 1173   3.781   6.614   5.749
  410TIP3   OH2 1174   5.624   1.387   2.993
  410TIP3    H1 1175   5.652   1.479   2.991
  410TIP3    H2 1176   5.535   1.388   2.958
  411TIP3   OH2 1177   5.635   3.511   1.524
  411TIP3    H1 1178   5.687   3.515   1.444
  411TIP3    H2 1179   5.545   3.501   1.494
  412TIP3   OH2 1180   3.544   7.474   6.555
  412TIP3    H1 1181   3.500   7.390   6.569
  412TIP3    H2 1182   3.473   7.537   6.543
  413TIP3   OH2 1183   4.930   0.155   2.562
  413TIP3    H1 1184   4.844   0.196   2.556
  413TIP3    H2 1185   4.973   0.200   2.635
  414TIP3   OH2 1186   3.300   4.772   0.698
  414TIP3    H1 1187   3.365   4.833   0.732
  414TIP3    H2 1188   3.246   4.826   0.640
  415TIP3   OH2 1189   2.625   2.112   6.327
  415TIP3    H1 1190   2.604   2.019   6.316
  415TIP3    H2 1191   2.570   2.157   6.264
  416TIP3   OH2 1192   4.542   1.661   4.407
  416TIP3    H1 1193   4.601   1.736   4.414
  416TIP3    H2 1194   4.487   1.681   4.331
  417TIP3   OH2 1195   3.410   0.327   0.209
  417TIP3    H1 1196   3.482   0.389   0.222
  417TIP3    H2 1197   3.418   0.266   0.282
  418TIP3   OH2 1198   7.126   2.591   2.942
  418TIP3    H1 1199   7.155   2.602   2.852
  418TIP3    H2 1200   7.205   2.607   2.995
  419TIP3   OH2 1201   7.124   7.298   2.170
  419TIP3    H1 1202   7.055   7.362   2.185
  419TIP3    H2 1203   7.187   7.342   2.114
  420TIP3   OH2 1204   6.666   2.934   1.254
  420TIP3    H1 1205   6.615   2.999   1.206
  420TIP3    H2 1206   6.756   2.966   1.249
  421TIP3   OH2 1207   8.270   1.711   0.687
  421TIP3    H1 1208   8.301   1.665   0.609
  421TIP3    H2 1209   8.292   1.803   0.671
  422TIP3   OH2 1210   6.594   4.664   1.321
  422TIP3    H1 1211   6.577   4.605   1.247
  422TIP3    H2 1212   6.671   4.713   1.295
  423TIP3   OH2 1213   3.015   3.635   0.586
  423TIP3    H1 1214   3.090   3.694   0.592
  423TIP3    H2 1215   3.049   3.557   0.543
  424TIP3   OH2 1216   6.981   6.248   6.024
  424TIP3    H1 1217   6.902   6.212   6.065
  424TIP3    H2 1218   6.951   6.326   5.978
  425TIP3   OH2 1219   7.977   4.545   6.235
  425TIP3    H1 1220   7.907   4.605   6.209
  425TIP3    H2 1221   8.003   4.501   6.153
  426TIP3   OH2 1222   5.920   3.837   3.062
  426TIP3    H1 1223   5.874   3.915   3.094
  426TIP3    H2 1224   5.956   3.797   3.141
  427TIP3   OH2 1225   1.525   7.024   6.447
  427TIP3    H1 1226   1.582   6.948   6.452
  427TIP3    H2 1227   1.449   7.001   6.501
  428TIP3   OH2 1228   1.956   6.828   4.957
  428TIP3    H1 1229   2.045   6.828   4.994
  428TIP3    H2 1230   1.900   6.857   5.029
  429TIP3   OH2 1231   6.672   7.728   1.489
  429TIP3    H1 1232   6.646   7.819   1.474
  429TIP3    H2 1233   6.659   7.685   1.405
  430TIP3   OH2 1234   0.913   4.355   2.284
  430TIP3    H1 1235   0.940   4.447   2.290
  430TIP3    H2 1236   0.994   4.305   2.295
  431TIP3   OH2 1237   0.033   6.342   0.004
  431TIP3    H1 1238   0.024   6.434  -0.022
  431TIP3    H2 1239  -0.004   6.339   0.092
  432TIP3   OH2 1240   5.287   6.305   5.034
  432TIP3    H1 1241   5.289   6.211   5.050
  432TIP3    H2 1242   5.347   6.319   4.961
  433TIP3   OH2 1243   1.764   3.587   6.065
  433TIP3    H1 1244   1.691   3.640   6.096
  433TIP3    H2 1245   1.776   3.521   6.133
  434TIP3   OH2 1246   4.768   1.898   6.168
  434TIP3    H1 1247   4.857   1.895   6.204
  434TIP3    H2 1248   4.718   1.949   6.232
  435TIP3   OH2 1249   0.949   1.421   4.901
  435TIP3    H1 1250   0.900   1.503   4.906
  435TIP3    H2 1251   0.926   1.374   4.982
  436TIP3   OH2 1252   2.842   6.282   4.116
  436TIP3    H1 1253   2.766   6.334   4.143
  436TIP3    H2 1254   2.917   6.325   4.156
  437TIP3   OH2 1255   0.170   5.086   6.336
  437TIP3    H1 1256   0.207   5.056   6.419
  437TIP3    H2 1257   0.197   5.019   6.273
  438TIP3   OH2 1258   5.714   3.690   0.238
  438TIP3    H1 1259   5.684   3.781   0.243
  438TIP3    H2 1260   5.809   3.697   0.231
  439TIP3   OH2 1261   5.933   0.449   3.992
  439TIP3    H1 1262   6.025   0.475   3.988
  439TIP3    H2 1263   5.897   0.501   4.065
  440TIP3   OH2 1264   7.862   6.864   5.604
  440TIP3    H1 1265   7.827   6.884   5.518
  440TIP3    H2 1266   7.798   6.901   5.665
  441TIP3   OH2 1267   4.064   0.935   4.865
  441TIP3    H1 1268   4.060   1.013   4.920
  441TIP3    H2 1269   4.048   0.967   4.776
  442TIP3   OH2 1270   8.063   7.713   0.070
  442TIP3    H1 1271   8.027   7.720   0.159
  442TIP3    H2 1272   7.989   7.732   0.013
  443TIP3   OH2 1273   2.272   1.851   5.708
  443TIP3    H1 1274   2.220   1.843   5.788
  443TIP3    H2 1275   2.227   1.795   5.644
  444TIP3   OH2 1276   6.324   6.571   2.667
  444TIP3    H1 1277   6.289   6.642   2.613
  444TIP3    H2 1278   6.248   6.517   2.687
  445TIP3   OH2 1279   3.488   6.799   1.441
  445TIP3    H1 1280   3.483   6.764   1.530
  445TIP3    H2 1281   3.431   6.742   1.390
  446TIP3   OH2 1282   5.732   1.474   5.253
  446TIP3    H1 1283   5.805   1.457   5.194
  446TIP3    H2 1284   5.654   1.469   5.198
  447TIP3   OH2 1285   2.854   7.075   0.818
  447TIP3    H1 1286   2.868   6.987   0.785
  447TIP3    H2 1287   2.922   7.087   0.884
  448TIP3   OH2 1288   1.877   3.073   0.676
  448TIP3    H1 1289   1.913   3.018   0.606
  448TIP3    H2 1290   1.858   3.011   0.747
  449TIP3   OH2 1291   7.897   1.946   3.919
  449TIP3    H1 1292   7.906   2.023   3.975
  449TIP3    H2 1293   7.966   1.887   3.948
  450TIP3   OH2 1294   5.638   6.139   5.150
  450TIP3    H1 1295   5.731   6.138   5.171
  450TIP3    H2 1296   5.622   6.226   5.114
  451TIP3   OH2 1297   5.759   1.932   3.695
  451TIP3    H1 1298   5.666   1.946   3.673
  451TIP3    H2 1299   5.783   2.009   3.747
  452TIP3   OH2 1300   1.421   5.867   0.772
  452TIP3    H1 1301   1.473   5.937   0.811
  452TIP3    H2 1302   1.431   5.879   0.678
  453TIP3   OH2 1303   2.929   7.281   5.459
  453TIP3    H1 1304   2.890   7.194   5.471
  453TIP3    H2 1305   2.907   7.305   5.369
  454TIP3   OH2 1306   2.239   6.530   0.398
  454TIP3    H1 1307   2.290   6.609   0.380
  454TIP3    H2 1308   2.170   6.560   0.458
  455TIP3   OH2 1309   1.692   7.736   4.753
  455TIP3    H1 1310   1.780   7.734   4.716
  455TIP3    H2 1311   1.700   7.692   4.837
  456TIP3   OH2 1312   2.614   6.093   5.818
  456TIP3    H1 1313   2.582   6.173   5.777
  456TIP3    H2 1314   2.701   6.116   5.850
  457TIP3   OH2 1315   3.816   0.072   3.227
  457TIP3    H1 1316   3.904   0.109   3.226
  457TIP3    H2 1317   3.822  -0.003   3.287
  458TIP3   OH2 1318   6.631   7.065   0.486
  458TIP3    H1 1319   6.600   6.988   0.439
  458TIP3    H2 1320   6.574   7.136   0.457
  459TIP3   OH2 1321   7.083   3.884   2.654
  459TIP3    H1 1322   7.101   3.957   2.714
  459TIP3    H2 1323   7.023   3.921   2.589
  460TIP3   OH2 1324   5.458   4.154   1.569
  460TIP3    H1 1325   5.402   4.231   1.571
  460TIP3    H2 1326   5.464   4.127   1.661
  461TIP3   OH2 1327   3.755   3.174   6.492
  461TIP3    H1 1328   3.811   3.105   6.527
  461TIP3    H2 1329   3.816   3.236   6.451
  462TIP3   OH2 1330   0.323   3.388   1.121
  462TIP3    H1 1331   0.361   3.450   1.059
  462TIP3    H2 1332   0.289   3.442   1.192
  463TIP3   OH2 1333   3.640   3.835   1.263
  463TIP3    H1 1334   3.647   3.930   1.275
  463TIP3    H2 1335   3.724   3.809   1.227
  464TIP3   OH2 1336   3.095   0.977   5.947
  464TIP3    H1 1337   3.147   1.052   5.976
  464TIP3    H2 1338   3.099   0.916   6.021
  465TIP3   OH2 1339   1.764   1.266   4.993
  465TIP3    H1 1340   1.857   1.276   4.972
  465TIP3    H2 1341   1.725   1.232   4.912
  466TIP3   OH2 1342   4.001   1.063   6.755
  466TIP3    H1 1343   3.999   1.053   6.660
  466TIP3    H2 1344   3.996   1.158   6.769
  467TIP3   OH2 1345   2.312   4.149   0.919
  467TIP3    H1 1346   2.239   4.119   0.863
  467TIP3    H2 1347   2.360   4.069   0.941
  468TIP3   OH2 1348   0.989   3.741   3.352
  468TIP3    H1 1349   0.920   3.700   3.300
  468TIP3    H2 1350   1.070   3.723   3.304
  469TIP3   OH2 1351   3.792   6.820   4.027
  469TIP3    H1 1352   3.789   6.831   4.122
  469TIP3    H2 1353   3.701   6.808   4.001
  470TIP3   OH2 1354   0.214   2.094   5.939
  470TIP3    H1 1355   0.214   2.097   6.035
  470TIP3    H2 1356   0.205   2.001   5.918
  471TIP3   OH2 1357   8.179   6.655   5.355
  471TIP3    H1 1358   8.130   6.577   5.331
  471TIP3    H2 1359   8.203   6.642   5.447
  472TIP3   OH2 1360   2.542   7.793   3.324
  472TIP3    H1 1361   2.565   7.809   3.232
  472TIP3    H2 1362   2.579   7.707   3.343
  473TIP3   OH2 1363   6.574   1.128   5.271
  473TIP3    H1 1364   6.507   1.196   5.257
  473TIP3    H2 1365   6.523   1.047   5.282
  474TIP3   OH2 1366   4.342   3.285   3.614
  474TIP3    H1 1367   4.277   3.334   3.563
  474TIP3    H2 1368   4.370   3.215   3.555
  475TIP3   OH2 1369   8.109   0.218   5.184
  475TIP3    H1 1370   8.202   0.237   5.173
  475TIP3    H2 1371   8.078   0.283   5.247
  476TIP3   OH2 1372   4.600   2.453   0.511
  476TIP3    H1 1373   4.678   2.507   0.525
  476TIP3    H2 1374   4.528   2.516   0.509
  477TIP3   OH2 1375   2.935   3.836   4.873
  477TIP3    H1 1376   2.905   3.839   4.782
  477TIP3    H2 1377   2.855   3.825   4.924
  478TIP3   OH2 1378   0.803   4.296   6.563
  478TIP3    H1 1379   0.871   4.275   6.498
  478TIP3    H2 1380   0.740   4.349   6.514
  479TIP3   OH2 1381   7.691   0.711   3.135
  479TIP3    H1 1382   7.676   0.797   3.174
  479TIP3    H2 1383   7.770   0.679   3.179
  480TIP3   OH2 1384   8.094   6.256   4.999
  480TIP3    H1 1385   8.134   6.343   5.007
  480TIP3    H2 1386   8.098   6.220   5.088
  481TIP3   OH2 1387   7.187   3.756   5.826
  481TIP3    H1 1388   7.252   3.690   5.850
  481TIP3    H2 1389   7.214   3.786   5.739
  482TIP3   OH2 1390   5.750   6.031   3.439
  482TIP3    H1 1391   5.749   5.942   3.474
  482TIP3    H2 1392   5.842   6.056   3.441
  483TIP3   OH2 1393   0.363   1.585   1.430
  483TIP3    H1 1394   0.446   1.603   1.475
  483TIP3    H2 1395   0.326   1.511   1.477
  484TIP3   OH2 1396   8.127   6.930   3.019
  484TIP3    H1 1397   8.109   6.993   3.089
  484TIP3    H2 1398   8.202   6.966   2.972
  485TIP3   OH2 1399   6.822   0.166   0.059
  485TIP3    H1 1400   6.857   0.078   0.044
  485TIP3    H2 1401   6.833   0.210  -0.025
  486TIP3   OH2 1402   1.107   4.404   1.431
  486TIP3    H1 1403   1.096   4.310   1.419
  486TIP3    H2 1404   1.201   4.418   1.429
  487TIP3   OH2 1405   2.963   2.164   0.788
  487TIP3    H1 1406   2.974   2.072   0.762
  487TIP3    H2 1407   3.001   2.214   0.717
  488TIP3   OH2 1408   6.329   5.169   3.511
  488TIP3    H1 1409   6.291   5.093   3.556
  488TIP3    H2 1410   6.255   5.210   3.467
  489TIP3   OH2 1411   1.306   7.407   4.623
  489TIP3    H1 1412   1.327   7.458   4.701
  489TIP3    H2 1413   1.311   7.316   4.652
  490TIP3   OH2 1414   1.807   7.139   5.233
  490TIP3    H1 1415   1.718   7.111   5.210
  490TIP3    H2 1416   1.844   7.066   5.282
  491TIP3   OH2 1417   0.424   3.502   3.645
  491TIP3    H1 1418   0.341   3.549   3.657
  491TIP3    H2 1419   0.471   3.515   3.727
  492TIP3   OH2 1420   0.515   2.369   2.860
  492TIP3    H1 1421   0.582   2.309   2.893
  492TIP3    H2 1422   0.480   2.411   2.938
  493TIP3   OH2 1423   4.039   7.655   6.170
  493TIP3    H1 1424   4.063   7.707   6.093
  493TIP3    H2 1425   4.013   7.570   6.134
  494TIP3   OH2 1426   6.727   4.011   3.168
  494TIP3    H1 1427   6.657   4.042   3.110
  494TIP3    H2 1428   6.692   4.021   3.256
  495TIP3   OH2 1429   2.121   4.824   3.312
  495TIP3    H1 1430   2.052   4.759   3.323
  495TIP3    H2 1431   2.156   4.807   3.224
  496TIP3   OH2 1432   2.766   4.581   2.168
  496TIP3    H1 1433   2.761   4.646   2.238
  496TIP3    H2 1434   2.822   4.512   2.203
  497TIP3   OH2 1435   1.225   3.760   1.368
  497TIP3    H1 1436   1.193   3.848   1.388
  497TIP3    H2 1437   1.307   3.752   1.416
  498TIP3   OH2 1438   1.068   1.627   6.332
  498TIP3    H1 1439   1.049   1.537   6.356
  498TIP3    H2 1440   1.132   1.657   6.396
  499TIP3   OH2 1441   2.637   0.507   0.853
  499TIP3    H1 1442   2.645   0.418   0.819
  499TIP3    H2 1443   2.555   0.508   0.902
  500TIP3   OH2 1444   4.739   3.616   2.910
  500TIP3    H1 1445   4.758   3.608   3.004
  500TIP3    H2 1446   4.824   3.608   2.867
  501TIP3   OH2 1447   1.810   2.505   5.484
  501TIP3    H1 1448   1.755   2.562   5.431
  501TIP3    H2 1449   1.895   2.505   5.440
  502TIP3   OH2 1450   6.610   5.970   4.667
  502TIP3    H1 1451   6.646   5.996   4.582
  502TIP3    H2 1452   6.685   5.939   4.717
  503TIP3   OH2 1453   2.391   4.743   4.511
  503TIP3    H1 1454   2.460   4.750   4.577
  503TIP3    H2 1455   2.310   4.746   4.561
  504TIP3   OH2 1456   2.192   5.075   1.638
  504TIP3    H1 1457   2.255   5.118   1.579
  504TIP3    H2 1458   2.219   4.983   1.639
  505TIP3   OH2 1459   7.838   7.639   2.762
  505TIP3    H1 1460   7.852   7.544   2.755
  505TIP3    H2 1461   7.811   7.666   2.675
  506TIP3   OH2 1462   2.464   6.658   6.538
  506TIP3    H1 1463   2.552   6.680   6.568
  506TIP3    H2 1464   2.412   6.654   6.618
  507TIP3   OH2 1465   1.831   5.309   3.855
  507TIP3    H1 1466   1.904   5.270   3.903
  507TIP3    H2 1467   1.761   5.244   3.860
  508TIP3   OH2 1468   4.595   3.891   3.952
  508TIP3    H1 1469   4.650   3.948   4.005
  508TIP3    H2 1470   4.563   3.825   4.013
  509TIP3   OH2 1471   4.357   2.522   0.260
  509TIP3    H1 1472   4.384   2.588   0.196
  509TIP3    H2 1473   4.377   2.561   0.345
  510TIP3   OH2 1474   3.714   2.774   0.310
  510TIP3    H1 1475   3.670   2.806   0.232
  510TIP3    H2 1476   3.807   2.788   0.293
  511TIP3   OH2 1477   7.189   4.843   4.632
  511TIP3    H1 1478   7.208   4.768   4.575
  511TIP3    H2 1479   7.210   4.920   4.579
  512TIP3   OH2 1480   3.132   6.321   1.348
  512TIP3    H1 1481   3.113   6.385   1.279
  512TIP3    H2 1482   3.126   6.236   1.304
  513TIP3   OH2 1483   0.463   1.591   4.612
  513TIP3    H1 1484   0.540   1.630   4.653
  513TIP3    H2 1485   0.498   1.530   4.547
  514TIP3   OH2 1486   4.917   6.328   0.313
  514TIP3    H1 1487   4.851   6.392   0.287
  514TIP3    H2 1488   4.976   6.377   0.372
  515TIP3   OH2 1489   7.873  -0.022   1.197
  515TIP3    H1 1490   7.811   0.051   1.204
  515TIP3    H2 1491   7.842  -0.072   1.121
  516TIP3   OH2 1492   4.960   4.773   6.048
  516TIP3    H1 1493   4.949   4.816   6.133
  516TIP3    H2 1494   4.975   4.844   5.987
  517TIP3   OH2 1495   4.597   2.207   0.368
  517TIP3    H1 1496   4.646   2.271   0.419
  517TIP3    H2 1497   4.536   2.259   0.315
  518TIP3   OH2 1498   5.882   6.141   4.397
  518TIP3    H1 1499   5.966   6.102   4.372
  518TIP3    H2 1500   5.905   6.224   4.439
  519TIP3   OH2 1501   3.693   0.071   5.259
  519TIP3    H1 1502   3.742   0.070   5.178
  519TIP3    H2 1503   3.680  -0.021   5.281
  520TIP3   OH2 1504   6.035   0.408   6.294
  520TIP3    H1 1505   6.093   0.472   6.252
  520TIP3    H2 1506   6.035   0.333   6.234
  521TIP3   OH2 1507   2.223   6.248   3.576
  521TIP3    H1 1508   2.311   6.284   3.586
  521TIP3    H2 1509   2.236   6.165   3.531
  522TIP3   OH2 1510   0.440   4.034   5.111
  522TIP3    H1 1511   0.371   3.972   5.085
  522TIP3    H2 1512   0.438   4.101   5.044
  523TIP3   OH2 1513   3.662   6.443   4.573
  523TIP3    H1 1514   3.727   6.380   4.542
  523TIP3    H2 1515   3.702   6.485   4.649
  524TIP3   OH2 1516   6.080   4.456   5.601
  524TIP3    H1 1517   6.024   4.416   5.534
  524TIP3    H2 1518   6.163   4.409   5.594
  525TIP3   OH2 1519   6.284   7.252   4.328
  525TIP3    H1 1520   6.219   7.182   4.322
  525TIP3    H2 1521   6.338   7.242   4.249
  526TIP3   OH2 1522   2.368   0.535   2.396
  526TIP3    H1 1523   2.396   0.508   2.483
  526TIP3    H2 1524   2.274   0.515   2.393
  527TIP3   OH2 1525   5.967   2.928   0.163
  527TIP3    H1 1526   5.946   2.971   0.080
  527TIP3    H2 1527   5.883   2.911   0.204
  528TIP3   OH2 1528   1.037   3.103   6.753
  528TIP3    H1 1529   0.987   3.036   6.708
  528TIP3    H2 1530   1.108   3.056   6.796
  529TIP3   OH2 1531   3.997   2.832   1.224
  529TIP3    H1 1532   4.012   2.741   1.198
  529TIP3    H2 1533   3.912   2.831   1.267
  530TIP3   OH2 1534   1.911   4.304   4.239
  530TIP3    H1 1535   1.912   4.326   4.332
  530TIP3    H2 1536   1.993   4.256   4.225
  531TIP3   OH2 1537   1.013   4.608   2.779
  531TIP3    H1 1538   0.949   4.669   2.814
  531TIP3    H2 1539   1.095   4.631   2.823
  532TIP3   OH2 1540   4.399   0.894   2.532
  532TIP3    H1 1541   4.416   0.827   2.597
  532TIP3    H2 1542   4.454   0.870   2.457
  533TIP3   OH2 1543   5.293   6.479   2.558
  533TIP3    H1 1544   5.283   6.397   2.606
  533TIP3    H2 1545   5.224   6.536   2.593
  534TIP3   OH2 1546   0.109   4.009   1.889
  534TIP3    H1 1547   0.089   4.072   1.957
  534TIP3    H2 1548   0.024   3.971   1.865
  535TIP3   OH2 1549   4.442   3.420   2.789
  535TIP3    H1 1550   4.534   3.411   2.764
  535TIP3    H2 1551   4.399   3.345   2.747
  536TIP3   OH2 1552   0.029   2.136   0.244
  536TIP3    H1 1553   0.087   2.094   0.308
  536TIP3    H2 1554   0.080   2.210   0.211
  537TIP3   OH2 1555   2.201   1.539   0.600
  537TIP3    H1 1556   2.279   1.486   0.615
  537TIP3    H2 1557   2.233   1.617   0.554
  538TIP3   OH2 1558   1.504   3.241   4.376
  538TIP3    H1 1559   1.442   3.172   4.397
  538TIP3    H2 1560   1.450   3.313   4.344
  539TIP3   OH2 1561   3.810   5.723   3.678
  539TIP3    H1 1562   3.879   5.787   3.662
  539TIP3    H2 1563   3.740   5.773   3.721
  540TIP3   OH2 1564   1.365   5.636   6.005
  540TIP3    H1 1565   1.284   5.688   5.996
  540TIP3    H2 1566   1.395   5.654   6.094
  541TIP3   OH2 1567   7.847   4.149   3.416
  541TIP3    H1 1568   7.783   4.100   3.364
  541TIP3    H2 1569   7.872   4.088   3.485
  542TIP3   OH2 1570   5.915   4.113   1.074
  542TIP3    H1 1571   5.882   4.195   1.039
  542TIP3    H2 1572   5.837   4.066   1.105
  543TIP3   OH2 1573   4.309   3.643   2.895
  543TIP3    H1 1574   4.213   3.642   2.890
  543TIP3    H2 1575   4.336   3.556   2.865
  544TIP3   OH2 1576   1.022   2.934   5.563
  544TIP3    H1 1577   1.010   2.880   5.485
  544TIP3    H2 1578   0.964   3.009   5.549
  545TIP3   OH2 1579   4.808   7.473   3.025
  545TIP3    H1 1580   4.767   7.560   3.028
  545TIP3    H2 1581   4.811   7.445   3.117
  546TIP3   OH2 1582   1.009   0.277   3.439
  546TIP3    H1 1583   1.043   0.264   3.527
  546TIP3    H2 1584   0.994   0.188   3.406
  547TIP3   OH2 1585   1.929   7.456   2.243
  547TIP3    H1 1586   1.910   7.384   2.303
  547TIP3    H2 1587   1.927   7.416   2.156
  548TIP3   OH2 1588   4.064   0.003   5.010
  548TIP3    H1 1589   4.127  -0.068   5.021
  548TIP3    H2 1590   4.032   0.022   5.098
  549TIP3   OH2 1591   3.746   5.076   4.953
  549TIP3    H1 1592   3.759   5.167   4.982
  549TIP3    H2 1593   3.789   5.023   5.020
  550TIP3   OH2 1594   6.731   1.048   5.064
  550TIP3    H1 1595   6.667   1.002   5.009
  550TIP3    H2 1596   6.679   1.079   5.138
  551TIP3   OH2 1597   8.273   1.912   4.297
  551TIP3    H1 1598   8.287   1.959   4.215
  551TIP3    H2 1599   8.270   1.820   4.272
  552TIP3   OH2 1600   0.562   2.828   0.678
  552TIP3    H1 1601   0.476   2.870   0.677
  552TIP3    H2 1602   0.559   2.764   0.607
  553TIP3   OH2 1603   5.897   6.539   6.774
  553TIP3    H1 1604   5.950   6.511   6.700
  553TIP3    H2 1605   5.952   6.524   6.851
  554TIP3   OH2 1606   3.297   7.627   5.749
  554TIP3    H1 1607   3.345   7.554   5.787
  554TIP3    H2 1608   3.233   7.586   5.691
  555TIP3   OH2 1609   2.590   0.965   3.139
  555TIP3    H1 1610   2.519   0.995   3.081
  555TIP3    H2 1611   2.649   1.040   3.145
  556TIP3   OH2 1612   3.285   0.539   3.996
  556TIP3    H1 1613   3.335   0.586   3.928
  556TIP3    H2 1614   3.211   0.597   4.015
  557TIP3   OH2 1615   5.934   1.325   2.764
  557TIP3    H1 1616   5.872   1.294   2.829
  557TIP3    H2 1617   6.020   1.313   2.805
  558TIP3   OH2 1618   5.528   1.615   0.505
  558TIP3    H1 1619   5.520   1.686   0.442
  558TIP3    H2 1620   5.517   1.535   0.453
  559TIP3   OH2 1621   4.256   7.709   0.853
  559TIP3    H1 1622   4.184   7.647   0.868
  559TIP3    H2 1623   4.244   7.738   0.763
  560TIP3   OH2 1624   3.996   7.322   2.572
  560TIP3    H1 1625   3.974   7.404   2.616
  560TIP3    H2 1626   4.001   7.345   2.479
  561TIP3   OH2 1627   4.831   6.670   3.652
  561TIP3    H1 1628   4.850   6.703   3.564
  561TIP3    H2 1629   4.895   6.601   3.666
  562TIP3   OH2 1630   7.516   1.464   5.649
  562TIP3    H1 1631   7.466   1.545   5.654
  562TIP3    H2 1632   7.489   1.414   5.725
  563TIP3   OH2 1633   6.684   4.517   1.876
  563TIP3    H1 1634   6.771   4.479   1.861
  563TIP3    H2 1635   6.626   4.466   1.819
  564TIP3   OH2 1636   7.435   1.274   0.630
  564TIP3    H1 1637   7.505   1.238   0.685
  564TIP3    H2 1638   7.372   1.311   0.692
  565TIP3   OH2 1639   7.760   1.329   5.922
  565TIP3    H1 1640   7.715   1.342   6.006
  565TIP3    H2 1641   7.723   1.247   5.888
  566TIP3   OH2 1642   5.098   4.317   1.335
  566TIP3    H1 1643   5.122   4.308   1.243
  566TIP3    H2 1644   5.120   4.408   1.357
  567TIP3   OH2 1645   4.271   5.360   3.020
  567TIP3    H1 1646   4.275   5.404   3.105
  567TIP3    H2 1647   4.354   5.312   3.014
  568TIP3   OH2 1648   4.967   7.165   5.122
  568TIP3    H1 1649   4.972   7.083   5.073
  568TIP3    H2 1650   5.027   7.224   5.076
  569TIP3   OH2 1651   4.887   3.322   2.793
  569TIP3    H1 1652   4.871   3.292   2.883
  569TIP3    H2 1653   4.924   3.410   2.804
  570TIP3   OH2 1654   2.995   0.737   3.287
  570TIP3    H1 1655   3.031   0.814   3.243
  570TIP3    H2 1656   2.902   0.757   3.299
  571TIP3   OH2 1657   3.481   3.611   1.108
  571TIP3    H1 1658   3.566   3.569   1.102
  571TIP3    H2 1659   3.443   3.602   1.021
  572TIP3   OH2 1660   7.303   2.649   4.516
  572TIP3    H1 1661   7.332   2.682   4.431
  572TIP3    H2 1662   7.209   2.669   4.518
  573TIP3   OH2 1663   6.386   1.790   2.092
  573TIP3    H1 1664   6.340   1.870   2.070
  573TIP3    H2 1665   6.324   1.740   2.146
  574TIP3   OH2 1666   0.114   3.363   0.688
  574TIP3    H1 1667   0.131   3.345   0.596
  574TIP3    H2 1668   0.117   3.459   0.695
  575TIP3   OH2 1669   4.727   6.210   0.889
  575TIP3    H1 1670   4.803   6.211   0.947
  575TIP3    H2 1671   4.660   6.162   0.936
  576TIP3   OH2 1672   7.557   6.544   0.159
  576TIP3    H1 1673   7.480   6.545   0.215
  576TIP3    H2 1674   7.567   6.452   0.134
  577TIP3   OH2 1675   5.023   6.924   2.414
  577TIP3    H1 1676   4.998   6.908   2.505
  577TIP3    H2 1677   4.984   7.008   2.392
  578TIP3   OH2 1678   7.722   2.539   1.729
  578TIP3    H1 1679   7.713   2.634   1.718
  578TIP3    H2 1680   7.733   2.505   1.640
  579TIP3   OH2 1681   7.355   5.292   0.730
  579TIP3    H1 1682   7.413   5.226   0.767
  579TIP3    H2 1683   7.276   5.244   0.706
  580TIP3   OH2 1684   3.665   3.376   2.473
  580TIP3    H1 1685   3.727   3.303   2.471
  580TIP3    H2 1686   3.579   3.334   2.485
  581TIP3   OH2 1687   0.856   4.314   3.643
  581TIP3    H1 1688   0.921   4.296   3.711
  581TIP3    H2 1689   0.772   4.296   3.683
  582TIP3   OH2 1690   0.624   5.098   5.285
  582TIP3    H1 1691   0.541   5.114   5.331
  582TIP3    H2 1692   0.681   5.059   5.351
  583TIP3   OH2 1693   6.843   6.636   6.237
  583TIP3    H1 1694   6.832   6.605   6.146
  583TIP3    H2 1695   6.801   6.568   6.290
  584TIP3   OH2 1696   2.734   7.254   0.366
  584TIP3    H1 1697   2.683   7.183   0.406
  584TIP3    H2 1698   2.820   7.216   0.351
  585TIP3   OH2 1699   2.838   1.596   5.496
  585TIP3    H1 1700   2.868   1.506   5.501
  585TIP3    H2 1701   2.876   1.630   5.416
  586TIP3   OH2 1702   0.003   5.428   6.082
  586TIP3    H1 1703   0.085   5.415   6.130
  586TIP3    H2 1704   0.027   5.418   5.990
  587TIP3   OH2 1705   0.120   2.926   5.996
  587TIP3    H1 1706   0.065   2.883   5.930
  587TIP3    H2 1707   0.077   3.010   6.011
  588TIP3   OH2 1708   4.380   0.262   5.474
  588TIP3    H1 1709   4.316   0.263   5.546
  588TIP3    H2 1710   4.383   0.352   5.443
  589TIP3   OH2 1711   0.068   2.990   4.373
  589TIP3    H1 1712   0.057   3.041   4.293
  589TIP3    H2 1713  -0.009   2.933   4.375
  590TIP3   OH2 1714   5.326   5.012   4.959
  590TIP3    H1 1715   5.406   5.066   4.955
  590TIP3    H2 1716   5.267   5.061   5.015
  591TIP3   OH2 1717   1.608   0.633   1.074
  591TIP3    H1 1718   1.582   0.545   1.100
  591TIP3    H2 1719   1.634   0.676   1.155
  592TIP3   OH2 1720   3.293   6.406   3.435
  592TIP3    H1 1721   3.276   6.347   3.362
  592TIP3    H2 1722   3.382   6.386   3.462
  593TIP3   OH2 1723   3.529   6.490   5.613
  593TIP3    H1 1724   3.506   6.543   5.538
  593TIP3    H2 1725   3.619   6.513   5.633
  594TIP3   OH2 1726   2.728   5.614   2.334
  594TIP3    H1 1727   2.762   5.683   2.278
  594TIP3    H2 1728   2.675   5.559   2.276
  595TIP3   OH2 1729   7.745   4.661   0.071
  595TIP3    H1 1730   7.747   4.601   0.145
  595TIP3    H2 1731   7.809   4.626   0.010
  596TIP3   OH2 1732   1.971   2.200   2.933
  596TIP3    H1 1733   1.986   2.227   2.842
  596TIP3    H2 1734   2.004   2.273   2.985
  597TIP3   OH2 1735   6.789   5.147   4.564
  597TIP3    H1 1736   6.879   5.128   4.588
  597TIP3    H2 1737   6.740   5.142   4.646
  598TIP3   OH2 1738   1.513   3.966   3.143
  598TIP3    H1 1739   1.458   4.043   3.131
  598TIP3    H2 1740   1.479   3.923   3.221
  599TIP3   OH2 1741   5.215   6.100   6.438
  599TIP3    H1 1742   5.171   6.017   6.424
  599TIP3    H2 1743   5.151   6.154   6.484
  600TIP3   OH2 1744   6.450   0.284   4.181
  600TIP3    H1 1745   6.397   0.313   4.255
  600TIP3    H2 1746   6.527   0.244   4.221
  601TIP3   OH2 1747   2.601   5.917   6.396
  601TIP3    H1 1748   2.563   5.999   6.428
  601TIP3    H2 1749   2.694   5.935   6.386
  602TIP3   OH2 1750   7.627   3.697   1.955
  602TIP3    H1 1751   7.642   3.791   1.957
  602TIP3    H2 1752   7.643   3.668   2.044
  603TIP3   OH2 1753   3.624   1.021   6.472
  603TIP3    H1 1754   3.577   0.990   6.549
  603TIP3    H2 1755   3.688   1.084   6.506
  604TIP3   OH2 1756   2.866   1.033   5.828
  604TIP3    H1 1757   2.957   1.003   5.828
  604TIP3    H2 1758   2.820   0.970   5.773
  605TIP3   OH2 1759   4.371   7.319   5.554
  605TIP3    H1 1760   4.465   7.319   5.570
  605TIP3    H2 1761   4.358   7.245   5.493
  606TIP3   OH2 1762   7.082   6.241   1.394
  606TIP3    H1 1763   7.010   6.283   1.441
  606TIP3    H2 1764   7.113   6.308   1.332
  607TIP3   OH2 1765   6.452   0.557   3.950
  607TIP3    H1 1766   6.462   0.650   3.967
  607TIP3    H2 1767   6.541   0.526   3.930
  608TIP3   OH2 1768   0.106   4.564   1.356
  608TIP3    H1 1769   0.178   4.508   1.384
  608TIP3    H2 1770   0.071   4.521   1.278
  609TIP3   OH2 1771   2.958   6.067   2.637
  609TIP3    H1 1772   2.935   6.158   2.617
  609TIP3    H2 1773   2.877   6.028   2.669
  610TIP3   OH2 1774   5.119   1.569   3.380
  610TIP3    H1 1775   5.075   1.487   3.402
  610TIP3    H2 1776   5.210   1.544   3.363
  611TIP3   OH2 1777   0.932   1.533   1.245
  611TIP3    H1 1778   0.902   1.501   1.160
  611TIP3    H2 1779   0.958   1.624   1.228
  612TIP3   OH2 1780   2.137   5.211   6.441
  612TIP3    H1 1781   2.076   5.268   6.488
  612TIP3    H2 1782   2.170   5.264   6.369
  613TIP3   OH2 1783   6.800   7.444   3.006
  613TIP3    H1 1784   6.846   7.422   3.087
  613TIP3    H2 1785   6.859   7.506   2.962
  614TIP3   OH2 1786   1.603   4.401   1.410
  614TIP3    H1 1787   1.624   4.428   1.320
  614TIP3    H2 1788   1.648   4.465   1.465
  615TIP3   OH2 1789   1.507   6.641   5.265
  615TIP3    H1 1790   1.463   6.560   5.238
  615TIP3    H2 1791   1.577   6.612   5.323
  616TIP3   OH2 1792   0.085   0.215   1.244
  616TIP3    H1 1793   0.070   0.221   1.150
  616TIP3    H2 1794   0.092   0.121   1.261
  617TIP3   OH2 1795   4.743   2.127   5.309
  617TIP3    H1 1796   4.672   2.190   5.325
  617TIP3    H2 1797   4.818   2.164   5.355
  618TIP3   OH2 1798   7.859   0.679   3.799
  618TIP3    H1 1799   7.868   0.687   3.894
  618TIP3    H2 1800   7.769   0.649   3.786
  619TIP3   OH2 1801   6.933   3.447   0.056
  619TIP3    H1 1802   6.958   3.535   0.027
  619TIP3    H2 1803   6.900   3.405  -0.023
  620TIP3   OH2 1804   5.585   4.610   2.614
  620TIP3    H1 1805   5.667   4.561   2.627
  620TIP3    H2 1806   5.576   4.663   2.693
  621TIP3   OH2 1807   5.177   6.645   4.259
  621TIP3    H1 1808   5.130   6.575   4.304
  621TIP3    H2 1809   5.110   6.689   4.206
  622TIP3   OH2 1810   0.599   6.342   1.808
  622TIP3    H1 1811   0.533   6.273   1.810
  622TIP3    H2 1812   0.595   6.377   1.719
  623TIP3   OH2 1813   7.047   7.027   6.364
  623TIP3    H1 1814   6.979   7.056   6.304
  623TIP3    H2 1815   7.072   6.940   6.332
  624TIP3   OH2 1816   6.872   3.808   1.401
  624TIP3    H1 1817   6.800   3.753   1.431
  624TIP3    H2 1818   6.900   3.856   1.479
  625TIP3   OH2 1819   4.687   5.825   3.069
  625TIP3    H1 1820   4.614   5.764   3.057
  625TIP3    H2 1821   4.733   5.825   2.985
  626TIP3   OH2 1822   3.702   3.594   2.303
  626TIP3    H1 1823   3.691   3.524   2.367
  626TIP3    H2 1824   3.651   3.566   2.227
  627TIP3   OH2 1825   5.044   6.927   3.691
  627TIP3    H1 1826   5.052   7.006   3.745
  627TIP3    H2 1827   4.950   6.920   3.673
  628TIP3   OH2 1828   6.448   3.354   1.001
  628TIP3    H1 1829   6.508   3.403   1.056
  628TIP3    H2 1830   6.363   3.364   1.044
  629TIP3   OH2 1831   2.984   7.008   3.297
  629TIP3    H1 1832   3.038   7.058   3.236
  629TIP3    H2 1833   2.895   7.040   3.284
  630TIP3   OH2 1834   3.914   1.556   2.786
  630TIP3    H1 1835   3.849   1.497   2.825
  630TIP3    H2 1836   3.899   1.548   2.692
  631TIP3   OH2 1837   1.016   1.063   2.620
  631TIP3    H1 1838   1.090   1.041   2.676
  631TIP3    H2 1839   1.036   1.151   2.587
  632TIP3   OH2 1840   3.410   0.631   3.761
  632TIP3    H1 1841   3.452   0.559   3.714
  632TIP3    H2 1842   3.479   0.697   3.771
  633TIP3   OH2 1843   3.180   7.277   6.371
  633TIP3    H1 1844   3.184   7.190   6.410
  633TIP3    H2 1845   3.210   7.336   6.441
  634TIP3   OH2 1846   0.647   5.390   4.835
  634TIP3    H1 1847   0.742   5.393   4.848
  634TIP3    H2 1848   0.610   5.392   4.924
  635TIP3   OH2 1849   5.597   6.829   3.959
  635TIP3    H1 1850   5.597   6.837   4.054
  635TIP3    H2 1851   5.590   6.734   3.943
  636TIP3   OH2 1852   2.637   5.987   0.439
  636TIP3    H1 1853   2.611   6.079   0.434
  636TIP3    H2 1854   2.554   5.938   0.442
  637TIP3   OH2 1855   8.018   4.752   1.772
  637TIP3    H1 1856   8.074   4.752   1.849
  637TIP3    H2 1857   8.065   4.700   1.707
  638TIP3   OH2 1858   4.768   5.617   5.445
  638TIP3    H1 1859   4.833   5.678   5.410
  638TIP3    H2 1860   4.819   5.542   5.475
  639TIP3   OH2 1861   7.361   0.107   1.561
  639TIP3    H1 1862   7.269   0.131   1.545
  639TIP3    H2 1863   7.392   0.172   1.623
  640TIP3   OH2 1864   0.007   0.192   3.148
  640TIP3    H1 1865  -0.029   0.172   3.234
  640TIP3    H2 1866   0.092   0.149   3.147
  641TIP3   OH2 1867   6.383   1.467   4.109
  641TIP3    H1 1868   6.346   1.548   4.144
  641TIP3    H2 1869   6.463   1.454   4.160
  642TIP3   OH2 1870   0.920   5.549   1.914
  642TIP3    H1 1871   0.877   5.628   1.947
  642TIP3    H2 1872   0.940   5.498   1.992
  643TIP3   OH2 1873   2.042   4.426   3.869
  643TIP3    H1 1874   2.117   4.426   3.928
  643TIP3    H2 1875   1.972   4.469   3.918
  644TIP3   OH2 1876   2.305   4.606   5.675
  644TIP3    H1 1877   2.227   4.612   5.619
  644TIP3    H2 1878   2.351   4.529   5.642
  645TIP3   OH2 1879   6.028   7.634   3.854
  645TIP3    H1 1880   5.935   7.636   3.832
  645TIP3    H2 1881   6.030   7.633   3.949
  646TIP3   OH2 1882   0.712   2.902   0.916
  646TIP3    H1 1883   0.664   2.978   0.948
  646TIP3    H2 1884   0.660   2.870   0.842
  647TIP3   OH2 1885   8.145   1.072   1.982
  647TIP3    H1 1886   8.072   1.016   1.955
  647TIP3    H2 1887   8.134   1.081   2.077
  648TIP3   OH2 1888   7.883   6.485   6.134
  648TIP3    H1 1889   7.833   6.565   6.150
  648TIP3    H2 1890   7.840   6.445   6.057
  649TIP3   OH2 1891   5.558   2.659   2.931
  649TIP3    H1 1892   5.489   2.619   2.985
  649TIP3    H2 1893   5.590   2.588   2.876
  650TIP3   OH2 1894   4.376   1.127   0.586
  650TIP3    H1 1895   4.387   1.220   0.565
  650TIP3    H2 1896   4.364   1.084   0.502
  651TIP3   OH2 1897   2.130   0.151   0.686
  651TIP3    H1 1898   2.225   0.150   0.674
  651TIP3    H2 1899   2.111   0.239   0.720
  652TIP3   OH2 1900   4.072   6.625   5.040
  652TIP3    H1 1901   4.011   6.570   4.992
  652TIP3    H2 1902   4.016   6.686   5.088
  653TIP3   OH2 1903   0.689   1.024   6.159
  653TIP3    H1 1904   0.645   0.949   6.119
  653TIP3    H2 1905   0.781   1.000   6.161
  654TIP3   OH2 1906   7.094   7.443   5.516
  654TIP3    H1 1907   7.179   7.401   5.501
  654TIP3    H2 1908   7.106   7.491   5.599
  655TIP3   OH2 1909   0.222   1.191   2.440
  655TIP3    H1 1910   0.183   1.231   2.518
  655TIP3    H2 1911   0.316   1.205   2.450
  656TIP3   OH2 1912   5.595   7.732   6.339
  656TIP3    H1 1913   5.523   7.767   6.391
  656TIP3    H2 1914   5.552   7.698   6.260
  657TIP3   OH2 1915   8.143   5.981   2.941
  657TIP3    H1 1916   8.117   5.894   2.970
  657TIP3    H2 1917   8.105   6.040   3.006
  658TIP3   OH2 1918   6.637   1.097   0.050
  658TIP3    H1 1919   6.629   1.167  -0.015
  658TIP3    H2 1920   6.558   1.045   0.038
  659TIP3   OH2 1921   7.561   3.838   2.359
  659TIP3    H1 1922   7.469   3.813   2.360
  659TIP3    H2 1923   7.604   3.770   2.308
  660TIP3   OH2 1924   7.244   6.708   6.590
  660TIP3    H1 1925   7.249   6.801   6.614
  660TIP3    H2 1926   7.150   6.694   6.573
  661TIP3   OH2 1927   5.522   3.260   4.128
  661TIP3    H1 1928   5.461   3.203   4.175
  661TIP3    H2 1929   5.540   3.214   4.046
  662TIP3   OH2 1930   0.828   2.600   3.518
  662TIP3    H1 1931   0.808   2.584   3.610
  662TIP3    H2 1932   0.803   2.519   3.474
  663TIP3   OH2 1933   1.043   2.720   3.389
  663TIP3    H1 1934   1.094   2.766   3.456
  663TIP3    H2 1935   0.984   2.663   3.439
  664TIP3   OH2 1936   2.081   5.016   3.746
  664TIP3    H1 1937   2.123   5.028   3.661
  664TIP3    H2 1938   1.995   4.978   3.725
  665TIP3   OH2 1939   1.044   6.630   5.801
  665TIP3    H1 1940   1.114   6.688   5.773
  665TIP3    H2 1941   0.972   6.646   5.740
  666TIP3   OH2 1942   3.627   7.379   5.659
  666TIP3    H1 1943   3.574   7.452   5.692
  666TIP3    H2 1944   3.622   7.313   5.728
  667TIP3   OH2 1945   0.880   1.534   0.972
  667TIP3    H1 1946   0.804   1.588   0.995
  667TIP3    H2 1947   0.895   1.552   0.879
  668TIP3   OH2 1948   5.653   7.359   0.180
  668TIP3    H1 1949   5.699   7.344   0.098
  668TIP3    H2 1950   5.604   7.278   0.194
  669TIP3   OH2 1951   3.423   1.335   2.444
  669TIP3    H1 1952   3.363   1.402   2.410
  669TIP3    H2 1953   3.421   1.265   2.379
  670TIP3   OH2 1954   4.008   1.263   4.432
  670TIP3    H1 1955   3.936   1.326   4.439
  670TIP3    H2 1956   4.082   1.315   4.401
  671TIP3   OH2 1957   2.373   0.320   0.702
  671TIP3    H1 1958   2.397   0.361   0.785
  671TIP3    H2 1959   2.457   0.295   0.663
  672TIP3   OH2 1960   3.967   3.760   2.483
  672TIP3    H1 1961   4.056   3.773   2.516
  672TIP3    H2 1962   3.914   3.749   2.561
  673TIP3   OH2 1963   6.333   6.100   2.988
  673TIP3    H1 1964   6.285   6.021   2.964
  673TIP3    H2 1965   6.268   6.156   3.031
  674TIP3   OH2 1966   5.376   1.011   1.976
  674TIP3    H1 1967   5.348   1.102   1.973
  674TIP3    H2 1968   5.347   0.974   1.893
  675TIP3   OH2 1969   7.859   3.368   1.681
  675TIP3    H1 1970   7.844   3.431   1.611
  675TIP3    H2 1971   7.772   3.351   1.718
  676TIP3   OH2 1972   1.890   0.949   4.168
  676TIP3    H1 1973   1.799   0.976   4.173
  676TIP3    H2 1974   1.935   1.002   4.232
  677TIP3   OH2 1975   6.851   6.148   4.127
  677TIP3    H1 1976   6.892   6.141   4.213
  677TIP3    H2 1977   6.767   6.189   4.143
  678TIP3   OH2 1978   5.892   3.596   2.887
  678TIP3    H1 1979   5.868   3.646   2.965
  678TIP3    H2 1980   5.983   3.570   2.901
  679TIP3   OH2 1981   3.047   3.018   1.568
  679TIP3    H1 1982   2.983   2.967   1.519
  679TIP3    H2 1983   3.075   2.961   1.639
  680TIP3   OH2 1984   6.045   4.813   1.687
  680TIP3    H1 1985   5.995   4.741   1.723
  680TIP3    H2 1986   6.049   4.878   1.757
  681TIP3   OH2 1987   0.619   4.870   0.901
  681TIP3    H1 1988   0.597   4.777   0.898
  681TIP3    H2 1989   0.581   4.906   0.821
  682TIP3   OH2 1990   6.691   0.526   2.039
  682TIP3    H1 1991   6.723   0.530   2.130
  682TIP3    H2 1992   6.647   0.442   2.033
  683TIP3   OH2 1993   3.147   5.363   4.365
  683TIP3    H1 1994   3.239   5.368   4.341
  683TIP3    H2 1995   3.105   5.431   4.314
  684TIP3   OH2 1996   3.937   6.925   5.612
  684TIP3    H1 1997   3.953   6.911   5.518
  684TIP3    H2 1998   4.024   6.932   5.650
  685TIP3   OH2 1999   3.098   3.260   4.352
  685TIP3    H1 2000   3.157   3.210   4.296
  685TIP3    H2 2001   3.137   3.255   4.439
  686TIP3   OH2 2002   3.240   4.514   0.101
  686TIP3    H1 2003   3.166   4.492   0.044
  686TIP3    H2 2004   3.219   4.602   0.134
  687TIP3   OH2 2005   4.116   6.058   5.293
  687TIP3    H1 2006   4.180   6.123   5.264
  687TIP3    H2 2007   4.053   6.053   5.221
  688TIP3   OH2 2008   4.117   6.886   2.106
  688TIP3    H1 2009   4.175   6.851   2.038
  688TIP3    H2 2010   4.163   6.964   2.138
  689TIP3   OH2 2011   5.058   3.999   1.227
  689TIP3    H1 2012   5.044   3.950   1.146
  689TIP3    H2 2013   5.149   4.028   1.222
  690TIP3   OH2 2014   0.069   0.639   5.344
  690TIP3    H1 2015   0.078   0.550   5.378
  690TIP3    H2 2016   0.047   0.692   5.421
  691TIP3   OH2 2017   7.256   3.865   5.590
  691TIP3    H1 2018   7.210   3.947   5.607
  691TIP3    H2 2019   7.208   3.825   5.517
  692TIP3   OH2 2020   4.767   5.938   1.599
  692TIP3    H1 2021   4.733   6.006   1.658
  692TIP3    H2 2022   4.690   5.906   1.553
  693TIP3   OH2 2023   5.001   4.167   6.607
  693TIP3    H1 2024   4.949   4.234   6.651
  693TIP3    H2 2025   5.082   4.212   6.583
  694TIP3   OH2 2026   8.006   6.647   6.540
  694TIP3    H1 2027   7.925   6.651   6.489
  694TIP3    H2 2028   8.047   6.732   6.526
  695TIP3   OH2 2029   1.207   1.554   5.570
  695TIP3    H1 2030   1.272   1.624   5.565
  695TIP3    H2 2031   1.222   1.502   5.491
  696TIP3   OH2 2032   3.868   4.977   5.197
  696TIP3    H1 2033   3.777   4.965   5.223
  696TIP3    H2 2034   3.910   5.017   5.273
  697TIP3   OH2 2035   1.694   5.691   3.149
  697TIP3    H1 2036   1.619   5.647   3.188
  697TIP3    H2 2037   1.760   5.622   3.138
  698TIP3   OH2 2038   0.080   5.578   2.980
  698TIP3    H1 2039   0.113   5.504   2.929
  698TIP3    H2 2040   0.015   5.541   3.039
  699TIP3   OH2 2041   7.587   6.620   1.040
  699TIP3    H1 2042   7.642   6.614   0.962
  699TIP3    H2 2043   7.605   6.707   1.076
  700TIP3   OH2 2044   4.948   1.064   1.300
  700TIP3    H1 2045   4.881   1.060   1.368
  700TIP3    H2 2046   4.941   0.981   1.254
  701TIP3   OH2 2047   0.170   7.267   6.358
  701TIP3    H1 2048   0.141   7.189   6.311
  701TIP3    H2 2049   0.265   7.260   6.359
  702TIP3   OH2 2050   2.335   6.088   5.941
  702TIP3    H1 2051   2.411   6.139   5.969
  702TIP3    H2 2052   2.355   6.060   5.852
  703TIP3   OH2 2053   7.926   1.143   3.477
  703TIP3    H1 2054   7.934   1.051   3.449
  703TIP3    H2 2055   7.838   1.149   3.514
  704TIP3   OH2 2056   1.382   2.240   0.304
  704TIP3    H1 2057   1.382   2.194   0.388
  704TIP3    H2 2058   1.440   2.188   0.248
  705TIP3   OH2 2059   7.623   3.986   6.553
  705TIP3    H1 2060   7.601   3.903   6.595
  705TIP3    H2 2061   7.712   4.006   6.583
  706TIP3   OH2 2062   4.308   1.079   2.733
  706TIP3    H1 2063   4.310   1.030   2.815
  706TIP3    H2 2064   4.331   1.015   2.666
  707TIP3   OH2 2065   4.749   3.013   5.969
  707TIP3    H1 2066   4.746   3.105   5.943
  707TIP3    H2 2067   4.838   3.000   6.002
  708TIP3   OH2 2068   7.393   2.220   4.915
  708TIP3    H1 2069   7.432   2.299   4.953
  708TIP3    H2 2070   7.467   2.168   4.885
  709TIP3   OH2 2071   7.072   3.600   2.115
  709TIP3    H1 2072   6.985   3.614   2.152
  709TIP3    H2 2073   7.095   3.511   2.142
  710TIP3   OH2 2074   5.459   4.343   3.692
  710TIP3    H1 2075   5.459   4.281   3.765
  710TIP3    H2 2076   5.371   4.339   3.656
  711TIP3   OH2 2077   8.244   6.860   6.034
  711TIP3    H1 2078   8.183   6.927   6.063
  711TIP3    H2 2079   8.214   6.780   6.077
  712TIP3   OH2 2080   0.582   0.709   4.417
  712TIP3    H1 2081   0.498   0.712   4.462
  712TIP3    H2 2082   0.621   0.626   4.445
  713TIP3   OH2 2083   7.307   1.780   2.297
  713TIP3    H1 2084   7.339   1.852   2.352
  713TIP3    H2 2085   7.365   1.707   2.318
  714TIP3   OH2 2086   0.492   6.647   3.801
  714TIP3    H1 2087   0.578   6.607   3.790
  714TIP3    H2 2088   0.446   6.591   3.863
  715TIP3   OH2 2089   5.672   2.571   0.208
  715TIP3    H1 2090   5.712   2.498   0.257
  715TIP3    H2 2091   5.664   2.538   0.119
  716TIP3   OH2 2092   1.261   2.482   1.458
  716TIP3    H1 2093   1.352   2.454   1.470
  716TIP3    H2 2094   1.210   2.403   1.474
  717TIP3   OH2 2095   3.149   6.734   3.179
  717TIP3    H1 2096   3.127   6.662   3.121
  717TIP3    H2 2097   3.186   6.801   3.122
  718TIP3   OH2 2098   0.846   6.053   3.019
  718TIP3    H1 2099   0.925   6.072   3.068
  718TIP3    H2 2100   0.776   6.054   3.084
  719TIP3   OH2 2101   4.340   2.665   3.498
  719TIP3    H1 2102   4.265   2.654   3.556
  719TIP3    H2 2103   4.413   2.689   3.556
  720TIP3   OH2 2104   1.983   3.343   3.796
  720TIP3    H1 2105   2.056   3.285   3.774
  720TIP3    H2 2106   2.017   3.397   3.868
  721TIP3   OH2 2107   6.066   7.634   1.550
  721TIP3    H1 2108   5.995   7.570   1.546
  721TIP3    H2 2109   6.040   7.694   1.620
  722TIP3   OH2 2110   1.133   2.862   2.051
  722TIP3    H1 2111   1.119   2.823   1.965
  722TIP3    H2 2112   1.063   2.826   2.106
  723TIP3   OH2 2113   5.126   5.797   0.294
  723TIP3    H1 2114   5.144   5.772   0.385
  723TIP3    H2 2115   5.128   5.892   0.295
  724TIP3   OH2 2116   7.558   3.243   2.935
  724TIP3    H1 2117   7.602   3.183   2.875
  724TIP3    H2 2118   7.507   3.186   2.993
  725TIP3   OH2 2119   3.420   0.815   1.137
  725TIP3    H1 2120   3.434   0.889   1.196
  725TIP3    H2 2121   3.327   0.796   1.144
  726TIP3   OH2 2122   4.453   0.737   6.699
  726TIP3    H1 2123   4.535   0.775   6.667
  726TIP3    H2 2124   4.410   0.808   6.745
  727TIP3   OH2 2125   7.798   4.268   2.765
  727TIP3    H1 2126   7.791   4.222   2.681
  727TIP3    H2 2127   7.760   4.355   2.748
  728TIP3   OH2 2128   1.993   7.272   1.330
  728TIP3    H1 2129   1.953   7.254   1.245
  728TIP3    H2 2130   2.026   7.361   1.323
  729TIP3   OH2 2131   3.362   4.502   5.893
  729TIP3    H1 2132   3.384   4.409   5.905
  729TIP3    H2 2133   3.282   4.514   5.943
  730TIP3   OH2 2134   1.831   6.720   2.386
  730TIP3    H1 2135   1.910   6.690   2.340
  730TIP3    H2 2136   1.864   6.777   2.456
  731TIP3   OH2 2137   3.974   0.545   2.893
  731TIP3    H1 2138   3.890   0.513   2.859
  731TIP3    H2 2139   3.973   0.520   2.986
  732TIP3   OH2 2140   6.411   0.067   5.043
  732TIP3    H1 2141   6.364  -0.008   5.080
  732TIP3    H2 2142   6.343   0.132   5.025
  733TIP3   OH2 2143   5.038   3.830   2.392
  733TIP3    H1 2144   5.132   3.815   2.407
  733TIP3    H2 2145   4.995   3.752   2.428
  734TIP3   OH2 2146   7.144   6.435   3.884
  734TIP3    H1 2147   7.162   6.341   3.882
  734TIP3    H2 2148   7.174   6.463   3.971
  735TIP3   OH2 2149   2.638   2.956   4.942
  735TIP3    H1 2150   2.659   2.863   4.927
  735TIP3    H2 2151   2.723   2.996   4.960
  736TIP3   OH2 2152   7.216   3.480   5.498
  736TIP3    H1 2153   7.297   3.454   5.541
  736TIP3    H2 2154   7.243   3.543   5.431
  737TIP3   OH2 2155   3.555   0.311   1.570
  737TIP3    H1 2156   3.540   0.230   1.522
  737TIP3    H2 2157   3.474   0.325   1.619
  738TIP3   OH2 2158   8.227   3.290   4.763
  738TIP3    H1 2159   8.250   3.217   4.821
  738TIP3    H2 2160   8.133   3.279   4.747
  739TIP3   OH2 2161   7.419   3.465   6.622
  739TIP3    H1 2162   7.409   3.370   6.611
  739TIP3    H2 2163   7.428   3.477   6.716
  740TIP3   OH2 2164   1.637   2.228   6.271
  740TIP3    H1 2165   1.675   2.305   6.312
  740TIP3    H2 2166   1.598   2.178   6.343
  741TIP3   OH2 2167   7.517   2.719   4.655
  741TIP3    H1 2168   7.439   2.673   4.622
  741TIP3    H2 2169   7.489   2.810   4.661
  742TIP3   OH2 2170   4.045   7.403   6.459
  742TIP3    H1 2171   4.073   7.394   6.368
  742TIP3    H2 2172   3.951   7.384   6.456
  743TIP3   OH2 2173   5.526   6.350   5.437
  743TIP3    H1 2174   5.444   6.320   5.398
  743TIP3    H2 2175   5.539   6.292   5.512
  744TIP3   OH2 2176   7.669   1.745   5.084
  744TIP3    H1 2177   7.763   1.764   5.074
  744TIP3    H2 2178   7.666   1.654   5.114
  745TIP3   OH2 2179   0.478   3.994   5.761
  745TIP3    H1 2180   0.391   3.954   5.758
  745TIP3    H2 2181   0.461   4.087   5.777
  746TIP3   OH2 2182   4.068   0.071   4.045
  746TIP3    H1 2183   4.003   0.140   4.032
  746TIP3    H2 2184   4.070   0.057   4.139
  747TIP3   OH2 2185   2.473   2.240   4.846
  747TIP3    H1 2186   2.531   2.176   4.888
  747TIP3    H2 2187   2.509   2.252   4.759
  748TIP3   OH2 2188   0.047   0.100   0.480
  748TIP3    H1 2189  -0.039   0.073   0.447
  748TIP3    H2 2190   0.102   0.105   0.402
  749TIP3   OH2 2191   7.707   7.684   0.655
  749TIP3    H1 2192   7.700   7.772   0.619
  749TIP3    H2 2193   7.620   7.646   0.644
  750TIP3   OH2 2194   1.786   5.044   5.833
  750TIP3    H1 2195   1.864   5.002   5.798
  750TIP3    H2 2196   1.793   5.032   5.927
  751TIP3   OH2 2197   7.920   3.965   0.126
  751TIP3    H1 2198   7.884   3.992   0.210
  751TIP3    H2 2199   7.853   3.910   0.087
  752TIP3   OH2 2200   5.444   3.910   2.375
  752TIP3    H1 2201   5.385   3.836   2.391
  752TIP3    H2 2202   5.482   3.892   2.289
  753TIP3   OH2 2203   3.264   2.027   1.275
  753TIP3    H1 2204   3.213   2.100   1.240
  753TIP3    H2 2205   3.230   1.950   1.230
  754TIP3   OH2 2206   7.102   3.687   0.785
  754TIP3    H1 2207   7.017   3.729   0.800
  754TIP3    H2 2208   7.163   3.759   0.771
  755TIP3   OH2 2209   7.949   0.147   1.759
  755TIP3    H1 2210   8.033   0.187   1.780
  755TIP3    H2 2211   7.886   0.220   1.764
  756TIP3   OH2 2212   0.169   7.196   5.951
  756TIP3    H1 2213   0.087   7.167   5.911
  756TIP3    H2 2214   0.173   7.290   5.934
  757TIP3   OH2 2215   4.711   4.330   1.832
  757TIP3    H1 2216   4.690   4.261   1.769
  757TIP3    H2 2217   4.686   4.412   1.788
  758TIP3   OH2 2218   7.190   1.424   3.332
  758TIP3    H1 2219   7.214   1.347   3.384
  758TIP3    H2 2220   7.267   1.442   3.278
  759TIP3   OH2 2221   0.342   5.674   5.492
  759TIP3    H1 2222   0.412   5.700   5.431
  759TIP3    H2 2223   0.268   5.653   5.436
  760TIP3   OH2 2224   6.573   6.677   6.610
  760TIP3    H1 2225   6.559   6.696   6.517
  760TIP3    H2 2226   6.552   6.584   6.618
  761TIP3   OH2 2227   4.068   0.115   3.748
  761TIP3    H1 2228   4.033   0.119   3.837
  761TIP3    H2 2229   4.158   0.147   3.756
  762TIP3   OH2 2230   8.184   2.390   2.720
  762TIP3    H1 2231   8.171   2.327   2.649
  762TIP3    H2 2232   8.111   2.452   2.710
  763TIP3   OH2 2233   7.145   0.176   3.718
  763TIP3    H1 2234   7.072   0.129   3.758
  763TIP3    H2 2235   7.180   0.230   3.789
  764TIP3   OH2 2236   1.218   4.294   2.122
  764TIP3    H1 2237   1.233   4.369   2.064
  764TIP3    H2 2238   1.171   4.231   2.068
  765TIP3   OH2 2239   0.527   3.110   5.324
  765TIP3    H1 2240   0.510   3.087   5.415
  765TIP3    H2 2241   0.613   3.151   5.325
  766TIP3   OH2 2242   0.508   3.677   6.476
  766TIP3    H1 2243   0.519   3.662   6.570
  766TIP3    H2 2244   0.589   3.721   6.450
  767TIP3   OH2 2245   3.259   0.305   6.030
  767TIP3    H1 2246   3.316   0.291   5.954
  767TIP3    H2 2247   3.198   0.372   6.001
  768TIP3   OH2 2248   8.161   3.991   2.207
  768TIP3    H1 2249   8.186   4.004   2.298
  768TIP3    H2 2250   8.071   4.024   2.201
  769TIP3   OH2 2251   1.655   2.655   6.598
  769TIP3    H1 2252   1.614   2.734   6.562
  769TIP3    H2 2253   1.749   2.669   6.584
  770TIP3   OH2 2254   3.540   2.908   2.923
  770TIP3    H1 2255   3.529   2.935   3.014
  770TIP3    H2 2256   3.634   2.909   2.909
  771TIP3   OH2 2257   8.016   5.785   0.737
  771TIP3    H1 2258   8.029   5.758   0.828
  771TIP3    H2 2259   7.935   5.741   0.711
  772TIP3   OH2 2260   2.717   1.576   5.747
  772TIP3    H1 2261   2.713   1.598   5.840
  772TIP3    H2 2262   2.686   1.485   5.743
  773TIP3   OH2 2263   2.926   5.181   5.180
  773TIP3    H1 2264   2.961   5.130   5.253
  773TIP3    H2 2265   2.943   5.272   5.204
  774TIP3   OH2 2266   3.351   6.310   0.572
  774TIP3    H1 2267   3.283   6.271   0.517
  774TIP3    H2 2268   3.365   6.246   0.642
  775TIP3   OH2 2269   4.742   6.790   5.300
  775TIP3    H1 2270   4.678   6.815   5.367
  775TIP3    H2 2271   4.717   6.702   5.274
  776TIP3   OH2 2272   6.998   4.299   5.257
  776TIP3    H1 2273   6.999   4.303   5.352
  776TIP3    H2 2274   7.064   4.233   5.235
  777TIP3   OH2 2275   3.360   0.099   3.349
  777TIP3    H1 2276   3.315   0.096   3.433
  777TIP3    H2 2277   3.349   0.010   3.314
  778TIP3   OH2 2278   4.362   6.927   6.022
  778TIP3    H1 2279   4.393   6.856   6.078
  778TIP3    H2 2280   4.436   6.947   5.965
  779TIP3   OH2 2281   7.698   2.393   5.444
  779TIP3    H1 2282   7.683   2.466   5.503
  779TIP3    H2 2283   7.667   2.316   5.492
  780TIP3   OH2 2284   5.972   0.398   2.991
  780TIP3    H1 2285   5.893   0.452   2.997
  780TIP3    H2 2286   6.041   0.460   2.966
  781TIP3   OH2 2287   0.221   0.772   5.140
  781TIP3    H1 2288   0.254   0.854   5.177
  781TIP3    H2 2289   0.156   0.741   5.203
  782TIP3   OH2 2290   2.520   0.507   1.410
  782TIP3    H1 2291   2.596   0.456   1.383
  782TIP3    H2 2292   2.552   0.597   1.418
  783TIP3   OH2 2293   2.756   0.400   1.275
  783TIP3    H1 2294   2.740   0.472   1.214
  783TIP3    H2 2295   2.851   0.401   1.289
  784TIP3   OH2 2296   4.449   4.310   4.935
  784TIP3    H1 2297   4.466   4.354   5.018
  784TIP3    H2 2298   4.461   4.377   4.869
  785TIP3   OH2 2299   1.872   2.497   2.225
  785TIP3    H1 2300   1.793   2.457   2.263
  785TIP3    H2 2301   1.868   2.474   2.133
  786TIP3   OH2 2302   6.381   2.346   0.884
  786TIP3    H1 2303   6.398   2.312   0.971
  786TIP3    H2 2304   6.290   2.323   0.866
  787TIP3   OH2 2305   7.546   3.510   2.978
  787TIP3    H1 2306   7.540   3.414   2.978
  787TIP3    H2 2307   7.456   3.540   2.966
  788TIP3   OH2 2308   4.218   3.077   3.878
  788TIP3    H1 2309   4.262   3.022   3.944
  788TIP3    H2 2310   4.135   3.101   3.918
  789TIP3   OH2 2311   2.109   7.114   0.529
  789TIP3    H1 2312   2.023   7.088   0.494
  789TIP3    H2 2313   2.093   7.198   0.570
  790TIP3   OH2 2314   4.691   5.152   4.977
  790TIP3    H1 2315   4.768   5.096   4.971
  790TIP3    H2 2316   4.624   5.106   4.926
  791TIP3   OH2 2317   2.209   6.664   1.714
  791TIP3    H1 2318   2.125   6.710   1.727
  791TIP3    H2 2319   2.251   6.711   1.642
  792TIP3   OH2 2320   4.933   2.628   4.544
  792TIP3    H1 2321   4.861   2.568   4.562
  792TIP3    H2 2322   4.938   2.683   4.622
  793TIP3   OH2 2323   5.590   1.026   2.430
  793TIP3    H1 2324   5.545   1.058   2.352
  793TIP3    H2 2325   5.571   1.092   2.498
  794TIP3   OH2 2326   4.964   1.941   0.277
  794TIP3    H1 2327   4.964   1.966   0.184
  794TIP3    H2 2328   4.924   1.854   0.279
  795TIP3   OH2 2329   4.692   5.599   4.745
  795TIP3    H1 2330   4.597   5.592   4.757
  795TIP3    H2 2331   4.703   5.680   4.695
  796TIP3   OH2 2332   3.127   2.456   2.169
  796TIP3    H1 2333   3.083   2.472   2.085
  796TIP3    H2 2334   3.186   2.383   2.152
  797TIP3   OH2 2335   3.377   3.788   2.390
  797TIP3    H1 2336   3.411   3.867   2.432
  797TIP3    H2 2337   3.418   3.716   2.438
  798TIP3   OH2 2338   1.035   0.991   6.458
  798TIP3    H1 2339   1.039   1.072   6.408
  798TIP3    H2 2340   1.122   0.984   6.498
  799TIP3   OH2 2341   4.625   4.815   0.689
  799TIP3    H1 2342   4.555   4.780   0.744
  799TIP3    H2 2343   4.615   4.770   0.605
  800TIP3   OH2 2344   5.525   4.200   6.286
  800TIP3    H1 2345   5.464   4.269   6.312
  800TIP3    H2 2346   5.612   4.239   6.299
  801TIP3   OH2 2347   8.046   7.764   0.740
  801TIP3    H1 2348   7.973   7.704   0.756
  801TIP3    H2 2349   8.098   7.760   0.820
  802TIP3   OH2 2350   6.814   3.464   5.097
  802TIP3    H1 2351   6.786   3.496   5.011
  802TIP3    H2 2352   6.764   3.516   5.159
  803TIP3   OH2 2353   2.393   4.171   0.520
  803TIP3    H1 2354   2.423   4.164   0.430
  803TIP3    H2 2355   2.373   4.264   0.532
  804TIP3   OH2 2356   0.125   3.846   6.214
  804TIP3    H1 2357   0.147   3.780   6.280
  804TIP3    H2 2358   0.199   3.844   6.153
  805TIP3   OH2 2359   3.341   3.503   0.550
  805TIP3    H1 2360   3.393   3.461   0.482
  805TIP3    H2 2361   3.352   3.597   0.534
  806TIP3   OH2 2362   3.904   2.613   6.304
  806TIP3    H1 2363   3.841   2.674   6.267
  806TIP3    H2 2364   3.893   2.622   6.398
  807TIP3   OH2 2365   4.368   4.815   2.916
  807TIP3    H1 2366   4.331   4.888   2.867
  807TIP3    H2 2367   4.294   4.756   2.930
  808TIP3   OH2 2368   7.688   3.213   0.493
  808TIP3    H1 2369   7.764   3.243   0.442
  808TIP3    H2 2370   7.651   3.142   0.440
  809TIP3   OH2 2371   3.804   5.378   2.112
  809TIP3    H1 2372   3.814   5.308   2.176
  809TIP3    H2 2373   3.750   5.339   2.043
  810TIP3   OH2 2374   5.550   5.364   3.288
  810TIP3    H1 2375   5.462   5.396   3.265
  810TIP3    H2 2376   5.608   5.436   3.265
  811TIP3   OH2 2377   7.381   0.969   3.723
  811TIP3    H1 2378   7.419   0.882   3.710
  811TIP3    H2 2379   7.454   1.024   3.750
  812TIP3   OH2 2380   5.078   1.360   1.166
  812TIP3    H1 2381   5.024   1.282   1.155
  812TIP3    H2 2382   5.015   1.433   1.160
  813TIP3   OH2 2383   1.441   3.041   2.484
  813TIP3    H1 2384   1.516   3.051   2.425
  813TIP3    H2 2385   1.377   3.105   2.453
  814TIP3   OH2 2386   4.270   5.718   0.304
  814TIP3    H1 2387   4.308   5.784   0.246
  814TIP3    H2 2388   4.213   5.666   0.248
  815TIP3   OH2 2389   3.172  -0.050   5.162
  815TIP3    H1 2390   3.205   0.030   5.121
  815TIP3    H2 2391   3.190  -0.038   5.255
  816TIP3   OH2 2392   4.088   4.198   2.881
  816TIP3    H1 2393   4.170   4.243   2.860
  816TIP3    H2 2394   4.055   4.242   2.959
  817TIP3   OH2 2395   3.057   5.094   6.188
  817TIP3    H1 2396   3.051   5.143   6.106
  817TIP3    H2 2397   2.980   5.121   6.237
  818TIP3   OH2 2398   5.975   3.090   2.547
  818TIP3    H1 2399   5.936   3.055   2.467
  818TIP3    H2 2400   5.924   3.169   2.565
  819TIP3   OH2 2401   6.235   4.427   0.253
  819TIP3    H1 2402   6.294   4.478   0.309
  819TIP3    H2 2403   6.151   4.473   0.260
  820TIP3   OH2 2404   6.365   6.648   4.277
  820TIP3    H1 2405   6.362   6.625   4.370
  820TIP3    H2 2406   6.454   6.625   4.250
  821TIP3   OH2 2407   4.037   0.014   2.416
  821TIP3    H1 2408   4.066   0.103   2.433
  821TIP3    H2 2409   4.084  -0.040   2.479
  822TIP3   OH2 2410   5.431   7.215   2.021
  822TIP3    H1 2411   5.415   7.173   1.937
  822TIP3    H2 2412   5.490   7.155   2.067
  823TIP3   OH2 2413   2.092   1.498   3.411
  823TIP3    H1 2414   2.002   1.494   3.442
  823TIP3    H2 2415   2.091   1.564   3.342
  824TIP3   OH2 2416   3.059  -0.015   4.524
  824TIP3    H1 2417   2.999   0.031   4.581
  824TIP3    H2 2418   3.045   0.023   4.437
  825TIP3   OH2 2419   4.196   1.995   4.086
  825TIP3    H1 2420   4.108   1.993   4.123
  825TIP3    H2 2421   4.248   2.041   4.152
  826TIP3   OH2 2422   7.523   1.813   1.132
  826TIP3    H1 2423   7.614   1.816   1.160
  826TIP3    H2 2424   7.522   1.864   1.051
  827TIP3   OH2 2425   2.948   6.734   3.360
  827TIP3    H1 2426   3.022   6.714   3.303
  827TIP3    H2 2427   2.920   6.822   3.333
  828TIP3   OH2 2428   2.356   5.912   0.454
  828TIP3    H1 2429   2.361   5.926   0.548
  828TIP3    H2 2430   2.402   5.830   0.438
  829TIP3   OH2 2431   4.700   4.872   5.271
  829TIP3    H1 2432   4.647   4.852   5.194
  829TIP3    H2 2433   4.637   4.879   5.343
  830TIP3   OH2 2434   2.400   7.788   1.423
  830TIP3    H1 2435   2.474   7.735   1.394
  830TIP3    H2 2436   2.439   7.874   1.443
  831TIP3   OH2 2437   6.574   7.662   4.503
  831TIP3    H1 2438   6.581   7.713   4.584
  831TIP3    H2 2439   6.558   7.572   4.533
  832TIP3   OH2 2440   1.233   1.029   2.788
  832TIP3    H1 2441   1.285   0.997   2.862
  832TIP3    H2 2442   1.278   1.108   2.759
  833TIP3   OH2 2443   1.865   2.865   1.218
  833TIP3    H1 2444   1.893   2.781   1.255
  833TIP3    H2 2445   1.770   2.857   1.208
  834TIP3   OH2 2446   4.430   6.102   2.822
  834TIP3    H1 2447   4.375   6.181   2.825
  834TIP3    H2 2448   4.446   6.088   2.729
  835TIP3   OH2 2449   7.494   0.888   5.388
  835TIP3    H1 2450   7.420   0.891   5.327
  835TIP3    H2 2451   7.569   0.913   5.334
  836TIP3   OH2 2452   1.207   2.389   3.464
  836TIP3    H1 2453   1.176   2.467   3.512
  836TIP3    H2 2454   1.300   2.406   3.449
  837TIP3   OH2 2455   3.421   4.798   6.139
  837TIP3    H1 2456   3.396   4.853   6.064
  837TIP3    H2 2457   3.422   4.858   6.213
  838TIP3   OH2 2458   7.654   0.710   0.444
  838TIP3    H1 2459   7.693   0.623   0.446
  838TIP3    H2 2460   7.591   0.707   0.373
  839TIP3   OH2 2461   4.169   2.545   1.889
  839TIP3    H1 2462   4.189   2.452   1.874
  839TIP3    H2 2463   4.251   2.590   1.871
  840TIP3   OH2 2464   6.610   1.482   5.183
  840TIP3    H1 2465   6.565   1.418   5.237
  840TIP3    H2 2466   6.540   1.528   5.136
  841TIP3   OH2 2467   6.726   2.193   5.717
  841TIP3    H1 2468   6.694   2.264   5.661
  841TIP3    H2 2469   6.653   2.174   5.776
  842TIP3   OH2 2470   4.625   5.156   1.514
  842TIP3    H1 2471   4.703   5.138   1.463
  842TIP3    H2 2472   4.600   5.072   1.552
  843TIP3   OH2 2473   0.925   1.253   0.960
  843TIP3    H1 2474   0.908   1.230   0.869
  843TIP3    H2 2475   0.929   1.349   0.961
  844TIP3   OH2 2476   1.203   5.167   4.384
  844TIP3    H1 2477   1.206   5.082   4.340
  844TIP3    H2 2478   1.194   5.145   4.477
  845TIP3   OH2 2479   4.168   1.965   3.629
  845TIP3    H1 2480   4.251   1.990   3.589
  845TIP3    H2 2481   4.161   1.870   3.614
  846TIP3   OH2 2482   0.762   6.579   2.156
  846TIP3    H1 2483   0.808   6.519   2.097
  846TIP3    H2 2484   0.706   6.631   2.099
  847TIP3   OH2 2485   7.937   5.216   2.801
  847TIP3    H1 2486   8.018   5.242   2.843
  847TIP3    H2 2487   7.949   5.123   2.781
  848TIP3   OH2 2488   1.766   7.558   4.969
  848TIP3    H1 2489   1.811   7.492   5.021
  848TIP3    H2 2490   1.801   7.642   5.000
  849TIP3   OH2 2491   0.699   1.378   5.376
  849TIP3    H1 2492   0.720   1.329   5.456
  849TIP3    H2 2493   0.652   1.316   5.321
  850TIP3   OH2 2494   3.728   5.250   0.781
  850TIP3    H1 2495   3.692   5.167   0.748
  850TIP3    H2 2496   3.818   5.251   0.746
  851TIP3   OH2 2497   7.654   3.081   1.072
  851TIP3    H1 2498   7.622   3.028   1.000
  851TIP3    H2 2499   7.720   3.137   1.034
  852TIP3   OH2 2500   3.307   5.689   0.309
  852TIP3    H1 2501   3.401   5.692   0.326
  852TIP3    H2 2502   3.276   5.615   0.363
  853TIP3   OH2 2503   8.036   4.278   1.350
  853TIP3    H1 2504   8.126   4.264   1.379
  853TIP3    H2 2505   8.041   4.345   1.282
  854TIP3   OH2 2506   2.967   0.389   5.420
  854TIP3    H1 2507   2.941   0.310   5.373
  854TIP3    H2 2508   3.055   0.409   5.388
  855TIP3   OH2 2509   0.104   3.694   4.380
  855TIP3    H1 2510   0.085   3.714   4.288
  855TIP3    H2 2511   0.085   3.601   4.389
  856TIP3   OH2 2512   7.037   5.155   4.688
  856TIP3    H1 2513   7.108   5.200   4.734
  856TIP3    H2 2514   7.078   5.123   4.607
  857TIP3   OH2 2515   1.553   0.847   3.789
  857TIP3    H1 2516   1.545   0.941   3.805
  857TIP3    H2 2517   1.513   0.833   3.703
  858TIP3   OH2 2518   8.074   2.338  -0.017
  858TIP3    H1 2519   8.038   2.384   0.059
  858TIP3    H2 2520   8.067   2.246   0.005
  859TIP3   OH2 2521   0.060   0.892   3.674
  859TIP3    H1 2522   0.095   0.803   3.669
  859TIP3    H2 2523   0.032   0.911   3.585
  860TIP3   OH2 2524   5.038   5.322   4.487
  860TIP3    H1 2525   4.975   5.267   4.533
  860TIP3    H2 2526   5.078   5.263   4.423
  861TIP3   OH2 2527   5.172   1.946   0.583
  861TIP3    H1 2528   5.117   2.016   0.547
  861TIP3    H2 2529   5.261   1.971   0.557
  862TIP3   OH2 2530   5.360   2.716   0.602
  862TIP3    H1 2531   5.386   2.657   0.530
  862TIP3    H2 2532   5.411   2.795   0.587
  863TIP3   OH2 2533   4.549   2.869   0.392
  863TIP3    H1 2534   4.633   2.906   0.419
  863TIP3    H2 2535   4.529   2.802   0.457
  864TIP3   OH2 2536   7.202   2.519   0.522
  864TIP3    H1 2537   7.296   2.506   0.509
  864TIP3    H2 2538   7.173   2.563   0.442
  865TIP3   OH2 2539   4.566   0.611   3.451
  865TIP3    H1 2540   4.579   0.691   3.502
  865TIP3    H2 2541   4.590   0.636   3.361
  866TIP3   OH2 2542   6.172  -0.011   4.668
  866TIP3    H1 2543   6.203   0.021   4.752
  866TIP3    H2 2544   6.191   0.061   4.607
  867TIP3   OH2 2545   8.328   1.869   3.279
  867TIP3    H1 2546   8.340   1.964   3.283
  867TIP3    H2 2547   8.282   1.848   3.360
  868TIP3   OH2 2548   6.608   6.644   5.777
  868TIP3    H1 2549   6.623   6.596   5.696
  868TIP3    H2 2550   6.521   6.615   5.806
  869TIP3   OH2 2551   1.390   2.207   4.492
  869TIP3    H1 2552   1.323   2.198   4.561
  869TIP3    H2 2553   1.454   2.139   4.512
  870TIP3   OH2 2554   7.161   0.692   0.271
  870TIP3    H1 2555   7.177   0.686   0.365
  870TIP3    H2 2556   7.246   0.718   0.234
  871TIP3   OH2 2557   3.255   0.641   3.386
  871TIP3    H1 2558   3.244   0.614   3.477
  871TIP3    H2 2559   3.167   0.634   3.348
  872TIP3   OH2 2560   2.827   1.535   4.357
  872TIP3    H1 2561   2.843   1.629   4.353
  872TIP3    H2 2562   2.877   1.498   4.284
  873TIP3   OH2 2563   5.693   2.836   0.217
  873TIP3    H1 2564   5.696   2.741   0.207
  873TIP3    H2 2565   5.645   2.849   0.299
  874TIP3   OH2 2566   3.229   4.775   6.702
  874TIP3    H1 2567   3.192   4.688   6.688
  874TIP3    H2 2568   3.312   4.774   6.654
  875TIP3   OH2 2569   4.172   6.869   2.561
  875TIP3    H1 2570   4.234   6.918   2.615
  875TIP3    H2 2571   4.093   6.923   2.561
  876TIP3   OH2 2572   3.499   7.077   3.727
  876TIP3    H1 2573   3.424   7.122   3.690
  876TIP3    H2 2574   3.468   6.988   3.745
  877TIP3   OH2 2575   1.373   2.907   5.235
  877TIP3    H1 2576   1.419   2.951   5.164
  877TIP3    H2 2577   1.361   2.975   5.302
  878TIP3   OH2 2578   3.917   1.517   4.617
  878TIP3    H1 2579   3.932   1.605   4.652
  878TIP3    H2 2580   3.910   1.529   4.523
  879TIP3   OH2 2581   8.212   4.919   5.121
  879TIP3    H1 2582   8.297   4.903   5.081
  879TIP3    H2 2583   8.155   4.851   5.083
  880TIP3   OH2 2584   4.375   5.238   1.596
  880TIP3    H1 2585   4.455   5.194   1.565
  880TIP3    H2 2586   4.348   5.185   1.671
  881TIP3   OH2 2587   3.513   0.019   2.183
  881TIP3    H1 2588   3.534   0.035   2.091
  881TIP3    H2 2589   3.591  -0.024   2.218
  882TIP3   OH2 2590   6.638   3.012   4.056
  882TIP3    H1 2591   6.555   3.017   4.009
  882TIP3    H2 2592   6.705   3.014   3.987
  883TIP3   OH2 2593   5.766   7.739   3.976
  883TIP3    H1 2594   5.671   7.740   3.986
  883TIP3    H2 2595   5.798   7.794   4.047
  884TIP3   OH2 2596   4.652   5.816   5.612
  884TIP3    H1 2597   4.710   5.872   5.663
  884TIP3    H2 2598   4.710   5.750   5.574
  885TIP3   OH2 2599   5.358   7.772   0.713
  885TIP3    H1 2600   5.377   7.719   0.791
  885TIP3    H2 2601   5.285   7.828   0.740
  886TIP3   OH2 2602   3.730   7.066   5.224
  886TIP3    H1 2603   3.768   7.154   5.224
  886TIP3    H2 2604   3.787   7.016   5.282
  887TIP3   OH2 2605   5.335   0.104   4.871
  887TIP3    H1 2606   5.322   0.157   4.793
  887TIP3    H2 2607   5.365   0.165   4.937
  888TIP3   OH2 2608   6.628   1.436   4.284
  888TIP3    H1 2609   6.686   1.506   4.252
  888TIP3    H2 2610   6.643   1.434   4.379
  889TIP3   OH2 2611   3.771   2.459   3.394
  889TIP3    H1 2612   3.858   2.494   3.375
  889TIP3    H2 2613   3.722   2.470   3.313
  890TIP3   OH2 2614   6.372   1.768   0.745
  890TIP3    H1 2615   6.286   1.790   0.779
  890TIP3    H2 2616   6.433   1.823   0.795
  891TIP3   OH2 2617   3.444   3.372   6.616
  891TIP3    H1 2618   3.351   3.392   6.624
  891TIP3    H2 2619   3.480   3.448   6.569
  892TIP3   OH2 2620   6.337   7.124   6.734
  892TIP3    H1 2621   6.329   7.099   6.642
  892TIP3    H2 2622   6.270   7.073   6.779
  893TIP3   OH2 2623   3.110   2.071   1.901
  893TIP3    H1 2624   3.055   2.126   1.845
  893TIP3    H2 2625   3.073   1.984   1.893
  894TIP3   OH2 2626   3.911   2.741   2.154
  894TIP3    H1 2627   3.819   2.721   2.173
  894TIP3    H2 2628   3.908   2.794   2.074
  895TIP3   OH2 2629   8.253   2.562   3.404
  895TIP3    H1 2630   8.336   2.610   3.403
  895TIP3    H2 2631   8.269   2.490   3.465
  896TIP3   OH2 2632   4.236   7.135   6.468
  896TIP3    H1 2633   4.285   7.069   6.418
  896TIP3    H2 2634   4.148   7.099   6.475
  897TIP3   OH2 2635   6.223  -0.018   0.730
  897TIP3    H1 2636   6.218  -0.079   0.804
  897TIP3    H2 2637   6.185   0.063   0.764
  898TIP3   OH2 2638   4.577   6.106   3.093
  898TIP3    H1 2639   4.631   6.027   3.088
  898TIP3    H2 2640   4.502   6.088   3.037
  899TIP3   OH2 2641   4.650   4.156   1.371
  899TIP3    H1 2642   4.564   4.156   1.330
  899TIP3    H2 2643   4.711   4.142   1.299
  900TIP3   OH2 2644   0.815   3.910   1.587
  900TIP3    H1 2645   0.792   3.920   1.680
  900TIP3    H2 2646   0.869   3.831   1.584
  901TIP3   OH2 2647   0.698   5.830   6.651
  901TIP3    H1 2648   0.634   5.891   6.612
  901TIP3    H2 2649   0.648   5.783   6.718
  902TIP3   OH2 2650   2.675   3.972   2.146
  902TIP3    H1 2651   2.588   3.994   2.112
  902TIP3    H2 2652   2.732   3.974   2.069
  903TIP3   OH2 2653   1.864   5.531   3.409
  903TIP3    H1 2654   1.916   5.604   3.441
  903TIP3    H2 2655   1.915   5.453   3.431
  904TIP3   OH2 2656   0.412   3.442   5.270
  904TIP3    H1 2657   0.376   3.515   5.320
  904TIP3    H2 2658   0.445   3.482   5.189
  905TIP3   OH2 2659   0.140   7.249   1.745
  905TIP3    H1 2660   0.192   7.309   1.798
  905TIP3    H2 2661   0.073   7.304   1.704
  906TIP3   OH2 2662   3.807   4.942   6.477
  906TIP3    H1 2663   3.770   4.961   6.392
  906TIP3    H2 2664   3.748   4.985   6.540
  907TIP3   OH2 2665   3.289   2.240   2.065
  907TIP3    H1 2666   3.366   2.216   2.013
  907TIP3    H2 2667   3.220   2.182   2.033
  908TIP3   OH2 2668   4.253   2.971   4.758
  908TIP3    H1 2669   4.320   2.907   4.736
  908TIP3    H2 2670   4.200   2.979   4.679
  909TIP3   OH2 2671   3.011   4.294   2.629
  909TIP3    H1 2672   2.970   4.351   2.564
  909TIP3    H2 2673   3.100   4.328   2.639
  910TIP3   OH2 2674   5.110   2.481   1.846
  910TIP3    H1 2675   5.113   2.506   1.939
  910TIP3    H2 2676   5.017   2.464   1.829
  911TIP3   OH2 2677   2.735   6.333   3.461
  911TIP3    H1 2678   2.681   6.283   3.523
  911TIP3    H2 2679   2.672   6.382   3.409
  912TIP3   OH2 2680   6.493   4.475   5.664
  912TIP3    H1 2681   6.422   4.411   5.663
  912TIP3    H2 2682   6.484   4.522   5.581
  913TIP3   OH2 2683   7.100   6.773   2.589
  913TIP3    H1 2684   7.159   6.761   2.663
  913TIP3    H2 2685   7.047   6.694   2.588
  914TIP3   OH2 2686   0.504   6.070   2.789
  914TIP3    H1 2687   0.516   6.117   2.706
  914TIP3    H2 2688   0.557   6.119   2.852
  915TIP3   OH2 2689   1.369   1.256   2.778
  915TIP3    H1 2690   1.312   1.327   2.807
  915TIP3    H2 2691   1.416   1.228   2.857
  916TIP3   OH2 2692   7.865   7.461   0.631
  916TIP3    H1 2693   7.896   7.485   0.718
  916TIP3    H2 2694   7.819   7.538   0.599
  917TIP3   OH2 2695   0.394   0.650   2.178
  917TIP3    H1 2696   0.355   0.602   2.251
  917TIP3    H2 2697   0.475   0.603   2.158
  918TIP3   OH2 2698   4.641   6.436   0.355
  918TIP3    H1 2699   4.692   6.391   0.422
  918TIP3    H2 2700   4.550   6.431   0.387
  919TIP3   OH2 2701   0.143   2.953   2.334
  919TIP3    H1 2702   0.053   2.931   2.356
  919TIP3    H2 2703   0.141   3.046   2.315
  920TIP3   OH2 2704   6.553   3.393   5.971
  920TIP3    H1 2705   6.569   3.395   5.877
  920TIP3    H2 2706   6.632   3.431   6.010
  921TIP3   OH2 2707   4.523   4.481   0.735
  921TIP3    H1 2708   4.451   4.446   0.787
  921TIP3    H2 2709   4.484   4.546   0.678
  922TIP3   OH2 2710   7.149   2.719   4.245
  922TIP3    H1 2711   7.234   2.674   4.248
  922TIP3    H2 2712   7.109   2.689   4.163
  923TIP3   OH2 2713   3.492   3.701   3.656
  923TIP3    H1 2714   3.437   3.770   3.693
  923TIP3    H2 2715   3.518   3.648   3.732
  924TIP3   OH2 2716   7.885   2.372   2.762
  924TIP3    H1 2717   7.900   2.466   2.753
  924TIP3    H2 2718   7.840   2.347   2.682
  925TIP3   OH2 2719   5.524   3.989   1.352
  925TIP3    H1 2720   5.510   4.059   1.415
  925TIP3    H2 2721   5.570   3.921   1.402
  926TIP3   OH2 2722   3.780   0.139   4.720
  926TIP3    H1 2723   3.823   0.219   4.750
  926TIP3    H2 2724   3.851   0.083   4.690
  927TIP3   OH2 2725   5.966   5.547   2.500
  927TIP3    H1 2726   5.958   5.600   2.580
  927TIP3    H2 2727   6.059   5.530   2.491
  928TIP3   OH2 2728   4.458   0.156   4.312
  928TIP3    H1 2729   4.370   0.187   4.292
  928TIP3    H2 2730   4.465   0.161   4.407
  929TIP3   OH2 2731   4.638   4.494   2.534
  929TIP3    H1 2732   4.726   4.514   2.501
  929TIP3    H2 2733   4.597   4.443   2.464
  930TIP3   OH2 2734   1.530   4.137   3.487
  930TIP3    H1 2735   1.570   4.066   3.538
  930TIP3    H2 2736   1.448   4.156   3.532
  931TIP3   OH2 2737   4.995   0.746   0.174
  931TIP3    H1 2738   4.901   0.740   0.188
  931TIP3    H2 2739   5.005   0.753   0.079
  932TIP3   OH2 2740   8.129   5.838   2.427
  932TIP3    H1 2741   8.037   5.848   2.449
  932TIP3    H2 2742   8.173   5.826   2.512
  933TIP3   OH2 2743   6.791   6.551   0.864
  933TIP3    H1 2744   6.856   6.616   0.838
  933TIP3    H2 2745   6.833   6.467   0.848
  934TIP3   OH2 2746   7.993   1.006   2.865
  934TIP3    H1 2747   7.994   1.016   2.770
  934TIP3    H2 2748   8.022   1.090   2.899
  935TIP3   OH2 2749   7.962   4.960   6.784
  935TIP3    H1 2750   7.936   4.899   6.714
  935TIP3    H2 2751   8.034   4.916   6.828
  936TIP3   OH2 2752   3.142   0.840   1.203
  936TIP3    H1 2753   3.057   0.883   1.196
  936TIP3    H2 2754   3.198   0.903   1.249
  937TIP3   OH2 2755   7.475   2.633   1.098
  937TIP3    H1 2756   7.431   2.653   1.181
  937TIP3    H2 2757   7.463   2.711   1.044
  938TIP3   OH2 2758   0.142   2.842   1.234
  938TIP3    H1 2759   0.229   2.820   1.269
  938TIP3    H2 2760   0.133   2.787   1.156
  939TIP3   OH2 2761   5.480   7.574   5.939
  939TIP3    H1 2762   5.498   7.513   6.011
  939TIP3    H2 2763   5.493   7.661   5.977
  940TIP3   OH2 2764   3.337   5.010   1.659
  940TIP3    H1 2765   3.279   4.937   1.680
  940TIP3    H2 2766   3.407   5.005   1.723
  941TIP3   OH2 2767   5.121   2.888   2.914
  941TIP3    H1 2768   5.114   2.895   2.819
  941TIP3    H2 2769   5.138   2.977   2.944
  942TIP3   OH2 2770   8.216   7.550   0.337
  942TIP3    H1 2771   8.286   7.562   0.401
  942TIP3    H2 2772   8.248   7.594   0.258
  943TIP3   OH2 2773   0.720   1.612   5.490
  943TIP3    H1 2774   0.705   1.528   5.449
  943TIP3    H2 2775   0.809   1.607   5.525
  944TIP3   OH2 2776   4.043   3.800   1.565
  944TIP3    H1 2777   4.003   3.875   1.520
  944TIP3    H2 2778   3.978   3.730   1.558
  945TIP3   OH2 2779   5.077   2.721   5.718
  945TIP3    H1 2780   5.127   2.640   5.724
  945TIP3    H2 2781   5.064   2.748   5.809
  946TIP3   OH2 2782   7.107   1.680   3.299
  946TIP3    H1 2783   7.170   1.697   3.230
  946TIP3    H2 2784   7.107   1.585   3.309
  947TIP3   OH2 2785   5.776   2.653   4.400
  947TIP3    H1 2786   5.747   2.584   4.460
  947TIP3    H2 2787   5.731   2.732   4.430
  948TIP3   OH2 2788   0.020   6.105   2.349
  948TIP3    H1 2789  -0.024   6.036   2.301
  948TIP3    H2 2790   0.037   6.068   2.436
  949TIP3   OH2 2791   6.922   5.043   3.575
  949TIP3    H1 2792   6.897   5.108   3.641
  949TIP3    H2 2793   6.978   4.981   3.622
  950TIP3   OH2 2794   0.594   6.230   1.281
  950TIP3    H1 2795   0.597   6.135   1.284
  950TIP3    H2 2796   0.680   6.258   1.314
  951TIP3   OH2 2797   3.877   6.500   2.824
  951TIP3    H1 2798   3.925   6.417   2.821
  951TIP3    H2 2799   3.894   6.540   2.739
  952TIP3   OH2 2800   4.157   5.747   4.909
  952TIP3    H1 2801   4.230   5.756   4.849
  952TIP3    H2 2802   4.079   5.748   4.853
  953TIP3   OH2 2803   3.959   4.005   0.296
  953TIP3    H1 2804   4.028   4.035   0.237
  953TIP3    H2 2805   3.889   4.070   0.286
  954TIP3   OH2 2806   3.877   7.041   2.153
  954TIP3    H1 2807   3.834   7.005   2.231
  954TIP3    H2 2808   3.957   6.989   2.145
  955TIP3   OH2 2809   1.539   4.396   2.292
  955TIP3    H1 2810   1.567   4.375   2.203
  955TIP3    H2 2811   1.489   4.319   2.321
  956TIP3   OH2 2812   3.681   6.561   4.113
  956TIP3    H1 2813   3.707   6.499   4.044
  956TIP3    H2 2814   3.630   6.627   4.067
  957TIP3   OH2 2815   5.017   5.013   6.448
  957TIP3    H1 2816   5.086   5.029   6.512
  957TIP3    H2 2817   4.945   5.071   6.475
  958TIP3   OH2 2818   1.063   2.026   4.795
  958TIP3    H1 2819   1.134   2.079   4.758
  958TIP3    H2 2820   1.026   1.979   4.721
  959TIP3   OH2 2821   0.283   4.328   5.395
  959TIP3    H1 2822   0.213   4.386   5.422
  959TIP3    H2 2823   0.355   4.348   5.455
  960TIP3   OH2 2824   6.008   5.320   2.764
  960TIP3    H1 2825   5.924   5.359   2.786
  960TIP3    H2 2826   6.004   5.232   2.801
  961TIP3   OH2 2827   5.545   4.669   3.158
  961TIP3    H1 2828   5.570   4.696   3.246
  961TIP3    H2 2829   5.470   4.724   3.135
  962TIP3   OH2 2830   8.162   2.268   4.491
  962TIP3    H1 2831   8.204   2.258   4.406
  962TIP3    H2 2832   8.154   2.179   4.525
  963TIP3   OH2 2833   0.617   0.218   2.488
  963TIP3    H1 2834   0.532   0.262   2.481
  963TIP3    H2 2835   0.680   0.290   2.499
  964TIP3   OH2 2836   1.280   4.820   0.528
  964TIP3    H1 2837   1.289   4.860   0.442
  964TIP3    H2 2838   1.370   4.808   0.559
  965TIP3   OH2 2839   7.756   4.612   1.630
  965TIP3    H1 2840   7.704   4.654   1.698
  965TIP3    H2 2841   7.785   4.530   1.670
  966TIP3   OH2 2842   4.667   3.231   0.531
  966TIP3    H1 2843   4.578   3.228   0.566
  966TIP3    H2 2844   4.704   3.312   0.566
  967TIP3   OH2 2845   5.362   5.387   5.158
  967TIP3    H1 2846   5.408   5.341   5.229
  967TIP3    H2 2847   5.380   5.335   5.080
  968TIP3   OH2 2848   4.179   5.078   4.702
  968TIP3    H1 2849   4.153   4.986   4.699
  968TIP3    H2 2850   4.104   5.126   4.668
  969TIP3   OH2 2851   0.103   6.108   5.434
  969TIP3    H1 2852   0.059   6.036   5.480
  969TIP3    H2 2853   0.048   6.184   5.453
  970TIP3   OH2 2854   4.014   1.048   0.710
  970TIP3    H1 2855   4.064   0.969   0.694
  970TIP3    H2 2856   4.048   1.082   0.793
  971TIP3   OH2 2857   4.085   4.063   0.848
  971TIP3    H1 2858   4.022   3.998   0.819
  971TIP3    H2 2859   4.031   4.138   0.875
  972TIP3   OH2 2860   6.194   4.827   1.132
  972TIP3    H1 2861   6.181   4.863   1.219
  972TIP3    H2 2862   6.222   4.737   1.147
  973TIP3   OH2 2863   6.616   7.449   0.828
  973TIP3    H1 2864   6.594   7.538   0.855
  973TIP3    H2 2865   6.533   7.411   0.800
  974TIP3   OH2 2866   5.757   7.293   5.648
  974TIP3    H1 2867   5.845   7.302   5.612
  974TIP3    H2 2868   5.746   7.199   5.660
  975TIP3   OH2 2869   2.570   6.404   2.436
  975TIP3    H1 2870   2.652   6.360   2.414
  975TIP3    H2 2871   2.567   6.481   2.379
  976TIP3   OH2 2872   0.292   0.125   4.152
  976TIP3    H1 2873   0.250   0.171   4.224
  976TIP3    H2 2874   0.378   0.166   4.144
  977TIP3   OH2 2875   1.473   2.008   2.310
  977TIP3    H1 2876   1.428   2.021   2.393
  977TIP3    H2 2877   1.565   2.024   2.330
  978TIP3   OH2 2878   6.999   4.551   2.740
  978TIP3    H1 2879   7.085   4.509   2.743
  978TIP3    H2 2880   6.940   4.482   2.710
  979TIP3   OH2 2881   1.034   5.436   0.792
  979TIP3    H1 2882   1.105   5.385   0.755
  979TIP3    H2 2883   1.067   5.466   0.877
  980TIP3   OH2 2884   3.075   5.081   3.001
  980TIP3    H1 2885   3.025   5.008   3.037
  980TIP3    H2 2886   3.159   5.078   3.048
  981TIP3   OH2 2887   0.586   3.355   3.419
  981TIP3    H1 2888   0.495   3.361   3.448
  981TIP3    H2 2889   0.637   3.391   3.491
  982TIP3   OH2 2890   6.086   4.072   5.412
  982TIP3    H1 2891   6.010   4.073   5.471
  982TIP3    H2 2892   6.064   4.008   5.345
  983TIP3   OH2 2893   0.078   7.531   0.574
  983TIP3    H1 2894   0.061   7.626   0.580
  983TIP3    H2 2895   0.170   7.525   0.549
  984TIP3   OH2 2896   6.110   3.897   0.514
  984TIP3    H1 2897   6.180   3.894   0.579
  984TIP3    H2 2898   6.105   3.988   0.488
  985TIP3   OH2 2899   7.679   6.463   4.930
  985TIP3    H1 2900   7.654   6.376   4.899
  985TIP3    H2 2901   7.690   6.515   4.850
  986TIP3   OH2 2902   3.351   5.253   0.600
  986TIP3    H1 2903   3.384   5.200   0.527
  986TIP3    H2 2904   3.291   5.195   0.646
  987TIP3   OH2 2905   0.597   7.057   0.946
  987TIP3    H1 2906   0.537   7.053   0.872
  987TIP3    H2 2907   0.565   7.128   1.001
  988TIP3   OH2 2908   5.900   4.212   5.858
  988TIP3    H1 2909   5.818   4.251   5.831
  988TIP3    H2 2910   5.963   4.240   5.792
  989TIP3   OH2 2911   5.718   1.364   3.382
  989TIP3    H1 2912   5.732   1.270   3.370
  989TIP3    H2 2913   5.800   1.404   3.351
  990TIP3   OH2 2914   2.355   4.911   6.362
  990TIP3    H1 2915   2.430   4.918   6.421
  990TIP3    H2 2916   2.311   4.830   6.389
  991TIP3   OH2 2917   3.921   0.737   0.970
  991TIP3    H1 2918   3.969   0.705   0.894
  991TIP3    H2 2919   3.881   0.819   0.940
  992TIP3   OH2 2920   0.086   5.224   1.142
  992TIP3    H1 2921   0.110   5.236   1.050
  992TIP3    H2 2922   0.163   5.182   1.182
  993TIP3   OH2 2923   6.619   0.512   6.381
  993TIP3    H1 2924   6.600   0.422   6.407
  993TIP3    H2 2925   6.594   0.516   6.288
  994TIP3   OH2 2926   1.019   5.708   4.124
  994TIP3    H1 2927   1.096   5.671   4.080
  994TIP3    H2 2928   1.037   5.698   4.217
  995TIP3   OH2 2929   0.341   6.940   6.330
  995TIP3    H1 2930   0.360   6.868   6.270
  995TIP3    H2 2931   0.304   7.009   6.275
  996TIP3   OH2 2932   5.786   6.104   0.175
  996TIP3    H1 2933   5.751   6.163   0.242
  996TIP3    H2 2934   5.709   6.063   0.137
  997TIP3   OH2 2935   2.212   4.416   4.457
  997TIP3    H1 2936   2.169   4.362   4.391
  997TIP3    H2 2937   2.305   4.412   4.435
  998TIP3   OH2 2938   4.373   1.448   4.906
  998TIP3    H1 2939   4.392   1.541   4.918
  998TIP3    H2 2940   4.285   1.447   4.867
  999TIP3   OH2 2941   3.077   7.526   4.332
  999TIP3    H1 2942   3.094   7.456   4.269
  999TIP3    H2 2943   3.105   7.490   4.416
 1000TIP3   OH2 2944   5.967   4.595   6.389
 1000TIP3    H1 2945   5.990   4.566   6.477
 1000TIP3    H2 2946   5.873   4.579   6.382
 1001TIP3   OH2 2947   6.408   6.877   4.587
 1001TIP3    H1 2948   6.346   6.890   4.659
 1001TIP3    H2 2949   6.422   6.964   4.551
 1002TIP3   OH2 2950   0.662   5.047   4.390
 1002TIP3    H1 2951   0.627   5.089   4.469
 1002TIP3    H2 2952   0.753   5.077   4.386
 1003TIP3   OH2 2953   1.341   4.763   4.513
 1003TIP3    H1 2954   1.375   4.700   4.449
 1003TIP3    H2 2955   1.418   4.811   4.542
 1004TIP3   OH2 2956   4.467   1.078   6.767
 1004TIP3    H1 2957   4.452   1.171   6.786
 1004TIP3    H2 2958   4.510   1.078   6.682
 1005TIP3   OH2 2959   5.557   1.633   4.718
 1005TIP3    H1 2960   5.489   1.579   4.758
 1005TIP3    H2 2961   5.553   1.715   4.767
 1006TIP3   OH2 2962   4.615   6.764   4.090
 1006TIP3    H1 2963   4.526   6.793   4.110
 1006TIP3    H2 2964   4.671   6.822   4.142
 1007TIP3   OH2 2965   4.727   6.283   4.337
 1007TIP3    H1 2966   4.712   6.255   4.247
 1007TIP3    H2 2967   4.733   6.379   4.332
 1008TIP3   OH2 2968   0.526   2.232   6.155
 1008TIP3    H1 2969   0.530   2.139   6.174
 1008TIP3    H2 2970   0.531   2.238   6.059
 1009TIP3   OH2 2971   4.710   7.855   2.521
 1009TIP3    H1 2972   4.752   7.877   2.439
 1009TIP3    H2 2973   4.699   7.760   2.518
 1010TIP3   OH2 2974   0.851   7.203   1.689
 1010TIP3    H1 2975   0.905   7.227   1.765
 1010TIP3    H2 2976   0.761   7.209   1.721
 1011TIP3   OH2 2977   7.225   2.663   2.693
 1011TIP3    H1 2978   7.303   2.714   2.713
 1011TIP3    H2 2979   7.185   2.709   2.619
 1012TIP3   OH2 2980   7.802   2.933   0.520
 1012TIP3    H1 2981   7.770   2.866   0.579
 1012TIP3    H2 2982   7.790   3.016   0.567
 1013TIP3   OH2 2983   3.113   6.580   3.517
 1013TIP3    H1 2984   3.067   6.617   3.442
 1013TIP3    H2 2985   3.172   6.514   3.480
 1014TIP3   OH2 2986   4.078   3.157   6.200
 1014TIP3    H1 2987   4.104   3.209   6.275
 1014TIP3    H2 2988   4.058   3.221   6.132
 1015TIP3   OH2 2989   8.326   4.414   5.992
 1015TIP3    H1 2990   8.329   4.346   6.059
 1015TIP3    H2 2991   8.238   4.407   5.955
 1016TIP3   OH2 2992   0.391   7.045   6.741
 1016TIP3    H1 2993   0.323   7.081   6.798
 1016TIP3    H2 2994   0.437   7.122   6.707
 1017TIP3   OH2 2995   7.757   1.356   6.660
 1017TIP3    H1 2996   7.693   1.315   6.603
 1017TIP3    H2 2997   7.705   1.398   6.729
 1018TIP3   OH2 2998   5.867   5.826   1.316
 1018TIP3    H1 2999   5.777   5.848   1.341
 1018TIP3    H2 3000   5.914   5.821   1.398
 1019TIP3   OH2 3001   5.664   6.111   0.810
 1019TIP3    H1 3002   5.613   6.082   0.886
 1019TIP3    H2 3003   5.718   6.182   0.843
 1020TIP3   OH2 3004   4.753   0.427   3.077
 1020TIP3    H1 3005   4.670   0.380   3.083
 1020TIP3    H2 3006   4.734   0.513   3.115
 1021TIP3   OH2 3007   2.981   4.412   1.140
 1021TIP3    H1 3008   2.917   4.443   1.204
 1021TIP3    H2 3009   3.036   4.489   1.122
 1022TIP3   OH2 3010   0.753   3.259   3.853
 1022TIP3    H1 3011   0.717   3.182   3.808
 1022TIP3    H2 3012   0.845   3.237   3.869
 1023TIP3   OH2 3013   0.448   1.600   0.119
 1023TIP3    H1 3014   0.505   1.651   0.061
 1023TIP3    H2 3015   0.508   1.561   0.183
 1024TIP3   OH2 3016   0.455   1.436   2.693
 1024TIP3    H1 3017   0.365   1.406   2.703
 1024TIP3    H2 3018   0.497   1.370   2.639
 1025TIP3   OH2 3019   1.306   0.398   6.749
 1025TIP3    H1 3020   1.382   0.422   6.801
 1025TIP3    H2 3021   1.272   0.481   6.716
 1026TIP3   OH2 3022   3.733   6.018   3.265
 1026TIP3    H1 3023   3.774   6.045   3.347
 1026TIP3    H2 3024   3.798   5.962   3.223
 1027TIP3   OH2 3025   4.116   7.315   1.761
 1027TIP3    H1 3026   4.097   7.395   1.712
 1027TIP3    H2 3027   4.105   7.340   1.853
 1028TIP3   OH2 3028   5.137   3.479   0.473
 1028TIP3    H1 3029   5.087   3.425   0.411
 1028TIP3    H2 3030   5.130   3.567   0.437
 1029TIP3   OH2 3031   3.531   4.980   1.838
 1029TIP3    H1 3032   3.554   5.042   1.907
 1029TIP3    H2 3033   3.614   4.956   1.797
 1030TIP3   OH2 3034   5.588   2.482   4.515
 1030TIP3    H1 3035   5.598   2.438   4.599
 1030TIP3    H2 3036   5.512   2.539   4.526
 1031TIP3   OH2 3037   3.945   1.256   0.049
 1031TIP3    H1 3038   3.865   1.220   0.010
 1031TIP3    H2 3039   3.935   1.240   0.143
 1032TIP3   OH2 3040   0.082   2.742   6.498
 1032TIP3    H1 3041   0.173   2.734   6.469
 1032TIP3    H2 3042   0.046   2.812   6.443
 1033TIP3   OH2 3043   4.509   1.947   0.665
 1033TIP3    H1 3044   4.604   1.957   0.667
 1033TIP3    H2 3045   4.476   2.036   0.651
 1034TIP3   OH2 3046   7.544   4.440   5.885
 1034TIP3    H1 3047   7.629   4.452   5.842
 1034TIP3    H2 3048   7.529   4.345   5.881
 1035TIP3   OH2 3049   1.891   0.057   0.833
 1035TIP3    H1 3050   1.946   0.134   0.824
 1035TIP3    H2 3051   1.897   0.033   0.925
 1036TIP3   OH2 3052   1.416   4.838   2.009
 1036TIP3    H1 3053   1.486   4.903   2.012
 1036TIP3    H2 3054   1.439   4.776   2.079
 1037TIP3   OH2 3055   1.207   5.193   2.109
 1037TIP3    H1 3056   1.129   5.174   2.161
 1037TIP3    H2 3057   1.216   5.288   2.113
 1038TIP3   OH2 3058   3.597   0.213   3.198
 1038TIP3    H1 3059   3.606   0.249   3.110
 1038TIP3    H2 3060   3.673   0.156   3.208
 1039TIP3   OH2 3061   5.521   5.446   6.453
 1039TIP3    H1 3062   5.570   5.386   6.509
 1039TIP3    H2 3063   5.466   5.496   6.514
 1040TIP3   OH2 3064   4.177   6.287   2.113
 1040TIP3    H1 3065   4.220   6.369   2.137
 1040TIP3    H2 3066   4.245   6.238   2.065
 1041TIP3   OH2 3067   1.530   7.131   0.641
 1041TIP3    H1 3068   1.620   7.143   0.672
 1041TIP3    H2 3069   1.494   7.219   0.637
 1042TIP3   OH2 3070   2.461   4.481   1.880
 1042TIP3    H1 3071   2.524   4.412   1.901
 1042TIP3    H2 3072   2.418   4.500   1.964
 1043TIP3   OH2 3073   6.461   1.788   6.483
 1043TIP3    H1 3074   6.400   1.716   6.498
 1043TIP3    H2 3075   6.510   1.796   6.565
 1044TIP3   OH2 3076   8.023   5.717   3.697
 1044TIP3    H1 3077   8.114   5.687   3.700
 1044TIP3    H2 3078   8.011   5.768   3.777
 1045TIP3   OH2 3079   7.770   7.660   2.452
 1045TIP3    H1 3080   7.826   7.616   2.388
 1045TIP3    H2 3081   7.749   7.745   2.411
 1046TIP3   OH2 3082   7.317   3.602   2.904
 1046TIP3    H1 3083   7.279   3.676   2.952
 1046TIP3    H2 3084   7.327   3.634   2.814
 1047TIP3   OH2 3085   3.096   5.632   3.191
 1047TIP3    H1 3086   3.129   5.694   3.256
 1047TIP3    H2 3087   3.114   5.546   3.227
 1048TIP3   OH2 3088   3.048   2.940   0.822
 1048TIP3    H1 3089   3.136   2.905   0.809
 1048TIP3    H2 3090   2.991   2.882   0.770
 1049TIP3   OH2 3091   3.561   1.893   4.025
 1049TIP3    H1 3092   3.475   1.867   3.993
 1049TIP3    H2 3093   3.544   1.973   4.075
 1050TIP3   OH2 3094   0.130   3.486   2.463
 1050TIP3    H1 3095   0.107   3.571   2.499
 1050TIP3    H2 3096   0.169   3.506   2.378
 1051TIP3   OH2 3097   4.987   5.640   6.179
 1051TIP3    H1 3098   4.892   5.624   6.180
 1051TIP3    H2 3099   5.019   5.590   6.103
 1052TIP3   OH2 3100   6.500   4.642   4.775
 1052TIP3    H1 3101   6.486   4.577   4.706
 1052TIP3    H2 3102   6.581   4.614   4.818
 1053TIP3   OH2 3103   7.961   2.885   6.540
 1053TIP3    H1 3104   8.024   2.824   6.578
 1053TIP3    H2 3105   8.014   2.957   6.506
 1054TIP3   OH2 3106   8.232   2.464   4.694
 1054TIP3    H1 3107   8.291   2.463   4.618
 1054TIP3    H2 3108   8.146   2.440   4.658
 1055TIP3   OH2 3109   1.462   0.245   0.850
 1055TIP3    H1 3110   1.443   0.337   0.833
 1055TIP3    H2 3111   1.514   0.217   0.774
 1056TIP3   OH2 3112   4.058   3.413   4.399
 1056TIP3    H1 3113   4.144   3.416   4.441
 1056TIP3    H2 3114   4.061   3.482   4.333
 1057TIP3   OH2 3115   4.413   4.488   5.151
 1057TIP3    H1 3116   4.436   4.530   5.234
 1057TIP3    H2 3117   4.317   4.488   5.150
 1058TIP3   OH2 3118   4.030   2.987   5.898
 1058TIP3    H1 3119   3.980   2.906   5.907
 1058TIP3    H2 3120   4.110   2.961   5.853
 1059TIP3   OH2 3121   0.787   0.777   0.104
 1059TIP3    H1 3122   0.849   0.708   0.127
 1059TIP3    H2 3123   0.701   0.740   0.122
 1060TIP3   OH2 3124   6.496   5.008   4.200
 1060TIP3    H1 3125   6.426   4.943   4.204
 1060TIP3    H2 3126   6.534   5.009   4.288
 1061TIP3   OH2 3127   7.089   6.257   3.508
 1061TIP3    H1 3128   7.152   6.224   3.572
 1061TIP3    H2 3129   7.011   6.202   3.522
 1062TIP3   OH2 3130   4.105   7.320   3.938
 1062TIP3    H1 3131   4.075   7.270   3.862
 1062TIP3    H2 3132   4.025   7.345   3.983
 1063TIP3   OH2 3133   1.170   7.640   4.492
 1063TIP3    H1 3134   1.164   7.663   4.584
 1063TIP3    H2 3135   1.091   7.678   4.452
 1064TIP3   OH2 3136   4.177   3.458   3.444
 1064TIP3    H1 3137   4.168   3.409   3.362
 1064TIP3    H2 3138   4.220   3.539   3.418
 1065TIP3   OH2 3139   4.871   7.100   4.494
 1065TIP3    H1 3140   4.920   7.182   4.505
 1065TIP3    H2 3141   4.780   7.125   4.509
 1066TIP3   OH2 3142   7.910   2.335   1.582
 1066TIP3    H1 3143   7.840   2.355   1.520
 1066TIP3    H2 3144   7.968   2.411   1.578
 1067TIP3   OH2 3145   5.390   1.189   2.565
 1067TIP3    H1 3146   5.367   1.275   2.529
 1067TIP3    H2 3147   5.325   1.129   2.527
 1068TIP3   OH2 3148   4.816   7.407   0.471
 1068TIP3    H1 3149   4.727   7.386   0.445
 1068TIP3    H2 3150   4.813   7.409   0.567
 1069TIP3   OH2 3151   3.402   1.462   5.377
 1069TIP3    H1 3152   3.402   1.389   5.315
 1069TIP3    H2 3153   3.386   1.421   5.462
 1070TIP3   OH2 3154   6.995   5.369   5.234
 1070TIP3    H1 3155   6.910   5.386   5.193
 1070TIP3    H2 3156   7.016   5.279   5.208
 1071TIP3   OH2 3157   4.052   0.686   2.162
 1071TIP3    H1 3158   4.099   0.768   2.146
 1071TIP3    H2 3159   4.116   0.617   2.146
 1072TIP3   OH2 3160   2.949   4.679   0.067
 1072TIP3    H1 3161   2.860   4.704   0.042
 1072TIP3    H2 3162   3.004   4.709  -0.005
 1073TIP3   OH2 3163   6.903   1.255   5.154
 1073TIP3    H1 3164   6.876   1.338   5.114
 1073TIP3    H2 3165   6.874   1.188   5.091
 1074TIP3   OH2 3166   6.940   1.453   1.837
 1074TIP3    H1 3167   6.995   1.502   1.898
 1074TIP3    H2 3168   7.001   1.423   1.769
 1075TIP3   OH2 3169   5.752   1.748   2.142
 1075TIP3    H1 3170   5.749   1.838   2.176
 1075TIP3    H2 3171   5.809   1.702   2.203
 1076TIP3   OH2 3172   7.043   3.187   4.444
 1076TIP3    H1 3173   7.069   3.122   4.510
 1076TIP3    H2 3174   6.975   3.143   4.393
 1077TIP3   OH2 3175   7.918   7.543   2.081
 1077TIP3    H1 3176   7.943   7.540   2.174
 1077TIP3    H2 3177   7.992   7.586   2.038
 1078TIP3   OH2 3178   5.601   4.888   1.192
 1078TIP3    H1 3179   5.637   4.826   1.255
 1078TIP3    H2 3180   5.545   4.945   1.244
 1079TIP3   OH2 3181   7.334   5.057   2.660
 1079TIP3    H1 3182   7.368   4.981   2.707
 1079TIP3    H2 3183   7.266   5.021   2.603
 1080TIP3   OH2 3184   1.874   4.295   5.330
 1080TIP3    H1 3185   1.863   4.346   5.249
 1080TIP3    H2 3186   1.787   4.295   5.370
 1081TIP3   OH2 3187   2.234   6.321   0.192
 1081TIP3    H1 3188   2.259   6.393   0.250
 1081TIP3    H2 3189   2.274   6.244   0.231
 1082TIP3   OH2 3190   3.648   6.809   2.292
 1082TIP3    H1 3191   3.706   6.748   2.247
 1082TIP3    H2 3192   3.574   6.820   2.232
 1083TIP3   OH2 3193   2.634   6.169   3.659
 1083TIP3    H1 3194   2.698   6.185   3.727
 1083TIP3    H2 3195   2.550   6.163   3.705
 1084TIP3   OH2 3196   0.924   3.435   3.338
 1084TIP3    H1 3197   0.857   3.498   3.310
 1084TIP3    H2 3198   0.987   3.433   3.265
 1085TIP3   OH2 3199   5.645   3.222   4.776
 1085TIP3    H1 3200   5.659   3.158   4.846
 1085TIP3    H2 3201   5.593   3.291   4.815
 1086TIP3   OH2 3202   0.445   5.588   3.586
 1086TIP3    H1 3203   0.368   5.581   3.530
 1086TIP3    H2 3204   0.515   5.617   3.527
 1087TIP3   OH2 3205   4.094   5.859   0.774
 1087TIP3    H1 3206   4.149   5.795   0.820
 1087TIP3    H2 3207   4.023   5.878   0.835
 1088TIP3   OH2 3208   1.170   4.461   4.464
 1088TIP3    H1 3209   1.101   4.494   4.407
 1088TIP3    H2 3210   1.177   4.368   4.441
 1089TIP3   OH2 3211   0.158   5.408   2.798
 1089TIP3    H1 3212   0.128   5.342   2.736
 1089TIP3    H2 3213   0.249   5.424   2.774
 1090TIP3   OH2 3214   5.156   3.777   1.948
 1090TIP3    H1 3215   5.098   3.849   1.922
 1090TIP3    H2 3216   5.182   3.737   1.865
 1091TIP3   OH2 3217   4.980   6.850   3.026
 1091TIP3    H1 3218   5.053   6.852   3.089
 1091TIP3    H2 3219   5.017   6.888   2.946
 1092TIP3   OH2 3220   0.570   7.565   4.104
 1092TIP3    H1 3221   0.487   7.594   4.141
 1092TIP3    H2 3222   0.633   7.576   4.175
 1093TIP3   OH2 3223   0.385   5.029   1.923
 1093TIP3    H1 3224   0.355   5.094   1.859
 1093TIP3    H2 3225   0.352   5.060   2.007
 1094TIP3   OH2 3226   7.303   1.702   3.069
 1094TIP3    H1 3227   7.369   1.759   3.108
 1094TIP3    H2 3228   7.334   1.613   3.089
 1095TIP3   OH2 3229   7.495   5.669   6.549
 1095TIP3    H1 3230   7.524   5.757   6.526
 1095TIP3    H2 3231   7.454   5.679   6.635
 1096TIP3   OH2 3232   7.378   0.380   1.112
 1096TIP3    H1 3233   7.283   0.392   1.111
 1096TIP3    H2 3234   7.390   0.285   1.116
 1097TIP3   OH2 3235   4.500   7.338   2.965
 1097TIP3    H1 3236   4.439   7.400   2.924
 1097TIP3    H2 3237   4.585   7.359   2.926
 1098TIP3   OH2 3238   6.802   6.815   4.714
 1098TIP3    H1 3239   6.888   6.786   4.683
 1098TIP3    H2 3240   6.799   6.787   4.806
 1099TIP3   OH2 3241   0.785   4.370   6.111
 1099TIP3    H1 3242   0.821   4.380   6.023
 1099TIP3    H2 3243   0.784   4.275   6.126
 1100TIP3   OH2 3244   8.122   4.216   6.557
 1100TIP3    H1 3245   8.179   4.142   6.579
 1100TIP3    H2 3246   8.180   4.280   6.516
 1101TIP3   OH2 3247   5.359   2.844   3.127
 1101TIP3    H1 3248   5.288   2.816   3.070
 1101TIP3    H2 3249   5.315   2.881   3.204
 1102TIP3   OH2 3250   1.477   7.800   6.421
 1102TIP3    H1 3251   1.562   7.776   6.383
 1102TIP3    H2 3252   1.413   7.746   6.373
 1103TIP3   OH2 3253   2.460   2.354   4.572
 1103TIP3    H1 3254   2.374   2.316   4.592
 1103TIP3    H2 3255   2.447   2.399   4.489
 1104TIP3   OH2 3256   3.711   1.995   5.362
 1104TIP3    H1 3257   3.782   1.939   5.394
 1104TIP3    H2 3258   3.723   1.998   5.267
 1105TIP3   OH2 3259   1.713   1.907   3.863
 1105TIP3    H1 3260   1.688   1.929   3.953
 1105TIP3    H2 3261   1.645   1.948   3.809
 1106TIP3   OH2 3262   7.721   5.484   6.664
 1106TIP3    H1 3263   7.679   5.544   6.603
 1106TIP3    H2 3264   7.777   5.540   6.718
 1107TIP3   OH2 3265   6.491   7.616   5.409
 1107TIP3    H1 3266   6.455   7.529   5.428
 1107TIP3    H2 3267   6.584   7.599   5.389
 1108TIP3   OH2 3268   1.663   6.031   4.120
 1108TIP3    H1 3269   1.637   5.946   4.155
 1108TIP3    H2 3270   1.599   6.093   4.155
 1109TIP3   OH2 3271   2.775   1.600   0.104
 1109TIP3    H1 3272   2.854   1.598   0.159
 1109TIP3    H2 3273   2.704   1.575   0.163
 1110TIP3   OH2 3274   2.310   1.962   1.383
 1110TIP3    H1 3275   2.276   1.948   1.295
 1110TIP3    H2 3276   2.405   1.957   1.374
 1111TIP3   OH2 3277   2.842   2.387   1.236
 1111TIP3    H1 3278   2.840   2.399   1.142
 1111TIP3    H2 3279   2.889   2.305   1.249
 1112TIP3   OH2 3280   0.314   3.623   5.821
 1112TIP3    H1 3281   0.389   3.639   5.764
 1112TIP3    H2 3282   0.321   3.531   5.845
 1113TIP3   OH2 3283   8.206   6.585   5.618
 1113TIP3    H1 3284   8.256   6.650   5.665
 1113TIP3    H2 3285   8.172   6.526   5.686
 1114TIP3   OH2 3286   2.837   3.771   1.285
 1114TIP3    H1 3287   2.875   3.802   1.203
 1114TIP3    H2 3288   2.910   3.771   1.347
 1115TIP3   OH2 3289   1.438   5.753   6.523
 1115TIP3    H1 3290   1.343   5.745   6.532
 1115TIP3    H2 3291   1.450   5.800   6.440
 1116TIP3   OH2 3292   5.612   6.776   3.305
 1116TIP3    H1 3293   5.528   6.735   3.323
 1116TIP3    H2 3294   5.671   6.741   3.372
 1117TIP3   OH2 3295   3.559   4.241   6.576
 1117TIP3    H1 3296   3.482   4.290   6.605
 1117TIP3    H2 3297   3.538   4.150   6.596
 1118TIP3   OH2 3298   1.653   6.938   5.014
 1118TIP3    H1 3299   1.620   7.000   5.080
 1118TIP3    H2 3300   1.698   6.871   5.064
 1119TIP3   OH2 3301   7.755   6.878   4.941
 1119TIP3    H1 3302   7.825   6.938   4.916
 1119TIP3    H2 3303   7.676   6.932   4.939
 1120TIP3   OH2 3304   8.046   5.634   1.534
 1120TIP3    H1 3305   8.039   5.675   1.621
 1120TIP3    H2 3306   8.054   5.540   1.552
 1121TIP3   OH2 3307   1.586   7.384   0.291
 1121TIP3    H1 3308   1.585   7.296   0.254
 1121TIP3    H2 3309   1.594   7.442   0.216
 1122TIP3   OH2 3310   1.088   0.801   4.804
 1122TIP3    H1 3311   1.021   0.733   4.808
 1122TIP3    H2 3312   1.170   0.755   4.824
 1123TIP3   OH2 3313   6.658   5.195   3.056
 1123TIP3    H1 3314   6.567   5.224   3.060
 1123TIP3    H2 3315   6.675   5.154   3.141
 1124TIP3   OH2 3316   5.821   0.484   0.270
 1124TIP3    H1 3317   5.913   0.457   0.272
 1124TIP3    H2 3318   5.811   0.542   0.345
 1125TIP3   OH2 3319   5.473   5.123   2.634
 1125TIP3    H1 3320   5.546   5.099   2.690
 1125TIP3    H2 3321   5.469   5.052   2.569
 1126TIP3   OH2 3322   4.420   4.136   2.644
 1126TIP3    H1 3323   4.443   4.137   2.551
 1126TIP3    H2 3324   4.496   4.097   2.687
 1127TIP3   OH2 3325   2.802   6.759   2.262
 1127TIP3    H1 3326   2.873   6.698   2.241
 1127TIP3    H2 3327   2.784   6.744   2.355
 1128TIP3   OH2 3328   7.214   5.100   3.747
 1128TIP3    H1 3329   7.235   5.056   3.665
 1128TIP3    H2 3330   7.127   5.069   3.770
 1129TIP3   OH2 3331   0.377   7.376   1.797
 1129TIP3    H1 3332   0.398   7.397   1.706
 1129TIP3    H2 3333   0.441   7.310   1.823
 1130TIP3   OH2 3334   7.219   7.151   2.411
 1130TIP3    H1 3335   7.205   7.204   2.333
 1130TIP3    H2 3336   7.307   7.114   2.400
 1131TIP3   OH2 3337   5.846   6.426   3.272
 1131TIP3    H1 3338   5.850   6.467   3.186
 1131TIP3    H2 3339   5.934   6.437   3.309
 1132TIP3   OH2 3340   1.511   0.506   6.519
 1132TIP3    H1 3341   1.579   0.530   6.582
 1132TIP3    H2 3342   1.552   0.439   6.464
 1133TIP3   OH2 3343   2.030   3.526   6.568
 1133TIP3    H1 3344   1.943   3.485   6.571
 1133TIP3    H2 3345   2.054   3.536   6.660
 1134TIP3   OH2 3346   1.801   4.549   6.726
 1134TIP3    H1 3347   1.745   4.622   6.701
 1134TIP3    H2 3348   1.757   4.472   6.690
 1135TIP3   OH2 3349   7.868   2.713   2.068
 1135TIP3    H1 3350   7.838   2.791   2.021
 1135TIP3    H2 3351   7.875   2.646   2.000
 1136TIP3   OH2 3352   6.705   2.393   6.675
 1136TIP3    H1 3353   6.715   2.486   6.696
 1136TIP3    H2 3354   6.787   2.369   6.632
 1137TIP3   OH2 3355   3.099   6.559   2.608
 1137TIP3    H1 3356   3.042   6.492   2.569
 1137TIP3    H2 3357   3.187   6.534   2.580
 1138TIP3   OH2 3358   0.131   2.597   5.606
 1138TIP3    H1 3359   0.111   2.686   5.580
 1138TIP3    H2 3360   0.170   2.557   5.528
 1139TIP3   OH2 3361   1.412   4.295   3.930
 1139TIP3    H1 3362   1.389   4.224   3.990
 1139TIP3    H2 3363   1.491   4.334   3.967
 1140TIP3   OH2 3364   7.128   0.128   5.495
 1140TIP3    H1 3365   7.093   0.093   5.577
 1140TIP3    H2 3366   7.075   0.087   5.426
 1141TIP3   OH2 3367   7.156   5.738   4.007
 1141TIP3    H1 3368   7.213   5.763   4.080
 1141TIP3    H2 3369   7.191   5.787   3.932
 1142TIP3   OH2 3370   0.478   1.755   6.221
 1142TIP3    H1 3371   0.513   1.844   6.227
 1142TIP3    H2 3372   0.462   1.730   6.312
 1143TIP3   OH2 3373   3.195   5.475   6.553
 1143TIP3    H1 3374   3.128   5.491   6.619
 1143TIP3    H2 3375   3.188   5.549   6.492
 1144TIP3   OH2 3376   5.253   3.449   2.272
 1144TIP3    H1 3377   5.199   3.503   2.215
 1144TIP3    H2 3378   5.213   3.362   2.270
 1145TIP3   OH2 3379   4.713   3.997   5.812
 1145TIP3    H1 3380   4.641   4.059   5.818
 1145TIP3    H2 3381   4.790   4.052   5.792
 1146TIP3   OH2 3382   2.370   6.250   5.422
 1146TIP3    H1 3383   2.329   6.172   5.385
 1146TIP3    H2 3384   2.297   6.301   5.458
 1147TIP3   OH2 3385   6.664   2.034   6.554
 1147TIP3    H1 3386   6.746   2.080   6.573
 1147TIP3    H2 3387   6.676   1.947   6.591
 1148TIP3   OH2 3388   4.251   4.882   3.790
 1148TIP3    H1 3389   4.198   4.938   3.847
 1148TIP3    H2 3390   4.187   4.832   3.739
 1149TIP3   OH2 3391   0.492   1.515   3.117
 1149TIP3    H1 3392   0.454   1.428   3.133
 1149TIP3    H2 3393   0.419   1.567   3.084
 1150TIP3   OH2 3394   2.880   5.468   4.425
 1150TIP3    H1 3395   2.792   5.506   4.423
 1150TIP3    H2 3396   2.899   5.447   4.334
 1151TIP3   OH2 3397   2.781   1.525   4.890
 1151TIP3    H1 3398   2.809   1.436   4.869
 1151TIP3    H2 3399   2.755   1.520   4.982
 1152TIP3   OH2 3400   0.128   1.122   2.003
 1152TIP3    H1 3401   0.142   1.213   1.977
 1152TIP3    H2 3402   0.039   1.102   1.972
 1153TIP3   OH2 3403   6.198   6.957   4.732
 1153TIP3    H1 3404   6.218   6.900   4.806
 1153TIP3    H2 3405   6.130   7.016   4.764
 1154TIP3   OH2 3406   5.022   2.384   4.467
 1154TIP3    H1 3407   5.027   2.478   4.485
 1154TIP3    H2 3408   4.941   2.373   4.418
 1155TIP3   OH2 3409   5.439   0.253   5.759
 1155TIP3    H1 3410   5.381   0.325   5.734
 1155TIP3    H2 3411   5.470   0.218   5.675
 1156TIP3   OH2 3412   5.387   0.248   2.425
 1156TIP3    H1 3413   5.462   0.305   2.405
 1156TIP3    H2 3414   5.312   0.292   2.386
 1157TIP3   OH2 3415   0.741   4.535   1.621
 1157TIP3    H1 3416   0.817   4.591   1.634
 1157TIP3    H2 3417   0.771   4.466   1.562
 1158TIP3   OH2 3418   1.000   7.737   2.991
 1158TIP3    H1 3419   1.076   7.682   3.008
 1158TIP3    H2 3420   0.998   7.798   3.065
 1159TIP3   OH2 3421   6.179   1.140   3.354
 1159TIP3    H1 3422   6.227   1.168   3.432
 1159TIP3    H2 3423   6.244   1.138   3.284
 1160TIP3   OH2 3424   2.403   7.758   2.147
 1160TIP3    H1 3425   2.441   7.676   2.178
 1160TIP3    H2 3426   2.311   7.737   2.128
 1161TIP3   OH2 3427   1.662   3.137   2.307
 1161TIP3    H1 3428   1.701   3.211   2.260
 1161TIP3    H2 3429   1.580   3.121   2.262
 1162TIP3   OH2 3430   3.300   1.217   0.987
 1162TIP3    H1 3431   3.303   1.213   1.083
 1162TIP3    H2 3432   3.249   1.297   0.968
 1163TIP3   OH2 3433   1.181   4.033   2.772
 1163TIP3    H1 3434   1.163   3.980   2.694
 1163TIP3    H2 3435   1.148   3.980   2.844
 1164TIP3   OH2 3436   0.886   4.822   6.757
 1164TIP3    H1 3437   0.947   4.798   6.687
 1164TIP3    H2 3438   0.836   4.743   6.775
 1165TIP3   OH2 3439   3.143   2.965   4.277
 1165TIP3    H1 3440   3.060   2.954   4.323
 1165TIP3    H2 3441   3.156   2.882   4.231
 1166TIP3   OH2 3442   5.804   2.805   5.981
 1166TIP3    H1 3443   5.852   2.795   6.064
 1166TIP3    H2 3444   5.733   2.866   6.002
 1167TIP3   OH2 3445   3.007   7.032   1.885
 1167TIP3    H1 3446   3.014   6.973   1.810
 1167TIP3    H2 3447   3.035   7.117   1.852
 1168TIP3   OH2 3448   1.241   6.838   1.667
 1168TIP3    H1 3449   1.298   6.816   1.741
 1168TIP3    H2 3450   1.247   6.933   1.659
 1169TIP3   OH2 3451   4.554   5.955   2.048
 1169TIP3    H1 3452   4.596   6.041   2.039
 1169TIP3    H2 3453   4.612   5.906   2.106
 1170TIP3   OH2 3454   2.876   1.590   6.788
 1170TIP3    H1 3455   2.859   1.515   6.845
 1170TIP3    H2 3456   2.858   1.557   6.700
 1171TIP3   OH2 3457   6.533   0.747   4.626
 1171TIP3    H1 3458   6.604   0.811   4.635
 1171TIP3    H2 3459   6.576   0.669   4.590
 1172TIP3   OH2 3460   2.279   7.641   3.835
 1172TIP3    H1 3461   2.301   7.601   3.751
 1172TIP3    H2 3462   2.185   7.659   3.829
 1173TIP3   OH2 3463   5.411   3.972   6.184
 1173TIP3    H1 3464   5.437   3.887   6.221
 1173TIP3    H2 3465   5.461   4.036   6.234
 1174TIP3   OH2 3466   5.947   5.093   1.851
 1174TIP3    H1 3467   5.937   5.090   1.756
 1174TIP3    H2 3468   5.858   5.102   1.884
 1175TIP3   OH2 3469   7.558   0.554   1.072
 1175TIP3    H1 3470   7.592   0.525   0.988
 1175TIP3    H2 3471   7.516   0.476   1.109
 1176TIP3   OH2 3472   3.289   2.223   4.277
 1176TIP3    H1 3473   3.245   2.171   4.209
 1176TIP3    H2 3474   3.344   2.284   4.229
 1177TIP3   OH2 3475   4.451   2.239   0.643
 1177TIP3    H1 3476   4.357   2.237   0.624
 1177TIP3    H2 3477   4.488   2.293   0.574
 1178TIP3   OH2 3478   0.515   0.202   4.395
 1178TIP3    H1 3479   0.477   0.114   4.401
 1178TIP3    H2 3480   0.608   0.189   4.411
 1179TIP3   OH2 3481   5.283   4.741   5.947
 1179TIP3    H1 3482   5.306   4.798   6.021
 1179TIP3    H2 3483   5.218   4.790   5.897
 1180TIP3   OH2 3484   1.561   7.017   3.278
 1180TIP3    H1 3485   1.589   6.938   3.232
 1180TIP3    H2 3486   1.479   6.991   3.322
 1181TIP3   OH2 3487   5.391   6.303   6.538
 1181TIP3    H1 3488   5.413   6.370   6.473
 1181TIP3    H2 3489   5.331   6.244   6.491
 1182TIP3   OH2 3490   4.300   5.182   2.366
 1182TIP3    H1 3491   4.218   5.139   2.343
 1182TIP3    H2 3492   4.290   5.206   2.458
 1183TIP3   OH2 3493   0.125   1.158   1.707
 1183TIP3    H1 3494   0.207   1.179   1.752
 1183TIP3    H2 3495   0.125   1.063   1.701
 1184TIP3   OH2 3496   4.143   0.463   3.142
 1184TIP3    H1 3497   4.213   0.464   3.077
 1184TIP3    H2 3498   4.143   0.551   3.179
 1185TIP3   OH2 3499   4.063   1.828   5.613
 1185TIP3    H1 3500   4.156   1.841   5.596
 1185TIP3    H2 3501   4.046   1.737   5.586
 1186TIP3   OH2 3502   1.337   5.695   2.605
 1186TIP3    H1 3503   1.392   5.668   2.531
 1186TIP3    H2 3504   1.278   5.761   2.568
 1187TIP3   OH2 3505   3.289   7.254   3.231
 1187TIP3    H1 3506   3.208   7.228   3.188
 1187TIP3    H2 3507   3.355   7.194   3.195
 1188TIP3   OH2 3508   3.736   3.858   2.331
 1188TIP3    H1 3509   3.727   3.763   2.325
 1188TIP3    H2 3510   3.799   3.871   2.402
 1189TIP3   OH2 3511   3.830   2.487   5.886
 1189TIP3    H1 3512   3.900   2.437   5.845
 1189TIP3    H2 3513   3.812   2.442   5.968
 1190TIP3   OH2 3514   6.817   4.651   3.665
 1190TIP3    H1 3515   6.737   4.636   3.616
 1190TIP3    H2 3516   6.796   4.625   3.755
 1191TIP3   OH2 3517   4.601   1.603   6.589
 1191TIP3    H1 3518   4.683   1.602   6.640
 1191TIP3    H2 3519   4.624   1.559   6.507
 1192TIP3   OH2 3520   4.210   6.968   5.087
 1192TIP3    H1 3521   4.303   6.976   5.108
 1192TIP3    H2 3522   4.197   7.024   5.011
 1193TIP3   OH2 3523   4.729   5.510   5.806
 1193TIP3    H1 3524   4.650   5.457   5.814
 1193TIP3    H2 3525   4.748   5.511   5.712
 1194TIP3   OH2 3526   0.222   4.913   3.784
 1194TIP3    H1 3527   0.307   4.870   3.777
 1194TIP3    H2 3528   0.232   4.997   3.741
 1195TIP3   OH2 3529   1.595   0.104   1.984
 1195TIP3    H1 3530   1.593   0.013   1.953
 1195TIP3    H2 3531   1.625   0.097   2.075
 1196TIP3   OH2 3532   1.513   0.387   1.110
 1196TIP3    H1 3533   1.541   0.316   1.052
 1196TIP3    H2 3534   1.489   0.342   1.192
 1197TIP3   OH2 3535   0.617   3.864   3.909
 1197TIP3    H1 3536   0.560   3.939   3.923
 1197TIP3    H2 3537   0.627   3.825   3.996
 1198TIP3   OH2 3538   0.669   3.520   5.895
 1198TIP3    H1 3539   0.599   3.582   5.916
 1198TIP3    H2 3540   0.686   3.533   5.802
 1199TIP3   OH2 3541   3.337   3.303   0.936
 1199TIP3    H1 3542   3.314   3.242   1.006
 1199TIP3    H2 3543   3.386   3.250   0.874
 1200TIP3   OH2 3544   6.727   0.915   1.712
 1200TIP3    H1 3545   6.640   0.897   1.746
 1200TIP3    H2 3546   6.712   0.956   1.626
 1201TIP3   OH2 3547   1.215   6.188   1.219
 1201TIP3    H1 3548   1.169   6.105   1.212
 1201TIP3    H2 3549   1.302   6.171   1.183
 1202TIP3   OH2 3550   7.110   2.277   0.695
 1202TIP3    H1 3551   7.036   2.216   0.688
 1202TIP3    H2 3552   7.091   2.345   0.631
 1203TIP3   OH2 3553   3.104   7.678   3.243
 1203TIP3    H1 3554   3.188   7.684   3.288
 1203TIP3    H2 3555   3.048   7.743   3.285
 1204TIP3   OH2 3556   3.099   5.841   3.409
 1204TIP3    H1 3557   3.140   5.925   3.429
 1204TIP3    H2 3558   3.017   5.864   3.366
 1205TIP3   OH2 3559   4.165   5.699   4.344
 1205TIP3    H1 3560   4.203   5.635   4.283
 1205TIP3    H2 3561   4.125   5.765   4.287
 1206TIP3   OH2 3562   7.268   3.864   6.683
 1206TIP3    H1 3563   7.314   3.944   6.708
 1206TIP3    H2 3564   7.220   3.839   6.762
 1207TIP3   OH2 3565   1.054   2.195   2.096
 1207TIP3    H1 3566   1.087   2.204   2.006
 1207TIP3    H2 3567   1.133   2.185   2.150
 1208TIP3   OH2 3568   7.569   5.775   1.124
 1208TIP3    H1 3569   7.541   5.688   1.097
 1208TIP3    H2 3570   7.654   5.762   1.167
 1209TIP3   OH2 3571   0.581   2.449   0.216
 1209TIP3    H1 3572   0.523   2.518   0.248
 1209TIP3    H2 3573   0.605   2.400   0.295
 1210TIP3   OH2 3574   6.170   1.967   2.012
 1210TIP3    H1 3575   6.106   2.026   1.971
 1210TIP3    H2 3576   6.127   1.882   2.014
 1211TIP3   OH2 3577   0.337   5.879   2.242
 1211TIP3    H1 3578   0.275   5.904   2.173
 1211TIP3    H2 3579   0.380   5.800   2.209
 1212TIP3   OH2 3580   5.251   0.385   1.357
 1212TIP3    H1 3581   5.245   0.342   1.272
 1212TIP3    H2 3582   5.317   0.453   1.346
 1213TIP3   OH2 3583   4.035   2.275   1.662
 1213TIP3    H1 3584   3.975   2.274   1.737
 1213TIP3    H2 3585   4.122   2.267   1.701
 1214TIP3   OH2 3586   2.367   1.295   1.649
 1214TIP3    H1 3587   2.287   1.344   1.670
 1214TIP3    H2 3588   2.346   1.246   1.570
 1215TIP3   OH2 3589   6.272   3.114   1.797
 1215TIP3    H1 3590   6.194   3.167   1.782
 1215TIP3    H2 3591   6.238   3.028   1.822
 1216TIP3   OH2 3592   0.302   7.246   4.887
 1216TIP3    H1 3593   0.253   7.320   4.852
 1216TIP3    H2 3594   0.238   7.194   4.935
 1217TIP3   OH2 3595   6.085   1.106   4.356
 1217TIP3    H1 3596   6.137   1.168   4.407
 1217TIP3    H2 3597   6.126   1.106   4.269
 1218TIP3   OH2 3598   4.736   4.592   6.159
 1218TIP3    H1 3599   4.828   4.614   6.143
 1218TIP3    H2 3600   4.734   4.561   6.249
 1219TIP3   OH2 3601   0.775   7.473  -0.026
 1219TIP3    H1 3602   0.833   7.549  -0.014
 1219TIP3    H2 3603   0.759   7.442   0.063
 1220TIP3   OH2 3604   7.566   7.422   5.069
 1220TIP3    H1 3605   7.625   7.407   5.143
 1220TIP3    H2 3606   7.557   7.336   5.028
 1221TIP3   OH2 3607   6.557   3.526   6.316
 1221TIP3    H1 3608   6.472   3.481   6.317
 1221TIP3    H2 3609   6.536   3.614   6.284
 1222TIP3   OH2 3610   6.157   3.557   6.344
 1222TIP3    H1 3611   6.064   3.537   6.341
 1222TIP3    H2 3612   6.184   3.558   6.252
 1223TIP3   OH2 3613   1.618   7.336   2.726
 1223TIP3    H1 3614   1.696   7.342   2.782
 1223TIP3    H2 3615   1.622   7.414   2.671
 1224TIP3   OH2 3616   0.216   0.234   0.690
 1224TIP3    H1 3617   0.286   0.252   0.627
 1224TIP3    H2 3618   0.161   0.169   0.646
 1225TIP3   OH2 3619   1.168   1.247   1.122
 1225TIP3    H1 3620   1.220   1.306   1.068
 1225TIP3    H2 3621   1.091   1.227   1.069
 1226TIP3   OH2 3622   0.892   2.313   4.377
 1226TIP3    H1 3623   0.882   2.225   4.340
 1226TIP3    H2 3624   0.978   2.311   4.419
 1227TIP3   OH2 3625   5.691   5.033   1.742
 1227TIP3    H1 3626   5.604   5.011   1.775
 1227TIP3    H2 3627   5.676   5.106   1.682
 1228TIP3   OH2 3628   2.624   4.070   1.631
 1228TIP3    H1 3629   2.605   3.986   1.673
 1228TIP3    H2 3630   2.662   4.047   1.546
 1229TIP3   OH2 3631   6.272   7.495   1.657
 1229TIP3    H1 3632   6.297   7.533   1.741
 1229TIP3    H2 3633   6.198   7.548   1.627
 1230TIP3   OH2 3634   2.191   5.437   5.895
 1230TIP3    H1 3635   2.176   5.415   5.987
 1230TIP3    H2 3636   2.263   5.500   5.897
 1231TIP3   OH2 3637   5.548   1.126   1.044
 1231TIP3    H1 3638   5.563   1.074   0.964
 1231TIP3    H2 3639   5.457   1.108   1.068
 1232TIP3   OH2 3640   2.560   3.134   0.203
 1232TIP3    H1 3641   2.485   3.193   0.194
 1232TIP3    H2 3642   2.580   3.135   0.297
 1233TIP3   OH2 3643   2.784   4.782   4.762
 1233TIP3    H1 3644   2.847   4.854   4.767
 1233TIP3    H2 3645   2.698   4.825   4.769
 1234TIP3   OH2 3646   6.491   1.030   2.508
 1234TIP3    H1 3647   6.521   0.993   2.425
 1234TIP3    H2 3648   6.427   1.096   2.484
 1235TIP3   OH2 3649   4.474   3.289   6.242
 1235TIP3    H1 3650   4.431   3.275   6.327
 1235TIP3    H2 3651   4.438   3.222   6.185
 1236TIP3   OH2 3652   1.510   3.003   2.131
 1236TIP3    H1 3653   1.543   2.915   2.149
 1236TIP3    H2 3654   1.465   2.995   2.047
 1237TIP3   OH2 3655   6.045   4.823   6.732
 1237TIP3    H1 3656   5.968   4.767   6.740
 1237TIP3    H2 3657   6.117   4.762   6.714
 1238TIP3   OH2 3658   0.864   1.613   0.218
 1238TIP3    H1 3659   0.937   1.625   0.279
 1238TIP3    H2 3660   0.841   1.702   0.190
 1239TIP3   OH2 3661   5.087   4.565   0.811
 1239TIP3    H1 3662   5.125   4.624   0.876
 1239TIP3    H2 3663   5.077   4.481   0.857
 1240TIP3   OH2 3664   1.499   5.612   2.377
 1240TIP3    H1 3665   1.504   5.524   2.341
 1240TIP3    H2 3666   1.499   5.670   2.301
 1241TIP3   OH2 3667   7.591   6.334   3.946
 1241TIP3    H1 3668   7.656   6.269   3.918
 1241TIP3    H2 3669   7.636   6.418   3.938
 1242TIP3   OH2 3670   6.389   5.990   6.324
 1242TIP3    H1 3671   6.392   6.047   6.248
 1242TIP3    H2 3672   6.304   6.007   6.364
 1243TIP3   OH2 3673   0.269   0.641   0.763
 1243TIP3    H1 3674   0.349   0.673   0.720
 1243TIP3    H2 3675   0.301   0.579   0.829
 1244TIP3   OH2 3676   3.672   2.225   1.660
 1244TIP3    H1 3677   3.681   2.144   1.610
 1244TIP3    H2 3678   3.666   2.294   1.593
 1245TIP3   OH2 3679   7.980   1.844   2.828
 1245TIP3    H1 3680   8.058   1.796   2.800
 1245TIP3    H2 3681   7.999   1.935   2.807
 1246TIP3   OH2 3682   2.128   3.160   2.322
 1246TIP3    H1 3683   2.176   3.135   2.401
 1246TIP3    H2 3684   2.172   3.239   2.291
 1247TIP3   OH2 3685   6.475   1.151   4.572
 1247TIP3    H1 3686   6.555   1.190   4.536
 1247TIP3    H2 3687   6.404   1.202   4.535
 1248TIP3   OH2 3688   5.943   3.733   1.807
 1248TIP3    H1 3689   5.914   3.820   1.781
 1248TIP3    H2 3690   5.961   3.688   1.724
 1249TIP3   OH2 3691   7.735   1.008   4.079
 1249TIP3    H1 3692   7.645   1.015   4.111
 1249TIP3    H2 3693   7.725   0.993   3.985
 1250TIP3   OH2 3694   2.398   0.601   4.166
 1250TIP3    H1 3695   2.318   0.612   4.218
 1250TIP3    H2 3696   2.468   0.598   4.231
 1251TIP3   OH2 3697   4.221   0.051   0.141
 1251TIP3    H1 3698   4.267  -0.004   0.205
 1251TIP3    H2 3699   4.246   0.140   0.164
 1252TIP3   OH2 3700   1.279   6.862   6.159
 1252TIP3    H1 3701   1.267   6.880   6.066
 1252TIP3    H2 3702   1.360   6.811   6.163
 1253TIP3   OH2 3703   3.268   1.584   1.230
 1253TIP3    H1 3704   3.263   1.614   1.320
 1253TIP3    H2 3705   3.314   1.654   1.183
 1254TIP3   OH2 3706   7.701   6.165   3.104
 1254TIP3    H1 3707   7.685   6.257   3.081
 1254TIP3    H2 3708   7.623   6.138   3.153
 1255TIP3   OH2 3709   8.276   2.345   1.512
 1255TIP3    H1 3710   8.264   2.375   1.422
 1255TIP3    H2 3711   8.287   2.250   1.504
 1256TIP3   OH2 3712   2.854   5.205   0.825
 1256TIP3    H1 3713   2.830   5.273   0.888
 1256TIP3    H2 3714   2.789   5.135   0.840
 1257TIP3   OH2 3715   6.855   0.823   5.268
 1257TIP3    H1 3716   6.820   0.736   5.287
 1257TIP3    H2 3717   6.827   0.841   5.178
 1258TIP3   OH2 3718   2.476   1.748   1.020
 1258TIP3    H1 3719   2.445   1.780   0.935
 1258TIP3    H2 3720   2.553   1.802   1.038
 1259TIP3   OH2 3721   4.552   4.503   5.961
 1259TIP3    H1 3722   4.516   4.592   5.955
 1259TIP3    H2 3723   4.630   4.513   6.015
 1260TIP3   OH2 3724   8.002   1.622   6.295
 1260TIP3    H1 3725   8.017   1.652   6.384
 1260TIP3    H2 3726   8.080   1.571   6.273
 1261TIP3   OH2 3727   2.183   1.156   4.520
 1261TIP3    H1 3728   2.269   1.149   4.561
 1261TIP3    H2 3729   2.188   1.099   4.443
 1262TIP3   OH2 3730   4.583   6.147   5.535
 1262TIP3    H1 3731   4.567   6.090   5.460
 1262TIP3    H2 3732   4.609   6.087   5.605
 1263TIP3   OH2 3733   4.842   5.983   3.390
 1263TIP3    H1 3734   4.913   5.959   3.450
 1263TIP3    H2 3735   4.806   5.900   3.359
 1264TIP3   OH2 3736   1.863   1.630   3.729
 1264TIP3    H1 3737   1.914   1.552   3.750
 1264TIP3    H2 3738   1.929   1.698   3.713
 1265TIP3   OH2 3739   5.214   2.962   0.899
 1265TIP3    H1 3740   5.306   2.943   0.921
 1265TIP3    H2 3741   5.193   3.042   0.947
 1266TIP3   OH2 3742   2.085   4.721   5.477
 1266TIP3    H1 3743   2.073   4.630   5.503
 1266TIP3    H2 3744   2.051   4.725   5.387
 1267TIP3   OH2 3745   3.546   1.592   2.637
 1267TIP3    H1 3746   3.624   1.616   2.587
 1267TIP3    H2 3747   3.551   1.497   2.646
 1268TIP3   OH2 3748   4.681   6.190   2.060
 1268TIP3    H1 3749   4.730   6.271   2.048
 1268TIP3    H2 3750   4.673   6.180   2.155
 1269TIP3   OH2 3751   2.882   5.941   6.082
 1269TIP3    H1 3752   2.970   5.958   6.048
 1269TIP3    H2 3753   2.879   5.988   6.165
 1270TIP3   OH2 3754   1.266   6.582   2.883
 1270TIP3    H1 3755   1.311   6.618   2.959
 1270TIP3    H2 3756   1.188   6.637   2.873
 1271TIP3   OH2 3757   5.346   3.328   0.833
 1271TIP3    H1 3758   5.364   3.338   0.740
 1271TIP3    H2 3759   5.252   3.339   0.841
 1272TIP3   OH2 3760   2.787   4.169   2.911
 1272TIP3    H1 3761   2.756   4.084   2.941
 1272TIP3    H2 3762   2.877   4.174   2.944
 1273TIP3   OH2 3763   8.098   7.276   3.060
 1273TIP3    H1 3764   8.055   7.226   2.990
 1273TIP3    H2 3765   8.097   7.217   3.136
 1274TIP3   OH2 3766   2.399   1.040   0.058
 1274TIP3    H1 3767   2.491   1.061   0.048
 1274TIP3    H2 3768   2.371   1.092   0.134
 1275TIP3   OH2 3769   2.361   4.344   3.603
 1275TIP3    H1 3770   2.347   4.299   3.686
 1275TIP3    H2 3771   2.446   4.313   3.572
 1276TIP3   OH2 3772   5.791   2.886   2.954
 1276TIP3    H1 3773   5.823   2.976   2.948
 1276TIP3    H2 3774   5.760   2.878   3.044
 1277TIP3   OH2 3775   3.134   5.095   4.398
 1277TIP3    H1 3776   3.073   5.160   4.361
 1277TIP3    H2 3777   3.133   5.023   4.335
 1278TIP3   OH2 3778   7.563   1.601   1.588
 1278TIP3    H1 3779   7.647   1.561   1.610
 1278TIP3    H2 3780   7.497   1.535   1.612
 1279TIP3   OH2 3781   6.064   7.369   4.109
 1279TIP3    H1 3782   5.991   7.430   4.114
 1279TIP3    H2 3783   6.034   7.290   4.153
 1280TIP3   OH2 3784   3.957   5.181   4.563
 1280TIP3    H1 3785   3.875   5.206   4.604
 1280TIP3    H2 3786   3.931   5.140   4.480
 1281TIP3   OH2 3787   5.774   5.686   6.697
 1281TIP3    H1 3788   5.786   5.666   6.790
 1281TIP3    H2 3789   5.857   5.664   6.657
 1282TIP3   OH2 3790   1.425   3.102   3.561
 1282TIP3    H1 3791   1.488   3.143   3.502
 1282TIP3    H2 3792   1.424   3.010   3.535
 1283TIP3   OH2 3793   5.366   4.770   0.906
 1283TIP3    H1 3794   5.458   4.765   0.881
 1283TIP3    H2 3795   5.361   4.722   0.989
 1284TIP3   OH2 3796   6.516   0.577   4.285
 1284TIP3    H1 3797   6.521   0.545   4.195
 1284TIP3    H2 3798   6.423   0.574   4.307
 1285TIP3   OH2 3799   5.664   2.913   0.829
 1285TIP3    H1 3800   5.620   2.901   0.914
 1285TIP3    H2 3801   5.627   2.996   0.796
 1286TIP3   OH2 3802   2.600   0.894   3.743
 1286TIP3    H1 3803   2.687   0.934   3.738
 1286TIP3    H2 3804   2.604   0.822   3.680
 1287TIP3   OH2 3805   4.060   3.135   1.716
 1287TIP3    H1 3806   4.155   3.141   1.725
 1287TIP3    H2 3807   4.033   3.220   1.682
 1288TIP3   OH2 3808   7.420   2.235   5.764
 1288TIP3    H1 3809   7.435   2.298   5.835
 1288TIP3    H2 3810   7.421   2.150   5.808
 1289TIP3   OH2 3811   0.210   2.632   0.601
 1289TIP3    H1 3812   0.272   2.666   0.665
 1289TIP3    H2 3813   0.172   2.710   0.560
 1290TIP3   OH2 3814   7.198   3.960   0.126
 1290TIP3    H1 3815   7.238   4.026   0.183
 1290TIP3    H2 3816   7.173   3.889   0.185
 1291TIP3   OH2 3817   7.426   0.392   4.666
 1291TIP3    H1 3818   7.464   0.399   4.754
 1291TIP3    H2 3819   7.457   0.470   4.620
 1292TIP3   OH2 3820   2.743   3.703   1.990
 1292TIP3    H1 3821   2.651   3.675   1.991
 1292TIP3    H2 3822   2.754   3.743   1.903
 1293TIP3   OH2 3823   5.868   1.990   2.206
 1293TIP3    H1 3824   5.946   1.974   2.257
 1293TIP3    H2 3825   5.899   2.040   2.130
 1294TIP3   OH2 3826   2.993   2.613   5.213
 1294TIP3    H1 3827   2.929   2.607   5.283
 1294TIP3    H2 3828   3.019   2.522   5.196
 1295TIP3   OH2 3829   6.691   7.002   5.608
 1295TIP3    H1 3830   6.597   6.991   5.597
 1295TIP3    H2 3831   6.714   6.943   5.680
 1296TIP3   OH2 3832   3.423   3.388   0.309
 1296TIP3    H1 3833   3.359   3.350   0.249
 1296TIP3    H2 3834   3.500   3.405   0.254
 1297TIP3   OH2 3835   2.068   1.747   1.420
 1297TIP3    H1 3836   2.022   1.763   1.503
 1297TIP3    H2 3837   2.154   1.786   1.433
 1298TIP3   OH2 3838   1.276   6.331   3.239
 1298TIP3    H1 3839   1.277   6.413   3.189
 1298TIP3    H2 3840   1.321   6.268   3.183
 1299TIP3   OH2 3841   0.850   2.266   2.994
 1299TIP3    H1 3842   0.915   2.231   2.933
 1299TIP3    H2 3843   0.865   2.218   3.075
 1300TIP3   OH2 3844   3.584   6.806   1.096
 1300TIP3    H1 3845   3.568   6.900   1.092
 1300TIP3    H2 3846   3.616   6.783   1.008
 1301TIP3   OH2 3847   0.911   5.905   1.903
 1301TIP3    H1 3848   0.975   5.873   1.841
 1301TIP3    H2 3849   0.958   5.969   1.957
 1302TIP3   OH2 3850   4.345   2.526   3.253
 1302TIP3    H1 3851   4.355   2.564   3.340
 1302TIP3    H2 3852   4.358   2.599   3.192
 1303TIP3   OH2 3853   3.656   0.551   2.236
 1303TIP3    H1 3854   3.665   0.477   2.175
 1303TIP3    H2 3855   3.661   0.629   2.180
 1304TIP3   OH2 3856   7.492   4.168   3.436
 1304TIP3    H1 3857   7.401   4.142   3.451
 1304TIP3    H2 3858   7.541   4.132   3.510
 1305TIP3   OH2 3859   7.210   3.827   0.395
 1305TIP3    H1 3860   7.301   3.800   0.401
 1305TIP3    H2 3861   7.202   3.901   0.455
 1306TIP3   OH2 3862   6.282   2.432   5.300
 1306TIP3    H1 3863   6.262   2.385   5.381
 1306TIP3    H2 3864   6.376   2.417   5.287
 1307TIP3   OH2 3865   7.927   3.714   4.352
 1307TIP3    H1 3866   7.928   3.722   4.447
 1307TIP3    H2 3867   7.944   3.621   4.336
 1308TIP3   OH2 3868   5.605   4.643   4.752
 1308TIP3    H1 3869   5.551   4.569   4.723
 1308TIP3    H2 3870   5.597   4.643   4.847
 1309TIP3   OH2 3871   2.805   7.126   4.821
 1309TIP3    H1 3872   2.845   7.047   4.858
 1309TIP3    H2 3873   2.865   7.154   4.753
 1310TIP3   OH2 3874   2.095   0.846   0.372
 1310TIP3    H1 3875   2.116   0.876   0.460
 1310TIP3    H2 3876   2.021   0.785   0.384
 1311TIP3   OH2 3877   3.008   7.106   0.334
 1311TIP3    H1 3878   3.048   7.143   0.255
 1311TIP3    H2 3879   2.994   7.014   0.312
 1312TIP3   OH2 3880   4.904   0.263   2.110
 1312TIP3    H1 3881   4.859   0.322   2.171
 1312TIP3    H2 3882   4.946   0.198   2.167
 1313TIP3   OH2 3883   0.781   0.733   3.796
 1313TIP3    H1 3884   0.813   0.767   3.880
 1313TIP3    H2 3885   0.828   0.784   3.730
 1314TIP3   OH2 3886   4.532   2.705   5.461
 1314TIP3    H1 3887   4.495   2.677   5.545
 1314TIP3    H2 3888   4.624   2.726   5.481
 1315TIP3   OH2 3889   6.252   1.084   5.086
 1315TIP3    H1 3890   6.249   1.171   5.047
 1315TIP3    H2 3891   6.167   1.074   5.129
 1316TIP3   OH2 3892   5.478   4.860   6.119
 1316TIP3    H1 3893   5.409   4.848   6.184
 1316TIP3    H2 3894   5.484   4.954   6.106
 1317TIP3   OH2 3895   6.331   3.331   6.313
 1317TIP3    H1 3896   6.282   3.397   6.361
 1317TIP3    H2 3897   6.366   3.273   6.380
 1318TIP3   OH2 3898   3.228   4.392   0.779
 1318TIP3    H1 3899   3.132   4.386   0.783
 1318TIP3    H2 3900   3.252   4.437   0.860
 1319TIP3   OH2 3901   7.432   5.728   4.153
 1319TIP3    H1 3902   7.446   5.744   4.246
 1319TIP3    H2 3903   7.427   5.632   4.146
 1320TIP3   OH2 3904   7.718   4.478   1.342
 1320TIP3    H1 3905   7.678   4.393   1.360
 1320TIP3    H2 3906   7.778   4.493   1.415
 1321TIP3   OH2 3907   6.314   0.706   5.396
 1321TIP3    H1 3908   6.395   0.681   5.441
 1321TIP3    H2 3909   6.245   0.657   5.442
 1322TIP3   OH2 3910   5.258   1.533   4.263
 1322TIP3    H1 3911   5.261   1.447   4.221
 1322TIP3    H2 3912   5.299   1.591   4.199
 1323TIP3   OH2 3913   7.287   3.331   3.218
 1323TIP3    H1 3914   7.362   3.385   3.241
 1323TIP3    H2 3915   7.299   3.251   3.269
 1324TIP3   OH2 3916   4.291   3.930   6.095
 1324TIP3    H1 3917   4.330   3.901   6.178
 1324TIP3    H2 3918   4.283   4.025   6.103
 1325TIP3   OH2 3919   0.515   2.362   5.525
 1325TIP3    H1 3920   0.479   2.386   5.611
 1325TIP3    H2 3921   0.530   2.445   5.482
 1326TIP3   OH2 3922   0.181   1.167   3.061
 1326TIP3    H1 3923   0.128   1.201   2.989
 1326TIP3    H2 3924   0.267   1.151   3.022
 1327TIP3   OH2 3925   5.728   4.334   5.677
 1327TIP3    H1 3926   5.726   4.430   5.685
 1327TIP3    H2 3927   5.637   4.309   5.661
 1328TIP3   OH2 3928   6.060   2.043   5.877
 1328TIP3    H1 3929   6.143   2.088   5.894
 1328TIP3    H2 3930   6.081   1.980   5.808
 1329TIP3   OH2 3931   3.671   5.748   5.204
 1329TIP3    H1 3932   3.732   5.806   5.250
 1329TIP3    H2 3933   3.598   5.805   5.180
 1330TIP3   OH2 3934   2.858   1.819   2.713
 1330TIP3    H1 3935   2.787   1.769   2.674
 1330TIP3    H2 3936   2.925   1.824   2.644
 1331TIP3   OH2 3937   4.317   6.255   3.775
 1331TIP3    H1 3938   4.384   6.216   3.831
 1331TIP3    H2 3939   4.366   6.288   3.699
 1332TIP3   OH2 3940   0.672   0.433   0.504
 1332TIP3    H1 3941   0.741   0.493   0.534
 1332TIP3    H2 3942   0.715   0.348   0.499
 1333TIP3   OH2 3943   6.865   4.969   4.283
 1333TIP3    H1 3944   6.787   4.963   4.338
 1333TIP3    H2 3945   6.899   4.879   4.279
 1334TIP3   OH2 3946   5.616   2.224   3.729
 1334TIP3    H1 3947   5.541   2.252   3.782
 1334TIP3    H2 3948   5.657   2.154   3.780
 1335TIP3   OH2 3949   1.706   2.089   0.870
 1335TIP3    H1 3950   1.770   2.140   0.820
 1335TIP3    H2 3951   1.733   2.099   0.961
 1336TIP3   OH2 3952   5.436   5.705   4.137
 1336TIP3    H1 3953   5.462   5.756   4.213
 1336TIP3    H2 3954   5.511   5.712   4.077
 1337TIP3   OH2 3955   6.301   5.364   3.791
 1337TIP3    H1 3956   6.390   5.387   3.766
 1337TIP3    H2 3957   6.282   5.420   3.867
 1338TIP3   OH2 3958   2.966   7.435   1.117
 1338TIP3    H1 3959   2.942   7.369   1.182
 1338TIP3    H2 3960   3.062   7.429   1.111
 1339TIP3   OH2 3961   7.671   3.615   5.792
 1339TIP3    H1 3962   7.682   3.706   5.763
 1339TIP3    H2 3963   7.746   3.601   5.851
 1340TIP3   OH2 3964   3.414   3.858   5.993
 1340TIP3    H1 3965   3.330   3.811   5.993
 1340TIP3    H2 3966   3.430   3.879   5.901
 1341TIP3   OH2 3967   1.306   5.619   5.631
 1341TIP3    H1 3968   1.261   5.548   5.675
 1341TIP3    H2 3969   1.241   5.657   5.572
 1342TIP3   OH2 3970   1.995   6.085   0.189
 1342TIP3    H1 3971   1.935   6.158   0.175
 1342TIP3    H2 3972   2.071   6.105   0.134
 1343TIP3   OH2 3973   4.643   7.699   5.388
 1343TIP3    H1 3974   4.652   7.792   5.409
 1343TIP3    H2 3975   4.555   7.677   5.418
 1344TIP3   OH2 3976   7.847   0.700   6.760
 1344TIP3    H1 3977   7.878   0.670   6.845
 1344TIP3    H2 3978   7.926   0.719   6.710
 1345TIP3   OH2 3979   3.492   3.429   4.489
 1345TIP3    H1 3980   3.472   3.345   4.530
 1345TIP3    H2 3981   3.578   3.453   4.524
 1346TIP3   OH2 3982   6.955   2.404   1.731
 1346TIP3    H1 3983   7.003   2.478   1.768
 1346TIP3    H2 3984   6.953   2.421   1.637
 1347TIP3   OH2 3985   5.279   3.422   5.890
 1347TIP3    H1 3986   5.324   3.350   5.847
 1347TIP3    H2 3987   5.332   3.499   5.868
 1348TIP3   OH2 3988   7.042   6.163   0.596
 1348TIP3    H1 3989   6.983   6.096   0.630
 1348TIP3    H2 3990   7.035   6.155   0.501
 1349TIP3   OH2 3991   3.521   7.071   1.713
 1349TIP3    H1 3992   3.496   7.022   1.792
 1349TIP3    H2 3993   3.576   7.142   1.745
 1350TIP3   OH2 3994   4.035   6.613   3.188
 1350TIP3    H1 3995   4.004   6.674   3.121
 1350TIP3    H2 3996   3.981   6.534   3.175
 1351TIP3   OH2 3997   0.406   2.359   0.433
 1351TIP3    H1 3998   0.324   2.325   0.470
 1351TIP3    H2 3999   0.444   2.411   0.503
 1352TIP3   OH2 4000   1.379   3.055   0.859
 1352TIP3    H1 4001   1.374   3.033   0.766
 1352TIP3    H2 4002   1.455   3.007   0.891
 1353TIP3   OH2 4003   6.125   3.597   2.260
 1353TIP3    H1 4004   6.107   3.531   2.327
 1353TIP3    H2 4005   6.082   3.677   2.293
 1354TIP3   OH2 4006   5.351   7.355   4.059
 1354TIP3    H1 4007   5.436   7.318   4.036
 1354TIP3    H2 4008   5.295   7.279   4.077
 1355TIP3   OH2 4009   5.269   4.383   6.109
 1355TIP3    H1 4010   5.269   4.290   6.085
 1355TIP3    H2 4011   5.264   4.383   6.204
 1356TIP3   OH2 4012   2.541   2.692   4.713
 1356TIP3    H1 4013   2.571   2.606   4.744
 1356TIP3    H2 4014   2.503   2.674   4.627
 1357TIP3   OH2 4015   4.847   4.133   4.858
 1357TIP3    H1 4016   4.819   4.042   4.871
 1357TIP3    H2 4017   4.802   4.182   4.927
 1358TIP3   OH2 4018   7.633   1.798   2.502
 1358TIP3    H1 4019   7.577   1.789   2.579
 1358TIP3    H2 4020   7.717   1.761   2.529
 1359TIP3   OH2 4021   0.171   5.897   1.610
 1359TIP3    H1 4022   0.113   5.866   1.540
 1359TIP3    H2 4023   0.197   5.817   1.656
 1360TIP3   OH2 4024   1.427   5.980   5.853
 1360TIP3    H1 4025   1.468   5.898   5.827
 1360TIP3    H2 4026   1.335   5.970   5.827
 1361TIP3   OH2 4027   5.821   4.859   4.960
 1361TIP3    H1 4028   5.782   4.772   4.969
 1361TIP3    H2 4029   5.863   4.875   5.045
 1362TIP3   OH2 4030   5.666   1.534   6.340
 1362TIP3    H1 4031   5.665   1.454   6.394
 1362TIP3    H2 4032   5.625   1.600   6.396
 1363TIP3   OH2 4033   1.242   4.703   2.864
 1363TIP3    H1 4034   1.296   4.745   2.797
 1363TIP3    H2 4035   1.243   4.764   2.938
 1364TIP3   OH2 4036   1.534   7.844   6.023
 1364TIP3    H1 4037   1.524   7.885   5.937
 1364TIP3    H2 4038   1.603   7.779   6.010
 1365TIP3   OH2 4039   1.787   2.657   3.703
 1365TIP3    H1 4040   1.717   2.592   3.703
 1365TIP3    H2 4041   1.765   2.717   3.632
 1366TIP3   OH2 4042   8.062   4.364   2.263
 1366TIP3    H1 4043   8.143   4.367   2.314
 1366TIP3    H2 4044   8.036   4.456   2.256
 1367TIP3   OH2 4045   1.825   4.922   2.501
 1367TIP3    H1 4046   1.788   4.925   2.589
 1367TIP3    H2 4047   1.799   5.005   2.461
 1368TIP3   OH2 4048   5.769   6.617   3.005
 1368TIP3    H1 4049   5.741   6.706   2.983
 1368TIP3    H2 4050   5.701   6.583   3.062
 1369TIP3   OH2 4051   4.338   5.242   5.764
 1369TIP3    H1 4052   4.380   5.197   5.691
 1369TIP3    H2 4053   4.254   5.271   5.729
 1370TIP3   OH2 4054   3.204   7.248   2.545
 1370TIP3    H1 4055   3.279   7.218   2.494
 1370TIP3    H2 4056   3.235   7.246   2.636
 1371TIP3   OH2 4057   3.736   4.801   6.225
 1371TIP3    H1 4058   3.746   4.710   6.254
 1371TIP3    H2 4059   3.757   4.799   6.131
 1372TIP3   OH2 4060   7.027   5.380   1.000
 1372TIP3    H1 4061   6.988   5.297   1.026
 1372TIP3    H2 4062   6.985   5.401   0.917
 1373TIP3   OH2 4063   8.029   7.001   0.256
 1373TIP3    H1 4064   7.991   6.929   0.307
 1373TIP3    H2 4065   8.047   6.962   0.170
 1374TIP3   OH2 4066   3.876   2.049   0.019
 1374TIP3    H1 4067   3.882   2.080   0.110
 1374TIP3    H2 4068   3.785   2.021   0.010
 1375TIP3   OH2 4069   7.756   3.323   2.548
 1375TIP3    H1 4070   7.680   3.348   2.600
 1375TIP3    H2 4071   7.828   3.375   2.585
 1376TIP3   OH2 4072   7.756   7.710   3.140
 1376TIP3    H1 4073   7.736   7.704   3.046
 1376TIP3    H2 4074   7.824   7.645   3.154
 1377TIP3   OH2 4075   5.858   2.186   0.460
 1377TIP3    H1 4076   5.945   2.158   0.433
 1377TIP3    H2 4077   5.816   2.215   0.379
 1378TIP3   OH2 4078   2.694   7.763   2.830
 1378TIP3    H1 4079   2.732   7.836   2.879
 1378TIP3    H2 4080   2.611   7.796   2.798
 1379TIP3   OH2 4081   4.006   5.905   3.658
 1379TIP3    H1 4082   4.088   5.942   3.623
 1379TIP3    H2 4083   3.997   5.944   3.745
 1380TIP3   OH2 4084   1.885   3.784   6.256
 1380TIP3    H1 4085   1.843   3.856   6.302
 1380TIP3    H2 4086   1.978   3.810   6.251
 1381TIP3   OH2 4087   6.211   5.725   6.293
 1381TIP3    H1 4088   6.223   5.705   6.386
 1381TIP3    H2 4089   6.296   5.708   6.254
 1382TIP3   OH2 4090   5.884   5.938   5.470
 1382TIP3    H1 4091   5.929   5.945   5.386
 1382TIP3    H2 4092   5.897   5.847   5.496
 1383TIP3   OH2 4093   5.484   1.558   0.148
 1383TIP3    H1 4094   5.579   1.565   0.157
 1383TIP3    H2 4095   5.450   1.625   0.208
 1384TIP3   OH2 4096   2.634   5.053   0.809
 1384TIP3    H1 4097   2.590   4.968   0.814
 1384TIP3    H2 4098   2.606   5.090   0.725
 1385TIP3   OH2 4099   1.151   1.370   3.284
 1385TIP3    H1 4100   1.195   1.287   3.305
 1385TIP3    H2 4101   1.120   1.358   3.194
 1386TIP3   OH2 4102   6.912   7.683   4.616
 1386TIP3    H1 4103   6.908   7.774   4.586
 1386TIP3    H2 4104   6.963   7.638   4.549
 1387TIP3   OH2 4105   4.615   5.789   0.371
 1387TIP3    H1 4106   4.681   5.833   0.425
 1387TIP3    H2 4107   4.553   5.751   0.434
 1388TIP3   OH2 4108   1.298   5.561   4.534
 1388TIP3    H1 4109   1.338   5.612   4.463
 1388TIP3    H2 4110   1.225   5.515   4.493
 1389TIP3   OH2 4111   4.553   0.937   6.486
 1389TIP3    H1 4112   4.589   1.025   6.494
 1389TIP3    H2 4113   4.460   0.950   6.467
 1390TIP3   OH2 4114   0.026   3.540   1.150
 1390TIP3    H1 4115   0.036   3.454   1.109
 1390TIP3    H2 4116  -0.022   3.523   1.231
 1391TIP3   OH2 4117   2.597   7.059   0.867
 1391TIP3    H1 4118   2.689   7.085   0.860
 1391TIP3    H2 4119   2.582   7.003   0.791
 1392TIP3   OH2 4120   7.010   2.813   3.092
 1392TIP3    H1 4121   7.059   2.744   3.047
 1392TIP3    H2 4122   7.067   2.889   3.087
 1393TIP3   OH2 4123   0.539   5.031   0.042
 1393TIP3    H1 4124   0.580   5.101   0.094
 1393TIP3    H2 4125   0.541   5.064  -0.048
 1394TIP3   OH2 4126   0.211   3.663   3.715
 1394TIP3    H1 4127   0.159   3.727   3.667
 1394TIP3    H2 4128   0.242   3.711   3.792
 1395TIP3   OH2 4129   2.042   4.703   5.173
 1395TIP3    H1 4130   2.135   4.686   5.154
 1395TIP3    H2 4131   2.003   4.616   5.180
 1396TIP3   OH2 4132   0.459   5.516   0.154
 1396TIP3    H1 4133   0.369   5.507   0.186
 1396TIP3    H2 4134   0.513   5.502   0.232
 1397TIP3   OH2 4135   1.347   2.135   0.545
 1397TIP3    H1 4136   1.275   2.176   0.594
 1397TIP3    H2 4137   1.356   2.049   0.586
 1398TIP3   OH2 4138   6.005   6.102   3.515
 1398TIP3    H1 4139   6.008   6.090   3.610
 1398TIP3    H2 4140   6.088   6.066   3.484
 1399TIP3   OH2 4141   7.194   6.544   3.170
 1399TIP3    H1 4142   7.201   6.450   3.186
 1399TIP3    H2 4143   7.284   6.576   3.178
 1400TIP3   OH2 4144   4.215   7.346   2.811
 1400TIP3    H1 4145   4.220   7.440   2.793
 1400TIP3    H2 4146   4.160   7.311   2.742
 1401TIP3   OH2 4147   3.010   6.245   5.966
 1401TIP3    H1 4148   3.051   6.162   5.988
 1401TIP3    H2 4149   3.084   6.305   5.951
 1402TIP3   OH2 4150   0.630   0.843   3.543
 1402TIP3    H1 4151   0.665   0.890   3.466
 1402TIP3    H2 4152   0.707   0.829   3.599
 1403TIP3   OH2 4153   7.672   2.810   0.741
 1403TIP3    H1 4154   7.603   2.745   0.756
 1403TIP3    H2 4155   7.628   2.894   0.750
 1404TIP3   OH2 4156   0.923   4.422   5.508
 1404TIP3    H1 4157   0.987   4.352   5.500
 1404TIP3    H2 4158   0.972   4.494   5.548
 1405TIP3   OH2 4159   4.442   3.863   3.632
 1405TIP3    H1 4160   4.433   3.919   3.709
 1405TIP3    H2 4161   4.353   3.841   3.608
 1406TIP3   OH2 4162   3.282   7.573   2.378
 1406TIP3    H1 4163   3.209   7.514   2.394
 1406TIP3    H2 4164   3.246   7.641   2.320
 1407TIP3   OH2 4165   0.034   1.916   6.606
 1407TIP3    H1 4166   0.058   1.824   6.618
 1407TIP3    H2 4167   0.088   1.945   6.532
 1408TIP3   OH2 4168   8.245   1.542   3.662
 1408TIP3    H1 4169   8.335   1.539   3.628
 1408TIP3    H2 4170   8.207   1.459   3.636
 1409TIP3   OH2 4171   1.102   2.019   3.104
 1409TIP3    H1 4172   1.094   2.079   3.029
 1409TIP3    H2 4173   1.028   2.041   3.160
 1410TIP3   OH2 4174   3.018   3.939   5.823
 1410TIP3    H1 4175   2.941   3.942   5.880
 1410TIP3    H2 4176   3.048   3.848   5.827
 1411TIP3   OH2 4177   6.710   1.736   3.691
 1411TIP3    H1 4178   6.641   1.671   3.698
 1411TIP3    H2 4179   6.666   1.820   3.702
 1412TIP3   OH2 4180   4.765   7.509   1.623
 1412TIP3    H1 4181   4.799   7.459   1.548
 1412TIP3    H2 4182   4.839   7.561   1.652
 1413TIP3   OH2 4183   2.931   4.431   0.197
 1413TIP3    H1 4184   2.968   4.376   0.129
 1413TIP3    H2 4185   2.930   4.519   0.159
 1414TIP3   OH2 4186   1.809   3.591   4.762
 1414TIP3    H1 4187   1.877   3.633   4.710
 1414TIP3    H2 4188   1.771   3.662   4.813
 1415TIP3   OH2 4189   5.899   2.141   3.867
 1415TIP3    H1 4190   5.988   2.132   3.834
 1415TIP3    H2 4191   5.910   2.173   3.957
 1416TIP3   OH2 4192   6.023   4.296   0.700
 1416TIP3    H1 4193   6.096   4.355   0.717
 1416TIP3    H2 4194   5.977   4.290   0.784
 1417TIP3   OH2 4195   5.344   1.739   1.022
 1417TIP3    H1 4196   5.356   1.747   0.927
 1417TIP3    H2 4197   5.252   1.757   1.036
 1418TIP3   OH2 4198   6.310   5.921   1.294
 1418TIP3    H1 4199   6.392   5.944   1.251
 1418TIP3    H2 4200   6.326   5.835   1.333
 1419TIP3   OH2 4201   3.122   2.882   0.086
 1419TIP3    H1 4202   3.149   2.920   0.003
 1419TIP3    H2 4203   3.105   2.790   0.065
 1420TIP3   OH2 4204   4.185   0.212   1.607
 1420TIP3    H1 4205   4.158   0.239   1.519
 1420TIP3    H2 4206   4.149   0.279   1.665
 1421TIP3   OH2 4207   2.881   4.595   4.497
 1421TIP3    H1 4208   2.973   4.603   4.471
 1421TIP3    H2 4209   2.871   4.658   4.568
 1422TIP3   OH2 4210   0.348   2.256   3.075
 1422TIP3    H1 4211   0.430   2.226   3.112
 1422TIP3    H2 4212   0.284   2.188   3.099
 1423TIP3   OH2 4213   3.548   3.003   5.176
 1423TIP3    H1 4214   3.503   2.919   5.185
 1423TIP3    H2 4215   3.550   3.039   5.265
 1424TIP3   OH2 4216   5.357   4.069   6.605
 1424TIP3    H1 4217   5.320   4.039   6.688
 1424TIP3    H2 4218   5.451   4.050   6.613
 1425TIP3   OH2 4219   0.633   7.836   6.395
 1425TIP3    H1 4220   0.618   7.752   6.437
 1425TIP3    H2 4221   0.666   7.815   6.308
 1426TIP3   OH2 4222   7.377   0.409   6.187
 1426TIP3    H1 4223   7.357   0.325   6.229
 1426TIP3    H2 4224   7.448   0.446   6.240
 1427TIP3   OH2 4225   3.049   7.460   2.515
 1427TIP3    H1 4226   2.992   7.474   2.590
 1427TIP3    H2 4227   3.092   7.376   2.533
 1428TIP3   OH2 4228   5.623   3.731   2.027
 1428TIP3    H1 4229   5.559   3.792   1.991
 1428TIP3    H2 4230   5.668   3.695   1.950
 1429TIP3   OH2 4231   3.106   0.366   1.462
 1429TIP3    H1 4232   3.055   0.447   1.466
 1429TIP3    H2 4233   3.137   0.353   1.551
 1430TIP3   OH2 4234   7.237   6.316   2.821
 1430TIP3    H1 4235   7.230   6.336   2.728
 1430TIP3    H2 4236   7.304   6.248   2.826
 1431TIP3   OH2 4237   4.578   6.744   1.076
 1431TIP3    H1 4238   4.518   6.805   1.118
 1431TIP3    H2 4239   4.545   6.657   1.101
 1432TIP3   OH2 4240   5.434   2.104   2.389
 1432TIP3    H1 4241   5.355   2.103   2.336
 1432TIP3    H2 4242   5.490   2.170   2.347
 1433TIP3   OH2 4243   3.025   0.432   2.798
 1433TIP3    H1 4244   3.026   0.368   2.727
 1433TIP3    H2 4245   3.086   0.500   2.770
 1434TIP3   OH2 4246   3.350   3.949   6.271
 1434TIP3    H1 4247   3.333   3.944   6.177
 1434TIP3    H2 4248   3.414   4.019   6.280
 1435TIP3   OH2 4249   6.533   6.838   4.913
 1435TIP3    H1 4250   6.551   6.931   4.896
 1435TIP3    H2 4251   6.441   6.826   4.889
 1436TIP3   OH2 4252   7.030   4.157   3.019
 1436TIP3    H1 4253   6.962   4.205   2.973
 1436TIP3    H2 4254   7.005   4.160   3.111
 1437TIP3   OH2 4255   1.834   6.354   3.077
 1437TIP3    H1 4256   1.765   6.362   3.142
 1437TIP3    H2 4257   1.882   6.275   3.101
 1438TIP3   OH2 4258   6.167   3.479   4.590
 1438TIP3    H1 4259   6.212   3.555   4.554
 1438TIP3    H2 4260   6.234   3.411   4.594
 1439TIP3   OH2 4261   7.448   1.489   2.175
 1439TIP3    H1 4262   7.430   1.439   2.096
 1439TIP3    H2 4263   7.543   1.487   2.184
 1440TIP3   OH2 4264   2.853   2.319   3.175
 1440TIP3    H1 4265   2.942   2.349   3.197
 1440TIP3    H2 4266   2.808   2.314   3.259
 1441TIP3   OH2 4267   4.495   2.086   4.535
 1441TIP3    H1 4268   4.514   2.086   4.629
 1441TIP3    H2 4269   4.578   2.059   4.494
 1442TIP3   OH2 4270   4.786   6.255   5.889
 1442TIP3    H1 4271   4.727   6.180   5.884
 1442TIP3    H2 4272   4.836   6.241   5.969
 1443TIP3   OH2 4273   5.488   0.353   6.739
 1443TIP3    H1 4274   5.416   0.370   6.677
 1443TIP3    H2 4275   5.485   0.258   6.752
 1444TIP3   OH2 4276   5.697   7.646   1.034
 1444TIP3    H1 4277   5.730   7.581   0.973
 1444TIP3    H2 4278   5.768   7.657   1.098
 1445TIP3   OH2 4279   5.756   1.634   3.019
 1445TIP3    H1 4280   5.790   1.714   2.978
 1445TIP3    H2 4281   5.686   1.665   3.076
 1446TIP3   OH2 4282   7.598   2.236   2.987
 1446TIP3    H1 4283   7.657   2.311   2.980
 1446TIP3    H2 4284   7.583   2.226   3.081
 1447TIP3   OH2 4285   0.556   3.692   2.783
 1447TIP3    H1 4286   0.476   3.720   2.829
 1447TIP3    H2 4287   0.541   3.600   2.763
 1448TIP3   OH2 4288   0.117   0.138   1.605
 1448TIP3    H1 4289   0.044   0.186   1.565
 1448TIP3    H2 4290   0.074   0.070   1.657
 1449TIP3   OH2 4291   7.849   7.629   1.153
 1449TIP3    H1 4292   7.942   7.651   1.150
 1449TIP3    H2 4293   7.848   7.534   1.165
 1450TIP3   OH2 4294   5.509   2.359   5.786
 1450TIP3    H1 4295   5.569   2.402   5.725
 1450TIP3    H2 4296   5.510   2.414   5.864
 1451TIP3   OH2 4297   6.428   1.321   1.350
 1451TIP3    H1 4298   6.393   1.340   1.437
 1451TIP3    H2 4299   6.494   1.390   1.336
 1452TIP3   OH2 4300   2.878   7.120   4.072
 1452TIP3    H1 4301   2.847   7.158   4.155
 1452TIP3    H2 4302   2.955   7.069   4.097
 1453TIP3   OH2 4303   6.280   4.019   2.070
 1453TIP3    H1 4304   6.355   3.975   2.112
 1453TIP3    H2 4305   6.312   4.107   2.051
 1454TIP3   OH2 4306   5.975   0.301   4.278
 1454TIP3    H1 4307   6.058   0.344   4.258
 1454TIP3    H2 4308   5.989   0.209   4.254
 1455TIP3   OH2 4309   4.427   3.197   1.209
 1455TIP3    H1 4310   4.358   3.149   1.255
 1455TIP3    H2 4311   4.499   3.135   1.202
 1456TIP3   OH2 4312   6.632   3.887   4.531
 1456TIP3    H1 4313   6.562   3.952   4.526
 1456TIP3    H2 4314   6.708   3.935   4.564
 1457TIP3   OH2 4315   1.232   1.465   4.004
 1457TIP3    H1 4316   1.235   1.482   3.910
 1457TIP3    H2 4317   1.143   1.490   4.030
 1458TIP3   OH2 4318   6.069   0.079   4.165
 1458TIP3    H1 4319   6.110   0.136   4.101
 1458TIP3    H2 4320   6.131   0.007   4.178
 1459TIP3   OH2 4321   0.740   1.634   5.198
 1459TIP3    H1 4322   0.724   1.647   5.292
 1459TIP3    H2 4323   0.653   1.621   5.161
 1460TIP3   OH2 4324   3.065   3.091   2.404
 1460TIP3    H1 4325   3.111   3.070   2.486
 1460TIP3    H2 4326   2.975   3.062   2.419
 1461TIP3   OH2 4327   1.652   5.137   2.988
 1461TIP3    H1 4328   1.563   5.107   2.969
 1461TIP3    H2 4329   1.662   5.126   3.082
 1462TIP3   OH2 4330   0.213   3.539   4.629
 1462TIP3    H1 4331   0.275   3.612   4.629
 1462TIP3    H2 4332   0.234   3.490   4.550
 1463TIP3   OH2 4333   7.204   5.246   0.047
 1463TIP3    H1 4334   7.130   5.251   0.108
 1463TIP3    H2 4335   7.249   5.329   0.057
 1464TIP3   OH2 4336   3.727   5.920   2.964
 1464TIP3    H1 4337   3.813   5.886   2.940
 1464TIP3    H2 4338   3.715   5.996   2.907
 1465TIP3   OH2 4339   3.661   2.819   6.521
 1465TIP3    H1 4340   3.609   2.753   6.476
 1465TIP3    H2 4341   3.623   2.903   6.494
 1466TIP3   OH2 4342   2.658   2.858   0.455
 1466TIP3    H1 4343   2.643   2.949   0.480
 1466TIP3    H2 4344   2.753   2.850   0.448
 1467TIP3   OH2 4345   6.612   7.751   0.794
 1467TIP3    H1 4346   6.533   7.793   0.758
 1467TIP3    H2 4347   6.659   7.821   0.838
 1468TIP3   OH2 4348   6.596   0.276   2.021
 1468TIP3    H1 4349   6.527   0.248   2.081
 1468TIP3    H2 4350   6.583   0.222   1.942
 1469TIP3   OH2 4351   3.427   5.335   3.244
 1469TIP3    H1 4352   3.419   5.364   3.153
 1469TIP3    H2 4353   3.477   5.253   3.240
 1470TIP3   OH2 4354   5.712   0.278   3.824
 1470TIP3    H1 4355   5.716   0.284   3.919
 1470TIP3    H2 4356   5.796   0.311   3.794
 1471TIP3   OH2 4357   0.434   5.759   1.838
 1471TIP3    H1 4358   0.521   5.798   1.825
 1471TIP3    H2 4359   0.412   5.777   1.929
 1472TIP3   OH2 4360   3.773   3.262   3.236
 1472TIP3    H1 4361   3.802   3.314   3.161
 1472TIP3    H2 4362   3.845   3.200   3.252
 1473TIP3   OH2 4363   2.197   2.181   0.584
 1473TIP3    H1 4364   2.292   2.174   0.591
 1473TIP3    H2 4365   2.182   2.267   0.543
 1474TIP3   OH2 4366   2.414   2.796   1.588
 1474TIP3    H1 4367   2.335   2.789   1.642
 1474TIP3    H2 4368   2.407   2.724   1.525
 1475TIP3   OH2 4369   4.023   6.886   0.128
 1475TIP3    H1 4370   4.079   6.957   0.098
 1475TIP3    H2 4371   4.075   6.841   0.195
 1476TIP3   OH2 4372   3.742   1.059   4.644
 1476TIP3    H1 4373   3.671   1.053   4.706
 1476TIP3    H2 4374   3.699   1.067   4.558
 1477TIP3   OH2 4375   0.343   3.124   0.482
 1477TIP3    H1 4376   0.340   3.056   0.550
 1477TIP3    H2 4377   0.265   3.177   0.499
 1478TIP3   OH2 4378   1.402   2.879   6.662
 1478TIP3    H1 4379   1.371   2.873   6.752
 1478TIP3    H2 4380   1.322   2.874   6.609
 1479TIP3   OH2 4381   3.751   7.534   2.310
 1479TIP3    H1 4382   3.765   7.624   2.340
 1479TIP3    H2 4383   3.675   7.504   2.360
 1480TIP3   OH2 4384   4.322   2.514   5.395
 1480TIP3    H1 4385   4.346   2.605   5.411
 1480TIP3    H2 4386   4.320   2.507   5.299
 1481TIP3   OH2 4387   8.183   6.870   1.798
 1481TIP3    H1 4388   8.223   6.944   1.752
 1481TIP3    H2 4389   8.250   6.840   1.858
 1482TIP3   OH2 4390   3.708   7.705   3.335
 1482TIP3    H1 4391   3.658   7.786   3.340
 1482TIP3    H2 4392   3.643   7.637   3.317
 1483TIP3   OH2 4393   5.474   6.371   1.764
 1483TIP3    H1 4394   5.443   6.462   1.763
 1483TIP3    H2 4395   5.412   6.325   1.821
 1484TIP3   OH2 4396   1.310   2.319   5.028
 1484TIP3    H1 4397   1.278   2.279   4.948
 1484TIP3    H2 4398   1.295   2.253   5.096
 1485TIP3   OH2 4399   7.012   6.714   5.076
 1485TIP3    H1 4400   7.018   6.619   5.071
 1485TIP3    H2 4401   6.919   6.733   5.061
 1486TIP3   OH2 4402   6.341   7.593   6.394
 1486TIP3    H1 4403   6.341   7.508   6.349
 1486TIP3    H2 4404   6.339   7.572   6.487
 1487TIP3   OH2 4405   8.185   4.803   6.340
 1487TIP3    H1 4406   8.148   4.844   6.418
 1487TIP3    H2 4407   8.127   4.829   6.268
 1488TIP3   OH2 4408   4.563   2.031   5.612
 1488TIP3    H1 4409   4.569   1.971   5.537
 1488TIP3    H2 4410   4.488   2.086   5.592
 1489TIP3   OH2 4411   6.882   4.907   0.632
 1489TIP3    H1 4412   6.869   4.969   0.560
 1489TIP3    H2 4413   6.810   4.926   0.693
 1490TIP3   OH2 4414   7.493   6.922   0.665
 1490TIP3    H1 4415   7.545   6.917   0.746
 1490TIP3    H2 4416   7.445   7.004   0.672
 1491TIP3   OH2 4417   7.441   6.629   1.468
 1491TIP3    H1 4418   7.513   6.686   1.496
 1491TIP3    H2 4419   7.452   6.548   1.517
 1492TIP3   OH2 4420   7.952   3.050   0.991
 1492TIP3    H1 4421   7.934   3.099   0.911
 1492TIP3    H2 4422   8.009   3.107   1.042
 1493TIP3   OH2 4423   4.704   2.575   1.897
 1493TIP3    H1 4424   4.711   2.542   1.987
 1493TIP3    H2 4425   4.776   2.637   1.888
 1494TIP3   OH2 4426   5.959   6.666   1.676
 1494TIP3    H1 4427   5.890   6.640   1.737
 1494TIP3    H2 4428   5.983   6.585   1.631
 1495TIP3   OH2 4429   8.284   2.058   5.176
 1495TIP3    H1 4430   8.200   2.072   5.134
 1495TIP3    H2 4431   8.320   2.145   5.188
 1496TIP3   OH2 4432   6.294   3.177   4.399
 1496TIP3    H1 4433   6.376   3.139   4.367
 1496TIP3    H2 4434   6.228   3.147   4.336
 1497TIP3   OH2 4435   0.239   0.212   1.914
 1497TIP3    H1 4436   0.247   0.240   1.823
 1497TIP3    H2 4437   0.321   0.166   1.932
 1498TIP3   OH2 4438   0.296   3.744   5.132
 1498TIP3    H1 4439   0.243   3.674   5.094
 1498TIP3    H2 4440   0.384   3.730   5.097
 1499TIP3   OH2 4441   2.882   5.069   3.857
 1499TIP3    H1 4442   2.835   5.094   3.937
 1499TIP3    H2 4443   2.974   5.085   3.878
 1500TIP3   OH2 4444   5.175   7.630   6.428
 1500TIP3    H1 4445   5.235   7.615   6.501
 1500TIP3    H2 4446   5.151   7.722   6.435
 1501TIP3   OH2 4447   5.417   0.549   3.421
 1501TIP3    H1 4448   5.417   0.586   3.509
 1501TIP3    H2 4449   5.411   0.455   3.435
 1502TIP3   OH2 4450   5.926   2.447   2.863
 1502TIP3    H1 4451   5.993   2.455   2.931
 1502TIP3    H2 4452   5.973   2.412   2.787
 1503TIP3   OH2 4453   2.593   3.330   1.283
 1503TIP3    H1 4454   2.663   3.395   1.293
 1503TIP3    H2 4455   2.534   3.347   1.356
 1504TIP3   OH2 4456   4.038   0.451   5.644
 1504TIP3    H1 4457   4.082   0.368   5.665
 1504TIP3    H2 4458   3.976   0.465   5.715
 1505TIP3   OH2 4459   1.375   4.838   6.105
 1505TIP3    H1 4460   1.360   4.932   6.089
 1505TIP3    H2 4461   1.457   4.819   6.058
 1506TIP3   OH2 4462   3.761   5.384   3.397
 1506TIP3    H1 4463   3.847   5.396   3.436
 1506TIP3    H2 4464   3.780   5.354   3.308
 1507TIP3   OH2 4465   1.877   2.814   5.587
 1507TIP3    H1 4466   1.913   2.776   5.507
 1507TIP3    H2 4467   1.805   2.869   5.556
 1508TIP3   OH2 4468   0.225   6.437   2.163
 1508TIP3    H1 4469   0.278   6.500   2.114
 1508TIP3    H2 4470   0.283   6.361   2.173
 1509TIP3   OH2 4471   6.993   1.112   0.928
 1509TIP3    H1 4472   7.064   1.159   0.972
 1509TIP3    H2 4473   7.035   1.036   0.889
 1510TIP3   OH2 4474   4.172   6.745   6.600
 1510TIP3    H1 4475   4.234   6.677   6.572
 1510TIP3    H2 4476   4.099   6.738   6.538
 1511TIP3   OH2 4477   4.291   2.996   1.989
 1511TIP3    H1 4478   4.213   2.950   1.960
 1511TIP3    H2 4479   4.307   3.063   1.922
 1512TIP3   OH2 4480   7.285   1.505   5.247
 1512TIP3    H1 4481   7.238   1.436   5.294
 1512TIP3    H2 4482   7.301   1.468   5.160
 1513TIP3   OH2 4483   6.894   2.409   0.526
 1513TIP3    H1 4484   6.849   2.325   0.515
 1513TIP3    H2 4485   6.849   2.468   0.465
 1514TIP3   OH2 4486   7.849   6.614   1.176
 1514TIP3    H1 4487   7.866   6.699   1.136
 1514TIP3    H2 4488   7.786   6.633   1.246
 1515TIP3   OH2 4489   6.516   4.950   2.527
 1515TIP3    H1 4490   6.489   4.888   2.595
 1515TIP3    H2 4491   6.471   4.919   2.448
 1516TIP3   OH2 4492   6.617   5.613   5.235
 1516TIP3    H1 4493   6.705   5.616   5.273
 1516TIP3    H2 4494   6.580   5.531   5.268
 1517TIP3   OH2 4495   7.185   0.724   3.229
 1517TIP3    H1 4496   7.135   0.719   3.311
 1517TIP3    H2 4497   7.157   0.647   3.180
 1518TIP3   OH2 4498   7.696   0.347   4.464
 1518TIP3    H1 4499   7.618   0.375   4.512
 1518TIP3    H2 4500   7.733   0.428   4.428
 1519TIP3   OH2 4501   2.989   2.770   1.707
 1519TIP3    H1 4502   3.032   2.685   1.706
 1519TIP3    H2 4503   2.957   2.780   1.797
 1520TIP3   OH2 4504   1.149   3.224   2.583
 1520TIP3    H1 4505   1.236   3.219   2.623
 1520TIP3    H2 4506   1.099   3.154   2.623
 1521TIP3   OH2 4507   1.562   5.244   4.699
 1521TIP3    H1 4508   1.499   5.316   4.699
 1521TIP3    H2 4509   1.646   5.286   4.715
 1522TIP3   OH2 4510   4.894   4.855   5.601
 1522TIP3    H1 4511   4.828   4.793   5.633
 1522TIP3    H2 4512   4.931   4.813   5.524
 1523TIP3   OH2 4513   2.880   4.035   2.596
 1523TIP3    H1 4514   2.938   3.960   2.594
 1523TIP3    H2 4515   2.925   4.099   2.652
 1524TIP3   OH2 4516   5.379   4.749   4.991
 1524TIP3    H1 4517   5.307   4.700   4.949
 1524TIP3    H2 4518   5.344   4.837   5.002
 1525TIP3   OH2 4519   3.266   4.846   4.885
 1525TIP3    H1 4520   3.229   4.777   4.940
 1525TIP3    H2 4521   3.209   4.849   4.808
 1526TIP3   OH2 4522   5.925   6.898   5.685
 1526TIP3    H1 4523   5.895   6.815   5.648
 1526TIP3    H2 4524   5.910   6.963   5.616
 1527TIP3   OH2 4525   3.023   4.491   4.899
 1527TIP3    H1 4526   3.022   4.587   4.901
 1527TIP3    H2 4527   3.027   4.466   4.992
 1528TIP3   OH2 4528   7.741   1.584   5.783
 1528TIP3    H1 4529   7.673   1.566   5.717
 1528TIP3    H2 4530   7.746   1.503   5.834
 1529TIP3   OH2 4531   7.786   4.780   0.882
 1529TIP3    H1 4532   7.823   4.693   0.863
 1529TIP3    H2 4533   7.854   4.841   0.856
 1530TIP3   OH2 4534   4.241   4.660   2.094
 1530TIP3    H1 4535   4.327   4.631   2.126
 1530TIP3    H2 4536   4.185   4.583   2.105
 1531TIP3   OH2 4537   5.426   0.799   2.719
 1531TIP3    H1 4538   5.453   0.721   2.671
 1531TIP3    H2 4539   5.508   0.839   2.749
 1532TIP3   OH2 4540   6.659   5.725   5.781
 1532TIP3    H1 4541   6.587   5.740   5.841
 1532TIP3    H2 4542   6.682   5.811   5.747
 1533TIP3   OH2 4543   5.807   1.089   3.291
 1533TIP3    H1 4544   5.762   1.020   3.242
 1533TIP3    H2 4545   5.873   1.043   3.342
 1534TIP3   OH2 4546   0.879   6.816   4.570
 1534TIP3    H1 4547   0.827   6.742   4.601
 1534TIP3    H2 4548   0.928   6.781   4.495
 1535TIP3   OH2 4549   0.958   1.465   2.071
 1535TIP3    H1 4550   0.982   1.557   2.072
 1535TIP3    H2 4551   0.868   1.464   2.037
 1536TIP3   OH2 4552   5.219   7.508   4.244
 1536TIP3    H1 4553   5.206   7.446   4.173
 1536TIP3    H2 4554   5.256   7.586   4.202
 1537TIP3   OH2 4555   4.769   3.701   2.574
 1537TIP3    H1 4556   4.775   3.614   2.536
 1537TIP3    H2 4557   4.677   3.725   2.567
 1538TIP3   OH2 4558   2.622   5.525   4.362
 1538TIP3    H1 4559   2.620   5.553   4.271
 1538TIP3    H2 4560   2.572   5.593   4.409
 1539TIP3   OH2 4561   2.644   5.200   5.175
 1539TIP3    H1 4562   2.643   5.106   5.190
 1539TIP3    H2 4563   2.733   5.219   5.147
 1540TIP3   OH2 4564   7.253   3.270   0.502
 1540TIP3    H1 4565   7.211   3.232   0.424
 1540TIP3    H2 4566   7.265   3.196   0.561
 1541TIP3   OH2 4567   5.701   3.266   6.666
 1541TIP3    H1 4568   5.795   3.268   6.651
 1541TIP3    H2 4569   5.692   3.249   6.760
 1542TIP3   OH2 4570   6.832   4.422   2.548
 1542TIP3    H1 4571   6.839   4.326   2.542
 1542TIP3    H2 4572   6.896   4.454   2.485
 1543TIP3   OH2 4573   5.563   7.275   3.904
 1543TIP3    H1 4574   5.607   7.191   3.911
 1543TIP3    H2 4575   5.526   7.276   3.816
 1544TIP3   OH2 4576   7.470   4.412   5.183
 1544TIP3    H1 4577   7.439   4.457   5.104
 1544TIP3    H2 4578   7.403   4.430   5.248
 1545TIP3   OH2 4579   0.894   5.010   1.864
 1545TIP3    H1 4580   0.975   4.972   1.899
 1545TIP3    H2 4581   0.834   5.011   1.939
 1546TIP3   OH2 4582   6.452   5.246   5.221
 1546TIP3    H1 4583   6.469   5.282   5.308
 1546TIP3    H2 4584   6.522   5.182   5.207
 1547TIP3   OH2 4585   1.931   0.236   0.069
 1547TIP3    H1 4586   1.939   0.321   0.027
 1547TIP3    H2 4587   1.873   0.252   0.144
 1548TIP3   OH2 4588   0.563   5.473   5.451
 1548TIP3    H1 4589   0.653   5.456   5.425
 1548TIP3    H2 4590   0.514   5.396   5.420
 1549TIP3   OH2 4591   4.498   6.852   3.241
 1549TIP3    H1 4592   4.406   6.852   3.215
 1549TIP3    H2 4593   4.523   6.760   3.243
 1550TIP3   OH2 4594   7.473   6.949   3.105
 1550TIP3    H1 4595   7.424   6.944   3.023
 1550TIP3    H2 4596   7.564   6.963   3.078
 1551TIP3   OH2 4597   1.995   6.288   1.359
 1551TIP3    H1 4598   1.960   6.342   1.288
 1551TIP3    H2 4599   1.970   6.199   1.336
 1552TIP3   OH2 4600   4.616   2.191   6.685
 1552TIP3    H1 4601   4.593   2.237   6.604
 1552TIP3    H2 4602   4.699   2.232   6.712
 1553TIP3   OH2 4603   2.450   1.758   3.074
 1553TIP3    H1 4604   2.356   1.745   3.082
 1553TIP3    H2 4605   2.480   1.684   3.023
 1554TIP3   OH2 4606   4.100   4.564   3.898
 1554TIP3    H1 4607   4.157   4.499   3.938
 1554TIP3    H2 4608   4.054   4.604   3.972
 1555TIP3   OH2 4609   1.690   0.284   5.185
 1555TIP3    H1 4610   1.623   0.280   5.116
 1555TIP3    H2 4611   1.698   0.378   5.204
 1556TIP3   OH2 4612   6.764   3.464   0.963
 1556TIP3    H1 4613   6.703   3.491   1.032
 1556TIP3    H2 4614   6.736   3.375   0.941
 1557TIP3   OH2 4615   6.091   4.233   4.354
 1557TIP3    H1 4616   6.111   4.148   4.315
 1557TIP3    H2 4617   6.154   4.294   4.314
 1558TIP3   OH2 4618   0.313   0.191   4.702
 1558TIP3    H1 4619   0.403   0.159   4.701
 1558TIP3    H2 4620   0.320   0.283   4.678
 1559TIP3   OH2 4621   6.574   0.089   6.017
 1559TIP3    H1 4622   6.525   0.007   6.012
 1559TIP3    H2 4623   6.568   0.126   5.929
 1560TIP3   OH2 4624   0.529   6.451   6.266
 1560TIP3    H1 4625   0.622   6.455   6.288
 1560TIP3    H2 4626   0.527   6.432   6.173
 1561TIP3   OH2 4627   0.528   5.542   2.313
 1561TIP3    H1 4628   0.572   5.559   2.396
 1561TIP3    H2 4629   0.536   5.448   2.300
 1562TIP3   OH2 4630   1.304   1.139   2.130
 1562TIP3    H1 4631   1.340   1.181   2.052
 1562TIP3    H2 4632   1.341   1.188   2.204
 1563TIP3   OH2 4633   1.286   3.898   0.959
 1563TIP3    H1 4634   1.260   3.876   0.869
 1563TIP3    H2 4635   1.368   3.946   0.948
 1564TIP3   OH2 4636   2.350   4.638   2.520
 1564TIP3    H1 4637   2.330   4.545   2.520
 1564TIP3    H2 4638   2.336   4.666   2.611
 1565TIP3   OH2 4639   3.886   0.378   0.878
 1565TIP3    H1 4640   3.977   0.347   0.873
 1565TIP3    H2 4641   3.851   0.366   0.790
 1566TIP3   OH2 4642   8.213   6.358   1.482
 1566TIP3    H1 4643   8.183   6.389   1.567
 1566TIP3    H2 4644   8.222   6.437   1.429
 1567TIP3   OH2 4645   0.007   2.081   1.162
 1567TIP3    H1 4646   0.101   2.098   1.166
 1567TIP3    H2 4647  -0.008   2.050   1.072
 1568TIP3   OH2 4648   7.151   5.519   1.340
 1568TIP3    H1 4649   7.232   5.472   1.323
 1568TIP3    H2 4650   7.127   5.557   1.256
 1569TIP3   OH2 4651   6.341   1.379   2.666
 1569TIP3    H1 4652   6.346   1.331   2.583
 1569TIP3    H2 4653   6.300   1.462   2.643
 1570TIP3   OH2 4654   6.141   7.179   6.330
 1570TIP3    H1 4655   6.098   7.260   6.302
 1570TIP3    H2 4656   6.136   7.122   6.254
 1571TIP3   OH2 4657   1.958   1.962   0.737
 1571TIP3    H1 4658   2.006   2.036   0.775
 1571TIP3    H2 4659   1.930   1.910   0.813
 1572TIP3   OH2 4660   1.837   3.899   5.169
 1572TIP3    H1 4661   1.879   3.985   5.168
 1572TIP3    H2 4662   1.752   3.914   5.211
 1573TIP3   OH2 4663   6.576   2.141   2.204
 1573TIP3    H1 4664   6.602   2.055   2.169
 1573TIP3    H2 4665   6.491   2.124   2.246
 1574TIP3   OH2 4666   6.207   1.028   2.236
 1574TIP3    H1 4667   6.278   0.993   2.183
 1574TIP3    H2 4668   6.155   1.080   2.176
 1575TIP3   OH2 4669   6.116   5.594   0.219
 1575TIP3    H1 4670   6.145   5.660   0.281
 1575TIP3    H2 4671   6.030   5.625   0.189
 1576TIP3   OH2 4672   5.673   2.970   4.944
 1576TIP3    H1 4673   5.735   2.898   4.927
 1576TIP3    H2 4674   5.675   2.982   5.039
 1577TIP3   OH2 4675   7.350   3.895   4.272
 1577TIP3    H1 4676   7.295   3.818   4.282
 1577TIP3    H2 4677   7.432   3.872   4.316
 1578TIP3   OH2 4678   1.143   2.978   1.145
 1578TIP3    H1 4679   1.139   2.997   1.051
 1578TIP3    H2 4680   1.170   3.060   1.185
 1579TIP3   OH2 4681   3.969   5.468   4.275
 1579TIP3    H1 4682   3.910   5.448   4.202
 1579TIP3    H2 4683   3.953   5.560   4.294
 1580TIP3   OH2 4684   1.915   6.901   3.632
 1580TIP3    H1 4685   1.863   6.978   3.609
 1580TIP3    H2 4686   2.005   6.926   3.610
 1581TIP3   OH2 4687   3.803   6.478   5.628
 1581TIP3    H1 4688   3.818   6.434   5.544
 1581TIP3    H2 4689   3.883   6.462   5.678
 1582TIP3   OH2 4690   5.909   7.597   1.199
 1582TIP3    H1 4691   5.965   7.522   1.214
 1582TIP3    H2 4692   5.841   7.590   1.267
 1583TIP3   OH2 4693   6.366   4.854   2.016
 1583TIP3    H1 4694   6.403   4.834   1.930
 1583TIP3    H2 4695   6.272   4.859   2.001
 1584TIP3   OH2 4696   4.378   1.975   3.423
 1584TIP3    H1 4697   4.350   2.061   3.390
 1584TIP3    H2 4698   4.401   1.926   3.344
 1585TIP3   OH2 4699   1.816   2.515   1.949
 1585TIP3    H1 4700   1.791   2.602   1.979
 1585TIP3    H2 4701   1.876   2.531   1.876
 1586TIP3   OH2 4702   7.021   3.087   4.729
 1586TIP3    H1 4703   6.944   3.033   4.748
 1586TIP3    H2 4704   6.986   3.175   4.717
 1587TIP3   OH2 4705   5.201   0.840   6.024
 1587TIP3    H1 4706   5.271   0.775   6.031
 1587TIP3    H2 4707   5.166   0.847   6.113
 1588TIP3   OH2 4708   3.216   7.469   0.232
 1588TIP3    H1 4709   3.303   7.478   0.270
 1588TIP3    H2 4710   3.155   7.485   0.304
 1589TIP3   OH2 4711   6.611   0.930   2.277
 1589TIP3    H1 4712   6.696   0.972   2.292
 1589TIP3    H2 4713   6.626   0.837   2.295
 1590TIP3   OH2 4714   0.262   4.764   3.504
 1590TIP3    H1 4715   0.257   4.849   3.461
 1590TIP3    H2 4716   0.216   4.704   3.445
 1591TIP3   OH2 4717   3.989   7.381   2.278
 1591TIP3    H1 4718   3.899   7.399   2.304
 1591TIP3    H2 4719   4.028   7.466   2.260
 1592TIP3   OH2 4720   0.861   7.414   1.258
 1592TIP3    H1 4721   0.817   7.334   1.286
 1592TIP3    H2 4722   0.875   7.463   1.340
 1593TIP3   OH2 4723   1.091   3.817   2.936
 1593TIP3    H1 4724   1.002   3.810   2.901
 1593TIP3    H2 4725   1.138   3.744   2.894
 1594TIP3   OH2 4726   5.810   1.040   4.694
 1594TIP3    H1 4727   5.769   1.119   4.728
 1594TIP3    H2 4728   5.797   0.975   4.763
 1595TIP3   OH2 4729   8.001   1.781   0.698
 1595TIP3    H1 4730   8.090   1.746   0.698
 1595TIP3    H2 4731   7.993   1.829   0.780
 1596TIP3   OH2 4732   0.123   1.846   5.835
 1596TIP3    H1 4733   0.184   1.789   5.881
 1596TIP3    H2 4734   0.091   1.793   5.762
 1597TIP3   OH2 4735   2.948   6.311   5.202
 1597TIP3    H1 4736   2.904   6.290   5.120
 1597TIP3    H2 4737   2.898   6.385   5.238
 1598TIP3   OH2 4738   6.319   4.057   1.396
 1598TIP3    H1 4739   6.256   4.085   1.330
 1598TIP3    H2 4740   6.401   4.047   1.347
 1599TIP3   OH2 4741   1.406   6.684   1.346
 1599TIP3    H1 4742   1.376   6.751   1.285
 1599TIP3    H2 4743   1.494   6.710   1.370
 1600TIP3   OH2 4744   1.484   0.056   1.582
 1600TIP3    H1 4745   1.512  -0.017   1.526
 1600TIP3    H2 4746   1.504   0.025   1.671
 1601TIP3   OH2 4747   4.208   6.754   5.297
 1601TIP3    H1 4748   4.296   6.726   5.273
 1601TIP3    H2 4749   4.159   6.673   5.309
 1602TIP3   OH2 4750   6.212   3.251   4.108
 1602TIP3    H1 4751   6.298   3.264   4.147
 1602TIP3    H2 4752   6.230   3.212   4.022
 1603TIP3   OH2 4753   6.798   7.812   5.163
 1603TIP3    H1 4754   6.771   7.803   5.072
 1603TIP3    H2 4755   6.755   7.893   5.193
 1604TIP3   OH2 4756   6.204   7.260   1.392
 1604TIP3    H1 4757   6.221   7.277   1.485
 1604TIP3    H2 4758   6.174   7.169   1.389
 1605TIP3   OH2 4759   5.346   0.820   2.243
 1605TIP3    H1 4760   5.343   0.858   2.155
 1605TIP3    H2 4761   5.341   0.896   2.301
 1606TIP3   OH2 4762   6.708   3.035   6.208
 1606TIP3    H1 4763   6.775   3.096   6.178
 1606TIP3    H2 4764   6.625   3.076   6.185
 1607TIP3   OH2 4765   0.799   7.832   1.028
 1607TIP3    H1 4766   0.718   7.848   0.980
 1607TIP3    H2 4767   0.789   7.744   1.064
 1608TIP3   OH2 4768   7.751   2.189   1.768
 1608TIP3    H1 4769   7.669   2.174   1.719
 1608TIP3    H2 4770   7.798   2.253   1.716
 1609TIP3   OH2 4771   1.856   4.131   6.754
 1609TIP3    H1 4772   1.858   4.039   6.730
 1609TIP3    H2 4773   1.943   4.164   6.731
 1610TIP3   OH2 4774   2.552   2.047   2.813
 1610TIP3    H1 4775   2.475   2.066   2.867
 1610TIP3    H2 4776   2.536   1.960   2.777
 1611TIP3   OH2 4777   3.245   5.136   2.678
 1611TIP3    H1 4778   3.304   5.178   2.616
 1611TIP3    H2 4779   3.158   5.151   2.643
 1612TIP3   OH2 4780   6.116   6.903   0.842
 1612TIP3    H1 4781   6.128   6.810   0.819
 1612TIP3    H2 4782   6.101   6.946   0.758
 1613TIP3   OH2 4783   5.546   1.157   4.427
 1613TIP3    H1 4784   5.483   1.089   4.404
 1613TIP3    H2 4785   5.626   1.132   4.381
 1614TIP3   OH2 4786   7.287   3.131   5.645
 1614TIP3    H1 4787   7.337   3.069   5.699
 1614TIP3    H2 4788   7.262   3.080   5.567
 1615TIP3   OH2 4789   1.915   6.149   2.516
 1615TIP3    H1 4790   1.877   6.234   2.496
 1615TIP3    H2 4791   1.871   6.122   2.597
 1616TIP3   OH2 4792   4.763   5.884   5.002
 1616TIP3    H1 4793   4.732   5.871   4.912
 1616TIP3    H2 4794   4.702   5.948   5.039
 1617TIP3   OH2 4795   7.085   6.736   2.937
 1617TIP3    H1 4796   7.118   6.758   3.024
 1617TIP3    H2 4797   7.162   6.708   2.889
 1618TIP3   OH2 4798   3.419   7.508   4.116
 1618TIP3    H1 4799   3.491   7.453   4.086
 1618TIP3    H2 4800   3.358   7.509   4.043
 1619TIP3   OH2 4801   0.612   5.232   2.572
 1619TIP3    H1 4802   0.669   5.289   2.624
 1619TIP3    H2 4803   0.524   5.268   2.586
 1620TIP3   OH2 4804   2.309   6.924   1.980
 1620TIP3    H1 4805   2.222   6.889   1.999
 1620TIP3    H2 4806   2.317   7.002   2.035
 1621TIP3   OH2 4807   5.120   2.701   3.527
 1621TIP3    H1 4808   5.214   2.689   3.513
 1621TIP3    H2 4809   5.089   2.614   3.555
 1622TIP3   OH2 4810   3.250   0.241   2.379
 1622TIP3    H1 4811   3.237   0.221   2.472
 1622TIP3    H2 4812   3.229   0.334   2.372
 1623TIP3   OH2 4813   1.023   4.767   2.146
 1623TIP3    H1 4814   1.081   4.717   2.204
 1623TIP3    H2 4815   0.935   4.749   2.179
 1624TIP3   OH2 4816   0.440   1.967   2.289
 1624TIP3    H1 4817   0.398   2.023   2.223
 1624TIP3    H2 4818   0.485   1.900   2.238
 1625TIP3   OH2 4819   0.279   3.338   3.462
 1625TIP3    H1 4820   0.190   3.358   3.490
 1625TIP3    H2 4821   0.334   3.382   3.527
 1626TIP3   OH2 4822   7.549   6.671   2.934
 1626TIP3    H1 4823   7.581   6.713   3.014
 1626TIP3    H2 4824   7.620   6.613   2.907
 1627TIP3   OH2 4825   0.436   6.453   1.356
 1627TIP3    H1 4826   0.481   6.376   1.320
 1627TIP3    H2 4827   0.367   6.416   1.411
 1628TIP3   OH2 4828   6.597   1.204   6.605
 1628TIP3    H1 4829   6.610   1.265   6.533
 1628TIP3    H2 4830   6.672   1.220   6.663
 1629TIP3   OH2 4831   7.466   5.453   5.561
 1629TIP3    H1 4832   7.482   5.518   5.629
 1629TIP3    H2 4833   7.374   5.466   5.536
 1630TIP3   OH2 4834   3.511   1.848   3.653
 1630TIP3    H1 4835   3.470   1.765   3.631
 1630TIP3    H2 4836   3.447   1.892   3.709
 1631TIP3   OH2 4837   2.073   5.102   2.524
 1631TIP3    H1 4838   2.025   5.184   2.514
 1631TIP3    H2 4839   2.160   5.128   2.555
 1632TIP3   OH2 4840   4.584   4.017   2.816
 1632TIP3    H1 4841   4.562   3.924   2.810
 1632TIP3    H2 4842   4.677   4.021   2.792
 1633TIP3   OH2 4843   7.049   3.379   0.679
 1633TIP3    H1 4844   7.088   3.450   0.730
 1633TIP3    H2 4845   7.105   3.371   0.602
 1634TIP3   OH2 4846   7.939   2.670   2.353
 1634TIP3    H1 4847   7.917   2.702   2.265
 1634TIP3    H2 4848   7.857   2.677   2.402
 1635TIP3   OH2 4849   5.048   4.080   0.190
 1635TIP3    H1 4850   5.104   4.036   0.253
 1635TIP3    H2 4851   5.088   4.166   0.178
 1636TIP3   OH2 4852   7.008   6.893   4.380
 1636TIP3    H1 4853   6.995   6.904   4.285
 1636TIP3    H2 4854   7.043   6.804   4.389
 1637TIP3   OH2 4855   4.443   0.260   0.151
 1637TIP3    H1 4856   4.461   0.253   0.058
 1637TIP3    H2 4857   4.519   0.220   0.194
 1638TIP3   OH2 4858   7.454   3.648   1.256
 1638TIP3    H1 4859   7.521   3.580   1.254
 1638TIP3    H2 4860   7.372   3.601   1.272
 1639TIP3   OH2 4861   4.858   4.182   1.195
 1639TIP3    H1 4862   4.807   4.111   1.153
 1639TIP3    H2 4863   4.944   4.143   1.210
 1640TIP3   OH2 4864   3.618   5.785   1.898
 1640TIP3    H1 4865   3.586   5.798   1.809
 1640TIP3    H2 4866   3.712   5.770   1.888
 1641TIP3   OH2 4867   4.702   4.987   1.732
 1641TIP3    H1 4868   4.665   4.925   1.794
 1641TIP3    H2 4869   4.743   5.054   1.787
 1642TIP3   OH2 4870   5.432   2.513   2.241
 1642TIP3    H1 4871   5.400   2.589   2.290
 1642TIP3    H2 4872   5.353   2.468   2.212
 1643TIP3   OH2 4873   2.214   5.810   0.005
 1643TIP3    H1 4874   2.231   5.733   0.061
 1643TIP3    H2 4875   2.119   5.823   0.012
 1644TIP3   OH2 4876   2.612   4.026   5.836
 1644TIP3    H1 4877   2.631   3.960   5.769
 1644TIP3    H2 4878   2.695   4.039   5.881
 1645TIP3   OH2 4879   8.276   0.999   5.319
 1645TIP3    H1 4880   8.209   1.016   5.385
 1645TIP3    H2 4881   8.227   0.968   5.242
 1646TIP3   OH2 4882   0.391   4.085   4.647
 1646TIP3    H1 4883   0.382   4.179   4.667
 1646TIP3    H2 4884   0.302   4.055   4.631
 1647TIP3   OH2 4885   3.629   1.708   5.171
 1647TIP3    H1 4886   3.578   1.626   5.174
 1647TIP3    H2 4887   3.697   1.691   5.106
 1648TIP3   OH2 4888   7.081   5.695   0.202
 1648TIP3    H1 4889   7.068   5.763   0.137
 1648TIP3    H2 4890   6.998   5.646   0.203
 1649TIP3   OH2 4891   0.406   2.146   3.846
 1649TIP3    H1 4892   0.387   2.229   3.890
 1649TIP3    H2 4893   0.420   2.083   3.917
 1650TIP3   OH2 4894   8.040   3.383   1.386
 1650TIP3    H1 4895   8.020   3.398   1.478
 1650TIP3    H2 4896   8.121   3.433   1.371
 1651TIP3   OH2 4897   0.604   6.265   5.699
 1651TIP3    H1 4898   0.648   6.349   5.684
 1651TIP3    H2 4899   0.675   6.204   5.720
 1652TIP3   OH2 4900   0.642   7.734   5.942
 1652TIP3    H1 4901   0.560   7.750   5.989
 1652TIP3    H2 4902   0.625   7.654   5.892
 1653TIP3   OH2 4903   1.723   4.636   6.401
 1653TIP3    H1 4904   1.737   4.640   6.306
 1653TIP3    H2 4905   1.636   4.674   6.414
 1654TIP3   OH2 4906   4.967   5.239   2.827
 1654TIP3    H1 4907   4.988   5.148   2.851
 1654TIP3    H2 4908   5.031   5.261   2.760
 1655TIP3   OH2 4909   4.499   4.522   2.065
 1655TIP3    H1 4910   4.451   4.516   1.982
 1655TIP3    H2 4911   4.591   4.527   2.039
 1656TIP3   OH2 4912   8.212   3.801   6.387
 1656TIP3    H1 4913   8.135   3.858   6.382
 1656TIP3    H2 4914   8.272   3.837   6.322
 1657TIP3   OH2 4915   2.901   6.361   1.981
 1657TIP3    H1 4916   2.854   6.379   1.899
 1657TIP3    H2 4917   2.993   6.356   1.956
 1658TIP3   OH2 4918   7.791   5.849   3.172
 1658TIP3    H1 4919   7.783   5.804   3.256
 1658TIP3    H2 4920   7.787   5.942   3.195
 1659TIP3   OH2 4921   0.672   0.421   4.042
 1659TIP3    H1 4922   0.714   0.426   3.957
 1659TIP3    H2 4923   0.743   0.402   4.103
 1660TIP3   OH2 4924   5.084   3.941   5.891
 1660TIP3    H1 4925   5.157   3.995   5.922
 1660TIP3    H2 4926   5.028   4.002   5.843
 1661TIP3   OH2 4927   1.345   1.514   2.845
 1661TIP3    H1 4928   1.403   1.520   2.921
 1661TIP3    H2 4929   1.376   1.583   2.785
 1662TIP3   OH2 4930   0.878   4.062   3.932
 1662TIP3    H1 4931   0.884   3.995   3.864
 1662TIP3    H2 4932   0.962   4.109   3.927
 1663TIP3   OH2 4933   3.289   5.555   1.304
 1663TIP3    H1 4934   3.310   5.648   1.315
 1663TIP3    H2 4935   3.193   5.553   1.302
 1664TIP3   OH2 4936   5.300   1.420   0.353
 1664TIP3    H1 4937   5.314   1.401   0.446
 1664TIP3    H2 4938   5.249   1.500   0.353
 1665TIP3   OH2 4939   7.100   0.584   4.548
 1665TIP3    H1 4940   7.077   0.496   4.578
 1665TIP3    H2 4941   7.174   0.571   4.490
 1666TIP3   OH2 4942   5.403   6.733   6.764
 1666TIP3    H1 4943   5.494   6.705   6.752
 1666TIP3    H2 4944   5.351   6.659   6.733
 1667TIP3   OH2 4945   0.371   3.012   6.499
 1667TIP3    H1 4946   0.375   2.994   6.405
 1667TIP3    H2 4947   0.410   2.935   6.541
 1668TIP3   OH2 4948   6.634   5.200   4.769
 1668TIP3    H1 4949   6.633   5.292   4.744
 1668TIP3    H2 4950   6.704   5.194   4.835
 1669TIP3   OH2 4951   6.042   3.155   6.257
 1669TIP3    H1 4952   6.116   3.100   6.282
 1669TIP3    H2 4953   5.983   3.150   6.332
 1670TIP3   OH2 4954   4.113   5.245   4.225
 1670TIP3    H1 4955   4.204   5.269   4.242
 1670TIP3    H2 4956   4.065   5.327   4.233
 1671TIP3   OH2 4957   7.270   4.421   1.945
 1671TIP3    H1 4958   7.215   4.450   1.872
 1671TIP3    H2 4959   7.265   4.325   1.942
 1672TIP3   OH2 4960   1.825   5.125   1.830
 1672TIP3    H1 4961   1.887   5.067   1.875
 1672TIP3    H2 4962   1.874   5.161   1.757
 1673TIP3   OH2 4963   1.649   2.164   1.977
 1673TIP3    H1 4964   1.584   2.233   1.991
 1673TIP3    H2 4965   1.664   2.164   1.882
 1674TIP3   OH2 4966   8.180   2.515   3.871
 1674TIP3    H1 4967   8.167   2.583   3.937
 1674TIP3    H2 4968   8.101   2.462   3.876
 1675TIP3   OH2 4969   7.830   7.074   3.737
 1675TIP3    H1 4970   7.772   7.017   3.787
 1675TIP3    H2 4971   7.842   7.151   3.793
 1676TIP3   OH2 4972   6.851   2.140   4.625
 1676TIP3    H1 4973   6.938   2.177   4.635
 1676TIP3    H2 4974   6.848   2.108   4.534
 1677TIP3   OH2 4975   4.907   3.012   1.064
 1677TIP3    H1 4976   4.912   2.979   1.154
 1677TIP3    H2 4977   4.980   3.074   1.057
 1678TIP3   OH2 4978   0.514   7.433   4.791
 1678TIP3    H1 4979   0.436   7.464   4.838
 1678TIP3    H2 4980   0.521   7.492   4.715
 1679TIP3   OH2 4981   3.460   2.214   3.592
 1679TIP3    H1 4982   3.472   2.257   3.676
 1679TIP3    H2 4983   3.540   2.165   3.577
 1680TIP3   OH2 4984   5.953   7.146   1.921
 1680TIP3    H1 4985   6.038   7.176   1.952
 1680TIP3    H2 4986   5.956   7.051   1.931
 1681TIP3   OH2 4987   7.075   6.219   5.337
 1681TIP3    H1 4988   7.139   6.250   5.401
 1681TIP3    H2 4989   7.061   6.127   5.361
 1682TIP3   OH2 4990   7.303   1.400   0.843
 1682TIP3    H1 4991   7.225   1.400   0.788
 1682TIP3    H2 4992   7.309   1.490   0.876
 1683TIP3   OH2 4993   7.429   6.376   3.033
 1683TIP3    H1 4994   7.360   6.399   2.971
 1683TIP3    H2 4995   7.404   6.289   3.065
 1684TIP3   OH2 4996   7.035   3.608   2.696
 1684TIP3    H1 4997   6.962   3.612   2.757
 1684TIP3    H2 4998   7.062   3.699   2.685
 1685TIP3   OH2 4999   2.254   1.059   1.973
 1685TIP3    H1 5000   2.163   1.088   1.964
 1685TIP3    H2 5001   2.256   0.974   1.929
 1686TIP3   OH2 5002   6.687   4.751   5.417
 1686TIP3    H1 5003   6.685   4.760   5.512
 1686TIP3    H2 5004   6.612   4.696   5.395
 1687TIP3   OH2 5005   3.154   6.355   4.775
 1687TIP3    H1 5006   3.220   6.287   4.768
 1687TIP3    H2 5007   3.139   6.365   4.869
 1688TIP3   OH2 5008   3.021   4.200   0.816
 1688TIP3    H1 5009   2.954   4.265   0.841
 1688TIP3    H2 5010   2.970   4.125   0.785
 1689TIP3   OH2 5011   0.027   7.588   6.688
 1689TIP3    H1 5012   0.104   7.640   6.709
 1689TIP3    H2 5013  -0.020   7.640   6.622
 1690TIP3   OH2 5014   5.587   7.214   3.422
 1690TIP3    H1 5015   5.538   7.142   3.382
 1690TIP3    H2 5016   5.545   7.293   3.387
 1691TIP3   OH2 5017   6.493   3.055   1.043
 1691TIP3    H1 5018   6.483   3.148   1.022
 1691TIP3    H2 5019   6.420   3.036   1.102
 1692TIP3   OH2 5020   7.721   6.776   2.373
 1692TIP3    H1 5021   7.710   6.822   2.290
 1692TIP3    H2 5022   7.756   6.690   2.349
 1693TIP3   OH2 5023   6.534   1.510   2.087
 1693TIP3    H1 5024   6.496   1.426   2.112
 1693TIP3    H2 5025   6.499   1.572   2.151
 1694TIP3   OH2 5026   5.914   3.176   2.893
 1694TIP3    H1 5027   6.008   3.184   2.875
 1694TIP3    H2 5028   5.872   3.227   2.823
 1695TIP3   OH2 5029   7.440   7.035   2.294
 1695TIP3    H1 5030   7.374   7.014   2.228
 1695TIP3    H2 5031   7.524   7.032   2.246
 1696TIP3   OH2 5032   3.280   4.200   1.482
 1696TIP3    H1 5033   3.327   4.163   1.408
 1696TIP3    H2 5034   3.334   4.180   1.558
 1697TIP3   OH2 5035   2.154   2.798   0.829
 1697TIP3    H1 5036   2.205   2.877   0.811
 1697TIP3    H2 5037   2.173   2.741   0.754
 1698TIP3   OH2 5038   1.026   3.169   3.792
 1698TIP3    H1 5039   1.065   3.130   3.871
 1698TIP3    H2 5040   1.084   3.241   3.770
 1699TIP3   OH2 5041   3.088   5.760   4.140
 1699TIP3    H1 5042   3.176   5.763   4.102
 1699TIP3    H2 5043   3.033   5.724   4.071
 1700TIP3   OH2 5044   7.254   0.111   0.628
 1700TIP3    H1 5045   7.177   0.075   0.583
 1700TIP3    H2 5046   7.318   0.040   0.624
 1701TIP3   OH2 5047   7.967   0.985   3.163
 1701TIP3    H1 5048   7.994   0.995   3.072
 1701TIP3    H2 5049   8.028   0.920   3.198
 1702TIP3   OH2 5050   5.288   7.014   4.654
 1702TIP3    H1 5051   5.226   6.948   4.623
 1702TIP3    H2 5052   5.271   7.091   4.600
 1703TIP3   OH2 5053   7.421   3.068   6.758
 1703TIP3    H1 5054   7.336   3.061   6.714
 1703TIP3    H2 5055   7.484   3.031   6.696
 1704TIP3   OH2 5056   7.860   6.135   4.478
 1704TIP3    H1 5057   7.787   6.074   4.490
 1704TIP3    H2 5058   7.927   6.083   4.433
 1705TIP3   OH2 5059   6.498   7.519   0.435
 1705TIP3    H1 5060   6.411   7.559   0.431
 1705TIP3    H2 5061   6.540   7.547   0.353
 1706TIP3   OH2 5062   2.321   6.144   4.025
 1706TIP3    H1 5063   2.365   6.093   4.093
 1706TIP3    H2 5064   2.338   6.235   4.048
 1707TIP3   OH2 5065   5.030   2.344   3.909
 1707TIP3    H1 5066   5.011   2.276   3.844
 1707TIP3    H2 5067   5.124   2.360   3.901
 1708TIP3   OH2 5068   3.277   2.666   1.148
 1708TIP3    H1 5069   3.306   2.578   1.125
 1708TIP3    H2 5070   3.357   2.713   1.170
 1709TIP3   OH2 5071   1.634   4.292   0.620
 1709TIP3    H1 5072   1.649   4.333   0.706
 1709TIP3    H2 5073   1.702   4.329   0.564
 1710TIP3   OH2 5074   0.271   0.479   6.452
 1710TIP3    H1 5075   0.271   0.413   6.382
 1710TIP3    H2 5076   0.182   0.515   6.450
 1711TIP3   OH2 5077   0.536   1.425   5.686
 1711TIP3    H1 5078   0.471   1.437   5.756
 1711TIP3    H2 5079   0.574   1.512   5.674
 1712TIP3   OH2 5080   2.245   3.375   4.658
 1712TIP3    H1 5081   2.320   3.357   4.602
 1712TIP3    H2 5082   2.169   3.358   4.602
 1713TIP3   OH2 5083   3.740   0.509   1.509
 1713TIP3    H1 5084   3.827   0.472   1.518
 1713TIP3    H2 5085   3.680   0.439   1.535
 1714TIP3   OH2 5086   1.293   4.521   0.139
 1714TIP3    H1 5087   1.308   4.589   0.073
 1714TIP3    H2 5088   1.346   4.548   0.214
 1715TIP3   OH2 5089   0.814   3.983   0.995
 1715TIP3    H1 5090   0.892   4.037   0.980
 1715TIP3    H2 5091   0.773   3.974   0.909
 1716TIP3   OH2 5092   7.540   2.849   3.280
 1716TIP3    H1 5093   7.588   2.787   3.226
 1716TIP3    H2 5094   7.601   2.873   3.349
 1717TIP3   OH2 5095   1.643   5.620   1.285
 1717TIP3    H1 5096   1.711   5.569   1.241
 1717TIP3    H2 5097   1.626   5.573   1.366
 1718TIP3   OH2 5098   1.637   5.706   1.575
 1718TIP3    H1 5099   1.712   5.730   1.631
 1718TIP3    H2 5100   1.624   5.783   1.519
 1719TIP3   OH2 5101   3.520   4.718   5.446
 1719TIP3    H1 5102   3.592   4.656   5.441
 1719TIP3    H2 5103   3.543   4.776   5.518
 1720TIP3   OH2 5104   1.037   3.515   6.077
 1720TIP3    H1 5105   1.031   3.470   6.161
 1720TIP3    H2 5106   1.131   3.521   6.061
 1721TIP3   OH2 5107   1.425   7.589   6.706
 1721TIP3    H1 5108   1.385   7.606   6.620
 1721TIP3    H2 5109   1.498   7.650   6.711
 1722TIP3   OH2 5110   0.756   4.852   6.308
 1722TIP3    H1 5111   0.811   4.776   6.288
 1722TIP3    H2 5112   0.666   4.818   6.306
 1723TIP3   OH2 5113   1.566   3.106   4.695
 1723TIP3    H1 5114   1.576   3.015   4.722
 1723TIP3    H2 5115   1.501   3.103   4.625
 1724TIP3   OH2 5116   6.489   7.460   3.567
 1724TIP3    H1 5117   6.406   7.446   3.521
 1724TIP3    H2 5118   6.499   7.384   3.623
 1725TIP3   OH2 5119   1.482   4.509   3.223
 1725TIP3    H1 5120   1.396   4.482   3.192
 1725TIP3    H2 5121   1.543   4.458   3.169
 1726TIP3   OH2 5122   1.675   4.034   4.141
 1726TIP3    H1 5123   1.598   4.091   4.144
 1726TIP3    H2 5124   1.718   4.048   4.226
 1727TIP3   OH2 5125   5.149   2.617   2.966
 1727TIP3    H1 5126   5.163   2.711   2.955
 1727TIP3    H2 5127   5.225   2.587   3.015
 1728TIP3   OH2 5128   1.277   4.017   0.367
 1728TIP3    H1 5129   1.189   3.994   0.399
 1728TIP3    H2 5130   1.269   4.107   0.336
 1729TIP3   OH2 5131   7.278   7.611   0.114
 1729TIP3    H1 5132   7.322   7.672   0.173
 1729TIP3    H2 5133   7.257   7.535   0.169
 1730TIP3   OH2 5134   1.341   7.189   4.765
 1730TIP3    H1 5135   1.437   7.190   4.765
 1730TIP3    H2 5136   1.319   7.101   4.797
 1731TIP3   OH2 5137   5.390   5.806   5.144
 1731TIP3    H1 5138   5.463   5.744   5.142
 1731TIP3    H2 5139   5.312   5.751   5.155
 1732TIP3   OH2 5140   1.142   3.428   2.423
 1732TIP3    H1 5141   1.072   3.406   2.362
 1732TIP3    H2 5142   1.140   3.358   2.489
 1733TIP3   OH2 5143   2.713   4.804   2.001
 1733TIP3    H1 5144   2.720   4.725   2.055
 1733TIP3    H2 5145   2.664   4.866   2.055
 1734TIP3   OH2 5146   3.802   3.121   4.977
 1734TIP3    H1 5147   3.896   3.101   4.979
 1734TIP3    H2 5148   3.781   3.146   5.067
 1735TIP3   OH2 5149   7.120   3.133   3.889
 1735TIP3    H1 5150   7.128   3.191   3.965
 1735TIP3    H2 5151   7.193   3.158   3.832
 1736TIP3   OH2 5152   4.587   3.655   6.281
 1736TIP3    H1 5153   4.607   3.577   6.333
 1736TIP3    H2 5154   4.663   3.666   6.224
 1737TIP3   OH2 5155   5.800   3.919   4.258
 1737TIP3    H1 5156   5.808   3.838   4.208
 1737TIP3    H2 5157   5.714   3.914   4.299
 1738TIP3   OH2 5158   0.265   3.270   6.378
 1738TIP3    H1 5159   0.291   3.309   6.462
 1738TIP3    H2 5160   0.240   3.181   6.400
 1739TIP3   OH2 5161   5.474   7.340   5.645
 1739TIP3    H1 5162   5.565   7.320   5.623
 1739TIP3    H2 5163   5.442   7.261   5.688
 1740TIP3   OH2 5164   2.685   4.219   2.656
 1740TIP3    H1 5165   2.689   4.190   2.747
 1740TIP3    H2 5166   2.734   4.153   2.607
 1741TIP3   OH2 5167  -0.025   4.558   1.805
 1741TIP3    H1 5168   0.059   4.574   1.849
 1741TIP3    H2 5169  -0.011   4.590   1.716
 1742TIP3   OH2 5170   1.478   2.496   2.846
 1742TIP3    H1 5171   1.458   2.498   2.752
 1742TIP3    H2 5172   1.430   2.570   2.882
 1743TIP3   OH2 5173   5.603   7.062   5.375
 1743TIP3    H1 5174   5.581   7.150   5.344
 1743TIP3    H2 5175   5.549   7.004   5.322
 1744TIP3   OH2 5176   7.811   4.456   1.883
 1744TIP3    H1 5177   7.881   4.521   1.882
 1744TIP3    H2 5178   7.852   4.377   1.847
 1745TIP3   OH2 5179   0.235   7.723   4.956
 1745TIP3    H1 5180   0.288   7.739   5.034
 1745TIP3    H2 5181   0.232   7.807   4.910
 1746TIP3   OH2 5182   3.849   4.570   0.063
 1746TIP3    H1 5183   3.918   4.601   0.005
 1746TIP3    H2 5184   3.814   4.649   0.105
 1747TIP3   OH2 5185   3.166   1.692   2.100
 1747TIP3    H1 5186   3.153   1.761   2.165
 1747TIP3    H2 5187   3.171   1.740   2.016
 1748TIP3   OH2 5188   2.505   6.769   3.208
 1748TIP3    H1 5189   2.429   6.748   3.263
 1748TIP3    H2 5190   2.570   6.701   3.230
 1749TIP3   OH2 5191   3.965   1.242   3.833
 1749TIP3    H1 5192   3.992   1.291   3.755
 1749TIP3    H2 5193   3.870   1.253   3.838
 1750TIP3   OH2 5194   2.805   5.410   6.311
 1750TIP3    H1 5195   2.715   5.379   6.299
 1750TIP3    H2 5196   2.838   5.357   6.384
 1751TIP3   OH2 5197   5.498   3.254   2.700
 1751TIP3    H1 5198   5.527   3.180   2.753
 1751TIP3    H2 5199   5.499   3.328   2.761
 1752TIP3   OH2 5200   2.120   1.382   1.299
 1752TIP3    H1 5201   2.182   1.434   1.248
 1752TIP3    H2 5202   2.053   1.354   1.236
 1753TIP3   OH2 5203   6.853   7.748   3.198
 1753TIP3    H1 5204   6.867   7.739   3.292
 1753TIP3    H2 5205   6.903   7.826   3.174
 1754TIP3   OH2 5206   7.036   6.758   1.316
 1754TIP3    H1 5207   7.129   6.736   1.323
 1754TIP3    H2 5208   6.999   6.688   1.263
 1755TIP3   OH2 5209   3.246   1.559   6.362
 1755TIP3    H1 5210   3.284   1.647   6.374
 1755TIP3    H2 5211   3.162   1.576   6.320
 1756TIP3   OH2 5212   5.209   3.879   3.048
 1756TIP3    H1 5213   5.133   3.867   2.992
 1756TIP3    H2 5214   5.258   3.951   3.007
 1757TIP3   OH2 5215   5.093   7.051   4.893
 1757TIP3    H1 5216   5.153   7.117   4.857
 1757TIP3    H2 5217   5.126   6.968   4.859
 1758TIP3   OH2 5218   7.395   4.224   0.542
 1758TIP3    H1 5219   7.323   4.286   0.546
 1758TIP3    H2 5220   7.405   4.192   0.632
 1759TIP3   OH2 5221   3.911   1.332   6.434
 1759TIP3    H1 5222   3.978   1.386   6.476
 1759TIP3    H2 5223   3.832   1.348   6.485
 1760TIP3   OH2 5224   7.397   6.888   3.594
 1760TIP3    H1 5225   7.417   6.862   3.504
 1760TIP3    H2 5226   7.384   6.806   3.641
 1761TIP3   OH2 5227   3.832   3.954   0.844
 1761TIP3    H1 5228   3.810   3.891   0.913
 1761TIP3    H2 5229   3.857   3.901   0.769
 1762TIP3   OH2 5230   5.895   7.026   5.427
 1762TIP3    H1 5231   5.905   6.934   5.401
 1762TIP3    H2 5232   5.821   7.057   5.375
 1763TIP3   OH2 5233   5.564   0.683   3.219
 1763TIP3    H1 5234   5.511   0.707   3.144
 1763TIP3    H2 5235   5.502   0.647   3.282
 1764TIP3   OH2 5236   7.681   2.532   0.344
 1764TIP3    H1 5237   7.756   2.576   0.303
 1764TIP3    H2 5238   7.605   2.582   0.313
 1765TIP3   OH2 5239   0.131   4.046   4.513
 1765TIP3    H1 5240   0.061   4.064   4.576
 1765TIP3    H2 5241   0.125   3.952   4.496
 1766TIP3   OH2 5242   5.435   2.993   5.128
 1766TIP3    H1 5243   5.397   3.057   5.068
 1766TIP3    H2 5244   5.468   2.923   5.070
 1767TIP3   OH2 5245   6.641   4.971   3.591
 1767TIP3    H1 5246   6.608   5.056   3.623
 1767TIP3    H2 5247   6.736   4.981   3.592
 1768TIP3   OH2 5248   1.470   7.626   1.493
 1768TIP3    H1 5249   1.378   7.638   1.466
 1768TIP3    H2 5250   1.482   7.687   1.566
 1769TIP3   OH2 5251   5.251   4.290   0.221
 1769TIP3    H1 5252   5.335   4.335   0.213
 1769TIP3    H2 5253   5.212   4.297   0.134
 1770TIP3   OH2 5254   0.044   3.683   0.248
 1770TIP3    H1 5255  -0.019   3.619   0.214
 1770TIP3    H2 5256   0.051   3.750   0.179
 1771TIP3   OH2 5257   6.580   3.240   2.330
 1771TIP3    H1 5258   6.503   3.295   2.339
 1771TIP3    H2 5259   6.561   3.163   2.384
 1772TIP3   OH2 5260   1.362   4.477   1.480
 1772TIP3    H1 5261   1.360   4.571   1.499
 1772TIP3    H2 5262   1.447   4.462   1.440
 1773TIP3   OH2 5263   7.554   4.678   6.019
 1773TIP3    H1 5264   7.536   4.601   5.965
 1773TIP3    H2 5265   7.469   4.721   6.029
 1774TIP3   OH2 5266   6.137   2.947   6.686
 1774TIP3    H1 5267   6.212   3.000   6.713
 1774TIP3    H2 5268   6.145   2.867   6.737
 1775TIP3   OH2 5269   0.121   7.654   1.657
 1775TIP3    H1 5270   0.198   7.632   1.605
 1775TIP3    H2 5271   0.063   7.701   1.597
 1776TIP3   OH2 5272   7.132   4.912   0.752
 1776TIP3    H1 5273   7.048   4.930   0.710
 1776TIP3    H2 5274   7.110   4.892   0.843
 1777TIP3   OH2 5275   4.703   2.439   1.036
 1777TIP3    H1 5276   4.649   2.370   0.998
 1777TIP3    H2 5277   4.766   2.462   0.968
 1778TIP3   OH2 5278   8.015   2.083   0.066
 1778TIP3    H1 5279   7.936   2.062   0.116
 1778TIP3    H2 5280   8.012   2.025  -0.010
 1779TIP3   OH2 5281   6.521   5.483   4.222
 1779TIP3    H1 5282   6.522   5.430   4.301
 1779TIP3    H2 5283   6.605   5.529   4.222
 1780TIP3   OH2 5284   2.038   0.126   4.499
 1780TIP3    H1 5285   1.981   0.052   4.519
 1780TIP3    H2 5286   2.114   0.086   4.455
 1781TIP3   OH2 5287   3.400   5.443   1.923
 1781TIP3    H1 5288   3.398   5.521   1.868
 1781TIP3    H2 5289   3.372   5.372   1.866
 1782TIP3   OH2 5290   3.109   6.519   1.096
 1782TIP3    H1 5291   3.055   6.596   1.112
 1782TIP3    H2 5292   3.187   6.553   1.052
 1783TIP3   OH2 5293   4.289   5.342   5.049
 1783TIP3    H1 5294   4.312   5.285   5.123
 1783TIP3    H2 5295   4.327   5.299   4.973
 1784TIP3   OH2 5296   3.716   4.315   3.097
 1784TIP3    H1 5297   3.640   4.288   3.045
 1784TIP3    H2 5298   3.685   4.313   3.187
 1785TIP3   OH2 5299   7.769   7.309   5.749
 1785TIP3    H1 5300   7.837   7.244   5.765
 1785TIP3    H2 5301   7.815   7.380   5.703
 1786TIP3   OH2 5302   0.717   2.434   0.760
 1786TIP3    H1 5303   0.789   2.496   0.774
 1786TIP3    H2 5304   0.689   2.409   0.848
 1787TIP3   OH2 5305   6.490   4.601   4.085
 1787TIP3    H1 5306   6.526   4.556   4.161
 1787TIP3    H2 5307   6.523   4.691   4.093
 1788TIP3   OH2 5308   6.559   5.620   4.645
 1788TIP3    H1 5309   6.547   5.526   4.633
 1788TIP3    H2 5310   6.475   5.651   4.677
 1789TIP3   OH2 5311   6.362   2.948   3.605
 1789TIP3    H1 5312   6.407   3.031   3.592
 1789TIP3    H2 5313   6.394   2.917   3.690
 1790TIP3   OH2 5314   6.274   2.484   1.903
 1790TIP3    H1 5315   6.293   2.555   1.842
 1790TIP3    H2 5316   6.281   2.404   1.850
 1791TIP3   OH2 5317   4.837   6.257   2.287
 1791TIP3    H1 5318   4.885   6.261   2.370
 1791TIP3    H2 5319   4.796   6.343   2.279
 1792TIP3   OH2 5320   2.817   3.846   6.283
 1792TIP3    H1 5321   2.903   3.873   6.314
 1792TIP3    H2 5322   2.755   3.893   6.338
 1793TIP3   OH2 5323   3.464   0.847   0.230
 1793TIP3    H1 5324   3.379   0.813   0.261
 1793TIP3    H2 5325   3.449   0.940   0.217
 1794TIP3   OH2 5326   7.978   5.138   1.432
 1794TIP3    H1 5327   7.984   5.043   1.434
 1794TIP3    H2 5328   7.904   5.159   1.489
 1795TIP3   OH2 5329   8.229   4.334   1.649
 1795TIP3    H1 5330   8.247   4.404   1.711
 1795TIP3    H2 5331   8.300   4.272   1.662
 1796TIP3   OH2 5332   7.023   6.467   5.230
 1796TIP3    H1 5333   7.067   6.408   5.292
 1796TIP3    H2 5334   6.991   6.539   5.285
 1797TIP3   OH2 5335   3.663   0.627   1.760
 1797TIP3    H1 5336   3.663   0.587   1.673
 1797TIP3    H2 5337   3.586   0.683   1.761
 1798TIP3   OH2 5338   2.135   2.315   2.701
 1798TIP3    H1 5339   2.200   2.384   2.684
 1798TIP3    H2 5340   2.188   2.241   2.733
 1799TIP3   OH2 5341   3.300   7.211   4.345
 1799TIP3    H1 5342   3.284   7.286   4.403
 1799TIP3    H2 5343   3.236   7.220   4.275
 1800TIP3   OH2 5344   2.406   7.756   2.650
 1800TIP3    H1 5345   2.395   7.846   2.680
 1800TIP3    H2 5346   2.452   7.763   2.566
 1801TIP3   OH2 5347   7.488   5.228   0.252
 1801TIP3    H1 5348   7.537   5.227   0.334
 1801TIP3    H2 5349   7.473   5.135   0.232
 1802TIP3   OH2 5350   1.983   7.338   0.678
 1802TIP3    H1 5351   1.996   7.389   0.758
 1802TIP3    H2 5352   1.936   7.398   0.620
 1803TIP3   OH2 5353   5.810   4.769   0.183
 1803TIP3    H1 5354   5.774   4.835   0.123
 1803TIP3    H2 5355   5.853   4.820   0.252
 1804TIP3   OH2 5356   0.778   1.681   6.361
 1804TIP3    H1 5357   0.729   1.734   6.298
 1804TIP3    H2 5358   0.870   1.697   6.339
 1805TIP3   OH2 5359   4.643   0.748   2.945
 1805TIP3    H1 5360   4.643   0.718   3.036
 1805TIP3    H2 5361   4.733   0.779   2.930
 1806TIP3   OH2 5362   7.465   0.873   4.648
 1806TIP3    H1 5363   7.436   0.890   4.738
 1806TIP3    H2 5364   7.509   0.953   4.621
 1807TIP3   OH2 5365   5.765   3.737   5.550
 1807TIP3    H1 5366   5.820   3.663   5.575
 1807TIP3    H2 5367   5.801   3.811   5.598
 1808TIP3   OH2 5368   8.011   4.762   5.365
 1808TIP3    H1 5369   7.995   4.671   5.342
 1808TIP3    H2 5370   7.981   4.812   5.288
 1809TIP3   OH2 5371   7.570   0.617   4.605
 1809TIP3    H1 5372   7.625   0.660   4.539
 1809TIP3    H2 5373   7.530   0.689   4.653
 1810TIP3   OH2 5374   4.277   7.739   1.147
 1810TIP3    H1 5375   4.194   7.788   1.154
 1810TIP3    H2 5376   4.283   7.716   1.055
 1811TIP3   OH2 5377   2.683   2.859   5.362
 1811TIP3    H1 5378   2.764   2.902   5.333
 1811TIP3    H2 5379   2.666   2.898   5.448
 1812TIP3   OH2 5380   2.798   0.905   4.661
 1812TIP3    H1 5381   2.770   0.925   4.751
 1812TIP3    H2 5382   2.869   0.967   4.644
 1813TIP3   OH2 5383   0.839   0.579   5.565
 1813TIP3    H1 5384   0.814   0.510   5.626
 1813TIP3    H2 5385   0.761   0.634   5.557
 1814TIP3   OH2 5386   4.724   3.803   5.193
 1814TIP3    H1 5387   4.796   3.864   5.203
 1814TIP3    H2 5388   4.759   3.719   5.220
 1815TIP3   OH2 5389   5.717   6.880   6.333
 1815TIP3    H1 5390   5.660   6.837   6.396
 1815TIP3    H2 5391   5.798   6.829   6.335
 1816TIP3   OH2 5392   1.102   4.451   1.694
 1816TIP3    H1 5393   1.099   4.473   1.601
 1816TIP3    H2 5394   1.069   4.361   1.698
 1817TIP3   OH2 5395   0.211   6.280   2.441
 1817TIP3    H1 5396   0.281   6.263   2.377
 1817TIP3    H2 5397   0.132   6.247   2.399
 1818TIP3   OH2 5398   7.339   7.298   5.470
 1818TIP3    H1 5399   7.388   7.228   5.513
 1818TIP3    H2 5400   7.406   7.358   5.439
 1819TIP3   OH2 5401   8.094   6.287   4.293
 1819TIP3    H1 5402   8.176   6.325   4.261
 1819TIP3    H2 5403   8.109   6.192   4.288
 1820TIP3   OH2 5404   0.706   4.850   3.184
 1820TIP3    H1 5405   0.792   4.808   3.192
 1820TIP3    H2 5406   0.655   4.791   3.130
 1821TIP3   OH2 5407   7.843   3.926   5.213
 1821TIP3    H1 5408   7.812   3.919   5.303
 1821TIP3    H2 5409   7.928   3.882   5.213
 1822TIP3   OH2 5410   0.704   0.188   6.173
 1822TIP3    H1 5411   0.718   0.095   6.191
 1822TIP3    H2 5412   0.792   0.226   6.176
 1823TIP3   OH2 5413   1.842   6.802   5.647
 1823TIP3    H1 5414   1.855   6.821   5.740
 1823TIP3    H2 5415   1.832   6.707   5.643
 1824TIP3   OH2 5416   7.317   5.224   2.348
 1824TIP3    H1 5417   7.287   5.267   2.268
 1824TIP3    H2 5418   7.242   5.173   2.378
 1825TIP3   OH2 5419   7.488   7.433   4.652
 1825TIP3    H1 5420   7.549   7.413   4.723
 1825TIP3    H2 5421   7.402   7.407   4.687
 1826TIP3   OH2 5422   2.492   1.030   0.574
 1826TIP3    H1 5423   2.483   0.971   0.649
 1826TIP3    H2 5424   2.422   1.003   0.514
 1827TIP3   OH2 5425   2.025   2.266   0.821
 1827TIP3    H1 5426   2.082   2.223   0.885
 1827TIP3    H2 5427   2.067   2.249   0.737
 1828TIP3   OH2 5428   6.339   5.772   3.721
 1828TIP3    H1 5429   6.388   5.717   3.782
 1828TIP3    H2 5430   6.404   5.834   3.686
 1829TIP3   OH2 5431   5.913   4.552   3.067
 1829TIP3    H1 5432   5.970   4.499   3.123
 1829TIP3    H2 5433   5.860   4.488   3.020
 1830TIP3   OH2 5434   0.114   1.629   5.378
 1830TIP3    H1 5435   0.117   1.704   5.437
 1830TIP3    H2 5436   0.204   1.617   5.350
 1831TIP3   OH2 5437   0.697   0.321   5.200
 1831TIP3    H1 5438   0.747   0.345   5.122
 1831TIP3    H2 5439   0.692   0.225   5.196
 1832TIP3   OH2 5440   3.646   7.344   1.154
 1832TIP3    H1 5441   3.695   7.416   1.115
 1832TIP3    H2 5442   3.588   7.387   1.218
 1833TIP3   OH2 5443   8.067   2.291   1.967
 1833TIP3    H1 5444   8.005   2.351   1.925
 1833TIP3    H2 5445   8.146   2.344   1.979
 1834TIP3   OH2 5446   1.036   0.843   3.349
 1834TIP3    H1 5447   0.959   0.788   3.356
 1834TIP3    H2 5448   1.109   0.785   3.369
 1835TIP3   OH2 5449   7.996   2.467   0.223
 1835TIP3    H1 5450   8.060   2.518   0.272
 1835TIP3    H2 5451   7.996   2.381   0.266
 1836TIP3   OH2 5452   7.143   4.112   2.771
 1836TIP3    H1 5453   7.091   4.124   2.851
 1836TIP3    H2 5454   7.229   4.146   2.794
 1837TIP3   OH2 5455   8.048   6.236   6.659
 1837TIP3    H1 5456   8.004   6.161   6.700
 1837TIP3    H2 5457   8.117   6.196   6.606
 1838TIP3   OH2 5458   5.084   4.264   4.873
 1838TIP3    H1 5459   5.111   4.274   4.964
 1838TIP3    H2 5460   5.010   4.203   4.877
 1839TIP3   OH2 5461   2.356   2.921   0.097
 1839TIP3    H1 5462   2.433   2.979   0.096
 1839TIP3    H2 5463   2.321   2.926   0.008
 1840TIP3   OH2 5464   3.451   6.112   2.646
 1840TIP3    H1 5465   3.499   6.097   2.728
 1840TIP3    H2 5466   3.502   6.065   2.580
 1841TIP3   OH2 5467   0.460   3.924   1.182
 1841TIP3    H1 5468   0.415   3.889   1.106
 1841TIP3    H2 5469   0.535   3.866   1.194
 1842TIP3   OH2 5470   0.888   4.387   4.113
 1842TIP3    H1 5471   0.851   4.431   4.190
 1842TIP3    H2 5472   0.819   4.394   4.047
 1843TIP3   OH2 5473   5.517   3.324   2.067
 1843TIP3    H1 5474   5.456   3.350   2.137
 1843TIP3    H2 5475   5.490   3.375   1.992
 1844TIP3   OH2 5476   6.313   3.824   3.271
 1844TIP3    H1 5477   6.346   3.857   3.355
 1844TIP3    H2 5478   6.303   3.903   3.217
 1845TIP3   OH2 5479   2.027   0.323   1.982
 1845TIP3    H1 5480   2.102   0.311   2.040
 1845TIP3    H2 5481   1.965   0.375   2.034
 1846TIP3   OH2 5482   7.904   3.381   3.735
 1846TIP3    H1 5483   7.930   3.391   3.644
 1846TIP3    H2 5484   7.959   3.442   3.784
 1847TIP3   OH2 5485   4.003   3.602   2.910
 1847TIP3    H1 5486   3.922   3.601   2.961
 1847TIP3    H2 5487   3.982   3.553   2.831
 1848TIP3   OH2 5488   4.568   3.466   4.990
 1848TIP3    H1 5489   4.567   3.560   4.970
 1848TIP3    H2 5490   4.497   3.455   5.054
 1849TIP3   OH2 5491   4.907   1.159   5.454
 1849TIP3    H1 5492   4.897   1.145   5.359
 1849TIP3    H2 5493   4.995   1.196   5.463
 1850TIP3   OH2 5494   7.545   1.625   4.464
 1850TIP3    H1 5495   7.516   1.545   4.419
 1850TIP3    H2 5496   7.476   1.688   4.449
 1851TIP3   OH2 5497   0.967   3.895   3.711
 1851TIP3    H1 5498   0.958   3.974   3.656
 1851TIP3    H2 5499   1.060   3.889   3.729
 1852TIP3   OH2 5500   5.156   6.065   1.699
 1852TIP3    H1 5501   5.160   5.970   1.690
 1852TIP3    H2 5502   5.236   6.097   1.658
 1853TIP3   OH2 5503   6.444   5.252   2.708
 1853TIP3    H1 5504   6.376   5.206   2.758
 1853TIP3    H2 5505   6.420   5.238   2.616
 1854TIP3   OH2 5506   8.144   4.698   2.042
 1854TIP3    H1 5507   8.133   4.793   2.030
 1854TIP3    H2 5508   8.234   4.681   2.013
 1855TIP3   OH2 5509   6.119   6.102   5.592
 1855TIP3    H1 5510   6.159   6.016   5.585
 1855TIP3    H2 5511   6.038   6.087   5.640
 1856TIP3   OH2 5512   7.407   4.213   2.825
 1856TIP3    H1 5513   7.465   4.138   2.811
 1856TIP3    H2 5514   7.462   4.278   2.869
 1857TIP3   OH2 5515   2.463   1.997   0.525
 1857TIP3    H1 5516   2.425   2.040   0.448
 1857TIP3    H2 5517   2.453   1.903   0.507
 1858TIP3   OH2 5518   4.597   3.598   6.643
 1858TIP3    H1 5519   4.554   3.626   6.725
 1858TIP3    H2 5520   4.643   3.676   6.612
 1859TIP3   OH2 5521   2.409   1.329   5.458
 1859TIP3    H1 5522   2.406   1.358   5.367
 1859TIP3    H2 5523   2.340   1.379   5.501
 1860TIP3   OH2 5524   1.626   3.207   0.044
 1860TIP3    H1 5525   1.567   3.221   0.117
 1860TIP3    H2 5526   1.711   3.239   0.075
 1861TIP3   OH2 5527   4.070   3.432   5.751
 1861TIP3    H1 5528   4.007   3.505   5.748
 1861TIP3    H2 5529   4.146   3.464   5.703
 1862TIP3   OH2 5530   1.867   5.963   4.905
 1862TIP3    H1 5531   1.854   6.031   4.839
 1862TIP3    H2 5532   1.957   5.977   4.935
 1863TIP3   OH2 5533   0.332   4.741   1.826
 1863TIP3    H1 5534   0.360   4.766   1.914
 1863TIP3    H2 5535   0.254   4.793   1.811
 1864TIP3   OH2 5536   6.545   5.205   3.688
 1864TIP3    H1 5537   6.498   5.217   3.605
 1864TIP3    H2 5538   6.478   5.218   3.755
 1865TIP3   OH2 5539   1.871   7.052   2.214
 1865TIP3    H1 5540   1.889   7.104   2.293
 1865TIP3    H2 5541   1.833   7.114   2.152
 1866TIP3   OH2 5542   1.801   5.242   0.749
 1866TIP3    H1 5543   1.731   5.176   0.749
 1866TIP3    H2 5544   1.882   5.190   0.746
 1867TIP3   OH2 5545   5.798   0.717   4.043
 1867TIP3    H1 5546   5.870   0.772   4.073
 1867TIP3    H2 5547   5.780   0.658   4.117
 1868TIP3   OH2 5548   0.371   5.631   3.037
 1868TIP3    H1 5549   0.283   5.666   3.032
 1868TIP3    H2 5550   0.427   5.708   3.046
 1869TIP3   OH2 5551   7.051   3.370   6.455
 1869TIP3    H1 5552   6.962   3.342   6.431
 1869TIP3    H2 5553   7.108   3.317   6.400
 1870TIP3   OH2 5554   6.896   1.901   3.938
 1870TIP3    H1 5555   6.831   1.871   4.001
 1870TIP3    H2 5556   6.964   1.834   3.938
 1871TIP3   OH2 5557   5.060   5.677   0.628
 1871TIP3    H1 5558   5.122   5.616   0.670
 1871TIP3    H2 5559   5.108   5.760   0.624
 1872TIP3   OH2 5560   7.595   6.452   1.713
 1872TIP3    H1 5561   7.556   6.462   1.800
 1872TIP3    H2 5562   7.592   6.358   1.695
 1873TIP3   OH2 5563   5.810   1.062   6.561
 1873TIP3    H1 5564   5.721   1.025   6.561
 1873TIP3    H2 5565   5.805   1.135   6.500
 1874TIP3   OH2 5566   4.899   1.406   0.377
 1874TIP3    H1 5567   4.974   1.383   0.323
 1874TIP3    H2 5568   4.934   1.464   0.444
 1875TIP3   OH2 5569   3.260   0.241   5.170
 1875TIP3    H1 5570   3.257   0.234   5.265
 1875TIP3    H2 5571   3.345   0.281   5.152
 1876TIP3   OH2 5572   1.624   7.524   0.056
 1876TIP3    H1 5573   1.708   7.495   0.090
 1876TIP3    H2 5574   1.590   7.449   0.008
 1877TIP3   OH2 5575   0.701   0.629   1.740
 1877TIP3    H1 5576   0.711   0.579   1.659
 1877TIP3    H2 5577   0.608   0.651   1.743
 1878TIP3   OH2 5578   4.823   7.400   1.374
 1878TIP3    H1 5579   4.767   7.349   1.316
 1878TIP3    H2 5580   4.868   7.461   1.316
 1879TIP3   OH2 5581   5.393   4.298   4.910
 1879TIP3    H1 5582   5.373   4.340   4.994
 1879TIP3    H2 5583   5.461   4.235   4.930
 1880TIP3   OH2 5584   4.339   7.400   6.421
 1880TIP3    H1 5585   4.412   7.435   6.369
 1880TIP3    H2 5586   4.356   7.306   6.426
 1881TIP3   OH2 5587   5.058   6.182   1.410
 1881TIP3    H1 5588   5.022   6.235   1.481
 1881TIP3    H2 5589   4.982   6.140   1.370
 1882TIP3   OH2 5590   3.685   0.752   5.432
 1882TIP3    H1 5591   3.664   0.725   5.343
 1882TIP3    H2 5592   3.764   0.703   5.454
 1883TIP3   OH2 5593   4.470   1.077   1.392
 1883TIP3    H1 5594   4.377   1.100   1.398
 1883TIP3    H2 5595   4.482   1.010   1.459
 1884TIP3   OH2 5596   5.650   0.726   3.775
 1884TIP3    H1 5597   5.556   0.711   3.761
 1884TIP3    H2 5598   5.661   0.724   3.870
 1885TIP3   OH2 5599   6.856   3.154   0.669
 1885TIP3    H1 5600   6.787   3.221   0.663
 1885TIP3    H2 5601   6.875   3.132   0.577
 1886TIP3   OH2 5602   6.227   0.978   4.815
 1886TIP3    H1 5603   6.233   1.035   4.892
 1886TIP3    H2 5604   6.274   0.898   4.841
 1887TIP3   OH2 5605   0.982   3.010   4.348
 1887TIP3    H1 5606   0.895   3.011   4.308
 1887TIP3    H2 5607   0.974   2.948   4.420
 1888TIP3   OH2 5608   7.056   0.949   3.106
 1888TIP3    H1 5609   7.098   0.953   3.020
 1888TIP3    H2 5610   7.091   0.869   3.145
 1889TIP3   OH2 5611   4.438   6.619   5.203
 1889TIP3    H1 5612   4.422   6.640   5.111
 1889TIP3    H2 5613   4.447   6.524   5.205
 1890TIP3   OH2 5614   3.488   4.200   6.305
 1890TIP3    H1 5615   3.525   4.245   6.230
 1890TIP3    H2 5616   3.547   4.222   6.378
 1891TIP3   OH2 5617   3.031   4.956   2.749
 1891TIP3    H1 5618   3.117   4.972   2.709
 1891TIP3    H2 5619   3.045   4.968   2.843
 1892TIP3   OH2 5620   5.476   4.451   0.187
 1892TIP3    H1 5621   5.486   4.541   0.155
 1892TIP3    H2 5622   5.558   4.408   0.162
 1893TIP3   OH2 5623   3.444   2.535   0.841
 1893TIP3    H1 5624   3.409   2.447   0.823
 1893TIP3    H2 5625   3.535   2.531   0.811
 1894TIP3   OH2 5626   6.913   2.086   0.749
 1894TIP3    H1 5627   6.906   1.991   0.733
 1894TIP3    H2 5628   6.829   2.121   0.722
 1895TIP3   OH2 5629   0.388   2.565   4.114
 1895TIP3    H1 5630   0.366   2.478   4.081
 1895TIP3    H2 5631   0.376   2.558   4.209
 1896TIP3   OH2 5632   5.035   5.481   6.624
 1896TIP3    H1 5633   5.016   5.573   6.606
 1896TIP3    H2 5634   4.970   5.455   6.690
 1897TIP3   OH2 5635   3.652   6.731   0.498
 1897TIP3    H1 5636   3.600   6.657   0.531
 1897TIP3    H2 5637   3.662   6.714   0.405
 1898TIP3   OH2 5638   3.449   4.512   2.211
 1898TIP3    H1 5639   3.469   4.460   2.133
 1898TIP3    H2 5640   3.472   4.602   2.185
 1899TIP3   OH2 5641   0.163   4.159   1.649
 1899TIP3    H1 5642   0.151   4.110   1.731
 1899TIP3    H2 5643   0.235   4.220   1.668
 1900TIP3   OH2 5644   8.290   2.579   1.668
 1900TIP3    H1 5645   8.343   2.655   1.642
 1900TIP3    H2 5646   8.276   2.531   1.586
 1901TIP3   OH2 5647   1.975   4.522   6.130
 1901TIP3    H1 5648   2.006   4.598   6.180
 1901TIP3    H2 5649   2.038   4.453   6.150
 1902TIP3   OH2 5650   7.847   2.293   5.997
 1902TIP3    H1 5651   7.761   2.333   6.006
 1902TIP3    H2 5652   7.844   2.246   5.914
 1903TIP3   OH2 5653   5.981   1.492   6.600
 1903TIP3    H1 5654   5.943   1.579   6.596
 1903TIP3    H2 5655   5.924   1.443   6.660
 1904TIP3   OH2 5656   7.588   5.205   5.065
 1904TIP3    H1 5657   7.515   5.258   5.032
 1904TIP3    H2 5658   7.650   5.269   5.100
 1905TIP3   OH2 5659   8.099   2.938   0.556
 1905TIP3    H1 5660   8.004   2.932   0.557
 1905TIP3    H2 5661   8.126   2.909   0.643
 1906TIP3   OH2 5662   3.417   6.559   4.759
 1906TIP3    H1 5663   3.461   6.475   4.754
 1906TIP3    H2 5664   3.472   6.612   4.816
 1907TIP3   OH2 5665   4.502   2.510   4.923
 1907TIP3    H1 5666   4.586   2.466   4.911
 1907TIP3    H2 5667   4.501   2.578   4.856
 1908TIP3   OH2 5668   1.951   2.224   4.537
 1908TIP3    H1 5669   1.903   2.193   4.614
 1908TIP3    H2 5670   1.897   2.198   4.462
 1909TIP3   OH2 5671   4.502   6.185   4.474
 1909TIP3    H1 5672   4.589   6.189   4.434
 1909TIP3    H2 5673   4.519   6.174   4.567
 1910TIP3   OH2 5674   3.277   0.598   5.488
 1910TIP3    H1 5675   3.318   0.615   5.573
 1910TIP3    H2 5676   3.301   0.674   5.434
 1911TIP3   OH2 5677   3.877   0.515   3.189
 1911TIP3    H1 5678   3.843   0.445   3.246
 1911TIP3    H2 5679   3.955   0.547   3.235
 1912TIP3   OH2 5680   3.249   3.669   5.807
 1912TIP3    H1 5681   3.205   3.636   5.728
 1912TIP3    H2 5682   3.214   3.617   5.878
 1913TIP3   OH2 5683   2.282   7.354   2.544
 1913TIP3    H1 5684   2.234   7.409   2.482
 1913TIP3    H2 5685   2.270   7.396   2.629
 1914TIP3   OH2 5686   4.907   0.861   2.859
 1914TIP3    H1 5687   4.957   0.822   2.930
 1914TIP3    H2 5688   4.926   0.806   2.783
 1915TIP3   OH2 5689   7.367   5.494   0.335
 1915TIP3    H1 5690   7.419   5.416   0.352
 1915TIP3    H2 5691   7.339   5.485   0.244
 1916TIP3   OH2 5692   7.410   5.617   2.246
 1916TIP3    H1 5693   7.410   5.705   2.209
 1916TIP3    H2 5694   7.319   5.589   2.245
 1917TIP3   OH2 5695   1.812   3.587   5.161
 1917TIP3    H1 5696   1.867   3.665   5.151
 1917TIP3    H2 5697   1.840   3.529   5.091
 1918TIP3   OH2 5698   6.469   4.363   6.590
 1918TIP3    H1 5699   6.509   4.300   6.650
 1918TIP3    H2 5700   6.495   4.448   6.623
 1919TIP3   OH2 5701   5.827   4.593   5.657
 1919TIP3    H1 5702   5.912   4.586   5.615
 1919TIP3    H2 5703   5.847   4.601   5.751
 1920TIP3   OH2 5704   5.266   0.888   0.824
 1920TIP3    H1 5705   5.274   0.813   0.766
 1920TIP3    H2 5706   5.345   0.884   0.879
 1921TIP3   OH2 5707   8.234   0.918   0.193
 1921TIP3    H1 5708   8.140   0.913   0.214
 1921TIP3    H2 5709   8.265   0.995   0.239
 1922TIP3   OH2 5710   0.781   6.446   6.367
 1922TIP3    H1 5711   0.876   6.449   6.363
 1922TIP3    H2 5712   0.758   6.499   6.443
 1923TIP3   OH2 5713   4.257   2.838   4.023
 1923TIP3    H1 5714   4.286   2.773   3.959
 1923TIP3    H2 5715   4.166   2.816   4.040
 1924TIP3   OH2 5716   0.509   0.012   5.565
 1924TIP3    H1 5717   0.600   0.041   5.557
 1924TIP3    H2 5718   0.486   0.029   5.656
 1925TIP3   OH2 5719   2.903   3.113   1.149
 1925TIP3    H1 5720   2.923   3.167   1.072
 1925TIP3    H2 5721   2.818   3.075   1.130
 1926TIP3   OH2 5722   0.246   1.283   5.883
 1926TIP3    H1 5723   0.310   1.337   5.930
 1926TIP3    H2 5724   0.165   1.333   5.889
 1927TIP3   OH2 5725   6.509   7.638   1.196
 1927TIP3    H1 5726   6.455   7.699   1.146
 1927TIP3    H2 5727   6.450   7.603   1.263
 1928TIP3   OH2 5728   7.718   0.108   5.456
 1928TIP3    H1 5729   7.773   0.033   5.478
 1928TIP3    H2 5730   7.628   0.079   5.475
 1929TIP3   OH2 5731   6.804   3.107   0.124
 1929TIP3    H1 5732   6.744   3.088   0.196
 1929TIP3    H2 5733   6.782   3.196   0.096
 1930TIP3   OH2 5734   7.373   1.076   6.501
 1930TIP3    H1 5735   7.394   1.117   6.418
 1930TIP3    H2 5736   7.457   1.076   6.549
 1931TIP3   OH2 5737   3.499   0.656   5.650
 1931TIP3    H1 5738   3.475   0.730   5.705
 1931TIP3    H2 5739   3.541   0.696   5.573
 1932TIP3   OH2 5740   3.376   6.363   2.623
 1932TIP3    H1 5741   3.449   6.401   2.575
 1932TIP3    H2 5742   3.389   6.268   2.616
 1933TIP3   OH2 5743   7.214   1.577   0.410
 1933TIP3    H1 5744   7.179   1.525   0.338
 1933TIP3    H2 5745   7.309   1.577   0.396
 1934TIP3   OH2 5746   5.088   4.944   2.311
 1934TIP3    H1 5747   4.994   4.960   2.303
 1934TIP3    H2 5748   5.115   4.918   2.223
 1935TIP3   OH2 5749   3.112   7.218   0.079
 1935TIP3    H1 5750   3.158   7.135   0.095
 1935TIP3    H2 5751   3.155   7.280   0.138
 1936TIP3   OH2 5752   1.936   2.089   1.510
 1936TIP3    H1 5753   1.889   2.005   1.504
 1936TIP3    H2 5754   2.016   2.069   1.559
 1937TIP3   OH2 5755   8.048   4.068   1.080
 1937TIP3    H1 5756   8.022   4.126   1.151
 1937TIP3    H2 5757   7.968   4.050   1.032
 1938TIP3   OH2 5758   7.289   3.353   2.165
 1938TIP3    H1 5759   7.318   3.270   2.126
 1938TIP3    H2 5760   7.199   3.336   2.192
 1939TIP3   OH2 5761   8.114   7.302   0.175
 1939TIP3    H1 5762   8.093   7.338   0.089
 1939TIP3    H2 5763   8.171   7.367   0.216
 1940TIP3   OH2 5764   7.789   4.738   6.183
 1940TIP3    H1 5765   7.815   4.830   6.184
 1940TIP3    H2 5766   7.712   4.735   6.126
 1941TIP3   OH2 5767   5.916   5.815   6.382
 1941TIP3    H1 5768   5.821   5.808   6.381
 1941TIP3    H2 5769   5.946   5.751   6.317
 1942TIP3   OH2 5770   4.915   0.368   1.153
 1942TIP3    H1 5771   4.827   0.334   1.167
 1942TIP3    H2 5772   4.908   0.423   1.075
 1943TIP3   OH2 5773   2.553   1.968   5.426
 1943TIP3    H1 5774   2.496   1.999   5.496
 1943TIP3    H2 5775   2.582   1.881   5.455
 1944TIP3   OH2 5776   2.799   0.081   2.480
 1944TIP3    H1 5777   2.787   0.175   2.475
 1944TIP3    H2 5778   2.861   0.067   2.551
 1945TIP3   OH2 5779   3.925   2.735   4.746
 1945TIP3    H1 5780   3.879   2.659   4.782
 1945TIP3    H2 5781   4.017   2.722   4.771
 1946TIP3   OH2 5782   4.448   4.192   4.019
 1946TIP3    H1 5783   4.400   4.110   4.034
 1946TIP3    H2 5784   4.516   4.192   4.086
 1947TIP3   OH2 5785   2.425   5.963   1.925
 1947TIP3    H1 5786   2.471   6.012   1.993
 1947TIP3    H2 5787   2.491   5.950   1.856
 1948TIP3   OH2 5788   4.829   2.887   2.926
 1948TIP3    H1 5789   4.925   2.891   2.929
 1948TIP3    H2 5790   4.808   2.810   2.980
 1949TIP3   OH2 5791   5.355   1.767   0.750
 1949TIP3    H1 5792   5.330   1.814   0.671
 1949TIP3    H2 5793   5.450   1.757   0.744
 1950TIP3   OH2 5794   3.927   4.058   5.361
 1950TIP3    H1 5795   3.919   4.143   5.404
 1950TIP3    H2 5796   4.021   4.039   5.364
 1951TIP3   OH2 5797   5.684   6.251   6.561
 1951TIP3    H1 5798   5.604   6.303   6.554
 1951TIP3    H2 5799   5.655   6.167   6.596
 1952TIP3   OH2 5800   1.512   7.127   4.201
 1952TIP3    H1 5801   1.538   7.079   4.123
 1952TIP3    H2 5802   1.432   7.084   4.230
 1953TIP3   OH2 5803   0.816   4.343   0.634
 1953TIP3    H1 5804   0.779   4.410   0.577
 1953TIP3    H2 5805   0.741   4.290   0.660
 1954TIP3   OH2 5806   3.823   7.239   5.963
 1954TIP3    H1 5807   3.779   7.182   5.899
 1954TIP3    H2 5808   3.908   7.198   5.976
 1955TIP3   OH2 5809   3.956   2.093   5.614
 1955TIP3    H1 5810   3.940   2.123   5.525
 1955TIP3    H2 5811   3.985   2.002   5.604
 1956TIP3   OH2 5812   7.058   3.470   1.073
 1956TIP3    H1 5813   7.118   3.544   1.060
 1956TIP3    H2 5814   6.971   3.510   1.073
 1957TIP3   OH2 5815   5.689   2.744   5.688
 1957TIP3    H1 5816   5.633   2.739   5.765
 1957TIP3    H2 5817   5.735   2.828   5.696
 1958TIP3   OH2 5818   0.778   2.571   1.781
 1958TIP3    H1 5819   0.770   2.499   1.719
 1958TIP3    H2 5820   0.801   2.529   1.864
 1959TIP3   OH2 5821   5.150   3.052   2.253
 1959TIP3    H1 5822   5.123   3.045   2.345
 1959TIP3    H2 5823   5.069   3.069   2.206
 1960TIP3   OH2 5824   0.230   7.775   6.631
 1960TIP3    H1 5825   0.299   7.709   6.634
 1960TIP3    H2 5826   0.185   7.759   6.548
 1961TIP3   OH2 5827   5.754   2.021   1.421
 1961TIP3    H1 5828   5.723   2.099   1.467
 1961TIP3    H2 5829   5.676   1.983   1.381
 1962TIP3   OH2 5830   1.266   7.742   6.126
 1962TIP3    H1 5831   1.302   7.654   6.139
 1962TIP3    H2 5832   1.342   7.797   6.107
 1963TIP3   OH2 5833   7.900   4.306   1.642
 1963TIP3    H1 5834   7.979   4.258   1.618
 1963TIP3    H2 5835   7.828   4.253   1.608
 1964TIP3   OH2 5836   2.309   1.964   6.158
 1964TIP3    H1 5837   2.241   1.998   6.100
 1964TIP3    H2 5838   2.268   1.964   6.245
 1965TIP3   OH2 5839   2.753   3.785   6.661
 1965TIP3    H1 5840   2.726   3.837   6.586
 1965TIP3    H2 5841   2.681   3.723   6.675
 1966TIP3   OH2 5842   5.001   4.856   0.564
 1966TIP3    H1 5843   4.938   4.917   0.603
 1966TIP3    H2 5844   5.086   4.889   0.591
 1967TIP3   OH2 5845   2.417   4.368   5.584
 1967TIP3    H1 5846   2.509   4.360   5.610
 1967TIP3    H2 5847   2.390   4.279   5.564
 1968TIP3   OH2 5848   0.216   4.314   3.865
 1968TIP3    H1 5849   0.128   4.307   3.827
 1968TIP3    H2 5850   0.251   4.395   3.829
 1969TIP3   OH2 5851   0.576   4.697   3.000
 1969TIP3    H1 5852   0.509   4.717   3.065
 1969TIP3    H2 5853   0.558   4.606   2.975
 1970TIP3   OH2 5854   3.894   6.697   1.831
 1970TIP3    H1 5855   3.897   6.614   1.783
 1970TIP3    H2 5856   3.800   6.717   1.837
 1971TIP3   OH2 5857   3.281   2.343   5.273
 1971TIP3    H1 5858   3.330   2.263   5.294
 1971TIP3    H2 5859   3.339   2.393   5.216
 1972TIP3   OH2 5860   4.834   3.819   0.157
 1972TIP3    H1 5861   4.768   3.887   0.146
 1972TIP3    H2 5862   4.794   3.740   0.123
 1973TIP3   OH2 5863   4.282   5.798   2.136
 1973TIP3    H1 5864   4.352   5.824   2.195
 1973TIP3    H2 5865   4.202   5.809   2.186
 1974TIP3   OH2 5866   2.565   1.012   6.622
 1974TIP3    H1 5867   2.644   0.986   6.576
 1974TIP3    H2 5868   2.519   0.930   6.640
 1975TIP3   OH2 5869   0.551   4.386   5.885
 1975TIP3    H1 5870   0.584   4.453   5.944
 1975TIP3    H2 5871   0.608   4.391   5.809
 1976TIP3   OH2 5872   5.713   3.562   4.756
 1976TIP3    H1 5873   5.790   3.516   4.790
 1976TIP3    H2 5874   5.640   3.530   4.810
 1977TIP3   OH2 5875   4.444   3.801   2.323
 1977TIP3    H1 5876   4.460   3.717   2.280
 1977TIP3    H2 5877   4.383   3.846   2.265
 1978TIP3   OH2 5878   1.320   0.989   0.284
 1978TIP3    H1 5879   1.297   1.072   0.327
 1978TIP3    H2 5880   1.392   1.013   0.225
 1979TIP3   OH2 5881   5.358   2.127   6.215
 1979TIP3    H1 5882   5.439   2.175   6.197
 1979TIP3    H2 5883   5.296   2.161   6.150
 1980TIP3   OH2 5884   1.853   4.161   6.159
 1980TIP3    H1 5885   1.915   4.180   6.229
 1980TIP3    H2 5886   1.904   4.172   6.079
 1981TIP3   OH2 5887   2.333   1.271   6.492
 1981TIP3    H1 5888   2.354   1.194   6.439
 1981TIP3    H2 5889   2.326   1.342   6.428
 1982TIP3   OH2 5890   2.480   6.957   4.936
 1982TIP3    H1 5891   2.483   7.011   4.857
 1982TIP3    H2 5892   2.557   6.901   4.930
 1983TIP3   OH2 5893   1.596   5.069   0.728
 1983TIP3    H1 5894   1.566   5.028   0.647
 1983TIP3    H2 5895   1.522   5.059   0.788
 1984TIP3   OH2 5896   6.366   1.321   5.322
 1984TIP3    H1 5897   6.326   1.242   5.360
 1984TIP3    H2 5898   6.293   1.365   5.278
 1985TIP3   OH2 5899   4.218   1.765   3.314
 1985TIP3    H1 5900   4.134   1.805   3.336
 1985TIP3    H2 5901   4.244   1.806   3.232
 1986TIP3   OH2 5902   4.102   6.311   4.933
 1986TIP3    H1 5903   4.120   6.325   4.840
 1986TIP3    H2 5904   4.034   6.374   4.954
 1987TIP3   OH2 5905   5.591   0.018   3.174
 1987TIP3    H1 5906   5.649   0.012   3.249
 1987TIP3    H2 5907   5.622   0.093   3.124
 1988TIP3   OH2 5908   2.458   0.468   6.191
 1988TIP3    H1 5909   2.419   0.449   6.105
 1988TIP3    H2 5910   2.511   0.391   6.211
 1989TIP3   OH2 5911   1.209   5.418   0.103
 1989TIP3    H1 5912   1.199   5.456   0.191
 1989TIP3    H2 5913   1.188   5.325   0.115
 1990TIP3   OH2 5914   4.231   3.093   4.224
 1990TIP3    H1 5915   4.234   3.007   4.266
 1990TIP3    H2 5916   4.143   3.100   4.188
 1991TIP3   OH2 5917   7.177   0.526   6.416
 1991TIP3    H1 5918   7.099   0.570   6.449
 1991TIP3    H2 5919   7.146   0.475   6.341
 1992TIP3   OH2 5920   2.416   6.403   3.742
 1992TIP3    H1 5921   2.423   6.418   3.836
 1992TIP3    H2 5922   2.494   6.445   3.705
 1993TIP3   OH2 5923   0.396   5.012   1.108
 1993TIP3    H1 5924   0.336   4.959   1.056
 1993TIP3    H2 5925   0.462   5.042   1.045
 1994TIP3   OH2 5926   0.833   5.814   0.531
 1994TIP3    H1 5927   0.919   5.855   0.527
 1994TIP3    H2 5928   0.845   5.729   0.490
 1995TIP3   OH2 5929   4.161   4.788   2.329
 1995TIP3    H1 5930   4.237   4.741   2.362
 1995TIP3    H2 5931   4.152   4.760   2.238
 1996TIP3   OH2 5932   5.081   6.522   3.368
 1996TIP3    H1 5933   5.158   6.476   3.400
 1996TIP3    H2 5934   5.035   6.458   3.314
 1997TIP3   OH2 5935   1.835   6.350   0.885
 1997TIP3    H1 5936   1.862   6.429   0.838
 1997TIP3    H2 5937   1.760   6.379   0.937
 1998TIP3   OH2 5938   0.463   3.890   0.126
 1998TIP3    H1 5939   0.410   3.830   0.073
 1998TIP3    H2 5940   0.461   3.853   0.214
 1999TIP3   OH2 5941   5.732   3.493   3.151
 1999TIP3    H1 5942   5.758   3.402   3.134
 1999TIP3    H2 5943   5.789   3.522   3.222
 2000TIP3   OH2 5944   1.831   0.048   2.580
 2000TIP3    H1 5945   1.866   0.099   2.507
 2000TIP3    H2 5946   1.870   0.087   2.658
 2001TIP3   OH2 5947   7.624   0.151   3.435
 2001TIP3    H1 5948   7.687   0.223   3.436
 2001TIP3    H2 5949   7.542   0.191   3.465
 2002TIP3   OH2 5950   2.642   5.189   0.230
 2002TIP3    H1 5951   2.704   5.123   0.199
 2002TIP3    H2 5952   2.590   5.212   0.153
 2003TIP3   OH2 5953   4.322   6.609   4.944
 2003TIP3    H1 5954   4.290   6.593   4.856
 2003TIP3    H2 5955   4.244   6.633   4.994
 2004TIP3   OH2 5956   6.225   4.189   0.500
 2004TIP3    H1 5957   6.171   4.166   0.425
 2004TIP3    H2 5958   6.164   4.225   0.564
 2005TIP3   OH2 5959   3.332   2.412   3.214
 2005TIP3    H1 5960   3.365   2.499   3.192
 2005TIP3    H2 5961   3.376   2.353   3.152
 2006TIP3   OH2 5962   3.158   3.236   2.197
 2006TIP3    H1 5963   3.227   3.290   2.236
 2006TIP3    H2 5964   3.134   3.174   2.265
 2007TIP3   OH2 5965   7.509   5.110   4.209
 2007TIP3    H1 5966   7.428   5.072   4.174
 2007TIP3    H2 5967   7.480   5.163   4.283
 2008TIP3   OH2 5968   7.542   2.736   5.931
 2008TIP3    H1 5969   7.494   2.733   6.014
 2008TIP3    H2 5970   7.634   2.727   5.957
 2009TIP3   OH2 5971   6.072   2.259   0.723
 2009TIP3    H1 5972   6.142   2.265   0.658
 2009TIP3    H2 5973   6.064   2.166   0.742
 2010TIP3   OH2 5974   4.160   0.133   6.644
 2010TIP3    H1 5975   4.186   0.082   6.568
 2010TIP3    H2 5976   4.243   0.155   6.688
 2011TIP3   OH2 5977   4.571   7.438   0.923
 2011TIP3    H1 5978   4.529   7.405   1.003
 2011TIP3    H2 5979   4.658   7.398   0.923
 2012TIP3   OH2 5980   5.918   3.442   4.467
 2012TIP3    H1 5981   5.950   3.450   4.376
 2012TIP3    H2 5982   5.998   3.434   4.519
 2013TIP3   OH2 5983   5.906   4.946   5.437
 2013TIP3    H1 5984   5.812   4.937   5.448
 2013TIP3    H2 5985   5.941   4.943   5.526
 2014TIP3   OH2 5986   4.480   1.650   5.082
 2014TIP3    H1 5987   4.453   1.585   5.146
 2014TIP3    H2 5988   4.575   1.636   5.072
 2015TIP3   OH2 5989   0.139   1.121   6.658
 2015TIP3    H1 5990   0.152   1.120   6.753
 2015TIP3    H2 5991   0.044   1.120   6.647
 2016TIP3   OH2 5992   2.344   5.421   1.184
 2016TIP3    H1 5993   2.305   5.487   1.127
 2016TIP3    H2 5994   2.344   5.461   1.271
 2017TIP3   OH2 5995   1.976   1.405   0.750
 2017TIP3    H1 5996   2.058   1.449   0.727
 2017TIP3    H2 5997   1.907   1.464   0.719
 2018TIP3   OH2 5998   5.439   6.132   2.179
 2018TIP3    H1 5999   5.362   6.119   2.234
 2018TIP3    H2 6000   5.416   6.094   2.095
 2019TIP3   OH2 6001   2.773   5.535   2.584
 2019TIP3    H1 6002   2.863   5.523   2.552
 2019TIP3    H2 6003   2.729   5.583   2.514
 2020TIP3   OH2 6004   0.628   4.201   0.102
 2020TIP3    H1 6005   0.644   4.116   0.060
 2020TIP3    H2 6006   0.709   4.220   0.149
 2021TIP3   OH2 6007   1.456   7.267   2.457
 2021TIP3    H1 6008   1.489   7.236   2.542
 2021TIP3    H2 6009   1.465   7.191   2.399
 2022TIP3   OH2 6010   2.585   0.619   4.405
 2022TIP3    H1 6011   2.590   0.649   4.496
 2022TIP3    H2 6012   2.665   0.654   4.364
 2023TIP3   OH2 6013   2.198   5.346   1.829
 2023TIP3    H1 6014   2.213   5.251   1.830
 2023TIP3    H2 6015   2.147   5.363   1.908
 2024TIP3   OH2 6016   6.428   1.672   3.037
 2024TIP3    H1 6017   6.374   1.601   3.072
 2024TIP3    H2 6018   6.437   1.733   3.109
 2025TIP3   OH2 6019   7.039   1.809   0.684
 2025TIP3    H1 6020   7.065   1.754   0.610
 2025TIP3    H2 6021   7.086   1.891   0.671
 2026TIP3   OH2 6022   1.692   4.615   6.121
 2026TIP3    H1 6023   1.710   4.693   6.069
 2026TIP3    H2 6024   1.763   4.554   6.098
 2027TIP3   OH2 6025   4.977   1.098   3.106
 2027TIP3    H1 6026   4.985   1.190   3.131
 2027TIP3    H2 6027   4.886   1.090   3.076
 2028TIP3   OH2 6028   4.559   4.500   5.401
 2028TIP3    H1 6029   4.633   4.534   5.451
 2028TIP3    H2 6030   4.484   4.551   5.432
 2029TIP3   OH2 6031   0.896   6.679   0.729
 2029TIP3    H1 6032   0.981   6.660   0.769
 2029TIP3    H2 6033   0.837   6.614   0.767
 2030TIP3   OH2 6034   7.819   0.248   2.564
 2030TIP3    H1 6035   7.880   0.189   2.608
 2030TIP3    H2 6036   7.869   0.285   2.491
 2031TIP3   OH2 6037   7.085   0.935   4.320
 2031TIP3    H1 6038   7.041   0.941   4.235
 2031TIP3    H2 6039   7.039   0.865   4.366
 2032TIP3   OH2 6040   5.159   7.809   2.475
 2032TIP3    H1 6041   5.078   7.779   2.516
 2032TIP3    H2 6042   5.166   7.757   2.395
 2033TIP3   OH2 6043   1.054   2.123   5.801
 2033TIP3    H1 6044   0.978   2.177   5.820
 2033TIP3    H2 6045   1.121   2.185   5.773
 2034TIP3   OH2 6046   0.896   5.585   1.341
 2034TIP3    H1 6047   0.871   5.493   1.329
 2034TIP3    H2 6048   0.912   5.618   1.253
 2035TIP3   OH2 6049   0.226   3.651   3.203
 2035TIP3    H1 6050   0.140   3.610   3.210
 2035TIP3    H2 6051   0.287   3.579   3.189
 2036TIP3   OH2 6052   6.247   3.648   6.081
 2036TIP3    H1 6053   6.174   3.708   6.067
 2036TIP3    H2 6054   6.316   3.702   6.119
 2037TIP3   OH2 6055   4.835   5.607   2.493
 2037TIP3    H1 6056   4.854   5.691   2.535
 2037TIP3    H2 6057   4.875   5.542   2.551
 2038TIP3   OH2 6058   0.649   2.786   2.911
 2038TIP3    H1 6059   0.681   2.696   2.906
 2038TIP3    H2 6060   0.713   2.837   2.861
 2039TIP3   OH2 6061   3.545   7.475   3.301
 2039TIP3    H1 6062   3.475   7.477   3.235
 2039TIP3    H2 6063   3.504   7.440   3.379
 2040TIP3   OH2 6064   4.885   4.209   3.338
 2040TIP3    H1 6065   4.794   4.238   3.334
 2040TIP3    H2 6066   4.937   4.289   3.336
 2041TIP3   OH2 6067   7.346   2.879   0.598
 2041TIP3    H1 6068   7.268   2.933   0.590
 2041TIP3    H2 6069   7.323   2.796   0.557
 2042TIP3   OH2 6070   5.043   2.961   0.362
 2042TIP3    H1 6071   5.117   2.938   0.306
 2042TIP3    H2 6072   5.078   2.960   0.451
 2043TIP3   OH2 6073   1.665   1.565   3.968
 2043TIP3    H1 6074   1.581   1.608   3.955
 2043TIP3    H2 6075   1.710   1.574   3.884
 2044TIP3   OH2 6076   4.646   1.684   1.749
 2044TIP3    H1 6077   4.554   1.677   1.774
 2044TIP3    H2 6078   4.658   1.776   1.728
 2045TIP3   OH2 6079   0.339   3.528   0.215
 2045TIP3    H1 6080   0.369   3.496   0.130
 2045TIP3    H2 6081   0.293   3.609   0.195
 2046TIP3   OH2 6082   6.729   7.553   2.554
 2046TIP3    H1 6083   6.720   7.597   2.638
 2046TIP3    H2 6084   6.642   7.559   2.514
 2047TIP3   OH2 6085   8.154   6.099   5.253
 2047TIP3    H1 6086   8.144   6.007   5.228
 2047TIP3    H2 6087   8.220   6.099   5.322
 2048TIP3   OH2 6088   3.087   6.995   6.733
 2048TIP3    H1 6089   3.036   7.077   6.737
 2048TIP3    H2 6090   3.022   6.926   6.747
 2049TIP3   OH2 6091   2.985   1.327   4.540
 2049TIP3    H1 6092   2.918   1.382   4.501
 2049TIP3    H2 6093   3.068   1.370   4.518
 2050TIP3   OH2 6094   2.601   5.250   6.444
 2050TIP3    H1 6095   2.597   5.344   6.460
 2050TIP3    H2 6096   2.549   5.211   6.514
 2051TIP3   OH2 6097   6.974   1.265   4.590
 2051TIP3    H1 6098   6.918   1.213   4.532
 2051TIP3    H2 6099   7.000   1.204   4.659
 2052TIP3   OH2 6100   5.564   4.852   5.192
 2052TIP3    H1 6101   5.612   4.777   5.226
 2052TIP3    H2 6102   5.536   4.825   5.104
 2053TIP3   OH2 6103   2.787   1.091   6.073
 2053TIP3    H1 6104   2.843   1.155   6.116
 2053TIP3    H2 6105   2.811   1.097   5.980
 2054TIP3   OH2 6106   4.956   5.765   4.256
 2054TIP3    H1 6107   4.942   5.728   4.169
 2054TIP3    H2 6108   5.043   5.735   4.282
 2055TIP3   OH2 6109   6.034   2.564   2.480
 2055TIP3    H1 6110   6.127   2.552   2.501
 2055TIP3    H2 6111   5.998   2.475   2.478
 2056TIP3   OH2 6112   2.787   6.002   6.730
 2056TIP3    H1 6113   2.761   6.026   6.819
 2056TIP3    H2 6114   2.825   6.082   6.694
 2057TIP3   OH2 6115   4.980   5.823   5.345
 2057TIP3    H1 6116   5.067   5.832   5.386
 2057TIP3    H2 6117   4.996   5.769   5.268
 2058TIP3   OH2 6118   7.096   5.405   0.497
 2058TIP3    H1 6119   7.067   5.491   0.525
 2058TIP3    H2 6120   7.191   5.409   0.499
 2059TIP3   OH2 6121   8.226   5.284   4.452
 2059TIP3    H1 6122   8.162   5.230   4.499
 2059TIP3    H2 6123   8.295   5.301   4.516
 2060TIP3   OH2 6124   5.290   6.753   3.199
 2060TIP3    H1 6125   5.315   6.676   3.148
 2060TIP3    H2 6126   5.306   6.728   3.290
 2061TIP3   OH2 6127   8.117   2.006   4.521
 2061TIP3    H1 6128   8.179   1.963   4.461
 2061TIP3    H2 6129   8.036   2.012   4.471
 2062TIP3   OH2 6130   7.370   0.871   2.981
 2062TIP3    H1 6131   7.305   0.812   2.944
 2062TIP3    H2 6132   7.433   0.884   2.910
 2063TIP3   OH2 6133   0.377   1.993   2.858
 2063TIP3    H1 6134   0.448   2.048   2.890
 2063TIP3    H2 6135   0.298   2.031   2.896
 2064TIP3   OH2 6136   3.827   6.060   1.510
 2064TIP3    H1 6137   3.845   5.989   1.448
 2064TIP3    H2 6138   3.732   6.073   1.504
 2065TIP3   OH2 6139   4.308   1.106   2.337
 2065TIP3    H1 6140   4.325   1.050   2.412
 2065TIP3    H2 6141   4.319   1.195   2.370
 2066TIP3   OH2 6142   4.844   2.915   5.256
 2066TIP3    H1 6143   4.891   2.869   5.187
 2066TIP3    H2 6144   4.793   2.982   5.209
 2067TIP3   OH2 6145   3.629   1.070   5.758
 2067TIP3    H1 6146   3.556   1.110   5.710
 2067TIP3    H2 6147   3.707   1.091   5.705
 2068TIP3   OH2 6148   3.488   7.470   2.880
 2068TIP3    H1 6149   3.437   7.488   2.959
 2068TIP3    H2 6150   3.467   7.542   2.821
 2069TIP3   OH2 6151   7.536   0.386   0.193
 2069TIP3    H1 6152   7.459   0.372   0.139
 2069TIP3    H2 6153   7.600   0.323   0.160
 2070TIP3   OH2 6154   1.279   0.624   6.578
 2070TIP3    H1 6155   1.220   0.599   6.506
 2070TIP3    H2 6156   1.358   0.572   6.563
 2071TIP3   OH2 6157   1.168   3.873   0.687
 2071TIP3    H1 6158   1.095   3.839   0.634
 2071TIP3    H2 6159   1.145   3.965   0.702
 2072TIP3   OH2 6160   2.446   0.502   2.680
 2072TIP3    H1 6161   2.418   0.590   2.704
 2072TIP3    H2 6162   2.411   0.446   2.750
 2073TIP3   OH2 6163   5.607   3.958   6.710
 2073TIP3    H1 6164   5.666   3.896   6.668
 2073TIP3    H2 6165   5.558   3.906   6.773
 2074TIP3   OH2 6166   2.485   4.220   4.639
 2074TIP3    H1 6167   2.539   4.142   4.633
 2074TIP3    H2 6168   2.483   4.254   4.549
 2075TIP3   OH2 6169   7.299   5.527   3.297
 2075TIP3    H1 6170   7.350   5.576   3.361
 2075TIP3    H2 6171   7.291   5.439   3.335
 2076TIP3   OH2 6172   2.621   2.683   0.719
 2076TIP3    H1 6173   2.707   2.680   0.676
 2076TIP3    H2 6174   2.585   2.768   0.694
 2077TIP3   OH2 6175   4.161   6.379   3.957
 2077TIP3    H1 6176   4.203   6.314   3.901
 2077TIP3    H2 6177   4.201   6.462   3.931
 2078TIP3   OH2 6178   4.024   4.266   6.048
 2078TIP3    H1 6179   4.098   4.252   5.988
 2078TIP3    H2 6180   3.954   4.210   6.013
 2079TIP3   OH2 6181   3.947   6.376   1.940
 2079TIP3    H1 6182   3.992   6.332   2.012
 2079TIP3    H2 6183   3.955   6.470   1.960
 2080TIP3   OH2 6184   5.716   4.853   4.621
 2080TIP3    H1 6185   5.647   4.902   4.666
 2080TIP3    H2 6186   5.710   4.765   4.657
 2081TIP3   OH2 6187   6.742   2.856   5.274
 2081TIP3    H1 6188   6.757   2.775   5.225
 2081TIP3    H2 6189   6.662   2.839   5.324
 2082TIP3   OH2 6190   8.156   2.580   0.639
 2082TIP3    H1 6191   8.066   2.588   0.673
 2082TIP3    H2 6192   8.208   2.635   0.698
 2083TIP3   OH2 6193   0.956   1.652   4.391
 2083TIP3    H1 6194   0.868   1.680   4.414
 2083TIP3    H2 6195   0.961   1.562   4.422
 2084TIP3   OH2 6196   4.790   4.346   1.527
 2084TIP3    H1 6197   4.789   4.276   1.462
 2084TIP3    H2 6198   4.729   4.412   1.493
 2085TIP3   OH2 6199   1.813   3.757   4.163
 2085TIP3    H1 6200   1.831   3.663   4.156
 2085TIP3    H2 6201   1.745   3.773   4.097
 2086TIP3   OH2 6202   3.502   3.006   1.671
 2086TIP3    H1 6203   3.463   2.965   1.749
 2086TIP3    H2 6204   3.437   3.071   1.643
 2087TIP3   OH2 6205   0.440   6.557   5.289
 2087TIP3    H1 6206   0.351   6.584   5.311
 2087TIP3    H2 6207   0.469   6.622   5.225
 2088TIP3   OH2 6208   7.399   4.604   4.705
 2088TIP3    H1 6209   7.372   4.513   4.688
 2088TIP3    H2 6210   7.318   4.655   4.696
 2089TIP3   OH2 6211   5.024   4.347   2.103
 2089TIP3    H1 6212   5.080   4.356   2.180
 2089TIP3    H2 6213   5.045   4.424   2.049
 2090TIP3   OH2 6214   2.174   5.331   6.197
 2090TIP3    H1 6215   2.104   5.266   6.184
 2090TIP3    H2 6216   2.255   5.281   6.184
 2091TIP3   OH2 6217   3.879   5.296   2.562
 2091TIP3    H1 6218   3.840   5.383   2.560
 2091TIP3    H2 6219   3.891   5.278   2.656
 2092TIP3   OH2 6220   3.405   5.705   2.846
 2092TIP3    H1 6221   3.311   5.687   2.855
 2092TIP3    H2 6222   3.416   5.730   2.755
 2093TIP3   OH2 6223   0.103   0.034   4.808
 2093TIP3    H1 6224   0.015   0.051   4.777
 2093TIP3    H2 6225   0.156   0.104   4.769
 2094TIP3   OH2 6226   2.645   4.572   4.888
 2094TIP3    H1 6227   2.558   4.604   4.862
 2094TIP3    H2 6228   2.704   4.645   4.868
 2095TIP3   OH2 6229   2.163   2.625   3.614
 2095TIP3    H1 6230   2.080   2.587   3.645
 2095TIP3    H2 6231   2.220   2.549   3.601
 2096TIP3   OH2 6232   3.483   0.870   5.852
 2096TIP3    H1 6233   3.497   0.848   5.944
 2096TIP3    H2 6234   3.559   0.924   5.828
 2097TIP3   OH2 6235   3.189   1.526   0.413
 2097TIP3    H1 6236   3.198   1.442   0.457
 2097TIP3    H2 6237   3.252   1.523   0.342
 2098TIP3   OH2 6238   7.700   4.488   4.351
 2098TIP3    H1 6239   7.781   4.439   4.338
 2098TIP3    H2 6240   7.722   4.579   4.330
 2099TIP3   OH2 6241   1.425   4.144   4.176
 2099TIP3    H1 6242   1.388   4.090   4.245
 2099TIP3    H2 6243   1.449   4.226   4.219
 2100TIP3   OH2 6244   7.130   5.923   6.608
 2100TIP3    H1 6245   7.073   5.982   6.559
 2100TIP3    H2 6246   7.070   5.861   6.649
 2101TIP3   OH2 6247   3.799   6.679   5.258
 2101TIP3    H1 6248   3.765   6.693   5.346
 2101TIP3    H2 6249   3.783   6.586   5.242
 2102TIP3   OH2 6250   1.260   0.194   1.529
 2102TIP3    H1 6251   1.293   0.239   1.451
 2102TIP3    H2 6252   1.330   0.132   1.552
 2103TIP3   OH2 6253   0.251   1.733   1.060
 2103TIP3    H1 6254   0.166   1.707   1.025
 2103TIP3    H2 6255   0.288   1.654   1.098
 2104TIP3   OH2 6256   6.963   1.762   2.106
 2104TIP3    H1 6257   7.055   1.752   2.081
 2104TIP3    H2 6258   6.943   1.682   2.156
 2105TIP3   OH2 6259   3.587   1.493   0.872
 2105TIP3    H1 6260   3.627   1.469   0.956
 2105TIP3    H2 6261   3.637   1.568   0.842
 2106TIP3   OH2 6262   2.945   5.777   5.444
 2106TIP3    H1 6263   2.956   5.682   5.441
 2106TIP3    H2 6264   2.862   5.793   5.398
 2107TIP3   OH2 6265   2.351   2.415   2.285
 2107TIP3    H1 6266   2.353   2.389   2.193
 2107TIP3    H2 6267   2.405   2.350   2.329
 2108TIP3   OH2 6268   0.507   3.829   2.128
 2108TIP3    H1 6269   0.570   3.866   2.066
 2108TIP3    H2 6270   0.434   3.892   2.128
 2109TIP3   OH2 6271   3.619   3.943   1.818
 2109TIP3    H1 6272   3.643   3.995   1.895
 2109TIP3    H2 6273   3.574   3.866   1.854
 2110TIP3   OH2 6274   2.734   3.582   4.131
 2110TIP3    H1 6275   2.796   3.619   4.192
 2110TIP3    H2 6276   2.705   3.656   4.077
 2111TIP3   OH2 6277   4.834   5.184   4.637
 2111TIP3    H1 6278   4.836   5.095   4.602
 2111TIP3    H2 6279   4.764   5.182   4.703
 2112TIP3   OH2 6280   4.275   4.901   5.581
 2112TIP3    H1 6281   4.215   4.948   5.524
 2112TIP3    H2 6282   4.250   4.927   5.669
 2113TIP3   OH2 6283   4.948   0.770   0.733
 2113TIP3    H1 6284   4.885   0.767   0.806
 2113TIP3    H2 6285   4.966   0.678   0.714
 2114TIP3   OH2 6286   8.156   6.112   5.654
 2114TIP3    H1 6287   8.218   6.184   5.651
 2114TIP3    H2 6288   8.200   6.044   5.706
 2115TIP3   OH2 6289   1.414   0.386   0.379
 2115TIP3    H1 6290   1.319   0.382   0.387
 2115TIP3    H2 6291   1.435   0.320   0.313
 2116TIP3   OH2 6292   7.051   5.478   2.747
 2116TIP3    H1 6293   6.982   5.493   2.812
 2116TIP3    H2 6294   7.132   5.502   2.792
 2117TIP3   OH2 6295   2.901   3.944   1.661
 2117TIP3    H1 6296   2.940   3.879   1.719
 2117TIP3    H2 6297   2.843   3.893   1.605
 2118TIP3   OH2 6298   7.297   0.581   1.800
 2118TIP3    H1 6299   7.318   0.537   1.882
 2118TIP3    H2 6300   7.235   0.650   1.824
 2119TIP3   OH2 6301   2.623   4.330   2.103
 2119TIP3    H1 6302   2.706   4.295   2.071
 2119TIP3    H2 6303   2.631   4.425   2.092
 2120TIP3   OH2 6304   3.647   5.961   1.054
 2120TIP3    H1 6305   3.706   5.886   1.059
 2120TIP3    H2 6306   3.703   6.037   1.072
 2121TIP3   OH2 6307   5.744   7.004   4.322
 2121TIP3    H1 6308   5.699   7.064   4.381
 2121TIP3    H2 6309   5.675   6.948   4.287
 2122TIP3   OH2 6310   5.125   1.439   5.539
 2122TIP3    H1 6311   5.164   1.514   5.584
 2122TIP3    H2 6312   5.081   1.390   5.609
 2123TIP3   OH2 6313   6.062   4.359   5.308
 2123TIP3    H1 6314   6.079   4.271   5.274
 2123TIP3    H2 6315   6.132   4.412   5.270
 2124TIP3   OH2 6316   7.817   5.592   6.147
 2124TIP3    H1 6317   7.895   5.557   6.104
 2124TIP3    H2 6318   7.829   5.570   6.240
 2125TIP3   OH2 6319   4.964   6.665   0.644
 2125TIP3    H1 6320   4.911   6.725   0.697
 2125TIP3    H2 6321   4.957   6.581   0.688
 2126TIP3   OH2 6322   6.914   6.712   2.356
 2126TIP3    H1 6323   6.983   6.763   2.399
 2126TIP3    H2 6324   6.840   6.772   2.350
 2127TIP3   OH2 6325   7.631   4.075   3.652
 2127TIP3    H1 6326   7.720   4.040   3.649
 2127TIP3    H2 6327   7.620   4.107   3.741
 2128TIP3   OH2 6328   3.652   2.640   6.114
 2128TIP3    H1 6329   3.607   2.662   6.033
 2128TIP3    H2 6330   3.692   2.554   6.098
 2129TIP3   OH2 6331   0.142   7.051   6.190
 2129TIP3    H1 6332   0.104   6.967   6.168
 2129TIP3    H2 6333   0.151   7.097   6.106
 2130TIP3   OH2 6334   7.190   6.556   1.852
 2130TIP3    H1 6335   7.181   6.582   1.944
 2130TIP3    H2 6336   7.214   6.637   1.807
 2131TIP3   OH2 6337   4.398   4.184   3.245
 2131TIP3    H1 6338   4.433   4.097   3.224
 2131TIP3    H2 6339   4.321   4.166   3.299
 2132TIP3   OH2 6340   5.013   4.537   4.832
 2132TIP3    H1 6341   5.075   4.473   4.797
 2132TIP3    H2 6342   4.959   4.487   4.893
 2133TIP3   OH2 6343   3.488   5.872   0.821
 2133TIP3    H1 6344   3.539   5.904   0.895
 2133TIP3    H2 6345   3.443   5.794   0.855
 2134TIP3   OH2 6346   2.746   5.131   4.098
 2134TIP3    H1 6347   2.698   5.071   4.154
 2134TIP3    H2 6348   2.681   5.196   4.071
 2135TIP3   OH2 6349   7.271   3.133   2.706
 2135TIP3    H1 6350   7.209   3.060   2.701
 2135TIP3    H2 6351   7.217   3.208   2.731
 2136TIP3   OH2 6352   6.319   3.115   1.532
 2136TIP3    H1 6353   6.324   3.207   1.504
 2136TIP3    H2 6354   6.283   3.120   1.621
 2137TIP3   OH2 6355   4.544   3.957   0.794
 2137TIP3    H1 6356   4.575   3.979   0.706
 2137TIP3    H2 6357   4.538   3.862   0.795
 2138TIP3   OH2 6358   0.357   0.819   3.485
 2138TIP3    H1 6359   0.328   0.766   3.410
 2138TIP3    H2 6360   0.451   0.803   3.490
 2139TIP3   OH2 6361   2.150   4.788   4.879
 2139TIP3    H1 6362   2.183   4.768   4.791
 2139TIP3    H2 6363   2.058   4.761   4.877
 2140TIP3   OH2 6364   1.792   1.888   5.840
 2140TIP3    H1 6365   1.730   1.868   5.770
 2140TIP3    H2 6366   1.763   1.835   5.914
 2141TIP3   OH2 6367   1.320   6.885   1.151
 2141TIP3    H1 6368   1.228   6.874   1.175
 2141TIP3    H2 6369   1.335   6.979   1.155
 2142TIP3   OH2 6370   5.901   4.183   4.533
 2142TIP3    H1 6371   5.932   4.105   4.579
 2142TIP3    H2 6372   5.963   4.196   4.461
 2143TIP3   OH2 6373   0.952   3.706   5.515
 2143TIP3    H1 6374   0.997   3.710   5.600
 2143TIP3    H2 6375   0.909   3.791   5.506
 2144TIP3   OH2 6376   7.780   1.023   4.417
 2144TIP3    H1 6377   7.685   1.034   4.421
 2144TIP3    H2 6378   7.812   1.103   4.375
 2145TIP3   OH2 6379   1.505   4.434   5.064
 2145TIP3    H1 6380   1.552   4.361   5.023
 2145TIP3    H2 6381   1.561   4.510   5.047
 2146TIP3   OH2 6382   7.601   7.359   5.343
 2146TIP3    H1 6383   7.694   7.353   5.320
 2146TIP3    H2 6384   7.583   7.452   5.350
 2147TIP3   OH2 6385   1.447   0.517   0.758
 2147TIP3    H1 6386   1.363   0.525   0.712
 2147TIP3    H2 6387   1.470   0.607   0.782
 2148TIP3   OH2 6388   3.741   4.452   5.192
 2148TIP3    H1 6389   3.815   4.464   5.133
 2148TIP3    H2 6390   3.664   4.450   5.135
 2149TIP3   OH2 6391   1.844   1.830   3.161
 2149TIP3    H1 6392   1.772   1.769   3.146
 2149TIP3    H2 6393   1.862   1.868   3.074
 2150TIP3   OH2 6394   4.268   6.575   0.106
 2150TIP3    H1 6395   4.269   6.571   0.011
 2150TIP3    H2 6396   4.206   6.507   0.133
 2151TIP3   OH2 6397   7.771   4.108   3.008
 2151TIP3    H1 6398   7.795   4.182   3.063
 2151TIP3    H2 6399   7.727   4.147   2.932
 2152TIP3   OH2 6400   5.720   6.180   3.213
 2152TIP3    H1 6401   5.721   6.122   3.289
 2152TIP3    H2 6402   5.778   6.253   3.236
 2153TIP3   OH2 6403   6.127   1.687   2.020
 2153TIP3    H1 6404   6.125   1.598   2.056
 2153TIP3    H2 6405   6.132   1.674   1.925
 2154TIP3   OH2 6406   1.114   4.418   6.802
 2154TIP3    H1 6407   1.162   4.443   6.723
 2154TIP3    H2 6408   1.182   4.406   6.868
 2155TIP3   OH2 6409   5.347   5.813   1.733
 2155TIP3    H1 6410   5.279   5.772   1.679
 2155TIP3    H2 6411   5.413   5.841   1.671
 2156TIP3   OH2 6412   7.233   2.204   0.403
 2156TIP3    H1 6413   7.201   2.282   0.449
 2156TIP3    H2 6414   7.200   2.214   0.314
 2157TIP3   OH2 6415   2.843   1.813   4.333
 2157TIP3    H1 6416   2.859   1.890   4.388
 2157TIP3    H2 6417   2.799   1.848   4.256
 2158TIP3   OH2 6418   2.233   0.905   1.251
 2158TIP3    H1 6419   2.219   0.827   1.305
 2158TIP3    H2 6420   2.294   0.959   1.301
 2159TIP3   OH2 6421   6.156   4.656   4.352
 2159TIP3    H1 6422   6.198   4.682   4.434
 2159TIP3    H2 6423   6.160   4.735   4.298
 2160TIP3   OH2 6424   6.253   7.790   4.551
 2160TIP3    H1 6425   6.161   7.796   4.574
 2160TIP3    H2 6426   6.258   7.716   4.490
 2161TIP3   OH2 6427   5.019   2.775   0.929
 2161TIP3    H1 6428   5.111   2.799   0.916
 2161TIP3    H2 6429   4.977   2.856   0.959
 2162TIP3   OH2 6430   5.470   2.267   2.944
 2162TIP3    H1 6431   5.481   2.183   2.899
 2162TIP3    H2 6432   5.540   2.322   2.909
 2163TIP3   OH2 6433   7.537   4.985   5.230
 2163TIP3    H1 6434   7.453   5.015   5.264
 2163TIP3    H2 6435   7.571   5.060   5.180
 2164TIP3   OH2 6436   1.847   2.352   2.613
 2164TIP3    H1 6437   1.808   2.412   2.677
 2164TIP3    H2 6438   1.938   2.343   2.642
 2165TIP3   OH2 6439   7.183   0.652   0.558
 2165TIP3    H1 6440   7.219   0.563   0.556
 2165TIP3    H2 6441   7.235   0.696   0.625
 2166TIP3   OH2 6442   3.233   5.250   4.605
 2166TIP3    H1 6443   3.205   5.184   4.542
 2166TIP3    H2 6444   3.177   5.326   4.587
 2167TIP3   OH2 6445   0.099   0.385   4.877
 2167TIP3    H1 6446   0.087   0.480   4.881
 2167TIP3    H2 6447   0.049   0.359   4.799
 2168TIP3   OH2 6448   3.706   7.573   6.777
 2168TIP3    H1 6449   3.653   7.541   6.704
 2168TIP3    H2 6450   3.744   7.495   6.816
 2169TIP3   OH2 6451   6.366   1.090   6.678
 2169TIP3    H1 6452   6.354   1.128   6.765
 2169TIP3    H2 6453   6.439   1.139   6.640
 2170TIP3   OH2 6454   5.201   7.315   2.117
 2170TIP3    H1 6455   5.285   7.272   2.098
 2170TIP3    H2 6456   5.189   7.301   2.211
 2171TIP3   OH2 6457   3.282   1.854   5.624
 2171TIP3    H1 6458   3.345   1.847   5.553
 2171TIP3    H2 6459   3.330   1.895   5.696
 2172TIP3   OH2 6460   5.161   6.804   1.296
 2172TIP3    H1 6461   5.120   6.862   1.232
 2172TIP3    H2 6462   5.142   6.845   1.380
 2173TIP3   OH2 6463   4.029   7.632   5.445
 2173TIP3    H1 6464   4.060   7.700   5.386
 2173TIP3    H2 6465   4.109   7.588   5.474
 2174TIP3   OH2 6466   2.612   0.152   5.808
 2174TIP3    H1 6467   2.679   0.197   5.858
 2174TIP3    H2 6468   2.530   0.178   5.850
 2175TIP3   OH2 6469   4.434   4.761   5.907
 2175TIP3    H1 6470   4.386   4.751   5.989
 2175TIP3    H2 6471   4.426   4.854   5.886
 2176TIP3   OH2 6472   5.648   6.821   5.808
 2176TIP3    H1 6473   5.624   6.874   5.884
 2176TIP3    H2 6474   5.590   6.745   5.812
 2177TIP3   OH2 6475   3.514   4.503   5.021
 2177TIP3    H1 6476   3.454   4.437   4.986
 2177TIP3    H2 6477   3.572   4.524   4.948
 2178TIP3   OH2 6478   2.228   7.482   2.136
 2178TIP3    H1 6479   2.304   7.488   2.193
 2178TIP3    H2 6480   2.162   7.537   2.178
 2179TIP3   OH2 6481   5.372   0.899   3.909
 2179TIP3    H1 6482   5.411   0.894   3.822
 2179TIP3    H2 6483   5.446   0.913   3.968
 2180TIP3   OH2 6484   6.810   1.761   4.258
 2180TIP3    H1 6485   6.893   1.769   4.212
 2180TIP3    H2 6486   6.748   1.731   4.192
 2181TIP3   OH2 6487   2.670   1.636   2.643
 2181TIP3    H1 6488   2.730   1.568   2.673
 2181TIP3    H2 6489   2.587   1.590   2.628
 2182TIP3   OH2 6490   7.121   5.062   1.993
 2182TIP3    H1 6491   7.201   5.017   1.967
 2182TIP3    H2 6492   7.150   5.143   2.034
 2183TIP3   OH2 6493   1.470   0.610   4.578
 2183TIP3    H1 6494   1.393   0.627   4.523
 2183TIP3    H2 6495   1.541   0.659   4.536
 2184TIP3   OH2 6496   1.500   6.445   1.971
 2184TIP3    H1 6497   1.538   6.369   2.016
 2184TIP3    H2 6498   1.483   6.413   1.882
 2185TIP3   OH2 6499   4.702   4.943   3.064
 2185TIP3    H1 6500   4.693   4.847   3.067
 2185TIP3    H2 6501   4.775   4.962   3.123
 2186TIP3   OH2 6502   7.911   3.190   0.743
 2186TIP3    H1 6503   7.998   3.204   0.708
 2186TIP3    H2 6504   7.852   3.227   0.677
 2187TIP3   OH2 6505   2.404   1.496   4.825
 2187TIP3    H1 6506   2.418   1.412   4.870
 2187TIP3    H2 6507   2.310   1.502   4.814
 2188TIP3   OH2 6508   7.022   6.786   3.630
 2188TIP3    H1 6509   7.001   6.781   3.537
 2188TIP3    H2 6510   6.979   6.709   3.668
 2189TIP3   OH2 6511   3.218   6.810   5.527
 2189TIP3    H1 6512   3.244   6.807   5.435
 2189TIP3    H2 6513   3.297   6.785   5.575
 2190TIP3   OH2 6514   5.433   2.022   0.450
 2190TIP3    H1 6515   5.433   2.110   0.412
 2190TIP3    H2 6516   5.503   2.025   0.515
 2191TIP3   OH2 6517   3.780   2.452   1.565
 2191TIP3    H1 6518   3.856   2.395   1.550
 2191TIP3    H2 6519   3.797   2.493   1.650
 2192TIP3   OH2 6520   3.277   3.821   0.113
 2192TIP3    H1 6521   3.265   3.855   0.201
 2192TIP3    H2 6522   3.190   3.822   0.074
 2193TIP3   OH2 6523   6.604   7.175   5.206
 2193TIP3    H1 6524   6.665   7.197   5.276
 2193TIP3    H2 6525   6.554   7.101   5.241
 2194TIP3   OH2 6526   4.033   5.704   5.766
 2194TIP3    H1 6527   4.027   5.673   5.675
 2194TIP3    H2 6528   3.941   5.713   5.793
 2195TIP3   OH2 6529   0.220   1.115   4.888
 2195TIP3    H1 6530   0.173   1.090   4.968
 2195TIP3    H2 6531   0.312   1.119   4.915
 2196TIP3   OH2 6532   4.248   1.918   2.487
 2196TIP3    H1 6533   4.210   2.006   2.490
 2196TIP3    H2 6534   4.175   1.862   2.460
 2197TIP3   OH2 6535   0.294   5.274   1.386
 2197TIP3    H1 6536   0.346   5.336   1.337
 2197TIP3    H2 6537   0.209   5.317   1.400
 2198TIP3   OH2 6538   6.874   5.683   5.968
 2198TIP3    H1 6539   6.956   5.712   5.928
 2198TIP3    H2 6540   6.809   5.693   5.899
 2199TIP3   OH2 6541   8.020   7.752   6.051
 2199TIP3    H1 6542   7.969   7.681   6.090
 2199TIP3    H2 6543   7.997   7.829   6.102
 2200TIP3   OH2 6544   1.643   4.675   4.995
 2200TIP3    H1 6545   1.614   4.658   4.905
 2200TIP3    H2 6546   1.580   4.738   5.029
 2201TIP3   OH2 6547   0.875   1.308   6.139
 2201TIP3    H1 6548   0.948   1.367   6.120
 2201TIP3    H2 6549   0.914   1.220   6.139
 2202TIP3   OH2 6550   4.964   2.918   4.866
 2202TIP3    H1 6551   4.967   2.852   4.935
 2202TIP3    H2 6552   5.026   2.887   4.800
 2203TIP3   OH2 6553   4.649   3.352   1.518
 2203TIP3    H1 6554   4.694   3.419   1.569
 2203TIP3    H2 6555   4.661   3.379   1.427
 2204TIP3   OH2 6556   0.554   1.955   5.156
 2204TIP3    H1 6557   0.464   1.928   5.173
 2204TIP3    H2 6558   0.555   1.982   5.065
 2205TIP3   OH2 6559   3.125   5.277   1.274
 2205TIP3    H1 6560   3.103   5.363   1.309
 2205TIP3    H2 6561   3.137   5.222   1.351
 2206TIP3   OH2 6562   5.664   0.714   0.839
 2206TIP3    H1 6563   5.641   0.807   0.830
 2206TIP3    H2 6564   5.656   0.696   0.933
 2207TIP3   OH2 6565   8.244   0.576   0.765
 2207TIP3    H1 6566   8.316   0.619   0.720
 2207TIP3    H2 6567   8.219   0.637   0.835
 2208TIP3   OH2 6568   2.739   4.859   4.344
 2208TIP3    H1 6569   2.782   4.849   4.259
 2208TIP3    H2 6570   2.645   4.866   4.323
 2209TIP3   OH2 6571   2.967   0.473   4.765
 2209TIP3    H1 6572   2.926   0.421   4.835
 2209TIP3    H2 6573   3.034   0.416   4.728
 2210TIP3   OH2 6574   8.026   5.485   6.009
 2210TIP3    H1 6575   8.028   5.414   5.945
 2210TIP3    H2 6576   8.096   5.465   6.070
 2211TIP3   OH2 6577   6.565   6.092   3.427
 2211TIP3    H1 6578   6.476   6.091   3.392
 2211TIP3    H2 6579   6.621   6.096   3.350
 2212TIP3   OH2 6580   2.986   0.460   4.417
 2212TIP3    H1 6581   2.946   0.373   4.413
 2212TIP3    H2 6582   2.912   0.519   4.435
 2213TIP3   OH2 6583   1.718   3.257   2.595
 2213TIP3    H1 6584   1.773   3.292   2.665
 2213TIP3    H2 6585   1.775   3.255   2.518
 2214TIP3   OH2 6586   7.486   4.253   2.497
 2214TIP3    H1 6587   7.429   4.180   2.473
 2214TIP3    H2 6588   7.544   4.217   2.564
 2215TIP3   OH2 6589   2.606   5.507   5.104
 2215TIP3    H1 6590   2.565   5.493   5.019
 2215TIP3    H2 6591   2.575   5.434   5.158
 2216TIP3   OH2 6592   4.487   5.649   3.025
 2216TIP3    H1 6593   4.435   5.594   3.084
 2216TIP3    H2 6594   4.422   5.690   2.968
 2217TIP3   OH2 6595   7.799   0.490   4.757
 2217TIP3    H1 6596   7.727   0.553   4.748
 2217TIP3    H2 6597   7.757   0.410   4.786
 2218TIP3   OH2 6598   7.345   1.476   3.824
 2218TIP3    H1 6599   7.399   1.406   3.861
 2218TIP3    H2 6600   7.272   1.431   3.783
 2219TIP3   OH2 6601   8.017   0.435   0.758
 2219TIP3    H1 6602   8.079   0.507   0.768
 2219TIP3    H2 6603   8.043   0.393   0.676
 2220TIP3   OH2 6604   7.478   7.636   2.511
 2220TIP3    H1 6605   7.413   7.693   2.551
 2220TIP3    H2 6606   7.558   7.689   2.510
 2221TIP3   OH2 6607   2.972   0.472   0.861
 2221TIP3    H1 6608   2.877   0.468   0.851
 2221TIP3    H2 6609   2.986   0.484   0.955
 2222TIP3   OH2 6610   2.416   2.979   1.029
 2222TIP3    H1 6611   2.367   3.057   1.057
 2222TIP3    H2 6612   2.387   2.964   0.939
 2223TIP3   OH2 6613   4.109   5.103   0.358
 2223TIP3    H1 6614   4.126   5.018   0.315
 2223TIP3    H2 6615   4.172   5.162   0.318
 2224TIP3   OH2 6616   4.320   7.839   0.216
 2224TIP3    H1 6617   4.364   7.758   0.239
 2224TIP3    H2 6618   4.342   7.900   0.287
 2225TIP3   OH2 6619   2.841   4.886   6.472
 2225TIP3    H1 6620   2.856   4.810   6.416
 2225TIP3    H2 6621   2.928   4.909   6.505
 2226TIP3   OH2 6622   6.283   1.737   4.645
 2226TIP3    H1 6623   6.321   1.820   4.673
 2226TIP3    H2 6624   6.203   1.761   4.600
 2227TIP3   OH2 6625   6.581   6.898   3.700
 2227TIP3    H1 6626   6.670   6.886   3.733
 2227TIP3    H2 6627   6.592   6.940   3.615
 2228TIP3   OH2 6628   5.535   7.415   1.692
 2228TIP3    H1 6629   5.593   7.346   1.723
 2228TIP3    H2 6630   5.540   7.410   1.596
 2229TIP3   OH2 6631   0.585   1.787   5.946
 2229TIP3    H1 6632   0.654   1.721   5.936
 2229TIP3    H2 6633   0.555   1.778   6.037
 2230TIP3   OH2 6634   3.946   1.139   2.133
 2230TIP3    H1 6635   3.897   1.082   2.192
 2230TIP3    H2 6636   3.964   1.217   2.186
 2231TIP3   OH2 6637   3.349   0.236   4.859
 2231TIP3    H1 6638   3.405   0.216   4.934
 2231TIP3    H2 6639   3.261   0.219   4.890
 2232TIP3   OH2 6640   8.098   7.220   4.516
 2232TIP3    H1 6641   8.097   7.263   4.602
 2232TIP3    H2 6642   8.126   7.288   4.456
 2233TIP3   OH2 6643   0.355   6.258   6.350
 2233TIP3    H1 6644   0.428   6.313   6.322
 2233TIP3    H2 6645   0.296   6.319   6.395
 2234TIP3   OH2 6646   0.583   7.380   6.611
 2234TIP3    H1 6647   0.662   7.417   6.573
 2234TIP3    H2 6648   0.605   7.289   6.630
 2235TIP3   OH2 6649   1.794   5.374   2.823
 2235TIP3    H1 6650   1.711   5.422   2.830
 2235TIP3    H2 6651   1.848   5.410   2.894
 2236TIP3   OH2 6652   6.283   1.925   4.062
 2236TIP3    H1 6653   6.324   1.861   4.120
 2236TIP3    H2 6654   6.292   2.008   4.109
 2237TIP3   OH2 6655   7.118   5.577   2.266
 2237TIP3    H1 6656   7.040   5.563   2.213
 2237TIP3    H2 6657   7.097   5.537   2.351
 2238TIP3   OH2 6658   1.481   2.007   5.649
 2238TIP3    H1 6659   1.524   2.059   5.581
 2238TIP3    H2 6660   1.510   2.046   5.731
 2239TIP3   OH2 6661   0.566   0.863   3.991
 2239TIP3    H1 6662   0.650   0.818   3.986
 2239TIP3    H2 6663   0.581   0.936   4.052
 2240TIP3   OH2 6664   0.595   6.970   2.438
 2240TIP3    H1 6665   0.612   6.876   2.428
 2240TIP3    H2 6666   0.500   6.979   2.431
 2241TIP3   OH2 6667   7.631   6.307   0.961
 2241TIP3    H1 6668   7.553   6.329   0.911
 2241TIP3    H2 6669   7.700   6.363   0.924
 2242TIP3   OH2 6670   0.867   6.058   4.416
 2242TIP3    H1 6671   0.829   6.145   4.401
 2242TIP3    H2 6672   0.797   5.997   4.392
 2243TIP3   OH2 6673   6.199   1.597   0.390
 2243TIP3    H1 6674   6.143   1.635   0.323
 2243TIP3    H2 6675   6.283   1.641   0.379
 2244TIP3   OH2 6676   0.251   6.739   2.085
 2244TIP3    H1 6677   0.206   6.690   2.155
 2244TIP3    H2 6678   0.206   6.713   2.005
 2245TIP3   OH2 6679   7.064   1.881   4.458
 2245TIP3    H1 6680   7.056   1.809   4.519
 2245TIP3    H2 6681   6.977   1.921   4.457
 2246TIP3   OH2 6682   8.154   0.248   2.811
 2246TIP3    H1 6683   8.107   0.202   2.881
 2246TIP3    H2 6684   8.173   0.181   2.746
 2247TIP3   OH2 6685   2.737   6.122   1.716
 2247TIP3    H1 6686   2.697   6.038   1.737
 2247TIP3    H2 6687   2.687   6.186   1.767
 2248TIP3   OH2 6688   6.913   2.246   2.293
 2248TIP3    H1 6689   6.938   2.268   2.203
 2248TIP3    H2 6690   6.900   2.151   2.292
 2249TIP3   OH2 6691   3.517   4.513   3.500
 2249TIP3    H1 6692   3.502   4.495   3.593
 2249TIP3    H2 6693   3.552   4.431   3.464
 2250TIP3   OH2 6694   3.102   1.752   0.206
 2250TIP3    H1 6695   3.158   1.830   0.209
 2250TIP3    H2 6696   3.066   1.745   0.294
 2251TIP3   OH2 6697   0.980   0.799   1.019
 2251TIP3    H1 6698   1.032   0.754   0.953
 2251TIP3    H2 6699   0.965   0.886   0.982
 2252TIP3   OH2 6700   7.771   1.472   1.720
 2252TIP3    H1 6701   7.865   1.477   1.734
 2252TIP3    H2 6702   7.735   1.449   1.806
 2253TIP3   OH2 6703   0.989   6.046   2.162
 2253TIP3    H1 6704   0.944   6.005   2.235
 2253TIP3    H2 6705   0.931   6.116   2.134
 2254TIP3   OH2 6706   7.775   0.420   1.168
 2254TIP3    H1 6707   7.846   0.381   1.118
 2254TIP3    H2 6708   7.723   0.467   1.103
 2255TIP3   OH2 6709   5.773   0.451   6.047
 2255TIP3    H1 6710   5.786   0.359   6.025
 2255TIP3    H2 6711   5.861   0.489   6.047
 2256TIP3   OH2 6712   7.949   0.196   0.232
 2256TIP3    H1 6713   7.978   0.238   0.151
 2256TIP3    H2 6714   8.017   0.132   0.251
 2257TIP3   OH2 6715   6.680   1.106   0.360
 2257TIP3    H1 6716   6.697   1.062   0.277
 2257TIP3    H2 6717   6.631   1.185   0.336
 2258TIP3   OH2 6718   1.790   7.164   3.240
 2258TIP3    H1 6719   1.713   7.114   3.265
 2258TIP3    H2 6720   1.798   7.149   3.146
 2259TIP3   OH2 6721   2.361   0.443   1.906
 2259TIP3    H1 6722   2.442   0.392   1.913
 2259TIP3    H2 6723   2.351   0.459   1.813
 2260TIP3   OH2 6724   3.866   6.756   1.195
 2260TIP3    H1 6725   3.776   6.753   1.165
 2260TIP3    H2 6726   3.919   6.759   1.115
 2261TIP3   OH2 6727   1.191   4.714   4.815
 2261TIP3    H1 6728   1.244   4.767   4.756
 2261TIP3    H2 6729   1.218   4.624   4.797
 2262TIP3   OH2 6730   2.495   7.828   5.258
 2262TIP3    H1 6731   2.547   7.817   5.338
 2262TIP3    H2 6732   2.422   7.767   5.269
 2263TIP3   OH2 6733   1.150   7.061   4.537
 2263TIP3    H1 6734   1.142   6.987   4.597
 2263TIP3    H2 6735   1.189   7.130   4.590
 2264TIP3   OH2 6736   6.084   2.656   0.147
 2264TIP3    H1 6737   6.046   2.647   0.060
 2264TIP3    H2 6738   6.052   2.740   0.179
 2265TIP3   OH2 6739  -0.031   6.551   3.700
 2265TIP3    H1 6740   0.062   6.569   3.711
 2265TIP3    H2 6741  -0.066   6.630   3.660
 2266TIP3   OH2 6742   1.106   3.895   4.659
 2266TIP3    H1 6743   1.158   3.825   4.697
 2266TIP3    H2 6744   1.166   3.940   4.599
 2267TIP3   OH2 6745   2.351   6.533   4.338
 2267TIP3    H1 6746   2.327   6.442   4.319
 2267TIP3    H2 6747   2.281   6.564   4.395
 2268TIP3   OH2 6748   5.207   0.300   1.099
 2268TIP3    H1 6749   5.115   0.300   1.074
 2268TIP3    H2 6750   5.237   0.211   1.081
 2269TIP3   OH2 6751   6.517   1.249   0.737
 2269TIP3    H1 6752   6.592   1.292   0.780
 2269TIP3    H2 6753   6.467   1.321   0.699
 2270TIP3   OH2 6754   2.487   4.942   2.713
 2270TIP3    H1 6755   2.411   4.885   2.725
 2270TIP3    H2 6756   2.544   4.923   2.788
 2271TIP3   OH2 6757   6.530   4.507   3.823
 2271TIP3    H1 6758   6.621   4.480   3.836
 2271TIP3    H2 6759   6.518   4.581   3.884
 2272TIP3   OH2 6760   0.893   6.962   0.243
 2272TIP3    H1 6761   0.850   7.001   0.319
 2272TIP3    H2 6762   0.978   7.006   0.240
 2273TIP3   OH2 6763   2.963   6.395   6.271
 2273TIP3    H1 6764   2.872   6.385   6.301
 2273TIP3    H2 6765   2.977   6.322   6.211
 2274TIP3   OH2 6766   6.768   2.004   5.104
 2274TIP3    H1 6767   6.766   2.045   5.017
 2274TIP3    H2 6768   6.802   2.072   5.162
 2275TIP3   OH2 6769   4.892   3.181   1.482
 2275TIP3    H1 6770   4.895   3.190   1.577
 2275TIP3    H2 6771   4.981   3.200   1.453
 2276TIP3   OH2 6772   2.710   5.504   4.803
 2276TIP3    H1 6773   2.716   5.593   4.767
 2276TIP3    H2 6774   2.801   5.478   4.818
 2277TIP3   OH2 6775   2.541   6.921   2.128
 2277TIP3    H1 6776   2.484   6.965   2.064
 2277TIP3    H2 6777   2.495   6.840   2.149
 2278TIP3   OH2 6778   3.739   5.321   3.007
 2278TIP3    H1 6779   3.735   5.326   2.911
 2278TIP3    H2 6780   3.671   5.257   3.030
 2279TIP3   OH2 6781   3.352   4.951   1.163
 2279TIP3    H1 6782   3.301   4.985   1.236
 2279TIP3    H2 6783   3.430   4.913   1.203
 2280TIP3   OH2 6784   0.704   7.095   6.579
 2280TIP3    H1 6785   0.764   7.139   6.518
 2280TIP3    H2 6786   0.739   7.006   6.588
 2281TIP3   OH2 6787   4.251   5.352   6.068
 2281TIP3    H1 6788   4.287   5.423   6.016
 2281TIP3    H2 6789   4.322   5.326   6.126
 2282TIP3   OH2 6790   4.479   6.605   2.563
 2282TIP3    H1 6791   4.528   6.687   2.553
 2282TIP3    H2 6792   4.421   6.621   2.637
 2283TIP3   OH2 6793   0.823   5.326   4.245
 2283TIP3    H1 6794   0.816   5.250   4.187
 2283TIP3    H2 6795   0.848   5.290   4.330
 2284TIP3   OH2 6796   0.785   0.316   1.486
 2284TIP3    H1 6797   0.765   0.279   1.400
 2284TIP3    H2 6798   0.869   0.277   1.510
 2285TIP3   OH2 6799   1.967   5.875   1.488
 2285TIP3    H1 6800   2.029   5.938   1.452
 2285TIP3    H2 6801   2.009   5.844   1.569
 2286TIP3   OH2 6802   4.871   7.607   5.291
 2286TIP3    H1 6803   4.782   7.632   5.316
 2286TIP3    H2 6804   4.919   7.605   5.374
 2287TIP3   OH2 6805   0.235   1.379   1.951
 2287TIP3    H1 6806   0.213   1.464   1.988
 2287TIP3    H2 6807   0.329   1.369   1.966
 2288TIP3   OH2 6808   5.484   0.149   5.513
 2288TIP3    H1 6809   5.442   0.064   5.502
 2288TIP3    H2 6810   5.568   0.139   5.468
 2289TIP3   OH2 6811   4.088   6.343   4.652
 2289TIP3    H1 6812   4.020   6.387   4.704
 2289TIP3    H2 6813   4.092   6.393   4.570
 2290TIP3   OH2 6814   3.263   3.786   5.391
 2290TIP3    H1 6815   3.271   3.704   5.343
 2290TIP3    H2 6816   3.345   3.832   5.375
 2291TIP3   OH2 6817   6.981   6.164   3.866
 2291TIP3    H1 6818   6.946   6.245   3.830
 2291TIP3    H2 6819   6.964   6.169   3.960
 2292TIP3   OH2 6820   6.243   1.950   3.637
 2292TIP3    H1 6821   6.241   2.019   3.571
 2292TIP3    H2 6822   6.226   1.994   3.720
 2293TIP3   OH2 6823   1.333   4.148   1.857
 2293TIP3    H1 6824   1.243   4.152   1.889
 2293TIP3    H2 6825   1.365   4.237   1.864
 2294TIP3   OH2 6826   3.870   3.212   4.392
 2294TIP3    H1 6827   3.930   3.286   4.377
 2294TIP3    H2 6828   3.885   3.187   4.483
 2295TIP3   OH2 6829   6.667   4.139   0.883
 2295TIP3    H1 6830   6.595   4.136   0.820
 2295TIP3    H2 6831   6.632   4.095   0.961
 2296TIP3   OH2 6832   1.538   1.278   3.141
 2296TIP3    H1 6833   1.525   1.288   3.235
 2296TIP3    H2 6834   1.510   1.361   3.104
 2297TIP3   OH2 6835   2.976   2.466   6.339
 2297TIP3    H1 6836   2.969   2.559   6.315
 2297TIP3    H2 6837   3.010   2.468   6.429
 2298TIP3   OH2 6838   4.073   0.723   0.454
 2298TIP3    H1 6839   4.115   0.751   0.372
 2298TIP3    H2 6840   4.135   0.750   0.522
 2299TIP3   OH2 6841   2.101   5.609   3.751
 2299TIP3    H1 6842   2.150   5.655   3.819
 2299TIP3    H2 6843   2.166   5.555   3.706
 2300TIP3   OH2 6844   7.463   4.191   1.765
 2300TIP3    H1 6845   7.507   4.224   1.843
 2300TIP3    H2 6846   7.387   4.143   1.799
 2301TIP3   OH2 6847   2.116   4.170   3.543
 2301TIP3    H1 6848   2.094   4.263   3.545
 2301TIP3    H2 6849   2.139   4.149   3.633
 2302TIP3   OH2 6850   0.338   0.536   5.154
 2302TIP3    H1 6851   0.345   0.523   5.249
 2302TIP3    H2 6852   0.286   0.616   5.145
 2303TIP3   OH2 6853   6.308   6.076   3.318
 2303TIP3    H1 6854   6.267   5.989   3.317
 2303TIP3    H2 6855   6.275   6.119   3.239
 2304TIP3   OH2 6856   0.928   6.088   2.714
 2304TIP3    H1 6857   0.915   6.169   2.763
 2304TIP3    H2 6858   0.923   6.019   2.779
 2305TIP3   OH2 6859   2.830   5.638   5.871
 2305TIP3    H1 6860   2.883   5.654   5.948
 2305TIP3    H2 6861   2.811   5.725   5.836
 2306TIP3   OH2 6862   8.049   5.074   4.860
 2306TIP3    H1 6863   8.139   5.052   4.836
 2306TIP3    H2 6864   8.017   4.998   4.908
 2307TIP3   OH2 6865   4.791   2.683   0.529
 2307TIP3    H1 6866   4.744   2.764   0.550
 2307TIP3    H2 6867   4.843   2.705   0.452
 2308TIP3   OH2 6868   3.797   5.328   1.407
 2308TIP3    H1 6869   3.862   5.274   1.362
 2308TIP3    H2 6870   3.784   5.286   1.492
 2309TIP3   OH2 6871   3.447   4.881   3.577
 2309TIP3    H1 6872   3.380   4.819   3.546
 2309TIP3    H2 6873   3.438   4.957   3.520
 2310TIP3   OH2 6874   2.346   1.839   3.525
 2310TIP3    H1 6875   2.314   1.760   3.567
 2310TIP3    H2 6876   2.284   1.908   3.551
 2311TIP3   OH2 6877  -0.006   6.407   4.168
 2311TIP3    H1 6878   0.006   6.502   4.170
 2311TIP3    H2 6879   0.075   6.374   4.129
 2312TIP3   OH2 6880   5.246   4.587   3.854
 2312TIP3    H1 6881   5.234   4.617   3.944
 2312TIP3    H2 6882   5.311   4.647   3.818
 2313TIP3   OH2 6883   5.555   7.171   0.897
 2313TIP3    H1 6884   5.616   7.107   0.859
 2313TIP3    H2 6885   5.605   7.252   0.901
 2314TIP3   OH2 6886   5.218   6.266   5.364
 2314TIP3    H1 6887   5.226   6.184   5.315
 2314TIP3    H2 6888   5.185   6.329   5.300
 2315TIP3   OH2 6889   4.878   7.301   0.714
 2315TIP3    H1 6890   4.856   7.293   0.807
 2315TIP3    H2 6891   4.871   7.211   0.680
 2316TIP3   OH2 6892   2.727   0.779   3.271
 2316TIP3    H1 6893   2.713   0.692   3.234
 2316TIP3    H2 6894   2.655   0.832   3.234
 2317TIP3   OH2 6895   2.153   1.953   0.062
 2317TIP3    H1 6896   2.247   1.958   0.079
 2317TIP3    H2 6897   2.131   1.861   0.078
 2318TIP3   OH2 6898   7.779   4.064   6.078
 2318TIP3    H1 6899   7.834   4.089   6.152
 2318TIP3    H2 6900   7.797   3.971   6.065
 2319TIP3   OH2 6901   2.159   5.806   1.678
 2319TIP3    H1 6902   2.226   5.870   1.653
 2319TIP3    H2 6903   2.208   5.730   1.709
 2320TIP3   OH2 6904   0.180   6.885   4.329
 2320TIP3    H1 6905   0.210   6.902   4.418
 2320TIP3    H2 6906   0.123   6.959   4.308
 2321TIP3   OH2 6907   2.044   3.818   6.686
 2321TIP3    H1 6908   2.047   3.740   6.742
 2321TIP3    H2 6909   2.006   3.786   6.604
 2322TIP3   OH2 6910   7.823   2.917   4.465
 2322TIP3    H1 6911   7.816   2.839   4.410
 2322TIP3    H2 6912   7.814   2.884   4.554
 2323TIP3   OH2 6913   7.580   0.572   3.812
 2323TIP3    H1 6914   7.593   0.489   3.766
 2323TIP3    H2 6915   7.546   0.547   3.898
 2324TIP3   OH2 6916   7.130   5.816   5.877
 2324TIP3    H1 6917   7.068   5.888   5.872
 2324TIP3    H2 6918   7.196   5.845   5.940
 2325TIP3   OH2 6919   5.967   3.267   6.607
 2325TIP3    H1 6920   5.987   3.357   6.635
 2325TIP3    H2 6921   6.050   3.233   6.573
 2326TIP3   OH2 6922   0.337   4.533   4.333
 2326TIP3    H1 6923   0.282   4.571   4.264
 2326TIP3    H2 6924   0.402   4.482   4.285
 2327TIP3   OH2 6925   4.543   2.875   5.835
 2327TIP3    H1 6926   4.600   2.812   5.790
 2327TIP3    H2 6927   4.604   2.935   5.877
 2328TIP3   OH2 6928   2.994   2.942   6.154
 2328TIP3    H1 6929   2.917   2.989   6.186
 2328TIP3    H2 6930   2.971   2.916   6.065
 2329TIP3   OH2 6931   1.332   6.700   5.805
 2329TIP3    H1 6932   1.373   6.623   5.846
 2329TIP3    H2 6933   1.376   6.709   5.721
 2330TIP3   OH2 6934   5.540   2.583   1.980
 2330TIP3    H1 6935   5.463   2.556   1.930
 2330TIP3    H2 6936   5.518   2.561   2.071
 2331TIP3   OH2 6937   7.532   0.318   3.707
 2331TIP3    H1 6938   7.471   0.261   3.753
 2331TIP3    H2 6939   7.485   0.344   3.628
 2332TIP3   OH2 6940   0.127   2.111   4.752
 2332TIP3    H1 6941   0.045   2.149   4.783
 2332TIP3    H2 6942   0.176   2.091   4.832
 2333TIP3   OH2 6943   7.013   4.695   3.459
 2333TIP3    H1 6944   6.948   4.712   3.390
 2333TIP3    H2 6945   6.960   4.683   3.538
 2334TIP3   OH2 6946   1.934   1.986   1.872
 2334TIP3    H1 6947   1.955   2.079   1.862
 2334TIP3    H2 6948   1.990   1.957   1.944
 2335TIP3   OH2 6949   1.184   4.178   4.610
 2335TIP3    H1 6950   1.210   4.140   4.526
 2335TIP3    H2 6951   1.093   4.151   4.622
 2336TIP3   OH2 6952   1.209   1.340   0.855
 2336TIP3    H1 6953   1.198   1.305   0.766
 2336TIP3    H2 6954   1.285   1.398   0.849
 2337TIP3   OH2 6955   0.893   7.140   5.717
 2337TIP3    H1 6956   0.931   7.103   5.797
 2337TIP3    H2 6957   0.803   7.109   5.717
 2338TIP3   OH2 6958   7.797   1.541   3.617
 2338TIP3    H1 6959   7.846   1.535   3.535
 2338TIP3    H2 6960   7.760   1.629   3.617
 2339TIP3   OH2 6961   2.341   0.999   0.351
 2339TIP3    H1 6962   2.316   1.089   0.329
 2339TIP3    H2 6963   2.262   0.948   0.338
 2340TIP3   OH2 6964   3.072   5.958   0.143
 2340TIP3    H1 6965   3.138   5.994   0.202
 2340TIP3    H2 6966   2.994   5.947   0.197
 2341TIP3   OH2 6967   4.044   1.392   3.603
 2341TIP3    H1 6968   4.044   1.411   3.509
 2341TIP3    H2 6969   3.961   1.428   3.635
 2342TIP3   OH2 6970   3.005   5.280   0.620
 2342TIP3    H1 6971   2.918   5.271   0.658
 2342TIP3    H2 6972   3.062   5.302   0.694
 2343TIP3   OH2 6973   6.683   3.817   0.072
 2343TIP3    H1 6974   6.774   3.797   0.053
 2343TIP3    H2 6975   6.686   3.864   0.155
 2344TIP3   OH2 6976   7.780   6.104   3.899
 2344TIP3    H1 6977   7.752   6.021   3.938
 2344TIP3    H2 6978   7.859   6.127   3.947
 2345TIP3   OH2 6979   0.951   6.010   6.372
 2345TIP3    H1 6980   0.879   5.980   6.316
 2345TIP3    H2 6981   1.030   5.980   6.327
 2346TIP3   OH2 6982   5.861   2.636   3.435
 2346TIP3    H1 6983   5.843   2.626   3.342
 2346TIP3    H2 6984   5.781   2.607   3.479
 2347TIP3   OH2 6985   1.667   1.132   4.769
 2347TIP3    H1 6986   1.619   1.197   4.717
 2347TIP3    H2 6987   1.602   1.095   4.828
 2348TIP3   OH2 6988   4.876   2.582   5.376
 2348TIP3    H1 6989   4.921   2.508   5.418
 2348TIP3    H2 6990   4.832   2.627   5.448
 2349TIP3   OH2 6991   4.522   4.250   5.291
 2349TIP3    H1 6992   4.529   4.343   5.310
 2349TIP3    H2 6993   4.429   4.229   5.303
 2350TIP3   OH2 6994   3.999   7.619   0.577
 2350TIP3    H1 6995   3.941   7.679   0.530
 2350TIP3    H2 6996   3.959   7.533   0.564
 2351TIP3   OH2 6997   1.430   0.202   2.458
 2351TIP3    H1 6998   1.471   0.242   2.535
 2351TIP3    H2 6999   1.340   0.187   2.485
 2352TIP3   OH2 7000   0.933   3.345   5.878
 2352TIP3    H1 7001   0.985   3.399   5.937
 2352TIP3    H2 7002   0.964   3.256   5.893
 2353TIP3   OH2 7003   5.651   5.739   0.365
 2353TIP3    H1 7004   5.709   5.815   0.374
 2353TIP3    H2 7005   5.572   5.774   0.323
 2354TIP3   OH2 7006   0.973   0.317   3.056
 2354TIP3    H1 7007   0.988   0.245   3.117
 2354TIP3    H2 7008   1.057   0.363   3.052
 2355TIP3   OH2 7009   7.288   4.797   5.989
 2355TIP3    H1 7010   7.316   4.790   6.081
 2355TIP3    H2 7011   7.195   4.778   5.991
 2356TIP3   OH2 7012   0.607   6.862   6.139
 2356TIP3    H1 7013   0.668   6.791   6.119
 2356TIP3    H2 7014   0.663   6.936   6.161
 2357TIP3   OH2 7015   4.710   0.811   1.217
 2357TIP3    H1 7016   4.624   0.768   1.220
 2357TIP3    H2 7017   4.753   0.783   1.298
 2358TIP3   OH2 7018   2.220   7.256   3.539
 2358TIP3    H1 7019   2.155   7.202   3.494
 2358TIP3    H2 7020   2.239   7.209   3.620
 2359TIP3   OH2 7021   1.306   5.021   2.430
 2359TIP3    H1 7022   1.225   5.073   2.427
 2359TIP3    H2 7023   1.369   5.071   2.378
 2360TIP3   OH2 7024   7.000   2.009   5.485
 2360TIP3    H1 7025   6.948   2.055   5.419
 2360TIP3    H2 7026   7.003   2.068   5.560
 2361TIP3   OH2 7027   0.748   1.994   2.687
 2361TIP3    H1 7028   0.699   1.935   2.630
 2361TIP3    H2 7029   0.839   1.967   2.677
 2362TIP3   OH2 7030   2.119   0.028   2.061
 2362TIP3    H1 7031   2.127  -0.055   2.109
 2362TIP3    H2 7032   2.209   0.053   2.042
 2363TIP3   OH2 7033   1.058   7.330   0.228
 2363TIP3    H1 7034   1.105   7.249   0.247
 2363TIP3    H2 7035   1.125   7.390   0.196
 2364TIP3   OH2 7036   3.150   4.563   2.400
 2364TIP3    H1 7037   3.165   4.502   2.328
 2364TIP3    H2 7038   3.058   4.587   2.393
 2365TIP3   OH2 7039   6.216   0.846   2.690
 2365TIP3    H1 7040   6.305   0.819   2.666
 2365TIP3    H2 7041   6.188   0.903   2.618
 2366TIP3   OH2 7042   2.643   2.582   5.326
 2366TIP3    H1 7043   2.702   2.655   5.344
 2366TIP3    H2 7044   2.556   2.620   5.327
 2367TIP3   OH2 7045   1.513   5.636   6.230
 2367TIP3    H1 7046   1.580   5.589   6.181
 2367TIP3    H2 7047   1.550   5.722   6.247
 2368TIP3   OH2 7048   7.626   6.181   1.589
 2368TIP3    H1 7049   7.697   6.206   1.530
 2368TIP3    H2 7050   7.670   6.138   1.662
 2369TIP3   OH2 7051   2.746   0.250   4.632
 2369TIP3    H1 7052   2.733   0.210   4.718
 2369TIP3    H2 7053   2.669   0.305   4.619
 2370TIP3   OH2 7054   6.241   2.175   2.179
 2370TIP3    H1 7055   6.221   2.117   2.105
 2370TIP3    H2 7056   6.167   2.235   2.182
 2371TIP3   OH2 7057   5.025   1.067   1.650
 2371TIP3    H1 7058   5.061   1.155   1.638
 2371TIP3    H2 7059   4.949   1.064   1.592
 2372TIP3   OH2 7060   5.790   3.883   0.557
 2372TIP3    H1 7061   5.799   3.975   0.581
 2372TIP3    H2 7062   5.747   3.885   0.472
 2373TIP3   OH2 7063   1.004   3.183   3.208
 2373TIP3    H1 7064   1.011   3.088   3.201
 2373TIP3    H2 7065   1.043   3.204   3.293
 2374TIP3   OH2 7066   8.029   2.561   5.432
 2374TIP3    H1 7067   7.988   2.643   5.403
 2374TIP3    H2 7068   7.983   2.537   5.512
 2375TIP3   OH2 7069   4.789   2.668   4.795
 2375TIP3    H1 7070   4.841   2.714   4.861
 2375TIP3    H2 7071   4.764   2.586   4.838
 2376TIP3   OH2 7072   2.359   2.824   3.428
 2376TIP3    H1 7073   2.451   2.826   3.453
 2376TIP3    H2 7074   2.338   2.731   3.420
 2377TIP3   OH2 7075   4.516   5.488   3.630
 2377TIP3    H1 7076   4.466   5.559   3.590
 2377TIP3    H2 7077   4.456   5.413   3.628
 2378TIP3   OH2 7078   3.192   6.313   4.090
 2378TIP3    H1 7079   3.128   6.376   4.125
 2378TIP3    H2 7080   3.173   6.309   3.996
 2379TIP3   OH2 7081   0.390   3.893   0.772
 2379TIP3    H1 7082   0.313   3.947   0.758
 2379TIP3    H2 7083   0.370   3.811   0.725
 2380TIP3   OH2 7084   4.333   3.084   6.102
 2380TIP3    H1 7085   4.378   3.002   6.119
 2380TIP3    H2 7086   4.251   3.078   6.151
 2381TIP3   OH2 7087   1.779   3.443   1.790
 2381TIP3    H1 7088   1.865   3.431   1.830
 2381TIP3    H2 7089   1.797   3.492   1.710
 2382TIP3   OH2 7090   3.473   2.713   3.917
 2382TIP3    H1 7091   3.391   2.665   3.911
 2382TIP3    H2 7092   3.526   2.664   3.980
 2383TIP3   OH2 7093   6.021   4.685   0.958
 2383TIP3    H1 7094   6.068   4.761   0.990
 2383TIP3    H2 7095   5.981   4.646   1.037
 2384TIP3   OH2 7096   2.932   5.547   0.231
 2384TIP3    H1 7097   2.837   5.557   0.225
 2384TIP3    H2 7098   2.967   5.602   0.161
 2385TIP3   OH2 7099   6.698   2.137   3.987
 2385TIP3    H1 7100   6.689   2.065   3.925
 2385TIP3    H2 7101   6.756   2.199   3.942
 2386TIP3   OH2 7102   4.300   4.721   1.695
 2386TIP3    H1 7103   4.307   4.783   1.768
 2386TIP3    H2 7104   4.374   4.742   1.638
 2387TIP3   OH2 7105   4.855   0.045   1.692
 2387TIP3    H1 7106   4.950   0.048   1.706
 2387TIP3    H2 7107   4.840   0.096   1.613
 2388TIP3   OH2 7108   6.905   1.594   1.545
 2388TIP3    H1 7109   6.918   1.504   1.516
 2388TIP3    H2 7110   6.986   1.617   1.590
 2389TIP3   OH2 7111   6.216   6.005   5.856
 2389TIP3    H1 7112   6.244   6.053   5.934
 2389TIP3    H2 7113   6.121   6.020   5.852
 2390TIP3   OH2 7114   3.230   2.793   4.039
 2390TIP3    H1 7115   3.223   2.876   3.992
 2390TIP3    H2 7116   3.203   2.727   3.975
 2391TIP3   OH2 7117   3.689   3.984   6.023
 2391TIP3    H1 7118   3.697   4.066   5.973
 2391TIP3    H2 7119   3.595   3.964   6.020
 2392TIP3   OH2 7120   7.044   2.777   4.559
 2392TIP3    H1 7121   6.976   2.783   4.492
 2392TIP3    H2 7122   7.004   2.813   4.638
 2393TIP3   OH2 7123   0.720   4.167   4.735
 2393TIP3    H1 7124   0.703   4.253   4.774
 2393TIP3    H2 7125   0.652   4.110   4.772
 2394TIP3   OH2 7126   4.042   2.722   5.321
 2394TIP3    H1 7127   4.127   2.736   5.362
 2394TIP3    H2 7128   3.993   2.802   5.337
 2395TIP3   OH2 7129   5.215   0.768   5.091
 2395TIP3    H1 7130   5.283   0.775   5.158
 2395TIP3    H2 7131   5.170   0.686   5.111
 2396TIP3   OH2 7132   1.756   5.405   4.789
 2396TIP3    H1 7133   1.725   5.425   4.877
 2396TIP3    H2 7134   1.846   5.375   4.801
 2397TIP3   OH2 7135   5.888   3.833   4.899
 2397TIP3    H1 7136   5.793   3.836   4.890
 2397TIP3    H2 7137   5.919   3.798   4.816
 2398TIP3   OH2 7138   5.418   1.184   4.718
 2398TIP3    H1 7139   5.374   1.102   4.742
 2398TIP3    H2 7140   5.481   1.158   4.650
 2399TIP3   OH2 7141   4.408   2.826   6.110
 2399TIP3    H1 7142   4.409   2.778   6.027
 2399TIP3    H2 7143   4.486   2.795   6.156
 2400TIP3   OH2 7144   0.687   6.451   3.746
 2400TIP3    H1 7145   0.651   6.412   3.667
 2400TIP3    H2 7146   0.728   6.378   3.792
 2401TIP3   OH2 7147   5.226   0.230   3.789
 2401TIP3    H1 7148   5.235   0.152   3.843
 2401TIP3    H2 7149   5.311   0.274   3.796
 2402TIP3   OH2 7150   5.406   7.386   3.288
 2402TIP3    H1 7151   5.330   7.435   3.258
 2402TIP3    H2 7152   5.466   7.387   3.213
 2403TIP3   OH2 7153   5.136   0.319   1.996
 2403TIP3    H1 7154   5.053   0.345   2.036
 2403TIP3    H2 7155   5.114   0.245   1.940
 2404TIP3   OH2 7156   6.437   4.873   4.614
 2404TIP3    H1 7157   6.420   4.938   4.683
 2404TIP3    H2 7158   6.468   4.796   4.662
 2405TIP3   OH2 7159   4.648   1.956   1.298
 2405TIP3    H1 7160   4.628   1.961   1.204
 2405TIP3    H2 7161   4.733   1.912   1.302
 2406TIP3   OH2 7162   0.825   6.122   5.792
 2406TIP3    H1 7163   0.764   6.119   5.865
 2406TIP3    H2 7164   0.849   6.031   5.776
 2407TIP3   OH2 7165   1.416   2.358   1.924
 2407TIP3    H1 7166   1.342   2.298   1.914
 2407TIP3    H2 7167   1.416   2.381   2.017
 2408TIP3   OH2 7168   1.087   7.766   2.723
 2408TIP3    H1 7169   1.043   7.734   2.801
 2408TIP3    H2 7170   1.139   7.692   2.692
 2409TIP3   OH2 7171   0.363   4.370   6.299
 2409TIP3    H1 7172   0.347   4.286   6.258
 2409TIP3    H2 7173   0.458   4.372   6.314
 2410TIP3   OH2 7174   4.371   0.594   5.192
 2410TIP3    H1 7175   4.351   0.686   5.213
 2410TIP3    H2 7176   4.409   0.560   5.273
 2411TIP3   OH2 7177   3.730   6.302   0.939
 2411TIP3    H1 7178   3.784   6.322   0.862
 2411TIP3    H2 7179   3.784   6.245   0.992
 2412TIP3   OH2 7180   3.112   1.376   2.687
 2412TIP3    H1 7181   3.076   1.340   2.768
 2412TIP3    H2 7182   3.206   1.383   2.704
 2413TIP3   OH2 7183   7.435   5.183   4.613
 2413TIP3    H1 7184   7.474   5.098   4.592
 2413TIP3    H2 7185   7.412   5.221   4.529
 2414TIP3   OH2 7186   8.040   1.254   2.907
 2414TIP3    H1 7187   7.964   1.306   2.931
 2414TIP3    H2 7188   8.111   1.287   2.963
 2415TIP3   OH2 7189   4.988   1.168   2.504
 2415TIP3    H1 7190   5.075   1.143   2.472
 2415TIP3    H2 7191   4.976   1.116   2.583
 2416TIP3   OH2 7192   0.896   1.197   0.688
 2416TIP3    H1 7193   0.903   1.129   0.622
 2416TIP3    H2 7194   0.952   1.268   0.656
 2417TIP3   OH2 7195   3.057   4.879   0.263
 2417TIP3    H1 7196   3.094   4.951   0.212
 2417TIP3    H2 7197   3.133   4.828   0.292
 2418TIP3   OH2 7198   4.077   4.448   6.551
 2418TIP3    H1 7199   4.047   4.390   6.481
 2418TIP3    H2 7200   4.025   4.528   6.540
 2419TIP3   OH2 7201   4.593   7.630   5.998
 2419TIP3    H1 7202   4.655   7.607   5.928
 2419TIP3    H2 7203   4.611   7.722   6.016
 2420TIP3   OH2 7204   3.747   2.456   1.066
 2420TIP3    H1 7205   3.729   2.374   1.113
 2420TIP3    H2 7206   3.710   2.442   0.979
 2421TIP3   OH2 7207   3.170   4.165   5.261
 2421TIP3    H1 7208   3.125   4.233   5.211
 2421TIP3    H2 7209   3.110   4.090   5.259
 2422TIP3   OH2 7210   1.435   6.336   1.721
 2422TIP3    H1 7211   1.387   6.401   1.671
 2422TIP3    H2 7212   1.503   6.304   1.662
 2423TIP3   OH2 7213   4.227   0.306   6.047
 2423TIP3    H1 7214   4.230   0.374   6.114
 2423TIP3    H2 7215   4.182   0.233   6.090
 2424TIP3   OH2 7216   5.000   7.499   1.159
 2424TIP3    H1 7217   5.080   7.474   1.205
 2424TIP3    H2 7218   5.031   7.541   1.079
 2425TIP3   OH2 7219   4.353   3.278   5.901
 2425TIP3    H1 7220   4.265   3.316   5.905
 2425TIP3    H2 7221   4.352   3.209   5.967
 2426TIP3   OH2 7222   6.049   5.271   3.684
 2426TIP3    H1 7223   6.138   5.297   3.708
 2426TIP3    H2 7224   6.002   5.267   3.767
 2427TIP3   OH2 7225   6.545   4.918   0.396
 2427TIP3    H1 7226   6.538   4.891   0.305
 2427TIP3    H2 7227   6.456   4.911   0.431
 2428TIP3   OH2 7228   4.395   6.199   0.170
 2428TIP3    H1 7229   4.487   6.182   0.192
 2428TIP3    H2 7230   4.397   6.280   0.119
 2429TIP3   OH2 7231   4.366   3.804   6.334
 2429TIP3    H1 7232   4.386   3.829   6.424
 2429TIP3    H2 7233   4.439   3.748   6.308
 2430TIP3   OH2 7234   4.389   4.306   6.144
 2430TIP3    H1 7235   4.484   4.316   6.140
 2430TIP3    H2 7236   4.362   4.363   6.216
 2431TIP3   OH2 7237   6.041   7.508   4.542
 2431TIP3    H1 7238   6.100   7.526   4.469
 2431TIP3    H2 7239   5.997   7.427   4.518
 2432TIP3   OH2 7240   4.679   6.164   6.456
 2432TIP3    H1 7241   4.708   6.083   6.414
 2432TIP3    H2 7242   4.672   6.142   6.548
 2433TIP3   OH2 7243   5.259   2.698   2.063
 2433TIP3    H1 7244   5.344   2.742   2.065
 2433TIP3    H2 7245   5.207   2.748   2.000
 2434TIP3   OH2 7246   7.913   5.798   2.927
 2434TIP3    H1 7247   7.888   5.803   3.020
 2434TIP3    H2 7248   7.862   5.867   2.885
 2435TIP3   OH2 7249   2.845   4.888   1.172
 2435TIP3    H1 7250   2.938   4.896   1.148
 2435TIP3    H2 7251   2.808   4.974   1.155
 2436TIP3   OH2 7252   6.665   2.219   4.253
 2436TIP3    H1 7253   6.603   2.291   4.239
 2436TIP3    H2 7254   6.695   2.196   4.165
 2437TIP3   OH2 7255   0.541   0.362   5.452
 2437TIP3    H1 7256   0.614   0.354   5.514
 2437TIP3    H2 7257   0.575   0.328   5.370
 2438TIP3   OH2 7258   6.439   5.802   2.229
 2438TIP3    H1 7259   6.447   5.898   2.232
 2438TIP3    H2 7260   6.409   5.778   2.316
 2439TIP3   OH2 7261   8.223   2.825   5.841
 2439TIP3    H1 7262   8.261   2.843   5.755
 2439TIP3    H2 7263   8.154   2.890   5.851
 2440TIP3   OH2 7264   6.973   2.023   5.948
 2440TIP3    H1 7265   6.897   1.988   5.901
 2440TIP3    H2 7266   6.940   2.044   6.035
 2441TIP3   OH2 7267   3.974   0.825   2.982
 2441TIP3    H1 7268   4.032   0.792   3.051
 2441TIP3    H2 7269   3.895   0.771   2.990
 2442TIP3   OH2 7270   1.093   0.447   2.671
 2442TIP3    H1 7271   1.002   0.477   2.670
 2442TIP3    H2 7272   1.138   0.508   2.613
 2443TIP3   OH2 7273   1.993   2.971   4.875
 2443TIP3    H1 7274   1.955   2.950   4.790
 2443TIP3    H2 7275   2.025   3.061   4.865
 2444TIP3   OH2 7276   6.974   7.442   0.434
 2444TIP3    H1 7277   6.883   7.426   0.460
 2444TIP3    H2 7278   6.967   7.484   0.348
 2445TIP3   OH2 7279   8.149   6.393   1.957
 2445TIP3    H1 7280   8.183   6.391   2.046
 2445TIP3    H2 7281   8.095   6.314   1.949
 2446TIP3   OH2 7282   4.230   1.996   1.665
 2446TIP3    H1 7283   4.191   2.042   1.590
 2446TIP3    H2 7284   4.300   1.943   1.627
 2447TIP3   OH2 7285   2.162   7.846   0.415
 2447TIP3    H1 7286   2.228   7.903   0.376
 2447TIP3    H2 7287   2.172   7.763   0.369
 2448TIP3   OH2 7288   0.239   6.434   6.521
 2448TIP3    H1 7289   0.176   6.503   6.498
 2448TIP3    H2 7290   0.305   6.480   6.573
 2449TIP3   OH2 7291   3.181   7.616   1.594
 2449TIP3    H1 7292   3.238   7.660   1.657
 2449TIP3    H2 7293   3.211   7.647   1.508
 2450TIP3   OH2 7294   7.307   5.032   5.851
 2450TIP3    H1 7295   7.338   5.108   5.900
 2450TIP3    H2 7296   7.317   4.958   5.911
 2451TIP3   OH2 7297   6.371   2.863   2.964
 2451TIP3    H1 7298   6.390   2.866   3.057
 2451TIP3    H2 7299   6.286   2.820   2.958
 2452TIP3   OH2 7300   2.026   5.001   5.574
 2452TIP3    H1 7301   2.048   4.919   5.531
 2452TIP3    H2 7302   1.989   5.056   5.505
 2453TIP3   OH2 7303   4.226   2.027   6.486
 2453TIP3    H1 7304   4.309   2.074   6.479
 2453TIP3    H2 7305   4.230   1.959   6.419
 2454TIP3   OH2 7306   1.851   3.185   4.088
 2454TIP3    H1 7307   1.895   3.134   4.156
 2454TIP3    H2 7308   1.915   3.189   4.016
 2455TIP3   OH2 7309   2.010   1.922   1.165
 2455TIP3    H1 7310   1.936   1.900   1.108
 2455TIP3    H2 7311   1.984   1.891   1.252
 2456TIP3   OH2 7312   4.348   4.636   5.514
 2456TIP3    H1 7313   4.361   4.606   5.604
 2456TIP3    H2 7314   4.353   4.731   5.519
 2457TIP3   OH2 7315   3.967   1.834   2.764
 2457TIP3    H1 7316   3.899   1.884   2.810
 2457TIP3    H2 7317   3.968   1.749   2.807
 2458TIP3   OH2 7318   4.707   5.477   3.434
 2458TIP3    H1 7319   4.649   5.403   3.418
 2458TIP3    H2 7320   4.669   5.521   3.510
 2459TIP3   OH2 7321   7.815   4.956   1.834
 2459TIP3    H1 7322   7.874   4.895   1.789
 2459TIP3    H2 7323   7.798   5.024   1.769
 2460TIP3   OH2 7324   0.684   5.400   0.899
 2460TIP3    H1 7325   0.746   5.389   0.971
 2460TIP3    H2 7326   0.635   5.479   0.921
 2461TIP3   OH2 7327   3.138   3.266   2.821
 2461TIP3    H1 7328   3.145   3.297   2.912
 2461TIP3    H2 7329   3.066   3.318   2.784
 2462TIP3   OH2 7330   4.212   4.354   4.064
 2462TIP3    H1 7331   4.273   4.282   4.048
 2462TIP3    H2 7332   4.254   4.408   4.131
 2463TIP3   OH2 7333   4.540   2.234   1.294
 2463TIP3    H1 7334   4.448   2.258   1.281
 2463TIP3    H2 7335   4.540   2.139   1.298
 2464TIP3   OH2 7336   4.488   7.051   5.058
 2464TIP3    H1 7337   4.524   6.971   5.019
 2464TIP3    H2 7338   4.543   7.068   5.134
 2465TIP3   OH2 7339   6.681   6.668   2.000
 2465TIP3    H1 7340   6.681   6.610   2.076
 2465TIP3    H2 7341   6.769   6.661   1.963
 2466TIP3   OH2 7342   3.109   7.262   4.826
 2466TIP3    H1 7343   3.066   7.184   4.791
 2466TIP3    H2 7344   3.202   7.249   4.809
 2467TIP3   OH2 7345   5.002   3.301   5.478
 2467TIP3    H1 7346   4.953   3.265   5.404
 2467TIP3    H2 7347   5.021   3.391   5.453
 2468TIP3   OH2 7348   7.561   7.173   2.491
 2468TIP3    H1 7349   7.631   7.117   2.524
 2468TIP3    H2 7350   7.524   7.124   2.418
 2469TIP3   OH2 7351   6.339   3.228   0.078
 2469TIP3    H1 7352   6.321   3.220  -0.016
 2469TIP3    H2 7353   6.318   3.142   0.114
 2470TIP3   OH2 7354   1.737   2.436   4.241
 2470TIP3    H1 7355   1.742   2.343   4.263
 2470TIP3    H2 7356   1.828   2.463   4.230
 2471TIP3   OH2 7357   3.545   1.113   4.406
 2471TIP3    H1 7358   3.549   1.051   4.333
 2471TIP3    H2 7359   3.456   1.149   4.402
 2472TIP3   OH2 7360   0.413   2.943   0.255
 2472TIP3    H1 7361   0.474   2.968   0.185
 2472TIP3    H2 7362   0.390   3.026   0.297
 2473TIP3   OH2 7363   0.726   0.829   2.270
 2473TIP3    H1 7364   0.752   0.909   2.225
 2473TIP3    H2 7365   0.674   0.781   2.206
 2474TIP3   OH2 7366   4.513   2.811   3.691
 2474TIP3    H1 7367   4.599   2.854   3.688
 2474TIP3    H2 7368   4.476   2.837   3.775
 2475TIP3   OH2 7369   6.644   4.288   0.525
 2475TIP3    H1 7370   6.705   4.219   0.553
 2475TIP3    H2 7371   6.626   4.269   0.433
 2476TIP3   OH2 7372   2.842   6.001   4.073
 2476TIP3    H1 7373   2.844   6.083   4.123
 2476TIP3    H2 7374   2.837   5.933   4.140
 2477TIP3   OH2 7375   0.428   3.941   2.692
 2477TIP3    H1 7376   0.489   3.993   2.640
 2477TIP3    H2 7377   0.462   3.852   2.687
 2478TIP3   OH2 7378   1.369   4.325   0.551
 2478TIP3    H1 7379   1.454   4.302   0.590
 2478TIP3    H2 7380   1.308   4.261   0.587
 2479TIP3   OH2 7381   4.662   7.581   4.096
 2479TIP3    H1 7382   4.748   7.560   4.059
 2479TIP3    H2 7383   4.613   7.620   4.024
 2480TIP3   OH2 7384   0.380   1.780   4.308
 2480TIP3    H1 7385   0.296   1.784   4.262
 2480TIP3    H2 7386   0.356   1.786   4.401
 2481TIP3   OH2 7387   2.660   2.840   2.787
 2481TIP3    H1 7388   2.693   2.778   2.722
 2481TIP3    H2 7389   2.638   2.918   2.736
 2482TIP3   OH2 7390   0.394   5.669   1.590
 2482TIP3    H1 7391   0.406   5.715   1.672
 2482TIP3    H2 7392   0.324   5.606   1.608
 2483TIP3   OH2 7393   4.908   1.586   1.599
 2483TIP3    H1 7394   4.878   1.675   1.584
 2483TIP3    H2 7395   4.832   1.531   1.582
 2484TIP3   OH2 7396   6.401   5.884   0.369
 2484TIP3    H1 7397   6.463   5.910   0.301
 2484TIP3    H2 7398   6.396   5.788   0.361
 2485TIP3   OH2 7399   6.546   0.714   0.686
 2485TIP3    H1 7400   6.567   0.636   0.635
 2485TIP3    H2 7401   6.454   0.702   0.711
 2486TIP3   OH2 7402   0.539   5.838   5.670
 2486TIP3    H1 7403   0.475   5.774   5.701
 2486TIP3    H2 7404   0.595   5.788   5.610
 2487TIP3   OH2 7405   5.437   2.446   2.517
 2487TIP3    H1 7406   5.364   2.497   2.550
 2487TIP3    H2 7407   5.424   2.444   2.422
 2488TIP3   OH2 7408   0.436   6.497   4.030
 2488TIP3    H1 7409   0.505   6.431   4.043
 2488TIP3    H2 7410   0.431   6.542   4.114
 2489TIP3   OH2 7411   4.717   2.441   5.602
 2489TIP3    H1 7412   4.749   2.530   5.616
 2489TIP3    H2 7413   4.654   2.427   5.673
 2490TIP3   OH2 7414   4.646   6.526   1.812
 2490TIP3    H1 7415   4.574   6.514   1.750
 2490TIP3    H2 7416   4.612   6.591   1.874
 2491TIP3   OH2 7417   8.148  -0.013   6.156
 2491TIP3    H1 7418   8.147   0.059   6.219
 2491TIP3    H2 7419   8.211   0.013   6.090
 2492TIP3   OH2 7420   7.852   1.956   0.551
 2492TIP3    H1 7421   7.865   1.936   0.458
 2492TIP3    H2 7422   7.892   1.883   0.597
 2493TIP3   OH2 7423   1.036   3.591   3.841
 2493TIP3    H1 7424   1.090   3.669   3.846
 2493TIP3    H2 7425   0.999   3.592   3.752
 2494TIP3   OH2 7426   4.438   1.673   5.503
 2494TIP3    H1 7427   4.446   1.605   5.569
 2494TIP3    H2 7428   4.435   1.626   5.420
 2495TIP3   OH2 7429   3.410   7.476   3.560
 2495TIP3    H1 7430   3.458   7.514   3.634
 2495TIP3    H2 7431   3.320   7.505   3.572
 2496TIP3   OH2 7432   2.896   3.965   1.101
 2496TIP3    H1 7433   2.855   4.047   1.075
 2496TIP3    H2 7434   2.982   3.990   1.134
 2497TIP3   OH2 7435   7.048   6.423   1.213
 2497TIP3    H1 7436   7.120   6.471   1.172
 2497TIP3    H2 7437   6.970   6.453   1.168
 2498TIP3   OH2 7438   7.210   6.503   5.018
 2498TIP3    H1 7439   7.277   6.435   5.029
 2498TIP3    H2 7440   7.154   6.493   5.095
 2499TIP3   OH2 7441   1.889   0.769   6.107
 2499TIP3    H1 7442   1.808   0.817   6.090
 2499TIP3    H2 7443   1.892   0.702   6.038
 2500TIP3   OH2 7444   4.346   6.257   3.147
 2500TIP3    H1 7445   4.291   6.180   3.135
 2500TIP3    H2 7446   4.435   6.222   3.151
 2501TIP3   OH2 7447   7.175   6.689   5.340
 2501TIP3    H1 7448   7.216   6.770   5.371
 2501TIP3    H2 7449   7.146   6.709   5.251
 2502TIP3   OH2 7450   4.828   1.674   4.994
 2502TIP3    H1 7451   4.786   1.754   5.027
 2502TIP3    H2 7452   4.873   1.638   5.070
 2503TIP3   OH2 7453   7.979   2.674   3.386
 2503TIP3    H1 7454   8.055   2.731   3.383
 2503TIP3    H2 7455   8.010   2.590   3.353
 2504TIP3   OH2 7456   2.007   6.094   6.692
 2504TIP3    H1 7457   2.045   6.137   6.616
 2504TIP3    H2 7458   2.018   6.000   6.675
 2505TIP3   OH2 7459   0.720   6.255   4.679
 2505TIP3    H1 7460   0.719   6.283   4.588
 2505TIP3    H2 7461   0.650   6.190   4.685
 2506TIP3   OH2 7462   1.468   3.929   6.592
 2506TIP3    H1 7463   1.425   4.011   6.568
 2506TIP3    H2 7464   1.488   3.888   6.507
 2507TIP3   OH2 7465   3.695   2.464   3.681
 2507TIP3    H1 7466   3.729   2.553   3.692
 2507TIP3    H2 7467   3.719   2.440   3.591
 2508TIP3   OH2 7468   1.123   6.576   0.041
 2508TIP3    H1 7469   1.085   6.565   0.128
 2508TIP3    H2 7470   1.052   6.553  -0.019
 2509TIP3   OH2 7471   2.744   2.041   4.532
 2509TIP3    H1 7472   2.728   2.135   4.538
 2509TIP3    H2 7473   2.743   2.011   4.623
 2510TIP3   OH2 7474   2.509   6.284   6.049
 2510TIP3    H1 7475   2.477   6.354   5.992
 2510TIP3    H2 7476   2.598   6.310   6.071
 2511TIP3   OH2 7477   3.104   3.193   6.267
 2511TIP3    H1 7478   3.103   3.253   6.193
 2511TIP3    H2 7479   3.037   3.128   6.247
 2512TIP3   OH2 7480   4.586   5.361   0.749
 2512TIP3    H1 7481   4.559   5.448   0.779
 2512TIP3    H2 7482   4.671   5.376   0.707
 2513TIP3   OH2 7483   7.012   3.449   3.499
 2513TIP3    H1 7484   6.997   3.512   3.569
 2513TIP3    H2 7485   7.097   3.474   3.463
 2514TIP3   OH2 7486   6.060   3.813   4.019
 2514TIP3    H1 7487   6.041   3.888   4.075
 2514TIP3    H2 7488   6.097   3.747   4.077
 2515TIP3   OH2 7489   5.252   3.812   4.228
 2515TIP3    H1 7490   5.297   3.848   4.151
 2515TIP3    H2 7491   5.266   3.878   4.296
 2516TIP3   OH2 7492   6.290   2.207   5.855
 2516TIP3    H1 7493   6.288   2.279   5.791
 2516TIP3    H2 7494   6.281   2.250   5.940
 2517TIP3   OH2 7495   2.541   6.164   2.126
 2517TIP3    H1 7496   2.585   6.230   2.180
 2517TIP3    H2 7497   2.578   6.081   2.154
 2518TIP3   OH2 7498   1.532   5.448   0.720
 2518TIP3    H1 7499   1.590   5.377   0.748
 2518TIP3    H2 7500   1.580   5.492   0.650
 2519TIP3   OH2 7501   8.164   4.960   4.011
 2519TIP3    H1 7502   8.175   5.033   4.072
 2519TIP3    H2 7503   8.236   4.901   4.030
 2520TIP3   OH2 7504   5.266   4.409   3.009
 2520TIP3    H1 7505   5.278   4.410   3.104
 2520TIP3    H2 7506   5.306   4.490   2.979
 2521TIP3   OH2 7507   1.207   7.676   6.426
 2521TIP3    H1 7508   1.158   7.685   6.344
 2521TIP3    H2 7509   1.147   7.710   6.493
 2522TIP3   OH2 7510   7.004   0.257   2.527
 2522TIP3    H1 7511   7.095   0.254   2.556
 2522TIP3    H2 7512   6.996   0.342   2.484
 2523TIP3   OH2 7513   0.852   6.784   6.366
 2523TIP3    H1 7514   0.906   6.733   6.306
 2523TIP3    H2 7515   0.910   6.852   6.398
 2524TIP3   OH2 7516   7.876   7.422   6.043
 2524TIP3    H1 7517   7.817   7.496   6.062
 2524TIP3    H2 7518   7.819   7.355   6.005
 2525TIP3   OH2 7519   3.484   6.721   2.615
 2525TIP3    H1 7520   3.445   6.775   2.546
 2525TIP3    H2 7521   3.516   6.643   2.571
 2526TIP3   OH2 7522   3.090   4.569   1.964
 2526TIP3    H1 7523   3.142   4.626   2.019
 2526TIP3    H2 7524   3.105   4.600   1.875
 2527TIP3   OH2 7525   0.240   1.111   3.453
 2527TIP3    H1 7526   0.298   1.175   3.411
 2527TIP3    H2 7527   0.281   1.027   3.434
 2528TIP3   OH2 7528   3.940   6.883   3.318
 2528TIP3    H1 7529   3.868   6.937   3.286
 2528TIP3    H2 7530   3.897   6.814   3.368
 2529TIP3   OH2 7531   4.968   0.524   0.639
 2529TIP3    H1 7532   5.039   0.539   0.576
 2529TIP3    H2 7533   4.898   0.485   0.587
 2530TIP3   OH2 7534   1.251   7.292   1.502
 2530TIP3    H1 7535   1.198   7.356   1.550
 2530TIP3    H2 7536   1.263   7.220   1.564
 2531TIP3   OH2 7537   7.788   4.958   6.545
 2531TIP3    H1 7538   7.782   4.970   6.451
 2531TIP3    H2 7539   7.818   5.043   6.579
 2532TIP3   OH2 7540   4.056   6.524   0.718
 2532TIP3    H1 7541   3.972   6.495   0.754
 2532TIP3    H2 7542   4.038   6.539   0.625
 2533TIP3   OH2 7543   5.433   4.530   0.783
 2533TIP3    H1 7544   5.518   4.567   0.808
 2533TIP3    H2 7545   5.375   4.606   0.775
 2534TIP3   OH2 7546   7.504   2.428   5.915
 2534TIP3    H1 7547   7.557   2.492   5.868
 2534TIP3    H2 7548   7.529   2.439   6.007
 2535TIP3   OH2 7549   8.277   4.397   1.162
 2535TIP3    H1 7550   8.275   4.317   1.110
 2535TIP3    H2 7551   8.199   4.445   1.136
 2536TIP3   OH2 7552   2.528   1.981   5.697
 2536TIP3    H1 7553   2.519   2.056   5.757
 2536TIP3    H2 7554   2.441   1.941   5.698
 2537TIP3   OH2 7555   6.481   3.873   2.168
 2537TIP3    H1 7556   6.562   3.832   2.138
 2537TIP3    H2 7557   6.448   3.814   2.235
 2538TIP3   OH2 7558   1.021   4.809   2.560
 2538TIP3    H1 7559   1.077   4.786   2.486
 2538TIP3    H2 7560   1.003   4.726   2.604
 2539TIP3   OH2 7561   1.916   5.648   0.490
 2539TIP3    H1 7562   1.943   5.719   0.433
 2539TIP3    H2 7563   1.975   5.576   0.469
 2540TIP3   OH2 7564   5.111   2.753   1.580
 2540TIP3    H1 7565   5.030   2.707   1.556
 2540TIP3    H2 7566   5.178   2.712   1.526
 2541TIP3   OH2 7567   2.492   6.814   1.830
 2541TIP3    H1 7568   2.441   6.866   1.892
 2541TIP3    H2 7569   2.437   6.808   1.752
 2542TIP3   OH2 7570   7.144   0.055   3.995
 2542TIP3    H1 7571   7.055   0.086   3.978
 2542TIP3    H2 7572   7.150   0.050   4.090
 2543TIP3   OH2 7573   4.999   0.159   2.832
 2543TIP3    H1 7574   4.978   0.208   2.912
 2543TIP3    H2 7575   5.023   0.072   2.864
 2544TIP3   OH2 7576   1.533   6.327   2.846
 2544TIP3    H1 7577   1.502   6.416   2.864
 2544TIP3    H2 7578   1.501   6.275   2.920
 2545TIP3   OH2 7579   5.158   0.393   2.305
 2545TIP3    H1 7580   5.133   0.308   2.269
 2545TIP3    H2 7581   5.080   0.426   2.348
 2546TIP3   OH2 7582   6.055   1.159   0.670
 2546TIP3    H1 7583   6.048   1.127   0.580
 2546TIP3    H2 7584   6.089   1.248   0.661
 2547TIP3   OH2 7585   5.802   3.133   1.333
 2547TIP3    H1 7586   5.772   3.221   1.357
 2547TIP3    H2 7587   5.882   3.120   1.385
 2548TIP3   OH2 7588   2.162   2.594   0.638
 2548TIP3    H1 7589   2.068   2.609   0.648
 2548TIP3    H2 7590   2.170   2.545   0.556
 2549TIP3   OH2 7591   3.867   4.823   2.146
 2549TIP3    H1 7592   3.838   4.760   2.080
 2549TIP3    H2 7593   3.880   4.904   2.097
 2550TIP3   OH2 7594   8.123   0.941   5.103
 2550TIP3    H1 7595   8.170   1.008   5.053
 2550TIP3    H2 7596   8.056   0.908   5.043
 2551TIP3   OH2 7597   4.747   5.405   4.118
 2551TIP3    H1 7598   4.841   5.402   4.102
 2551TIP3    H2 7599   4.733   5.344   4.191
 2552TIP3   OH2 7600   6.587   0.136   1.801
 2552TIP3    H1 7601   6.543   0.075   1.742
 2552TIP3    H2 7602   6.656   0.084   1.842
 2553TIP3   OH2 7603   6.720   1.693   4.505
 2553TIP3    H1 7604   6.710   1.782   4.540
 2553TIP3    H2 7605   6.772   1.704   4.426
 2554TIP3   OH2 7606   0.542   7.134   3.612
 2554TIP3    H1 7607   0.619   7.189   3.629
 2554TIP3    H2 7608   0.468   7.186   3.643
 2555TIP3   OH2 7609   5.274   0.596   4.634
 2555TIP3    H1 7610   5.321   0.640   4.563
 2555TIP3    H2 7611   5.183   0.597   4.605
 2556TIP3   OH2 7612   0.287   4.837   0.334
 2556TIP3    H1 7613   0.282   4.875   0.246
 2556TIP3    H2 7614   0.255   4.747   0.323
 2557TIP3   OH2 7615   3.858   2.240   1.870
 2557TIP3    H1 7616   3.848   2.306   1.939
 2557TIP3    H2 7617   3.773   2.240   1.824
 2558TIP3   OH2 7618   7.814   1.830   6.144
 2558TIP3    H1 7619   7.828   1.761   6.208
 2558TIP3    H2 7620   7.771   1.900   6.193
 2559TIP3   OH2 7621   7.204   1.495   4.362
 2559TIP3    H1 7622   7.117   1.518   4.396
 2559TIP3    H2 7623   7.252   1.466   4.440
 2560TIP3   OH2 7624   7.470   2.966   5.785
 2560TIP3    H1 7625   7.494   2.878   5.814
 2560TIP3    H2 7626   7.470   3.019   5.865
 2561TIP3   OH2 7627   3.545   5.212   4.279
 2561TIP3    H1 7628   3.509   5.124   4.266
 2561TIP3    H2 7629   3.542   5.225   4.374
 2562TIP3   OH2 7630   7.905   4.483   5.573
 2562TIP3    H1 7631   7.984   4.432   5.552
 2562TIP3    H2 7632   7.854   4.482   5.492
 2563TIP3   OH2 7633   1.293   3.787   4.970
 2563TIP3    H1 7634   1.350   3.741   5.031
 2563TIP3    H2 7635   1.292   3.732   4.892
 2564TIP3   OH2 7636   4.842   4.540   5.520
 2564TIP3    H1 7637   4.937   4.527   5.530
 2564TIP3    H2 7638   4.804   4.456   5.545
 2565TIP3   OH2 7639   2.071   0.193   6.742
 2565TIP3    H1 7640   2.064   0.278   6.699
 2565TIP3    H2 7641   2.134   0.206   6.812
 2566TIP3   OH2 7642   1.881   2.393   1.190
 2566TIP3    H1 7643   1.893   2.422   1.100
 2566TIP3    H2 7644   1.849   2.470   1.237
 2567TIP3   OH2 7645   6.689   6.024   1.851
 2567TIP3    H1 7646   6.756   6.001   1.786
 2567TIP3    H2 7647   6.709   5.969   1.927
 2568TIP3   OH2 7648   4.915   3.470   1.655
 2568TIP3    H1 7649   4.922   3.563   1.632
 2568TIP3    H2 7650   4.990   3.429   1.611
 2569TIP3   OH2 7651   6.905   3.085   1.313
 2569TIP3    H1 7652   6.904   3.181   1.316
 2569TIP3    H2 7653   6.947   3.064   1.230
 2570TIP3   OH2 7654   6.084   0.157   5.371
 2570TIP3    H1 7655   6.062   0.100   5.297
 2570TIP3    H2 7656   6.049   0.243   5.346
 2571TIP3   OH2 7657   0.111   4.767   4.438
 2571TIP3    H1 7658   0.114   4.678   4.473
 2571TIP3    H2 7659   0.131   4.757   4.344
 2572TIP3   OH2 7660   0.124   4.916   5.766
 2572TIP3    H1 7661   0.131   4.821   5.774
 2572TIP3    H2 7662   0.117   4.946   5.857
 2573TIP3   OH2 7663   1.255   4.305   0.296
 2573TIP3    H1 7664   1.226   4.390   0.264
 2573TIP3    H2 7665   1.305   4.326   0.375
 2574TIP3   OH2 7666   6.378   6.290   0.514
 2574TIP3    H1 7667   6.438   6.221   0.541
 2574TIP3    H2 7668   6.397   6.303   0.421
 2575TIP3   OH2 7669   1.889   7.368   5.104
 2575TIP3    H1 7670   1.984   7.380   5.097
 2575TIP3    H2 7671   1.878   7.276   5.127
 2576TIP3   OH2 7672   1.186   5.759   0.796
 2576TIP3    H1 7673   1.121   5.828   0.813
 2576TIP3    H2 7674   1.268   5.806   0.784
 2577TIP3   OH2 7675   2.191   4.210   4.263
 2577TIP3    H1 7676   2.216   4.160   4.341
 2577TIP3    H2 7677   2.273   4.225   4.216
 2578TIP3   OH2 7678   4.884   4.517   4.552
 2578TIP3    H1 7679   4.936   4.560   4.620
 2578TIP3    H2 7680   4.928   4.539   4.470
 2579TIP3   OH2 7681   0.731   1.973   0.678
 2579TIP3    H1 7682   0.807   1.964   0.620
 2579TIP3    H2 7683   0.656   1.953   0.622
 2580TIP3   OH2 7684   2.832   2.837   1.029
 2580TIP3    H1 7685   2.783   2.757   1.008
 2580TIP3    H2 7686   2.902   2.807   1.087
 2581TIP3   OH2 7687   4.790   3.791   3.800
 2581TIP3    H1 7688   4.736   3.837   3.865
 2581TIP3    H2 7689   4.774   3.839   3.718
 2582TIP3   OH2 7690   0.474   6.536   1.960
 2582TIP3    H1 7691   0.460   6.607   1.897
 2582TIP3    H2 7692   0.522   6.470   1.910
 2583TIP3   OH2 7693   0.313   7.559   6.246
 2583TIP3    H1 7694   0.337   7.473   6.280
 2583TIP3    H2 7695   0.222   7.570   6.273
 2584TIP3   OH2 7696   3.615   2.935   3.768
 2584TIP3    H1 7697   3.565   3.016   3.773
 2584TIP3    H2 7698   3.556   2.867   3.801
 2585TIP3   OH2 7699   2.178   5.620   1.000
 2585TIP3    H1 7700   2.094   5.662   0.983
 2585TIP3    H2 7701   2.203   5.652   1.087
 2586TIP3   OH2 7702   3.296   1.852   1.897
 2586TIP3    H1 7703   3.310   1.840   1.803
 2586TIP3    H2 7704   3.241   1.930   1.903
 2587TIP3   OH2 7705   6.699   1.990   1.110
 2587TIP3    H1 7706   6.738   1.914   1.153
 2587TIP3    H2 7707   6.774   2.046   1.090
 2588TIP3   OH2 7708   0.842   1.883   5.600
 2588TIP3    H1 7709   0.863   1.856   5.510
 2588TIP3    H2 7710   0.911   1.844   5.653
 2589TIP3   OH2 7711   7.450   7.131   6.511
 2589TIP3    H1 7712   7.484   7.117   6.600
 2589TIP3    H2 7713   7.389   7.204   6.520
 2590TIP3   OH2 7714   2.249   6.156   3.253
 2590TIP3    H1 7715   2.305   6.082   3.277
 2590TIP3    H2 7716   2.310   6.222   3.218
 2591TIP3   OH2 7717   2.855   3.380   0.455
 2591TIP3    H1 7718   2.949   3.374   0.442
 2591TIP3    H2 7719   2.834   3.306   0.513
 2592TIP3   OH2 7720   3.412   5.072   2.897
 2592TIP3    H1 7721   3.332   5.110   2.861
 2592TIP3    H2 7722   3.390   5.056   2.989
 2593TIP3   OH2 7723   3.374   3.121   3.381
 2593TIP3    H1 7724   3.306   3.174   3.423
 2593TIP3    H2 7725   3.449   3.179   3.374
 2594TIP3   OH2 7726   8.001   2.531   1.869
 2594TIP3    H1 7727   8.018   2.619   1.834
 2594TIP3    H2 7728   7.955   2.486   1.798
 2595TIP3   OH2 7729   1.668   6.279   6.455
 2595TIP3    H1 7730   1.587   6.251   6.497
 2595TIP3    H2 7731   1.726   6.301   6.527
 2596TIP3   OH2 7732   5.645   2.827   6.418
 2596TIP3    H1 7733   5.680   2.737   6.421
 2596TIP3    H2 7734   5.711   2.879   6.463
 2597TIP3   OH2 7735   5.358   6.627   1.713
 2597TIP3    H1 7736   5.421   6.629   1.641
 2597TIP3    H2 7737   5.333   6.718   1.727
 2598TIP3   OH2 7738   8.230   4.370   2.499
 2598TIP3    H1 7739   8.307   4.357   2.554
 2598TIP3    H2 7740   8.161   4.398   2.559
 2599TIP3   OH2 7741   4.732   6.515   5.303
 2599TIP3    H1 7742   4.664   6.479   5.246
 2599TIP3    H2 7743   4.731   6.459   5.380
 2600TIP3   OH2 7744   7.233   6.448   5.482
 2600TIP3    H1 7745   7.197   6.531   5.452
 2600TIP3    H2 7746   7.328   6.463   5.488
 2601TIP3   OH2 7747   4.019   1.320   5.194
 2601TIP3    H1 7748   4.021   1.395   5.134
 2601TIP3    H2 7749   3.947   1.339   5.254
 2602TIP3   OH2 7750   5.892   2.599   4.150
 2602TIP3    H1 7751   5.869   2.628   4.238
 2602TIP3    H2 7752   5.819   2.543   4.124
 2603TIP3   OH2 7753   4.506   5.282   3.380
 2603TIP3    H1 7754   4.545   5.195   3.365
 2603TIP3    H2 7755   4.418   5.263   3.413
 2604TIP3   OH2 7756   6.162   1.751   2.305
 2604TIP3    H1 7757   6.118   1.739   2.221
 2604TIP3    H2 7758   6.138   1.839   2.333
 2605TIP3   OH2 7759   6.718   6.046   4.954
 2605TIP3    H1 7760   6.759   6.074   5.036
 2605TIP3    H2 7761   6.792   6.031   4.895
 2606TIP3   OH2 7762   2.478   6.469   4.017
 2606TIP3    H1 7763   2.555   6.509   3.977
 2606TIP3    H2 7764   2.513   6.420   4.092
 2607TIP3   OH2 7765   0.924   3.238   2.821
 2607TIP3    H1 7766   0.891   3.283   2.743
 2607TIP3    H2 7767   0.874   3.276   2.894
 2608TIP3   OH2 7768   3.900   1.579   6.079
 2608TIP3    H1 7769   3.978   1.570   6.133
 2608TIP3    H2 7770   3.929   1.630   6.003
 2609TIP3   OH2 7771   4.922   6.101   0.168
 2609TIP3    H1 7772   4.912   6.187   0.211
 2609TIP3    H2 7773   4.955   6.122   0.081
 2610TIP3   OH2 7774   2.549   2.034   6.049
 2610TIP3    H1 7775   2.534   2.068   5.961
 2610TIP3    H2 7776   2.462   2.024   6.086
 2611TIP3   OH2 7777   2.530   7.695   0.385
 2611TIP3    H1 7778   2.452   7.644   0.409
 2611TIP3    H2 7779   2.495   7.776   0.348
 2612TIP3   OH2 7780   2.686   1.096   3.467
 2612TIP3    H1 7781   2.637   1.153   3.527
 2612TIP3    H2 7782   2.646   1.112   3.381
 2613TIP3   OH2 7783   1.998   7.447   3.642
 2613TIP3    H1 7784   1.928   7.427   3.581
 2613TIP3    H2 7785   1.992   7.541   3.656
 2614TIP3   OH2 7786   5.288   2.352   3.831
 2614TIP3    H1 7787   5.307   2.263   3.861
 2614TIP3    H2 7788   5.326   2.409   3.899
 2615TIP3   OH2 7789   1.784   7.404   4.748
 2615TIP3    H1 7790   1.785   7.311   4.767
 2615TIP3    H2 7791   1.770   7.446   4.833
 2616TIP3   OH2 7792   2.451   4.094   6.721
 2616TIP3    H1 7793   2.473   4.015   6.671
 2616TIP3    H2 7794   2.364   4.119   6.690
 2617TIP3   OH2 7795   3.239   5.458   1.582
 2617TIP3    H1 7796   3.274   5.485   1.497
 2617TIP3    H2 7797   3.275   5.520   1.644
 2618TIP3   OH2 7798   7.638   0.229   0.848
 2618TIP3    H1 7799   7.613   0.248   0.758
 2618TIP3    H2 7800   7.669   0.313   0.882
 2619TIP3   OH2 7801   7.589   6.365   1.251
 2619TIP3    H1 7802   7.602   6.458   1.270
 2619TIP3    H2 7803   7.584   6.360   1.156
 2620TIP3   OH2 7804   5.159   3.382   6.661
 2620TIP3    H1 7805   5.252   3.359   6.667
 2620TIP3    H2 7806   5.120   3.307   6.616
 2621TIP3   OH2 7807   7.134   5.083   4.427
 2621TIP3    H1 7808   7.199   5.146   4.397
 2621TIP3    H2 7809   7.097   5.045   4.348
 2622TIP3   OH2 7810   7.380   0.750   6.480
 2622TIP3    H1 7811   7.335   0.680   6.432
 2622TIP3    H2 7812   7.357   0.830   6.432
 2623TIP3   OH2 7813   7.702   2.463   4.641
 2623TIP3    H1 7814   7.752   2.480   4.721
 2623TIP3    H2 7815   7.639   2.535   4.637
 2624TIP3   OH2 7816   5.276   1.228   1.023
 2624TIP3    H1 7817   5.223   1.248   1.100
 2624TIP3    H2 7818   5.282   1.310   0.975
 2625TIP3   OH2 7819   2.217   5.826   4.422
 2625TIP3    H1 7820   2.295   5.854   4.374
 2625TIP3    H2 7821   2.215   5.882   4.500
 2626TIP3   OH2 7822   0.399   2.781   2.527
 2626TIP3    H1 7823   0.450   2.846   2.575
 2626TIP3    H2 7824   0.380   2.713   2.592
 2627TIP3   OH2 7825   3.211   7.460   0.540
 2627TIP3    H1 7826   3.141   7.517   0.572
 2627TIP3    H2 7827   3.186   7.372   0.568
 2628TIP3   OH2 7828   6.658   3.191   3.084
 2628TIP3    H1 7829   6.722   3.138   3.038
 2628TIP3    H2 7830   6.678   3.281   3.058
 2629TIP3   OH2 7831   4.874   7.698   0.760
 2629TIP3    H1 7832   4.794   7.710   0.811
 2629TIP3    H2 7833   4.858   7.745   0.679
 2630TIP3   OH2 7834   3.822   4.858   5.458
 2630TIP3    H1 7835   3.814   4.764   5.443
 2630TIP3    H2 7836   3.840   4.866   5.552
 2631TIP3   OH2 7837   1.136   3.246   0.649
 2631TIP3    H1 7838   1.137   3.202   0.564
 2631TIP3    H2 7839   1.089   3.328   0.633
 2632TIP3   OH2 7840   6.906   3.218   6.078
 2632TIP3    H1 7841   6.999   3.243   6.080
 2632TIP3    H2 7842   6.883   3.221   5.985
 2633TIP3   OH2 7843   6.254   6.770   4.896
 2633TIP3    H1 7844   6.212   6.750   4.980
 2633TIP3    H2 7845   6.210   6.714   4.833
 2634TIP3   OH2 7846   4.865   4.055   4.564
 2634TIP3    H1 7847   4.946   4.029   4.520
 2634TIP3    H2 7848   4.888   4.059   4.657
 2635TIP3   OH2 7849   3.401   6.706   3.298
 2635TIP3    H1 7850   3.443   6.638   3.246
 2635TIP3    H2 7851   3.307   6.690   3.288
 2636TIP3   OH2 7852   6.407   6.008   5.662
 2636TIP3    H1 7853   6.326   6.045   5.698
 2636TIP3    H2 7854   6.473   6.028   5.729
 2637TIP3   OH2 7855   2.936   1.059   1.152
 2637TIP3    H1 7856   2.997   1.068   1.079
 2637TIP3    H2 7857   2.945   1.141   1.201
 2638TIP3   OH2 7858   1.754   7.122   4.497
 2638TIP3    H1 7859   1.832   7.175   4.512
 2638TIP3    H2 7860   1.707   7.125   4.580
 2639TIP3   OH2 7861   3.114   3.147   6.551
 2639TIP3    H1 7862   3.092   3.163   6.459
 2639TIP3    H2 7863   3.029   3.131   6.593
 2640TIP3   OH2 7864   2.587   7.213   1.181
 2640TIP3    H1 7865   2.546   7.126   1.182
 2640TIP3    H2 7866   2.515   7.273   1.197
 2641TIP3   OH2 7867   6.275   2.003   4.803
 2641TIP3    H1 7868   6.220   1.940   4.849
 2641TIP3    H2 7869   6.346   2.021   4.865
 2642TIP3   OH2 7870   7.191   4.456   1.672
 2642TIP3    H1 7871   7.272   4.424   1.634
 2642TIP3    H2 7872   7.127   4.388   1.654
 2643TIP3   OH2 7873   2.360   6.287   1.918
 2643TIP3    H1 7874   2.418   6.267   1.991
 2643TIP3    H2 7875   2.294   6.218   1.921
 2644TIP3   OH2 7876   1.872   7.667   5.513
 2644TIP3    H1 7877   1.909   7.600   5.455
 2644TIP3    H2 7878   1.936   7.738   5.512
 2645TIP3   OH2 7879   3.280   2.845   3.732
 2645TIP3    H1 7880   3.199   2.856   3.684
 2645TIP3    H2 7881   3.286   2.751   3.748
 2646TIP3   OH2 7882   2.486   4.542   2.877
 2646TIP3    H1 7883   2.393   4.567   2.880
 2646TIP3    H2 7884   2.489   4.454   2.914
 2647TIP3   OH2 7885   1.423   6.882   4.026
 2647TIP3    H1 7886   1.446   6.792   4.049
 2647TIP3    H2 7887   1.506   6.929   4.030
 2648TIP3   OH2 7888   1.142   4.973   5.683
 2648TIP3    H1 7889   1.200   5.007   5.616
 2648TIP3    H2 7890   1.054   4.996   5.653
 2649TIP3   OH2 7891   0.631   7.497   6.217
 2649TIP3    H1 7892   0.704   7.447   6.181
 2649TIP3    H2 7893   0.634   7.581   6.171
 2650TIP3   OH2 7894   3.452   6.416   3.817
 2650TIP3    H1 7895   3.424   6.495   3.769
 2650TIP3    H2 7896   3.539   6.397   3.783
 2651TIP3   OH2 7897   2.184   2.032   1.615
 2651TIP3    H1 7898   2.208   1.953   1.664
 2651TIP3    H2 7899   2.235   2.027   1.534
 2652TIP3   OH2 7900   7.257   4.599   0.329
 2652TIP3    H1 7901   7.222   4.687   0.342
 2652TIP3    H2 7902   7.235   4.552   0.409
 2653TIP3   OH2 7903   7.796   0.714   0.171
 2653TIP3    H1 7904   7.777   0.801   0.138
 2653TIP3    H2 7905   7.789   0.657   0.094
 2654TIP3   OH2 7906   6.974   6.176   0.052
 2654TIP3    H1 7907   6.962   6.166  -0.043
 2654TIP3    H2 7908   7.061   6.215   0.060
 2655TIP3   OH2 7909   7.775   1.471   3.878
 2655TIP3    H1 7910   7.844   1.405   3.881
 2655TIP3    H2 7911   7.769   1.495   3.785
 2656TIP3   OH2 7912   1.920   0.001   5.502
 2656TIP3    H1 7913   1.950   0.085   5.469
 2656TIP3    H2 7914   1.848  -0.023   5.444
 2657TIP3   OH2 7915   3.274   6.515   2.144
 2657TIP3    H1 7916   3.338   6.463   2.193
 2657TIP3    H2 7917   3.299   6.606   2.163
 2658TIP3   OH2 7918   0.089   7.132   3.904
 2658TIP3    H1 7919   0.051   7.173   3.981
 2658TIP3    H2 7920   0.036   7.164   3.831
 2659TIP3   OH2 7921   5.422   6.691   0.422
 2659TIP3    H1 7922   5.403   6.604   0.389
 2659TIP3    H2 7923   5.361   6.704   0.494
 2660TIP3   OH2 7924   7.732   7.011   3.023
 2660TIP3    H1 7925   7.736   7.105   3.004
 2660TIP3    H2 7926   7.771   6.970   2.946
 2661TIP3   OH2 7927   3.083   3.205   5.681
 2661TIP3    H1 7928   3.082   3.120   5.637
 2661TIP3    H2 7929   3.176   3.228   5.688
 2662TIP3   OH2 7930   3.723   3.421   4.912
 2662TIP3    H1 7931   3.803   3.374   4.886
 2662TIP3    H2 7932   3.664   3.352   4.942
 2663TIP3   OH2 7933   1.516   4.432   2.761
 2663TIP3    H1 7934   1.585   4.371   2.735
 2663TIP3    H2 7935   1.563   4.509   2.793
 2664TIP3   OH2 7936   8.250   0.323   5.883
 2664TIP3    H1 7937   8.170   0.275   5.905
 2664TIP3    H2 7938   8.248   0.330   5.787
 2665TIP3   OH2 7939   7.535   5.676   0.026
 2665TIP3    H1 7940   7.586   5.715   0.096
 2665TIP3    H2 7941   7.524   5.585   0.053
 2666TIP3   OH2 7942   4.794   2.840   2.415
 2666TIP3    H1 7943   4.730   2.897   2.372
 2666TIP3    H2 7944   4.771   2.844   2.508
 2667TIP3   OH2 7945   6.497   4.913   0.096
 2667TIP3    H1 7946   6.499   4.832   0.045
 2667TIP3    H2 7947   6.576   4.960   0.069
 2668TIP3   OH2 7948   4.895   2.032   3.902
 2668TIP3    H1 7949   4.813   2.068   3.936
 2668TIP3    H2 7950   4.905   2.072   3.816
 2669TIP3   OH2 7951   5.521   2.121   3.993
 2669TIP3    H1 7952   5.441   2.088   4.033
 2669TIP3    H2 7953   5.591   2.094   4.053
 2670TIP3   OH2 7954   0.460   1.249   1.306
 2670TIP3    H1 7955   0.441   1.243   1.213
 2670TIP3    H2 7956   0.547   1.288   1.311
 2671TIP3   OH2 7957   1.735   7.474   0.989
 2671TIP3    H1 7958   1.663   7.526   0.954
 2671TIP3    H2 7959   1.710   7.456   1.079
 2672TIP3   OH2 7960   6.939   1.825   1.756
 2672TIP3    H1 7961   6.942   1.920   1.749
 2672TIP3    H2 7962   6.849   1.806   1.783
 2673TIP3   OH2 7963   8.105   1.406   5.164
 2673TIP3    H1 7964   8.174   1.340   5.157
 2673TIP3    H2 7965   8.139   1.482   5.117
 2674TIP3   OH2 7966   0.835   7.712   1.772
 2674TIP3    H1 7967   0.875   7.708   1.859
 2674TIP3    H2 7968   0.771   7.784   1.779
 2675TIP3   OH2 7969   4.898   1.983   4.804
 2675TIP3    H1 7970   4.820   1.928   4.795
 2675TIP3    H2 7971   4.871   2.068   4.770
 2676TIP3   OH2 7972   4.591   7.736   0.909
 2676TIP3    H1 7973   4.576   7.678   0.983
 2676TIP3    H2 7974   4.521   7.714   0.847
 2677TIP3   OH2 7975   4.002   5.088   1.525
 2677TIP3    H1 7976   4.081   5.053   1.484
 2677TIP3    H2 7977   3.933   5.027   1.500
 2678TIP3   OH2 7978   5.100   3.448   0.872
 2678TIP3    H1 7979   5.066   3.531   0.838
 2678TIP3    H2 7980   5.102   3.459   0.967
 2679TIP3   OH2 7981   7.984   7.290   0.994
 2679TIP3    H1 7982   7.955   7.298   1.085
 2679TIP3    H2 7983   8.072   7.252   1.001
 2680TIP3   OH2 7984   0.628   5.347   0.017
 2680TIP3    H1 7985   0.564   5.404   0.060
 2680TIP3    H2 7986   0.587   5.324  -0.066
 2681TIP3   OH2 7987   5.469   5.376   0.226
 2681TIP3    H1 7988   5.422   5.459   0.216
 2681TIP3    H2 7989   5.410   5.311   0.188
 2682TIP3   OH2 7990   3.245   5.128   0.292
 2682TIP3    H1 7991   3.165   5.177   0.312
 2682TIP3    H2 7992   3.298   5.189   0.240
 2683TIP3   OH2 7993   5.647   4.632   5.401
 2683TIP3    H1 7994   5.670   4.556   5.347
 2683TIP3    H2 7995   5.689   4.615   5.485
 2684TIP3   OH2 7996   7.750   4.916   3.364
 2684TIP3    H1 7997   7.670   4.872   3.392
 2684TIP3    H2 7998   7.756   4.898   3.270
 2685TIP3   OH2 7999   6.219   3.754   3.784
 2685TIP3    H1 8000   6.159   3.758   3.858
 2685TIP3    H2 8001   6.199   3.831   3.731
 2686TIP3   OH2 8002   2.433   6.958   1.180
 2686TIP3    H1 8003   2.355   6.921   1.139
 2686TIP3    H2 8004   2.401   6.995   1.263
 2687TIP3   OH2 8005   1.152   4.264   4.242
 2687TIP3    H1 8006   1.186   4.183   4.282
 2687TIP3    H2 8007   1.078   4.234   4.188
 2688TIP3   OH2 8008   0.931   6.353   3.156
 2688TIP3    H1 8009   0.978   6.277   3.121
 2688TIP3    H2 8010   0.958   6.357   3.248
 2689TIP3   OH2 8011   1.762   4.900   4.633
 2689TIP3    H1 8012   1.814   4.962   4.684
 2689TIP3    H2 8013   1.709   4.955   4.575
 2690TIP3   OH2 8014   7.136   0.255   0.084
 2690TIP3    H1 8015   7.086   0.173   0.084
 2690TIP3    H2 8016   7.219   0.232   0.044
 2691TIP3   OH2 8017   5.963   1.565   3.874
 2691TIP3    H1 8018   5.915   1.579   3.792
 2691TIP3    H2 8019   5.976   1.653   3.910
 2692TIP3   OH2 8020   2.112   7.110   5.111
 2692TIP3    H1 8021   2.195   7.143   5.145
 2692TIP3    H2 8022   2.120   7.015   5.115
 2693TIP3   OH2 8023   0.908   7.243   5.026
 2693TIP3    H1 8024   0.944   7.158   5.051
 2693TIP3    H2 8025   0.841   7.223   4.961
 2694TIP3   OH2 8026   1.810   2.898   1.814
 2694TIP3    H1 8027   1.838   2.986   1.839
 2694TIP3    H2 8028   1.811   2.849   1.896
 2695TIP3   OH2 8029   5.785   0.925   6.046
 2695TIP3    H1 8030   5.785   0.883   6.132
 2695TIP3    H2 8031   5.730   0.869   5.992
 2696TIP3   OH2 8032   6.006   2.989   5.056
 2696TIP3    H1 8033   5.973   3.062   5.004
 2696TIP3    H2 8034   5.991   2.912   5.001
 2697TIP3   OH2 8035   3.642   7.233   2.266
 2697TIP3    H1 8036   3.643   7.327   2.286
 2697TIP3    H2 8037   3.701   7.224   2.191
 2698TIP3   OH2 8038   3.393   0.595   6.349
 2698TIP3    H1 8039   3.370   0.655   6.420
 2698TIP3    H2 8040   3.476   0.556   6.376
 2699TIP3   OH2 8041   1.293   4.315   5.703
 2699TIP3    H1 8042   1.326   4.266   5.627
 2699TIP3    H2 8043   1.235   4.382   5.666
 2700TIP3   OH2 8044   6.355   6.900   6.220
 2700TIP3    H1 8045   6.261   6.904   6.203
 2700TIP3    H2 8046   6.395   6.951   6.149
 2701TIP3   OH2 8047   3.107   2.487   6.587
 2701TIP3    H1 8048   3.152   2.570   6.573
 2701TIP3    H2 8049   3.176   2.421   6.581
 2702TIP3   OH2 8050   2.562   5.083   0.526
 2702TIP3    H1 8051   2.611   5.114   0.450
 2702TIP3    H2 8052   2.563   4.988   0.517
 2703TIP3   OH2 8053   1.738   2.503   2.806
 2703TIP3    H1 8054   1.644   2.507   2.819
 2703TIP3    H2 8055   1.772   2.587   2.837
 2704TIP3   OH2 8056   8.187   7.535   4.132
 2704TIP3    H1 8057   8.126   7.601   4.099
 2704TIP3    H2 8058   8.222   7.494   4.054
 2705TIP3   OH2 8059   8.234   5.871   5.467
 2705TIP3    H1 8060   8.189   5.800   5.421
 2705TIP3    H2 8061   8.210   5.858   5.559
 2706TIP3   OH2 8062   7.715   2.956   3.470
 2706TIP3    H1 8063   7.728   3.009   3.391
 2706TIP3    H2 8064   7.739   3.014   3.542
 2707TIP3   OH2 8065   6.023   2.622   6.585
 2707TIP3    H1 8066   6.102   2.576   6.614
 2707TIP3    H2 8067   5.952   2.581   6.633
 2708TIP3   OH2 8068   5.402   0.236   4.406
 2708TIP3    H1 8069   5.489   0.201   4.387
 2708TIP3    H2 8070   5.342   0.165   4.384
 2709TIP3   OH2 8071   7.794   3.780   3.374
 2709TIP3    H1 8072   7.740   3.830   3.313
 2709TIP3    H2 8073   7.733   3.744   3.437
 2710TIP3   OH2 8074   6.691   2.895   3.603
 2710TIP3    H1 8075   6.630   2.835   3.559
 2710TIP3    H2 8076   6.665   2.982   3.574
 2711TIP3   OH2 8077   0.485   6.840   1.983
 2711TIP3    H1 8078   0.451   6.924   1.953
 2711TIP3    H2 8079   0.415   6.803   2.036
 2712TIP3   OH2 8080   4.441   3.077   5.543
 2712TIP3    H1 8081   4.514   3.035   5.498
 2712TIP3    H2 8082   4.483   3.130   5.611
 2713TIP3   OH2 8083   5.915   4.744   2.701
 2713TIP3    H1 8084   5.954   4.662   2.730
 2713TIP3    H2 8085   5.988   4.807   2.701
 2714TIP3   OH2 8086   1.309   3.465   3.480
 2714TIP3    H1 8087   1.274   3.554   3.476
 2714TIP3    H2 8088   1.395   3.475   3.522
 2715TIP3   OH2 8089   4.529   7.048   5.699
 2715TIP3    H1 8090   4.600   7.010   5.751
 2715TIP3    H2 8091   4.555   7.033   5.608
 2716TIP3   OH2 8092   1.328   6.812   2.311
 2716TIP3    H1 8093   1.247   6.791   2.265
 2716TIP3    H2 8094   1.368   6.727   2.329
 2717TIP3   OH2 8095   7.348   2.968   6.366
 2717TIP3    H1 8096   7.288   2.986   6.438
 2717TIP3    H2 8097   7.392   3.052   6.349
 2718TIP3   OH2 8098   0.924   0.862   1.855
 2718TIP3    H1 8099   0.936   0.797   1.786
 2718TIP3    H2 8100   1.011   0.875   1.891
 2719TIP3   OH2 8101   2.783   2.392   2.926
 2719TIP3    H1 8102   2.717   2.460   2.937
 2719TIP3    H2 8103   2.814   2.374   3.015
 2720TIP3   OH2 8104   1.084   6.183   4.658
 2720TIP3    H1 8105   1.031   6.173   4.736
 2720TIP3    H2 8106   1.174   6.188   4.690
 2721TIP3   OH2 8107   0.977   6.692   4.341
 2721TIP3    H1 8108   0.957   6.620   4.281
 2721TIP3    H2 8109   1.056   6.732   4.306
 2722TIP3   OH2 8110   1.501   0.871   1.292
 2722TIP3    H1 8111   1.421   0.916   1.322
 2722TIP3    H2 8112   1.572   0.919   1.333
 2723TIP3   OH2 8113   7.853   3.627   0.317
 2723TIP3    H1 8114   7.870   3.534   0.302
 2723TIP3    H2 8115   7.875   3.669   0.235
 2724TIP3   OH2 8116   6.802   3.733   0.536
 2724TIP3    H1 8117   6.876   3.721   0.477
 2724TIP3    H2 8118   6.788   3.647   0.576
 2725TIP3   OH2 8119   1.066   7.049   3.834
 2725TIP3    H1 8120   1.099   7.061   3.924
 2725TIP3    H2 8121   1.143   7.061   3.779
 2726TIP3   OH2 8122   3.561   5.147   1.509
 2726TIP3    H1 8123   3.564   5.163   1.415
 2726TIP3    H2 8124   3.474   5.110   1.524
 2727TIP3   OH2 8125   1.703   5.339   5.825
 2727TIP3    H1 8126   1.745   5.371   5.746
 2727TIP3    H2 8127   1.723   5.245   5.827
 2728TIP3   OH2 8128   1.406   3.707   1.125
 2728TIP3    H1 8129   1.333   3.765   1.148
 2728TIP3    H2 8130   1.483   3.764   1.126
 2729TIP3   OH2 8131   3.565   2.154   6.585
 2729TIP3    H1 8132   3.573   2.107   6.501
 2729TIP3    H2 8133   3.538   2.086   6.647
 2730TIP3   OH2 8134   6.896   3.930   1.890
 2730TIP3    H1 8135   6.830   3.952   1.957
 2730TIP3    H2 8136   6.968   3.991   1.905
 2731TIP3   OH2 8137   1.407   3.670   0.340
 2731TIP3    H1 8138   1.419   3.688   0.433
 2731TIP3    H2 8139   1.313   3.654   0.330
 2732TIP3   OH2 8140   4.235   2.242   5.755
 2732TIP3    H1 8141   4.157   2.294   5.770
 2732TIP3    H2 8142   4.241   2.234   5.660
 2733TIP3   OH2 8143   2.331   6.789   3.631
 2733TIP3    H1 8144   2.260   6.740   3.672
 2733TIP3    H2 8145   2.318   6.776   3.537
 2734TIP3   OH2 8146   5.529   1.369   1.897
 2734TIP3    H1 8147   5.541   1.274   1.894
 2734TIP3    H2 8148   5.453   1.381   1.954
 2735TIP3   OH2 8149   4.651   1.134   1.187
 2735TIP3    H1 8150   4.582   1.112   1.249
 2735TIP3    H2 8151   4.717   1.065   1.199
 2736TIP3   OH2 8152   2.814   5.859   5.131
 2736TIP3    H1 8153   2.780   5.898   5.211
 2736TIP3    H2 8154   2.882   5.921   5.102
 2737TIP3   OH2 8155   4.241   4.297   6.708
 2737TIP3    H1 8156   4.185   4.357   6.659
 2737TIP3    H2 8157   4.326   4.303   6.665
 2738TIP3   OH2 8158   5.731   2.243   4.719
 2738TIP3    H1 8159   5.691   2.171   4.670
 2738TIP3    H2 8160   5.823   2.242   4.693
 2739TIP3   OH2 8161   1.724   6.619   4.633
 2739TIP3    H1 8162   1.784   6.572   4.575
 2739TIP3    H2 8163   1.742   6.712   4.616
 2740TIP3   OH2 8164   2.296   0.387   4.450
 2740TIP3    H1 8165   2.338   0.307   4.483
 2740TIP3    H2 8166   2.226   0.405   4.513
 2741TIP3   OH2 8167   1.151   6.576   5.410
 2741TIP3    H1 8168   1.162   6.534   5.324
 2741TIP3    H2 8169   1.183   6.512   5.473
 2742TIP3   OH2 8170   2.313   1.532   6.405
 2742TIP3    H1 8171   2.367   1.594   6.356
 2742TIP3    H2 8172   2.307   1.570   6.492
 2743TIP3   OH2 8173   0.088   4.291   4.358
 2743TIP3    H1 8174   0.136   4.309   4.277
 2743TIP3    H2 8175   0.143   4.228   4.405
 2744TIP3   OH2 8176   3.006   2.069   3.430
 2744TIP3    H1 8177   3.085   2.101   3.388
 2744TIP3    H2 8178   2.994   1.981   3.394
 2745TIP3   OH2 8179   3.800   0.396   3.415
 2745TIP3    H1 8180   3.728   0.333   3.424
 2745TIP3    H2 8181   3.803   0.442   3.499
 2746TIP3   OH2 8182   4.870   7.551   3.907
 2746TIP3    H1 8183   4.948   7.507   3.871
 2746TIP3    H2 8184   4.852   7.622   3.845
 2747TIP3   OH2 8185   1.964   6.434   6.403
 2747TIP3    H1 8186   1.909   6.455   6.479
 2747TIP3    H2 8187   1.963   6.513   6.350
 2748TIP3   OH2 8188   1.347   1.889   0.669
 2748TIP3    H1 8189   1.432   1.870   0.708
 2748TIP3    H2 8190   1.285   1.884   0.742
 2749TIP3   OH2 8191   0.849   5.627   2.308
 2749TIP3    H1 8192   0.803   5.691   2.255
 2749TIP3    H2 8193   0.801   5.624   2.390
 2750TIP3   OH2 8194   0.064   4.165   5.740
 2750TIP3    H1 8195   0.154   4.177   5.707
 2750TIP3    H2 8196   0.072   4.173   5.835
 2751TIP3   OH2 8197   0.330   0.946   1.271
 2751TIP3    H1 8198   0.407   0.978   1.318
 2751TIP3    H2 8199   0.366   0.893   1.200
 2752TIP3   OH2 8200   5.350   0.226   0.471
 2752TIP3    H1 8201   5.438   0.196   0.493
 2752TIP3    H2 8202   5.310   0.249   0.556
 2753TIP3   OH2 8203   1.773   2.475   3.356
 2753TIP3    H1 8204   1.715   2.547   3.334
 2753TIP3    H2 8205   1.860   2.515   3.365
 2754TIP3   OH2 8206   0.832   4.852   0.395
 2754TIP3    H1 8207   0.913   4.876   0.350
 2754TIP3    H2 8208   0.827   4.911   0.470
 2755TIP3   OH2 8209   5.410   6.451   5.912
 2755TIP3    H1 8210   5.323   6.411   5.916
 2755TIP3    H2 8211   5.396   6.542   5.937
 2756TIP3   OH2 8212   1.834   4.936   3.705
 2756TIP3    H1 8213   1.764   4.985   3.748
 2756TIP3    H2 8214   1.798   4.913   3.620
 2757TIP3   OH2 8215   1.324   7.287   0.471
 2757TIP3    H1 8216   1.330   7.351   0.542
 2757TIP3    H2 8217   1.400   7.307   0.415
 2758TIP3   OH2 8218   7.054   3.591   0.371
 2758TIP3    H1 8219   7.106   3.531   0.319
 2758TIP3    H2 8220   7.113   3.665   0.390
 2759TIP3   OH2 8221   2.440   4.087   6.187
 2759TIP3    H1 8222   2.522   4.132   6.167
 2759TIP3    H2 8223   2.461   3.994   6.176
 2760TIP3   OH2 8224   4.964   4.797   2.668
 2760TIP3    H1 8225   4.917   4.733   2.614
 2760TIP3    H2 8226   5.016   4.743   2.728
 2761TIP3   OH2 8227   3.333   5.699   4.043
 2761TIP3    H1 8228   3.335   5.630   3.976
 2761TIP3    H2 8229   3.377   5.660   4.119
 2762TIP3   OH2 8230   2.278   4.120   6.397
 2762TIP3    H1 8231   2.313   4.094   6.312
 2762TIP3    H2 8232   2.272   4.039   6.447
 2763TIP3   OH2 8233   6.022   2.552   0.837
 2763TIP3    H1 8234   5.979   2.624   0.789
 2763TIP3    H2 8235   6.095   2.594   0.882
 2764TIP3   OH2 8236   1.406   5.057   2.706
 2764TIP3    H1 8237   1.494   5.088   2.686
 2764TIP3    H2 8238   1.355   5.078   2.628
 2765TIP3   OH2 8239   7.928   2.215   5.473
 2765TIP3    H1 8240   8.010   2.241   5.515
 2765TIP3    H2 8241   7.866   2.283   5.499
 2766TIP3   OH2 8242   2.780   1.055   0.397
 2766TIP3    H1 8243   2.771   1.093   0.484
 2766TIP3    H2 8244   2.791   0.961   0.412
 2767TIP3   OH2 8245   4.897   2.574   1.512
 2767TIP3    H1 8246   4.857   2.503   1.462
 2767TIP3    H2 8247   4.823   2.628   1.539
 2768TIP3   OH2 8248   1.620   1.069   4.238
 2768TIP3    H1 8249   1.591   1.038   4.324
 2768TIP3    H2 8250   1.621   1.164   4.246
 2769TIP3   OH2 8251   0.748   7.568   4.325
 2769TIP3    H1 8252   0.823   7.567   4.266
 2769TIP3    H2 8253   0.786   7.589   4.411
 2770TIP3   OH2 8254   4.695   5.764   0.863
 2770TIP3    H1 8255   4.738   5.846   0.888
 2770TIP3    H2 8256   4.767   5.702   0.854
 2771TIP3   OH2 8257   4.762   0.405   6.384
 2771TIP3    H1 8258   4.673   0.391   6.352
 2771TIP3    H2 8259   4.751   0.443   6.471
 2772TIP3   OH2 8260   3.773   0.101   5.821
 2772TIP3    H1 8261   3.788   0.157   5.897
 2772TIP3    H2 8262   3.778   0.012   5.856
 2773TIP3   OH2 8263   5.619   5.336   5.355
 2773TIP3    H1 8264   5.626   5.427   5.386
 2773TIP3    H2 8265   5.558   5.295   5.416
 2774TIP3   OH2 8266   0.421   6.457   4.506
 2774TIP3    H1 8267   0.427   6.548   4.476
 2774TIP3    H2 8268   0.355   6.418   4.448
 2775TIP3   OH2 8269   4.734   6.675   1.391
 2775TIP3    H1 8270   4.826   6.665   1.366
 2775TIP3    H2 8271   4.700   6.586   1.394
 2776TIP3   OH2 8272   0.335   1.495   1.182
 2776TIP3    H1 8273   0.271   1.426   1.194
 2776TIP3    H2 8274   0.341   1.538   1.267
 2777TIP3   OH2 8275   3.458   4.869   6.544
 2777TIP3    H1 8276   3.489   4.945   6.592
 2777TIP3    H2 8277   3.413   4.905   6.468
 2778TIP3   OH2 8278   2.143   6.703   5.976
 2778TIP3    H1 8279   2.178   6.689   5.888
 2778TIP3    H2 8280   2.204   6.765   6.016
 2779TIP3   OH2 8281   0.205   5.923   2.011
 2779TIP3    H1 8282   0.113   5.944   1.994
 2779TIP3    H2 8283   0.254   5.990   1.963
 2780TIP3   OH2 8284   1.279   0.630   3.408
 2780TIP3    H1 8285   1.370   0.629   3.436
 2780TIP3    H2 8286   1.229   0.628   3.490
 2781TIP3   OH2 8287   3.897   1.722   5.257
 2781TIP3    H1 8288   3.893   1.800   5.203
 2781TIP3    H2 8289   3.806   1.695   5.267
 2782TIP3   OH2 8290   3.937   2.279   4.217
 2782TIP3    H1 8291   3.963   2.203   4.270
 2782TIP3    H2 8292   3.915   2.242   4.132
 2783TIP3   OH2 8293   2.313   7.046   0.883
 2783TIP3    H1 8294   2.288   7.139   0.882
 2783TIP3    H2 8295   2.407   7.047   0.903
 2784TIP3   OH2 8296   6.878   4.506   6.543
 2784TIP3    H1 8297   6.830   4.450   6.605
 2784TIP3    H2 8298   6.915   4.575   6.597
 2785TIP3   OH2 8299   2.783   7.815   2.566
 2785TIP3    H1 8300   2.829   7.899   2.565
 2785TIP3    H2 8301   2.751   7.806   2.656
 2786TIP3   OH2 8302   6.078   0.145   6.157
 2786TIP3    H1 8303   6.068   0.089   6.234
 2786TIP3    H2 8304   6.060   0.088   6.083
 2787TIP3   OH2 8305   6.827   4.715   3.275
 2787TIP3    H1 8306   6.845   4.670   3.192
 2787TIP3    H2 8307   6.742   4.682   3.302
 2788TIP3   OH2 8308   0.731   2.588   4.643
 2788TIP3    H1 8309   0.789   2.553   4.711
 2788TIP3    H2 8310   0.699   2.671   4.679
 2789TIP3   OH2 8311   2.400   4.483   6.216
 2789TIP3    H1 8312   2.451   4.517   6.290
 2789TIP3    H2 8313   2.448   4.514   6.139
 2790TIP3   OH2 8314   4.830   7.026   0.655
 2790TIP3    H1 8315   4.753   6.969   0.655
 2790TIP3    H2 8316   4.897   6.976   0.703
 2791TIP3   OH2 8317   3.709   2.394   4.284
 2791TIP3    H1 8318   3.794   2.351   4.278
 2791TIP3    H2 8319   3.646   2.322   4.287
 2792TIP3   OH2 8320   0.857   1.046   2.202
 2792TIP3    H1 8321   0.950   1.039   2.224
 2792TIP3    H2 8322   0.856   1.090   2.117
 2793TIP3   OH2 8323   5.417   1.708   5.407
 2793TIP3    H1 8324   5.401   1.779   5.470
 2793TIP3    H2 8325   5.364   1.732   5.331
 2794TIP3   OH2 8326   7.152   1.190   3.151
 2794TIP3    H1 8327   7.236   1.192   3.197
 2794TIP3    H2 8328   7.120   1.101   3.164
 2795TIP3   OH2 8329   5.381   4.775   1.767
 2795TIP3    H1 8330   5.374   4.707   1.834
 2795TIP3    H2 8331   5.433   4.844   1.809
 2796TIP3   OH2 8332   0.759   3.496   6.742
 2796TIP3    H1 8333   0.824   3.465   6.804
 2796TIP3    H2 8334   0.776   3.590   6.734
 2797TIP3   OH2 8335   1.908   4.787   4.119
 2797TIP3    H1 8336   1.885   4.847   4.190
 2797TIP3    H2 8337   2.003   4.776   4.126
 2798TIP3   OH2 8338   4.153   7.335   1.431
 2798TIP3    H1 8339   4.181   7.371   1.516
 2798TIP3    H2 8340   4.060   7.354   1.426
 2799TIP3   OH2 8341   1.055   7.408   6.496
 2799TIP3    H1 8342   1.057   7.468   6.571
 2799TIP3    H2 8343   1.074   7.463   6.420
 2800TIP3   OH2 8344   7.717   6.746   3.502
 2800TIP3    H1 8345   7.622   6.751   3.495
 2800TIP3    H2 8346   7.733   6.677   3.565
 2801TIP3   OH2 8347   3.942   4.368   0.533
 2801TIP3    H1 8348   3.962   4.274   0.531
 2801TIP3    H2 8349   3.895   4.384   0.452
 2802TIP3   OH2 8350   2.836   2.960   2.512
 2802TIP3    H1 8351   2.757   3.013   2.511
 2802TIP3    H2 8352   2.880   2.982   2.594
 2803TIP3   OH2 8353   6.634   7.378   4.215
 2803TIP3    H1 8354   6.692   7.335   4.278
 2803TIP3    H2 8355   6.571   7.310   4.192
 2804TIP3   OH2 8356   5.452   2.750   4.945
 2804TIP3    H1 8357   5.495   2.790   4.870
 2804TIP3    H2 8358   5.521   2.700   4.989
 2805TIP3   OH2 8359   5.974   0.479   6.755
 2805TIP3    H1 8360   5.939   0.398   6.718
 2805TIP3    H2 8361   6.057   0.452   6.796
 2806TIP3   OH2 8362   7.951   3.283   4.802
 2806TIP3    H1 8363   7.892   3.209   4.787
 2806TIP3    H2 8364   7.911   3.356   4.756
 2807TIP3   OH2 8365   1.337   3.488   5.610
 2807TIP3    H1 8366   1.375   3.453   5.529
 2807TIP3    H2 8367   1.269   3.424   5.634
 2808TIP3   OH2 8368   8.311   3.157   6.054
 2808TIP3    H1 8369   8.291   3.233   6.001
 2808TIP3    H2 8370   8.302   3.187   6.144
 2809TIP3   OH2 8371   6.298   6.208   2.432
 2809TIP3    H1 8372   6.354   6.238   2.504
 2809TIP3    H2 8373   6.356   6.159   2.375
 2810TIP3   OH2 8374   7.939   6.347   0.143
 2810TIP3    H1 8375   7.964   6.424   0.092
 2810TIP3    H2 8376   7.844   6.344   0.137
 2811TIP3   OH2 8377   4.633   1.374   3.250
 2811TIP3    H1 8378   4.623   1.371   3.155
 2811TIP3    H2 8379   4.558   1.326   3.284
 2812TIP3   OH2 8380   0.563   2.960   2.668
 2812TIP3    H1 8381   0.625   2.901   2.626
 2812TIP3    H2 8382   0.575   3.044   2.623
 2813TIP3   OH2 8383   5.640  -0.002   3.986
 2813TIP3    H1 8384   5.631   0.094   3.986
 2813TIP3    H2 8385   5.703  -0.020   4.055
 2814TIP3   OH2 8386   4.700   0.305   2.535
 2814TIP3    H1 8387   4.704   0.399   2.554
 2814TIP3    H2 8388   4.613   0.278   2.566
 2815TIP3   OH2 8389   3.280   0.774   6.513
 2815TIP3    H1 8390   3.346   0.842   6.523
 2815TIP3    H2 8391   3.262   0.744   6.602
 2816TIP3   OH2 8392   3.276   0.037   3.925
 2816TIP3    H1 8393   3.246   0.049   4.015
 2816TIP3    H2 8394   3.370   0.054   3.929
 2817TIP3   OH2 8395   2.633   7.113   6.256
 2817TIP3    H1 8396   2.675   7.196   6.235
 2817TIP3    H2 8397   2.557   7.109   6.198
 2818TIP3   OH2 8398   3.412   3.777   1.878
 2818TIP3    H1 8399   3.398   3.787   1.784
 2818TIP3    H2 8400   3.441   3.687   1.889
 2819TIP3   OH2 8401   7.126   6.104   1.981
 2819TIP3    H1 8402   7.214   6.094   1.945
 2819TIP3    H2 8403   7.072   6.129   1.906
 2820TIP3   OH2 8404   7.277   0.401   0.546
 2820TIP3    H1 8405   7.255   0.308   0.539
 2820TIP3    H2 8406   7.348   0.404   0.610
 2821TIP3   OH2 8407   1.033   1.431   0.551
 2821TIP3    H1 8408   1.076   1.511   0.581
 2821TIP3    H2 8409   1.021   1.444   0.457
 2822TIP3   OH2 8410   0.406   1.172   1.019
 2822TIP3    H1 8411   0.441   1.219   0.944
 2822TIP3    H2 8412   0.340   1.113   0.983
 2823TIP3   OH2 8413   5.674   2.106   6.497
 2823TIP3    H1 8414   5.654   2.040   6.431
 2823TIP3    H2 8415   5.591   2.153   6.510
 2824TIP3   OH2 8416   4.146   5.698   1.638
 2824TIP3    H1 8417   4.173   5.614   1.675
 2824TIP3    H2 8418   4.176   5.764   1.701
 2825TIP3   OH2 8419   7.926   6.137   5.519
 2825TIP3    H1 8420   7.893   6.051   5.491
 2825TIP3    H2 8421   7.997   6.117   5.580
 2826TIP3   OH2 8422   5.485   6.294   0.737
 2826TIP3    H1 8423   5.517   6.229   0.800
 2826TIP3    H2 8424   5.564   6.327   0.694
 2827TIP3   OH2 8425   0.655   7.281   5.524
 2827TIP3    H1 8426   0.666   7.209   5.585
 2827TIP3    H2 8427   0.720   7.265   5.456
 2828TIP3   OH2 8428   5.784   6.153   5.581
 2828TIP3    H1 8429   5.721   6.134   5.651
 2828TIP3    H2 8430   5.802   6.068   5.541
 2829TIP3   OH2 8431   3.686   2.407   5.530
 2829TIP3    H1 8432   3.666   2.324   5.573
 2829TIP3    H2 8433   3.782   2.413   5.531
 2830TIP3   OH2 8434   1.375   1.508   4.573
 2830TIP3    H1 8435   1.327   1.464   4.503
 2830TIP3    H2 8436   1.444   1.557   4.527
 2831TIP3   OH2 8437   5.310   2.804   4.156
 2831TIP3    H1 8438   5.299   2.725   4.209
 2831TIP3    H2 8439   5.222   2.824   4.124
 2832TIP3   OH2 8440   4.557   3.303   6.819
 2832TIP3    H1 8441   4.651   3.315   6.828
 2832TIP3    H2 8442   4.541   3.317   6.725
 2833TIP3   OH2 8443   4.411   2.055   1.886
 2833TIP3    H1 8444   4.491   2.081   1.842
 2833TIP3    H2 8445   4.356   2.018   1.817
 2834TIP3   OH2 8446   7.064   7.554   6.476
 2834TIP3    H1 8447   7.030   7.466   6.459
 2834TIP3    H2 8448   7.157   7.548   6.455
 2835TIP3   OH2 8449   1.906   2.888   6.290
 2835TIP3    H1 8450   1.891   2.805   6.334
 2835TIP3    H2 8451   1.907   2.953   6.360
 2836TIP3   OH2 8452   4.367   1.405   6.549
 2836TIP3    H1 8453   4.439   1.382   6.607
 2836TIP3    H2 8454   4.391   1.367   6.464
 2837TIP3   OH2 8455   1.407   2.062   2.580
 2837TIP3    H1 8456   1.337   2.102   2.632
 2837TIP3    H2 8457   1.485   2.114   2.599
 2838TIP3   OH2 8458   2.767   4.557   1.262
 2838TIP3    H1 8459   2.758   4.618   1.335
 2838TIP3    H2 8460   2.679   4.554   1.223
 2839TIP3   OH2 8461   7.468   6.730   2.482
 2839TIP3    H1 8462   7.539   6.779   2.441
 2839TIP3    H2 8463   7.500   6.710   2.570
 2840TIP3   OH2 8464   7.727   1.028   5.288
 2840TIP3    H1 8465   7.790   1.062   5.223
 2840TIP3    H2 8466   7.695   1.106   5.333
 2841TIP3   OH2 8467   3.167   0.717   4.759
 2841TIP3    H1 8468   3.195   0.643   4.705
 2841TIP3    H2 8469   3.100   0.681   4.816
 2842TIP3   OH2 8470   1.533   5.268   5.350
 2842TIP3    H1 8471   1.551   5.328   5.278
 2842TIP3    H2 8472   1.569   5.184   5.321
 2843TIP3   OH2 8473   2.342   5.580   1.749
 2843TIP3    H1 8474   2.420   5.539   1.710
 2843TIP3    H2 8475   2.278   5.509   1.752
 2844TIP3   OH2 8476   3.757   5.510   5.833
 2844TIP3    H1 8477   3.795   5.493   5.919
 2844TIP3    H2 8478   3.747   5.605   5.830
 2845TIP3   OH2 8479   6.005   1.513   0.176
 2845TIP3    H1 8480   6.041   1.493   0.090
 2845TIP3    H2 8481   6.016   1.432   0.226
 2846TIP3   OH2 8482   4.590   6.309   2.585
 2846TIP3    H1 8483   4.503   6.271   2.572
 2846TIP3    H2 8484   4.577   6.403   2.575
 2847TIP3   OH2 8485   6.270   5.210   4.985
 2847TIP3    H1 8486   6.246   5.299   4.957
 2847TIP3    H2 8487   6.339   5.223   5.050
 2848TIP3   OH2 8488   5.216   2.073   2.135
 2848TIP3    H1 8489   5.223   2.154   2.186
 2848TIP3    H2 8490   5.239   2.099   2.046
 2849TIP3   OH2 8491   3.542   1.710   6.302
 2849TIP3    H1 8492   3.557   1.635   6.244
 2849TIP3    H2 8493   3.613   1.704   6.367
 2850TIP3   OH2 8494   7.021   1.155   6.421
 2850TIP3    H1 8495   7.063   1.097   6.484
 2850TIP3    H2 8496   6.934   1.118   6.407
 2851TIP3   OH2 8497   5.651   4.190   4.938
 2851TIP3    H1 8498   5.632   4.110   4.890
 2851TIP3    H2 8499   5.746   4.200   4.933
 2852TIP3   OH2 8500   6.303   1.759   5.109
 2852TIP3    H1 8501   6.214   1.760   5.073
 2852TIP3    H2 8502   6.357   1.727   5.036
 2853TIP3   OH2 8503   4.001   4.879   3.145
 2853TIP3    H1 8504   4.035   4.934   3.216
 2853TIP3    H2 8505   3.906   4.895   3.146
 2854TIP3   OH2 8506   6.139   2.408   3.686
 2854TIP3    H1 8507   6.072   2.365   3.632
 2854TIP3    H2 8508   6.097   2.422   3.770
 2855TIP3   OH2 8509   6.657   7.018   1.002
 2855TIP3    H1 8510   6.631   6.932   0.969
 2855TIP3    H2 8511   6.666   7.072   0.923
 2856TIP3   OH2 8512   3.935   0.343   0.590
 2856TIP3    H1 8513   3.884   0.424   0.587
 2856TIP3    H2 8514   4.019   0.366   0.552
 2857TIP3   OH2 8515   1.876   3.510   3.069
 2857TIP3    H1 8516   1.807   3.576   3.071
 2857TIP3    H2 8517   1.957   3.559   3.058
 2858TIP3   OH2 8518   2.094   0.414   6.587
 2858TIP3    H1 8519   2.051   0.489   6.629
 2858TIP3    H2 8520   2.164   0.452   6.535
 2859TIP3   OH2 8521   2.284   3.258   4.080
 2859TIP3    H1 8522   2.201   3.305   4.067
 2859TIP3    H2 8523   2.350   3.319   4.048
 2860TIP3   OH2 8524   5.373   2.598   4.640
 2860TIP3    H1 8525   5.310   2.553   4.696
 2860TIP3    H2 8526   5.453   2.603   4.692
 2861TIP3   OH2 8527   1.842   0.426   4.771
 2861TIP3    H1 8528   1.921   0.389   4.732
 2861TIP3    H2 8529   1.872   0.463   4.854
 2862TIP3   OH2 8530   4.791   0.020   6.593
 2862TIP3    H1 8531   4.715   0.074   6.574
 2862TIP3    H2 8532   4.808  -0.028   6.512
 2863TIP3   OH2 8533   1.971   6.931   6.802
 2863TIP3    H1 8534   1.880   6.911   6.783
 2863TIP3    H2 8535   1.995   6.998   6.738
 2864TIP3   OH2 8536   2.356   3.319   5.428
 2864TIP3    H1 8537   2.314   3.318   5.515
 2864TIP3    H2 8538   2.313   3.389   5.381
 2865TIP3   OH2 8539   6.851   2.005   2.218
 2865TIP3    H1 8540   6.899   1.930   2.182
 2865TIP3    H2 8541   6.769   2.007   2.169
 2866TIP3   OH2 8542   6.609   5.248   0.823
 2866TIP3    H1 8543   6.563   5.274   0.743
 2866TIP3    H2 8544   6.601   5.323   0.882
 2867TIP3   OH2 8545   4.649   4.913   3.984
 2867TIP3    H1 8546   4.642   4.999   3.943
 2867TIP3    H2 8547   4.716   4.868   3.934
 2868TIP3   OH2 8548   7.774   6.059   2.519
 2868TIP3    H1 8549   7.752   6.076   2.610
 2868TIP3    H2 8550   7.851   6.002   2.523
 2869TIP3   OH2 8551   5.403   6.396   2.100
 2869TIP3    H1 8552   5.410   6.312   2.145
 2869TIP3    H2 8553   5.494   6.425   2.089
 2870TIP3   OH2 8554   2.463   2.545   3.508
 2870TIP3    H1 8555   2.508   2.596   3.575
 2870TIP3    H2 8556   2.424   2.472   3.556
 2871TIP3   OH2 8557   2.366   4.838   1.095
 2871TIP3    H1 8558   2.453   4.819   1.130
 2871TIP3    H2 8559   2.328   4.753   1.076
 2872TIP3   OH2 8560   0.212   1.073   0.851
 2872TIP3    H1 8561   0.168   0.994   0.882
 2872TIP3    H2 8562   0.233   1.054   0.759
 2873TIP3   OH2 8563   7.071   7.707   0.484
 2873TIP3    H1 8564   6.983   7.712   0.522
 2873TIP3    H2 8565   7.103   7.621   0.511
 2874TIP3   OH2 8566   1.618   6.984   5.656
 2874TIP3    H1 8567   1.708   6.953   5.648
 2874TIP3    H2 8568   1.564   6.906   5.644
 2875TIP3   OH2 8569   5.121   6.070   2.983
 2875TIP3    H1 8570   5.097   6.091   3.073
 2875TIP3    H2 8571   5.070   6.131   2.930
 2876TIP3   OH2 8572   7.587   5.313   0.500
 2876TIP3    H1 8573   7.553   5.254   0.567
 2876TIP3    H2 8574   7.606   5.394   0.547
 2877TIP3   OH2 8575   3.851   4.145   5.103
 2877TIP3    H1 8576   3.843   4.064   5.153
 2877TIP3    H2 8577   3.928   4.189   5.139
 2878TIP3   OH2 8578   0.737   1.160   5.590
 2878TIP3    H1 8579   0.740   1.224   5.661
 2878TIP3    H2 8580   0.652   1.117   5.600
 2879TIP3   OH2 8581   1.558   3.492   1.292
 2879TIP3    H1 8582   1.572   3.399   1.275
 2879TIP3    H2 8583   1.468   3.509   1.265
 2880TIP3   OH2 8584   1.540   0.929   3.203
 2880TIP3    H1 8585   1.606   0.978   3.253
 2880TIP3    H2 8586   1.585   0.905   3.122
 2881TIP3   OH2 8587   6.677   2.388   1.747
 2881TIP3    H1 8588   6.773   2.390   1.738
 2881TIP3    H2 8589   6.662   2.336   1.827
 2882TIP3   OH2 8590   0.879   5.066   3.399
 2882TIP3    H1 8591   0.899   5.050   3.491
 2882TIP3    H2 8592   0.785   5.083   3.398
 2883TIP3   OH2 8593   6.523   0.925   3.669
 2883TIP3    H1 8594   6.442   0.881   3.695
 2883TIP3    H2 8595   6.546   0.979   3.745
 2884TIP3   OH2 8596   3.267   4.776   2.795
 2884TIP3    H1 8597   3.219   4.696   2.817
 2884TIP3    H2 8598   3.256   4.784   2.700
 2885TIP3   OH2 8599   2.188   2.229   5.913
 2885TIP3    H1 8600   2.150   2.310   5.880
 2885TIP3    H2 8601   2.113   2.176   5.938
 2886TIP3   OH2 8602   2.595   4.203   3.476
 2886TIP3    H1 8603   2.645   4.137   3.428
 2886TIP3    H2 8604   2.574   4.161   3.559
 2887TIP3   OH2 8605   8.264   1.572   0.459
 2887TIP3    H1 8606   8.333   1.509   0.440
 2887TIP3    H2 8607   8.183   1.523   0.444
 2888TIP3   OH2 8608   0.757   0.408   3.436
 2888TIP3    H1 8609   0.851   0.390   3.424
 2888TIP3    H2 8610   0.752   0.453   3.520
 2889TIP3   OH2 8611   2.132   2.212   1.292
 2889TIP3    H1 8612   2.131   2.126   1.333
 2889TIP3    H2 8613   2.091   2.270   1.356
 2890TIP3   OH2 8614   0.216   4.059   1.023
 2890TIP3    H1 8615   0.256   4.108   0.950
 2890TIP3    H2 8616   0.236   4.111   1.100
 2891TIP3   OH2 8617   7.215   6.326   0.951
 2891TIP3    H1 8618   7.254   6.370   1.026
 2891TIP3    H2 8619   7.169   6.250   0.989
 2892TIP3   OH2 8620   3.671   2.217   1.176
 2892TIP3    H1 8621   3.707   2.162   1.246
 2892TIP3    H2 8622   3.596   2.167   1.143
 2893TIP3   OH2 8623   2.474   3.846   3.334
 2893TIP3    H1 8624   2.512   3.910   3.273
 2893TIP3    H2 8625   2.453   3.771   3.280
 2894TIP3   OH2 8626   4.130   4.907   1.091
 2894TIP3    H1 8627   4.115   4.849   1.166
 2894TIP3    H2 8628   4.045   4.913   1.048
 2895TIP3   OH2 8629   5.260   2.616   1.012
 2895TIP3    H1 8630   5.300   2.554   1.073
 2895TIP3    H2 8631   5.211   2.677   1.067
 2896TIP3   OH2 8632   2.443   0.524   4.964
 2896TIP3    H1 8633   2.364   0.525   4.910
 2896TIP3    H2 8634   2.486   0.441   4.941
 2897TIP3   OH2 8635   1.254   0.601   5.481
 2897TIP3    H1 8636   1.232   0.646   5.563
 2897TIP3    H2 8637   1.182   0.539   5.468
 2898TIP3   OH2 8638   5.471   2.004   1.431
 2898TIP3    H1 8639   5.480   1.937   1.498
 2898TIP3    H2 8640   5.388   2.047   1.450
 2899TIP3   OH2 8641   1.630   0.515   1.714
 2899TIP3    H1 8642   1.663   0.432   1.679
 2899TIP3    H2 8643   1.625   0.501   1.809
 2900TIP3   OH2 8644   4.750   7.630   4.934
 2900TIP3    H1 8645   4.820   7.579   4.975
 2900TIP3    H2 8646   4.672   7.577   4.946
 2901TIP3   OH2 8647   6.089   0.466   0.235
 2901TIP3    H1 8648   6.124   0.495   0.151
 2901TIP3    H2 8649   6.152   0.401   0.266
 2902TIP3   OH2 8650   3.639   7.320   1.667
 2902TIP3    H1 8651   3.698   7.395   1.658
 2902TIP3    H2 8652   3.668   7.258   1.600
 2903TIP3   OH2 8653   1.639   1.729   0.236
 2903TIP3    H1 8654   1.566   1.670   0.219
 2903TIP3    H2 8655   1.640   1.740   0.332
 2904TIP3   OH2 8656   3.587   1.555   2.970
 2904TIP3    H1 8657   3.667   1.503   2.981
 2904TIP3    H2 8658   3.552   1.527   2.886
 2905TIP3   OH2 8659   0.402   3.286   4.127
 2905TIP3    H1 8660   0.398   3.195   4.099
 2905TIP3    H2 8661   0.323   3.326   4.091
 2906TIP3   OH2 8662   5.516   5.855   0.822
 2906TIP3    H1 8663   5.570   5.837   0.899
 2906TIP3    H2 8664   5.475   5.771   0.801
 2907TIP3   OH2 8665   0.015   5.084   2.357
 2907TIP3    H1 8666  -0.065   5.109   2.311
 2907TIP3    H2 8667   0.076   5.156   2.342
 2908TIP3   OH2 8668   5.232   5.188   1.871
 2908TIP3    H1 8669   5.225   5.204   1.965
 2908TIP3    H2 8670   5.168   5.119   1.854
 2909TIP3   OH2 8671   2.594   1.700   6.568
 2909TIP3    H1 8672   2.520   1.682   6.626
 2909TIP3    H2 8673   2.623   1.614   6.538
 2910TIP3   OH2 8674   3.632   4.657   6.622
 2910TIP3    H1 8675   3.589   4.655   6.708
 2910TIP3    H2 8676   3.594   4.733   6.578
 2911TIP3   OH2 8677   6.880   3.620   2.475
 2911TIP3    H1 8678   6.869   3.526   2.469
 2911TIP3    H2 8679   6.943   3.633   2.546
 2912TIP3   OH2 8680   2.200   7.300   5.721
 2912TIP3    H1 8681   2.118   7.344   5.745
 2912TIP3    H2 8682   2.197   7.295   5.626
 2913TIP3   OH2 8683   1.339   6.919   2.563
 2913TIP3    H1 8684   1.375   6.846   2.614
 2913TIP3    H2 8685   1.373   6.906   2.475
 2914TIP3   OH2 8686   3.081   0.691   1.962
 2914TIP3    H1 8687   3.169   0.680   2.000
 2914TIP3    H2 8688   3.045   0.768   2.007
 2915TIP3   OH2 8689   0.450   3.672   2.373
 2915TIP3    H1 8690   0.499   3.745   2.412
 2915TIP3    H2 8691   0.505   3.595   2.391
 2916TIP3   OH2 8692   8.100   5.750   1.008
 2916TIP3    H1 8693   8.084   5.698   1.087
 2916TIP3    H2 8694   8.185   5.720   0.976
 2917TIP3   OH2 8695   5.378   4.687   5.386
 2917TIP3    H1 8696   5.372   4.760   5.448
 2917TIP3    H2 8697   5.466   4.653   5.397
 2918TIP3   OH2 8698   2.175   3.859   6.199
 2918TIP3    H1 8699   2.185   3.798   6.126
 2918TIP3    H2 8700   2.215   3.814   6.274
 2919TIP3   OH2 8701   1.476   1.515   6.509
 2919TIP3    H1 8702   1.554   1.476   6.548
 2919TIP3    H2 8703   1.434   1.443   6.462
 2920TIP3   OH2 8704   7.706   2.469   2.000
 2920TIP3    H1 8705   7.725   2.485   1.908
 2920TIP3    H2 8706   7.636   2.404   1.999
 2921TIP3   OH2 8707   2.669   3.113   4.568
 2921TIP3    H1 8708   2.614   3.173   4.517
 2921TIP3    H2 8709   2.657   3.141   4.658
 2922TIP3   OH2 8710   2.035   6.811   0.478
 2922TIP3    H1 8711   2.090   6.842   0.550
 2922TIP3    H2 8712   1.960   6.771   0.522
 2923TIP3   OH2 8713   2.696   4.154   0.041
 2923TIP3    H1 8714   2.790   4.158   0.020
 2923TIP3    H2 8715   2.674   4.061   0.033
 2924TIP3   OH2 8716   5.983   1.235   0.222
 2924TIP3    H1 8717   6.068   1.193   0.204
 2924TIP3    H2 8718   5.942   1.179   0.287
 2925TIP3   OH2 8719   3.303   4.987   5.968
 2925TIP3    H1 8720   3.360   5.062   5.952
 2925TIP3    H2 8721   3.218   5.014   5.934
 2926TIP3   OH2 8722   7.962   7.776   3.782
 2926TIP3    H1 8723   8.004   7.744   3.702
 2926TIP3    H2 8724   7.868   7.771   3.764
 2927TIP3   OH2 8725   5.488   0.303   3.534
 2927TIP3    H1 8726   5.484   0.326   3.626
 2927TIP3    H2 8727   5.520   0.212   3.533
 2928TIP3   OH2 8728   3.536   6.287   3.417
 2928TIP3    H1 8729   3.593   6.211   3.424
 2928TIP3    H2 8730   3.463   6.257   3.363
 2929TIP3   OH2 8731   1.321   2.045   3.379
 2929TIP3    H1 8732   1.325   2.078   3.289
 2929TIP3    H2 8733   1.229   2.025   3.392
 2930TIP3   OH2 8734   7.506   5.272   6.692
 2930TIP3    H1 8735   7.514   5.269   6.787
 2930TIP3    H2 8736   7.562   5.345   6.665
 2931TIP3   OH2 8737   8.063   3.499   1.828
 2931TIP3    H1 8738   7.979   3.467   1.797
 2931TIP3    H2 8739   8.127   3.438   1.792
 2932TIP3   OH2 8740   7.974   1.504   1.384
 2932TIP3    H1 8741   7.961   1.510   1.289
 2932TIP3    H2 8742   8.069   1.511   1.395
 2933TIP3   OH2 8743   0.322   3.534   1.391
 2933TIP3    H1 8744   0.290   3.617   1.355
 2933TIP3    H2 8745   0.339   3.554   1.483
 2934TIP3   OH2 8746   6.498   3.656   2.809
 2934TIP3    H1 8747   6.405   3.666   2.826
 2934TIP3    H2 8748   6.531   3.746   2.798
 2935TIP3   OH2 8749   0.421   7.325   6.337
 2935TIP3    H1 8750   0.471   7.357   6.412
 2935TIP3    H2 8751   0.475   7.346   6.261
 2936TIP3   OH2 8752   0.025   0.466   4.605
 2936TIP3    H1 8753   0.074   0.406   4.549
 2936TIP3    H2 8754   0.046   0.553   4.572
 2937TIP3   OH2 8755   0.049   6.746   4.997
 2937TIP3    H1 8756   0.066   6.721   4.907
 2937TIP3    H2 8757   0.023   6.838   4.992
 2938TIP3   OH2 8758   1.706   3.266   3.733
 2938TIP3    H1 8759   1.699   3.178   3.696
 2938TIP3    H2 8760   1.796   3.271   3.766
 2939TIP3   OH2 8761   1.300   3.410   6.061
 2939TIP3    H1 8762   1.247   3.332   6.052
 2939TIP3    H2 8763   1.363   3.405   5.988
 2940TIP3   OH2 8764   3.400   5.336   0.148
 2940TIP3    H1 8765   3.479   5.302   0.189
 2940TIP3    H2 8766   3.386   5.279   0.072
 2941TIP3   OH2 8767   0.456   4.489   2.233
 2941TIP3    H1 8768   0.431   4.488   2.325
 2941TIP3    H2 8769   0.476   4.397   2.213
 2942TIP3   OH2 8770   6.278   5.145   2.506
 2942TIP3    H1 8771   6.308   5.088   2.435
 2942TIP3    H2 8772   6.196   5.104   2.536
 2943TIP3   OH2 8773   4.007   5.812   0.129
 2943TIP3    H1 8774   3.983   5.899   0.161
 2943TIP3    H2 8775   4.102   5.814   0.124
 2944TIP3   OH2 8776   1.767   4.733   5.720
 2944TIP3    H1 8777   1.845   4.693   5.758
 2944TIP3    H2 8778   1.707   4.659   5.707
 2945TIP3   OH2 8779   7.646   6.712   6.724
 2945TIP3    H1 8780   7.614   6.699   6.813
 2945TIP3    H2 8781   7.705   6.787   6.729
 2946TIP3   OH2 8782   2.817   1.934   4.768
 2946TIP3    H1 8783   2.837   1.870   4.837
 2946TIP3    H2 8784   2.900   1.944   4.721
 2947TIP3   OH2 8785   8.285   4.460   3.726
 2947TIP3    H1 8786   8.199   4.484   3.693
 2947TIP3    H2 8787   8.345   4.521   3.684
 2948TIP3   OH2 8788   4.656   3.945   2.388
 2948TIP3    H1 8789   4.625   4.034   2.371
 2948TIP3    H2 8790   4.583   3.889   2.363
 2949TIP3   OH2 8791   4.664   5.280   2.125
 2949TIP3    H1 8792   4.700   5.360   2.164
 2949TIP3    H2 8793   4.605   5.245   2.192
 2950TIP3   OH2 8794   2.836   5.336   3.717
 2950TIP3    H1 8795   2.893   5.330   3.640
 2950TIP3    H2 8796   2.835   5.248   3.753
 2951TIP3   OH2 8797   2.038   0.913   6.612
 2951TIP3    H1 8798   1.989   0.982   6.655
 2951TIP3    H2 8799   2.008   0.915   6.521
 2952TIP3   OH2 8800   3.586   7.476   5.353
 2952TIP3    H1 8801   3.625   7.562   5.366
 2952TIP3    H2 8802   3.571   7.443   5.442
 2953TIP3   OH2 8803   2.598   5.810   4.140
 2953TIP3    H1 8804   2.541   5.879   4.174
 2953TIP3    H2 8805   2.679   5.820   4.191
 2954TIP3   OH2 8806   3.106   1.525   4.214
 2954TIP3    H1 8807   3.198   1.538   4.235
 2954TIP3    H2 8808   3.103   1.528   4.118
 2955TIP3   OH2 8809   5.854   1.715   0.585
 2955TIP3    H1 8810   5.846   1.620   0.574
 2955TIP3    H2 8811   5.840   1.751   0.498
 2956TIP3   OH2 8812   0.352   1.087   2.859
 2956TIP3    H1 8813   0.305   1.157   2.813
 2956TIP3    H2 8814   0.312   1.006   2.828
 2957TIP3   OH2 8815   3.169   7.736   6.249
 2957TIP3    H1 8816   3.121   7.784   6.316
 2957TIP3    H2 8817   3.105   7.676   6.212
 2958TIP3   OH2 8818   0.318   3.220   1.393
 2958TIP3    H1 8819   0.240   3.184   1.351
 2958TIP3    H2 8820   0.311   3.314   1.379
 2959TIP3   OH2 8821   2.563   7.368   4.219
 2959TIP3    H1 8822   2.606   7.342   4.138
 2959TIP3    H2 8823   2.527   7.455   4.201
 2960TIP3   OH2 8824   6.001   4.700   0.506
 2960TIP3    H1 8825   6.091   4.706   0.539
 2960TIP3    H2 8826   5.948   4.743   0.574
 2961TIP3   OH2 8827   1.492   6.303   2.568
 2961TIP3    H1 8828   1.404   6.326   2.539
 2961TIP3    H2 8829   1.486   6.299   2.663
 2962TIP3   OH2 8830   7.208   2.886   1.707
 2962TIP3    H1 8831   7.265   2.829   1.758
 2962TIP3    H2 8832   7.163   2.940   1.773
 2963TIP3   OH2 8833   6.347   3.151   3.183
 2963TIP3    H1 8834   6.285   3.217   3.152
 2963TIP3    H2 8835   6.417   3.151   3.118
 2964TIP3   OH2 8836   4.318   6.615   3.200
 2964TIP3    H1 8837   4.225   6.600   3.186
 2964TIP3    H2 8838   4.356   6.610   3.112
 2965TIP3   OH2 8839   0.644   6.054   5.996
 2965TIP3    H1 8840   0.687   6.074   6.079
 2965TIP3    H2 8841   0.591   5.976   6.014
 2966TIP3   OH2 8842   1.189   1.303   5.911
 2966TIP3    H1 8843   1.264   1.341   5.865
 2966TIP3    H2 8844   1.161   1.372   5.971
 2967TIP3   OH2 8845   0.807   7.088   2.327
 2967TIP3    H1 8846   0.881   7.035   2.359
 2967TIP3    H2 8847   0.730   7.046   2.364
 2968TIP3   OH2 8848   3.010   2.694   1.196
 2968TIP3    H1 8849   3.095   2.656   1.176
 2968TIP3    H2 8850   3.027   2.760   1.263
 2969TIP3   OH2 8851   0.193   1.564   0.238
 2969TIP3    H1 8852   0.135   1.640   0.236
 2969TIP3    H2 8853   0.260   1.584   0.172
 2970TIP3   OH2 8854   1.770   1.057   0.016
 2970TIP3    H1 8855   1.797   1.001   0.088
 2970TIP3    H2 8856   1.847   1.064  -0.040
 2971TIP3   OH2 8857   1.336   7.399   1.802
 2971TIP3    H1 8858   1.356   7.454   1.877
 2971TIP3    H2 8859   1.249   7.428   1.773
 2972TIP3   OH2 8860   7.195   3.775   3.061
 2972TIP3    H1 8861   7.106   3.809   3.052
 2972TIP3    H2 8862   7.251   3.852   3.058
 2973TIP3   OH2 8863   6.520   3.953   1.720
 2973TIP3    H1 8864   6.450   3.932   1.782
 2973TIP3    H2 8865   6.572   3.872   1.714
 2974TIP3   OH2 8866   6.491   1.450   0.986
 2974TIP3    H1 8867   6.513   1.543   0.994
 2974TIP3    H2 8868   6.574   1.408   0.963
 2975TIP3   OH2 8869   8.261   7.517   1.847
 2975TIP3    H1 8870   8.335   7.566   1.811
 2975TIP3    H2 8871   8.225   7.469   1.772
 2976TIP3   OH2 8872   4.199   5.516   5.689
 2976TIP3    H1 8873   4.155   5.599   5.711
 2976TIP3    H2 8874   4.290   5.530   5.713
 2977TIP3   OH2 8875   2.145   0.035   3.743
 2977TIP3    H1 8876   2.081   0.098   3.777
 2977TIP3    H2 8877   2.131   0.037   3.648
 2978TIP3   OH2 8878   1.239   0.519   4.214
 2978TIP3    H1 8879   1.207   0.597   4.169
 2978TIP3    H2 8880   1.227   0.538   4.307
 2979TIP3   OH2 8881   5.247   5.714   0.986
 2979TIP3    H1 8882   5.179   5.744   1.046
 2979TIP3    H2 8883   5.328   5.721   1.036
 2980TIP3   OH2 8884   6.988   4.011   3.528
 2980TIP3    H1 8885   7.035   3.966   3.598
 2980TIP3    H2 8886   6.974   3.943   3.462
 2981TIP3   OH2 8887   0.418   2.692   5.954
 2981TIP3    H1 8888   0.502   2.645   5.945
 2981TIP3    H2 8889   0.416   2.752   5.879
 2982TIP3   OH2 8890   4.799   0.544   1.684
 2982TIP3    H1 8891   4.714   0.529   1.643
 2982TIP3    H2 8892   4.808   0.472   1.747
 2983TIP3   OH2 8893   5.517   3.817   4.365
 2983TIP3    H1 8894   5.463   3.743   4.337
 2983TIP3    H2 8895   5.543   3.795   4.455
 2984TIP3   OH2 8896   0.317   6.867   5.608
 2984TIP3    H1 8897   0.249   6.863   5.542
 2984TIP3    H2 8898   0.278   6.826   5.686
 2985TIP3   OH2 8899   7.349   2.292   4.040
 2985TIP3    H1 8900   7.282   2.309   3.974
 2985TIP3    H2 8901   7.307   2.233   4.102
 2986TIP3   OH2 8902   7.854   5.086   5.349
 2986TIP3    H1 8903   7.839   5.026   5.276
 2986TIP3    H2 8904   7.876   5.169   5.308
 2987TIP3   OH2 8905   3.360   3.597   4.959
 2987TIP3    H1 8906   3.290   3.654   4.992
 2987TIP3    H2 8907   3.440   3.636   4.992
 2988TIP3   OH2 8908   2.053   6.394   6.743
 2988TIP3    H1 8909   2.061   6.308   6.783
 2988TIP3    H2 8910   2.096   6.385   6.657
 2989TIP3   OH2 8911   5.350   5.575   1.388
 2989TIP3    H1 8912   5.269   5.581   1.339
 2989TIP3    H2 8913   5.330   5.612   1.474
 2990TIP3   OH2 8914   4.538   1.810   0.893
 2990TIP3    H1 8915   4.497   1.726   0.911
 2990TIP3    H2 8916   4.498   1.840   0.812
 2991TIP3   OH2 8917   0.631   0.698   5.174
 2991TIP3    H1 8918   0.572   0.628   5.145
 2991TIP3    H2 8919   0.645   0.752   5.097
 2992TIP3   OH2 8920   1.086   3.842   1.922
 2992TIP3    H1 8921   1.067   3.768   1.979
 2992TIP3    H2 8922   1.009   3.899   1.929
 2993TIP3   OH2 8923   5.045   1.529   0.567
 2993TIP3    H1 8924   5.029   1.531   0.661
 2993TIP3    H2 8925   5.140   1.542   0.559
 2994TIP3   OH2 8926   6.735   7.640   1.052
 2994TIP3    H1 8927   6.729   7.713   0.992
 2994TIP3    H2 8928   6.647   7.632   1.090
 2995TIP3   OH2 8929   0.694   2.539   2.728
 2995TIP3    H1 8930   0.673   2.458   2.774
 2995TIP3    H2 8931   0.610   2.572   2.696
 2996TIP3   OH2 8932   5.905   5.377   4.341
 2996TIP3    H1 8933   5.893   5.460   4.296
 2996TIP3    H2 8934   5.818   5.337   4.341
 2997TIP3   OH2 8935   4.140   1.261   5.873
 2997TIP3    H1 8936   4.077   1.253   5.944
 2997TIP3    H2 8937   4.120   1.345   5.832
 2998TIP3   OH2 8938   0.580   1.766   3.732
 2998TIP3    H1 8939   0.531   1.830   3.680
 2998TIP3    H2 8940   0.645   1.732   3.671
 2999TIP3   OH2 8941   7.511   6.676   3.907
 2999TIP3    H1 8942   7.424   6.645   3.880
 2999TIP3    H2 8943   7.512   6.665   4.002
 3000TIP3   OH2 8944   0.947   3.412   1.504
 3000TIP3    H1 8945   0.877   3.350   1.525
 3000TIP3    H2 8946   0.997   3.370   1.435
 3001TIP3   OH2 8947   2.141   5.359   3.914
 3001TIP3    H1 8948   2.148   5.337   3.821
 3001TIP3    H2 8949   2.109   5.449   3.916
 3002TIP3   OH2 8950   7.925   2.496   5.708
 3002TIP3    H1 8951   7.864   2.569   5.713
 3002TIP3    H2 8952   7.964   2.491   5.795
 3003TIP3   OH2 8953   6.436   7.600   2.535
 3003TIP3    H1 8954   6.440   7.681   2.586
 3003TIP3    H2 8955   6.363   7.551   2.574
 3004TIP3   OH2 8956   2.411   4.712   6.669
 3004TIP3    H1 8957   2.470   4.771   6.622
 3004TIP3    H2 8958   2.455   4.628   6.667
 3005TIP3   OH2 8959   3.769   0.904   0.807
 3005TIP3    H1 8960   3.681   0.877   0.778
 3005TIP3    H2 8961   3.793   0.975   0.748
 3006TIP3   OH2 8962   5.009   6.863   4.052
 3006TIP3    H1 8963   5.104   6.865   4.062
 3006TIP3    H2 8964   4.995   6.850   3.959
 3007TIP3   OH2 8965   5.536   7.461   1.968
 3007TIP3    H1 8966   5.495   7.379   1.993
 3007TIP3    H2 8967   5.535   7.460   1.872
 3008TIP3   OH2 8968   2.499   2.751   2.556
 3008TIP3    H1 8969   2.440   2.820   2.584
 3008TIP3    H2 8970   2.489   2.747   2.461
 3009TIP3   OH2 8971   5.107   5.842   6.295
 3009TIP3    H1 8972   5.148   5.777   6.352
 3009TIP3    H2 8973   5.052   5.791   6.236
 3010TIP3   OH2 8974   7.207   2.427   4.322
 3010TIP3    H1 8975   7.298   2.456   4.312
 3010TIP3    H2 8976   7.204   2.343   4.276
 3011TIP3   OH2 8977   1.163   2.093   4.276
 3011TIP3    H1 8978   1.081   2.072   4.320
 3011TIP3    H2 8979   1.223   2.116   4.346
 3012TIP3   OH2 8980   6.257   5.988   4.513
 3012TIP3    H1 8981   6.301   5.919   4.562
 3012TIP3    H2 8982   6.239   6.056   4.578
 3013TIP3   OH2 8983   2.118   3.386   1.313
 3013TIP3    H1 8984   2.112   3.481   1.321
 3013TIP3    H2 8985   2.198   3.363   1.362
 3014TIP3   OH2 8986   6.289   7.672   3.764
 3014TIP3    H1 8987   6.200   7.653   3.793
 3014TIP3    H2 8988   6.342   7.600   3.798
 3015TIP3   OH2 8989   4.788   2.967   2.665
 3015TIP3    H1 8990   4.810   2.935   2.752
 3015TIP3    H2 8991   4.701   3.005   2.675
 3016TIP3   OH2 8992   0.734   5.654   0.118
 3016TIP3    H1 8993   0.770   5.739   0.092
 3016TIP3    H2 8994   0.772   5.638   0.204
 3017TIP3   OH2 8995   2.170   4.644   4.654
 3017TIP3    H1 8996   2.169   4.561   4.608
 3017TIP3    H2 8997   2.081   4.678   4.646
 3018TIP3   OH2 8998   5.653   3.160   1.676
 3018TIP3    H1 8999   5.559   3.161   1.662
 3018TIP3    H2 9000   5.674   3.067   1.690
 3019TIP3   OH2 9001   4.525   1.907   5.372
 3019TIP3    H1 9002   4.610   1.885   5.335
 3019TIP3    H2 9003   4.495   1.826   5.414
 3020TIP3   OH2 9004   1.996   3.652   2.039
 3020TIP3    H1 9005   1.909   3.670   2.002
 3020TIP3    H2 9006   2.031   3.739   2.061
 3021TIP3   OH2 9007   6.673   6.392   2.994
 3021TIP3    H1 9008   6.670   6.296   2.998
 3021TIP3    H2 9009   6.766   6.413   2.984
 3022TIP3   OH2 9010   6.871   6.362   1.987
 3022TIP3    H1 9011   6.856   6.279   2.032
 3022TIP3    H2 9012   6.913   6.418   2.053
 3023TIP3   OH2 9013   4.865   5.749   0.234
 3023TIP3    H1 9014   4.825   5.795   0.307
 3023TIP3    H2 9015   4.958   5.771   0.239
 3024TIP3   OH2 9016   6.538   7.727   3.565
 3024TIP3    H1 9017   6.628   7.726   3.596
 3024TIP3    H2 9018   6.515   7.635   3.554
 3025TIP3   OH2 9019   6.536   6.616   0.184
 3025TIP3    H1 9020   6.478   6.561   0.132
 3025TIP3    H2 9021   6.544   6.697   0.134
 3026TIP3   OH2 9022   7.247   2.383   1.130
 3026TIP3    H1 9023   7.307   2.438   1.080
 3026TIP3    H2 9024   7.215   2.319   1.066
 3027TIP3   OH2 9025   0.780   0.878   1.358
 3027TIP3    H1 9026   0.802   0.964   1.394
 3027TIP3    H2 9027   0.757   0.895   1.267
 3028TIP3   OH2 9028   3.910   5.331   6.713
 3028TIP3    H1 9029   3.950   5.394   6.652
 3028TIP3    H2 9030   3.818   5.329   6.687
 3029TIP3   OH2 9031   6.011   3.063   5.991
 3029TIP3    H1 9032   6.070   2.995   5.958
 3029TIP3    H2 9033   6.060   3.105   6.062
 3030TIP3   OH2 9034   4.058   4.455   1.872
 3030TIP3    H1 9035   4.149   4.477   1.852
 3030TIP3    H2 9036   4.061   4.426   1.963
 3031TIP3   OH2 9037   5.063   2.760   2.311
 3031TIP3    H1 9038   4.982   2.797   2.346
 3031TIP3    H2 9039   5.102   2.831   2.260
 3032TIP3   OH2 9040   8.249   4.247   5.259
 3032TIP3    H1 9041   8.204   4.214   5.182
 3032TIP3    H2 9042   8.187   4.233   5.331
 3033TIP3   OH2 9043   4.714   3.823   6.578
 3033TIP3    H1 9044   4.769   3.842   6.502
 3033TIP3    H2 9045   4.757   3.868   6.651
 3034TIP3   OH2 9046   2.011   7.579   4.700
 3034TIP3    H1 9047   2.071   7.505   4.691
 3034TIP3    H2 9048   1.928   7.539   4.727
 3035TIP3   OH2 9049   5.090   1.805   4.910
 3035TIP3    H1 9050   5.053   1.743   4.972
 3035TIP3    H2 9051   5.015   1.837   4.861
 3036TIP3   OH2 9052   4.885   1.840   3.118
 3036TIP3    H1 9053   4.900   1.904   3.050
 3036TIP3    H2 9054   4.813   1.786   3.084
 3037TIP3   OH2 9055   0.265   2.424   1.240
 3037TIP3    H1 9056   0.269   2.385   1.327
 3037TIP3    H2 9057   0.175   2.407   1.211
 3038TIP3   OH2 9058   1.569   2.840   0.762
 3038TIP3    H1 9059   1.557   2.749   0.733
 3038TIP3    H2 9060   1.624   2.880   0.694
 3039TIP3   OH2 9061   2.140   1.107   2.720
 3039TIP3    H1 9062   2.068   1.126   2.780
 3039TIP3    H2 9063   2.184   1.032   2.760
 3040TIP3   OH2 9064   7.827   1.499   4.791
 3040TIP3    H1 9065   7.857   1.420   4.745
 3040TIP3    H2 9066   7.808   1.561   4.721
 3041TIP3   OH2 9067   4.405   4.739   0.886
 3041TIP3    H1 9068   4.427   4.820   0.933
 3041TIP3    H2 9069   4.482   4.684   0.896
 3042TIP3   OH2 9070   2.668   3.901   2.830
 3042TIP3    H1 9071   2.577   3.929   2.837
 3042TIP3    H2 9072   2.680   3.883   2.736
 3043TIP3   OH2 9073   5.834   4.056   2.409
 3043TIP3    H1 9074   5.907   4.035   2.469
 3043TIP3    H2 9075   5.855   4.009   2.329
 3044TIP3   OH2 9076   1.487   1.070   0.032
 3044TIP3    H1 9077   1.580   1.072   0.009
 3044TIP3    H2 9078   1.447   1.014  -0.034
 3045TIP3   OH2 9079   1.094   6.244   0.697
 3045TIP3    H1 9080   1.100   6.254   0.602
 3045TIP3    H2 9081   1.043   6.319   0.726
 3046TIP3   OH2 9082   8.344   4.165   2.085
 3046TIP3    H1 9083   8.279   4.224   2.046
 3046TIP3    H2 9084   8.296   4.116   2.151
 3047TIP3   OH2 9085   6.111   2.156   3.479
 3047TIP3    H1 9086   6.110   2.098   3.403
 3047TIP3    H2 9087   6.024   2.145   3.518
 3048TIP3   OH2 9088   8.140   4.286   3.456
 3048TIP3    H1 9089   8.228   4.285   3.493
 3048TIP3    H2 9090   8.089   4.230   3.516
 3049TIP3   OH2 9091   4.230   2.226   5.231
 3049TIP3    H1 9092   4.142   2.190   5.237
 3049TIP3    H2 9093   4.218   2.315   5.200
 3050TIP3   OH2 9094   1.830   6.280   6.185
 3050TIP3    H1 9095   1.919   6.313   6.195
 3050TIP3    H2 9096   1.785   6.307   6.265
 3051TIP3   OH2 9097   2.309   4.215   3.115
 3051TIP3    H1 9098   2.293   4.164   3.195
 3051TIP3    H2 9099   2.267   4.299   3.132
 3052TIP3   OH2 9100   4.184   2.871   3.230
 3052TIP3    H1 9101   4.201   2.838   3.318
 3052TIP3    H2 9102   4.132   2.950   3.244
 3053TIP3   OH2 9103   3.488   1.928   6.712
 3053TIP3    H1 9104   3.432   1.981   6.769
 3053TIP3    H2 9105   3.431   1.860   6.677
 3054TIP3   OH2 9106   6.443   5.231   6.306
 3054TIP3    H1 9107   6.433   5.142   6.271
 3054TIP3    H2 9108   6.414   5.225   6.396
 3055TIP3   OH2 9109   3.198   1.237   5.084
 3055TIP3    H1 9110   3.145   1.297   5.136
 3055TIP3    H2 9111   3.185   1.265   4.993
 3056TIP3   OH2 9112   7.399   5.260   5.972
 3056TIP3    H1 9113   7.473   5.267   6.032
 3056TIP3    H2 9114   7.359   5.347   5.973
 3057TIP3   OH2 9115   5.156   5.406   3.463
 3057TIP3    H1 9116   5.080   5.411   3.404
 3057TIP3    H2 9117   5.230   5.387   3.405
 3058TIP3   OH2 9118   6.971   5.122   3.305
 3058TIP3    H1 9119   6.955   5.072   3.385
 3058TIP3    H2 9120   6.899   5.185   3.302
 3059TIP3   OH2 9121   3.423   3.387   5.532
 3059TIP3    H1 9122   3.348   3.366   5.476
 3059TIP3    H2 9123   3.414   3.328   5.607
 3060TIP3   OH2 9124   3.679   3.927   6.441
 3060TIP3    H1 9125   3.706   4.008   6.398
 3060TIP3    H2 9126   3.588   3.943   6.468
 3061TIP3   OH2 9127   1.691   2.969   6.576
 3061TIP3    H1 9128   1.598   2.957   6.596
 3061TIP3    H2 9129   1.737   2.937   6.654
 3062TIP3   OH2 9130   4.510   6.668   5.496
 3062TIP3    H1 9131   4.527   6.762   5.492
 3062TIP3    H2 9132   4.476   6.645   5.409
 3063TIP3   OH2 9133   7.464   2.997   4.766
 3063TIP3    H1 9134   7.536   3.051   4.734
 3063TIP3    H2 9135   7.394   3.010   4.702
 3064TIP3   OH2 9136   6.022   4.392   1.710
 3064TIP3    H1 9137   6.028   4.445   1.630
 3064TIP3    H2 9138   6.067   4.444   1.776
 3065TIP3   OH2 9139   3.619   3.671   6.349
 3065TIP3    H1 9140   3.643   3.754   6.391
 3065TIP3    H2 9141   3.703   3.630   6.327
 3066TIP3   OH2 9142   7.144   1.969   4.099
 3066TIP3    H1 9143   7.094   1.987   4.019
 3066TIP3    H2 9144   7.159   1.875   4.096
 3067TIP3   OH2 9145   3.799   2.696   0.898
 3067TIP3    H1 9146   3.751   2.655   0.826
 3067TIP3    H2 9147   3.801   2.630   0.967
 3068TIP3   OH2 9148   4.899   4.793   6.333
 3068TIP3    H1 9149   4.820   4.838   6.363
 3068TIP3    H2 9150   4.971   4.839   6.377
 3069TIP3   OH2 9151   6.223   0.774   1.662
 3069TIP3    H1 9152   6.268   0.690   1.660
 3069TIP3    H2 9153   6.281   0.831   1.713
 3070TIP3   OH2 9154   4.012   1.590   5.459
 3070TIP3    H1 9155   3.966   1.645   5.397
 3070TIP3    H2 9156   3.966   1.506   5.458
 3071TIP3   OH2 9157   0.894   1.101   2.978
 3071TIP3    H1 9158   0.935   1.073   2.896
 3071TIP3    H2 9159   0.812   1.141   2.951
 3072TIP3   OH2 9160   4.143   4.151   2.613
 3072TIP3    H1 9161   4.122   4.157   2.707
 3072TIP3    H2 9162   4.238   4.141   2.610
 3073TIP3   OH2 9163   0.487   1.707   0.722
 3073TIP3    H1 9164   0.435   1.753   0.656
 3073TIP3    H2 9165   0.487   1.766   0.798
 3074TIP3   OH2 9166   3.728   4.052   4.875
 3074TIP3    H1 9167   3.644   4.024   4.913
 3074TIP3    H2 9168   3.767   4.106   4.943
 3075TIP3   OH2 9169   2.573   4.907   6.558
 3075TIP3    H1 9170   2.586   4.968   6.630
 3075TIP3    H2 9171   2.661   4.878   6.534
 3076TIP3   OH2 9172   5.116   0.338   0.110
 3076TIP3    H1 9173   5.181   0.379   0.166
 3076TIP3    H2 9174   5.107   0.397   0.036
 3077TIP3   OH2 9175   7.688   1.169   1.706
 3077TIP3    H1 9176   7.674   1.075   1.716
 3077TIP3    H2 9177   7.783   1.180   1.702
 3078TIP3   OH2 9178   3.215   3.820   5.056
 3078TIP3    H1 9179   3.178   3.888   5.000
 3078TIP3    H2 9180   3.202   3.854   5.145
 3079TIP3   OH2 9181   5.790   6.904   3.157
 3079TIP3    H1 9182   5.741   6.832   3.196
 3079TIP3    H2 9183   5.724   6.952   3.105
 3080TIP3   OH2 9184   0.999   2.388   5.884
 3080TIP3    H1 9185   1.022   2.465   5.831
 3080TIP3    H2 9186   1.068   2.385   5.951
 3081TIP3   OH2 9187   6.268   6.500   6.745
 3081TIP3    H1 9188   6.256   6.594   6.730
 3081TIP3    H2 9189   6.223   6.458   6.672
 3082TIP3   OH2 9190   6.642   6.119   3.883
 3082TIP3    H1 9191   6.693   6.199   3.869
 3082TIP3    H2 9192   6.693   6.068   3.945
 3083TIP3   OH2 9193   3.522   7.762   2.780
 3083TIP3    H1 9194   3.458   7.738   2.713
 3083TIP3    H2 9195   3.600   7.788   2.731
 3084TIP3   OH2 9196   7.749   7.040   0.214
 3084TIP3    H1 9197   7.833   7.083   0.233
 3084TIP3    H2 9198   7.720   7.007   0.299
 3085TIP3   OH2 9199   7.672   1.453   3.227
 3085TIP3    H1 9200   7.669   1.400   3.306
 3085TIP3    H2 9201   7.726   1.528   3.250
 3086TIP3   OH2 9202   3.035   6.772   0.151
 3086TIP3    H1 9203   2.939   6.769   0.145
 3086TIP3    H2 9204   3.052   6.779   0.245
 3087TIP3   OH2 9205   2.914   7.816   5.356
 3087TIP3    H1 9206   2.873   7.786   5.275
 3087TIP3    H2 9207   3.004   7.783   5.351
 3088TIP3   OH2 9208   7.853   3.346   1.182
 3088TIP3    H1 9209   7.922   3.328   1.118
 3088TIP3    H2 9210   7.899   3.352   1.265
 3089TIP3   OH2 9211   6.350   3.101   6.757
 3089TIP3    H1 9212   6.422   3.057   6.712
 3089TIP3    H2 9213   6.363   3.078   6.850
 3090TIP3   OH2 9214   1.612   3.248   5.360
 3090TIP3    H1 9215   1.612   3.242   5.265
 3090TIP3    H2 9216   1.523   3.278   5.383
 3091TIP3   OH2 9217   1.934   5.613   5.014
 3091TIP3    H1 9218   1.953   5.688   5.071
 3091TIP3    H2 9219   1.921   5.540   5.074
 3092TIP3   OH2 9220   2.024   2.776   3.871
 3092TIP3    H1 9221   1.980   2.756   3.788
 3092TIP3    H2 9222   2.084   2.847   3.849
 3093TIP3   OH2 9223   5.793   0.773   1.756
 3093TIP3    H1 9224   5.828   0.847   1.707
 3093TIP3    H2 9225   5.777   0.808   1.844
 3094TIP3   OH2 9226   2.153   6.915   3.026
 3094TIP3    H1 9227   2.089   6.859   2.982
 3094TIP3    H2 9228   2.156   6.882   3.116
 3095TIP3   OH2 9229   4.138   0.470   3.726
 3095TIP3    H1 9230   4.180   0.532   3.666
 3095TIP3    H2 9231   4.048   0.463   3.695
 3096TIP3   OH2 9232   7.359   7.583   2.211
 3096TIP3    H1 9233   7.413   7.526   2.266
 3096TIP3    H2 9234   7.340   7.530   2.134
 3097TIP3   OH2 9235   0.420   2.666   4.643
 3097TIP3    H1 9236   0.367   2.699   4.571
 3097TIP3    H2 9237   0.468   2.592   4.606
 3098TIP3   OH2 9238   1.976   6.116   3.188
 3098TIP3    H1 9239   1.955   6.084   3.100
 3098TIP3    H2 9240   2.064   6.083   3.205
 3099TIP3   OH2 9241   6.757   1.818   5.903
 3099TIP3    H1 9242   6.792   1.771   5.827
 3099TIP3    H2 9243   6.684   1.763   5.933
 3100TIP3   OH2 9244   2.282   7.049   3.810
 3100TIP3    H1 9245   2.315   7.133   3.844
 3100TIP3    H2 9246   2.356   7.012   3.762
 3101TIP3   OH2 9247   4.508   2.804   2.019
 3101TIP3    H1 9248   4.446   2.874   1.996
 3101TIP3    H2 9249   4.503   2.743   1.945
 3102TIP3   OH2 9250   7.953   5.548   4.032
 3102TIP3    H1 9251   7.912   5.487   4.094
 3102TIP3    H2 9252   8.037   5.508   4.011
 3103TIP3   OH2 9253   6.555   5.423   2.376
 3103TIP3    H1 9254   6.605   5.474   2.439
 3103TIP3    H2 9255   6.465   5.427   2.408
 3104TIP3   OH2 9256   6.154   4.409   3.570
 3104TIP3    H1 9257   6.146   4.351   3.645
 3104TIP3    H2 9258   6.209   4.361   3.508
 3105TIP3   OH2 9259   0.464   4.808   6.192
 3105TIP3    H1 9260   0.414   4.853   6.124
 3105TIP3    H2 9261   0.398   4.784   6.258
 3106TIP3   OH2 9262   8.111   0.703   0.977
 3106TIP3    H1 9263   8.152   0.636   1.031
 3106TIP3    H2 9264   8.028   0.721   1.020
 3107TIP3   OH2 9265   7.417   1.831   1.527
 3107TIP3    H1 9266   7.446   1.748   1.565
 3107TIP3    H2 9267   7.400   1.887   1.603
 3108TIP3   OH2 9268   4.746   0.733   5.932
 3108TIP3    H1 9269   4.830   0.728   5.887
 3108TIP3    H2 9270   4.682   0.709   5.866
 3109TIP3   OH2 9271   6.417   7.351   3.179
 3109TIP3    H1 9272   6.371   7.411   3.238
 3109TIP3    H2 9273   6.359   7.276   3.170
 3110TIP3   OH2 9274   4.759   6.785   2.185
 3110TIP3    H1 9275   4.755   6.880   2.196
 3110TIP3    H2 9276   4.846   6.769   2.150
 3111TIP3   OH2 9277   4.310   0.476   4.247
 3111TIP3    H1 9278   4.321   0.569   4.229
 3111TIP3    H2 9279   4.309   0.434   4.160
 3112TIP3   OH2 9280   6.347   2.587   0.203
 3112TIP3    H1 9281   6.343   2.522   0.133
 3112TIP3    H2 9282   6.260   2.627   0.204
 3113TIP3   OH2 9283   4.292   5.306   3.685
 3113TIP3    H1 9284   4.244   5.307   3.768
 3113TIP3    H2 9285   4.225   5.318   3.618
 3114TIP3   OH2 9286   4.249   0.601   4.723
 3114TIP3    H1 9287   4.269   0.558   4.806
 3114TIP3    H2 9288   4.153   0.608   4.722
 3115TIP3   OH2 9289   7.704   4.925   1.150
 3115TIP3    H1 9290   7.734   5.015   1.162
 3115TIP3    H2 9291   7.740   4.898   1.066
 3116TIP3   OH2 9292   0.260   7.372   3.060
 3116TIP3    H1 9293   0.295   7.334   2.979
 3116TIP3    H2 9294   0.165   7.365   3.050
 3117TIP3   OH2 9295   1.584   1.873   6.158
 3117TIP3    H1 9296   1.601   1.793   6.109
 3117TIP3    H2 9297   1.670   1.913   6.170
 3118TIP3   OH2 9298   5.321   4.592   5.680
 3118TIP3    H1 9299   5.385   4.662   5.666
 3118TIP3    H2 9300   5.276   4.617   5.761
 3119TIP3   OH2 9301   5.623   5.652   3.464
 3119TIP3    H1 9302   5.668   5.695   3.536
 3119TIP3    H2 9303   5.627   5.559   3.485
 3120TIP3   OH2 9304   4.851   3.360   2.025
 3120TIP3    H1 9305   4.868   3.454   2.023
 3120TIP3    H2 9306   4.757   3.352   2.010
 3121TIP3   OH2 9307   5.424   4.104   3.850
 3121TIP3    H1 9308   5.331   4.084   3.863
 3121TIP3    H2 9309   5.470   4.025   3.879
 3122TIP3   OH2 9310   8.326   4.370   3.161
 3122TIP3    H1 9311   8.235   4.372   3.190
 3122TIP3    H2 9312   8.332   4.290   3.108
 3123TIP3   OH2 9313   7.835   3.266   6.020
 3123TIP3    H1 9314   7.863   3.347   5.979
 3123TIP3    H2 9315   7.750   3.286   6.058
 3124TIP3   OH2 9316   5.588   0.387   0.844
 3124TIP3    H1 9317   5.623   0.342   0.767
 3124TIP3    H2 9318   5.657   0.450   0.869
 3125TIP3   OH2 9319   3.160   6.286   1.900
 3125TIP3    H1 9320   3.223   6.358   1.894
 3125TIP3    H2 9321   3.146   6.259   1.809
 3126TIP3   OH2 9322   6.952   4.275   6.027
 3126TIP3    H1 9323   6.926   4.251   5.938
 3126TIP3    H2 9324   6.877   4.322   6.063
 3127TIP3   OH2 9325   6.684   6.614   3.640
 3127TIP3    H1 9326   6.773   6.616   3.606
 3127TIP3    H2 9327   6.639   6.686   3.594
 3128TIP3   OH2 9328   0.026   0.056   5.655
 3128TIP3    H1 9329   0.027  -0.039   5.665
 3128TIP3    H2 9330   0.105   0.077   5.606
 3129TIP3   OH2 9331   7.671   5.883   4.050
 3129TIP3    H1 9332   7.660   5.952   4.115
 3129TIP3    H2 9333   7.636   5.804   4.092
 3130TIP3   OH2 9334   6.321   4.056   3.116
 3130TIP3    H1 9335   6.316   4.151   3.114
 3130TIP3    H2 9336   6.335   4.030   3.025
 3131TIP3   OH2 9337   1.187   6.823   0.456
 3131TIP3    H1 9338   1.124   6.873   0.507
 3131TIP3    H2 9339   1.260   6.883   0.442
 3132TIP3   OH2 9340   7.695   3.917   5.439
 3132TIP3    H1 9341   7.630   3.866   5.486
 3132TIP3    H2 9342   7.674   4.008   5.460
 3133TIP3   OH2 9343   1.131   3.552   0.577
 3133TIP3    H1 9344   1.226   3.563   0.582
 3133TIP3    H2 9345   1.107   3.585   0.491
 3134TIP3   OH2 9346   3.286   6.368   2.862
 3134TIP3    H1 9347   3.265   6.278   2.883
 3134TIP3    H2 9348   3.311   6.366   2.770
 3135TIP3   OH2 9349   2.355   6.744   4.720
 3135TIP3    H1 9350   2.374   6.830   4.755
 3135TIP3    H2 9351   2.363   6.685   4.795
 3136TIP3   OH2 9352   6.036   0.273   2.583
 3136TIP3    H1 9353   6.056   0.364   2.604
 3136TIP3    H2 9354   6.115   0.225   2.607
 3137TIP3   OH2 9355   2.941   4.301   5.109
 3137TIP3    H1 9356   2.971   4.257   5.030
 3137TIP3    H2 9357   2.849   4.321   5.092
 3138TIP3   OH2 9358   4.230   0.788   1.566
 3138TIP3    H1 9359   4.183   0.805   1.648
 3138TIP3    H2 9360   4.211   0.863   1.511
 3139TIP3   OH2 9361   7.499   2.802   2.957
 3139TIP3    H1 9362   7.458   2.798   2.870
 3139TIP3    H2 9363   7.451   2.738   3.009
 3140TIP3   OH2 9364   2.694   0.715   1.978
 3140TIP3    H1 9365   2.684   0.626   2.013
 3140TIP3    H2 9366   2.699   0.770   2.056
 3141TIP3   OH2 9367   8.069   5.992   3.524
 3141TIP3    H1 9368   7.991   5.967   3.574
 3141TIP3    H2 9369   8.043   6.072   3.478
 3142TIP3   OH2 9370   2.775   7.547   4.685
 3142TIP3    H1 9371   2.781   7.642   4.685
 3142TIP3    H2 9372   2.770   7.523   4.592
 3143TIP3   OH2 9373   6.525   7.230   2.211
 3143TIP3    H1 9374   6.502   7.319   2.237
 3143TIP3    H2 9375   6.608   7.239   2.165
 3144TIP3   OH2 9376   4.809   1.724   0.956
 3144TIP3    H1 9377   4.733   1.773   0.927
 3144TIP3    H2 9378   4.852   1.781   1.021
 3145TIP3   OH2 9379   5.639   3.510   1.807
 3145TIP3    H1 9380   5.656   3.498   1.713
 3145TIP3    H2 9381   5.547   3.488   1.817
 3146TIP3   OH2 9382   2.143   1.168   0.581
 3146TIP3    H1 9383   2.076   1.229   0.549
 3146TIP3    H2 9384   2.201   1.155   0.505
 3147TIP3   OH2 9385   2.466   3.263   4.426
 3147TIP3    H1 9386   2.406   3.221   4.365
 3147TIP3    H2 9387   2.477   3.352   4.391
 3148TIP3   OH2 9388   6.120   3.484   0.458
 3148TIP3    H1 9389   6.081   3.397   0.460
 3148TIP3    H2 9390   6.175   3.484   0.380
 3149TIP3   OH2 9391   7.888   5.107   0.389
 3149TIP3    H1 9392   7.947   5.034   0.368
 3149TIP3    H2 9393   7.810   5.091   0.336
 3150TIP3   OH2 9394   4.295   6.497   1.324
 3150TIP3    H1 9395   4.206   6.495   1.359
 3150TIP3    H2 9396   4.337   6.570   1.369
 3151TIP3   OH2 9397   5.927   6.208   2.980
 3151TIP3    H1 9398   5.880   6.179   3.058
 3151TIP3    H2 9399   6.016   6.225   3.012
 3152TIP3   OH2 9400   2.483   4.824   4.796
 3152TIP3    H1 9401   2.433   4.847   4.874
 3152TIP3    H2 9402   2.481   4.903   4.742
 3153TIP3   OH2 9403   6.063   6.242   6.743
 3153TIP3    H1 9404   6.074   6.297   6.665
 3153TIP3    H2 9405   5.995   6.179   6.718
 3154TIP3   OH2 9406   4.298   2.747   3.014
 3154TIP3    H1 9407   4.230   2.784   3.070
 3154TIP3    H2 9408   4.366   2.814   3.011
 3155TIP3   OH2 9409   5.444   1.790   0.305
 3155TIP3    H1 9410   5.426   1.867   0.359
 3155TIP3    H2 9411   5.464   1.826   0.219
 3156TIP3   OH2 9412   0.940   0.967   5.601
 3156TIP3    H1 9413   0.859   1.017   5.600
 3156TIP3    H2 9414   0.923   0.896   5.663
 3157TIP3   OH2 9415   7.648   3.082   2.653
 3157TIP3    H1 9416   7.702   3.100   2.576
 3157TIP3    H2 9417   7.560   3.069   2.617
 3158TIP3   OH2 9418   2.634   0.684   4.858
 3158TIP3    H1 9419   2.564   0.635   4.901
 3158TIP3    H2 9420   2.628   0.772   4.895
 3159TIP3   OH2 9421   2.448   6.299   3.099
 3159TIP3    H1 9422   2.529   6.333   3.062
 3159TIP3    H2 9423   2.436   6.214   3.057
 3160TIP3   OH2 9424   6.292   7.023   6.490
 3160TIP3    H1 9425   6.312   6.949   6.433
 3160TIP3    H2 9426   6.228   7.074   6.441
 3161TIP3   OH2 9427   3.473   7.191   6.230
 3161TIP3    H1 9428   3.545   7.230   6.180
 3161TIP3    H2 9429   3.446   7.260   6.291
 3162TIP3   OH2 9430   1.544   2.313   1.115
 3162TIP3    H1 9431   1.633   2.278   1.117
 3162TIP3    H2 9432   1.493   2.245   1.070
 3163TIP3   OH2 9433   7.202   7.096   3.599
 3163TIP3    H1 9434   7.211   7.122   3.691
 3163TIP3    H2 9435   7.270   7.030   3.585
 3164TIP3   OH2 9436   2.947   6.057   0.786
 3164TIP3    H1 9437   2.962   6.059   0.692
 3164TIP3    H2 9438   2.854   6.041   0.796
 3165TIP3   OH2 9439   4.780   2.069   4.444
 3165TIP3    H1 9440   4.843   2.078   4.515
 3165TIP3    H2 9441   4.818   2.119   4.372
 3166TIP3   OH2 9442   5.120   4.514   1.903
 3166TIP3    H1 9443   5.172   4.441   1.935
 3166TIP3    H2 9444   5.155   4.591   1.948
 3167TIP3   OH2 9445   3.763   1.009   5.475
 3167TIP3    H1 9446   3.715   0.931   5.447
 3167TIP3    H2 9447   3.827   0.977   5.538
 3168TIP3   OH2 9448   1.648   5.853   2.458
 3168TIP3    H1 9449   1.722   5.882   2.405
 3168TIP3    H2 9450   1.633   5.762   2.430
 3169TIP3   OH2 9451   6.132   5.328   4.462
 3169TIP3    H1 9452   6.108   5.237   4.479
 3169TIP3    H2 9453   6.056   5.365   4.416
 3170TIP3   OH2 9454   3.344   1.754   1.430
 3170TIP3    H1 9455   3.410   1.803   1.380
 3170TIP3    H2 9456   3.324   1.811   1.505
 3171TIP3   OH2 9457   1.813   2.955   3.307
 3171TIP3    H1 9458   1.820   3.041   3.267
 3171TIP3    H2 9459   1.851   2.895   3.242
 3172TIP3   OH2 9460   7.223   5.451   5.961
 3172TIP3    H1 9461   7.140   5.415   5.930
 3172TIP3    H2 9462   7.199   5.508   6.034
 3173TIP3   OH2 9463   6.176   7.662   1.094
 3173TIP3    H1 9464   6.088   7.627   1.086
 3173TIP3    H2 9465   6.209   7.626   1.177
 3174TIP3   OH2 9466   2.357   5.165   6.610
 3174TIP3    H1 9467   2.280   5.160   6.552
 3174TIP3    H2 9468   2.360   5.257   6.637
 3175TIP3   OH2 9469   7.949   2.208   6.273
 3175TIP3    H1 9470   7.926   2.283   6.328
 3175TIP3    H2 9471   7.911   2.228   6.188
 3176TIP3   OH2 9472   0.945   1.396   4.491
 3176TIP3    H1 9473   1.020   1.385   4.434
 3176TIP3    H2 9474   0.975   1.367   4.577
 3177TIP3   OH2 9475   0.296   2.987   6.224
 3177TIP3    H1 9476   0.304   3.068   6.174
 3177TIP3    H2 9477   0.275   2.920   6.158
 3178TIP3   OH2 9478   3.514   5.352   1.681
 3178TIP3    H1 9479   3.551   5.281   1.627
 3178TIP3    H2 9480   3.504   5.425   1.620
 3179TIP3   OH2 9481   6.629   0.140   3.318
 3179TIP3    H1 9482   6.652   0.177   3.233
 3179TIP3    H2 9483   6.588   0.213   3.366
 3180TIP3   OH2 9484   0.408   4.707   3.203
 3180TIP3    H1 9485   0.361   4.775   3.249
 3180TIP3    H2 9486   0.363   4.626   3.227
 3181TIP3   OH2 9487   3.094   7.777   4.697
 3181TIP3    H1 9488   3.088   7.682   4.700
 3181TIP3    H2 9489   3.184   7.794   4.667
 3182TIP3   OH2 9490   7.611   5.938   6.468
 3182TIP3    H1 9491   7.702   5.930   6.442
 3182TIP3    H2 9492   7.599   6.031   6.488
 3183TIP3   OH2 9493   0.677   2.016   4.740
 3183TIP3    H1 9494   0.683   2.110   4.726
 3183TIP3    H2 9495   0.605   2.005   4.802
 3184TIP3   OH2 9496   2.908   4.414   2.318
 3184TIP3    H1 9497   2.997   4.391   2.291
 3184TIP3    H2 9498   2.860   4.331   2.313
 3185TIP3   OH2 9499   7.781   3.775   6.358
 3185TIP3    H1 9500   7.716   3.803   6.422
 3185TIP3    H2 9501   7.857   3.830   6.375
 3186TIP3   OH2 9502   0.662   6.644   0.064
 3186TIP3    H1 9503   0.602   6.583   0.107
 3186TIP3    H2 9504   0.728   6.588   0.022
 3187TIP3   OH2 9505   1.715   5.164   1.405
 3187TIP3    H1 9506   1.686   5.255   1.416
 3187TIP3    H2 9507   1.790   5.156   1.463
 3188TIP3   OH2 9508   0.715   7.567   1.071
 3188TIP3    H1 9509   0.754   7.499   1.126
 3188TIP3    H2 9510   0.624   7.571   1.099
 3189TIP3   OH2 9511   3.126   2.105   2.452
 3189TIP3    H1 9512   3.041   2.130   2.489
 3189TIP3    H2 9513   3.189   2.163   2.495
 3190TIP3   OH2 9514   6.149   4.671   3.731
 3190TIP3    H1 9515   6.153   4.600   3.667
 3190TIP3    H2 9516   6.087   4.640   3.797
 3191TIP3   OH2 9517   4.529   3.745   2.757
 3191TIP3    H1 9518   4.458   3.732   2.820
 3191TIP3    H2 9519   4.604   3.699   2.794
 3192TIP3   OH2 9520   0.871   2.042   4.316
 3192TIP3    H1 9521   0.902   1.980   4.383
 3192TIP3    H2 9522   0.778   2.022   4.307
 3193TIP3   OH2 9523   1.706   0.005   6.539
 3193TIP3    H1 9524   1.768   0.072   6.509
 3193TIP3    H2 9525   1.630   0.016   6.480
 3194TIP3   OH2 9526   2.677   2.692   5.027
 3194TIP3    H1 9527   2.717   2.645   5.100
 3194TIP3    H2 9528   2.596   2.644   5.008
 3195TIP3   OH2 9529   1.362   4.184   6.575
 3195TIP3    H1 9530   1.407   4.257   6.618
 3195TIP3    H2 9531   1.290   4.225   6.527
 3196TIP3   OH2 9532   6.814   4.675   2.171
 3196TIP3    H1 9533   6.732   4.717   2.147
 3196TIP3    H2 9534   6.876   4.702   2.104
 3197TIP3   OH2 9535   5.788   3.232   2.380
 3197TIP3    H1 9536   5.727   3.175   2.333
 3197TIP3    H2 9537   5.744   3.317   2.382
 3198TIP3   OH2 9538   0.022   5.907   1.139
 3198TIP3    H1 9539  -0.062   5.887   1.179
 3198TIP3    H2 9540   0.066   5.963   1.203
 3199TIP3   OH2 9541   6.951   1.020   6.068
 3199TIP3    H1 9542   6.940   1.115   6.064
 3199TIP3    H2 9543   6.862   0.986   6.071
 3200TIP3   OH2 9544   2.039   4.447   3.593
 3200TIP3    H1 9545   2.069   4.435   3.683
 3200TIP3    H2 9546   1.946   4.468   3.601
 3201TIP3   OH2 9547   1.476   7.479   4.062
 3201TIP3    H1 9548   1.432   7.402   4.026
 3201TIP3    H2 9549   1.524   7.446   4.138
 3202TIP3   OH2 9550   2.476   7.050   3.176
 3202TIP3    H1 9551   2.487   6.956   3.188
 3202TIP3    H2 9552   2.497   7.066   3.084
 3203TIP3   OH2 9553   6.575   1.141   1.616
 3203TIP3    H1 9554   6.616   1.215   1.661
 3203TIP3    H2 9555   6.493   1.127   1.664
 3204TIP3   OH2 9556   1.264   7.017   0.778
 3204TIP3    H1 9557   1.303   6.932   0.760
 3204TIP3    H2 9558   1.331   7.080   0.752
 3205TIP3   OH2 9559   6.833   2.480   4.196
 3205TIP3    H1 9560   6.762   2.415   4.194
 3205TIP3    H2 9561   6.818   2.535   4.120
 3206TIP3   OH2 9562   1.466   5.516   0.150
 3206TIP3    H1 9563   1.381   5.478   0.130
 3206TIP3    H2 9564   1.489   5.567   0.073
 3207TIP3   OH2 9565   4.655   6.826   0.692
 3207TIP3    H1 9566   4.568   6.843   0.728
 3207TIP3    H2 9567   4.645   6.746   0.641
 3208TIP3   OH2 9568   2.767   1.701   3.706
 3208TIP3    H1 9569   2.835   1.656   3.657
 3208TIP3    H2 9570   2.740   1.773   3.650
 3209TIP3   OH2 9571   0.143   4.941   4.056
 3209TIP3    H1 9572   0.170   4.932   3.965
 3209TIP3    H2 9573   0.168   5.030   4.080
 3210TIP3   OH2 9574   3.417   6.071   5.541
 3210TIP3    H1 9575   3.409   5.976   5.533
 3210TIP3    H2 9576   3.479   6.096   5.473
 3211TIP3   OH2 9577   0.061   6.595   6.229
 3211TIP3    H1 9578   0.103   6.510   6.244
 3211TIP3    H2 9579  -0.011   6.575   6.169
 3212TIP3   OH2 9580   4.226   0.616   3.473
 3212TIP3    H1 9581   4.269   0.691   3.514
 3212TIP3    H2 9582   4.297   0.559   3.446
 3213TIP3   OH2 9583   6.569   1.221   1.125
 3213TIP3    H1 9584   6.545   1.272   1.048
 3213TIP3    H2 9585   6.498   1.236   1.187
 3214TIP3   OH2 9586   3.510   5.092   3.861
 3214TIP3    H1 9587   3.428   5.141   3.860
 3214TIP3    H2 9588   3.563   5.134   3.793
 3215TIP3   OH2 9589   2.673   2.991   6.666
 3215TIP3    H1 9590   2.737   3.001   6.737
 3215TIP3    H2 9591   2.698   2.909   6.623
 3216TIP3   OH2 9592   3.188   3.947   4.531
 3216TIP3    H1 9593   3.109   4.002   4.533
 3216TIP3    H2 9594   3.165   3.870   4.582
 3217TIP3   OH2 9595   4.832   4.625   0.720
 3217TIP3    H1 9596   4.924   4.616   0.742
 3217TIP3    H2 9597   4.819   4.719   0.706
 3218TIP3   OH2 9598   0.776   3.040   0.641
 3218TIP3    H1 9599   0.727   3.060   0.721
 3218TIP3    H2 9600   0.727   2.968   0.601
 3219TIP3   OH2 9601   2.549   7.056   3.882
 3219TIP3    H1 9602   2.508   6.992   3.940
 3219TIP3    H2 9603   2.573   7.007   3.804
 3220TIP3   OH2 9604   3.768   7.281   4.695
 3220TIP3    H1 9605   3.779   7.374   4.716
 3220TIP3    H2 9606   3.750   7.280   4.601
 3221TIP3   OH2 9607   0.520   0.480   3.242
 3221TIP3    H1 9608   0.547   0.393   3.213
 3221TIP3    H2 9609   0.514   0.473   3.337
 3222TIP3   OH2 9610   7.958   7.320   4.265
 3222TIP3    H1 9611   7.962   7.255   4.335
 3222TIP3    H2 9612   7.873   7.362   4.275
 3223TIP3   OH2 9613   2.889   6.325   0.047
 3223TIP3    H1 9614   2.964   6.273   0.019
 3223TIP3    H2 9615   2.899   6.408  -0.001
 3224TIP3   OH2 9616   2.775   2.857   2.254
 3224TIP3    H1 9617   2.812   2.879   2.339
 3224TIP3    H2 9618   2.686   2.892   2.256
 3225TIP3   OH2 9619   5.802   4.976   4.011
 3225TIP3    H1 9620   5.782   4.999   4.102
 3225TIP3    H2 9621   5.719   4.989   3.964
 3226TIP3   OH2 9622   2.806   6.198   3.847
 3226TIP3    H1 9623   2.795   6.173   3.939
 3226TIP3    H2 9624   2.875   6.263   3.849
 3227TIP3   OH2 9625   7.649   0.431   2.198
 3227TIP3    H1 9626   7.727   0.398   2.154
 3227TIP3    H2 9627   7.674   0.437   2.290
 3228TIP3   OH2 9628   0.150   4.009   0.655
 3228TIP3    H1 9629   0.057   3.986   0.657
 3228TIP3    H2 9630   0.152   4.099   0.622
 3229TIP3   OH2 9631   7.334   0.517   5.370
 3229TIP3    H1 9632   7.268   0.581   5.396
 3229TIP3    H2 9633   7.376   0.491   5.451
 3230TIP3   OH2 9634   7.476   0.694   2.689
 3230TIP3    H1 9635   7.506   0.777   2.725
 3230TIP3    H2 9636   7.440   0.716   2.603
 3231TIP3   OH2 9637   1.130   5.958   6.154
 3231TIP3    H1 9638   1.139   5.879   6.101
 3231TIP3    H2 9639   1.113   6.027   6.090
 3232TIP3   OH2 9640   2.806   0.508   0.308
 3232TIP3    H1 9641   2.721   0.502   0.264
 3232TIP3    H2 9642   2.867   0.530   0.237
 3233TIP3   OH2 9643   3.309   1.819   6.405
 3233TIP3    H1 9644   3.266   1.893   6.447
 3233TIP3    H2 9645   3.325   1.849   6.315
 3234TIP3   OH2 9646   7.271   2.496   0.170
 3234TIP3    H1 9647   7.324   2.439   0.114
 3234TIP3    H2 9648   7.185   2.499   0.128
 3235TIP3   OH2 9649   1.806   3.713   3.805
 3235TIP3    H1 9650   1.810   3.807   3.823
 3235TIP3    H2 9651   1.734   3.682   3.859
 3236TIP3   OH2 9652   1.730   2.077   2.418
 3236TIP3    H1 9653   1.748   2.084   2.511
 3236TIP3    H2 9654   1.810   2.040   2.380
 3237TIP3   OH2 9655   1.855   7.796   1.816
 3237TIP3    H1 9656   1.932   7.789   1.760
 3237TIP3    H2 9657   1.849   7.888   1.838
 3238TIP3   OH2 9658   4.691   6.576   4.286
 3238TIP3    H1 9659   4.705   6.616   4.372
 3238TIP3    H2 9660   4.698   6.649   4.224
 3239TIP3   OH2 9661   7.576   4.325   1.971
 3239TIP3    H1 9662   7.605   4.327   2.062
 3239TIP3    H2 9663   7.637   4.383   1.925
 3240TIP3   OH2 9664   4.933   4.133   5.752
 3240TIP3    H1 9665   4.986   4.146   5.673
 3240TIP3    H2 9666   4.944   4.214   5.802
 3241TIP3   OH2 9667   4.190   6.840   6.253
 3241TIP3    H1 9668   4.257   6.876   6.311
 3241TIP3    H2 9669   4.120   6.905   6.255
 3242TIP3   OH2 9670   2.366   3.332   1.822
 3242TIP3    H1 9671   2.310   3.394   1.774
 3242TIP3    H2 9672   2.351   3.248   1.780
 3243TIP3   OH2 9673   1.190   4.170   5.919
 3243TIP3    H1 9674   1.210   4.250   5.871
 3243TIP3    H2 9675   1.264   4.112   5.901
 3244TIP3   OH2 9676   4.259   0.923   2.962
 3244TIP3    H1 9677   4.313   0.947   3.038
 3244TIP3    H2 9678   4.215   0.843   2.989
 3245TIP3   OH2 9679   1.895   5.064   4.796
 3245TIP3    H1 9680   1.864   5.029   4.879
 3245TIP3    H2 9681   1.937   5.147   4.818
 3246TIP3   OH2 9682   7.093   7.567   3.308
 3246TIP3    H1 9683   7.068   7.475   3.310
 3246TIP3    H2 9684   7.166   7.571   3.247
 3247TIP3   OH2 9685   7.717   0.971   2.546
 3247TIP3    H1 9686   7.669   0.971   2.629
 3247TIP3    H2 9687   7.760   0.886   2.543
 3248TIP3   OH2 9688   0.173   6.812   2.996
 3248TIP3    H1 9689   0.188   6.796   3.089
 3248TIP3    H2 9690   0.131   6.898   2.993
 3249TIP3   OH2 9691   6.771   1.252   4.845
 3249TIP3    H1 9692   6.692   1.296   4.816
 3249TIP3    H2 9693   6.740   1.184   4.906
 3250TIP3   OH2 9694   5.377   1.177   3.817
 3250TIP3    H1 9695   5.296   1.130   3.803
 3250TIP3    H2 9696   5.441   1.109   3.841
 3251TIP3   OH2 9697   6.666   6.332   1.768
 3251TIP3    H1 9698   6.681   6.246   1.729
 3251TIP3    H2 9699   6.687   6.321   1.860
 3252TIP3   OH2 9700   4.715   1.037   0.928
 3252TIP3    H1 9701   4.671   1.079   1.002
 3252TIP3    H2 9702   4.803   1.075   0.928
 3253TIP3   OH2 9703   6.308   4.804   5.282
 3253TIP3    H1 9704   6.289   4.877   5.342
 3253TIP3    H2 9705   6.267   4.829   5.200
 3254TIP3   OH2 9706   3.631   4.194   2.615
 3254TIP3    H1 9707   3.634   4.177   2.521
 3254TIP3    H2 9708   3.711   4.154   2.649
 3255TIP3   OH2 9709   6.732   0.574   4.431
 3255TIP3    H1 9710   6.644   0.575   4.394
 3255TIP3    H2 9711   6.747   0.483   4.455
 3256TIP3   OH2 9712   5.394   6.783   0.930
 3256TIP3    H1 9713   5.344   6.860   0.955
 3256TIP3    H2 9714   5.329   6.714   0.921
 3257TIP3   OH2 9715   1.095   7.160   5.321
 3257TIP3    H1 9716   1.170   7.213   5.349
 3257TIP3    H2 9717   1.118   7.131   5.233
 3258TIP3   OH2 9718   4.404   4.010   6.576
 3258TIP3    H1 9719   4.488   3.964   6.580
 3258TIP3    H2 9720   4.427   4.099   6.549
 3259TIP3   OH2 9721   7.281   1.098   4.021
 3259TIP3    H1 9722   7.265   1.190   4.040
 3259TIP3    H2 9723   7.244   1.084   3.934
 3260TIP3   OH2 9724   2.203   2.631   2.164
 3260TIP3    H1 9725   2.154   2.647   2.244
 3260TIP3    H2 9726   2.273   2.571   2.190
 3261TIP3   OH2 9727   4.712   4.450   0.501
 3261TIP3    H1 9728   4.660   4.379   0.466
 3261TIP3    H2 9729   4.746   4.496   0.424
 3262TIP3   OH2 9730   2.391   3.241   6.078
 3262TIP3    H1 9731   2.317   3.301   6.064
 3262TIP3    H2 9732   2.467   3.289   6.046
 3263TIP3   OH2 9733   6.121   2.023   2.370
 3263TIP3    H1 9734   6.171   2.076   2.308
 3263TIP3    H2 9735   6.167   2.033   2.453
 3264TIP3   OH2 9736   3.460   3.125   0.781
 3264TIP3    H1 9737   3.522   3.068   0.827
 3264TIP3    H2 9738   3.491   3.127   0.691
 3265TIP3   OH2 9739   6.100   3.107   3.791
 3265TIP3    H1 9740   6.177   3.163   3.798
 3265TIP3    H2 9741   6.080   3.105   3.697
 3266TIP3   OH2 9742   0.333   5.444   1.943
 3266TIP3    H1 9743   0.427   5.427   1.936
 3266TIP3    H2 9744   0.301   5.443   1.852
 3267TIP3   OH2 9745   3.186   0.428   6.272
 3267TIP3    H1 9746   3.256   0.493   6.279
 3267TIP3    H2 9747   3.197   0.390   6.185
 3268TIP3   OH2 9748   6.024   2.922   5.609
 3268TIP3    H1 9749   5.997   2.890   5.523
 3268TIP3    H2 9750   5.946   2.967   5.643
 3269TIP3   OH2 9751   6.487   5.203   1.153
 3269TIP3    H1 9752   6.457   5.254   1.077
 3269TIP3    H2 9753   6.496   5.114   1.121
 3270TIP3   OH2 9754   3.710   6.392   3.618
 3270TIP3    H1 9755   3.658   6.314   3.597
 3270TIP3    H2 9756   3.698   6.450   3.543
 3271TIP3   OH2 9757   0.190   6.746   3.269
 3271TIP3    H1 9758   0.136   6.784   3.338
 3271TIP3    H2 9759   0.170   6.652   3.273
 3272TIP3   OH2 9760   1.635   2.868   6.200
 3272TIP3    H1 9761   1.588   2.940   6.241
 3272TIP3    H2 9762   1.713   2.855   6.254
 3273TIP3   OH2 9763   4.326   3.406   5.600
 3273TIP3    H1 9764   4.403   3.457   5.574
 3273TIP3    H2 9765   4.360   3.340   5.660
 3274TIP3   OH2 9766   8.291   0.607   5.838
 3274TIP3    H1 9767   8.261   0.529   5.885
 3274TIP3    H2 9768   8.221   0.626   5.776
 3275TIP3   OH2 9769   2.077   3.858   0.585
 3275TIP3    H1 9770   2.105   3.909   0.508
 3275TIP3    H2 9771   2.031   3.921   0.640
 3276TIP3   OH2 9772   3.072   2.955   5.556
 3276TIP3    H1 9773   3.131   2.925   5.487
 3276TIP3    H2 9774   3.024   2.877   5.583
 3277TIP3   OH2 9775   5.805   3.847   0.852
 3277TIP3    H1 9776   5.801   3.849   0.757
 3277TIP3    H2 9777   5.745   3.916   0.880
 3278TIP3   OH2 9778   3.151   6.955   6.082
 3278TIP3    H1 9779   3.089   7.010   6.131
 3278TIP3    H2 9780   3.229   7.010   6.074
 3279TIP3   OH2 9781   5.197   3.663   1.698
 3279TIP3    H1 9782   5.268   3.725   1.678
 3279TIP3    H2 9783   5.140   3.667   1.621
 3280TIP3   OH2 9784   2.170   6.601   3.748
 3280TIP3    H1 9785   2.089   6.594   3.799
 3280TIP3    H2 9786   2.208   6.513   3.751
 3281TIP3   OH2 9787   4.217   3.183   5.138
 3281TIP3    H1 9788   4.205   3.205   5.230
 3281TIP3    H2 9789   4.240   3.266   5.095
 3282TIP3   OH2 9790   6.888   4.077   6.695
 3282TIP3    H1 9791   6.909   4.038   6.610
 3282TIP3    H2 9792   6.916   4.013   6.760
 3283TIP3   OH2 9793   2.426   3.607   3.210
 3283TIP3    H1 9794   2.450   3.515   3.222
 3283TIP3    H2 9795   2.489   3.639   3.144
 3284TIP3   OH2 9796   6.101   7.616   2.407
 3284TIP3    H1 9797   6.080   7.577   2.322
 3284TIP3    H2 9798   6.019   7.656   2.436
 3285TIP3   OH2 9799   1.980   6.831   1.797
 3285TIP3    H1 9800   2.019   6.830   1.884
 3285TIP3    H2 9801   1.970   6.924   1.776
 3286TIP3   OH2 9802   2.887   5.880   5.687
 3286TIP3    H1 9803   2.916   5.857   5.599
 3286TIP3    H2 9804   2.960   5.855   5.743
 3287TIP3   OH2 9805   3.147   4.421   1.546
 3287TIP3    H1 9806   3.146   4.480   1.470
 3287TIP3    H2 9807   3.191   4.342   1.514
 3288TIP3   OH2 9808   6.233   3.372   6.052
 3288TIP3    H1 9809   6.263   3.462   6.043
 3288TIP3    H2 9810   6.265   3.344   6.138
 3289TIP3   OH2 9811   7.623   1.925   3.870
 3289TIP3    H1 9812   7.716   1.919   3.891
 3289TIP3    H2 9813   7.617   1.997   3.807
 3290TIP3   OH2 9814   1.612   7.024   1.663
 3290TIP3    H1 9815   1.665   6.944   1.667
 3290TIP3    H2 9816   1.670   7.094   1.692
 3291TIP3   OH2 9817   1.940   1.263   4.690
 3291TIP3    H1 9818   1.877   1.205   4.732
 3291TIP3    H2 9819   2.006   1.205   4.652
 3292TIP3   OH2 9820   4.344   2.004   2.173
 3292TIP3    H1 9821   4.373   2.013   2.082
 3292TIP3    H2 9822   4.385   2.079   2.218
 3293TIP3   OH2 9823   5.288   5.273   1.618
 3293TIP3    H1 9824   5.209   5.327   1.616
 3293TIP3    H2 9825   5.310   5.267   1.711
 3294TIP3   OH2 9826   8.233   1.088   3.426
 3294TIP3    H1 9827   8.150   1.040   3.425
 3294TIP3    H2 9828   8.294   1.033   3.377
 3295TIP3   OH2 9829   5.258   0.328   3.111
 3295TIP3    H1 9830   5.164   0.316   3.103
 3295TIP3    H2 9831   5.278   0.303   3.201
 3296TIP3   OH2 9832   5.872   6.323   4.872
 3296TIP3    H1 9833   5.931   6.316   4.796
 3296TIP3    H2 9834   5.785   6.312   4.835
 3297TIP3   OH2 9835   2.169   4.444   0.382
 3297TIP3    H1 9836   2.131   4.530   0.367
 3297TIP3    H2 9837   2.178   4.406   0.294
 3298TIP3   OH2 9838   4.497   0.641   4.879
 3298TIP3    H1 9839   4.581   0.598   4.898
 3298TIP3    H2 9840   4.432   0.582   4.916
 3299TIP3   OH2 9841   0.454   3.265   2.461
 3299TIP3    H1 9842   0.539   3.223   2.446
 3299TIP3    H2 9843   0.396   3.193   2.487
 3300TIP3   OH2 9844   0.161   1.653   1.726
 3300TIP3    H1 9845   0.084   1.683   1.775
 3300TIP3    H2 9846   0.153   1.557   1.725
 3301TIP3   OH2 9847   1.307   6.508   1.555
 3301TIP3    H1 9848   1.339   6.579   1.499
 3301TIP3    H2 9849   1.236   6.468   1.505
 3302TIP3   OH2 9850   3.787   6.750   0.253
 3302TIP3    H1 9851   3.714   6.774   0.197
 3302TIP3    H2 9852   3.863   6.794   0.214
 3303TIP3   OH2 9853   2.890   5.663   6.288
 3303TIP3    H1 9854   2.849   5.579   6.309
 3303TIP3    H2 9855   2.823   5.728   6.306
 3304TIP3   OH2 9856   5.363   1.737   3.788
 3304TIP3    H1 9857   5.359   1.642   3.797
 3304TIP3    H2 9858   5.304   1.770   3.856
 3305TIP3   OH2 9859   5.213   5.641   5.803
 3305TIP3    H1 9860   5.294   5.591   5.803
 3305TIP3    H2 9861   5.236   5.725   5.843
 3306TIP3   OH2 9862   5.094   3.366   1.876
 3306TIP3    H1 9863   5.060   3.418   1.803
 3306TIP3    H2 9864   5.031   3.382   1.947
 3307TIP3   OH2 9865   3.945   3.375   1.641
 3307TIP3    H1 9866   3.914   3.435   1.709
 3307TIP3    H2 9867   3.865   3.346   1.596
 3308TIP3   OH2 9868   8.102   1.803   3.978
 3308TIP3    H1 9869   8.184   1.761   3.953
 3308TIP3    H2 9870   8.102   1.801   4.074
 3309TIP3   OH2 9871   4.101   3.208   3.292
 3309TIP3    H1 9872   4.025   3.149   3.292
 3309TIP3    H2 9873   4.087   3.264   3.215
 3310TIP3   OH2 9874   1.589   4.703   0.222
 3310TIP3    H1 9875   1.634   4.679   0.141
 3310TIP3    H2 9876   1.551   4.621   0.254
 3311TIP3   OH2 9877   1.128   3.283   5.570
 3311TIP3    H1 9878   1.192   3.221   5.606
 3311TIP3    H2 9879   1.135   3.272   5.475
 3312TIP3   OH2 9880   4.369   7.767   5.720
 3312TIP3    H1 9881   4.418   7.842   5.753
 3312TIP3    H2 9882   4.291   7.764   5.775
 3313TIP3   OH2 9883   2.857   2.746   6.346
 3313TIP3    H1 9884   2.936   2.798   6.334
 3313TIP3    H2 9885   2.792   2.785   6.288
 3314TIP3   OH2 9886   8.170   2.611   0.371
 3314TIP3    H1 9887   8.172   2.580   0.462
 3314TIP3    H2 9888   8.097   2.673   0.369
 3315TIP3   OH2 9889   5.450   1.130   2.239
 3315TIP3    H1 9890   5.441   1.224   2.222
 3315TIP3    H2 9891   5.486   1.094   2.158
 3316TIP3   OH2 9892   0.871   4.639   2.376
 3316TIP3    H1 9893   0.779   4.646   2.351
 3316TIP3    H2 9894   0.888   4.718   2.427
 3317TIP3   OH2 9895   0.949   2.874   4.669
 3317TIP3    H1 9896   0.991   2.829   4.596
 3317TIP3    H2 9897   1.002   2.952   4.684
 3318TIP3   OH2 9898   6.692   7.438   3.961
 3318TIP3    H1 9899   6.753   7.509   3.980
 3318TIP3    H2 9900   6.675   7.397   4.046
 3319TIP3   OH2 9901   5.501   0.482   5.924
 3319TIP3    H1 9902   5.479   0.397   5.888
 3319TIP3    H2 9903   5.585   0.469   5.968
 3320TIP3   OH2 9904   1.500   0.445   6.127
 3320TIP3    H1 9905   1.454   0.431   6.044
 3320TIP3    H2 9906   1.488   0.538   6.146
 3321TIP3   OH2 9907   0.436   0.215   0.889
 3321TIP3    H1 9908   0.361   0.225   0.829
 3321TIP3    H2 9909   0.402   0.161   0.960
 3322TIP3   OH2 9910   3.240   7.282   0.803
 3322TIP3    H1 9911   3.310   7.346   0.796
 3322TIP3    H2 9912   3.272   7.205   0.757
 3323TIP3   OH2 9913   5.574   2.934   3.427
 3323TIP3    H1 9914   5.552   3.010   3.372
 3323TIP3    H2 9915   5.584   2.862   3.365
 3324TIP3   OH2 9916   1.546   5.079   1.872
 3324TIP3    H1 9917   1.638   5.090   1.849
 3324TIP3    H2 9918   1.504   5.051   1.790
 3325TIP3   OH2 9919   8.075   1.863   6.079
 3325TIP3    H1 9920   8.089   1.908   5.996
 3325TIP3    H2 9921   7.986   1.828   6.074
 3326TIP3   OH2 9922   3.595   2.063   2.065
 3326TIP3    H1 9923   3.678   2.061   2.113
 3326TIP3    H2 9924   3.532   2.101   2.126
 3327TIP3   OH2 9925   8.016   4.190   2.926
 3327TIP3    H1 9926   7.938   4.200   2.872
 3327TIP3    H2 9927   7.988   4.215   3.014
 3328TIP3   OH2 9928   3.377   6.102   0.738
 3328TIP3    H1 9929   3.424   6.019   0.741
 3328TIP3    H2 9930   3.295   6.085   0.785
 3329TIP3   OH2 9931   3.513   2.204   0.405
 3329TIP3    H1 9932   3.454   2.241   0.339
 3329TIP3    H2 9933   3.564   2.279   0.436
 3330TIP3   OH2 9934   8.109   3.070   3.646
 3330TIP3    H1 9935   8.029   3.073   3.700
 3330TIP3    H2 9936   8.077   3.069   3.556
 3331TIP3   OH2 9937   3.310   4.238   2.979
 3331TIP3    H1 9938   3.296   4.327   3.012
 3331TIP3    H2 9939   3.398   4.241   2.941
 3332TIP3   OH2 9940   0.540   1.165   3.980
 3332TIP3    H1 9941   0.478   1.199   3.916
 3332TIP3    H2 9942   0.621   1.153   3.930
 3333TIP3   OH2 9943   2.141   4.081   0.436
 3333TIP3    H1 9944   2.102   4.158   0.395
 3333TIP3    H2 9945   2.202   4.117   0.500
 3334TIP3   OH2 9946   5.135   5.970   4.164
 3334TIP3    H1 9947   5.123   5.963   4.069
 3334TIP3    H2 9948   5.072   5.908   4.200
 3335TIP3   OH2 9949   7.748   2.730   6.705
 3335TIP3    H1 9950   7.818   2.740   6.640
 3335TIP3    H2 9951   7.793   2.730   6.789
 3336TIP3   OH2 9952   7.927   1.366   6.296
 3336TIP3    H1 9953   7.952   1.444   6.247
 3336TIP3    H2 9954   7.919   1.297   6.230
 3337TIP3   OH2 9955   5.544   1.481   5.060
 3337TIP3    H1 9956   5.547   1.576   5.051
 3337TIP3    H2 9957   5.493   1.452   4.984
 3338TIP3   OH2 9958   4.932   1.209   0.910
 3338TIP3    H1 9959   4.999   1.183   0.848
 3338TIP3    H2 9960   4.929   1.305   0.905
 3339TIP3   OH2 9961   6.689   1.548   5.690
 3339TIP3    H1 9962   6.610   1.576   5.644
 3339TIP3    H2 9963   6.662   1.539   5.781
 3340TIP3   OH2 9964   5.122   2.053   0.853
 3340TIP3    H1 9965   5.141   2.006   0.772
 3340TIP3    H2 9966   5.091   2.139   0.825
 3341TIP3   OH2 9967   2.681   1.299   5.751
 3341TIP3    H1 9968   2.604   1.284   5.806
 3341TIP3    H2 9969   2.706   1.211   5.720
 3342TIP3   OH2 9970   4.508   5.632   5.182
 3342TIP3    H1 9971   4.499   5.710   5.128
 3342TIP3    H2 9972   4.544   5.566   5.122
 3343TIP3   OH2 9973   3.052   4.166   2.024
 3343TIP3    H1 9974   3.029   4.090   2.079
 3343TIP3    H2 9975   3.133   4.140   1.981
 3344TIP3   OH2 9976   0.115   6.908   1.378
 3344TIP3    H1 9977   0.142   6.885   1.290
 3344TIP3    H2 9978   0.179   6.972   1.407
 3345TIP3   OH2 9979   6.998   2.503   0.100
 3345TIP3    H1 9980   6.939   2.429   0.114
 3345TIP3    H2 9981   6.973   2.539   0.015
 3346TIP3   OH2 9982   5.883   5.089   6.364
 3346TIP3    H1 9983   5.977   5.074   6.373
 3346TIP3    H2 9984   5.854   5.113   6.452
 3347TIP3   OH2 9985   7.223   4.728   6.506
 3347TIP3    H1 9986   7.201   4.635   6.502
 3347TIP3    H2 9987   7.177   4.760   6.584
 3348TIP3   OH2 9988   3.812   2.177   3.387
 3348TIP3    H1 9989   3.778   2.147   3.471
 3348TIP3    H2 9990   3.798   2.271   3.387
 3349TIP3   OH2 9991   2.687   2.454   6.201
 3349TIP3    H1 9992   2.613   2.412   6.245
 3349TIP3    H2 9993   2.762   2.437   6.259
 3350TIP3   OH2 9994   4.890   7.057   1.653
 3350TIP3    H1 9995   4.864   7.057   1.561
 3350TIP3    H2 9996   4.875   6.967   1.683
 3351TIP3   OH2 9997   1.782   5.714   0.724
 3351TIP3    H1 9998   1.846   5.695   0.655
 3351TIP3    H2 9999   1.699   5.685   0.688
 3352TIP3   OH210000   6.651   1.496   1.486
 3352TIP3    H110001   6.722   1.560   1.491
 3352TIP3    H210002   6.572   1.548   1.473
 3353TIP3   OH210003   7.673   5.199   3.389
 3353TIP3    H110004   7.662   5.120   3.442
 3353TIP3    H210005   7.704   5.167   3.304
 3354TIP3   OH210006   0.206   4.572   6.582
 3354TIP3    H110007   0.125   4.611   6.551
 3354TIP3    H210008   0.195   4.566   6.677
 3355TIP3   OH210009   0.488   6.098   4.577
 3355TIP3    H110010   0.429   6.031   4.612
 3355TIP3    H210011   0.432   6.175   4.564
 3356TIP3   OH210012   0.918   2.609   6.433
 3356TIP3    H110013   0.872   2.691   6.412
 3356TIP3    H210014   0.954   2.579   6.350
 3357TIP3   OH210015   5.366   3.425   1.868
 3357TIP3    H110016   5.280   3.397   1.898
 3357TIP3    H210017   5.353   3.514   1.835
 3358TIP3   OH210018   6.756   5.377   1.204
 3358TIP3    H110019   6.678   5.402   1.155
 3358TIP3    H210020   6.740   5.285   1.227
 3359TIP3   OH210021   8.133   1.702   1.142
 3359TIP3    H110022   8.215   1.692   1.094
 3359TIP3    H210023   8.082   1.624   1.119
 3360TIP3   OH210024   6.138   5.370   2.218
 3360TIP3    H110025   6.184   5.419   2.286
 3360TIP3    H210026   6.207   5.341   2.158
 3361TIP3   OH210027   7.590   7.368   1.100
 3361TIP3    H110028   7.524   7.423   1.142
 3361TIP3    H210029   7.552   7.346   1.015
 3362TIP3   OH210030   6.722   3.339   3.894
 3362TIP3    H110031   6.795   3.366   3.950
 3362TIP3    H210032   6.708   3.247   3.916
 3363TIP3   OH210033   3.942   3.731   0.312
 3363TIP3    H110034   4.028   3.700   0.340
 3363TIP3    H210035   3.939   3.823   0.338
 3364TIP3   OH210036   7.759   6.851   4.243
 3364TIP3    H110037   7.717   6.937   4.246
 3364TIP3    H210038   7.852   6.870   4.233
 3365TIP3   OH210039   7.808   7.765   6.734
 3365TIP3    H110040   7.716   7.779   6.756
 3365TIP3    H210041   7.857   7.812   6.801
 3366TIP3   OH210042   3.612   7.781   6.489
 3366TIP3    H110043   3.534   7.752   6.537
 3366TIP3    H210044   3.603   7.876   6.483
 3367TIP3   OH210045   0.376   7.008   1.735
 3367TIP3    H110046   0.326   7.068   1.679
 3367TIP3    H210047   0.461   7.000   1.691
 3368TIP3   OH210048   7.849   0.186   2.294
 3368TIP3    H110049   7.866   0.127   2.368
 3368TIP3    H210050   7.928   0.179   2.240
 3369TIP3   OH210051   6.194   4.842   3.070
 3369TIP3    H110052   6.199   4.802   3.157
 3369TIP3    H210053   6.112   4.891   3.071
 3370TIP3   OH210054   3.237   5.395   5.843
 3370TIP3    H110055   3.303   5.385   5.912
 3370TIP3    H210056   3.285   5.434   5.770
 3371TIP3   OH210057   3.442   2.645   3.121
 3371TIP3    H110058   3.435   2.670   3.029
 3371TIP3    H210059   3.381   2.703   3.166
 3372TIP3   OH210060   2.563   4.479   6.605
 3372TIP3    H110061   2.618   4.433   6.668
 3372TIP3    H210062   2.599   4.456   6.520
 3373TIP3   OH210063   5.185   4.591   1.381
 3373TIP3    H110064   5.132   4.591   1.460
 3373TIP3    H210065   5.225   4.678   1.379
 3374TIP3   OH210066   0.120   6.295   4.685
 3374TIP3    H110067   0.208   6.317   4.716
 3374TIP3    H210068   0.124   6.305   4.590
 3375TIP3   OH210069   0.005   3.067   4.084
 3375TIP3    H110070  -0.027   3.111   4.006
 3375TIP3    H210071   0.100   3.077   4.081
 3376TIP3   OH210072   3.644   2.929   0.924
 3376TIP3    H110073   3.587   2.901   0.995
 3376TIP3    H210074   3.727   2.882   0.939
 3377TIP3   OH210075   3.610   0.302   2.941
 3377TIP3    H110076   3.547   0.374   2.947
 3377TIP3    H210077   3.677   0.335   2.881
 3378TIP3   OH210078   2.177   3.317   5.808
 3378TIP3    H110079   2.081   3.313   5.803
 3378TIP3    H210080   2.195   3.324   5.902
 3379TIP3   OH210081   2.360   1.580   6.684
 3379TIP3    H110082   2.308   1.502   6.669
 3379TIP3    H210083   2.361   1.592   6.779
 3380TIP3   OH210084   1.196   2.910   6.492
 3380TIP3    H110085   1.128   2.901   6.558
 3380TIP3    H210086   1.153   2.890   6.409
 3381TIP3   OH210087   2.259   4.017   3.349
 3381TIP3    H110088   2.344   3.981   3.376
 3381TIP3    H210089   2.238   4.082   3.416
 3382TIP3   OH210090   2.066   7.158   4.197
 3382TIP3    H110091   2.161   7.165   4.189
 3382TIP3    H210092   2.039   7.239   4.241
 3383TIP3   OH210093   7.957   4.765   0.327
 3383TIP3    H110094   7.965   4.686   0.273
 3383TIP3    H210095   7.879   4.749   0.380
 3384TIP3   OH210096   5.185   0.458   3.649
 3384TIP3    H110097   5.190   0.374   3.696
 3384TIP3    H210098   5.092   0.477   3.643
 3385TIP3   OH210099   8.268   0.775   5.547
 3385TIP3    H110100   8.283   0.861   5.586
 3385TIP3    H210101   8.178   0.753   5.571
 3386TIP3   OH210102   6.098   1.802   0.076
 3386TIP3    H110103   6.060   1.715   0.073
 3386TIP3    H210104   6.099   1.825   0.169
 3387TIP3   OH210105   7.007   5.394   2.484
 3387TIP3    H110106   7.031   5.418   2.573
 3387TIP3    H210107   6.914   5.417   2.477
 3388TIP3   OH210108   3.747   3.872   5.446
 3388TIP3    H110109   3.814   3.932   5.413
 3388TIP3    H210110   3.670   3.927   5.461
 3389TIP3   OH210111   0.833   3.222   4.825
 3389TIP3    H110112   0.783   3.236   4.905
 3389TIP3    H210113   0.916   3.185   4.854
 3390TIP3   OH210114   0.891   5.986   1.348
 3390TIP3    H110115   0.982   5.978   1.376
 3390TIP3    H210116   0.886   5.935   1.267
 3391TIP3   OH210117   2.917   4.916   4.527
 3391TIP3    H110118   2.848   4.891   4.466
 3391TIP3    H210119   2.933   5.009   4.509
 3392TIP3   OH210120   3.343   0.336   3.133
 3392TIP3    H110121   3.248   0.329   3.131
 3392TIP3    H210122   3.367   0.381   3.052
 3393TIP3   OH210123   3.031   2.629   4.900
 3393TIP3    H110124   2.984   2.603   4.979
 3393TIP3    H210125   2.988   2.710   4.872
 3394TIP3   OH210126   5.735   7.296   2.125
 3394TIP3    H110127   5.721   7.278   2.032
 3394TIP3    H210128   5.804   7.363   2.127
 3395TIP3   OH210129   7.416   3.382   5.650
 3395TIP3    H110130   7.482   3.344   5.708
 3395TIP3    H210131   7.360   3.308   5.627
 3396TIP3   OH210132   8.265   7.634   5.925
 3396TIP3    H110133   8.185   7.650   5.976
 3396TIP3    H210134   8.242   7.563   5.865
 3397TIP3   OH210135   3.382   0.166   0.411
 3397TIP3    H110136   3.444   0.106   0.453
 3397TIP3    H210137   3.307   0.111   0.388
 3398TIP3   OH210138   5.701   1.326   5.514
 3398TIP3    H110139   5.746   1.297   5.434
 3398TIP3    H210140   5.616   1.356   5.485
 3399TIP3   OH210141   2.833   7.166   4.378
 3399TIP3    H110142   2.830   7.071   4.368
 3399TIP3    H210143   2.749   7.188   4.418
 3400TIP3   OH210144   7.011   5.471   4.793
 3400TIP3    H110145   7.060   5.390   4.791
 3400TIP3    H210146   7.066   5.532   4.842
 3401TIP3   OH210147   0.365   0.354   5.671
 3401TIP3    H110148   0.441   0.352   5.612
 3401TIP3    H210149   0.395   0.404   5.747
 3402TIP3   OH210150   3.155   0.306   3.736
 3402TIP3    H110151   3.148   0.388   3.688
 3402TIP3    H210152   3.077   0.304   3.791
 3403TIP3   OH210153   0.806   2.344   6.390
 3403TIP3    H110154   0.871   2.412   6.405
 3403TIP3    H210155   0.792   2.344   6.296
 3404TIP3   OH210156   7.566   1.282   0.885
 3404TIP3    H110157   7.477   1.316   0.885
 3404TIP3    H210158   7.617   1.349   0.930
 3405TIP3   OH210159   5.273   4.775   2.457
 3405TIP3    H110160   5.361   4.810   2.470
 3405TIP3    H210161   5.216   4.851   2.461
 3406TIP3   OH210162   2.536   2.720   0.260
 3406TIP3    H110163   2.571   2.765   0.337
 3406TIP3    H210164   2.531   2.788   0.193
 3407TIP3   OH210165   2.532   5.051   4.260
 3407TIP3    H110166   2.539   5.134   4.308
 3407TIP3    H210167   2.442   5.023   4.275
 3408TIP3   OH210168   3.351   5.205   0.977
 3408TIP3    H110169   3.267   5.230   1.014
 3408TIP3    H210170   3.329   5.140   0.910
 3409TIP3   OH210171   7.658   4.018   2.562
 3409TIP3    H110172   7.622   3.971   2.487
 3409TIP3    H210173   7.753   4.017   2.548
 3410TIP3   OH210174   2.196   1.664   5.182
 3410TIP3    H110175   2.166   1.714   5.105
 3410TIP3    H210176   2.180   1.723   5.256
 3411TIP3   OH210177   0.772   1.052   0.086
 3411TIP3    H110178   0.762   0.958   0.079
 3411TIP3    H210179   0.851   1.063   0.140
 3412TIP3   OH210180   7.771   2.421   0.593
 3412TIP3    H110181   7.836   2.481   0.630
 3412TIP3    H210182   7.769   2.441   0.500
 3413TIP3   OH210183   8.076   0.766   1.478
 3413TIP3    H110184   8.120   0.804   1.554
 3413TIP3    H210185   7.987   0.803   1.482
 3414TIP3   OH210186   7.046   5.751   2.949
 3414TIP3    H110187   7.081   5.835   2.980
 3414TIP3    H210188   7.036   5.699   3.029
 3415TIP3   OH210189   5.974   4.644   2.047
 3415TIP3    H110190   5.988   4.551   2.033
 3415TIP3    H210191   5.899   4.666   1.992
 3416TIP3   OH210192   6.963   7.385   4.118
 3416TIP3    H110193   6.990   7.425   4.036
 3416TIP3    H210194   6.971   7.291   4.103
 3417TIP3   OH210195   3.104   3.996   6.659
 3417TIP3    H110196   3.057   3.915   6.680
 3417TIP3    H210197   3.109   4.042   6.743
 3418TIP3   OH210198   2.277   1.615   4.377
 3418TIP3    H110199   2.250   1.573   4.459
 3418TIP3    H210200   2.373   1.618   4.382
 3419TIP3   OH210201   2.966   4.196   1.436
 3419TIP3    H110202   3.026   4.182   1.363
 3419TIP3    H210203   2.956   4.291   1.441
 3420TIP3   OH210204   5.626   4.295   1.115
 3420TIP3    H110205   5.535   4.285   1.086
 3420TIP3    H210206   5.619   4.305   1.210
 3421TIP3   OH210207   6.925   0.402   1.900
 3421TIP3    H110208   6.935   0.497   1.900
 3421TIP3    H210209   6.835   0.387   1.927
 3422TIP3   OH210210   6.372   2.117   4.253
 3422TIP3    H110211   6.402   2.206   4.237
 3422TIP3    H210212   6.429   2.084   4.323
 3423TIP3   OH210213   4.279   2.599   3.856
 3423TIP3    H110214   4.327   2.519   3.832
 3423TIP3    H210215   4.212   2.608   3.789
 3424TIP3   OH210216   7.374   5.944   0.222
 3424TIP3    H110217   7.338   5.909   0.141
 3424TIP3    H210218   7.466   5.918   0.220
 3425TIP3   OH210219   0.385   3.378   2.190
 3425TIP3    H110220   0.400   3.376   2.284
 3425TIP3    H210221   0.324   3.451   2.177
 3426TIP3   OH210222   3.397   6.629   2.906
 3426TIP3    H110223   3.392   6.660   2.815
 3426TIP3    H210224   3.353   6.544   2.906
 3427TIP3   OH210225   5.517   0.549   4.044
 3427TIP3    H110226   5.426   0.538   4.015
 3427TIP3    H210227   5.510   0.604   4.122
 3428TIP3   OH210228   6.543  -0.016   2.313
 3428TIP3    H110229   6.625   0.029   2.294
 3428TIP3    H210230   6.476   0.036   2.267
 3429TIP3   OH210231   4.322   0.233   3.739
 3429TIP3    H110232   4.399   0.283   3.714
 3429TIP3    H210233   4.293   0.272   3.822
 3430TIP3   OH210234   3.942   3.517   3.789
 3430TIP3    H110235   3.947   3.424   3.768
 3430TIP3    H210236   3.876   3.553   3.730
 3431TIP3   OH210237   4.142   3.098   2.486
 3431TIP3    H110238   4.097   3.014   2.480
 3431TIP3    H210239   4.134   3.137   2.399
 3432TIP3   OH210240   3.571   4.742   5.743
 3432TIP3    H110241   3.492   4.794   5.759
 3432TIP3    H210242   3.542   4.651   5.753
 3433TIP3   OH210243   6.245   6.540   3.116
 3433TIP3    H110244   6.305   6.514   3.045
 3433TIP3    H210245   6.268   6.632   3.134
 3434TIP3   OH210246   6.784   4.632   3.928
 3434TIP3    H110247   6.752   4.581   4.003
 3434TIP3    H210248   6.759   4.722   3.948
 3435TIP3   OH210249   6.268   4.462   4.016
 3435TIP3    H110250   6.322   4.538   3.994
 3435TIP3    H210251   6.291   4.441   4.107
 3436TIP3   OH210252   8.093   7.341   6.531
 3436TIP3    H110253   8.052   7.424   6.558
 3436TIP3    H210254   8.035   7.274   6.568
 3437TIP3   OH210255   3.606   5.042   2.736
 3437TIP3    H110256   3.534   5.042   2.799
 3437TIP3    H210257   3.668   4.978   2.771
 3438TIP3   OH210258   8.273   4.664   4.921
 3438TIP3    H110259   8.239   4.575   4.912
 3438TIP3    H210260   8.201   4.720   4.892
 3439TIP3   OH210261   3.493   6.801   6.182
 3439TIP3    H110262   3.495   6.778   6.090
 3439TIP3    H210263   3.565   6.864   6.193
 3440TIP3   OH210264   7.756   4.386   4.832
 3440TIP3    H110265   7.836   4.416   4.791
 3440TIP3    H210266   7.723   4.317   4.774
 3441TIP3   OH210267   4.831   6.051   1.329
 3441TIP3    H110268   4.841   5.964   1.292
 3441TIP3    H210269   4.738   6.058   1.350
 3442TIP3   OH210270   6.134   5.014   6.396
 3442TIP3    H110271   6.211   4.961   6.416
 3442TIP3    H210272   6.160   5.103   6.418
 3443TIP3   OH210273   5.256   5.633   5.474
 3443TIP3    H110274   5.231   5.716   5.515
 3443TIP3    H210275   5.229   5.642   5.382
 3444TIP3   OH210276   3.233   7.110   1.243
 3444TIP3    H110277   3.190   7.027   1.222
 3444TIP3    H210278   3.305   7.086   1.302
 3445TIP3   OH210279   7.664   5.719   4.317
 3445TIP3    H110280   7.677   5.649   4.254
 3445TIP3    H210281   7.584   5.695   4.365
 3446TIP3   OH210282   0.061   6.841   6.767
 3446TIP3    H110283   0.128   6.807   6.708
 3446TIP3    H210284   0.095   6.824   6.855
 3447TIP3   OH210285   3.727   4.202   0.959
 3447TIP3    H110286   3.645   4.239   0.994
 3447TIP3    H210287   3.707   4.109   0.945
 3448TIP3   OH210288   5.065   4.452   0.558
 3448TIP3    H110289   5.055   4.357   0.558
 3448TIP3    H210290   5.050   4.479   0.648
 3449TIP3   OH210291   7.984   0.767   0.734
 3449TIP3    H110292   8.034   0.740   0.811
 3449TIP3    H210293   8.008   0.858   0.721
 3450TIP3   OH210294   3.507   3.872   2.120
 3450TIP3    H110295   3.463   3.815   2.057
 3450TIP3    H210296   3.523   3.816   2.195
 3451TIP3   OH210297   4.628   1.575   4.703
 3451TIP3    H110298   4.664   1.490   4.677
 3451TIP3    H210299   4.537   1.573   4.673
 3452TIP3   OH210300   5.907   1.170   1.235
 3452TIP3    H110301   5.976   1.178   1.169
 3452TIP3    H210302   5.945   1.115   1.303
 3453TIP3   OH210303   0.183   0.680   6.147
 3453TIP3    H110304   0.134   0.656   6.225
 3453TIP3    H210305   0.117   0.719   6.089
 3454TIP3   OH210306   5.452   6.049   4.988
 3454TIP3    H110307   5.525   6.069   5.046
 3454TIP3    H210308   5.414   5.969   5.024
 3455TIP3   OH210309   5.457   6.884   1.324
 3455TIP3    H110310   5.379   6.837   1.293
 3455TIP3    H210311   5.422   6.953   1.381
 3456TIP3   OH210312   1.407   3.352   3.218
 3456TIP3    H110313   1.355   3.274   3.199
 3456TIP3    H210314   1.364   3.392   3.294
 3457TIP3   OH210315   8.303   7.459   3.015
 3457TIP3    H110316   8.236   7.390   3.014
 3457TIP3    H210317   8.277   7.516   3.087
 3458TIP3   OH210318   4.756   5.243   3.011
 3458TIP3    H110319   4.790   5.178   3.073
 3458TIP3    H210320   4.822   5.246   2.942
 3459TIP3   OH210321   4.907   4.315   5.969
 3459TIP3    H110322   4.929   4.274   6.053
 3459TIP3    H210323   4.814   4.299   5.958
 3460TIP3   OH210324   2.477   5.285   4.091
 3460TIP3    H110325   2.504   5.376   4.095
 3460TIP3    H210326   2.393   5.282   4.136
 3461TIP3   OH210327   0.811   6.211   0.287
 3461TIP3    H110328   0.770   6.286   0.330
 3461TIP3    H210329   0.737   6.154   0.264
 3462TIP3   OH210330   7.568   5.966   5.297
 3462TIP3    H110331   7.535   5.967   5.207
 3462TIP3    H210332   7.637   6.032   5.298
 3463TIP3   OH210333   1.651   4.947   0.458
 3463TIP3    H110334   1.710   4.912   0.391
 3463TIP3    H210335   1.687   5.033   0.479
 3464TIP3   OH210336   5.189   6.333   0.505
 3464TIP3    H110337   5.139   6.414   0.491
 3464TIP3    H210338   5.277   6.363   0.529
 3465TIP3   OH210339   8.150   6.065   6.030
 3465TIP3    H110340   8.096   5.989   6.006
 3465TIP3    H210341   8.218   6.066   5.962
 3466TIP3   OH210342   2.491   4.401   2.602
 3466TIP3    H110343   2.571   4.348   2.604
 3466TIP3    H210344   2.487   4.441   2.688
 3467TIP3   OH210345   7.484   2.023   1.317
 3467TIP3    H110346   7.478   1.960   1.245
 3467TIP3    H210347   7.461   1.973   1.395
 3468TIP3   OH210348   3.083   6.191   3.592
 3468TIP3    H110349   3.058   6.125   3.656
 3468TIP3    H210350   3.159   6.154   3.548
 3469TIP3   OH210351   0.193   0.807   1.531
 3469TIP3    H110352   0.122   0.807   1.467
 3469TIP3    H210353   0.273   0.820   1.479
 3470TIP3   OH210354   0.229  -0.009   5.209
 3470TIP3    H110355   0.186   0.073   5.187
 3470TIP3    H210356   0.262  -0.042   5.125
 3471TIP3   OH210357   3.601   5.272   5.728
 3471TIP3    H110358   3.624   5.267   5.635
 3471TIP3    H210359   3.650   5.347   5.762
 3472TIP3   OH210360   2.082   7.806   2.094
 3472TIP3    H110361   2.068   7.818   2.188
 3472TIP3    H210362   2.045   7.885   2.055
 3473TIP3   OH210363   4.452   1.392   0.539
 3473TIP3    H110364   4.459   1.399   0.444
 3473TIP3    H210365   4.516   1.455   0.573
 3474TIP3   OH210366   5.994   1.750   6.057
 3474TIP3    H110367   5.909   1.753   6.012
 3474TIP3    H210368   6.005   1.838   6.093
 3475TIP3   OH210369   4.296   0.110   3.099
 3475TIP3    H110370   4.357   0.161   3.152
 3475TIP3    H210371   4.214   0.112   3.148
 3476TIP3   OH210372   4.660   7.414   6.752
 3476TIP3    H110373   4.722   7.466   6.803
 3476TIP3    H210374   4.693   7.416   6.663
 3477TIP3   OH210375   4.077   2.025   2.138
 3477TIP3    H110376   4.172   2.028   2.147
 3477TIP3    H210377   4.061   2.022   2.044
 3478TIP3   OH210378   8.026   4.185   5.433
 3478TIP3    H110379   8.074   4.201   5.514
 3478TIP3    H210380   8.015   4.090   5.431
 3479TIP3   OH210381   1.304   4.564   0.860
 3479TIP3    H110382   1.212   4.545   0.842
 3479TIP3    H210383   1.309   4.567   0.955
 3480TIP3   OH210384   4.586   5.922   6.660
 3480TIP3    H110385   4.679   5.923   6.637
 3480TIP3    H210386   4.568   5.831   6.685
 3481TIP3   OH210387   8.162   2.205   2.483
 3481TIP3    H110388   8.222   2.254   2.426
 3481TIP3    H210389   8.154   2.120   2.440
 3482TIP3   OH210390   0.424   4.676   0.616
 3482TIP3    H110391   0.454   4.753   0.568
 3482TIP3    H210392   0.385   4.620   0.549
 3483TIP3   OH210393   8.191   5.315   1.439
 3483TIP3    H110394   8.243   5.302   1.360
 3483TIP3    H210395   8.124   5.246   1.435
 3484TIP3   OH210396   4.167   5.554   0.084
 3484TIP3    H110397   4.235   5.540   0.019
 3484TIP3    H210398   4.085   5.544   0.035
 3485TIP3   OH210399   7.578   1.934   4.659
 3485TIP3    H110400   7.519   1.945   4.585
 3485TIP3    H210401   7.632   2.013   4.660
 3486TIP3   OH210402   6.669   1.414   3.595
 3486TIP3    H110403   6.640   1.354   3.527
 3486TIP3    H210404   6.763   1.425   3.579
 3487TIP3   OH210405   3.467   1.774   5.430
 3487TIP3    H110406   3.461   1.816   5.344
 3487TIP3    H210407   3.453   1.681   5.413
 3488TIP3   OH210408   2.352   5.138   6.175
 3488TIP3    H110409   2.362   5.072   6.105
 3488TIP3    H210410   2.344   5.087   6.255
 3489TIP3   OH210411   3.117   4.747   4.669
 3489TIP3    H110412   3.046   4.785   4.617
 3489TIP3    H210413   3.179   4.713   4.604
 3490TIP3   OH210414   8.051   5.599   1.247
 3490TIP3    H110415   8.112   5.531   1.218
 3490TIP3    H210416   8.065   5.605   1.341
 3491TIP3   OH210417   6.551   3.711   5.048
 3491TIP3    H110418   6.570   3.770   4.975
 3491TIP3    H210419   6.479   3.755   5.095
 3492TIP3   OH210420   3.136   5.988   6.032
 3492TIP3    H110421   3.219   5.963   5.989
 3492TIP3    H210422   3.162   6.016   6.119
 3493TIP3   OH210423   3.509   4.553   6.193
 3493TIP3    H110424   3.504   4.648   6.201
 3493TIP3    H210425   3.455   4.533   6.117
 3494TIP3   OH210426   4.563   7.293   6.059
 3494TIP3    H110427   4.551   7.351   6.134
 3494TIP3    H210428   4.526   7.341   5.985
 3495TIP3   OH210429   7.330   5.287   4.359
 3495TIP3    H110430   7.358   5.292   4.267
 3495TIP3    H210431   7.289   5.372   4.377
 3496TIP3   OH210432   1.610   0.414   0.558
 3496TIP3    H110433   1.557   0.448   0.630
 3496TIP3    H210434   1.549   0.405   0.485
 3497TIP3   OH210435   7.127   2.332   3.089
 3497TIP3    H110436   7.095   2.418   3.063
 3497TIP3    H210437   7.210   2.322   3.042
 3498TIP3   OH210438   0.411  -0.010   6.131
 3498TIP3    H110439   0.500  -0.028   6.162
 3498TIP3    H210440   0.386   0.071   6.176
 3499TIP3   OH210441   4.254   2.231   0.965
 3499TIP3    H110442   4.257   2.189   1.051
 3499TIP3    H210443   4.169   2.274   0.962
 3500TIP3   OH210444   1.523   6.454   0.806
 3500TIP3    H110445   1.539   6.412   0.890
 3500TIP3    H210446   1.470   6.531   0.828
 3501TIP3   OH210447   4.651   3.259   2.695
 3501TIP3    H110448   4.643   3.284   2.603
 3501TIP3    H210449   4.743   3.274   2.716
 3502TIP3   OH210450   0.068   1.147   0.298
 3502TIP3    H110451  -0.012   1.177   0.341
 3502TIP3    H210452   0.133   1.213   0.321
 3503TIP3   OH210453   5.287   1.950   3.225
 3503TIP3    H110454   5.292   1.894   3.303
 3503TIP3    H210455   5.230   1.903   3.165
 3504TIP3   OH210456   1.639   0.912   6.670
 3504TIP3    H110457   1.635   0.963   6.589
 3504TIP3    H210458   1.677   0.828   6.643
 3505TIP3   OH210459   4.818   5.702   3.303
 3505TIP3    H110460   4.790   5.718   3.212
 3505TIP3    H210461   4.762   5.631   3.333
 3506TIP3   OH210462   3.698   1.288   6.595
 3506TIP3    H110463   3.757   1.290   6.670
 3506TIP3    H210464   3.611   1.300   6.632
 3507TIP3   OH210465   4.824   0.061   5.554
 3507TIP3    H110466   4.837   0.089   5.645
 3507TIP3    H210467   4.907   0.019   5.530
 3508TIP3   OH210468   4.884   1.086   3.854
 3508TIP3    H110469   4.947   1.156   3.837
 3508TIP3    H210470   4.839   1.073   3.771
 3509TIP3   OH210471   5.084   0.475   5.244
 3509TIP3    H110472   5.108   0.480   5.151
 3509TIP3    H210473   5.166   0.453   5.288
 3510TIP3   OH210474   3.743   1.773   0.547
 3510TIP3    H110475   3.800   1.706   0.509
 3510TIP3    H210476   3.672   1.782   0.484
 3511TIP3   OH210477   7.515   7.217   0.381
 3511TIP3    H110478   7.578   7.214   0.453
 3511TIP3    H210479   7.493   7.310   0.372
 3512TIP3   OH210480   0.431   5.720   4.218
 3512TIP3    H110481   0.463   5.809   4.230
 3512TIP3    H210482   0.504   5.664   4.246
 3513TIP3   OH210483   1.228   0.526   5.185
 3513TIP3    H110484   1.188   0.533   5.271
 3513TIP3    H210485   1.195   0.602   5.137
 3514TIP3   OH210486   2.472   0.232   3.015
 3514TIP3    H110487   2.423   0.155   2.986
 3514TIP3    H210488   2.541   0.243   2.950
 3515TIP3   OH210489   2.120   2.409   0.405
 3515TIP3    H110490   2.025   2.407   0.415
 3515TIP3    H210491   2.140   2.332   0.351
 3516TIP3   OH210492   3.300   4.497   1.082
 3516TIP3    H110493   3.390   4.530   1.089
 3516TIP3    H210494   3.245   4.575   1.092
 3517TIP3   OH210495   2.507   4.022   1.117
 3517TIP3    H110496   2.518   3.948   1.056
 3517TIP3    H210497   2.533   4.099   1.066
 3518TIP3   OH210498   6.015   1.396   3.319
 3518TIP3    H110499   6.026   1.301   3.308
 3518TIP3    H210500   6.096   1.425   3.360
 3519TIP3   OH210501   0.584   1.988   6.312
 3519TIP3    H110502   0.668   2.033   6.305
 3519TIP3    H210503   0.567   1.982   6.407
 3520TIP3   OH210504   3.318   7.757   3.387
 3520TIP3    H110505   3.260   7.735   3.460
 3520TIP3    H210506   3.392   7.801   3.427
 3521TIP3   OH210507   6.066   0.786   2.129
 3521TIP3    H110508   6.082   0.879   2.145
 3521TIP3    H210509   6.152   0.745   2.134
 3522TIP3   OH210510   1.431   1.756   5.440
 3522TIP3    H110511   1.487   1.764   5.517
 3522TIP3    H210512   1.424   1.845   5.406
 3523TIP3   OH210513   4.310   0.586   6.475
 3523TIP3    H110514   4.359   0.626   6.547
 3523TIP3    H210515   4.224   0.626   6.479
 3524TIP3   OH210516   4.340   3.637   3.818
 3524TIP3    H110517   4.397   3.658   3.744
 3524TIP3    H210518   4.373   3.553   3.851
 3525TIP3   OH210519   7.569   1.636   0.573
 3525TIP3    H110520   7.649   1.594   0.603
 3525TIP3    H210521   7.507   1.622   0.644
 3526TIP3   OH210522   4.271   0.533   2.211
 3526TIP3    H110523   4.280   0.491   2.296
 3526TIP3    H210524   4.360   0.535   2.175
 3527TIP3   OH210525   4.925   0.934   4.107
 3527TIP3    H110526   5.020   0.930   4.104
 3527TIP3    H210527   4.899   0.946   4.015
 3528TIP3   OH210528   2.198   2.032   2.744
 3528TIP3    H110529   2.232   2.047   2.832
 3528TIP3    H210530   2.219   1.940   2.726
 3529TIP3   OH210531   5.078   7.267   4.666
 3529TIP3    H110532   4.986   7.287   4.687
 3529TIP3    H210533   5.128   7.302   4.740
 3530TIP3   OH210534   3.303   5.688   6.161
 3530TIP3    H110535   3.378   5.631   6.146
 3530TIP3    H210536   3.336   5.777   6.146
 3531TIP3   OH210537   4.347   3.977   5.125
 3531TIP3    H110538   4.262   3.973   5.081
 3531TIP3    H210539   4.410   3.997   5.055
 3532TIP3   OH210540   3.410   2.007   0.567
 3532TIP3    H110541   3.450   2.078   0.518
 3532TIP3    H210542   3.417   1.931   0.509
 3533TIP3   OH210543   2.394   2.286   6.736
 3533TIP3    H110544   2.386   2.200   6.695
 3533TIP3    H210545   2.442   2.270   6.817
 3534TIP3   OH210546   4.447   1.751   0.262
 3534TIP3    H110547   4.362   1.714   0.240
 3534TIP3    H210548   4.450   1.834   0.215
 3535TIP3   OH210549   6.343   4.053   4.757
 3535TIP3    H110550   6.404   4.119   4.789
 3535TIP3    H210551   6.390   3.970   4.768
 3536TIP3   OH210552   3.068   3.436   2.527
 3536TIP3    H110553   3.051   3.524   2.560
 3536TIP3    H210554   3.019   3.431   2.445
 3537TIP3   OH210555   2.024   3.028   2.688
 3537TIP3    H110556   1.972   3.036   2.608
 3537TIP3    H210557   2.039   3.119   2.715
 3538TIP3   OH210558   2.935   6.771   4.645
 3538TIP3    H110559   2.990   6.763   4.568
 3538TIP3    H210560   2.931   6.683   4.682
 3539TIP3   OH210561   4.716   4.872   2.305
 3539TIP3    H110562   4.704   4.890   2.398
 3539TIP3    H210563   4.637   4.906   2.263
 3540TIP3   OH210564   5.409   5.148   2.969
 3540TIP3    H110565   5.399   5.128   2.876
 3540TIP3    H210566   5.360   5.229   2.981
 3541TIP3   OH210567   1.970   6.336   5.463
 3541TIP3    H110568   1.948   6.282   5.387
 3541TIP3    H210569   1.897   6.397   5.471
 3542TIP3   OH210570   0.265   4.841   0.925
 3542TIP3    H110571   0.317   4.767   0.895
 3542TIP3    H210572   0.175   4.808   0.928
 3543TIP3   OH210573   4.349   1.167   6.049
 3543TIP3    H110574   4.283   1.204   5.990
 3543TIP3    H210575   4.362   1.077   6.018
 3544TIP3   OH210576   8.262   5.006   2.734
 3544TIP3    H110577   8.182   4.999   2.682
 3544TIP3    H210578   8.240   5.068   2.803
 3545TIP3   OH210579   0.221   2.839   4.542
 3545TIP3    H110580   0.216   2.909   4.477
 3545TIP3    H210581   0.204   2.883   4.626
 3546TIP3   OH210582   4.363   7.180   1.340
 3546TIP3    H110583   4.345   7.272   1.325
 3546TIP3    H210584   4.277   7.141   1.357
 3547TIP3   OH210585   3.948   5.019   1.974
 3547TIP3    H110586   3.939   5.069   1.893
 3547TIP3    H210587   4.022   4.961   1.959
 3548TIP3   OH210588   2.027   0.860   3.441
 3548TIP3    H110589   2.069   0.886   3.359
 3548TIP3    H210590   2.097   0.861   3.506
 3549TIP3   OH210591   5.676   6.211   4.223
 3549TIP3    H110592   5.707   6.158   4.296
 3549TIP3    H210593   5.741   6.282   4.215
 3550TIP3   OH210594   0.294   0.903   0.627
 3550TIP3    H110595   0.373   0.925   0.677
 3550TIP3    H210596   0.326   0.885   0.539
 3551TIP3   OH210597   5.174   5.193   4.283
 3551TIP3    H110598   5.239   5.125   4.298
 3551TIP3    H210599   5.142   5.176   4.194
 3552TIP3   OH210600   3.498   0.822   0.887
 3552TIP3    H110601   3.480   0.806   0.980
 3552TIP3    H210602   3.474   0.913   0.873
 3553TIP3   OH210603   4.987   5.412   1.960
 3553TIP3    H110604   5.041   5.488   1.937
 3553TIP3    H210605   5.033   5.337   1.921
 3554TIP3   OH210606   6.393   7.369   6.220
 3554TIP3    H110607   6.348   7.309   6.161
 3554TIP3    H210608   6.484   7.369   6.191
 3555TIP3   OH210609   7.634   4.825   5.738
 3555TIP3    H110610   7.672   4.894   5.684
 3555TIP3    H210611   7.623   4.865   5.824
 3556TIP3   OH210612   7.399   0.175   3.894
 3556TIP3    H110613   7.342   0.243   3.929
 3556TIP3    H210614   7.350   0.094   3.904
 3557TIP3   OH210615   1.830   6.403   3.830
 3557TIP3    H110616   1.880   6.322   3.840
 3557TIP3    H210617   1.891   6.472   3.857
 3558TIP3   OH210618   0.477   6.927   3.859
 3558TIP3    H110619   0.495   6.833   3.865
 3558TIP3    H210620   0.475   6.945   3.765
 3559TIP3   OH210621   5.833   6.667   5.602
 3559TIP3    H110622   5.737   6.671   5.607
 3559TIP3    H210623   5.853   6.574   5.614
 3560TIP3   OH210624   6.907   7.352   4.533
 3560TIP3    H110625   6.993   7.382   4.563
 3560TIP3    H210626   6.883   7.283   4.595
 3561TIP3   OH210627   7.279   1.062   0.981
 3561TIP3    H110628   7.369   1.049   0.951
 3561TIP3    H210629   7.271   1.156   0.994
 3562TIP3   OH210630   7.206   5.583   6.189
 3562TIP3    H110631   7.290   5.541   6.208
 3562TIP3    H210632   7.193   5.643   6.262
 3563TIP3   OH210633   3.354   5.354   4.040
 3563TIP3    H110634   3.433   5.323   4.083
 3563TIP3    H210635   3.383   5.431   3.989
 3564TIP3   OH210636   5.175   4.936   0.781
 3564TIP3    H110637   5.248   4.876   0.793
 3564TIP3    H210638   5.211   5.009   0.730
 3565TIP3   OH210639   2.849   5.935   3.332
 3565TIP3    H110640   2.817   5.851   3.300
 3565TIP3    H210641   2.809   5.999   3.274
 3566TIP3   OH210642   0.398   4.081   2.125
 3566TIP3    H110643   0.316   4.131   2.115
 3566TIP3    H210644   0.454   4.114   2.055
 3567TIP3   OH210645   0.728   0.291   5.641
 3567TIP3    H110646   0.720   0.275   5.735
 3567TIP3    H210647   0.764   0.209   5.607
 3568TIP3   OH210648   7.475   7.106   1.142
 3568TIP3    H110649   7.504   7.193   1.112
 3568TIP3    H210650   7.399   7.124   1.198
 3569TIP3   OH210651   2.017   5.367   4.892
 3569TIP3    H110652   2.016   5.462   4.881
 3569TIP3    H210653   2.048   5.353   4.981
 3570TIP3   OH210654   1.502   1.337   3.957
 3570TIP3    H110655   1.564   1.410   3.964
 3570TIP3    H210656   1.422   1.370   3.997
 3571TIP3   OH210657   0.088   6.314   3.457
 3571TIP3    H110658   0.009   6.303   3.510
 3571TIP3    H210659   0.077   6.251   3.385
 3572TIP3   OH210660   0.437   6.794   0.584
 3572TIP3    H110661   0.446   6.726   0.650
 3572TIP3    H210662   0.519   6.792   0.535
 3573TIP3   OH210663   5.025   0.626   5.815
 3573TIP3    H110664   5.067   0.630   5.729
 3573TIP3    H210665   5.075   0.560   5.863
 3574TIP3   OH210666   1.965   2.659   3.384
 3574TIP3    H110667   1.980   2.709   3.304
 3574TIP3    H210668   1.974   2.723   3.455
 3575TIP3   OH210669   3.933   6.056   5.792
 3575TIP3    H110670   3.924   5.971   5.834
 3575TIP3    H210671   3.933   6.036   5.698
 3576TIP3   OH210672   2.251   3.412   6.451
 3576TIP3    H110673   2.215   3.345   6.393
 3576TIP3    H210674   2.174   3.453   6.491
 3577TIP3   OH210675   8.074   3.675   4.862
 3577TIP3    H110676   8.094   3.658   4.770
 3577TIP3    H210677   8.158   3.699   4.901
 3578TIP3   OH210678   5.551   0.292   2.711
 3578TIP3    H110679   5.482   0.247   2.760
 3578TIP3    H210680   5.633   0.254   2.745
 3579TIP3   OH210681   6.902   4.690   5.041
 3579TIP3    H110682   6.869   4.778   5.059
 3579TIP3    H210683   6.898   4.646   5.126
 3580TIP3   OH210684   3.264   7.721   1.345
 3580TIP3    H110685   3.176   7.708   1.309
 3580TIP3    H210686   3.289   7.809   1.315
 3581TIP3   OH210687   4.782   4.681   3.043
 3581TIP3    H110688   4.868   4.650   3.070
 3581TIP3    H210689   4.768   4.641   2.957
 3582TIP3   OH210690   7.456   2.520   3.338
 3582TIP3    H110691   7.420   2.494   3.423
 3582TIP3    H210692   7.550   2.525   3.352
 3583TIP3   OH210693   0.078   1.341   1.178
 3583TIP3    H110694   0.127   1.313   1.101
 3583TIP3    H210695   0.008   1.276   1.186
 3584TIP3   OH210696   3.302   6.364   5.353
 3584TIP3    H110697   3.250   6.291   5.321
 3584TIP3    H210698   3.241   6.437   5.358
 3585TIP3   OH210699   2.297   3.843   5.661
 3585TIP3    H110700   2.210   3.812   5.635
 3585TIP3    H210701   2.358   3.785   5.615
 3586TIP3   OH210702   1.046   0.805   2.990
 3586TIP3    H110703   1.117   0.840   3.044
 3586TIP3    H210704   1.067   0.833   2.901
 3587TIP3   OH210705   1.778   6.200   4.473
 3587TIP3    H110706   1.840   6.139   4.434
 3587TIP3    H210707   1.765   6.267   4.406
 3588TIP3   OH210708   3.655   3.693   4.605
 3588TIP3    H110709   3.726   3.637   4.571
 3588TIP3    H210710   3.639   3.660   4.693
 3589TIP3   OH210711   7.020   7.351   1.218
 3589TIP3    H110712   7.013   7.299   1.138
 3589TIP3    H210713   6.937   7.398   1.224
 3590TIP3   OH210714   4.156   1.044   4.240
 3590TIP3    H110715   4.124   1.121   4.287
 3590TIP3    H210716   4.220   1.079   4.178
 3591TIP3   OH210717   5.029   6.676   2.136
 3591TIP3    H110718   5.093   6.743   2.110
 3591TIP3    H210719   5.076   6.623   2.201
 3592TIP3   OH210720   4.635   2.666   3.185
 3592TIP3    H110721   4.589   2.740   3.145
 3592TIP3    H210722   4.706   2.646   3.124
 3593TIP3   OH210723   0.498   3.682   4.147
 3593TIP3    H110724   0.443   3.726   4.211
 3593TIP3    H210725   0.563   3.635   4.199
 3594TIP3   OH210726   6.835   6.176   3.582
 3594TIP3    H110727   6.769   6.192   3.650
 3594TIP3    H210728   6.825   6.084   3.560
 3595TIP3   OH210729   0.918   6.659   2.355
 3595TIP3    H110730   0.964   6.579   2.332
 3595TIP3    H210731   0.841   6.660   2.299
 3596TIP3   OH210732   0.351   4.514   0.418
 3596TIP3    H110733   0.382   4.424   0.425
 3596TIP3    H210734   0.334   4.526   0.324
 3597TIP3   OH210735   7.899   3.879   2.034
 3597TIP3    H110736   7.957   3.952   2.013
 3597TIP3    H210737   7.817   3.899   1.988
 3598TIP3   OH210738   3.529   4.749   4.801
 3598TIP3    H110739   3.470   4.814   4.838
 3598TIP3    H210740   3.481   4.712   4.727
 3599TIP3   OH210741   7.633   6.258   2.401
 3599TIP3    H110742   7.697   6.195   2.434
 3599TIP3    H210743   7.634   6.329   2.465
 3600TIP3   OH210744   7.499   2.504   5.262
 3600TIP3    H110745   7.539   2.418   5.248
 3600TIP3    H210746   7.480   2.507   5.356
 3601TIP3   OH210747   6.166   6.445   0.599
 3601TIP3    H110748   6.083   6.449   0.552
 3601TIP3    H210749   6.211   6.369   0.563
 3602TIP3   OH210750   5.231   6.511   6.695
 3602TIP3    H110751   5.162   6.497   6.760
 3602TIP3    H210752   5.267   6.424   6.678
 3603TIP3   OH210753   4.782   0.923   4.581
 3603TIP3    H110754   4.737   1.007   4.582
 3603TIP3    H210755   4.711   0.858   4.585
 3604TIP3   OH210756   3.293   7.629   2.725
 3604TIP3    H110757   3.235   7.637   2.801
 3604TIP3    H210758   3.235   7.602   2.653
 3605TIP3   OH210759   5.251   7.282   4.460
 3605TIP3    H110760   5.205   7.314   4.383
 3605TIP3    H210761   5.192   7.300   4.533
 3606TIP3   OH210762   6.671   5.128   5.958
 3606TIP3    H110763   6.725   5.172   6.025
 3606TIP3    H210764   6.730   5.065   5.917
 3607TIP3   OH210765   1.485   2.783   3.622
 3607TIP3    H110766   1.512   2.753   3.709
 3607TIP3    H210767   1.389   2.784   3.626
 3608TIP3   OH210768   3.331   5.232   6.187
 3608TIP3    H110769   3.237   5.244   6.180
 3608TIP3    H210770   3.362   5.234   6.097
 3609TIP3   OH210771   0.643   5.338   1.292
 3609TIP3    H110772   0.649   5.291   1.209
 3609TIP3    H210773   0.582   5.410   1.275
 3610TIP3   OH210774   6.709   7.196   1.687
 3610TIP3    H110775   6.766   7.272   1.674
 3610TIP3    H210776   6.727   7.167   1.776
 3611TIP3   OH210777   2.436   6.976   6.574
 3611TIP3    H110778   2.411   6.905   6.632
 3611TIP3    H210779   2.412   6.946   6.486
 3612TIP3   OH210780   4.356   4.724   4.932
 3612TIP3    H110781   4.303   4.737   5.011
 3612TIP3    H210782   4.293   4.732   4.860
 3613TIP3   OH210783   1.094   6.119   3.118
 3613TIP3    H110784   1.106   6.067   3.198
 3613TIP3    H210785   1.180   6.156   3.101
 3614TIP3   OH210786   1.813   0.468   1.310
 3614TIP3    H110787   1.726   0.503   1.327
 3614TIP3    H210788   1.811   0.379   1.346
 3615TIP3   OH210789   6.510   1.866   2.408
 3615TIP3    H110790   6.604   1.860   2.393
 3615TIP3    H210791   6.471   1.807   2.344
 3616TIP3   OH210792   1.625   6.256   5.448
 3616TIP3    H110793   1.613   6.180   5.391
 3616TIP3    H210794   1.647   6.218   5.533
 3617TIP3   OH210795   0.280   4.095   0.112
 3617TIP3    H110796   0.367   4.058   0.128
 3617TIP3    H210797   0.277   4.110   0.018
 3618TIP3   OH210798   4.426   3.419   4.127
 3618TIP3    H110799   4.428   3.360   4.052
 3618TIP3    H210800   4.502   3.394   4.180
 3619TIP3   OH210801   7.208   3.001   5.419
 3619TIP3    H110802   7.131   3.012   5.363
 3619TIP3    H210803   7.280   2.987   5.358
 3620TIP3   OH210804   4.314   4.101   0.611
 3620TIP3    H110805   4.335   4.163   0.680
 3620TIP3    H210806   4.398   4.058   0.591
 3621TIP3   OH210807   3.192   4.548   3.711
 3621TIP3    H110808   3.178   4.613   3.779
 3621TIP3    H210809   3.275   4.506   3.734
 3622TIP3   OH210810   6.394   4.535   5.990
 3622TIP3    H110811   6.338   4.532   6.068
 3622TIP3    H210812   6.338   4.569   5.921
 3623TIP3   OH210813   0.292   0.460   6.712
 3623TIP3    H110814   0.297   0.486   6.620
 3623TIP3    H210815   0.272   0.367   6.710
 3624TIP3   OH210816   2.481   2.554   4.377
 3624TIP3    H110817   2.407   2.608   4.404
 3624TIP3    H210818   2.454   2.516   4.293
 3625TIP3   OH210819   1.151   5.324   2.593
 3625TIP3    H110820   1.124   5.288   2.678
 3625TIP3    H210821   1.246   5.321   2.594
 3626TIP3   OH210822   1.173   5.776   6.483
 3626TIP3    H110823   1.163   5.854   6.537
 3626TIP3    H210824   1.083   5.747   6.466
 3627TIP3   OH210825   4.393   6.560   2.875
 3627TIP3    H110826   4.480   6.533   2.902
 3627TIP3    H210827   4.395   6.656   2.879
 3628TIP3   OH210828   5.452   2.783   1.477
 3628TIP3    H110829   5.390   2.848   1.510
 3628TIP3    H210830   5.397   2.712   1.444
 3629TIP3   OH210831   1.824   6.038   6.471
 3629TIP3    H110832   1.755   6.100   6.448
 3629TIP3    H210833   1.850   6.000   6.387
 3630TIP3   OH210834   8.040   5.778   5.921
 3630TIP3    H110835   7.985   5.703   5.945
 3630TIP3    H210836   8.119   5.768   5.974
 3631TIP3   OH210837   5.402   4.464   4.686
 3631TIP3    H110838   5.424   4.383   4.639
 3631TIP3    H210839   5.388   4.435   4.776
 3632TIP3   OH210840   4.945   5.250   0.655
 3632TIP3    H110841   4.878   5.182   0.660
 3632TIP3    H210842   4.921   5.312   0.723
 3633TIP3   OH210843   2.874   3.033   2.827
 3633TIP3    H110844   2.927   3.087   2.768
 3633TIP3    H210845   2.786   3.072   2.823
 3634TIP3   OH210846   5.155   7.468   1.502
 3634TIP3    H110847   5.113   7.550   1.477
 3634TIP3    H210848   5.211   7.445   1.428
 3635TIP3   OH210849   1.444   6.755   5.575
 3635TIP3    H110850   1.460   6.670   5.533
 3635TIP3    H210851   1.372   6.793   5.524
 3636TIP3   OH210852   1.175   0.683   3.997
 3636TIP3    H110853   1.231   0.645   3.929
 3636TIP3    H210854   1.134   0.758   3.954
 3637TIP3   OH210855   1.739   6.186   0.678
 3637TIP3    H110856   1.781   6.207   0.594
 3637TIP3    H210857   1.780   6.246   0.741
 3638TIP3   OH210858   5.863   1.585   4.796
 3638TIP3    H110859   5.780   1.617   4.763
 3638TIP3    H210860   5.904   1.542   4.720
 3639TIP3   OH210861   6.868   3.285   4.690
 3639TIP3    H110862   6.905   3.371   4.667
 3639TIP3    H210863   6.842   3.294   4.782
 3640TIP3   OH210864   7.117   4.183   4.704
 3640TIP3    H110865   7.103   4.229   4.786
 3640TIP3    H210866   7.158   4.100   4.729
 3641TIP3   OH210867   5.980   6.803   6.332
 3641TIP3    H110868   6.024   6.734   6.283
 3641TIP3    H210869   6.032   6.812   6.412
 3642TIP3   OH210870   4.609   0.003   0.708
 3642TIP3    H110871   4.584   0.001   0.800
 3642TIP3    H210872   4.697   0.040   0.707
 3643TIP3   OH210873   1.112   6.598   3.475
 3643TIP3    H110874   1.106   6.645   3.392
 3643TIP3    H210875   1.054   6.523   3.465
 3644TIP3   OH210876   1.670   3.319   3.047
 3644TIP3    H110877   1.719   3.376   3.106
 3644TIP3    H210878   1.579   3.328   3.075
 3645TIP3   OH210879   6.931   6.445   3.167
 3645TIP3    H110880   6.964   6.371   3.116
 3645TIP3    H210881   7.010   6.490   3.197
 3646TIP3   OH210882   7.174   7.757   5.394
 3646TIP3    H110883   7.082   7.752   5.368
 3646TIP3    H210884   7.173   7.736   5.488
 3647TIP3   OH210885   6.660   5.117   2.688
 3647TIP3    H110886   6.594   5.162   2.740
 3647TIP3    H210887   6.611   5.054   2.636
 3648TIP3   OH210888   1.548   0.720   4.035
 3648TIP3    H110889   1.574   0.721   3.943
 3648TIP3    H210890   1.470   0.774   4.038
 3649TIP3   OH210891   0.146   2.575   5.958
 3649TIP3    H110892   0.151   2.524   5.877
 3649TIP3    H210893   0.225   2.630   5.956
 3650TIP3   OH210894   2.346   1.587   1.397
 3650TIP3    H110895   2.297   1.571   1.315
 3650TIP3    H210896   2.287   1.555   1.466
 3651TIP3   OH210897   1.596   7.098   0.211
 3651TIP3    H110898   1.626   7.009   0.229
 3651TIP3    H210899   1.556   7.093   0.124
 3652TIP3   OH210900   6.555   6.334   6.267
 3652TIP3    H110901   6.533   6.323   6.360
 3652TIP3    H210902   6.637   6.287   6.256
 3653TIP3   OH210903   0.548   4.329   2.010
 3653TIP3    H110904   0.453   4.323   2.021
 3653TIP3    H210905   0.561   4.413   1.965
 3654TIP3   OH210906   2.398   2.303   0.435
 3654TIP3    H110907   2.434   2.360   0.503
 3654TIP3    H210908   2.345   2.362   0.381
 3655TIP3   OH210909   8.155   3.620   2.217
 3655TIP3    H110910   8.090   3.680   2.253
 3655TIP3    H210911   8.235   3.672   2.209
 3656TIP3   OH210912   6.360   0.628   0.959
 3656TIP3    H110913   6.305   0.645   0.883
 3656TIP3    H210914   6.431   0.573   0.926
 3657TIP3   OH210915   1.965   0.996   3.881
 3657TIP3    H110916   1.915   0.922   3.845
 3657TIP3    H210917   1.935   1.003   3.972
 3658TIP3   OH210918   0.783   2.937   1.377
 3658TIP3    H110919   0.769   2.955   1.470
 3658TIP3    H210920   0.729   3.002   1.332
 3659TIP3   OH210921   6.236   2.462   6.600
 3659TIP3    H110922   6.270   2.423   6.520
 3659TIP3    H210923   6.232   2.390   6.663
 3660TIP3   OH210924   0.752   5.227   3.123
 3660TIP3    H110925   0.831   5.271   3.155
 3660TIP3    H210926   0.744   5.150   3.178
 3661TIP3   OH210927   7.829   2.129   5.219
 3661TIP3    H110928   7.883   2.147   5.296
 3661TIP3    H210929   7.891   2.096   5.154
 3662TIP3   OH210930   4.400   0.504   1.199
 3662TIP3    H110931   4.313   0.482   1.234
 3662TIP3    H210932   4.404   0.599   1.203
 3663TIP3   OH210933   1.903   3.978   3.510
 3663TIP3    H110934   1.955   4.050   3.545
 3663TIP3    H210935   1.946   3.956   3.427
 3664TIP3   OH210936   3.260   4.500   3.355
 3664TIP3    H110937   3.229   4.589   3.334
 3664TIP3    H210938   3.341   4.513   3.404
 3665TIP3   OH210939   6.079   0.819   5.304
 3665TIP3    H110940   6.053   0.858   5.388
 3665TIP3    H210941   6.139   0.749   5.329
 3666TIP3   OH210942   5.856   6.680   5.893
 3666TIP3    H110943   5.867   6.695   5.799
 3666TIP3    H210944   5.778   6.731   5.916
 3667TIP3   OH210945   6.273   7.247   0.198
 3667TIP3    H110946   6.263   7.341   0.210
 3667TIP3    H210947   6.204   7.223   0.137
 3668TIP3   OH210948   7.890   4.700   2.659
 3668TIP3    H110949   7.868   4.652   2.738
 3668TIP3    H210950   7.814   4.688   2.602
 3669TIP3   OH210951   5.203   6.934   4.359
 3669TIP3    H110952   5.191   6.858   4.302
 3669TIP3    H210953   5.156   6.911   4.439
 3670TIP3   OH210954   6.918   1.211   2.816
 3670TIP3    H110955   6.989   1.152   2.791
 3670TIP3    H210956   6.902   1.264   2.738
 3671TIP3   OH210957   2.557   6.073   5.344
 3671TIP3    H110958   2.529   6.164   5.350
 3671TIP3    H210959   2.648   6.078   5.313
 3672TIP3   OH210960   2.649   0.039   2.777
 3672TIP3    H110961   2.636   0.133   2.788
 3672TIP3    H210962   2.745   0.028   2.776
 3673TIP3   OH210963   4.297   6.052   4.919
 3673TIP3    H110964   4.318   5.960   4.905
 3673TIP3    H210965   4.269   6.084   4.833
 3674TIP3   OH210966   3.892   7.747   4.983
 3674TIP3    H110967   3.939   7.824   5.017
 3674TIP3    H210968   3.800   7.764   5.005
 3675TIP3   OH210969   2.965   1.750   4.942
 3675TIP3    H110970   2.929   1.663   4.960
 3675TIP3    H210971   3.058   1.735   4.924
 3676TIP3   OH210972   2.280   3.907   6.577
 3676TIP3    H110973   2.187   3.892   6.597
 3676TIP3    H210974   2.299   3.850   6.503
 3677TIP3   OH210975   2.957   5.596   1.846
 3677TIP3    H110976   2.999   5.523   1.891
 3677TIP3    H210977   2.968   5.671   1.905
 3678TIP3   OH210978   4.747   5.080   1.272
 3678TIP3    H110979   4.778   5.015   1.335
 3678TIP3    H210980   4.690   5.031   1.213
 3679TIP3   OH210981   7.202  -0.041   1.757
 3679TIP3    H110982   7.271  -0.017   1.695
 3679TIP3    H210983   7.176   0.042   1.797
 3680TIP3   OH210984   7.838   2.437   4.408
 3680TIP3    H110985   7.826   2.343   4.392
 3680TIP3    H210986   7.782   2.456   4.484
 3681TIP3   OH210987   3.525   3.896   4.174
 3681TIP3    H110988   3.610   3.852   4.175
 3681TIP3    H210989   3.482   3.867   4.255
 3682TIP3   OH210990   6.614   4.088   6.075
 3682TIP3    H110991   6.535   4.137   6.056
 3682TIP3    H210992   6.602   4.004   6.030
 3683TIP3   OH210993   7.242   5.517   0.079
 3683TIP3    H110994   7.206   5.603   0.100
 3683TIP3    H210995   7.269   5.524  -0.013
 3684TIP3   OH210996   7.802   1.846   5.392
 3684TIP3    H110997   7.779   1.811   5.306
 3684TIP3    H210998   7.818   1.769   5.446
 3685TIP3   OH210999   1.723   0.454   2.599
 3685TIP3    H111000   1.811   0.454   2.637
 3685TIP3    H211001   1.719   0.373   2.548
 3686TIP3   OH211002   7.202   1.711   3.617
 3686TIP3    H111003   7.266   1.756   3.672
 3686TIP3    H211004   7.147   1.663   3.680
 3687TIP3   OH211005   2.555   5.402   1.700
 3687TIP3    H111006   2.517   5.315   1.688
 3687TIP3    H211007   2.622   5.409   1.632
 3688TIP3   OH211008   3.902   6.187   2.891
 3688TIP3    H111009   3.970   6.173   2.824
 3688TIP3    H211010   3.820   6.174   2.844
 3689TIP3   OH211011   4.588   7.109   4.464
 3689TIP3    H111012   4.564   7.113   4.371
 3689TIP3    H211013   4.511   7.141   4.510
 3690TIP3   OH211014   5.934   5.733   2.683
 3690TIP3    H111015   5.881   5.807   2.654
 3690TIP3    H211016   5.955   5.752   2.774
 3691TIP3   OH211017   3.541   1.642   1.659
 3691TIP3    H111018   3.468   1.617   1.715
 3691TIP3    H211019   3.520   1.605   1.573
 3692TIP3   OH211020   2.885   2.324   0.270
 3692TIP3    H111021   2.886   2.273   0.189
 3692TIP3    H211022   2.811   2.384   0.260
 3693TIP3   OH211023   6.758   7.554   5.270
 3693TIP3    H111024   6.842   7.509   5.282
 3693TIP3    H211025   6.782   7.642   5.240
 3694TIP3   OH211026   0.459   0.884   3.059
 3694TIP3    H111027   0.484   0.808   3.006
 3694TIP3    H211028   0.445   0.954   2.996
 3695TIP3   OH211029   3.860   1.948   5.107
 3695TIP3    H111030   3.811   1.921   5.029
 3695TIP3    H211031   3.936   1.994   5.072
 3696TIP3   OH211032   4.737   1.736   5.340
 3696TIP3    H111033   4.777   1.679   5.406
 3696TIP3    H211034   4.809   1.756   5.279
 3697TIP3   OH211035   1.646   6.823   0.242
 3697TIP3    H111036   1.735   6.789   0.251
 3697TIP3    H211037   1.590   6.752   0.271
 3698TIP3   OH211038   1.206   7.246   2.632
 3698TIP3    H111039   1.260   7.227   2.709
 3698TIP3    H211040   1.261   7.220   2.557
 3699TIP3   OH211041   8.026   3.338   3.151
 3699TIP3    H111042   7.957   3.290   3.196
 3699TIP3    H211043   7.980   3.401   3.096
 3700TIP3   OH211044   8.123   0.491   3.781
 3700TIP3    H111045   8.186   0.421   3.796
 3700TIP3    H211046   8.047   0.467   3.833
 3701TIP3   OH211047   5.739   4.790   6.136
 3701TIP3    H111048   5.782   4.852   6.195
 3701TIP3    H211049   5.645   4.805   6.150
 3702TIP3   OH211050   5.948   7.142   1.527
 3702TIP3    H111051   6.000   7.136   1.607
 3702TIP3    H211052   5.970   7.063   1.478
 3703TIP3   OH211053   0.201   0.624   5.601
 3703TIP3    H111054   0.224   0.594   5.689
 3703TIP3    H211055   0.124   0.680   5.615
 3704TIP3   OH211056   2.186   0.588   4.301
 3704TIP3    H111057   2.233   0.580   4.384
 3704TIP3    H211058   2.138   0.505   4.292
 3705TIP3   OH211059   4.595   4.274   3.458
 3705TIP3    H111060   4.559   4.301   3.543
 3705TIP3    H211061   4.576   4.348   3.400
 3706TIP3   OH211062   1.640   5.641   1.980
 3706TIP3    H111063   1.707   5.574   1.969
 3706TIP3    H211064   1.559   5.600   1.951
 3707TIP3   OH211065   8.155   4.219   4.484
 3707TIP3    H111066   8.233   4.259   4.446
 3707TIP3    H211067   8.141   4.140   4.432
 3708TIP3   OH211068   3.605   4.585   0.417
 3708TIP3    H111069   3.571   4.670   0.445
 3708TIP3    H211070   3.557   4.521   0.469
 3709TIP3   OH211071   6.872   7.273   0.984
 3709TIP3    H111072   6.822   7.333   0.929
 3709TIP3    H211073   6.823   7.190   0.979
 3710TIP3   OH211074   7.734   5.630   2.264
 3710TIP3    H111075   7.768   5.541   2.252
 3710TIP3    H211076   7.644   5.617   2.294
 3711TIP3   OH211077   1.657   2.064   3.370
 3711TIP3    H111078   1.625   1.997   3.309
 3711TIP3    H211079   1.688   2.014   3.446
 3712TIP3   OH211080   3.541   2.517   1.619
 3712TIP3    H111081   3.610   2.483   1.562
 3712TIP3    H211082   3.565   2.609   1.632
 3713TIP3   OH211083   4.622   1.920   5.878
 3713TIP3    H111084   4.601   1.962   5.795
 3713TIP3    H211085   4.682   1.980   5.921
 3714TIP3   OH211086   4.499   7.533   4.525
 3714TIP3    H111087   4.503   7.527   4.429
 3714TIP3    H211088   4.453   7.454   4.552
 3715TIP3   OH211089   5.314   7.762   3.147
 3715TIP3    H111090   5.345   7.834   3.201
 3715TIP3    H211091   5.270   7.703   3.209
 3716TIP3   OH211092   2.852   3.271   6.636
 3716TIP3    H111093   2.819   3.348   6.590
 3716TIP3    H211094   2.793   3.200   6.610
 3717TIP3   OH211095   1.768   0.312   2.867
 3717TIP3    H111096   1.766   0.216   2.871
 3717TIP3    H211097   1.861   0.334   2.857
 3718TIP3   OH211098   5.076   2.125   5.606
 3718TIP3    H111099   5.012   2.060   5.579
 3718TIP3    H211100   5.091   2.108   5.699
 3719TIP3   OH211101   4.908   4.014   5.471
 3719TIP3    H111102   4.886   3.939   5.525
 3719TIP3    H211103   4.974   4.062   5.521
 3720TIP3   OH211104   8.170   4.052   2.491
 3720TIP3    H111105   8.259   4.063   2.524
 3720TIP3    H211106   8.117   4.108   2.547
 3721TIP3   OH211107   5.621   2.488   0.987
 3721TIP3    H111108   5.581   2.530   0.911
 3721TIP3    H211109   5.703   2.536   1.001
 3722TIP3   OH211110   5.957   2.970   0.885
 3722TIP3    H111111   6.014   2.981   0.809
 3722TIP3    H211112   5.880   2.925   0.851
 3723TIP3   OH211113   1.492   6.593   0.284
 3723TIP3    H111114   1.496   6.603   0.380
 3723TIP3    H211115   1.447   6.510   0.271
 3724TIP3   OH211116   6.785   6.842   5.807
 3724TIP3    H111117   6.722   6.770   5.803
 3724TIP3    H211118   6.870   6.798   5.809
 3725TIP3   OH211119   6.832   3.702   2.204
 3725TIP3    H111120   6.868   3.791   2.197
 3725TIP3    H211121   6.847   3.678   2.296
 3726TIP3   OH211122   7.672   6.501   3.662
 3726TIP3    H111123   7.684   6.510   3.757
 3726TIP3    H211124   7.584   6.464   3.654
 3727TIP3   OH211125   5.925   6.137   6.480
 3727TIP3    H111126   5.844   6.155   6.528
 3727TIP3    H211127   5.963   6.224   6.464
 3728TIP3   OH211128   5.573   7.348   1.416
 3728TIP3    H111129   5.542   7.378   1.331
 3728TIP3    H211130   5.642   7.285   1.396
 3729TIP3   OH211131   0.037   1.053   6.298
 3729TIP3    H111132   0.033   1.146   6.319
 3729TIP3    H211133   0.130   1.035   6.287
 3730TIP3   OH211134   2.265   1.065   6.756
 3730TIP3    H111135   2.336   1.014   6.795
 3730TIP3    H211136   2.286   1.068   6.662
 3731TIP3   OH211137   6.630   0.442   1.660
 3731TIP3    H111138   6.678   0.376   1.610
 3731TIP3    H211139   6.696   0.486   1.713
 3732TIP3   OH211140   6.922   3.447   5.394
 3732TIP3    H111141   6.828   3.467   5.396
 3732TIP3    H211142   6.964   3.525   5.429
 3733TIP3   OH211143   7.629   1.012   1.383
 3733TIP3    H111144   7.703   1.029   1.323
 3733TIP3    H211145   7.590   1.098   1.397
 3734TIP3   OH211146   7.623   3.443   4.545
 3734TIP3    H111147   7.711   3.406   4.543
 3734TIP3    H211148   7.605   3.468   4.454
 3735TIP3   OH211149   0.106   1.742   1.375
 3735TIP3    H111150   0.167   1.799   1.329
 3735TIP3    H211151   0.162   1.690   1.434
 3736TIP3   OH211152   6.328   0.873   4.487
 3736TIP3    H111153   6.411   0.835   4.515
 3736TIP3    H211154   6.323   0.956   4.534
 3737TIP3   OH211155   5.820   1.885   5.552
 3737TIP3    H111156   5.779   1.885   5.465
 3737TIP3    H211157   5.807   1.795   5.584
 3738TIP3   OH211158   2.440   0.764   6.673
 3738TIP3    H111159   2.493   0.690   6.642
 3738TIP3    H211160   2.420   0.741   6.764
 3739TIP3   OH211161   1.856   0.007   0.251
 3739TIP3    H111162   1.830   0.032   0.339
 3739TIP3    H211163   1.827   0.080   0.196
 3740TIP3   OH211164   3.757   0.433   2.735
 3740TIP3    H111165   3.747   0.482   2.654
 3740TIP3    H211166   3.807   0.355   2.710
 3741TIP3   OH211167   1.801   0.316   3.645
 3741TIP3    H111168   1.772   0.227   3.664
 3741TIP3    H211169   1.759   0.337   3.562
 3742TIP3   OH211170   3.179   6.345   5.050
 3742TIP3    H111171   3.209   6.272   5.104
 3742TIP3    H211172   3.086   6.352   5.070
 3743TIP3   OH211173   0.349   3.566   0.910
 3743TIP3    H111174   0.343   3.595   0.819
 3743TIP3    H211175   0.300   3.632   0.959
 3744TIP3   OH211176   3.330   6.746   1.115
 3744TIP3    H111177   3.423   6.766   1.123
 3744TIP3    H211178   3.300   6.797   1.040
 3745TIP3   OH211179   0.874   7.290   3.272
 3745TIP3    H111180   0.873   7.367   3.215
 3745TIP3    H211181   0.847   7.323   3.357
 3746TIP3   OH211182   7.916   3.667   3.969
 3746TIP3    H111183   7.937   3.735   4.033
 3746TIP3    H211184   7.823   3.679   3.949
 3747TIP3   OH211185   3.900   0.502   5.896
 3747TIP3    H111186   3.870   0.579   5.848
 3747TIP3    H211187   3.955   0.537   5.966
 3748TIP3   OH211188   7.731   3.179   0.197
 3748TIP3    H111189   7.641   3.211   0.193
 3748TIP3    H211190   7.723   3.087   0.220
 3749TIP3   OH211191   0.704   5.254   2.087
 3749TIP3    H111192   0.695   5.325   2.024
 3749TIP3    H211193   0.797   5.257   2.113
 3750TIP3   OH211194   0.676   5.564   5.828
 3750TIP3    H111195   0.604   5.521   5.782
 3750TIP3    H211196   0.634   5.615   5.897
 3751TIP3   OH211197   5.700   2.475   5.626
 3751TIP3    H111198   5.699   2.566   5.656
 3751TIP3    H211199   5.758   2.431   5.688
 3752TIP3   OH211200   2.238   3.596   5.347
 3752TIP3    H111201   2.234   3.595   5.442
 3752TIP3    H211202   2.184   3.671   5.321
 3753TIP3   OH211203   7.490   1.966   6.763
 3753TIP3    H111204   7.479   2.013   6.845
 3753TIP3    H211205   7.434   2.013   6.701
 3754TIP3   OH211206   1.433   2.286   6.114
 3754TIP3    H111207   1.497   2.340   6.066
 3754TIP3    H211208   1.484   2.248   6.186
 3755TIP3   OH211209   0.606   4.461   6.752
 3755TIP3    H111210   0.695   4.479   6.721
 3755TIP3    H211211   0.577   4.387   6.700
 3756TIP3   OH211212   0.390   6.071   4.970
 3756TIP3    H111213   0.298   6.047   4.983
 3756TIP3    H211214   0.390   6.129   4.894
 3757TIP3   OH211215   7.075   0.321   6.299
 3757TIP3    H111216   7.001   0.272   6.262
 3757TIP3    H211217   7.106   0.268   6.372
 3758TIP3   OH211218   2.613   5.895   1.748
 3758TIP3    H111219   2.559   5.878   1.672
 3758TIP3    H211220   2.633   5.809   1.783
 3759TIP3   OH211221   4.918   1.235   4.214
 3759TIP3    H111222   4.912   1.144   4.185
 3759TIP3    H211223   5.003   1.241   4.258
 3760TIP3   OH211224   4.404   1.362   3.790
 3760TIP3    H111225   4.429   1.375   3.882
 3760TIP3    H211226   4.447   1.434   3.743
 3761TIP3   OH211227   2.098   0.788   2.451
 3761TIP3    H111228   2.146   0.832   2.381
 3761TIP3    H211229   2.015   0.762   2.411
 3762TIP3   OH211230   3.410   7.293   4.744
 3762TIP3    H111231   3.458   7.214   4.718
 3762TIP3    H211232   3.477   7.350   4.782
 3763TIP3   OH211233   0.480   4.432   2.938
 3763TIP3    H111234   0.394   4.470   2.916
 3763TIP3    H211235   0.467   4.389   3.022
 3764TIP3   OH211236   7.321   1.678   4.126
 3764TIP3    H111237   7.415   1.660   4.122
 3764TIP3    H211238   7.307   1.708   4.216
 3765TIP3   OH211239   4.296   3.992   2.200
 3765TIP3    H111240   4.307   4.062   2.136
 3765TIP3    H211241   4.205   3.965   2.190
 3766TIP3   OH211242   7.744   6.688   0.810
 3766TIP3    H111243   7.823   6.727   0.775
 3766TIP3    H211244   7.679   6.758   0.808
 3767TIP3   OH211245   5.624   6.636   1.962
 3767TIP3    H111246   5.701   6.679   1.925
 3767TIP3    H211247   5.641   6.634   2.056
 3768TIP3   OH211248   7.453   0.074   4.984
 3768TIP3    H111249   7.511  -0.002   4.984
 3768TIP3    H211250   7.492   0.134   5.049
 3769TIP3   OH211251   6.117   0.592   5.540
 3769TIP3    H111252   6.046   0.627   5.595
 3769TIP3    H211253   6.072   0.532   5.480
 3770TIP3   OH211254   0.717   4.024   6.633
 3770TIP3    H111255   0.772   4.092   6.675
 3770TIP3    H211256   0.646   4.073   6.592
 3771TIP3   OH211257   1.005   2.590   1.571
 3771TIP3    H111258   1.065   2.590   1.496
 3771TIP3    H211259   0.982   2.497   1.583
 3772TIP3   OH211260   5.814   0.100   4.941
 3772TIP3    H111261   5.850   0.076   4.856
 3772TIP3    H211262   5.755   0.028   4.964
 3773TIP3   OH211263   2.545   4.913   0.169
 3773TIP3    H111264   2.482   4.845   0.195
 3773TIP3    H211265   2.492   4.992   0.160
 3774TIP3   OH211266   7.435   0.263   1.781
 3774TIP3    H111267   7.346   0.287   1.807
 3774TIP3    H211268   7.480   0.244   1.863
 3775TIP3   OH211269   4.225   3.534   0.334
 3775TIP3    H111270   4.265   3.525   0.420
 3775TIP3    H211271   4.240   3.625   0.309
 3776TIP3   OH211272   3.298   2.274   6.589
 3776TIP3    H111273   3.385   2.234   6.589
 3776TIP3    H211274   3.290   2.315   6.503
 3777TIP3   OH211275   0.658   4.568   3.334
 3777TIP3    H111276   0.694   4.562   3.245
 3777TIP3    H211277   0.586   4.631   3.327
 3778TIP3   OH211278   3.716   7.125   0.334
 3778TIP3    H111279   3.706   7.037   0.369
 3778TIP3    H211280   3.803   7.125   0.293
 3779TIP3   OH211281   7.484   4.071   0.763
 3779TIP3    H111282   7.472   4.074   0.858
 3779TIP3    H211283   7.569   4.114   0.748
 3780TIP3   OH211284   6.994   2.970   5.204
 3780TIP3    H111285   6.986   3.065   5.197
 3780TIP3    H211286   6.906   2.940   5.226
 3781TIP3   OH211287   2.545   0.662   3.598
 3781TIP3    H111288   2.520   0.683   3.509
 3781TIP3    H211289   2.484   0.594   3.625
 3782TIP3   OH211290   2.937   4.434   5.672
 3782TIP3    H111291   2.991   4.461   5.597
 3782TIP3    H211292   2.992   4.372   5.719
 3783TIP3   OH211293   5.177   4.083   6.397
 3783TIP3    H111294   5.161   4.006   6.343
 3783TIP3    H211295   5.257   4.063   6.445
 3784TIP3   OH211296   1.427   5.269   3.264
 3784TIP3    H111297   1.380   5.255   3.182
 3784TIP3    H211298   1.468   5.184   3.282
 3785TIP3   OH211299   5.423   3.644   6.022
 3785TIP3    H111300   5.480   3.687   6.085
 3785TIP3    H211301   5.438   3.550   6.036
 3786TIP3   OH211302   5.172   2.877   3.320
 3786TIP3    H111303   5.164   2.969   3.346
 3786TIP3    H211304   5.142   2.828   3.396
 3787TIP3   OH211305   2.115   1.888   2.070
 3787TIP3    H111306   2.172   1.961   2.050
 3787TIP3    H211307   2.066   1.916   2.148
 3788TIP3   OH211308   4.354   2.439   1.390
 3788TIP3    H111309   4.266   2.455   1.425
 3788TIP3    H211310   4.404   2.408   1.465
 3789TIP3   OH211311   3.666   6.390   6.671
 3789TIP3    H111312   3.754   6.388   6.633
 3789TIP3    H211313   3.608   6.390   6.595
 3790TIP3   OH211314   2.723   6.543   3.944
 3790TIP3    H111315   2.732   6.512   3.854
 3790TIP3    H211316   2.758   6.632   3.943
 3791TIP3   OH211317   2.257   5.978   1.145
 3791TIP3    H111318   2.273   6.072   1.134
 3791TIP3    H211319   2.206   5.971   1.225
 3792TIP3   OH211320   5.723   5.309   1.126
 3792TIP3    H111321   5.665   5.241   1.091
 3792TIP3    H211322   5.757   5.272   1.207
 3793TIP3   OH211323   0.557   5.872   5.324
 3793TIP3    H111324   0.495   5.942   5.299
 3793TIP3    H211325   0.527   5.796   5.275
 3794TIP3   OH211326   5.299   5.757   3.147
 3794TIP3    H111327   5.230   5.770   3.212
 3794TIP3    H211328   5.256   5.772   3.063
 3795TIP3   OH211329   4.201   1.660   0.173
 3795TIP3    H111330   4.234   1.578   0.211
 3795TIP3    H211331   4.106   1.649   0.173
 3796TIP3   OH211332   4.999   4.499   3.059
 3796TIP3    H111333   4.925   4.449   3.025
 3796TIP3    H211334   5.076   4.455   3.024
 3797TIP3   OH211335   8.227   0.400   0.466
 3797TIP3    H111336   8.302   0.357   0.426
 3797TIP3    H211337   8.264   0.457   0.533
 3798TIP3   OH211338   1.447   4.674   2.220
 3798TIP3    H111339   1.435   4.581   2.240
 3798TIP3    H211340   1.527   4.698   2.265
 3799TIP3   OH211341   7.494   3.723   6.553
 3799TIP3    H111342   7.502   3.629   6.572
 3799TIP3    H211343   7.416   3.751   6.601
 3800TIP3   OH211344   7.473   3.183   3.388
 3800TIP3    H111345   7.456   3.097   3.427
 3800TIP3    H211346   7.533   3.226   3.449
 3801TIP3   OH211347   4.995   0.122   3.679
 3801TIP3    H111348   5.083   0.137   3.713
 3801TIP3    H211349   5.008   0.084   3.592
 3802TIP3   OH211350   3.543   6.899   4.246
 3802TIP3    H111351   3.490   6.872   4.322
 3802TIP3    H211352   3.632   6.904   4.280
 3803TIP3   OH211353   0.910   4.667   3.511
 3803TIP3    H111354   0.945   4.578   3.521
 3803TIP3    H211355   0.840   4.658   3.447
 3804TIP3   OH211356   1.639   4.471   2.038
 3804TIP3    H111357   1.558   4.468   1.987
 3804TIP3    H211358   1.630   4.550   2.092
 3805TIP3   OH211359   0.231   7.240   2.821
 3805TIP3    H111360   0.207   7.315   2.768
 3805TIP3    H211361   0.272   7.179   2.760
 3806TIP3   OH211362   0.128   4.614   2.078
 3806TIP3    H111363   0.213   4.646   2.049
 3806TIP3    H211364   0.114   4.656   2.163
 3807TIP3   OH211365   3.863   6.474   1.681
 3807TIP3    H111366   3.918   6.402   1.650
 3807TIP3    H211367   3.778   6.459   1.640
 3808TIP3   OH211368   2.349   7.623   0.930
 3808TIP3    H111369   2.309   7.616   0.843
 3808TIP3    H211370   2.443   7.621   0.913
 3809TIP3   OH211371   1.855   6.351   5.861
 3809TIP3    H111372   1.947   6.340   5.889
 3809TIP3    H211373   1.816   6.265   5.875
 3810TIP3   OH211374   3.039   5.118   1.052
 3810TIP3    H111375   3.075   5.174   1.120
 3810TIP3    H211376   2.984   5.177   1.000
 3811TIP3   OH211377   4.045   0.814   5.248
 3811TIP3    H111378   4.015   0.836   5.337
 3811TIP3    H211379   4.136   0.845   5.246
 3812TIP3   OH211380   6.916   5.059   0.380
 3812TIP3    H111381   6.831   5.094   0.357
 3812TIP3    H211382   6.979   5.124   0.349
 3813TIP3   OH211383   3.463   2.678   4.278
 3813TIP3    H111384   3.445   2.753   4.335
 3813TIP3    H211385   3.518   2.714   4.208
 3814TIP3   OH211386   0.921   1.750   2.392
 3814TIP3    H111387   0.847   1.739   2.332
 3814TIP3    H211388   0.982   1.681   2.367
 3815TIP3   OH211389   4.606   4.851   2.793
 3815TIP3    H111390   4.667   4.870   2.865
 3815TIP3    H211391   4.520   4.845   2.835
 3816TIP3   OH211392   3.716   2.048   4.370
 3816TIP3    H111393   3.645   2.111   4.380
 3816TIP3    H211394   3.731   2.015   4.459
 3817TIP3   OH211395   7.542   5.756   3.816
 3817TIP3    H111396   7.567   5.816   3.746
 3817TIP3    H211397   7.561   5.804   3.897
 3818TIP3   OH211398   7.026   4.322   5.531
 3818TIP3    H111399   6.956   4.301   5.592
 3818TIP3    H211400   7.033   4.418   5.535
 3819TIP3   OH211401   3.987   0.950   0.193
 3819TIP3    H111402   3.985   1.044   0.211
 3819TIP3    H211403   3.894   0.926   0.185
 3820TIP3   OH211404   0.348   2.292   1.522
 3820TIP3    H111405   0.380   2.368   1.474
 3820TIP3    H211406   0.343   2.321   1.613
 3821TIP3   OH211407   3.431   2.911   1.931
 3821TIP3    H111408   3.346   2.922   1.974
 3821TIP3    H211409   3.488   2.974   1.973
 3822TIP3   OH211410   4.686   0.318   0.834
 3822TIP3    H111411   4.763   0.361   0.871
 3822TIP3    H211412   4.677   0.238   0.884
 3823TIP3   OH211413   1.848   3.330   0.654
 3823TIP3    H111414   1.937   3.364   0.654
 3823TIP3    H211415   1.858   3.235   0.646
 3824TIP3   OH211416   2.631   5.904   3.893
 3824TIP3    H111417   2.615   5.838   3.961
 3824TIP3    H211418   2.716   5.942   3.917
 3825TIP3   OH211419   6.515   1.972   4.437
 3825TIP3    H111420   6.602   2.009   4.451
 3825TIP3    H211421   6.504   1.909   4.508
 3826TIP3   OH211422   3.138   3.344   0.481
 3826TIP3    H111423   3.207   3.395   0.524
 3826TIP3    H211424   3.162   3.253   0.498
 3827TIP3   OH211425   1.001   0.350   0.668
 3827TIP3    H111426   0.954   0.295   0.731
 3827TIP3    H211427   1.077   0.383   0.717
 3828TIP3   OH211428   5.089   1.368   5.849
 3828TIP3    H111429   5.180   1.347   5.869
 3828TIP3    H211430   5.058   1.417   5.925
 3829TIP3   OH211431   4.470   2.575   1.183
 3829TIP3    H111432   4.524   2.501   1.155
 3829TIP3    H211433   4.418   2.541   1.256
 3830TIP3   OH211434   0.892   6.618   3.072
 3830TIP3    H111435   0.890   6.532   3.114
 3830TIP3    H211436   0.953   6.670   3.126
 3831TIP3   OH211437   7.052   2.703   5.744
 3831TIP3    H111438   7.122   2.673   5.687
 3831TIP3    H211439   7.070   2.662   5.828
 3832TIP3   OH211440   6.863   5.038   4.003
 3832TIP3    H111441   6.832   4.967   4.059
 3832TIP3    H211442   6.923   5.088   4.058
 3833TIP3   OH211443   7.353   0.820   5.174
 3833TIP3    H111444   7.316   0.784   5.093
 3833TIP3    H211445   7.340   0.751   5.239
 3834TIP3   OH211446   6.609   5.136   0.569
 3834TIP3    H111447   6.551   5.068   0.536
 3834TIP3    H211448   6.640   5.103   0.653
 3835TIP3   OH211449   1.821   1.943   6.249
 3835TIP3    H111450   1.811   1.944   6.344
 3835TIP3    H211451   1.907   1.980   6.232
 3836TIP3   OH211452   6.030   2.762   4.532
 3836TIP3    H111453   5.987   2.724   4.609
 3836TIP3    H211454   5.987   2.720   4.457
 3837TIP3   OH211455   7.116   2.826   4.996
 3837TIP3    H111456   7.210   2.814   5.007
 3837TIP3    H211457   7.084   2.845   5.084
 3838TIP3   OH211458   0.497   2.411   6.397
 3838TIP3    H111459   0.531   2.372   6.316
 3838TIP3    H211460   0.403   2.419   6.382
 3839TIP3   OH211461   6.112   1.199   6.562
 3839TIP3    H111462   6.174   1.270   6.541
 3839TIP3    H211463   6.162   1.119   6.549
 3840TIP3   OH211464   3.182   0.189   2.639
 3840TIP3    H111465   3.210   0.111   2.688
 3840TIP3    H211466   3.234   0.260   2.678
 3841TIP3   OH211467   7.505   6.099   1.300
 3841TIP3    H111468   7.540   6.187   1.308
 3841TIP3    H211469   7.451   6.087   1.378
 3842TIP3   OH211470   0.813   2.935   2.024
 3842TIP3    H111471   0.741   2.885   1.986
 3842TIP3    H211472   0.856   2.977   1.950
 3843TIP3   OH211473   7.637   4.105   0.459
 3843TIP3    H111474   7.701   4.134   0.524
 3843TIP3    H211475   7.552   4.127   0.498
 3844TIP3   OH211476   5.163   5.615   4.071
 3844TIP3    H111477   5.237   5.654   4.118
 3844TIP3    H211478   5.170   5.648   3.982
 3845TIP3   OH211479   6.024   4.827   6.255
 3845TIP3    H111480   5.995   4.754   6.311
 3845TIP3    H211481   6.053   4.894   6.317
 3846TIP3   OH211482   2.729   2.878   1.377
 3846TIP3    H111483   2.757   2.907   1.290
 3846TIP3    H211484   2.704   2.786   1.364
 3847TIP3   OH211485   3.002   3.605   5.298
 3847TIP3    H111486   3.096   3.586   5.309
 3847TIP3    H211487   2.983   3.581   5.207
 3848TIP3   OH211488   4.146   5.737   6.470
 3848TIP3    H111489   4.218   5.797   6.490
 3848TIP3    H211490   4.140   5.738   6.374
 3849TIP3   OH211491   4.377   7.147   3.492
 3849TIP3    H111492   4.413   7.064   3.524
 3849TIP3    H211493   4.298   7.122   3.444
 3850TIP3   OH211494   5.580   2.879   3.850
 3850TIP3    H111495   5.565   2.787   3.827
 3850TIP3    H211496   5.635   2.875   3.928
 3851TIP3   OH211497   0.819   5.229   0.381
 3851TIP3    H111498   0.750   5.185   0.430
 3851TIP3    H211499   0.875   5.269   0.448
 3852TIP3   OH211500   4.110   5.936   2.724
 3852TIP3    H111501   4.137   6.027   2.742
 3852TIP3    H211502   4.083   5.937   2.633
 3853TIP3   OH211503   4.364   1.688   1.658
 3853TIP3    H111504   4.291   1.714   1.714
 3853TIP3    H211505   4.346   1.597   1.635
 3854TIP3   OH211506   0.053   0.952   3.207
 3854TIP3    H111507  -0.010   0.922   3.141
 3854TIP3    H211508   0.090   1.032   3.171
 3855TIP3   OH211509   4.187   1.474   1.805
 3855TIP3    H111510   4.270   1.436   1.834
 3855TIP3    H211511   4.181   1.557   1.854
 3856TIP3   OH211512   5.426   7.031   6.647
 3856TIP3    H111513   5.460   6.944   6.626
 3856TIP3    H211514   5.465   7.052   6.732
 3857TIP3   OH211515   2.840   6.549   1.735
 3857TIP3    H111516   2.793   6.537   1.652
 3857TIP3    H211517   2.931   6.563   1.709
 3858TIP3   OH211518   1.143   2.843   6.177
 3858TIP3    H111519   1.047   2.836   6.182
 3858TIP3    H211520   1.169   2.775   6.115
 3859TIP3   OH211521   6.648   3.903   5.504
 3859TIP3    H111522   6.593   3.947   5.440
 3859TIP3    H211523   6.695   3.974   5.549
 3860TIP3   OH211524   0.408   0.662   4.712
 3860TIP3    H111525   0.379   0.620   4.793
 3860TIP3    H211526   0.498   0.690   4.730
 3861TIP3   OH211527   1.513   6.184   4.555
 3861TIP3    H111528   1.480   6.273   4.545
 3861TIP3    H211529   1.603   6.188   4.520
 3862TIP3   OH211530   8.003   1.113   0.979
 3862TIP3    H111531   8.005   1.065   0.896
 3862TIP3    H211532   7.944   1.187   0.962
 3863TIP3   OH211533   7.677   6.958   2.129
 3863TIP3    H111534   7.721   7.042   2.125
 3863TIP3    H211535   7.673   6.929   2.038
 3864TIP3   OH211536   7.050   4.797   2.884
 3864TIP3    H111537   6.967   4.830   2.850
 3864TIP3    H211538   7.035   4.703   2.896
 3865TIP3   OH211539   0.980   4.906   3.601
 3865TIP3    H111540   0.941   4.826   3.568
 3865TIP3    H211541   1.074   4.889   3.602
 3866TIP3   OH211542   6.823   6.442   3.452
 3866TIP3    H111543   6.844   6.361   3.497
 3866TIP3    H211544   6.859   6.430   3.364
 3867TIP3   OH211545   3.349   4.016   1.295
 3867TIP3    H111546   3.445   4.012   1.294
 3867TIP3    H211547   3.322   3.929   1.265
 3868TIP3   OH211548   5.429   6.898   5.248
 3868TIP3    H111549   5.369   6.944   5.190
 3868TIP3    H211550   5.391   6.810   5.257
 3869TIP3   OH211551   6.633   0.136   2.830
 3869TIP3    H111552   6.572   0.197   2.870
 3869TIP3    H211553   6.699   0.191   2.788
 3870TIP3   OH211554   4.027   7.168   3.754
 3870TIP3    H111555   3.974   7.205   3.683
 3870TIP3    H211556   3.995   7.079   3.764
 3871TIP3   OH211557   1.362   3.263   2.936
 3871TIP3    H111558   1.288   3.321   2.954
 3871TIP3    H211559   1.390   3.287   2.847
 3872TIP3   OH211560   5.793   2.674   2.774
 3872TIP3    H111561   5.793   2.752   2.830
 3872TIP3    H211562   5.821   2.603   2.831
 3873TIP3   OH211563   0.462   7.041   1.356
 3873TIP3    H111564   0.504   6.956   1.359
 3873TIP3    H211565   0.463   7.065   1.263
 3874TIP3   OH211566   7.388   4.952   2.011
 3874TIP3    H111567   7.403   4.890   2.082
 3874TIP3    H211568   7.467   5.006   2.009
 3875TIP3   OH211569   3.113   7.103   3.073
 3875TIP3    H111570   3.078   7.106   2.984
 3875TIP3    H211571   3.178   7.033   3.071
 3876TIP3   OH211572   1.476   1.574   4.882
 3876TIP3    H111573   1.506   1.511   4.816
 3876TIP3    H211574   1.381   1.569   4.878
 3877TIP3   OH211575   4.060   0.047   4.316
 3877TIP3    H111576   4.073  -0.037   4.359
 3877TIP3    H211577   4.045   0.109   4.388
 3878TIP3   OH211578   5.066   2.207   0.479
 3878TIP3    H111579   5.023   2.289   0.502
 3878TIP3    H211580   5.062   2.203   0.384
 3879TIP3   OH211581   2.751   2.115   1.495
 3879TIP3    H111582   2.837   2.139   1.530
 3879TIP3    H211583   2.719   2.046   1.554
 3880TIP3   OH211584   5.798   3.253   0.501
 3880TIP3    H111585   5.866   3.199   0.461
 3880TIP3    H211586   5.763   3.306   0.429
 3881TIP3   OH211587   3.121   3.325   3.085
 3881TIP3    H111588   3.176   3.255   3.121
 3881TIP3    H211589   3.041   3.322   3.137
 3882TIP3   OH211590   0.375   0.656   0.338
 3882TIP3    H111591   0.329   0.738   0.322
 3882TIP3    H211592   0.436   0.676   0.410
 3883TIP3   OH211593   3.663   7.604   6.252
 3883TIP3    H111594   3.667   7.674   6.317
 3883TIP3    H211595   3.659   7.650   6.168
 3884TIP3   OH211596   0.039   5.793   3.837
 3884TIP3    H111597   0.066   5.723   3.777
 3884TIP3    H211598   0.023   5.868   3.781
 3885TIP3   OH211599   0.317   5.352   6.513
 3885TIP3    H111600   0.288   5.349   6.422
 3885TIP3    H211601   0.272   5.279   6.555
 3886TIP3   OH211602   2.755   6.905   0.169
 3886TIP3    H111603   2.695   6.973   0.139
 3886TIP3    H211604   2.778   6.930   0.258
 3887TIP3   OH211605   3.062   2.507   2.707
 3887TIP3    H111606   2.966   2.504   2.713
 3887TIP3    H211607   3.082   2.601   2.704
 3888TIP3   OH211608   7.444   1.819   0.391
 3888TIP3    H111609   7.450   1.888   0.457
 3888TIP3    H211610   7.473   1.740   0.436
 3889TIP3   OH211611   7.286   4.066   4.529
 3889TIP3    H111612   7.198   4.036   4.552
 3889TIP3    H211613   7.344   4.000   4.566
 3890TIP3   OH211614   5.157   3.637   6.544
 3890TIP3    H111615   5.124   3.708   6.599
 3890TIP3    H211616   5.145   3.559   6.598
 3891TIP3   OH211617   2.652   0.358   5.398
 3891TIP3    H111618   2.703   0.385   5.321
 3891TIP3    H211619   2.584   0.425   5.406
 3892TIP3   OH211620   5.222   6.590   0.922
 3892TIP3    H111621   5.130   6.577   0.944
 3892TIP3    H211622   5.269   6.533   0.983
 3893TIP3   OH211623   5.398   0.615   0.701
 3893TIP3    H111624   5.396   0.599   0.795
 3893TIP3    H211625   5.326   0.562   0.666
 3894TIP3   OH211626   3.162   2.082   6.190
 3894TIP3    H111627   3.223   2.010   6.173
 3894TIP3    H211628   3.075   2.043   6.183
 3895TIP3   OH211629   5.288   5.219   6.523
 3895TIP3    H111630   5.303   5.283   6.592
 3895TIP3    H211631   5.230   5.263   6.461
 3896TIP3   OH211632   4.564   3.044   1.768
 3896TIP3    H111633   4.537   2.953   1.782
 3896TIP3    H211634   4.626   3.040   1.696
 3897TIP3   OH211635   6.352   5.082   5.872
 3897TIP3    H111636   6.437   5.102   5.911
 3897TIP3    H211637   6.343   4.987   5.880
 3898TIP3   OH211638   6.302   5.514   2.386
 3898TIP3    H111639   6.330   5.606   2.391
 3898TIP3    H211640   6.268   5.495   2.473
 3899TIP3   OH211641   6.095   3.670   6.597
 3899TIP3    H111642   6.164   3.647   6.659
 3899TIP3    H211643   6.118   3.620   6.518
 3900TIP3   OH211644   2.032   2.329   5.556
 3900TIP3    H111645   1.941   2.333   5.583
 3900TIP3    H211646   2.067   2.417   5.576
 3901TIP3   OH211647   6.147   1.670   4.336
 3901TIP3    H111648   6.078   1.624   4.288
 3901TIP3    H211649   6.127   1.763   4.323
 3902TIP3   OH211650  -0.012   7.653   5.060
 3902TIP3    H111651   0.054   7.706   5.015
 3902TIP3    H211652   0.033   7.617   5.135
 3903TIP3   OH211653   4.018   2.370   0.917
 3903TIP3    H111654   3.990   2.421   0.993
 3903TIP3    H211655   3.958   2.295   0.915
 3904TIP3   OH211656   5.914   0.165   3.557
 3904TIP3    H111657   5.906   0.181   3.650
 3904TIP3    H211658   5.947   0.247   3.520
 3905TIP3   OH211659   2.284   4.197   2.669
 3905TIP3    H111660   2.224   4.241   2.609
 3905TIP3    H211661   2.369   4.238   2.653
 3906TIP3   OH211662   6.920   3.119   6.795
 3906TIP3    H111663   6.949   3.028   6.804
 3906TIP3    H211664   6.874   3.121   6.711
 3907TIP3   OH211665   6.292   7.399   5.702
 3907TIP3    H111666   6.276   7.365   5.790
 3907TIP3    H211667   6.379   7.438   5.707
 3908TIP3   OH211668   8.226   7.331   2.083
 3908TIP3    H111669   8.220   7.368   1.995
 3908TIP3    H211670   8.160   7.379   2.134
 3909TIP3   OH211671   7.876   0.667   4.081
 3909TIP3    H111672   7.893   0.574   4.068
 3909TIP3    H211673   7.784   0.671   4.107
 3910TIP3   OH211674   1.980   6.073   2.881
 3910TIP3    H111675   2.019   6.154   2.848
 3910TIP3    H211676   1.899   6.063   2.831
 3911TIP3   OH211677   7.673   2.779   4.913
 3911TIP3    H111678   7.731   2.817   4.847
 3911TIP3    H211679   7.608   2.730   4.863
 3912TIP3   OH211680   1.664   5.197   2.644
 3912TIP3    H111681   1.710   5.113   2.641
 3912TIP3    H211682   1.721   5.253   2.696
 3913TIP3   OH211683   2.544   4.725   1.785
 3913TIP3    H111684   2.610   4.756   1.847
 3913TIP3    H211685   2.523   4.636   1.814
 3914TIP3   OH211686   7.740   7.453   4.397
 3914TIP3    H111687   7.677   7.382   4.411
 3914TIP3    H211688   7.752   7.492   4.484
 3915TIP3   OH211689   4.988   1.249   2.089
 3915TIP3    H111690   4.928   1.299   2.033
 3915TIP3    H211691   4.953   1.261   2.178
 3916TIP3   OH211692   8.001   1.919   0.947
 3916TIP3    H111693   7.985   2.010   0.974
 3916TIP3    H211694   8.030   1.875   1.027
 3917TIP3   OH211695   2.327   2.234   0.043
 3917TIP3    H111696   2.393   2.184   0.091
 3917TIP3    H211697   2.325   2.319   0.086
 3918TIP3   OH211698   3.096   1.825   2.551
 3918TIP3    H111699   3.100   1.913   2.513
 3918TIP3    H211700   3.187   1.806   2.577
 3919TIP3   OH211701   6.805   4.898   2.357
 3919TIP3    H111702   6.732   4.912   2.297
 3919TIP3    H211703   6.844   4.984   2.368
 3920TIP3   OH211704   2.434   2.754   5.579
 3920TIP3    H111705   2.401   2.733   5.491
 3920TIP3    H211706   2.439   2.670   5.623
 3921TIP3   OH211707   1.122   1.045   0.883
 3921TIP3    H111708   1.075   1.125   0.905
 3921TIP3    H211709   1.169   1.023   0.964
 3922TIP3   OH211710   7.511   6.039   5.022
 3922TIP3    H111711   7.596   6.046   4.977
 3922TIP3    H211712   7.474   6.127   5.017
 3923TIP3   OH211713   7.597   7.236   0.056
 3923TIP3    H111714   7.657   7.311   0.054
 3923TIP3    H211715   7.609   7.197   0.142
 3924TIP3   OH211716   4.987   0.283   3.087
 3924TIP3    H111717   4.915   0.346   3.077
 3924TIP3    H211718   4.966   0.235   3.167
 3925TIP3   OH211719   6.048   3.419   3.285
 3925TIP3    H111720   5.997   3.352   3.240
 3925TIP3    H211721   6.000   3.436   3.366
 3926TIP3   OH211722   0.064   3.208   2.336
 3926TIP3    H111723   0.055   3.242   2.425
 3926TIP3    H211724   0.023   3.273   2.280
 3927TIP3   OH211725   1.079   1.775   1.163
 3927TIP3    H111726   1.124   1.743   1.085
 3927TIP3    H211727   1.149   1.800   1.223
 3928TIP3   OH211728   1.665   5.542   0.507
 3928TIP3    H111729   1.657   5.487   0.429
 3928TIP3    H211730   1.751   5.584   0.498
 3929TIP3   OH211731   7.602   0.075   2.283
 3929TIP3    H111732   7.677   0.134   2.293
 3929TIP3    H211733   7.640  -0.005   2.246
 3930TIP3   OH211734   2.621   2.184   0.266
 3930TIP3    H111735   2.553   2.235   0.311
 3930TIP3    H211736   2.692   2.178   0.330
 3931TIP3   OH211737   2.575   2.185   3.118
 3931TIP3    H111738   2.546   2.267   3.076
 3931TIP3    H211739   2.669   2.198   3.132
 3932TIP3   OH211740   3.330   1.557   2.788
 3932TIP3    H111741   3.307   1.613   2.862
 3932TIP3    H211742   3.387   1.612   2.734
 3933TIP3   OH211743   2.982   5.567   0.496
 3933TIP3    H111744   2.975   5.572   0.401
 3933TIP3    H211745   3.066   5.524   0.512
 3934TIP3   OH211746   3.224   2.701   4.555
 3934TIP3    H111747   3.208   2.795   4.546
 3934TIP3    H211748   3.311   2.688   4.519
 3935TIP3   OH211749   2.544   0.250   1.176
 3935TIP3    H111750   2.475   0.267   1.240
 3935TIP3    H211751   2.624   0.282   1.219
 3936TIP3   OH211752   8.238   7.295   0.660
 3936TIP3    H111753   8.279   7.372   0.620
 3936TIP3    H211754   8.151   7.291   0.621
 3937TIP3   OH211755   5.362   1.519   6.675
 3937TIP3    H111756   5.293   1.541   6.737
 3937TIP3    H211757   5.431   1.582   6.693
 3938TIP3   OH211758   4.102   0.124   1.031
 3938TIP3    H111759   4.139   0.163   0.951
 3938TIP3    H211760   4.014   0.097   1.005
 3939TIP3   OH211761   3.958   0.918   5.629
 3939TIP3    H111762   3.993   0.958   5.709
 3939TIP3    H211763   4.013   0.840   5.616
 3940TIP3   OH211764   4.636   6.829   6.084
 3940TIP3    H111765   4.629   6.913   6.130
 3940TIP3    H211766   4.683   6.850   6.004
 3941TIP3   OH211767   6.812   1.322   1.272
 3941TIP3    H111768   6.740   1.261   1.256
 3941TIP3    H211769   6.798   1.394   1.210
 3942TIP3   OH211770   0.863   6.452   5.918
 3942TIP3    H111771   0.900   6.389   5.979
 3942TIP3    H211772   0.933   6.516   5.905
 3943TIP3   OH211773   2.375   0.811   6.168
 3943TIP3    H111774   2.296   0.758   6.178
 3943TIP3    H211775   2.420   0.803   6.252
 3944TIP3   OH211776   7.698   6.174   0.371
 3944TIP3    H111777   7.656   6.144   0.452
 3944TIP3    H211778   7.626   6.207   0.318
 3945TIP3   OH211779   7.381   1.763   6.345
 3945TIP3    H111780   7.298   1.811   6.353
 3945TIP3    H211781   7.374   1.717   6.262
 3946TIP3   OH211782   3.093   7.201   1.011
 3946TIP3    H111783   3.159   7.242   0.955
 3946TIP3    H211784   3.038   7.273   1.040
 3947TIP3   OH211785   5.321   0.408   0.277
 3947TIP3    H111786   5.403   0.391   0.231
 3947TIP3    H211787   5.324   0.351   0.354
 3948TIP3   OH211788   1.090   0.920   0.643
 3948TIP3    H111789   1.115   0.979   0.714
 3948TIP3    H211790   1.172   0.900   0.598
 3949TIP3   OH211791   7.375   1.345   5.844
 3949TIP3    H111792   7.353   1.256   5.872
 3949TIP3    H211793   7.309   1.400   5.885
 3950TIP3   OH211794   6.221   7.599   0.755
 3950TIP3    H111795   6.182   7.622   0.839
 3950TIP3    H211796   6.267   7.517   0.772
 3951TIP3   OH211797   7.608   5.626   4.875
 3951TIP3    H111798   7.664   5.632   4.953
 3951TIP3    H211799   7.643   5.692   4.815
 3952TIP3   OH211800   0.675   5.758   2.835
 3952TIP3    H111801   0.627   5.776   2.915
 3952TIP3    H211802   0.753   5.813   2.840
 3953TIP3   OH211803   3.006   0.785   5.183
 3953TIP3    H111804   2.965   0.770   5.268
 3953TIP3    H211805   3.056   0.705   5.166
 3954TIP3   OH211806   2.547   6.531   0.368
 3954TIP3    H111807   2.496   6.583   0.430
 3954TIP3    H211808   2.638   6.546   0.393
 3955TIP3   OH211809   6.671   4.505   3.471
 3955TIP3    H111810   6.667   4.417   3.510
 3955TIP3    H211811   6.642   4.493   3.381
 3956TIP3   OH211812   0.210   1.485   5.654
 3956TIP3    H111813   0.248   1.430   5.585
 3956TIP3    H211814   0.281   1.541   5.683
 3957TIP3   OH211815   7.943   7.398   2.709
 3957TIP3    H111816   7.923   7.353   2.627
 3957TIP3    H211817   8.039   7.403   2.710
 3958TIP3   OH211818   3.340   5.018   5.443
 3958TIP3    H111819   3.436   5.016   5.446
 3958TIP3    H211820   3.319   5.112   5.439
 3959TIP3   OH211821   8.202   5.736   4.088
 3959TIP3    H111822   8.119   5.693   4.068
 3959TIP3    H211823   8.241   5.754   4.003
 3960TIP3   OH211824   4.831   2.747   4.185
 3960TIP3    H111825   4.915   2.773   4.145
 3960TIP3    H211826   4.807   2.666   4.140
 3961TIP3   OH211827   5.088   7.686   0.953
 3961TIP3    H111828   5.125   7.765   0.913
 3961TIP3    H211829   5.025   7.654   0.888
 3962TIP3   OH211830   4.282   4.525   3.317
 3962TIP3    H111831   4.323   4.460   3.374
 3962TIP3    H211832   4.355   4.561   3.266
 3963TIP3   OH211833   1.582   4.313   6.388
 3963TIP3    H111834   1.669   4.346   6.369
 3963TIP3    H211835   1.522   4.380   6.355
 3964TIP3   OH211836   7.980   6.689   1.716
 3964TIP3    H111837   8.030   6.754   1.766
 3964TIP3    H211838   7.952   6.736   1.638
 3965TIP3   OH211839   2.021   0.645   6.728
 3965TIP3    H111840   2.024   0.728   6.679
 3965TIP3    H211841   2.000   0.671   6.818
 3966TIP3   OH211842   4.156   4.747   3.425
 3966TIP3    H111843   4.168   4.807   3.351
 3966TIP3    H211844   4.179   4.661   3.389
 3967TIP3   OH211845   7.044   5.626   3.201
 3967TIP3    H111846   7.118   5.607   3.258
 3967TIP3    H211847   6.970   5.636   3.260
 3968TIP3   OH211848   3.661   4.455   2.682
 3968TIP3    H111849   3.646   4.364   2.655
 3968TIP3    H211850   3.615   4.507   2.616
 3969TIP3   OH211851   3.524   4.055   5.491
 3969TIP3    H111852   3.496   4.023   5.405
 3969TIP3    H211853   3.573   4.135   5.472
 3970TIP3   OH211854   7.411   6.442   3.579
 3970TIP3    H111855   7.383   6.355   3.609
 3970TIP3    H211856   7.330   6.490   3.564
 3971TIP3   OH211857   0.913   7.423   2.135
 3971TIP3    H111858   0.927   7.370   2.056
 3971TIP3    H211859   0.823   7.402   2.162
 3972TIP3   OH211860   1.876   2.388   0.219
 3972TIP3    H111861   1.799   2.444   0.219
 3972TIP3    H211862   1.852   2.312   0.166
 3973TIP3   OH211863   2.033   6.774   3.274
 3973TIP3    H111864   2.016   6.867   3.287
 3973TIP3    H211865   1.953   6.731   3.306
 3974TIP3   OH211866   3.585   1.088   2.990
 3974TIP3    H111867   3.654   1.067   2.927
 3974TIP3    H211868   3.525   1.146   2.942
 3975TIP3   OH211869   0.953   2.901   3.193
 3975TIP3    H111870   1.009   2.866   3.262
 3975TIP3    H211871   0.983   2.859   3.113
 3976TIP3   OH211872   1.655   4.741   4.242
 3976TIP3    H111873   1.656   4.666   4.302
 3976TIP3    H211874   1.731   4.728   4.186
 3977TIP3   OH211875   4.045   6.111   4.334
 3977TIP3    H111876   4.059   6.027   4.291
 3977TIP3    H211877   4.133   6.140   4.360
 3978TIP3   OH211878   5.309   2.616   1.743
 3978TIP3    H111879   5.266   2.551   1.799
 3978TIP3    H211880   5.255   2.695   1.752
 3979TIP3   OH211881   4.303   7.593   5.519
 3979TIP3    H111882   4.336   7.646   5.591
 3979TIP3    H211883   4.342   7.507   5.532
 3980TIP3   OH211884   6.681   3.613   5.297
 3980TIP3    H111885   6.718   3.698   5.319
 3980TIP3    H211886   6.600   3.633   5.250
 3981TIP3   OH211887   0.860   4.610   5.754
 3981TIP3    H111888   0.952   4.627   5.734
 3981TIP3    H211889   0.822   4.584   5.670
 3982TIP3   OH211890   4.340   1.343   3.390
 3982TIP3    H111891   4.324   1.276   3.457
 3982TIP3    H211892   4.269   1.332   3.327
 3983TIP3   OH211893   4.376   5.969   6.208
 3983TIP3    H111894   4.304   5.906   6.204
 3983TIP3    H211895   4.339   6.051   6.176
 3984TIP3   OH211896   2.194   3.051   5.575
 3984TIP3    H111897   2.272   3.075   5.625
 3984TIP3    H211898   2.134   3.014   5.641
 3985TIP3   OH211899   3.881   5.285   5.007
 3985TIP3    H111900   3.911   5.256   4.921
 3985TIP3    H211901   3.932   5.363   5.026
 3986TIP3   OH211902   7.063   5.151   5.919
 3986TIP3    H111903   7.023   5.088   5.858
 3986TIP3    H211904   7.154   5.121   5.927
 3987TIP3   OH211905   5.760   5.455   1.516
 3987TIP3    H111906   5.851   5.478   1.497
 3987TIP3    H211907   5.721   5.536   1.550
 3988TIP3   OH211908   2.445   5.151   4.933
 3988TIP3    H111909   2.499   5.156   5.012
 3988TIP3    H211910   2.373   5.093   4.958
 3989TIP3   OH211911   3.998   2.447   2.704
 3989TIP3    H111912   3.991   2.408   2.617
 3989TIP3    H211913   4.045   2.383   2.756
 3990TIP3   OH211914   8.009   0.119   2.092
 3990TIP3    H111915   8.100   0.151   2.087
 3990TIP3    H211916   8.002   0.056   2.020
 3991TIP3   OH211917   6.291   1.111   0.128
 3991TIP3    H111918   6.243   1.046   0.179
 3991TIP3    H211919   6.336   1.060   0.061
 3992TIP3   OH211920   6.282   7.639   2.897
 3992TIP3    H111921   6.365   7.593   2.909
 3992TIP3    H211922   6.257   7.621   2.806
 3993TIP3   OH211923   6.407   2.596   6.280
 3993TIP3    H111924   6.427   2.680   6.321
 3993TIP3    H211925   6.492   2.551   6.275
 3994TIP3   OH211926   1.009   3.630   4.245
 3994TIP3    H111927   0.976   3.719   4.232
 3994TIP3    H211928   1.067   3.615   4.171
 3995TIP3   OH211929   2.340   2.449   0.876
 3995TIP3    H111930   2.257   2.478   0.837
 3995TIP3    H211931   2.317   2.429   0.967
 3996TIP3   OH211932   5.677   2.275   1.492
 3996TIP3    H111933   5.662   2.308   1.403
 3996TIP3    H211934   5.649   2.346   1.549
 3997TIP3   OH211935   6.707   0.795   4.174
 3997TIP3    H111936   6.656   0.725   4.133
 3997TIP3    H211937   6.770   0.749   4.230
 3998TIP3   OH211938   0.060   2.888   1.503
 3998TIP3    H111939   0.151   2.890   1.532
 3998TIP3    H211940   0.063   2.857   1.413
 3999TIP3   OH211941   0.644   6.378   3.485
 3999TIP3    H111942   0.626   6.287   3.461
 3999TIP3    H211943   0.582   6.429   3.433
 4000TIP3   OH211944   2.077   0.183   1.489
 4000TIP3    H111945   2.140   0.227   1.431
 4000TIP3    H211946   2.104   0.209   1.577
 4001TIP3   OH211947   2.853   7.061   5.908
 4001TIP3    H111948   2.891   7.149   5.918
 4001TIP3    H211949   2.878   7.034   5.820
 4002TIP3   OH211950   3.330   7.518   3.116
 4002TIP3    H111951   3.263   7.583   3.133
 4002TIP3    H211952   3.308   7.444   3.172
 4003TIP3   OH211953   3.533   3.613   1.369
 4003TIP3    H111954   3.484   3.572   1.298
 4003TIP3    H211955   3.569   3.693   1.330
 4004TIP3   OH211956   8.099   3.973   4.363
 4004TIP3    H111957   8.152   3.975   4.283
 4004TIP3    H211958   8.133   3.899   4.412
 4005TIP3   OH211959   2.124   3.967   2.050
 4005TIP3    H111960   2.196   3.993   1.993
 4005TIP3    H211961   2.049   4.016   2.017
 4006TIP3   OH211962   4.099   5.046   2.234
 4006TIP3    H111963   4.059   5.023   2.150
 4006TIP3    H211964   4.126   4.962   2.271
 4007TIP3   OH211965   1.537   7.250   2.084
 4007TIP3    H111966   1.466   7.314   2.074
 4007TIP3    H211967   1.507   7.173   2.035
 4008TIP3   OH211968   0.029   0.005   5.978
 4008TIP3    H111969   0.010   0.035   5.889
 4008TIP3    H211970   0.101   0.060   6.007
 4009TIP3   OH211971   7.814   7.263   2.920
 4009TIP3    H111972   7.889   7.271   2.861
 4009TIP3    H211973   7.750   7.324   2.885
 4010TIP3   OH211974   6.221   6.960   0.370
 4010TIP3    H111975   6.218   7.043   0.322
 4010TIP3    H211976   6.218   6.893   0.301
 4011TIP3   OH211977   6.499   5.468   0.661
 4011TIP3    H111978   6.519   5.555   0.695
 4011TIP3    H211979   6.542   5.465   0.576
 4012TIP3   OH211980   3.715   2.888   1.952
 4012TIP3    H111981   3.627   2.872   1.918
 4012TIP3    H211982   3.735   2.978   1.927
 4013TIP3   OH211983   7.914   5.344   0.533
 4013TIP3    H111984   7.862   5.425   0.539
 4013TIP3    H211985   7.862   5.287   0.477
 4014TIP3   OH211986   5.910   4.081   5.051
 4014TIP3    H111987   5.944   4.144   4.987
 4014TIP3    H211988   5.941   3.996   5.020
 4015TIP3   OH211989   6.986   7.224   5.362
 4015TIP3    H111990   7.000   7.318   5.374
 4015TIP3    H211991   6.897   7.209   5.393
 4016TIP3   OH211992   5.956   3.542   5.639
 4016TIP3    H111993   5.974   3.500   5.724
 4016TIP3    H211994   5.960   3.471   5.576
 4017TIP3   OH211995   7.927   6.961   1.914
 4017TIP3    H111996   8.012   6.924   1.890
 4017TIP3    H211997   7.948   7.035   1.971
 4018TIP3   OH211998   7.177   5.587   4.467
 4018TIP3    H111999   7.094   5.540   4.467
 4018TIP3    H212000   7.215   5.569   4.552
 4019TIP3   OH212001   5.271   0.375   6.531
 4019TIP3    H112002   5.285   0.446   6.469
 4019TIP3    H212003   5.176   0.367   6.538
 4020TIP3   OH212004   5.207   4.741   2.030
 4020TIP3    H112005   5.203   4.807   1.960
 4020TIP3    H212006   5.284   4.766   2.082
 4021TIP3   OH212007   8.256   0.097   2.291
 4021TIP3    H112008   8.287   0.018   2.335
 4021TIP3    H212009   8.187   0.131   2.348
 4022TIP3   OH212010   1.526   0.590   5.330
 4022TIP3    H112011   1.439   0.605   5.293
 4022TIP3    H212012   1.582   0.571   5.254
 4023TIP3   OH212013   7.046   7.279   3.277
 4023TIP3    H112014   7.065   7.194   3.314
 4023TIP3    H212015   6.950   7.282   3.271
 4024TIP3   OH212016   3.557   1.358   3.558
 4024TIP3    H112017   3.609   1.318   3.629
 4024TIP3    H212018   3.516   1.284   3.514
 4025TIP3   OH212019   6.145   6.995   1.386
 4025TIP3    H112020   6.119   6.945   1.309
 4025TIP3    H212021   6.237   6.974   1.399
 4026TIP3   OH212022   7.124   7.291   0.914
 4026TIP3    H112023   7.173   7.213   0.887
 4026TIP3    H212024   7.036   7.258   0.934
 4027TIP3   OH212025   2.367   4.359   5.885
 4027TIP3    H112026   2.285   4.407   5.897
 4027TIP3    H212027   2.342   4.281   5.835
 4028TIP3   OH212028   2.015   7.106   3.401
 4028TIP3    H112029   2.087   7.108   3.338
 4028TIP3    H212030   1.937   7.122   3.348
 4029TIP3   OH212031   4.329   7.208   0.240
 4029TIP3    H112032   4.250   7.258   0.261
 4029TIP3    H212033   4.322   7.129   0.293
 4030TIP3   OH212034   6.832   3.054   3.876
 4030TIP3    H112035   6.865   3.029   3.789
 4030TIP3    H212036   6.908   3.044   3.934
 4031TIP3   OH212037   0.225   2.256   4.296
 4031TIP3    H112038   0.228   2.182   4.356
 4031TIP3    H212039   0.132   2.274   4.284
 4032TIP3   OH212040   8.237   3.796   4.567
 4032TIP3    H112041   8.282   3.760   4.491
 4032TIP3    H212042   8.233   3.724   4.630
 4033TIP3   OH212043   1.026   6.861   4.796
 4033TIP3    H112044   1.111   6.818   4.795
 4033TIP3    H212045   0.979   6.822   4.722
 4034TIP3   OH212046   5.928   1.452   5.044
 4034TIP3    H112047   5.890   1.494   4.967
 4034TIP3    H212048   5.984   1.383   5.008
 4035TIP3   OH212049   0.368   1.096   1.855
 4035TIP3    H112050   0.438   1.031   1.853
 4035TIP3    H212051   0.316   1.073   1.932
 4036TIP3   OH212052   2.027   3.813   2.559
 4036TIP3    H112053   2.115   3.849   2.568
 4036TIP3    H212054   2.042   3.722   2.530
 4037TIP3   OH212055   1.915   4.623   3.390
 4037TIP3    H112056   1.915   4.542   3.338
 4037TIP3    H212057   1.890   4.595   3.478
 4038TIP3   OH212058   7.952   6.484   6.778
 4038TIP3    H112059   7.979   6.542   6.707
 4038TIP3    H212060   7.954   6.397   6.740
 4039TIP3   OH212061   6.803   5.756   2.803
 4039TIP3    H112062   6.878   5.789   2.853
 4039TIP3    H212063   6.800   5.663   2.824
 4040TIP3   OH212064   0.408   0.230   0.130
 4040TIP3    H112065   0.358   0.263   0.205
 4040TIP3    H212066   0.435   0.142   0.155
 4041TIP3   OH212067   5.793   7.375   0.989
 4041TIP3    H112068   5.869   7.375   1.048
 4041TIP3    H212069   5.828   7.399   0.904
 4042TIP3   OH212070   4.882   6.560   2.500
 4042TIP3    H112071   4.958   6.581   2.447
 4042TIP3    H212072   4.812   6.541   2.437
 4043TIP3   OH212073   5.976   4.221   3.448
 4043TIP3    H112074   5.927   4.166   3.509
 4043TIP3    H212075   5.921   4.298   3.435
 4044TIP3   OH212076   2.318   4.764   3.582
 4044TIP3    H112077   2.257   4.778   3.654
 4044TIP3    H212078   2.282   4.688   3.535
 4045TIP3   OH212079   2.905   3.696   2.220
 4045TIP3    H112080   2.845   3.751   2.269
 4045TIP3    H212081   2.864   3.685   2.134
 4046TIP3   OH212082   7.861   7.074   0.613
 4046TIP3    H112083   7.821   7.028   0.538
 4046TIP3    H212084   7.927   7.130   0.574
 4047TIP3   OH212085   0.095   4.484   5.485
 4047TIP3    H112086   0.037   4.442   5.549
 4047TIP3    H212087   0.056   4.571   5.472
 4048TIP3   OH212088   3.348   0.363   2.061
 4048TIP3    H112089   3.282   0.294   2.072
 4048TIP3    H212090   3.411   0.348   2.131
 4049TIP3   OH212091   2.778   6.849   3.974
 4049TIP3    H112092   2.782   6.945   3.980
 4049TIP3    H212093   2.779   6.820   4.065
 4050TIP3   OH212094   3.250   4.420   4.576
 4050TIP3    H112095   3.240   4.509   4.612
 4050TIP3    H212096   3.289   4.433   4.490
 4051TIP3   OH212097   6.059   3.287   1.772
 4051TIP3    H112098   5.994   3.315   1.708
 4051TIP3    H212099   6.040   3.339   1.850
 4052TIP3   OH212100   1.339   4.169   3.111
 4052TIP3    H112101   1.308   4.257   3.132
 4052TIP3    H212102   1.379   4.178   3.025
 4053TIP3   OH212103   5.382   3.553   0.988
 4053TIP3    H112104   5.295   3.513   0.998
 4053TIP3    H212105   5.410   3.528   0.900
 4054TIP3   OH212106   6.060   7.455   2.183
 4054TIP3    H112107   6.005   7.429   2.109
 4054TIP3    H212108   6.147   7.465   2.145
 4055TIP3   OH212109   5.039   5.380   1.579
 4055TIP3    H112110   4.974   5.327   1.624
 4055TIP3    H212111   5.038   5.348   1.488
 4056TIP3   OH212112   3.733   6.768   4.949
 4056TIP3    H112113   3.819   6.798   4.982
 4056TIP3    H212114   3.751   6.683   4.910
 4057TIP3   OH212115   6.919   3.101   0.414
 4057TIP3    H112116   6.954   3.171   0.360
 4057TIP3    H212117   6.840   3.073   0.367
 4058TIP3   OH212118   4.488   5.070   5.149
 4058TIP3    H112119   4.574   5.109   5.137
 4058TIP3    H212120   4.485   4.998   5.086
 4059TIP3   OH212121   3.207   0.634   2.726
 4059TIP3    H112122   3.291   0.679   2.728
 4059TIP3    H212123   3.143   0.703   2.710
 4060TIP3   OH212124   2.246   1.606   3.623
 4060TIP3    H112125   2.225   1.565   3.707
 4060TIP3    H212126   2.185   1.565   3.561
 4061TIP3   OH212127   5.196   5.511   0.796
 4061TIP3    H112128   5.231   5.590   0.839
 4061TIP3    H212129   5.156   5.462   0.868
 4062TIP3   OH212130   1.111   2.292   5.322
 4062TIP3    H112131   1.151   2.372   5.356
 4062TIP3    H212132   1.183   2.243   5.283
 4063TIP3   OH212133   3.451   7.079   1.425
 4063TIP3    H112134   3.446   7.107   1.516
 4063TIP3    H212135   3.464   6.985   1.429
 4064TIP3   OH212136   3.705   2.846   5.425
 4064TIP3    H112137   3.644   2.918   5.416
 4064TIP3    H212138   3.792   2.886   5.417
 4065TIP3   OH212139   4.121   3.237   2.248
 4065TIP3    H112140   4.094   3.320   2.285
 4065TIP3    H212141   4.105   3.245   2.154
 4066TIP3   OH212142   1.568   0.376   4.692
 4066TIP3    H112143   1.526   0.460   4.672
 4066TIP3    H212144   1.662   0.394   4.684
 4067TIP3   OH212145   8.246   0.591   4.073
 4067TIP3    H112146   8.308   0.655   4.036
 4067TIP3    H212147   8.161   0.633   4.064
 4068TIP3   OH212148   3.660   3.057   4.769
 4068TIP3    H112149   3.702   2.978   4.735
 4068TIP3    H212150   3.706   3.077   4.850
 4069TIP3   OH212151   4.121   4.634   2.587
 4069TIP3    H112152   4.062   4.703   2.557
 4069TIP3    H212153   4.197   4.680   2.623
 4070TIP3   OH212154   5.571   2.434   4.791
 4070TIP3    H112155   5.496   2.376   4.802
 4070TIP3    H212156   5.646   2.375   4.785
 4071TIP3   OH212157   7.359   0.753   0.736
 4071TIP3    H112158   7.433   0.693   0.728
 4071TIP3    H212159   7.331   0.746   0.827
 4072TIP3   OH212160   7.990   7.701   4.049
 4072TIP3    H112161   7.904   7.667   4.075
 4072TIP3    H212162   7.981   7.720   3.955
 4073TIP3   OH212163   6.109   2.775   4.039
 4073TIP3    H112164   6.072   2.690   4.063
 4073TIP3    H212165   6.042   2.815   3.984
 4074TIP3   OH212166   5.903   7.132   4.158
 4074TIP3    H112167   5.835   7.091   4.212
 4074TIP3    H212168   5.929   7.063   4.096
 4075TIP3   OH212169   7.265   1.944   5.576
 4075TIP3    H112170   7.278   2.004   5.650
 4075TIP3    H212171   7.177   1.965   5.544
 4076TIP3   OH212172   4.072   6.869   2.878
 4076TIP3    H112173   4.103   6.879   2.968
 4076TIP3    H212174   3.988   6.823   2.887
 4077TIP3   OH212175   2.301   5.604   4.669
 4077TIP3    H112176   2.297   5.538   4.600
 4077TIP3    H212177   2.231   5.666   4.646
 4078TIP3   OH212178   3.045   2.001   5.644
 4078TIP3    H112179   3.030   2.041   5.730
 4078TIP3    H212180   3.136   1.972   5.647
 4079TIP3   OH212181   6.141   2.461   1.513
 4079TIP3    H112182   6.073   2.395   1.501
 4079TIP3    H212183   6.197   2.453   1.436
 4080TIP3   OH212184   0.810   5.973   5.492
 4080TIP3    H112185   0.799   5.879   5.507
 4080TIP3    H212186   0.720   6.007   5.491
 4081TIP3   OH212187   2.772   4.988   6.057
 4081TIP3    H112188   2.799   5.042   6.131
 4081TIP3    H212189   2.743   5.051   5.991
 4082TIP3   OH212190   1.583   6.315   1.036
 4082TIP3    H112191   1.502   6.319   1.085
 4082TIP3    H212192   1.592   6.223   1.012
 4083TIP3   OH212193   7.409   1.281   4.812
 4083TIP3    H112194   7.498   1.279   4.778
 4083TIP3    H212195   7.387   1.189   4.827
 4084TIP3   OH212196   2.955   4.160   3.643
 4084TIP3    H112197   2.987   4.240   3.602
 4084TIP3    H212198   2.913   4.112   3.573
 4085TIP3   OH212199   2.973   0.333   1.755
 4085TIP3    H112200   2.964   0.385   1.675
 4085TIP3    H212201   2.893   0.281   1.760
 4086TIP3   OH212202   1.521   3.695   4.228
 4086TIP3    H112203   1.592   3.720   4.286
 4086TIP3    H212204   1.511   3.601   4.242
 4087TIP3   OH212205   6.673   0.477   0.558
 4087TIP3    H112206   6.762   0.475   0.594
 4087TIP3    H212207   6.685   0.489   0.464
 4088TIP3   OH212208   2.655   3.749   2.305
 4088TIP3    H112209   2.631   3.823   2.250
 4088TIP3    H212210   2.659   3.675   2.245
 4089TIP3   OH212211   2.692   2.859   6.150
 4089TIP3    H112212   2.690   2.851   6.055
 4089TIP3    H212213   2.666   2.949   6.167
 4090TIP3   OH212214   3.978   2.232   5.061
 4090TIP3    H112215   3.955   2.246   4.970
 4090TIP3    H212216   3.901   2.263   5.110
 4091TIP3   OH212217   0.601   5.662   0.945
 4091TIP3    H112218   0.678   5.665   0.888
 4091TIP3    H212219   0.600   5.747   0.989
 4092TIP3   OH212220   6.822   2.356   3.859
 4092TIP3    H112221   6.839   2.340   3.766
 4092TIP3    H212222   6.902   2.399   3.891
 4093TIP3   OH212223   8.087   6.874   4.698
 4093TIP3    H112224   8.113   6.787   4.670
 4093TIP3    H212225   8.002   6.889   4.658
 4094TIP3   OH212226   1.294   6.806   3.075
 4094TIP3    H112227   1.274   6.881   3.019
 4094TIP3    H212228   1.386   6.818   3.099
 4095TIP3   OH212229   2.794   2.127   5.172
 4095TIP3    H112230   2.873   2.076   5.153
 4095TIP3    H212231   2.733   2.105   5.101
 4096TIP3   OH212232   2.575   7.292   1.518
 4096TIP3    H112233   2.606   7.342   1.442
 4096TIP3    H212234   2.488   7.326   1.536
 4097TIP3   OH212235   5.531   4.847   2.465
 4097TIP3    H112236   5.546   4.753   2.473
 4097TIP3    H212237   5.619   4.884   2.455
 4098TIP3   OH212238   6.241   2.976   1.162
 4098TIP3    H112239   6.155   3.017   1.162
 4098TIP3    H212240   6.224   2.883   1.149
 4099TIP3   OH212241   6.860   5.452   5.549
 4099TIP3    H112242   6.818   5.404   5.478
 4099TIP3    H212243   6.798   5.446   5.622
 4100TIP3   OH212244   4.045   7.605   3.797
 4100TIP3    H112245   4.084   7.637   3.716
 4100TIP3    H212246   4.113   7.552   3.837
 4101TIP3   OH212247   7.292   2.907   0.194
 4101TIP3    H112248   7.235   2.927   0.268
 4101TIP3    H212249   7.268   2.973   0.128
 4102TIP3   OH212250   0.286   5.710   0.662
 4102TIP3    H112251   0.266   5.616   0.665
 4102TIP3    H212252   0.381   5.714   0.652
 4103TIP3   OH212253   2.316   1.319   0.941
 4103TIP3    H112254   2.329   1.235   0.898
 4103TIP3    H212255   2.397   1.368   0.925
 4104TIP3   OH212256   5.907   4.492   4.421
 4104TIP3    H112257   5.965   4.540   4.362
 4104TIP3    H212258   5.957   4.413   4.445
 4105TIP3   OH212259   3.672   1.785   5.638
 4105TIP3    H112260   3.595   1.792   5.581
 4105TIP3    H212261   3.667   1.862   5.695
 4106TIP3   OH212262   7.897   5.862   4.355
 4106TIP3    H112263   7.804   5.841   4.345
 4106TIP3    H212264   7.938   5.777   4.374
 4107TIP3   OH212265   2.089   3.276   3.267
 4107TIP3    H112266   2.105   3.365   3.235
 4107TIP3    H212267   2.172   3.249   3.306
 4108TIP3   OH212268   2.690   6.800   4.871
 4108TIP3    H112269   2.739   6.719   4.883
 4108TIP3    H212270   2.714   6.830   4.784
 4109TIP3   OH212271   7.243   4.214   0.290
 4109TIP3    H112272   7.282   4.198   0.376
 4109TIP3    H212273   7.152   4.187   0.299
 4110TIP3   OH212274   5.801   0.891   4.927
 4110TIP3    H112275   5.855   0.812   4.922
 4110TIP3    H212276   5.756   0.884   5.011
 4111TIP3   OH212277   4.356   5.342   6.772
 4111TIP3    H112278   4.439   5.335   6.725
 4111TIP3    H212279   4.292   5.302   6.712
 4112TIP3   OH212280   7.567   3.022   1.883
 4112TIP3    H112281   7.645   2.976   1.915
 4112TIP3    H212282   7.597   3.071   1.806
 4113TIP3   OH212283   3.354   5.560   4.557
 4113TIP3    H112284   3.264   5.526   4.564
 4113TIP3    H212285   3.402   5.516   4.627
 4114TIP3   OH212286   7.040   2.676   5.427
 4114TIP3    H112287   7.015   2.695   5.336
 4114TIP3    H212288   6.962   2.698   5.478
 4115TIP3   OH212289   6.184   2.109   1.404
 4115TIP3    H112290   6.133   2.031   1.424
 4115TIP3    H212291   6.126   2.182   1.424
 4116TIP3   OH212292   7.780   0.109   3.189
 4116TIP3    H112293   7.726   0.110   3.268
 4116TIP3    H212294   7.757   0.190   3.143
 4117TIP3   OH212295   1.732   5.515   5.470
 4117TIP3    H112296   1.697   5.434   5.434
 4117TIP3    H212297   1.827   5.506   5.462
 4118TIP3   OH212298   2.961   2.868   0.333
 4118TIP3    H112299   2.888   2.924   0.306
 4118TIP3    H212300   3.024   2.874   0.261
 4119TIP3   OH212301   2.854   5.587   5.133
 4119TIP3    H112302   2.765   5.550   5.135
 4119TIP3    H212303   2.840   5.682   5.130
 4120TIP3   OH212304   6.959   2.608   5.176
 4120TIP3    H112305   6.920   2.562   5.101
 4120TIP3    H212306   7.053   2.592   5.168
 4121TIP3   OH212307   3.722   4.339   0.006
 4121TIP3    H112308   3.774   4.416   0.030
 4121TIP3    H212309   3.637   4.376  -0.021
 4122TIP3   OH212310   3.525   6.491   3.177
 4122TIP3    H112311   3.461   6.421   3.174
 4122TIP3    H212312   3.579   6.478   3.099
 4123TIP3   OH212313   1.075   3.769   6.710
 4123TIP3    H112314   1.163   3.790   6.681
 4123TIP3    H212315   1.074   3.794   6.803
 4124TIP3   OH212316   3.785   1.310   1.782
 4124TIP3    H112317   3.855   1.307   1.717
 4124TIP3    H212318   3.705   1.294   1.731
 4125TIP3   OH212319   6.182   5.141   5.544
 4125TIP3    H112320   6.197   5.109   5.455
 4125TIP3    H212321   6.103   5.096   5.573
 4126TIP3   OH212322   0.044   6.580   1.874
 4126TIP3    H112323  -0.034   6.525   1.883
 4126TIP3    H212324   0.024   6.640   1.803
 4127TIP3   OH212325   7.205   3.667   4.316
 4127TIP3    H112326   7.148   3.606   4.270
 4127TIP3    H212327   7.175   3.662   4.407
 4128TIP3   OH212328   2.756   6.580   1.038
 4128TIP3    H112329   2.833   6.610   1.087
 4128TIP3    H212330   2.693   6.652   1.048
 4129TIP3   OH212331   4.689   1.679   5.799
 4129TIP3    H112332   4.610   1.654   5.751
 4129TIP3    H212333   4.676   1.771   5.820
 4130TIP3   OH212334   6.761   7.283   2.786
 4130TIP3    H112335   6.747   7.347   2.856
 4130TIP3    H212336   6.847   7.304   2.750
 4131TIP3   OH212337   1.568   1.798   1.172
 4131TIP3    H112338   1.518   1.843   1.239
 4131TIP3    H212339   1.585   1.711   1.210
 4132TIP3   OH212340   5.374   7.150   0.195
 4132TIP3    H112341   5.314   7.087   0.236
 4132TIP3    H212342   5.459   7.107   0.198
 4133TIP3   OH212343   5.207   4.501   3.292
 4133TIP3    H112344   5.162   4.531   3.213
 4133TIP3    H212345   5.136   4.480   3.353
 4134TIP3   OH212346   7.870   0.087   0.795
 4134TIP3    H112347   7.800   0.120   0.850
 4134TIP3    H212348   7.861   0.135   0.713
 4135TIP3   OH212349   3.571   0.133   2.714
 4135TIP3    H112350   3.596   0.186   2.790
 4135TIP3    H212351   3.637   0.063   2.711
 4136TIP3   OH212352   2.759   4.171   2.350
 4136TIP3    H112353   2.804   4.134   2.426
 4136TIP3    H212354   2.734   4.095   2.297
 4137TIP3   OH212355   1.627   1.621   1.418
 4137TIP3    H112356   1.655   1.642   1.507
 4137TIP3    H212357   1.535   1.596   1.427
 4138TIP3   OH212358   1.280   7.251   6.610
 4138TIP3    H112359   1.209   7.299   6.568
 4138TIP3    H212360   1.264   7.160   6.588
 4139TIP3   OH212361   2.035   2.003   3.301
 4139TIP3    H112362   1.991   1.945   3.238
 4139TIP3    H212363   1.997   2.089   3.286
 4140TIP3   OH212364   5.203   5.544   1.881
 4140TIP3    H112365   5.266   5.476   1.906
 4140TIP3    H212366   5.213   5.612   1.946
 4141TIP3   OH212367   0.840   3.289   5.629
 4141TIP3    H112368   0.827   3.315   5.721
 4141TIP3    H212369   0.927   3.321   5.607
 4142TIP3   OH212370   0.480   1.206   4.253
 4142TIP3    H112371   0.463   1.112   4.264
 4142TIP3    H212372   0.500   1.216   4.160
 4143TIP3   OH212373   3.657   3.673   5.247
 4143TIP3    H112374   3.649   3.690   5.341
 4143TIP3    H212375   3.680   3.757   5.209
 4144TIP3   OH212376   4.992   0.483   4.088
 4144TIP3    H112377   4.923   0.549   4.094
 4144TIP3    H212378   4.966   0.427   4.014
 4145TIP3   OH212379   2.282   0.693   4.610
 4145TIP3    H112380   2.226   0.744   4.552
 4145TIP3    H212381   2.371   0.720   4.587
 4146TIP3   OH212382   3.007   2.387   2.403
 4146TIP3    H112383   2.964   2.465   2.438
 4146TIP3    H212384   3.035   2.413   2.315
 4147TIP3   OH212385   5.092   5.168   5.896
 4147TIP3    H112386   5.076   5.262   5.900
 4147TIP3    H212387   5.083   5.138   5.987
 4148TIP3   OH212388   4.117   7.081   3.372
 4148TIP3    H112389   4.050   7.012   3.377
 4148TIP3    H212390   4.081   7.154   3.422
 4149TIP3   OH212391   3.861   2.949   1.656
 4149TIP3    H112392   3.928   3.015   1.677
 4149TIP3    H212393   3.807   2.991   1.589
 4150TIP3   OH212394   7.944   3.166   2.334
 4150TIP3    H112395   8.001   3.242   2.349
 4150TIP3    H212396   7.856   3.198   2.356
 4151TIP3   OH212397   7.461   3.305   4.154
 4151TIP3    H112398   7.481   3.343   4.239
 4151TIP3    H212399   7.520   3.230   4.147
 4152TIP3   OH212400   3.234   0.164   1.309
 4152TIP3    H112401   3.196   0.239   1.354
 4152TIP3    H212402   3.270   0.200   1.228
 4153TIP3   OH212403   1.089   5.719   5.953
 4153TIP3    H112404   1.006   5.727   6.000
 4153TIP3    H212405   1.092   5.627   5.925
 4154TIP3   OH212406   7.337   0.684   4.933
 4154TIP3    H112407   7.246   0.682   4.960
 4154TIP3    H212408   7.367   0.593   4.945
 4155TIP3   OH212409   0.254   2.931   3.101
 4155TIP3    H112410   0.340   2.921   3.141
 4155TIP3    H212411   0.269   2.918   3.007
 4156TIP3   OH212412   5.115   3.133   6.563
 4156TIP3    H112413   5.208   3.116   6.574
 4156TIP3    H212414   5.071   3.064   6.614
 4157TIP3   OH212415   1.033   4.158   3.123
 4157TIP3    H112416   1.059   4.247   3.102
 4157TIP3    H212417   1.113   4.107   3.114
 4158TIP3   OH212418   6.023   7.276   0.383
 4158TIP3    H112419   6.030   7.263   0.289
 4158TIP3    H212420   5.929   7.270   0.402
 4159TIP3   OH212421   3.003   6.337   3.338
 4159TIP3    H112422   2.911   6.318   3.360
 4159TIP3    H212423   3.051   6.317   3.419
 4160TIP3   OH212424   6.837   0.648   1.698
 4160TIP3    H112425   6.846   0.634   1.604
 4160TIP3    H212426   6.780   0.724   1.706
 4161TIP3   OH212427   7.531   1.985   1.948
 4161TIP3    H112428   7.465   2.026   2.005
 4161TIP3    H212429   7.523   2.032   1.865
 4162TIP3   OH212430   0.506   7.613   5.746
 4162TIP3    H112431   0.595   7.604   5.711
 4162TIP3    H212432   0.451   7.624   5.669
 4163TIP3   OH212433   0.006   5.513   4.924
 4163TIP3    H112434   0.064   5.503   4.848
 4163TIP3    H212435   0.030   5.441   4.981
 4164TIP3   OH212436   7.252   1.076   1.385
 4164TIP3    H112437   7.307   1.151   1.408
 4164TIP3    H212438   7.176   1.116   1.341
 4165TIP3   OH212439   1.952   2.436   3.738
 4165TIP3    H112440   1.910   2.385   3.808
 4165TIP3    H212441   1.890   2.507   3.720
 4166TIP3   OH212442   5.955   2.254   1.479
 4166TIP3    H112443   5.873   2.297   1.504
 4166TIP3    H212444   5.936   2.161   1.485
 4167TIP3   OH212445   3.167   5.932   2.756
 4167TIP3    H112446   3.247   5.981   2.736
 4167TIP3    H212447   3.096   5.991   2.731
 4168TIP3   OH212448   0.615   5.029   3.369
 4168TIP3    H112449   0.644   4.962   3.307
 4168TIP3    H212450   0.538   5.067   3.328
 4169TIP3   OH212451   5.531   4.817   5.652
 4169TIP3    H112452   5.451   4.869   5.646
 4169TIP3    H212453   5.578   4.834   5.570
 4170TIP3   OH212454   3.054   6.079   2.095
 4170TIP3    H112455   2.975   6.049   2.051
 4170TIP3    H212456   3.100   6.132   2.030
 4171TIP3   OH212457   6.650   4.465   5.956
 4171TIP3    H112458   6.556   4.480   5.966
 4171TIP3    H212459   6.656   4.385   5.903
 4172TIP3   OH212460   4.187   1.102   1.421
 4172TIP3    H112461   4.129   1.101   1.497
 4172TIP3    H212462   4.129   1.093   1.345
 4173TIP3   OH212463   1.086   6.452   4.468
 4173TIP3    H112464   1.047   6.527   4.424
 4173TIP3    H212465   1.062   6.463   4.560
 4174TIP3   OH212466   5.923   3.440   6.316
 4174TIP3    H112467   5.941   3.357   6.272
 4174TIP3    H212468   5.868   3.415   6.391
 4175TIP3   OH212469   5.762   1.266   0.030
 4175TIP3    H112470   5.825   1.284   0.100
 4175TIP3    H212471   5.680   1.246   0.074
 4176TIP3   OH212472   1.005   0.534   4.787
 4176TIP3    H112473   0.937   0.476   4.821
 4176TIP3    H212474   1.086   0.484   4.800
 4177TIP3   OH212475   6.998   1.636   5.258
 4177TIP3    H112476   7.025   1.553   5.297
 4177TIP3    H212477   6.957   1.685   5.329
 4178TIP3   OH212478   2.024   5.194   2.237
 4178TIP3    H112479   2.112   5.232   2.231
 4178TIP3    H212480   2.040   5.101   2.254
 4179TIP3   OH212481   5.854   3.259   3.142
 4179TIP3    H112482   5.904   3.230   3.066
 4179TIP3    H212483   5.842   3.180   3.194
 4180TIP3   OH212484   4.956   6.109   3.692
 4180TIP3    H112485   4.913   6.027   3.718
 4180TIP3    H212486   4.984   6.149   3.774
 4181TIP3   OH212487   3.687   5.738   0.639
 4181TIP3    H112488   3.692   5.796   0.715
 4181TIP3    H212489   3.759   5.676   0.651
 4182TIP3   OH212490   2.970   3.932   5.244
 4182TIP3    H112491   2.971   3.838   5.260
 4182TIP3    H212492   2.879   3.952   5.222
 4183TIP3   OH212493   1.562   5.459   2.950
 4183TIP3    H112494   1.595   5.372   2.974
 4183TIP3    H212495   1.521   5.493   3.029
 4184TIP3   OH212496   0.410   2.615   1.069
 4184TIP3    H112497   0.368   2.544   1.115
 4184TIP3    H212498   0.504   2.596   1.075
 4185TIP3   OH212499   0.644   1.225   2.845
 4185TIP3    H112500   0.596   1.305   2.866
 4185TIP3    H212501   0.576   1.163   2.815
 4186TIP3   OH212502   7.268   5.226   1.082
 4186TIP3    H112503   7.227   5.287   1.021
 4186TIP3    H212504   7.321   5.281   1.139
 4187TIP3   OH212505   1.471   1.815   2.852
 4187TIP3    H112506   1.388   1.807   2.899
 4187TIP3    H212507   1.446   1.810   2.760
 4188TIP3   OH212508   3.483   5.493   6.083
 4188TIP3    H112509   3.554   5.555   6.068
 4188TIP3    H212510   3.526   5.411   6.104
 4189TIP3   OH212511   7.143   6.433   4.167
 4189TIP3    H112512   7.238   6.422   4.174
 4189TIP3    H212513   7.124   6.510   4.220
 4190TIP3   OH212514   6.483   6.333   5.426
 4190TIP3    H112515   6.421   6.399   5.395
 4190TIP3    H212516   6.477   6.262   5.363
 4191TIP3   OH212517   3.415   3.022   2.626
 4191TIP3    H112518   3.483   3.049   2.688
 4191TIP3    H212519   3.449   3.046   2.540
 4192TIP3   OH212520   3.185   5.952   3.055
 4192TIP3    H112521   3.143   5.909   2.981
 4192TIP3    H212522   3.127   6.027   3.074
 4193TIP3   OH212523   8.103   3.369   2.356
 4193TIP3    H112524   8.124   3.443   2.298
 4193TIP3    H212525   8.068   3.410   2.435
 4194TIP3   OH212526   3.182   6.812   0.885
 4194TIP3    H112527   3.267   6.856   0.887
 4194TIP3    H212528   3.203   6.721   0.864
 4195TIP3   OH212529   7.339   2.386   6.662
 4195TIP3    H112530   7.300   2.420   6.582
 4195TIP3    H212531   7.424   2.429   6.667
 4196TIP3   OH212532   5.651   2.985   2.215
 4196TIP3    H112533   5.694   3.006   2.131
 4196TIP3    H212534   5.565   3.027   2.209
 4197TIP3   OH212535   6.350   5.317   4.617
 4197TIP3    H112536   6.293   5.324   4.540
 4197TIP3    H212537   6.321   5.237   4.661
 4198TIP3   OH212538   2.637   0.088   3.906
 4198TIP3    H112539   2.542   0.096   3.906
 4198TIP3    H212540   2.656   0.026   3.835
 4199TIP3   OH212541   7.549   1.313   3.923
 4199TIP3    H112542   7.630   1.362   3.920
 4199TIP3    H212543   7.546   1.277   4.012
 4200TIP3   OH212544   4.165   2.083   0.155
 4200TIP3    H112545   4.123   2.058   0.237
 4200TIP3    H212546   4.173   2.178   0.161
 4201TIP3   OH212547   1.864   1.078   0.977
 4201TIP3    H112548   1.913   0.996   0.978
 4201TIP3    H212549   1.880   1.116   1.063
 4202TIP3   OH212550   4.893   4.688   2.229
 4202TIP3    H112551   4.841   4.625   2.179
 4202TIP3    H212552   4.828   4.750   2.264
 4203TIP3   OH212553   2.638   1.166   5.498
 4203TIP3    H112554   2.593   1.098   5.548
 4203TIP3    H212555   2.568   1.225   5.470
 4204TIP3   OH212556   3.422   2.429   1.112
 4204TIP3    H112557   3.502   2.382   1.137
 4204TIP3    H212558   3.431   2.442   1.018
 4205TIP3   OH212559   3.468   4.778   3.291
 4205TIP3    H112560   3.488   4.784   3.384
 4205TIP3    H212561   3.469   4.684   3.272
 4206TIP3   OH212562   0.242   3.689   6.412
 4206TIP3    H112563   0.335   3.680   6.429
 4206TIP3    H212564   0.208   3.733   6.489
 4207TIP3   OH212565   7.677   7.523   1.582
 4207TIP3    H112566   7.771   7.540   1.568
 4207TIP3    H212567   7.658   7.567   1.665
 4208TIP3   OH212568   6.031   7.401   6.162
 4208TIP3    H112569   6.026   7.365   6.074
 4208TIP3    H212570   6.006   7.493   6.152
 4209TIP3   OH212571   2.978   2.489   1.951
 4209TIP3    H112572   2.933   2.573   1.958
 4209TIP3    H212573   2.997   2.479   1.858
 4210TIP3   OH212574   3.591   5.318   2.744
 4210TIP3    H112575   3.602   5.223   2.741
 4210TIP3    H212576   3.524   5.336   2.678
 4211TIP3   OH212577   4.040   5.571   2.584
 4211TIP3    H112578   4.053   5.565   2.679
 4211TIP3    H212579   3.945   5.575   2.573
 4212TIP3   OH212580   1.985   4.163   3.832
 4212TIP3    H112581   1.994   4.250   3.869
 4212TIP3    H212582   2.025   4.105   3.897
 4213TIP3   OH212583   3.891   1.974   0.672
 4213TIP3    H112584   3.841   1.926   0.606
 4213TIP3    H212585   3.973   1.926   0.680
 4214TIP3   OH212586   4.282   2.852   5.401
 4214TIP3    H112587   4.366   2.898   5.389
 4214TIP3    H212588   4.229   2.912   5.454
 4215TIP3   OH212589   6.976   6.659   6.525
 4215TIP3    H112590   6.966   6.736   6.469
 4215TIP3    H212591   6.918   6.593   6.486
 4216TIP3   OH212592   0.642   6.131   5.040
 4216TIP3    H112593   0.608   6.218   5.062
 4216TIP3    H212594   0.564   6.076   5.033
 4217TIP3   OH212595   6.149   7.348   0.608
 4217TIP3    H112596   6.111   7.307   0.530
 4217TIP3    H212597   6.198   7.277   0.650
 4218TIP3   OH212598   6.547   7.409   1.931
 4218TIP3    H112599   6.629   7.449   1.903
 4218TIP3    H212600   6.562   7.315   1.923
 4219TIP3   OH212601   2.784   2.416   4.868
 4219TIP3    H112602   2.788   2.382   4.957
 4219TIP3    H212603   2.805   2.510   4.877
 4220TIP3   OH212604   7.766   5.559   5.550
 4220TIP3    H112605   7.671   5.564   5.541
 4220TIP3    H212606   7.780   5.516   5.635
 4221TIP3   OH212607   2.910   2.136   2.661
 4221TIP3    H112608   2.856   2.064   2.695
 4221TIP3    H212609   2.862   2.168   2.585
 4222TIP3   OH212610   5.255   7.365   5.833
 4222TIP3    H112611   5.304   7.344   5.754
 4222TIP3    H212612   5.293   7.310   5.901
 4223TIP3   OH212613   1.613   3.215   0.401
 4223TIP3    H112614   1.649   3.303   0.393
 4223TIP3    H212615   1.521   3.230   0.425
 4224TIP3   OH212616   1.358   6.112   5.378
 4224TIP3    H112617   1.326   6.072   5.296
 4224TIP3    H212618   1.443   6.070   5.393
 4225TIP3   OH212619   8.207   7.089   1.630
 4225TIP3    H112620   8.214   7.182   1.651
 4225TIP3    H212621   8.262   7.077   1.552
 4226TIP3   OH212622   5.836   4.209   4.147
 4226TIP3    H112623   5.892   4.149   4.196
 4226TIP3    H212624   5.894   4.280   4.120
 4227TIP3   OH212625   2.824   0.112   1.392
 4227TIP3    H112626   2.742   0.083   1.433
 4227TIP3    H212627   2.802   0.196   1.352
 4228TIP3   OH212628   6.301   4.411   4.301
 4228TIP3    H112629   6.249   4.489   4.320
 4228TIP3    H212630   6.367   4.408   4.371
 4229TIP3   OH212631   1.797   7.274   2.042
 4229TIP3    H112632   1.803   7.353   1.988
 4229TIP3    H212633   1.705   7.269   2.067
 4230TIP3   OH212634   3.174   4.741   3.899
 4230TIP3    H112635   3.260   4.783   3.908
 4230TIP3    H212636   3.134   4.750   3.986
 4231TIP3   OH212637   7.874   1.465   5.339
 4231TIP3    H112638   7.953   1.448   5.288
 4231TIP3    H212639   7.893   1.547   5.385
 4232TIP3   OH212640   0.217   3.758   1.027
 4232TIP3    H112641   0.194   3.778   1.118
 4232TIP3    H212642   0.236   3.843   0.988
 4233TIP3   OH212643   0.711   5.307   6.478
 4233TIP3    H112644   0.661   5.309   6.396
 4233TIP3    H212645   0.801   5.325   6.450
 4234TIP3   OH212646   8.230   5.217   6.399
 4234TIP3    H112647   8.212   5.162   6.475
 4234TIP3    H212648   8.302   5.172   6.354
 4235TIP3   OH212649   5.889   7.023   2.659
 4235TIP3    H112650   5.801   7.001   2.628
 4235TIP3    H212651   5.884   7.116   2.680
 4236TIP3   OH212652   1.623   2.713   3.368
 4236TIP3    H112653   1.542   2.742   3.409
 4236TIP3    H212654   1.686   2.781   3.389
 4237TIP3   OH212655   5.986   3.429   5.927
 4237TIP3    H112656   5.931   3.351   5.938
 4237TIP3    H212657   6.068   3.408   5.972
 4238TIP3   OH212658   5.462   6.779   6.478
 4238TIP3    H112659   5.372   6.763   6.450
 4238TIP3    H212660   5.498   6.692   6.496
 4239TIP3   OH212661   2.760   2.255   3.452
 4239TIP3    H112662   2.818   2.322   3.487
 4239TIP3    H212663   2.803   2.172   3.473
 4240TIP3   OH212664   6.884   2.722   3.692
 4240TIP3    H112665   6.964   2.773   3.707
 4240TIP3    H212666   6.816   2.788   3.679
 4241TIP3   OH212667   0.644   6.139   2.573
 4241TIP3    H112668   0.732   6.127   2.608
 4241TIP3    H212669   0.613   6.051   2.554
 4242TIP3   OH212670   5.705   5.004   2.086
 4242TIP3    H112671   5.731   4.913   2.070
 4242TIP3    H212672   5.724   5.018   2.179
 4243TIP3   OH212673   4.280   7.726   6.319
 4243TIP3    H112674   4.201   7.689   6.281
 4243TIP3    H212675   4.341   7.652   6.323
 4244TIP3   OH212676   3.376   7.132   5.038
 4244TIP3    H112677   3.470   7.122   5.054
 4244TIP3    H212678   3.358   7.223   5.061
 4245TIP3   OH212679   6.442   5.655   6.184
 4245TIP3    H112680   6.523   5.645   6.234
 4245TIP3    H212681   6.427   5.569   6.145
 4246TIP3   OH212682   1.597   2.357   5.699
 4246TIP3    H112683   1.645   2.318   5.626
 4246TIP3    H212684   1.602   2.291   5.769
 4247TIP3   OH212685   0.237   6.512   1.657
 4247TIP3    H112686   0.284   6.593   1.678
 4247TIP3    H212687   0.219   6.472   1.742
 4248TIP3   OH212688   7.972   6.745   0.390
 4248TIP3    H112689   7.888   6.710   0.361
 4248TIP3    H212690   8.033   6.672   0.383
 4249TIP3   OH212691   3.121   1.152   6.169
 4249TIP3    H112692   3.118   1.134   6.263
 4249TIP3    H212693   3.213   1.147   6.146
 4250TIP3   OH212694   2.488   4.013   4.186
 4250TIP3    H112695   2.476   4.103   4.155
 4250TIP3    H212696   2.580   3.993   4.169
 4251TIP3   OH212697   5.165   2.781   1.210
 4251TIP3    H112698   5.074   2.797   1.234
 4251TIP3    H212699   5.214   2.796   1.291
 4252TIP3   OH212700   7.918   3.622   1.192
 4252TIP3    H112701   7.908   3.531   1.163
 4252TIP3    H212702   7.828   3.651   1.209
 4253TIP3   OH212703   5.786   4.792   1.863
 4253TIP3    H112704   5.752   4.721   1.809
 4253TIP3    H212705   5.735   4.869   1.836
 4254TIP3   OH212706  -0.017   1.633   5.669
 4254TIP3    H112707  -0.071   1.638   5.590
 4254TIP3    H212708   0.054   1.573   5.646
 4255TIP3   OH212709   3.117   3.006   1.292
 4255TIP3    H112710   3.034   3.031   1.252
 4255TIP3    H212711   3.110   3.037   1.383
 4256TIP3   OH212712   7.226   0.197   5.792
 4256TIP3    H112713   7.201   0.245   5.871
 4256TIP3    H212714   7.248   0.265   5.729
 4257TIP3   OH212715   3.520   5.775   4.550
 4257TIP3    H112716   3.566   5.693   4.532
 4257TIP3    H212717   3.427   5.750   4.552
 4258TIP3   OH212718   3.660   0.199   0.252
 4258TIP3    H112719   3.598   0.214   0.324
 4258TIP3    H212720   3.647   0.108   0.227
 4259TIP3   OH212721   2.509   7.808   3.877
 4259TIP3    H112722   2.442   7.740   3.871
 4259TIP3    H212723   2.578   7.779   3.818
 4260TIP3   OH212724   4.361   7.468   0.513
 4260TIP3    H112725   4.428   7.481   0.580
 4260TIP3    H212726   4.286   7.434   0.561
 4261TIP3   OH212727   3.970   7.634   4.455
 4261TIP3    H112728   4.004   7.547   4.434
 4261TIP3    H212729   4.045   7.680   4.494
 4262TIP3   OH212730   6.662   4.624   2.419
 4262TIP3    H112731   6.611   4.552   2.383
 4262TIP3    H212732   6.627   4.635   2.508
 4263TIP3   OH212733   8.277   1.380   5.874
 4263TIP3    H112734   8.191   1.354   5.841
 4263TIP3    H212735   8.295   1.464   5.831
 4264TIP3   OH212736   5.246   1.233   1.943
 4264TIP3    H112737   5.235   1.270   1.855
 4264TIP3    H212738   5.157   1.232   1.979
 4265TIP3   OH212739   4.362   1.700   0.630
 4265TIP3    H112740   4.382   1.793   0.635
 4265TIP3    H212741   4.443   1.656   0.656
 4266TIP3   OH212742   6.643   0.448   1.077
 4266TIP3    H112743   6.677   0.537   1.086
 4266TIP3    H212744   6.591   0.451   0.996
 4267TIP3   OH212745   1.140   0.085   2.203
 4267TIP3    H112746   1.172   0.172   2.180
 4267TIP3    H212747   1.097   0.097   2.288
 4268TIP3   OH212748   3.861   2.952   3.934
 4268TIP3    H112749   3.879   3.034   3.979
 4268TIP3    H212750   3.779   2.969   3.886
 4269TIP3   OH212751   1.408   5.414   4.991
 4269TIP3    H112752   1.436   5.446   4.905
 4269TIP3    H212753   1.442   5.325   4.995
 4270TIP3   OH212754   0.274   2.113   6.208
 4270TIP3    H112755   0.258   2.082   6.297
 4270TIP3    H212756   0.349   2.172   6.217
 4271TIP3   OH212757   1.908   0.679   2.890
 4271TIP3    H112758   1.915   0.653   2.982
 4271TIP3    H212759   1.878   0.770   2.893
 4272TIP3   OH212760   3.500   3.914   1.015
 4272TIP3    H112761   3.474   3.930   1.106
 4272TIP3    H212762   3.561   3.840   1.021
 4273TIP3   OH212763   7.801   4.725   4.280
 4273TIP3    H112764   7.710   4.749   4.262
 4273TIP3    H212765   7.852   4.774   4.217
 4274TIP3   OH212766   2.822   4.019   1.923
 4274TIP3    H112767   2.831   3.992   1.831
 4274TIP3    H212768   2.905   4.064   1.942
 4275TIP3   OH212769   3.864   3.585   3.336
 4275TIP3    H112770   3.808   3.609   3.409
 4275TIP3    H212771   3.951   3.573   3.374
 4276TIP3   OH212772   2.432   4.446   0.171
 4276TIP3    H112773   2.475   4.486   0.247
 4276TIP3    H212774   2.499   4.445   0.103
 4277TIP3   OH212775   0.730   7.562   6.459
 4277TIP3    H112776   0.697   7.533   6.374
 4277TIP3    H212777   0.823   7.579   6.445
 4278TIP3   OH212778   6.478   0.115   5.305
 4278TIP3    H112779   6.489   0.022   5.328
 4278TIP3    H212780   6.476   0.115   5.209
 4279TIP3   OH212781   3.336   5.962   3.909
 4279TIP3    H112782   3.249   5.951   3.871
 4279TIP3    H212783   3.359   5.875   3.942
 4280TIP3   OH212784   1.768   4.547   3.630
 4280TIP3    H112785   1.702   4.492   3.587
 4280TIP3    H212786   1.721   4.590   3.701
 4281TIP3   OH212787   4.603   1.538   2.046
 4281TIP3    H112788   4.607   1.632   2.062
 4281TIP3    H212789   4.688   1.517   2.007
 4282TIP3   OH212790   7.018   6.236   4.322
 4282TIP3    H112791   7.058   6.295   4.258
 4282TIP3    H212792   7.030   6.280   4.406
 4283TIP3   OH212793   5.121   1.985   4.310
 4283TIP3    H112794   5.046   1.938   4.273
 4283TIP3    H212795   5.102   1.990   4.404
 4284TIP3   OH212796   7.868   1.795   1.809
 4284TIP3    H112797   7.833   1.827   1.726
 4284TIP3    H212798   7.920   1.719   1.786
 4285TIP3   OH212799   3.556   2.633   4.912
 4285TIP3    H112800   3.482   2.680   4.873
 4285TIP3    H212801   3.604   2.700   4.961
 4286TIP3   OH212802   4.828   1.177   5.170
 4286TIP3    H112803   4.768   1.240   5.209
 4286TIP3    H212804   4.907   1.228   5.150
 4287TIP3   OH212805   1.084   1.651   0.714
 4287TIP3    H112806   0.990   1.638   0.706
 4287TIP3    H212807   1.094   1.730   0.766
 4288TIP3   OH212808   0.136   5.063   4.449
 4288TIP3    H112809   0.121   4.968   4.452
 4288TIP3    H212810   0.167   5.079   4.360
 4289TIP3   OH212811   2.257   2.983   0.661
 4289TIP3    H112812   2.263   2.948   0.572
 4289TIP3    H212813   2.270   3.077   0.650
 4290TIP3   OH212814   4.167   4.742   6.690
 4290TIP3    H112815   4.120   4.749   6.607
 4290TIP3    H212816   4.117   4.678   6.741
 4291TIP3   OH212817   0.848   0.044   6.692
 4291TIP3    H112818   0.775   0.092   6.732
 4291TIP3    H212819   0.913   0.112   6.674
 4292TIP3   OH212820   5.875   7.338   5.236
 4292TIP3    H112821   5.920   7.418   5.264
 4292TIP3    H212822   5.910   7.321   5.148
 4293TIP3   OH212823   8.158   0.538   3.302
 4293TIP3    H112824   8.165   0.459   3.356
 4293TIP3    H212825   8.213   0.602   3.348
 4294TIP3   OH212826   5.816   6.778   5.010
 4294TIP3    H112827   5.869   6.715   4.961
 4294TIP3    H212828   5.824   6.749   5.101
 4295TIP3   OH212829   7.984   3.090   3.400
 4295TIP3    H112830   7.900   3.082   3.354
 4295TIP3    H212831   8.040   3.025   3.357
 4296TIP3   OH212832   0.681   1.667   2.296
 4296TIP3    H112833   0.669   1.665   2.201
 4296TIP3    H212834   0.702   1.577   2.320
 4297TIP3   OH212835   4.155   4.428   2.230
 4297TIP3    H112836   4.089   4.372   2.190
 4297TIP3    H212837   4.131   4.432   2.322
 4298TIP3   OH212838   6.306   7.597   4.114
 4298TIP3    H112839   6.396   7.599   4.147
 4298TIP3    H212840   6.311   7.548   4.033
 4299TIP3   OH212841   7.663   1.294   5.427
 4299TIP3    H112842   7.619   1.353   5.489
 4299TIP3    H212843   7.738   1.344   5.396
 4300TIP3   OH212844   4.952   7.654   4.348
 4300TIP3    H112845   4.984   7.744   4.358
 4300TIP3    H212846   5.023   7.609   4.301
 4301TIP3   OH212847   4.311   3.853   3.068
 4301TIP3    H112848   4.396   3.863   3.112
 4301TIP3    H212849   4.302   3.759   3.055
 4302TIP3   OH212850   2.314   4.270   1.368
 4302TIP3    H112851   2.401   4.276   1.327
 4302TIP3    H212852   2.256   4.315   1.306
 4303TIP3   OH212853   6.660   4.538   6.325
 4303TIP3    H112854   6.741   4.509   6.368
 4303TIP3    H212855   6.615   4.457   6.303
 4304TIP3   OH212856   5.197   0.643   6.464
 4304TIP3    H112857   5.286   0.652   6.432
 4304TIP3    H212858   5.183   0.721   6.518
 4305TIP3   OH212859   3.783   4.543   3.922
 4305TIP3    H112860   3.793   4.472   3.985
 4305TIP3    H212861   3.795   4.500   3.837
 4306TIP3   OH212862   2.456   6.619   0.122
 4306TIP3    H112863   2.465   6.564   0.199
 4306TIP3    H212864   2.503   6.571   0.053
 4307TIP3   OH212865   1.450   5.091   2.125
 4307TIP3    H112866   1.486   5.085   2.037
 4307TIP3    H212867   1.360   5.121   2.112
 4308TIP3   OH212868   4.504   6.469   1.137
 4308TIP3    H112869   4.576   6.465   1.200
 4308TIP3    H212870   4.425   6.465   1.190
 4309TIP3   OH212871   6.267   6.188   4.880
 4309TIP3    H112872   6.332   6.122   4.903
 4309TIP3    H212873   6.319   6.265   4.855
 4310TIP3   OH212874   1.952   4.026   5.785
 4310TIP3    H112875   1.871   4.000   5.829
 4310TIP3    H212876   2.016   4.034   5.856
 4311TIP3   OH212877   4.812   2.221   5.916
 4311TIP3    H112878   4.799   2.308   5.878
 4311TIP3    H212879   4.725   2.196   5.947
 4312TIP3   OH212880   6.209   3.955   4.464
 4312TIP3    H112881   6.224   3.864   4.489
 4312TIP3    H212882   6.296   3.995   4.464
 4313TIP3   OH212883   2.126   6.304   5.918
 4313TIP3    H112884   2.181   6.226   5.911
 4313TIP3    H212885   2.181   6.368   5.963
 4314TIP3   OH212886   1.411   3.509   4.855
 4314TIP3    H112887   1.495   3.464   4.847
 4314TIP3    H212888   1.362   3.457   4.920
 4315TIP3   OH212889   4.971   3.176   4.553
 4315TIP3    H112890   4.964   3.127   4.471
 4315TIP3    H212891   5.059   3.214   4.551
 4316TIP3   OH212892   5.873   6.625   3.889
 4316TIP3    H112893   5.945   6.563   3.884
 4316TIP3    H212894   5.805   6.579   3.940
 4317TIP3   OH212895   5.951   0.929   4.137
 4317TIP3    H112896   6.011   0.890   4.200
 4317TIP3    H212897   5.914   1.005   4.183
 4318TIP3   OH212898   3.400   0.291   3.891
 4318TIP3    H112899   3.401   0.358   3.960
 4318TIP3    H212900   3.307   0.278   3.873
 4319TIP3   OH212901   8.286   1.633   3.909
 4319TIP3    H112902   8.294   1.607   3.818
 4319TIP3    H212903   8.234   1.564   3.950
 4320TIP3   OH212904   3.366   5.401   2.961
 4320TIP3    H112905   3.288   5.430   2.914
 4320TIP3    H212906   3.424   5.367   2.893
 4321TIP3   OH212907   1.355   1.180   6.663
 4321TIP3    H112908   1.300   1.114   6.621
 4321TIP3    H212909   1.417   1.206   6.595
 4322TIP3   OH212910   2.528   0.664   3.883
 4322TIP3    H112911   2.602   0.630   3.833
 4322TIP3    H212912   2.512   0.751   3.847
 4323TIP3   OH212913   5.076   5.007   1.450
 4323TIP3    H112914   5.050   5.091   1.413
 4323TIP3    H212915   5.006   4.946   1.424
 4324TIP3   OH212916   4.058   0.707   6.426
 4324TIP3    H112917   4.017   0.763   6.360
 4324TIP3    H212918   4.009   0.723   6.506
 4325TIP3   OH212919   0.426   1.406   6.393
 4325TIP3    H112920   0.476   1.325   6.382
 4325TIP3    H212921   0.441   1.455   6.312
 4326TIP3   OH212922   0.347   3.738   6.087
 4326TIP3    H112923   0.304   3.676   6.029
 4326TIP3    H212924   0.396   3.796   6.028
 4327TIP3   OH212925   1.775   5.410   0.050
 4327TIP3    H112926   1.820   5.343  -0.002
 4327TIP3    H212927   1.767   5.484  -0.009
 4328TIP3   OH212928   3.531   5.300   6.371
 4328TIP3    H112929   3.526   5.394   6.389
 4328TIP3    H212930   3.449   5.281   6.325
 4329TIP3   OH212931   2.290   4.492   3.994
 4329TIP3    H112932   2.259   4.554   3.927
 4329TIP3    H212933   2.258   4.529   4.076
 4330TIP3   OH212934   3.150   6.833   3.604
 4330TIP3    H112935   3.081   6.880   3.558
 4330TIP3    H212936   3.135   6.741   3.582
 4331TIP3   OH212937   7.491   4.795   0.881
 4331TIP3    H112938   7.466   4.856   0.949
 4331TIP3    H212939   7.582   4.817   0.861
 4332TIP3   OH212940   0.142   2.070   4.474
 4332TIP3    H112941   0.097   2.004   4.421
 4332TIP3    H212942   0.109   2.057   4.563
 4333TIP3   OH212943   2.997   4.357   6.061
 4333TIP3    H112944   3.037   4.308   5.989
 4333TIP3    H212945   3.069   4.406   6.100
 4334TIP3   OH212946   4.115   1.505   5.755
 4334TIP3    H112947   4.175   1.568   5.717
 4334TIP3    H212948   4.031   1.550   5.757
 4335TIP3   OH212949   1.834   3.534   1.303
 4335TIP3    H112950   1.740   3.519   1.292
 4335TIP3    H212951   1.870   3.448   1.324
 4336TIP3   OH212952   1.233   3.710   3.562
 4336TIP3    H112953   1.250   3.740   3.651
 4336TIP3    H212954   1.138   3.705   3.556
 4337TIP3   OH212955   8.258   5.062   0.669
 4337TIP3    H112956   8.225   5.001   0.603
 4337TIP3    H212957   8.184   5.119   0.689
 4338TIP3   OH212958   8.094   6.031   2.685
 4338TIP3    H112959   8.117   6.017   2.776
 4338TIP3    H212960   8.178   6.032   2.638
 4339TIP3   OH212961   3.634   3.270   2.766
 4339TIP3    H112962   3.692   3.213   2.817
 4339TIP3    H212963   3.551   3.271   2.814
 4340TIP3   OH212964   0.464   2.508   0.674
 4340TIP3    H112965   0.484   2.576   0.610
 4340TIP3    H212966   0.549   2.468   0.695
 4341TIP3   OH212967   4.346   3.260   4.867
 4341TIP3    H112968   4.437   3.232   4.877
 4341TIP3    H212969   4.303   3.187   4.823
 4342TIP3   OH212970   4.491   0.489   3.875
 4342TIP3    H112971   4.417   0.541   3.907
 4342TIP3    H212972   4.505   0.423   3.942
 4343TIP3   OH212973   1.176   6.366   3.747
 4343TIP3    H112974   1.177   6.329   3.835
 4343TIP3    H212975   1.107   6.433   3.750
 4344TIP3   OH212976   5.039   1.328   5.065
 4344TIP3    H112977   5.097   1.254   5.051
 4344TIP3    H212978   5.034   1.372   4.980
 4345TIP3   OH212979   7.704   4.538   3.260
 4345TIP3    H112980   7.771   4.538   3.192
 4345TIP3    H212981   7.702   4.448   3.292
 4346TIP3   OH212982   7.431   6.421   1.938
 4346TIP3    H112983   7.345   6.460   1.921
 4346TIP3    H212984   7.467   6.472   2.010
 4347TIP3   OH212985   0.982   1.192   6.701
 4347TIP3    H112986   0.904   1.141   6.727
 4347TIP3    H212987   0.947   1.276   6.673
 4348TIP3   OH212988   6.600   6.454   1.092
 4348TIP3    H112989   6.618   6.536   1.047
 4348TIP3    H212990   6.538   6.476   1.161
 4349TIP3   OH212991   3.121   3.406   6.685
 4349TIP3    H112992   3.039   3.434   6.644
 4349TIP3    H212993   3.140   3.321   6.644
 4350TIP3   OH212994   2.550   6.238   2.718
 4350TIP3    H112995   2.596   6.283   2.647
 4350TIP3    H212996   2.472   6.291   2.735
 4351TIP3   OH212997   4.404   1.208   4.771
 4351TIP3    H112998   4.326   1.249   4.735
 4351TIP3    H212999   4.463   1.197   4.696
 4352TIP3   OH213000   3.005   0.874   2.368
 4352TIP3    H113001   3.066   0.917   2.308
 4352TIP3    H213002   2.926   0.930   2.365
 4353TIP3   OH213003   7.860   6.577   5.658
 4353TIP3    H113004   7.843   6.565   5.564
 4353TIP3    H213005   7.864   6.672   5.669
 4354TIP3   OH213006   6.887   4.989   5.787
 4354TIP3    H113007   6.908   4.978   5.694
 4354TIP3    H213008   6.795   4.961   5.793
 4355TIP3   OH213009   2.371   3.927   1.616
 4355TIP3    H113010   2.435   3.878   1.564
 4355TIP3    H213011   2.348   4.002   1.561
 4356TIP3   OH213012   1.063   7.700   3.399
 4356TIP3    H113013   1.014   7.711   3.481
 4356TIP3    H213014   1.155   7.708   3.424
 4357TIP3   OH213015   2.600   7.022   0.465
 4357TIP3    H113016   2.690   6.989   0.457
 4357TIP3    H213017   2.553   6.953   0.511
 4358TIP3   OH213018   2.118   5.636   2.138
 4358TIP3    H113019   2.081   5.570   2.080
 4358TIP3    H213020   2.175   5.688   2.082
 4359TIP3   OH213021   1.842   2.015   6.534
 4359TIP3    H113022   1.874   2.105   6.541
 4359TIP3    H213023   1.870   1.973   6.616
 4360TIP3   OH213024   6.700   4.991   0.812
 4360TIP3    H113025   6.710   4.944   0.895
 4360TIP3    H213026   6.664   5.076   0.837
 4361TIP3   OH213027   4.589   0.166   5.635
 4361TIP3    H113028   4.523   0.190   5.570
 4361TIP3    H213029   4.653   0.114   5.586
 4362TIP3   OH213030   8.189   6.655   4.376
 4362TIP3    H113031   8.242   6.621   4.448
 4362TIP3    H213032   8.251   6.671   4.305
 4363TIP3   OH213033   4.171   5.175   1.851
 4363TIP3    H113034   4.180   5.228   1.930
 4363TIP3    H213035   4.136   5.235   1.785
 4364TIP3   OH213036   6.545   6.615   1.779
 4364TIP3    H113037   6.567   6.527   1.748
 4364TIP3    H213038   6.590   6.623   1.864
 4365TIP3   OH213039   4.640   0.110   0.315
 4365TIP3    H113040   4.631   0.023   0.274
 4365TIP3    H213041   4.729   0.111   0.349
 4366TIP3   OH213042   6.203   0.499   1.956
 4366TIP3    H113043   6.255   0.567   1.998
 4366TIP3    H213044   6.266   0.448   1.905
 4367TIP3   OH213045   6.619   5.737   2.003
 4367TIP3    H113046   6.564   5.722   1.926
 4367TIP3    H213047   6.557   5.745   2.076
 4368TIP3   OH213048   3.565   1.745   3.256
 4368TIP3    H113049   3.515   1.816   3.297
 4368TIP3    H213050   3.588   1.779   3.169
 4369TIP3   OH213051   2.145   0.851   5.891
 4369TIP3    H113052   2.064   0.810   5.861
 4369TIP3    H213053   2.128   0.945   5.884
 4370TIP3   OH213054   6.757   7.697   4.048
 4370TIP3    H113055   6.724   7.681   4.136
 4370TIP3    H213056   6.684   7.737   4.002
 4371TIP3   OH213057   7.791   1.825   5.878
 4371TIP3    H113058   7.796   1.733   5.854
 4371TIP3    H213059   7.795   1.825   5.974
 4372TIP3   OH213060   4.214   0.771   4.143
 4372TIP3    H113061   4.120   0.758   4.160
 4372TIP3    H213062   4.223   0.866   4.132
 4373TIP3   OH213063   8.271   4.914   4.737
 4373TIP3    H113064   8.341   4.876   4.790
 4373TIP3    H213065   8.289   4.884   4.648
 4374TIP3   OH213066   3.831   0.927   1.727
 4374TIP3    H113067   3.844   0.850   1.783
 4374TIP3    H213068   3.812   0.891   1.640
 4375TIP3   OH213069   6.475   1.958   0.932
 4375TIP3    H113070   6.485   2.033   0.872
 4375TIP3    H213071   6.544   1.969   0.996
 4376TIP3   OH213072   1.317   3.144   5.714
 4376TIP3    H113073   1.365   3.064   5.693
 4376TIP3    H213074   1.382   3.200   5.757
 4377TIP3   OH213075   6.571   4.118   1.936
 4377TIP3    H113076   6.555   4.073   1.854
 4377TIP3    H213077   6.520   4.199   1.929
 4378TIP3   OH213078   1.448   6.065   1.704
 4378TIP3    H113079   1.405   6.150   1.721
 4378TIP3    H213080   1.541   6.084   1.712
 4379TIP3   OH213081   5.826   5.921   1.588
 4379TIP3    H113082   5.773   5.996   1.615
 4379TIP3    H213083   5.904   5.925   1.643
 4380TIP3   OH213084   5.619   5.695   2.334
 4380TIP3    H113085   5.649   5.608   2.360
 4380TIP3    H213086   5.638   5.701   2.241
 4381TIP3   OH213087   7.872   6.863   2.825
 4381TIP3    H113088   7.851   6.916   2.748
 4381TIP3    H213089   7.959   6.828   2.808
 4382TIP3   OH213090   0.844   1.711   2.839
 4382TIP3    H113091   0.838   1.666   2.754
 4382TIP3    H213092   0.788   1.659   2.897
 4383TIP3   OH213093   2.310   6.518   3.035
 4383TIP3    H113094   2.269   6.561   3.110
 4383TIP3    H213095   2.333   6.431   3.066
 4384TIP3   OH213096   7.675   1.478   6.337
 4384TIP3    H113097   7.609   1.440   6.280
 4384TIP3    H213098   7.755   1.430   6.319
 4385TIP3   OH213099   0.657   6.263   0.627
 4385TIP3    H113100   0.621   6.194   0.572
 4385TIP3    H213101   0.673   6.336   0.567
 4386TIP3   OH213102   1.763   7.212   6.627
 4386TIP3    H113103   1.803   7.299   6.615
 4386TIP3    H213104   1.681   7.217   6.576
 4387TIP3   OH213105   6.383   5.566   2.830
 4387TIP3    H113106   6.318   5.535   2.893
 4387TIP3    H213107   6.400   5.489   2.774
 4388TIP3   OH213108   5.894   2.756   4.912
 4388TIP3    H113109   5.913   2.718   4.826
 4388TIP3    H213110   5.898   2.682   4.972
 4389TIP3   OH213111   4.727   1.433   5.240
 4389TIP3    H113112   4.666   1.382   5.294
 4389TIP3    H213113   4.769   1.493   5.302
 4390TIP3   OH213114   6.723   3.216   4.472
 4390TIP3    H113115   6.780   3.252   4.540
 4390TIP3    H213116   6.701   3.128   4.503
 4391TIP3   OH213117   5.997   2.178   4.675
 4391TIP3    H113118   6.080   2.219   4.651
 4391TIP3    H213119   6.011   2.085   4.656
 4392TIP3   OH213120   5.275   2.575   1.412
 4392TIP3    H113121   5.223   2.507   1.454
 4392TIP3    H213122   5.322   2.530   1.342
 4393TIP3   OH213123   6.237   1.642   2.638
 4393TIP3    H113124   6.212   1.656   2.729
 4393TIP3    H213125   6.223   1.727   2.596
 4394TIP3   OH213126  -0.027   2.835   3.098
 4394TIP3    H113127   0.067   2.850   3.105
 4394TIP3    H213128  -0.042   2.819   3.005
 4395TIP3   OH213129   6.779   0.235   0.806
 4395TIP3    H113130   6.829   0.279   0.875
 4395TIP3    H213131   6.842   0.225   0.734
 4396TIP3   OH213132   7.152   7.440   4.621
 4396TIP3    H113133   7.175   7.530   4.641
 4396TIP3    H213134   7.190   7.389   4.692
 4397TIP3   OH213135   0.802   5.920   5.154
 4397TIP3    H113136   0.760   5.992   5.108
 4397TIP3    H213137   0.739   5.896   5.223
 4398TIP3   OH213138   5.769   7.005   4.852
 4398TIP3    H113139   5.677   7.026   4.865
 4398TIP3    H213140   5.790   6.942   4.921
 4399TIP3   OH213141   1.580   3.769   3.965
 4399TIP3    H113142   1.553   3.846   4.014
 4399TIP3    H213143   1.562   3.696   4.024
 4400TIP3   OH213144   3.631   1.014   1.485
 4400TIP3    H113145   3.659   0.926   1.459
 4400TIP3    H213146   3.622   1.009   1.580
 4401TIP3   OH213147   1.460   4.456   6.141
 4401TIP3    H113148   1.534   4.516   6.153
 4401TIP3    H213149   1.422   4.481   6.057
 4402TIP3   OH213150   5.299   6.103   4.342
 4402TIP3    H113151   5.310   6.073   4.433
 4402TIP3    H213152   5.234   6.043   4.306
 4403TIP3   OH213153   1.174   3.150   2.060
 4403TIP3    H113154   1.239   3.138   1.991
 4403TIP3    H213155   1.154   3.061   2.089
 4404TIP3   OH213156   4.910   6.376   3.217
 4404TIP3    H113157   4.889   6.445   3.153
 4404TIP3    H213158   4.826   6.340   3.242
 4405TIP3   OH213159   5.272   1.378   0.046
 4405TIP3    H113160   5.357   1.413   0.074
 4405TIP3    H213161   5.227   1.357   0.127
 4406TIP3   OH213162   5.751   0.027   3.401
 4406TIP3    H113163   5.685   0.034   3.471
 4406TIP3    H213164   5.828   0.071   3.436
 4407TIP3   OH213165   3.688   1.451   4.758
 4407TIP3    H113166   3.769   1.461   4.708
 4407TIP3    H213167   3.641   1.380   4.714
 4408TIP3   OH213168   2.609   0.427   0.147
 4408TIP3    H113169   2.520   0.394   0.162
 4408TIP3    H213170   2.597   0.504   0.093
 4409TIP3   OH213171   6.978   6.325   1.719
 4409TIP3    H113172   7.009   6.412   1.692
 4409TIP3    H213173   6.912   6.343   1.786
 4410TIP3   OH213174   1.247   2.230   4.767
 4410TIP3    H113175   1.285   2.314   4.741
 4410TIP3    H213176   1.323   2.175   4.789
 4411TIP3   OH213177   3.457   3.919   4.931
 4411TIP3    H113178   3.510   3.847   4.898
 4411TIP3    H213179   3.369   3.882   4.938
 4412TIP3   OH213180   0.912   0.319   6.503
 4412TIP3    H113181   0.819   0.305   6.520
 4412TIP3    H213182   0.955   0.244   6.544
 4413TIP3   OH213183   7.302   5.946   6.040
 4413TIP3    H113184   7.386   5.946   6.086
 4413TIP3    H213185   7.307   6.023   5.983
 4414TIP3   OH213186   0.498   4.171   1.276
 4414TIP3    H113187   0.479   4.101   1.213
 4414TIP3    H213188   0.434   4.159   1.346
 4415TIP3   OH213189   4.498   4.898   1.291
 4415TIP3    H113190   4.452   4.952   1.227
 4415TIP3    H213191   4.491   4.809   1.257
 4416TIP3   OH213192   1.882   5.115   3.389
 4416TIP3    H113193   1.935   5.040   3.414
 4416TIP3    H213194   1.909   5.185   3.449
 4417TIP3   OH213195   0.335   7.341   4.297
 4417TIP3    H113196   0.281   7.390   4.360
 4417TIP3    H213197   0.425   7.362   4.322
 4418TIP3   OH213198   8.256   5.365   0.315
 4418TIP3    H113199   8.338   5.403   0.346
 4418TIP3    H213200   8.272   5.270   0.317
 4419TIP3   OH213201   3.590   0.964   4.156
 4419TIP3    H113202   3.663   1.004   4.109
 4419TIP3    H213203   3.578   0.879   4.114
 4420TIP3   OH213204   5.875   3.490   5.141
 4420TIP3    H113205   5.879   3.451   5.053
 4420TIP3    H213206   5.966   3.515   5.160
 4421TIP3   OH213207   3.421   4.023   2.560
 4421TIP3    H113208   3.376   3.991   2.638
 4421TIP3    H213209   3.499   4.067   2.593
 4422TIP3   OH213210   3.941   3.226   4.650
 4422TIP3    H113211   3.953   3.218   4.745
 4422TIP3    H213212   4.019   3.185   4.612
 4423TIP3   OH213213  -0.026   5.580   6.663
 4423TIP3    H113214   0.064   5.573   6.631
 4423TIP3    H213215  -0.030   5.520   6.738
 4424TIP3   OH213216   0.281   0.463   3.789
 4424TIP3    H113217   0.206   0.522   3.798
 4424TIP3    H213218   0.355   0.520   3.771
 4425TIP3   OH213219   0.558   1.358   2.250
 4425TIP3    H113220   0.480   1.413   2.262
 4425TIP3    H213221   0.549   1.323   2.162
 4426TIP3   OH213222   5.517   3.800   5.003
 4426TIP3    H113223   5.554   3.775   5.087
 4426TIP3    H213224   5.438   3.747   4.994
 4427TIP3   OH213225   4.474   0.752   0.168
 4427TIP3    H113226   4.534   0.810   0.215
 4427TIP3    H213227   4.528   0.711   0.101
 4428TIP3   OH213228   7.332   6.514   2.573
 4428TIP3    H113229   7.252   6.494   2.524
 4428TIP3    H213230   7.372   6.587   2.524
 4429TIP3   OH213231   2.367   6.781   0.339
 4429TIP3    H113232   2.400   6.757   0.253
 4429TIP3    H213233   2.306   6.853   0.322
 4430TIP3   OH213234   1.936   0.602   1.852
 4430TIP3    H113235   1.888   0.674   1.811
 4430TIP3    H213236   1.870   0.551   1.897
 4431TIP3   OH213237   1.194   2.829   0.856
 4431TIP3    H113238   1.255   2.772   0.903
 4431TIP3    H213239   1.233   2.916   0.864
 4432TIP3   OH213240   2.555   5.552   4.098
 4432TIP3    H113241   2.612   5.519   4.029
 4432TIP3    H213242   2.567   5.647   4.096
 4433TIP3   OH213243   2.245   4.374   6.481
 4433TIP3    H113244   2.257   4.431   6.405
 4433TIP3    H213245   2.256   4.286   6.447
 4434TIP3   OH213246   4.124   2.201   4.480
 4434TIP3    H113247   4.085   2.287   4.496
 4434TIP3    H213248   4.184   2.215   4.407
 4435TIP3   OH213249   2.186   6.805   1.091
 4435TIP3    H113250   2.129   6.787   1.165
 4435TIP3    H213251   2.132   6.853   1.029
 4436TIP3   OH213252   2.028   6.109   5.617
 4436TIP3    H113253   2.023   6.184   5.558
 4436TIP3    H213254   2.121   6.091   5.625
 4437TIP3   OH213255   5.891   1.039   3.897
 4437TIP3    H113256   5.931   0.998   3.974
 4437TIP3    H213257   5.913   1.131   3.904
 4438TIP3   OH213258   5.953   5.127   6.072
 4438TIP3    H113259   5.932   5.079   6.152
 4438TIP3    H213260   6.029   5.180   6.095
 4439TIP3   OH213261   3.466   7.542   2.131
 4439TIP3    H113262   3.403   7.607   2.099
 4439TIP3    H213263   3.550   7.589   2.133
 4440TIP3   OH213264   0.343   6.641   6.216
 4440TIP3    H113265   0.269   6.580   6.210
 4440TIP3    H213266   0.416   6.587   6.246
 4441TIP3   OH213267   6.196   2.486   4.141
 4441TIP3    H113268   6.290   2.466   4.143
 4441TIP3    H213269   6.173   2.497   4.234
 4442TIP3   OH213270   1.397   6.153   3.071
 4442TIP3    H113271   1.432   6.067   3.094
 4442TIP3    H213272   1.359   6.140   2.984
 4443TIP3   OH213273   4.957   2.195   3.691
 4443TIP3    H113274   4.918   2.267   3.642
 4443TIP3    H213275   5.022   2.158   3.631
 4444TIP3   OH213276   1.431   7.732   2.629
 4444TIP3    H113277   1.428   7.765   2.719
 4444TIP3    H213278   1.382   7.650   2.631
 4445TIP3   OH213279   3.228   5.252   5.318
 4445TIP3    H113280   3.184   5.295   5.245
 4445TIP3    H213281   3.245   5.323   5.381
 4446TIP3   OH213282   0.115   6.081   6.707
 4446TIP3    H113283   0.117   5.985   6.702
 4446TIP3    H213284   0.051   6.106   6.640
 4447TIP3   OH213285   4.585   5.090   0.898
 4447TIP3    H113286   4.569   5.131   0.813
 4447TIP3    H213287   4.572   5.160   0.961
 4448TIP3   OH213288   4.214   6.514   6.170
 4448TIP3    H113289   4.287   6.554   6.216
 4448TIP3    H213290   4.166   6.588   6.133
 4449TIP3   OH213291   1.828   5.764   1.767
 4449TIP3    H113292   1.785   5.767   1.853
 4449TIP3    H213293   1.915   5.803   1.783
 4450TIP3   OH213294   4.411   1.372   1.889
 4450TIP3    H113295   4.370   1.289   1.911
 4450TIP3    H213296   4.484   1.380   1.951
 4451TIP3   OH213297   7.212   4.625   4.496
 4451TIP3    H113298   7.145   4.561   4.473
 4451TIP3    H213299   7.291   4.594   4.452
 4452TIP3   OH213300   2.092   4.256   2.231
 4452TIP3    H113301   2.122   4.310   2.158
 4452TIP3    H213302   2.010   4.297   2.259
 4453TIP3   OH213303   1.930   7.569   2.985
 4453TIP3    H113304   2.003   7.589   3.043
 4453TIP3    H213305   1.923   7.645   2.927
 4454TIP3   OH213306   6.921   7.554   4.339
 4454TIP3    H113307   6.917   7.513   4.253
 4454TIP3    H213308   6.920   7.481   4.401
 4455TIP3   OH213309   1.068   0.164   5.443
 4455TIP3    H113310   1.090   0.228   5.376
 4455TIP3    H213311   1.050   0.216   5.521
 4456TIP3   OH213312   4.748   7.146   1.891
 4456TIP3    H113313   4.802   7.126   1.967
 4456TIP3    H213314   4.809   7.145   1.817
 4457TIP3   OH213315   6.165   6.525   0.158
 4457TIP3    H113316   6.250   6.516   0.116
 4457TIP3    H213317   6.182   6.574   0.238
 4458TIP3   OH213318   5.387   3.034   4.380
 4458TIP3    H113319   5.349   2.947   4.390
 4458TIP3    H213320   5.341   3.072   4.305
 4459TIP3   OH213321   7.487   5.931   5.621
 4459TIP3    H113322   7.502   5.848   5.666
 4459TIP3    H213323   7.508   5.998   5.687
 4460TIP3   OH213324   7.533   0.436   4.967
 4460TIP3    H113325   7.591   0.476   5.032
 4460TIP3    H213326   7.549   0.342   4.975
 4461TIP3   OH213327   6.690   3.191   0.893
 4461TIP3    H113328   6.760   3.125   0.895
 4461TIP3    H213329   6.620   3.149   0.843
 4462TIP3   OH213330   1.360   2.521   5.783
 4462TIP3    H113331   1.450   2.530   5.752
 4462TIP3    H213332   1.358   2.568   5.866
 4463TIP3   OH213333   3.110   1.271   2.444
 4463TIP3    H113334   3.105   1.310   2.531
 4463TIP3    H213335   3.137   1.181   2.460
 4464TIP3   OH213336   0.011   4.154   1.392
 4464TIP3    H113337   0.067   4.125   1.464
 4464TIP3    H213338   0.072   4.180   1.323
 4465TIP3   OH213339   5.277   2.035   4.879
 4465TIP3    H113340   5.188   2.004   4.896
 4465TIP3    H213341   5.316   1.965   4.826
 4466TIP3   OH213342   5.100   5.929   3.573
 4466TIP3    H113343   5.190   5.958   3.565
 4466TIP3    H213344   5.053   6.006   3.606
 4467TIP3   OH213345   2.883   0.218   4.396
 4467TIP3    H113346   2.817   0.195   4.330
 4467TIP3    H213347   2.833   0.232   4.476
 4468TIP3   OH213348   3.702   2.495   0.726
 4468TIP3    H113349   3.723   2.401   0.730
 4468TIP3    H213350   3.695   2.514   0.633
 4469TIP3   OH213351   6.586   3.575   1.158
 4469TIP3    H113352   6.613   3.622   1.237
 4469TIP3    H213353   6.533   3.638   1.109
 4470TIP3   OH213354   7.054   7.528   3.849
 4470TIP3    H113355   7.001   7.488   3.780
 4470TIP3    H213356   7.144   7.518   3.819
 4471TIP3   OH213357   2.204   7.121   1.280
 4471TIP3    H113358   2.110   7.136   1.280
 4471TIP3    H213359   2.237   7.175   1.208
 4472TIP3   OH213360   3.901   3.165   1.228
 4472TIP3    H113361   3.806   3.151   1.218
 4472TIP3    H213362   3.936   3.152   1.140
 4473TIP3   OH213363   7.057   0.550   0.913
 4473TIP3    H113364   7.033   0.484   0.978
 4473TIP3    H213365   7.141   0.584   0.943
 4474TIP3   OH213366   5.900   2.926   2.323
 4474TIP3    H113367   5.817   2.952   2.282
 4474TIP3    H213368   5.878   2.848   2.375
 4475TIP3   OH213369   1.105   7.459   1.662
 4475TIP3    H113370   1.116   7.534   1.720
 4475TIP3    H213371   1.025   7.478   1.613
 4476TIP3   OH213372   1.789   4.000   6.442
 4476TIP3    H113373   1.844   4.076   6.421
 4476TIP3    H213374   1.700   4.028   6.418
 4477TIP3   OH213375   7.900   5.439   5.354
 4477TIP3    H113376   7.849   5.460   5.432
 4477TIP3    H213377   7.990   5.462   5.377
 4478TIP3   OH213378   0.269   3.064   3.990
 4478TIP3    H113379   0.318   2.981   3.991
 4478TIP3    H213380   0.273   3.093   3.899
 4479TIP3   OH213381   7.060   1.888   0.032
 4479TIP3    H113382   7.132   1.833   0.062
 4479TIP3    H213383   7.046   1.862  -0.059
 4480TIP3   OH213384   6.322   1.358   2.209
 4480TIP3    H113385   6.324   1.447   2.245
 4480TIP3    H213386   6.397   1.315   2.250
 4481TIP3   OH213387  -0.043   4.955   2.034
 4481TIP3    H113388  -0.052   5.050   2.025
 4481TIP3    H213389   0.046   4.942   2.067
 4482TIP3   OH213390   6.020   7.783   3.602
 4482TIP3    H113391   5.969   7.736   3.668
 4482TIP3    H213392   6.007   7.733   3.522
 4483TIP3   OH213393   7.115   6.756   4.720
 4483TIP3    H113394   7.113   6.801   4.805
 4483TIP3    H213395   7.189   6.795   4.674
 4484TIP3   OH213396   4.405   0.865   1.145
 4484TIP3    H113397   4.334   0.820   1.191
 4484TIP3    H213398   4.419   0.945   1.194
 4485TIP3   OH213399   5.900   6.855   2.208
 4485TIP3    H113400   5.920   6.809   2.290
 4485TIP3    H213401   5.898   6.947   2.233
 4486TIP3   OH213402   7.364   4.838   1.770
 4486TIP3    H113403   7.447   4.791   1.768
 4486TIP3    H213404   7.366   4.889   1.851
 4487TIP3   OH213405   2.804   0.526   6.427
 4487TIP3    H113406   2.838   0.530   6.338
 4487TIP3    H213407   2.822   0.436   6.456
 4488TIP3   OH213408   6.662   5.635   6.350
 4488TIP3    H113409   6.669   5.669   6.439
 4488TIP3    H213410   6.753   5.628   6.320
 4489TIP3   OH213411   1.498   1.210   1.417
 4489TIP3    H113412   1.569   1.147   1.429
 4489TIP3    H213413   1.516   1.279   1.481
 4490TIP3   OH213414   4.131   0.730   3.193
 4490TIP3    H113415   4.064   0.777   3.242
 4490TIP3    H213416   4.213   0.771   3.220
 4491TIP3   OH213417   6.412   7.249   1.156
 4491TIP3    H113418   6.404   7.174   1.097
 4491TIP3    H213419   6.334   7.246   1.210
 4492TIP3   OH213420   7.007   6.489   2.205
 4492TIP3    H113421   7.029   6.497   2.297
 4492TIP3    H213422   7.065   6.551   2.160
 4493TIP3   OH213423   5.518   1.213   0.215
 4493TIP3    H113424   5.436   1.251   0.246
 4493TIP3    H213425   5.503   1.119   0.216
 4494TIP3   OH213426   4.353   6.180   2.573
 4494TIP3    H113427   4.375   6.193   2.480
 4494TIP3    H213428   4.261   6.203   2.579
 4495TIP3   OH213429   3.395   6.543   0.231
 4495TIP3    H113430   3.409   6.469   0.173
 4495TIP3    H213431   3.385   6.618   0.172
 4496TIP3   OH213432   2.158   2.636   4.320
 4496TIP3    H113433   2.116   2.697   4.260
 4496TIP3    H213434   2.110   2.554   4.309
 4497TIP3   OH213435   5.350   4.287   1.050
 4497TIP3    H113436   5.322   4.376   1.071
 4497TIP3    H213437   5.331   4.276   0.957
 4498TIP3   OH213438   3.619   4.191   2.339
 4498TIP3    H113439   3.560   4.210   2.265
 4498TIP3    H213440   3.686   4.134   2.303
 4499TIP3   OH213441   1.830   4.064   4.826
 4499TIP3    H113442   1.919   4.046   4.859
 4499TIP3    H213443   1.841   4.069   4.731
 4500TIP3   OH213444   5.375   5.748   4.486
 4500TIP3    H113445   5.331   5.674   4.446
 4500TIP3    H213446   5.307   5.793   4.536
 4501TIP3   OH213447   5.788   1.238   2.569
 4501TIP3    H113448   5.712   1.295   2.574
 4501TIP3    H213449   5.843   1.264   2.643
 4502TIP3   OH213450   3.569   5.678   1.195
 4502TIP3    H113451   3.489   5.671   1.143
 4502TIP3    H213452   3.610   5.591   1.188
 4503TIP3   OH213453   1.151   5.334   4.677
 4503TIP3    H113454   1.139   5.335   4.772
 4503TIP3    H213455   1.073   5.378   4.643
 4504TIP3   OH213456   0.937   2.950   5.192
 4504TIP3    H113457   0.874   2.969   5.123
 4504TIP3    H213458   0.892   2.888   5.249
 4505TIP3   OH213459   2.944   6.595   6.491
 4505TIP3    H113460   3.013   6.596   6.557
 4505TIP3    H213461   2.971   6.528   6.428
 4506TIP3   OH213462   5.604   0.017   4.654
 4506TIP3    H113463   5.699   0.006   4.658
 4506TIP3    H213464   5.588   0.100   4.700
 4507TIP3   OH213465   5.016   0.276   5.475
 4507TIP3    H113466   5.035   0.337   5.403
 4507TIP3    H213467   4.921   0.268   5.475
 4508TIP3   OH213468   6.463   7.825   6.324
 4508TIP3    H113469   6.535   7.763   6.337
 4508TIP3    H213470   6.387   7.781   6.362
 4509TIP3   OH213471   1.105   0.410   1.308
 4509TIP3    H113472   1.126   0.335   1.253
 4509TIP3    H213473   1.182   0.466   1.303
 4510TIP3   OH213474   3.552   1.128   3.398
 4510TIP3    H113475   3.508   1.055   3.354
 4510TIP3    H213476   3.577   1.187   3.327
 4511TIP3   OH213477   5.145   5.112   5.496
 4511TIP3    H113478   5.106   5.184   5.546
 4511TIP3    H213479   5.215   5.152   5.446
 4512TIP3   OH213480   4.584   6.044   5.818
 4512TIP3    H113481   4.499   6.005   5.839
 4512TIP3    H213482   4.641   5.968   5.804
 4513TIP3   OH213483   0.642   1.972   5.730
 4513TIP3    H113484   0.712   1.960   5.666
 4513TIP3    H213485   0.671   1.923   5.807
 4514TIP3   OH213486   6.820   6.525   4.500
 4514TIP3    H113487   6.727   6.519   4.521
 4514TIP3    H213488   6.861   6.459   4.555
 4515TIP3   OH213489   3.334   4.415   4.302
 4515TIP3    H113490   3.424   4.394   4.277
 4515TIP3    H213491   3.280   4.372   4.235
 4516TIP3   OH213492   0.324   3.403   6.589
 4516TIP3    H113493   0.387   3.474   6.600
 4516TIP3    H213494   0.324   3.357   6.673
 4517TIP3   OH213495   1.461   7.735   0.580
 4517TIP3    H113496   1.376   7.692   0.591
 4517TIP3    H213497   1.439   7.828   0.575
 4518TIP3   OH213498   0.936   5.573   0.323
 4518TIP3    H113499   0.992   5.505   0.363
 4518TIP3    H213500   0.996   5.623   0.267
 4519TIP3   OH213501   4.538   5.855   5.349
 4519TIP3    H113502   4.528   5.773   5.300
 4519TIP3    H213503   4.589   5.829   5.426
 4520TIP3   OH213504   6.932   3.079   3.230
 4520TIP3    H113505   6.992   3.128   3.174
 4520TIP3    H213506   6.849   3.127   3.224
 4521TIP3   OH213507   0.846   3.239   6.178
 4521TIP3    H113508   0.862   3.146   6.166
 4521TIP3    H213509   0.929   3.273   6.213
 4522TIP3   OH213510   2.195   5.088   3.095
 4522TIP3    H113511   2.217   4.996   3.111
 4522TIP3    H213512   2.220   5.133   3.176
 4523TIP3   OH213513   3.689   6.292   4.249
 4523TIP3    H113514   3.687   6.376   4.204
 4523TIP3    H213515   3.630   6.236   4.198
 4524TIP3   OH213516   4.856   5.939   0.406
 4524TIP3    H113517   4.854   6.001   0.334
 4524TIP3    H213518   4.891   5.989   0.480
 4525TIP3   OH213519   8.272   5.227   4.809
 4525TIP3    H113520   8.177   5.216   4.819
 4525TIP3    H213521   8.305   5.228   4.899
 4526TIP3   OH213522   4.901   0.131   3.298
 4526TIP3    H113523   4.957   0.067   3.342
 4526TIP3    H213524   4.894   0.204   3.360
 4527TIP3   OH213525   4.114   1.314   5.538
 4527TIP3    H113526   4.132   1.391   5.592
 4527TIP3    H213527   4.020   1.302   5.544
 4528TIP3   OH213528   0.699   4.093   5.227
 4528TIP3    H113529   0.700   4.188   5.245
 4528TIP3    H213530   0.611   4.075   5.195
 4529TIP3   OH213531   2.333   4.019   3.698
 4529TIP3    H113532   2.403   4.073   3.733
 4529TIP3    H213533   2.279   3.996   3.773
 4530TIP3   OH213534   6.515   1.658   5.915
 4530TIP3    H113535   6.467   1.589   5.962
 4530TIP3    H213536   6.458   1.680   5.841
 4531TIP3   OH213537   3.781   4.211   0.257
 4531TIP3    H113538   3.789   4.305   0.277
 4531TIP3    H213539   3.733   4.209   0.174
 4532TIP3   OH213540   2.242   2.452   1.558
 4532TIP3    H113541   2.298   2.516   1.513
 4532TIP3    H213542   2.288   2.369   1.547
 4533TIP3   OH213543   3.946   0.384   6.440
 4533TIP3    H113544   3.999   0.379   6.519
 4533TIP3    H213545   3.886   0.310   6.446
 4534TIP3   OH213546   5.868   4.002   1.775
 4534TIP3    H113547   5.926   4.060   1.826
 4534TIP3    H213548   5.867   4.042   1.688
 4535TIP3   OH213549   2.265   6.689   5.313
 4535TIP3    H113550   2.345   6.673   5.364
 4535TIP3    H213551   2.194   6.665   5.372
 4536TIP3   OH213552   2.714   2.323   4.592
 4536TIP3    H113553   2.622   2.347   4.589
 4536TIP3    H213554   2.750   2.372   4.665
 4537TIP3   OH213555   3.485   2.084   1.047
 4537TIP3    H113556   3.394   2.075   1.076
 4537TIP3    H213557   3.508   1.998   1.012
 4538TIP3   OH213558   7.334   5.471   1.641
 4538TIP3    H113559   7.399   5.523   1.593
 4538TIP3    H213560   7.374   5.454   1.726
 4539TIP3   OH213561   5.277   5.139   4.714
 4539TIP3    H113562   5.206   5.105   4.659
 4539TIP3    H213563   5.276   5.082   4.791
 4540TIP3   OH213564   2.306   4.857   5.377
 4540TIP3    H113565   2.388   4.860   5.427
 4540TIP3    H213566   2.246   4.808   5.434
 4541TIP3   OH213567   1.321   2.649   5.247
 4541TIP3    H113568   1.304   2.636   5.153
 4541TIP3    H213569   1.339   2.742   5.255
 4542TIP3   OH213570   4.771   3.606   5.489
 4542TIP3    H113571   4.680   3.583   5.468
 4542TIP3    H213572   4.763   3.684   5.545
 4543TIP3   OH213573   7.110   2.216   4.669
 4543TIP3    H113574   7.142   2.165   4.744
 4543TIP3    H213575   7.188   2.254   4.630
 4544TIP3   OH213576   4.404   3.419   6.552
 4544TIP3    H113577   4.333   3.439   6.614
 4544TIP3    H213578   4.471   3.484   6.572
 4545TIP3   OH213579   1.263   2.906   4.887
 4545TIP3    H113580   1.338   2.926   4.943
 4545TIP3    H213581   1.228   2.824   4.923
 4546TIP3   OH213582   7.240   1.115   4.466
 4546TIP3    H113583   7.191   1.093   4.545
 4546TIP3    H213584   7.188   1.078   4.394
 4547TIP3   OH213585   5.123   7.162   3.137
 4547TIP3    H113586   5.060   7.141   3.206
 4547TIP3    H213587   5.205   7.123   3.166
 4548TIP3   OH213588   4.038   7.026   0.749
 4548TIP3    H113589   4.015   7.013   0.657
 4548TIP3    H213590   3.997   7.109   0.773
 4549TIP3   OH213591   7.203   5.855   1.339
 4549TIP3    H113592   7.257   5.791   1.386
 4549TIP3    H213593   7.237   5.940   1.365
 4550TIP3   OH213594   0.715   2.196   3.663
 4550TIP3    H113595   0.704   2.285   3.695
 4550TIP3    H213596   0.802   2.170   3.693
 4551TIP3   OH213597   7.988   6.529   4.740
 4551TIP3    H113598   7.907   6.554   4.785
 4551TIP3    H213599   7.961   6.461   4.678
 4552TIP3   OH213600   3.341   2.175   5.594
 4552TIP3    H113601   3.339   2.141   5.684
 4552TIP3    H213602   3.289   2.256   5.597
 4553TIP3   OH213603   4.381   0.760   3.931
 4553TIP3    H113604   4.425   0.840   3.961
 4553TIP3    H213605   4.308   0.748   3.992
 4554TIP3   OH213606   2.255   0.602   0.643
 4554TIP3    H113607   2.281   0.522   0.688
 4554TIP3    H213608   2.179   0.576   0.590
 4555TIP3   OH213609   6.553   2.938   6.692
 4555TIP3    H113610   6.543   2.856   6.742
 4555TIP3    H213611   6.610   2.915   6.619
 4556TIP3   OH213612   0.554   6.967   2.834
 4556TIP3    H113613   0.463   6.954   2.860
 4556TIP3    H213614   0.603   6.900   2.881
 4557TIP3   OH213615   3.310   5.694   5.234
 4557TIP3    H113616   3.294   5.660   5.146
 4557TIP3    H213617   3.257   5.773   5.241
 4558TIP3   OH213618   3.164   3.879   4.243
 4558TIP3    H113619   3.210   3.918   4.318
 4558TIP3    H213620   3.220   3.898   4.168
 4559TIP3   OH213621   7.554   5.698   5.756
 4559TIP3    H113622   7.522   5.643   5.828
 4559TIP3    H213623   7.592   5.774   5.799
 4560TIP3   OH213624   4.936   3.149   3.553
 4560TIP3    H113625   4.858   3.095   3.563
 4560TIP3    H213626   4.921   3.224   3.611
 4561TIP3   OH213627   3.653   5.567   1.512
 4561TIP3    H113628   3.723   5.588   1.574
 4561TIP3    H213629   3.693   5.504   1.451
 4562TIP3   OH213630   1.907   3.924   2.300
 4562TIP3    H113631   1.970   3.973   2.247
 4562TIP3    H213632   1.954   3.904   2.381
 4563TIP3   OH213633   6.936   7.106   4.121
 4563TIP3    H113634   6.870   7.093   4.053
 4563TIP3    H213635   6.885   7.116   4.202
 4564TIP3   OH213636   4.438   3.041   3.522
 4564TIP3    H113637   4.359   2.987   3.532
 4564TIP3    H213638   4.505   2.980   3.492
 4565TIP3   OH213639   3.905   4.262   5.554
 4565TIP3    H113640   3.930   4.354   5.549
 4565TIP3    H213641   3.837   4.253   5.487
 4566TIP3   OH213642   0.840   6.720   2.648
 4566TIP3    H113643   0.841   6.676   2.563
 4566TIP3    H213644   0.750   6.709   2.680
 4567TIP3   OH213645   2.247   7.366   4.716
 4567TIP3    H113646   2.285   7.387   4.631
 4567TIP3    H213647   2.300   7.415   4.779
 4568TIP3   OH213648   2.376   3.662   2.417
 4568TIP3    H113649   2.396   3.702   2.332
 4568TIP3    H213650   2.315   3.722   2.458
 4569TIP3   OH213651   4.254   5.881   5.721
 4569TIP3    H113652   4.274   5.900   5.630
 4569TIP3    H213653   4.160   5.864   5.722
 4570TIP3   OH213654   7.908   4.373   6.663
 4570TIP3    H113655   7.977   4.309   6.644
 4570TIP3    H213656   7.837   4.351   6.602
 4571TIP3   OH213657   3.625   3.159   1.067
 4571TIP3    H113658   3.532   3.161   1.090
 4571TIP3    H213659   3.637   3.075   1.023
 4572TIP3   OH213660   3.240   4.709   0.363
 4572TIP3    H113661   3.249   4.748   0.450
 4572TIP3    H213662   3.201   4.623   0.378
 4573TIP3   OH213663   4.383   3.400   5.187
 4573TIP3    H113664   4.313   3.376   5.247
 4573TIP3    H213665   4.453   3.338   5.206
 4574TIP3   OH213666   5.444   5.109   2.331
 4574TIP3    H113667   5.414   5.183   2.278
 4574TIP3    H213668   5.535   5.096   2.304
 4575TIP3   OH213669   6.198   2.144   2.936
 4575TIP3    H113670   6.259   2.072   2.953
 4575TIP3    H213671   6.114   2.100   2.922
 4576TIP3   OH213672   2.753   4.433   4.313
 4576TIP3    H113673   2.797   4.504   4.360
 4576TIP3    H213674   2.809   4.415   4.238
 4577TIP3   OH213675   3.062   0.110   3.439
 4577TIP3    H113676   3.092   0.178   3.499
 4577TIP3    H213677   2.971   0.095   3.462
 4578TIP3   OH213678   1.738   0.619   0.288
 4578TIP3    H113679   1.643   0.626   0.296
 4578TIP3    H213680   1.765   0.569   0.365
 4579TIP3   OH213681   6.027   0.850   0.713
 4579TIP3    H113682   6.036   0.906   0.635
 4579TIP3    H213683   6.037   0.911   0.787
 4580TIP3   OH213684   3.120   2.455   5.827
 4580TIP3    H113685   3.147   2.476   5.738
 4580TIP3    H213686   3.024   2.457   5.824
 4581TIP3   OH213687   7.371   0.577   3.568
 4581TIP3    H113688   7.300   0.641   3.558
 4581TIP3    H213689   7.364   0.523   3.489
 4582TIP3   OH213690   1.234   0.382   1.727
 4582TIP3    H113691   1.169   0.436   1.682
 4582TIP3    H213692   1.224   0.296   1.687
 4583TIP3   OH213693   0.586   5.852   0.417
 4583TIP3    H113694   0.674   5.871   0.448
 4583TIP3    H213695   0.589   5.873   0.323
 4584TIP3   OH213696   0.470   2.947   1.081
 4584TIP3    H113697   0.471   3.032   1.036
 4584TIP3    H213698   0.420   2.890   1.023
 4585TIP3   OH213699   7.901   4.957   0.664
 4585TIP3    H113700   7.881   5.040   0.621
 4585TIP3    H213701   7.859   4.891   0.609
 4586TIP3   OH213702   7.656   4.460   0.601
 4586TIP3    H113703   7.588   4.487   0.663
 4586TIP3    H213704   7.608   4.410   0.534
 4587TIP3   OH213705   5.842   7.482   1.962
 4587TIP3    H113706   5.906   7.498   1.892
 4587TIP3    H213707   5.761   7.520   1.929
 4588TIP3   OH213708   1.233   3.499   4.050
 4588TIP3    H113709   1.220   3.405   4.044
 4588TIP3    H213710   1.236   3.528   3.958
 4589TIP3   OH213711   6.509   4.342   2.923
 4589TIP3    H113712   6.473   4.287   2.853
 4589TIP3    H213713   6.434   4.363   2.979
 4590TIP3   OH213714   5.823   2.857   1.271
 4590TIP3    H113715   5.897   2.875   1.213
 4590TIP3    H213716   5.814   2.936   1.324
 4591TIP3   OH213717   3.897   4.566   2.775
 4591TIP3    H113718   3.968   4.572   2.711
 4591TIP3    H213719   3.822   4.533   2.725
 4592TIP3   OH213720   0.129   5.497   1.424
 4592TIP3    H113721   0.189   5.535   1.360
 4592TIP3    H213722   0.074   5.569   1.452
 4593TIP3   OH213723   7.600   4.751   5.415
 4593TIP3    H113724   7.590   4.829   5.362
 4593TIP3    H213725   7.609   4.784   5.505
 4594TIP3   OH213726   2.369   4.631   2.079
 4594TIP3    H113727   2.326   4.712   2.105
 4594TIP3    H213728   2.445   4.625   2.137
 4595TIP3   OH213729   1.650   7.809   5.772
 4595TIP3    H113730   1.628   7.717   5.755
 4595TIP3    H213731   1.710   7.833   5.702
 4596TIP3   OH213732   1.784   5.029   1.046
 4596TIP3    H113733   1.695   5.037   1.081
 4596TIP3    H213734   1.840   5.029   1.123
 4597TIP3   OH213735   7.088   4.201   4.282
 4597TIP3    H113736   7.053   4.119   4.248
 4597TIP3    H213737   7.183   4.191   4.276
 4598TIP3   OH213738   0.609   7.228   1.868
 4598TIP3    H113739   0.631   7.311   1.908
 4598TIP3    H213740   0.614   7.164   1.939
 4599TIP3   OH213741   2.292   4.965   4.395
 4599TIP3    H113742   2.338   4.890   4.435
 4599TIP3    H213743   2.209   4.970   4.443
 4600TIP3   OH213744   0.765   1.410   1.893
 4600TIP3    H113745   0.818   1.426   1.815
 4600TIP3    H213746   0.735   1.498   1.920
 4601TIP3   OH213747   3.155   0.785   1.565
 4601TIP3    H113748   3.063   0.768   1.547
 4601TIP3    H213749   3.163   0.880   1.560
 4602TIP3   OH213750   5.140   1.562   1.874
 4602TIP3    H113751   5.186   1.646   1.866
 4602TIP3    H213752   5.120   1.555   1.967
 4603TIP3   OH213753   3.103   2.511   1.709
 4603TIP3    H113754   3.095   2.454   1.632
 4603TIP3    H213755   3.192   2.496   1.740
 4604TIP3   OH213756   7.982   1.515   0.386
 4604TIP3    H113757   7.889   1.494   0.381
 4604TIP3    H213758   7.997   1.575   0.313
 4605TIP3   OH213759   5.847   4.956   0.378
 4605TIP3    H113760   5.839   4.914   0.464
 4605TIP3    H213761   5.886   5.041   0.396
 4606TIP3   OH213762   7.007   4.514   1.346
 4606TIP3    H113763   7.062   4.582   1.385
 4606TIP3    H213764   7.069   4.459   1.298
 4607TIP3   OH213765   2.600   7.246   1.861
 4607TIP3    H113766   2.543   7.234   1.785
 4607TIP3    H213767   2.548   7.299   1.922
 4608TIP3   OH213768   6.643   2.668   1.247
 4608TIP3    H113769   6.681   2.754   1.228
 4608TIP3    H213770   6.605   2.677   1.335
 4609TIP3   OH213771   1.140   4.028   0.031
 4609TIP3    H113772   1.089   3.977   0.094
 4609TIP3    H213773   1.165   3.966  -0.037
 4610TIP3   OH213774   3.278   3.473   1.986
 4610TIP3    H113775   3.235   3.515   2.060
 4610TIP3    H213776   3.368   3.504   1.989
 4611TIP3   OH213777   4.673   5.717   3.934
 4611TIP3    H113778   4.724   5.643   3.902
 4611TIP3    H213779   4.609   5.677   3.994
 4612TIP3   OH213780   0.482   0.519   3.519
 4612TIP3    H113781   0.511   0.607   3.544
 4612TIP3    H213782   0.388   0.529   3.502
 4613TIP3   OH213783   7.261   5.867   1.802
 4613TIP3    H113784   7.186   5.903   1.754
 4613TIP3    H213785   7.317   5.943   1.819
 4614TIP3   OH213786   0.807   5.196   1.682
 4614TIP3    H113787   0.886   5.193   1.627
 4614TIP3    H213788   0.826   5.137   1.755
 4615TIP3   OH213789   5.287   6.800   5.551
 4615TIP3    H113790   5.254   6.767   5.468
 4615TIP3    H213791   5.245   6.885   5.561
 4616TIP3   OH213792   4.226   3.791   0.413
 4616TIP3    H113793   4.214   3.864   0.353
 4616TIP3    H213794   4.307   3.810   0.459
 4617TIP3   OH213795   0.362   2.036   5.649
 4617TIP3    H113796   0.449   2.027   5.690
 4617TIP3    H213797   0.312   2.089   5.711
 4618TIP3   OH213798   5.327   3.314   0.560
 4618TIP3    H113799   5.380   3.274   0.492
 4618TIP3    H213800   5.264   3.369   0.514
 4619TIP3   OH213801   1.711   2.323   3.008
 4619TIP3    H113802   1.756   2.377   2.943
 4619TIP3    H213803   1.760   2.240   3.009
 4620TIP3   OH213804   7.971   7.605   6.575
 4620TIP3    H113805   8.021   7.675   6.535
 4620TIP3    H213806   7.938   7.642   6.656
 4621TIP3   OH213807   5.678   1.303   4.675
 4621TIP3    H113808   5.592   1.308   4.716
 4621TIP3    H213809   5.693   1.391   4.640
 4622TIP3   OH213810   0.063   6.302   0.726
 4622TIP3    H113811   0.157   6.313   0.717
 4622TIP3    H213812   0.052   6.218   0.770
 4623TIP3   OH213813   2.404   2.115   3.470
 4623TIP3    H113814   2.349   2.094   3.395
 4623TIP3    H213815   2.490   2.077   3.449
 4624TIP3   OH213816   4.789   0.173   5.869
 4624TIP3    H113817   4.732   0.242   5.834
 4624TIP3    H213818   4.874   0.189   5.828
 4625TIP3   OH213819   5.298   7.761   4.219
 4625TIP3    H113820   5.368   7.796   4.274
 4625TIP3    H213821   5.227   7.742   4.280
 4626TIP3   OH213822   2.584   4.991   2.446
 4626TIP3    H113823   2.592   5.026   2.535
 4626TIP3    H213824   2.508   5.036   2.409
 4627TIP3   OH213825   1.597   6.881   4.439
 4627TIP3    H113826   1.536   6.929   4.383
 4627TIP3    H213827   1.679   6.931   4.434
 4628TIP3   OH213828   3.618   0.767   5.169
 4628TIP3    H113829   3.622   0.751   5.075
 4628TIP3    H213830   3.688   0.829   5.186
 4629TIP3   OH213831   3.163   5.368   0.844
 4629TIP3    H113832   3.226   5.302   0.814
 4629TIP3    H213833   3.218   5.438   0.881
 4630TIP3   OH213834   0.298   5.645   5.804
 4630TIP3    H113835   0.267   5.720   5.753
 4630TIP3    H213836   0.310   5.680   5.893
 4631TIP3   OH213837   6.275   0.242   5.994
 4631TIP3    H113838   6.239   0.274   6.077
 4631TIP3    H213839   6.207   0.184   5.959
 4632TIP3   OH213840   4.568   4.442   3.937
 4632TIP3    H113841   4.509   4.367   3.947
 4632TIP3    H213842   4.513   4.513   3.906
 4633TIP3   OH213843   0.022   3.264   1.040
 4633TIP3    H113844  -0.001   3.217   1.120
 4633TIP3    H213845   0.118   3.268   1.041
 4634TIP3   OH213846   3.133   3.214   5.041
 4634TIP3    H113847   3.172   3.281   4.984
 4634TIP3    H213848   3.132   3.135   4.986
 4635TIP3   OH213849   3.466   3.474   5.850
 4635TIP3    H113850   3.409   3.535   5.804
 4635TIP3    H213851   3.490   3.518   5.931
 4636TIP3   OH213852   1.907   1.437   2.004
 4636TIP3    H113853   1.864   1.365   1.958
 4636TIP3    H213854   1.868   1.436   2.091
 4637TIP3   OH213855   0.681   1.850   3.053
 4637TIP3    H113856   0.719   1.763   3.062
 4637TIP3    H213857   0.738   1.894   2.990
 4638TIP3   OH213858   7.607   4.003   4.956
 4638TIP3    H113859   7.618   3.917   4.996
 4638TIP3    H213860   7.588   4.062   5.029
 4639TIP3   OH213861   0.592   4.086   1.564
 4639TIP3    H113862   0.537   4.009   1.579
 4639TIP3    H213863   0.682   4.052   1.566
 4640TIP3   OH213864   2.184   6.408   5.651
 4640TIP3    H113865   2.116   6.386   5.588
 4640TIP3    H213866   2.157   6.364   5.732
 4641TIP3   OH213867   8.299   2.065   5.557
 4641TIP3    H113868   8.216   2.019   5.570
 4641TIP3    H213869   8.275   2.147   5.514
 4642TIP3   OH213870   6.642   5.554   2.958
 4642TIP3    H113871   6.708   5.487   2.941
 4642TIP3    H213872   6.571   5.534   2.897
 4643TIP3   OH213873   5.824   0.549   6.538
 4643TIP3    H113874   5.890   0.611   6.507
 4643TIP3    H213875   5.855   0.523   6.625
 4644TIP3   OH213876   2.400   0.098   6.222
 4644TIP3    H113877   2.480   0.148   6.237
 4644TIP3    H213878   2.354   0.099   6.306
 4645TIP3   OH213879   5.220   6.839   1.810
 4645TIP3    H113880   5.263   6.923   1.796
 4645TIP3    H213881   5.145   6.840   1.750
 4646TIP3   OH213882   5.264   2.950   0.011
 4646TIP3    H113883   5.218   2.873   0.045
 4646TIP3    H213884   5.357   2.928   0.020
 4647TIP3   OH213885   3.644   0.147   1.251
 4647TIP3    H113886   3.686   0.227   1.221
 4647TIP3    H213887   3.623   0.099   1.171
 4648TIP3   OH213888   7.694   6.371   5.716
 4648TIP3    H113889   7.743   6.452   5.706
 4648TIP3    H213890   7.753   6.312   5.763
 4649TIP3   OH213891   3.133   7.752   2.244
 4649TIP3    H113892   3.064   7.698   2.204
 4649TIP3    H213893   3.086   7.810   2.304
 4650TIP3   OH213894   8.115   4.861   2.388
 4650TIP3    H113895   8.187   4.823   2.339
 4650TIP3    H213896   8.111   4.953   2.360
 4651TIP3   OH213897   1.271   2.101   1.141
 4651TIP3    H113898   1.329   2.085   1.066
 4651TIP3    H213899   1.241   2.191   1.130
 4652TIP3   OH213900   0.347   6.207   2.220
 4652TIP3    H113901   0.348   6.114   2.199
 4652TIP3    H213902   0.437   6.226   2.248
 4653TIP3   OH213903   6.727   5.976   5.638
 4653TIP3    H113904   6.760   6.060   5.605
 4653TIP3    H213905   6.724   5.919   5.561
 4654TIP3   OH213906   7.656   0.952   2.265
 4654TIP3    H113907   7.676   0.877   2.320
 4654TIP3    H213908   7.598   1.006   2.318
 4655TIP3   OH213909   3.465   1.379   6.360
 4655TIP3    H113910   3.518   1.407   6.435
 4655TIP3    H213911   3.404   1.451   6.345
 4656TIP3   OH213912   1.293   3.029   3.258
 4656TIP3    H113913   1.388   3.032   3.265
 4656TIP3    H213914   1.261   3.084   3.330
 4657TIP3   OH213915   3.349   2.508   5.968
 4657TIP3    H113916   3.277   2.495   5.906
 4657TIP3    H213917   3.378   2.598   5.954
 4658TIP3   OH213918   2.394   3.344   0.209
 4658TIP3    H113919   2.327   3.404   0.241
 4658TIP3    H213920   2.455   3.399   0.161
 4659TIP3   OH213921   4.336   5.828   4.724
 4659TIP3    H113922   4.381   5.777   4.657
 4659TIP3    H213923   4.321   5.913   4.684
 4660TIP3   OH213924   7.249   5.345   5.405
 4660TIP3    H113925   7.218   5.288   5.475
 4660TIP3    H213926   7.170   5.382   5.366
 4661TIP3   OH213927   5.606   1.752   5.009
 4661TIP3    H113928   5.590   1.835   4.964
 4661TIP3    H213929   5.675   1.771   5.072
 4662TIP3   OH213930   4.857   7.165   2.373
 4662TIP3    H113931   4.912   7.243   2.368
 4662TIP3    H213932   4.825   7.152   2.284
 4663TIP3   OH213933   3.018   3.470   1.918
 4663TIP3    H113934   3.110   3.443   1.913
 4663TIP3    H213935   2.969   3.393   1.892
 4664TIP3   OH213936   1.220   1.484   4.852
 4664TIP3    H113937   1.263   1.474   4.767
 4664TIP3    H213938   1.129   1.457   4.836
 4665TIP3   OH213939   7.161   5.823   4.286
 4665TIP3    H113940   7.075   5.803   4.250
 4665TIP3    H213941   7.182   5.747   4.340
 4666TIP3   OH213942   3.749   4.573   5.436
 4666TIP3    H113943   3.757   4.549   5.344
 4666TIP3    H213944   3.815   4.520   5.481
 4667TIP3   OH213945   3.236   3.082   0.500
 4667TIP3    H113946   3.321   3.082   0.544
 4667TIP3    H213947   3.234   3.001   0.450
 4668TIP3   OH213948   7.847   1.215   1.352
 4668TIP3    H113949   7.877   1.301   1.381
 4668TIP3    H213950   7.890   1.202   1.267
 4669TIP3   OH213951   6.016   5.185   5.071
 4669TIP3    H113952   6.100   5.168   5.028
 4669TIP3    H213953   5.951   5.143   5.014
 4670TIP3   OH213954   2.804   2.193   2.413
 4670TIP3    H113955   2.726   2.218   2.365
 4670TIP3    H213956   2.866   2.265   2.398
 4671TIP3   OH213957   5.940   3.902   5.721
 4671TIP3    H113958   5.924   3.921   5.814
 4671TIP3    H213959   5.932   3.987   5.678
 4672TIP3   OH213960   7.508   1.662   5.323
 4672TIP3    H113961   7.447   1.591   5.303
 4672TIP3    H213962   7.548   1.684   5.239
 4673TIP3   OH213963   1.402   5.308   1.430
 4673TIP3    H113964   1.420   5.326   1.338
 4673TIP3    H213965   1.334   5.370   1.455
 4674TIP3   OH213966   3.868   7.299   1.366
 4674TIP3    H113967   3.791   7.244   1.377
 4674TIP3    H213968   3.835   7.377   1.321
 4675TIP3   OH213969   1.986   5.870   2.007
 4675TIP3    H113970   2.033   5.832   2.081
 4675TIP3    H213971   1.899   5.890   2.041
 4676TIP3   OH213972   1.452   0.327   1.917
 4676TIP3    H113973   1.428   0.348   1.826
 4676TIP3    H213974   1.507   0.250   1.910
 4677TIP3   OH213975   4.475   4.145   2.380
 4677TIP3    H113976   4.507   4.222   2.334
 4677TIP3    H213977   4.410   4.106   2.321
 4678TIP3   OH213978   7.332   1.825   4.351
 4678TIP3    H113979   7.264   1.832   4.418
 4678TIP3    H213980   7.350   1.915   4.325
 4679TIP3   OH213981   3.139   3.174   3.653
 4679TIP3    H113982   3.154   3.240   3.586
 4679TIP3    H213983   3.138   3.091   3.606
 4680TIP3   OH213984   6.019   0.937   6.392
 4680TIP3    H113985   5.983   0.971   6.474
 4680TIP3    H213986   6.020   0.842   6.403
 4681TIP3   OH213987   1.890   6.467   2.565
 4681TIP3    H113988   1.962   6.529   2.574
 4681TIP3    H213989   1.849   6.464   2.652
 4682TIP3   OH213990   2.553   3.777   2.586
 4682TIP3    H113991   2.478   3.734   2.546
 4682TIP3    H213992   2.620   3.779   2.517
 4683TIP3   OH213993   0.113   0.208   3.672
 4683TIP3    H113994   0.077   0.126   3.637
 4683TIP3    H213995   0.145   0.185   3.759
 4684TIP3   OH213996   2.760   0.562   5.926
 4684TIP3    H113997   2.769   0.657   5.921
 4684TIP3    H213998   2.716   0.538   5.845
 4685TIP3   OH213999   1.811   6.299   0.169
 4685TIP3    H114000   1.789   6.304   0.076
 4685TIP3    H214001   1.824   6.390   0.196
 4686TIP3   OH214002   4.127   0.223   4.891
 4686TIP3    H114003   4.174   0.179   4.821
 4686TIP3    H214004   4.097   0.152   4.948
 4687TIP3   OH214005   8.198   6.086   6.506
 4687TIP3    H114006   8.185   5.992   6.516
 4687TIP3    H214007   8.221   6.097   6.413
 4688TIP3   OH214008   6.543   5.470   0.990
 4688TIP3    H114009   6.449   5.472   0.974
 4688TIP3    H214010   6.568   5.561   1.001
 4689TIP3   OH214011   0.617   2.125   2.889
 4689TIP3    H114012   0.655   2.106   2.975
 4689TIP3    H214013   0.675   2.081   2.827
 4690TIP3   OH214014   3.075   7.512   4.747
 4690TIP3    H114015   2.982   7.492   4.752
 4690TIP3    H214016   3.117   7.438   4.790
 4691TIP3   OH214017   2.588   1.288   3.209
 4691TIP3    H114018   2.612   1.375   3.242
 4691TIP3    H214019   2.498   1.275   3.239
 4692TIP3   OH214020   3.154   5.896   5.339
 4692TIP3    H114021   3.210   5.881   5.415
 4692TIP3    H214022   3.066   5.874   5.369
 4693TIP3   OH214023   8.050   7.604   4.910
 4693TIP3    H114024   8.136   7.610   4.951
 4693TIP3    H214025   7.988   7.614   4.982
 4694TIP3   OH214026   6.268   2.634   0.960
 4694TIP3    H114027   6.332   2.564   0.943
 4694TIP3    H214028   6.313   2.714   0.935
 4695TIP3   OH214029   3.705   2.062   3.644
 4695TIP3    H114030   3.784   2.032   3.689
 4695TIP3    H214031   3.640   1.993   3.660
 4696TIP3   OH214032   8.268   2.010   3.746
 4696TIP3    H114033   8.347   1.998   3.693
 4696TIP3    H214034   8.196   1.981   3.690
 4697TIP3   OH214035   5.640   3.483   2.827
 4697TIP3    H114036   5.725   3.517   2.854
 4697TIP3    H214037   5.588   3.482   2.907
 4698TIP3   OH214038   2.468   3.423   2.498
 4698TIP3    H114039   2.435   3.513   2.496
 4698TIP3    H214040   2.563   3.432   2.496
 4699TIP3   OH214041   0.580   0.141   4.070
 4699TIP3    H114042   0.575   0.236   4.082
 4699TIP3    H214043   0.667   0.117   4.102
 4700TIP3   OH214044   6.974   6.814   4.125
 4700TIP3    H114045   6.977   6.883   4.058
 4700TIP3    H214046   7.065   6.790   4.138
 4701TIP3   OH214047   2.887   3.413   5.085
 4701TIP3    H114048   2.909   3.331   5.041
 4701TIP3    H214049   2.846   3.386   5.167
 4702TIP3   OH214050   1.357   6.759   0.771
 4702TIP3    H114051   1.282   6.721   0.816
 4702TIP3    H214052   1.420   6.776   0.841
 4703TIP3   OH214053   2.459   3.452   4.029
 4703TIP3    H114054   2.495   3.479   4.113
 4703TIP3    H214055   2.449   3.533   3.980
 4704TIP3   OH214056   4.794   3.602   3.468
 4704TIP3    H114057   4.867   3.627   3.411
 4704TIP3    H214058   4.731   3.674   3.459
 4705TIP3   OH214059   3.650   1.449   5.622
 4705TIP3    H114060   3.556   1.439   5.611
 4705TIP3    H214061   3.661   1.538   5.657
 4706TIP3   OH214062   6.229   2.994   0.136
 4706TIP3    H114063   6.140   2.966   0.159
 4706TIP3    H214064   6.230   2.992   0.040
 4707TIP3   OH214065   1.541   0.650   3.445
 4707TIP3    H114066   1.577   0.562   3.454
 4707TIP3    H214067   1.617   0.707   3.433
 4708TIP3   OH214068   7.899   4.297   4.310
 4708TIP3    H114069   7.884   4.214   4.355
 4708TIP3    H214070   7.992   4.294   4.286
 4709TIP3   OH214071   7.755   2.133   1.359
 4709TIP3    H114072   7.726   2.224   1.370
 4709TIP3    H214073   7.675   2.082   1.356
 4710TIP3   OH214074   4.870   4.573   5.869
 4710TIP3    H114075   4.913   4.628   5.934
 4710TIP3    H214076   4.898   4.484   5.890
 4711TIP3   OH214077   4.189   2.104   0.739
 4711TIP3    H114078   4.189   2.010   0.757
 4711TIP3    H214079   4.191   2.145   0.825
 4712TIP3   OH214080   2.669   7.054   2.365
 4712TIP3    H114081   2.683   7.040   2.459
 4712TIP3    H214082   2.626   7.139   2.359
 4713TIP3   OH214083   5.674   6.737   0.988
 4713TIP3    H114084   5.599   6.786   0.954
 4713TIP3    H214085   5.645   6.646   0.987
 4714TIP3   OH214086   1.457   1.159   5.504
 4714TIP3    H114087   1.440   1.092   5.570
 4714TIP3    H214088   1.375   1.167   5.456
 4715TIP3   OH214089   1.224   0.245   5.199
 4715TIP3    H114090   1.215   0.340   5.198
 4715TIP3    H214091   1.308   0.229   5.242
 4716TIP3   OH214092   4.594   3.264   1.984
 4716TIP3    H114093   4.504   3.290   2.002
 4716TIP3    H214094   4.601   3.176   2.020
 4717TIP3   OH214095   3.144   5.164   4.974
 4717TIP3    H114096   3.081   5.158   5.046
 4717TIP3    H214097   3.093   5.145   4.895
 4718TIP3   OH214098   0.551   3.661   5.665
 4718TIP3    H114099   0.505   3.670   5.581
 4718TIP3    H214100   0.602   3.741   5.673
 4719TIP3   OH214101   0.399   3.126   4.609
 4719TIP3    H114102   0.374   3.206   4.562
 4719TIP3    H214103   0.374   3.143   4.700
 4720TIP3   OH214104   5.103   3.197   3.074
 4720TIP3    H114105   5.100   3.182   3.169
 4720TIP3    H214106   5.012   3.195   3.047
 4721TIP3   OH214107   2.563   6.543   2.794
 4721TIP3    H114108   2.621   6.583   2.729
 4721TIP3    H214109   2.550   6.611   2.860
 4722TIP3   OH214110   5.470   7.572   0.529
 4722TIP3    H114111   5.467   7.478   0.546
 4722TIP3    H214112   5.407   7.610   0.590
 4723TIP3   OH214113   6.256   7.263   5.949
 4723TIP3    H114114   6.182   7.213   5.916
 4723TIP3    H214115   6.329   7.202   5.949
 4724TIP3   OH214116   2.262   4.447   4.864
 4724TIP3    H114117   2.229   4.536   4.846
 4724TIP3    H214118   2.213   4.391   4.804
 4725TIP3   OH214119   7.921   3.943   3.570
 4725TIP3    H114120   7.893   3.876   3.507
 4725TIP3    H214121   7.979   3.897   3.630
 4726TIP3   OH214122   1.592   6.932   2.785
 4726TIP3    H114123   1.541   6.856   2.759
 4726TIP3    H214124   1.603   6.982   2.704
 4727TIP3   OH214125   6.105   1.147   1.523
 4727TIP3    H114126   6.090   1.228   1.476
 4727TIP3    H214127   6.200   1.142   1.532
 4728TIP3   OH214128   7.843   7.392   5.198
 4728TIP3    H114129   7.857   7.477   5.156
 4728TIP3    H214130   7.927   7.371   5.240
 4729TIP3   OH214131   8.137   6.330   0.923
 4729TIP3    H114132   8.075   6.334   0.996
 4729TIP3    H214133   8.124   6.244   0.884
 4730TIP3   OH214134   2.094   1.211   5.463
 4730TIP3    H114135   2.019   1.188   5.517
 4730TIP3    H214136   2.168   1.209   5.523
 4731TIP3   OH214137   4.562   7.136   6.416
 4731TIP3    H114138   4.610   7.122   6.335
 4731TIP3    H214139   4.612   7.204   6.462
 4732TIP3   OH214140   4.301   0.166   2.051
 4732TIP3    H114141   4.336   0.094   1.998
 4732TIP3    H214142   4.317   0.245   1.999
 4733TIP3   OH214143   1.608   5.738   0.046
 4733TIP3    H114144   1.671   5.708  -0.020
 4733TIP3    H214145   1.642   5.823   0.074
 4734TIP3   OH214146   3.203   6.660   4.278
 4734TIP3    H114147   3.261   6.635   4.206
 4734TIP3    H214148   3.255   6.643   4.357
 4735TIP3   OH214149   4.397   4.688   2.395
 4735TIP3    H114150   4.391   4.752   2.466
 4735TIP3    H214151   4.481   4.644   2.409
 4736TIP3   OH214152   5.846   7.308   2.648
 4736TIP3    H114153   5.816   7.323   2.558
 4736TIP3    H214154   5.876   7.395   2.677
 4737TIP3   OH214155   6.918   7.776   6.504
 4737TIP3    H114156   6.936   7.841   6.572
 4737TIP3    H214157   6.979   7.705   6.522
 4738TIP3   OH214158   7.308   5.052   0.589
 4738TIP3    H114159   7.240   5.049   0.521
 4738TIP3    H214160   7.269   5.006   0.663
 4739TIP3   OH214161   4.069   7.626   2.243
 4739TIP3    H114162   4.103   7.672   2.166
 4739TIP3    H214163   4.082   7.687   2.315
 4740TIP3   OH214164   0.537   6.666   2.365
 4740TIP3    H114165   0.524   6.663   2.270
 4740TIP3    H214166   0.601   6.597   2.382
 4741TIP3   OH214167   7.381   3.443   4.688
 4741TIP3    H114168   7.311   3.414   4.629
 4741TIP3    H214169   7.461   3.434   4.635
 4742TIP3   OH214170   6.460   3.598   0.460
 4742TIP3    H114171   6.534   3.563   0.411
 4742TIP3    H214172   6.383   3.563   0.415
 4743TIP3   OH214173   6.533   1.617   2.563
 4743TIP3    H114174   6.591   1.543   2.584
 4743TIP3    H214175   6.468   1.616   2.634
 4744TIP3   OH214176   0.665   5.436   2.972
 4744TIP3    H114177   0.689   5.491   3.047
 4744TIP3    H214178   0.655   5.348   3.009
 4745TIP3   OH214179   8.080   7.433   1.332
 4745TIP3    H114180   8.056   7.502   1.394
 4745TIP3    H214181   7.999   7.383   1.319
 4746TIP3   OH214182   7.784   2.118   4.685
 4746TIP3    H114183   7.824   2.080   4.763
 4746TIP3    H214184   7.775   2.211   4.706
 4747TIP3   OH214185   0.759   6.712   1.619
 4747TIP3    H114186   0.740   6.619   1.611
 4747TIP3    H214187   0.851   6.716   1.645
 4748TIP3   OH214188   7.133   0.661   6.092
 4748TIP3    H114189   7.194   0.732   6.112
 4748TIP3    H214190   7.076   0.656   6.169
 4749TIP3   OH214191   1.445   4.054   1.362
 4749TIP3    H114192   1.408   4.117   1.424
 4749TIP3    H214193   1.429   4.093   1.276
 4750TIP3   OH214194   2.472   1.154   5.861
 4750TIP3    H114195   2.439   1.202   5.936
 4750TIP3    H214196   2.473   1.062   5.890
 4751TIP3   OH214197   4.357   6.585   3.838
 4751TIP3    H114198   4.352   6.645   3.763
 4751TIP3    H214199   4.448   6.555   3.839
 4752TIP3   OH214200   7.561   5.420   3.173
 4752TIP3    H114201   7.518   5.456   3.250
 4752TIP3    H214202   7.583   5.496   3.119
 4753TIP3   OH214203   3.693   6.138   0.586
 4753TIP3    H114204   3.649   6.085   0.653
 4753TIP3    H214205   3.629   6.144   0.514
 4754TIP3   OH214206   5.491   6.843   0.156
 4754TIP3    H114207   5.414   6.826   0.102
 4754TIP3    H214208   5.469   6.808   0.242
 4755TIP3   OH214209   2.703   2.294   4.263
 4755TIP3    H114210   2.715   2.335   4.348
 4755TIP3    H214211   2.788   2.253   4.244
 4756TIP3   OH214212   6.100   5.884   4.797
 4756TIP3    H114213   6.111   5.964   4.848
 4756TIP3    H214214   6.189   5.852   4.784
 4757TIP3   OH214215   2.261   2.495   6.381
 4757TIP3    H114216   2.326   2.526   6.443
 4757TIP3    H214217   2.207   2.572   6.362
 4758TIP3   OH214218   2.647   6.945   3.638
 4758TIP3    H114219   2.638   6.857   3.601
 4758TIP3    H214220   2.725   6.980   3.596
 4759TIP3   OH214221   1.655   3.459   2.042
 4759TIP3    H114222   1.629   3.537   1.992
 4759TIP3    H214223   1.661   3.390   1.976
 4760TIP3   OH214224   6.948   4.333   4.079
 4760TIP3    H114225   6.989   4.284   4.150
 4760TIP3    H214226   7.016   4.341   4.013
 4761TIP3   OH214227   3.254   6.905   4.931
 4761TIP3    H114228   3.280   6.985   4.978
 4761TIP3    H214229   3.184   6.934   4.873
 4762TIP3   OH214230   6.027   3.443   1.412
 4762TIP3    H114231   5.984   3.401   1.486
 4762TIP3    H214232   6.108   3.394   1.400
 4763TIP3   OH214233   3.456   0.592   0.717
 4763TIP3    H114234   3.363   0.577   0.700
 4763TIP3    H214235   3.457   0.656   0.788
 4764TIP3   OH214236   4.991   3.605   3.679
 4764TIP3    H114237   4.966   3.683   3.729
 4764TIP3    H214238   4.936   3.609   3.601
 4765TIP3   OH214239   7.043   5.928   5.528
 4765TIP3    H114240   7.027   5.975   5.610
 4765TIP3    H214241   7.030   5.836   5.550
 4766TIP3   OH214242   1.480   4.413   1.768
 4766TIP3    H114243   1.500   4.452   1.683
 4766TIP3    H214244   1.417   4.474   1.807
 4767TIP3   OH214245   0.053   3.428   5.963
 4767TIP3    H114246   0.121   3.387   5.909
 4767TIP3    H214247   0.098   3.449   6.045
 4768TIP3   OH214248   4.710   7.056   5.203
 4768TIP3    H114249   4.782   7.097   5.154
 4768TIP3    H214250   4.732   6.963   5.203
 4769TIP3   OH214251   0.242   6.682   3.700
 4769TIP3    H114252   0.336   6.674   3.715
 4769TIP3    H214253   0.206   6.711   3.784
 4770TIP3   OH214254   2.346   3.754   3.564
 4770TIP3    H114255   2.417   3.737   3.502
 4770TIP3    H214256   2.344   3.849   3.575
 4771TIP3   OH214257   5.088   6.730   0.163
 4771TIP3    H114258   5.080   6.785   0.085
 4771TIP3    H214259   5.158   6.668   0.141
 4772TIP3   OH214260   5.237   7.349   2.406
 4772TIP3    H114261   5.332   7.363   2.406
 4772TIP3    H214262   5.210   7.369   2.495
 4773TIP3   OH214263   4.116   4.677   5.871
 4773TIP3    H114264   4.204   4.710   5.856
 4773TIP3    H214265   4.113   4.593   5.827
 4774TIP3   OH214266   7.157   1.821   5.887
 4774TIP3    H114267   7.143   1.772   5.806
 4774TIP3    H214268   7.096   1.895   5.881
 4775TIP3   OH214269   2.167   6.277   2.782
 4775TIP3    H114270   2.148   6.345   2.846
 4775TIP3    H214271   2.231   6.316   2.722
 4776TIP3   OH214272   3.714   5.139   6.046
 4776TIP3    H114273   3.749   5.167   6.130
 4776TIP3    H214274   3.791   5.123   5.991
 4777TIP3   OH214275   3.151   5.877   1.828
 4777TIP3    H114276   3.061   5.905   1.840
 4777TIP3    H214277   3.183   5.860   1.916
 4778TIP3   OH214278   4.587   6.205   4.739
 4778TIP3    H114279   4.595   6.292   4.700
 4778TIP3    H214280   4.509   6.210   4.794
 4779TIP3   OH214281   1.724   5.827   1.049
 4779TIP3    H114282   1.659   5.757   1.056
 4779TIP3    H214283   1.797   5.787   1.003
 4780TIP3   OH214284   0.644   0.243   6.532
 4780TIP3    H114285   0.607   0.171   6.483
 4780TIP3    H214286   0.638   0.216   6.623
 4781TIP3   OH214287   2.207   6.036   5.383
 4781TIP3    H114288   2.251   5.957   5.415
 4781TIP3    H214289   2.114   6.014   5.387
 4782TIP3   OH214290   2.668   7.441   0.989
 4782TIP3    H114291   2.755   7.461   1.023
 4782TIP3    H214292   2.630   7.383   1.055
 4783TIP3   OH214293   1.822   3.542   4.481
 4783TIP3    H114294   1.799   3.463   4.432
 4783TIP3    H214295   1.850   3.510   4.567
 4784TIP3   OH214296   2.405   3.966   0.119
 4784TIP3    H114297   2.488   3.921   0.139
 4784TIP3    H214298   2.415   4.052   0.160
 4785TIP3   OH214299   0.661   2.640   4.121
 4785TIP3    H114300   0.568   2.622   4.125
 4785TIP3    H214301   0.677   2.703   4.191
 4786TIP3   OH214302   8.234   0.303   5.592
 4786TIP3    H114303   8.245   0.208   5.602
 4786TIP3    H214304   8.293   0.327   5.522
 4787TIP3   OH214305   1.896   1.394   1.727
 4787TIP3    H114306   1.944   1.414   1.808
 4787TIP3    H214307   1.807   1.426   1.743
 4788TIP3   OH214308   7.673   5.011   5.522
 4788TIP3    H114309   7.642   5.097   5.549
 4788TIP3    H214310   7.713   5.025   5.436
 4789TIP3   OH214311   5.784   2.595   1.412
 4789TIP3    H114312   5.801   2.536   1.338
 4789TIP3    H214313   5.753   2.676   1.372
 4790TIP3   OH214314   7.045   7.740   4.024
 4790TIP3    H114315   6.953   7.737   4.052
 4790TIP3    H214316   7.054   7.667   3.964
 4791TIP3   OH214317   8.103   6.511   0.383
 4791TIP3    H114318   8.013   6.482   0.397
 4791TIP3    H214319   8.141   6.445   0.325
 4792TIP3   OH214320   3.386   3.161   4.823
 4792TIP3    H114321   3.470   3.118   4.809
 4792TIP3    H214322   3.402   3.224   4.894
 4793TIP3   OH214323   4.797   5.346   2.638
 4793TIP3    H114324   4.855   5.313   2.570
 4793TIP3    H214325   4.819   5.295   2.716
 4794TIP3   OH214326   4.129   7.405   0.250
 4794TIP3    H114327   4.099   7.383   0.161
 4794TIP3    H214328   4.050   7.431   0.297
 4795TIP3   OH214329   5.924   0.130   1.655
 4795TIP3    H114330   5.851   0.076   1.682
 4795TIP3    H214331   5.906   0.216   1.692
 4796TIP3   OH214332   2.810   4.345   5.373
 4796TIP3    H114333   2.881   4.400   5.339
 4796TIP3    H214334   2.758   4.323   5.295
 4797TIP3   OH214335   7.442   6.110   2.226
 4797TIP3    H114336   7.491   6.181   2.269
 4797TIP3    H214337   7.488   6.030   2.252
 4798TIP3   OH214338   4.792   2.375   4.310
 4798TIP3    H114339   4.832   2.322   4.240
 4798TIP3    H214340   4.741   2.441   4.263
 4799TIP3   OH214341   5.381   5.427   1.109
 4799TIP3    H114342   5.286   5.418   1.099
 4799TIP3    H214343   5.412   5.445   1.020
 4800TIP3   OH214344   3.729   0.867   0.234
 4800TIP3    H114345   3.633   0.874   0.234
 4800TIP3    H214346   3.747   0.781   0.196
 4801TIP3   OH214347   4.301   6.017   1.646
 4801TIP3    H114348   4.268   5.995   1.734
 4801TIP3    H214349   4.286   5.937   1.595
 4802TIP3   OH214350   5.551   7.254   6.111
 4802TIP3    H114351   5.582   7.165   6.094
 4802TIP3    H214352   5.457   7.245   6.125
 4803TIP3   OH214353   5.908   2.880   6.513
 4803TIP3    H114354   5.936   2.949   6.574
 4803TIP3    H214355   5.963   2.805   6.536
 4804TIP3   OH214356   4.800   6.287   5.471
 4804TIP3    H114357   4.851   6.234   5.409
 4804TIP3    H214358   4.724   6.233   5.492
 4805TIP3   OH214359   5.424   6.382   4.817
 4805TIP3    H114360   5.449   6.474   4.826
 4805TIP3    H214361   5.505   6.337   4.794
 4806TIP3   OH214362   7.475   3.518   3.291
 4806TIP3    H114363   7.464   3.523   3.386
 4806TIP3    H214364   7.473   3.609   3.262
 4807TIP3   OH214365   0.371   7.555   6.607
 4807TIP3    H114366   0.304   7.500   6.647
 4807TIP3    H214367   0.450   7.500   6.607
 4808TIP3   OH214368   6.300   5.104   3.888
 4808TIP3    H114369   6.357   5.126   3.963
 4808TIP3    H214370   6.276   5.188   3.851
 4809TIP3   OH214371   5.301   5.859   5.925
 4809TIP3    H114372   5.354   5.786   5.957
 4809TIP3    H214373   5.334   5.936   5.972
 4810TIP3   OH214374   1.372   5.936   0.439
 4810TIP3    H114375   1.451   5.883   0.451
 4810TIP3    H214376   1.346   5.919   0.349
 4811TIP3   OH214377   4.302   2.302   0.418
 4811TIP3    H114378   4.223   2.249   0.406
 4811TIP3    H214379   4.303   2.360   0.343
 4812TIP3   OH214380   5.158   7.690   4.891
 4812TIP3    H114381   5.239   7.668   4.939
 4812TIP3    H214382   5.088   7.659   4.948
 4813TIP3   OH214383   4.720   2.089   6.365
 4813TIP3    H114384   4.753   2.047   6.444
 4813TIP3    H214385   4.790   2.149   6.340
 4814TIP3   OH214386   0.636   2.065   3.446
 4814TIP3    H114387   0.558   2.036   3.492
 4814TIP3    H214388   0.680   2.124   3.507
 4815TIP3   OH214389   0.050   0.863   6.495
 4815TIP3    H114390   0.073   0.902   6.579
 4815TIP3    H214391   0.038   0.938   6.436
 4816TIP3   OH214392   7.365   7.605   1.733
 4816TIP3    H114393   7.405   7.692   1.722
 4816TIP3    H214394   7.392   7.556   1.656
 4817TIP3   OH214395   1.621   1.183   2.912
 4817TIP3    H114396   1.696   1.125   2.918
 4817TIP3    H214397   1.594   1.197   3.003
 4818TIP3   OH214398   2.985   6.552   5.510
 4818TIP3    H114399   3.026   6.605   5.579
 4818TIP3    H214400   3.049   6.552   5.438
 4819TIP3   OH214401   6.543   0.107   0.833
 4819TIP3    H114402   6.485   0.171   0.791
 4819TIP3    H214403   6.631   0.137   0.813
 4820TIP3   OH214404   6.660   4.858   4.027
 4820TIP3    H114405   6.625   4.917   4.093
 4820TIP3    H214406   6.604   4.873   3.950
 4821TIP3   OH214407   5.405   4.767   6.519
 4821TIP3    H114408   5.497   4.793   6.509
 4821TIP3    H214409   5.356   4.828   6.464
 4822TIP3   OH214410   2.044   7.095   6.605
 4822TIP3    H114411   1.976   7.162   6.595
 4822TIP3    H214412   2.057   7.061   6.516
 4823TIP3   OH214413   5.975   1.001   5.128
 4823TIP3    H114414   5.967   0.957   5.044
 4823TIP3    H214415   5.987   0.930   5.191
 4824TIP3   OH214416   3.572   4.576   1.062
 4824TIP3    H114417   3.593   4.517   0.989
 4824TIP3    H214418   3.655   4.587   1.109
 4825TIP3   OH214419   2.029   2.274   1.821
 4825TIP3    H114420   2.017   2.357   1.776
 4825TIP3    H214421   2.114   2.242   1.790
 4826TIP3   OH214422   5.529   7.772   3.669
 4826TIP3    H114423   5.511   7.683   3.699
 4826TIP3    H214424   5.490   7.776   3.581
 4827TIP3   OH214425   3.001   5.666   1.581
 4827TIP3    H114426   2.976   5.660   1.673
 4827TIP3    H214427   3.072   5.731   1.580
 4828TIP3   OH214428   4.852   1.358   5.711
 4828TIP3    H114429   4.792   1.370   5.784
 4828TIP3    H214430   4.939   1.349   5.751
 4829TIP3   OH214431   0.645   2.347   1.003
 4829TIP3    H114432   0.666   2.257   0.976
 4829TIP3    H214433   0.553   2.358   0.978
 4830TIP3   OH214434   4.129   0.701   5.554
 4830TIP3    H114435   4.096   0.612   5.569
 4830TIP3    H214436   4.207   0.689   5.499
 4831TIP3   OH214437   3.583   4.314   3.904
 4831TIP3    H114438   3.646   4.260   3.856
 4831TIP3    H214439   3.575   4.271   3.989
 4832TIP3   OH214440   5.354   4.848   3.039
 4832TIP3    H114441   5.361   4.904   2.962
 4832TIP3    H214442   5.283   4.885   3.091
 4833TIP3   OH214443   2.669   2.849   3.364
 4833TIP3    H114444   2.700   2.871   3.452
 4833TIP3    H214445   2.742   2.802   3.324
 4834TIP3   OH214446   7.981   7.176   2.557
 4834TIP3    H114447   7.913   7.108   2.560
 4834TIP3    H214448   8.063   7.127   2.557
 4835TIP3   OH214449   3.810   6.810   1.460
 4835TIP3    H114450   3.838   6.772   1.377
 4835TIP3    H214451   3.715   6.801   1.460
 4836TIP3   OH214452   0.795   3.605   3.994
 4836TIP3    H114453   0.795   3.614   4.090
 4836TIP3    H214454   0.883   3.573   3.974
 4837TIP3   OH214455   6.064   4.058   6.247
 4837TIP3    H114456   5.999   4.028   6.311
 4837TIP3    H214457   6.077   3.982   6.190
 4838TIP3   OH214458   5.056   0.494   6.296
 4838TIP3    H114459   5.119   0.553   6.337
 4838TIP3    H214460   5.109   0.427   6.254
 4839TIP3   OH214461  -0.023   6.357   2.221
 4839TIP3    H114462  -0.034   6.262   2.228
 4839TIP3    H214463   0.071   6.369   2.208
 4840TIP3   OH214464   0.874   4.118   4.532
 4840TIP3    H114465   0.869   4.207   4.498
 4840TIP3    H214466   0.822   4.120   4.612
 4841TIP3   OH214467   0.703   3.100   6.469
 4841TIP3    H114468   0.609   3.112   6.478
 4841TIP3    H214469   0.740   3.187   6.481
 4842TIP3   OH214470   5.883   1.967   1.676
 4842TIP3    H114471   5.802   1.927   1.645
 4842TIP3    H214472   5.925   1.898   1.728
 4843TIP3   OH214473   7.673   7.104   1.471
 4843TIP3    H114474   7.747   7.096   1.532
 4843TIP3    H214475   7.596   7.097   1.527
 4844TIP3   OH214476   5.047   1.219   0.173
 4844TIP3    H114477   5.025   1.160   0.245
 4844TIP3    H214478   5.099   1.166   0.113
 4845TIP3   OH214479   6.725   0.760   3.075
 4845TIP3    H114480   6.653   0.705   3.046
 4845TIP3    H214481   6.799   0.700   3.085
 4846TIP3   OH214482   0.246   2.126   1.840
 4846TIP3    H114483   0.180   2.062   1.812
 4846TIP3    H214484   0.210   2.211   1.815
 4847TIP3   OH214485   4.318   3.649   1.913
 4847TIP3    H114486   4.326   3.642   1.818
 4847TIP3    H214487   4.224   3.661   1.929
 4848TIP3   OH214488   8.106   4.657   0.690
 4848TIP3    H114489   8.105   4.748   0.659
 4848TIP3    H214490   8.100   4.605   0.610
 4849TIP3   OH214491   2.826   3.150   6.190
 4849TIP3    H114492   2.808   3.199   6.110
 4849TIP3    H214493   2.761   3.181   6.253
 4850TIP3   OH214494   5.303   0.178   1.533
 4850TIP3    H114495   5.387   0.191   1.578
 4850TIP3    H214496   5.299   0.250   1.471
 4851TIP3   OH214497   2.408   5.389   0.322
 4851TIP3    H114498   2.439   5.303   0.292
 4851TIP3    H214499   2.314   5.377   0.335
 4852TIP3   OH214500   6.695   7.667   6.334
 4852TIP3    H114501   6.696   7.574   6.354
 4852TIP3    H214502   6.764   7.704   6.390
 4853TIP3   OH214503   0.760   2.317   6.118
 4853TIP3    H114504   0.669   2.291   6.131
 4853TIP3    H214505   0.795   2.255   6.055
 4854TIP3   OH214506   4.782   0.336   3.416
 4854TIP3    H114507   4.697   0.333   3.459
 4854TIP3    H214508   4.828   0.409   3.458
 4855TIP3   OH214509   3.810   5.465   6.117
 4855TIP3    H114510   3.847   5.451   6.204
 4855TIP3    H214511   3.756   5.544   6.127
 4856TIP3   OH214512   7.688   3.996   3.248
 4856TIP3    H114513   7.597   4.019   3.266
 4856TIP3    H214514   7.702   4.022   3.157
 4857TIP3   OH214515   1.990   1.453   5.732
 4857TIP3    H114516   2.015   1.404   5.811
 4857TIP3    H214517   1.894   1.456   5.735
 4858TIP3   OH214518   2.308   3.807   4.170
 4858TIP3    H114519   2.374   3.871   4.199
 4858TIP3    H214520   2.272   3.771   4.251
 4859TIP3   OH214521   3.739   1.457   1.099
 4859TIP3    H114522   3.759   1.400   1.173
 4859TIP3    H214523   3.745   1.546   1.135
 4860TIP3   OH214524   1.572   3.511   2.760
 4860TIP3    H114525   1.564   3.533   2.853
 4860TIP3    H214526   1.656   3.466   2.754
 4861TIP3   OH214527   0.809   3.431   5.116
 4861TIP3    H114528   0.799   3.496   5.187
 4861TIP3    H214529   0.799   3.482   5.036
 4862TIP3   OH214530   5.933   2.192   6.522
 4862TIP3    H114531   5.948   2.202   6.428
 4862TIP3    H214532   5.860   2.130   6.528
 4863TIP3   OH214533   5.314   5.713   4.801
 4863TIP3    H114534   5.291   5.621   4.815
 4863TIP3    H214535   5.409   5.717   4.811
 4864TIP3   OH214536   3.938   3.414   4.093
 4864TIP3    H114537   3.941   3.472   4.018
 4864TIP3    H214538   3.846   3.412   4.119
 4865TIP3   OH214539   5.045   2.181   6.068
 4865TIP3    H114540   4.973   2.211   6.013
 4865TIP3    H214541   5.120   2.235   6.041
 4866TIP3   OH214542   7.330   5.755   3.109
 4866TIP3    H114543   7.347   5.662   3.116
 4866TIP3    H214544   7.306   5.782   3.198
 4867TIP3   OH214545   3.787   3.375   6.084
 4867TIP3    H114546   3.753   3.465   6.082
 4867TIP3    H214547   3.854   3.376   6.152
 4868TIP3   OH214548   0.993   7.048   1.520
 4868TIP3    H114549   0.938   7.096   1.582
 4868TIP3    H214550   1.067   7.107   1.502
 4869TIP3   OH214551   4.302   2.179   5.505
 4869TIP3    H114552   4.234   2.169   5.439
 4869TIP3    H214553   4.381   2.201   5.455
 4870TIP3   OH214554   6.599   1.320   2.814
 4870TIP3    H114555   6.621   1.315   2.907
 4870TIP3    H214556   6.513   1.361   2.811
 4871TIP3   OH214557   5.495   1.160   4.111
 4871TIP3    H114558   5.525   1.073   4.084
 4871TIP3    H214559   5.562   1.220   4.079
 4872TIP3   OH214560   3.419   5.581   0.776
 4872TIP3    H114561   3.449   5.569   0.867
 4872TIP3    H214562   3.499   5.605   0.728
 4873TIP3   OH214563   3.906   3.495   2.131
 4873TIP3    H114564   3.975   3.503   2.197
 4873TIP3    H214565   3.828   3.531   2.174
 4874TIP3   OH214566   5.936   4.369   6.159
 4874TIP3    H114567   5.902   4.352   6.247
 4874TIP3    H214568   5.972   4.284   6.131
 4875TIP3   OH214569   5.276   3.784   3.837
 4875TIP3    H114570   5.284   3.710   3.777
 4875TIP3    H214571   5.355   3.781   3.890
 4876TIP3   OH214572   7.756   6.216   6.553
 4876TIP3    H114573   7.835   6.270   6.548
 4876TIP3    H214574   7.689   6.276   6.587
 4877TIP3   OH214575   8.198   2.675   4.095
 4877TIP3    H114576   8.243   2.759   4.107
 4877TIP3    H214577   8.242   2.616   4.156
 4878TIP3   OH214578   1.776   6.804   5.213
 4878TIP3    H114579   1.838   6.760   5.271
 4878TIP3    H214580   1.691   6.791   5.254
 4879TIP3   OH214581   6.874   6.535   2.872
 4879TIP3    H114582   6.954   6.566   2.915
 4879TIP3    H214583   6.839   6.613   2.828
 4880TIP3   OH214584   2.628   3.206   6.379
 4880TIP3    H114585   2.605   3.299   6.379
 4880TIP3    H214586   2.545   3.160   6.365
 4881TIP3   OH214587   1.229   6.768   2.053
 4881TIP3    H114588   1.253   6.686   2.096
 4881TIP3    H214589   1.171   6.742   1.981
 4882TIP3   OH214590   0.632   1.836   0.042
 4882TIP3    H114591   0.618   1.929   0.059
 4882TIP3    H214592   0.647   1.831  -0.053
 4883TIP3   OH214593   1.840   4.375   2.271
 4883TIP3    H114594   1.798   4.343   2.351
 4883TIP3    H214595   1.791   4.334   2.200
 4884TIP3   OH214596   0.253   0.837   2.777
 4884TIP3    H114597   0.289   0.762   2.729
 4884TIP3    H214598   0.207   0.799   2.852
 4885TIP3   OH214599   7.497   3.649   0.726
 4885TIP3    H114600   7.454   3.713   0.670
 4885TIP3    H214601   7.510   3.572   0.671
 4886TIP3   OH214602   1.841   6.048   5.841
 4886TIP3    H114603   1.907   6.052   5.771
 4886TIP3    H214604   1.826   5.954   5.854
 4887TIP3   OH214605   6.010   2.338   2.192
 4887TIP3    H114606   5.960   2.402   2.141
 4887TIP3    H214607   5.951   2.312   2.262
 4888TIP3   OH214608   5.069   3.099   1.779
 4888TIP3    H114609   4.982   3.133   1.798
 4888TIP3    H214610   5.128   3.160   1.822
 4889TIP3   OH214611   7.481   0.215   6.797
 4889TIP3    H114612   7.467   0.120   6.793
 4889TIP3    H214613   7.490   0.241   6.705
 4890TIP3   OH214614   4.299   4.325   2.810
 4890TIP3    H114615   4.312   4.417   2.787
 4890TIP3    H214616   4.335   4.277   2.735
 4891TIP3   OH214617   1.782   3.387   6.622
 4891TIP3    H114618   1.765   3.313   6.681
 4891TIP3    H214619   1.771   3.465   6.677
 4892TIP3   OH214620   4.404   6.920   1.217
 4892TIP3    H114621   4.399   7.002   1.266
 4892TIP3    H214622   4.317   6.908   1.180
 4893TIP3   OH214623   2.444   1.944   2.477
 4893TIP3    H114624   2.499   1.898   2.413
 4893TIP3    H214625   2.468   1.905   2.561
 4894TIP3   OH214626   8.067   3.810   6.742
 4894TIP3    H114627   8.061   3.733   6.685
 4894TIP3    H214628   8.130   3.784   6.809
 4895TIP3   OH214629   7.480   0.705   5.578
 4895TIP3    H114630   7.423   0.771   5.618
 4895TIP3    H214631   7.512   0.745   5.498
 4896TIP3   OH214632   2.247   5.875   4.032
 4896TIP3    H114633   2.277   5.933   4.102
 4896TIP3    H214634   2.181   5.926   3.985
 4897TIP3   OH214635   5.271   0.980   3.241
 4897TIP3    H114636   5.265   1.018   3.153
 4897TIP3    H214637   5.333   1.037   3.287
 4898TIP3   OH214638   5.827   0.212   0.146
 4898TIP3    H114639   5.920   0.225   0.125
 4898TIP3    H214640   5.782   0.221   0.062
 4899TIP3   OH214641   8.190   5.805   6.494
 4899TIP3    H114642   8.259   5.785   6.431
 4899TIP3    H214643   8.203   5.743   6.565
 4900TIP3   OH214644   1.531   1.341   2.066
 4900TIP3    H114645   1.600   1.324   2.001
 4900TIP3    H214646   1.579   1.364   2.146
 4901TIP3   OH214647   4.620   4.000   4.624
 4901TIP3    H114648   4.703   4.018   4.580
 4901TIP3    H214649   4.581   3.929   4.573
 4902TIP3   OH214650   3.535   1.810   0.345
 4902TIP3    H114651   3.535   1.894   0.299
 4902TIP3    H214652   3.503   1.748   0.280
 4903TIP3   OH214653   5.919   2.898   3.867
 4903TIP3    H114654   5.963   2.967   3.818
 4903TIP3    H214655   5.880   2.943   3.942
 4904TIP3   OH214656   3.755   2.034   6.141
 4904TIP3    H114657   3.756   2.025   6.046
 4904TIP3    H214658   3.826   1.978   6.171
 4905TIP3   OH214659   6.893   5.627   5.035
 4905TIP3    H114660   6.887   5.670   5.120
 4905TIP3    H214661   6.831   5.555   5.040
 4906TIP3   OH214662   3.822   1.408   5.394
 4906TIP3    H114663   3.764   1.338   5.362
 4906TIP3    H214664   3.771   1.451   5.463
 4907TIP3   OH214665   8.245   5.984   0.443
 4907TIP3    H114666   8.241   5.908   0.501
 4907TIP3    H214667   8.158   6.023   0.448
 4908TIP3   OH214668   4.969   2.187   1.969
 4908TIP3    H114669   4.975   2.119   1.903
 4908TIP3    H214670   4.967   2.269   1.920
 4909TIP3   OH214671   5.208   5.610   5.196
 4909TIP3    H114672   5.124   5.579   5.162
 4909TIP3    H214673   5.264   5.532   5.197
 4910TIP3   OH214674   2.961   2.374   0.979
 4910TIP3    H114675   2.943   2.317   0.904
 4910TIP3    H214676   2.974   2.460   0.941
 4911TIP3   OH214677   6.858   0.698   0.213
 4911TIP3    H114678   6.901   0.703   0.128
 4911TIP3    H214679   6.927   0.673   0.274
 4912TIP3   OH214680   4.452   2.133   4.820
 4912TIP3    H114681   4.468   2.039   4.832
 4912TIP3    H214682   4.359   2.144   4.837
 4913TIP3   OH214683   7.531   1.413   6.095
 4913TIP3    H114684   7.495   1.374   6.015
 4913TIP3    H214685   7.478   1.491   6.110
 4914TIP3   OH214686   1.836   7.091   0.444
 4914TIP3    H114687   1.818   7.087   0.350
 4914TIP3    H214688   1.819   7.182   0.468
 4915TIP3   OH214689   6.747   6.370   3.868
 4915TIP3    H114690   6.768   6.415   3.950
 4915TIP3    H214691   6.673   6.418   3.833
 4916TIP3   OH214692   4.069   5.201   1.197
 4916TIP3    H114693   3.984   5.216   1.155
 4916TIP3    H214694   4.069   5.108   1.220
 4917TIP3   OH214695   2.155   5.477   4.467
 4917TIP3    H114696   2.155   5.566   4.433
 4917TIP3    H214697   2.186   5.423   4.394
 4918TIP3   OH214698   4.146   4.680   3.021
 4918TIP3    H114699   4.087   4.606   3.012
 4918TIP3    H214700   4.099   4.742   3.078
 4919TIP3   OH214701   6.918   0.025   5.909
 4919TIP3    H114702   6.976   0.027   5.985
 4919TIP3    H214703   6.914   0.115   5.878
 4920TIP3   OH214704   1.925   7.304   5.570
 4920TIP3    H114705   1.948   7.363   5.643
 4920TIP3    H214706   2.007   7.294   5.521
 4921TIP3   OH214707   5.280   3.353   3.780
 4921TIP3    H114708   5.359   3.316   3.741
 4921TIP3    H214709   5.254   3.422   3.718
 4922TIP3   OH214710   0.105   5.373   4.102
 4922TIP3    H114711   0.129   5.461   4.132
 4922TIP3    H214712   0.172   5.316   4.139
 4923TIP3   OH214713   5.914   5.390   0.537
 4923TIP3    H114714   5.851   5.416   0.469
 4923TIP3    H214715   5.999   5.413   0.500
 4924TIP3   OH214716   1.092   6.769   5.059
 4924TIP3    H114717   1.071   6.813   4.976
 4924TIP3    H214718   1.043   6.687   5.055
 4925TIP3   OH214719   3.625   3.298   3.488
 4925TIP3    H114720   3.679   3.306   3.410
 4925TIP3    H214721   3.685   3.273   3.558
 4926TIP3   OH214722   2.895   5.054   0.145
 4926TIP3    H114723   2.934   5.113   0.210
 4926TIP3    H214724   2.875   4.975   0.195
 4927TIP3   OH214725   7.765   6.986   6.232
 4927TIP3    H114726   7.763   7.081   6.242
 4927TIP3    H214727   7.676   6.957   6.251
 4928TIP3   OH214728   2.412   7.167   2.127
 4928TIP3    H114729   2.455   7.169   2.213
 4928TIP3    H214730   2.436   7.251   2.087
 4929TIP3   OH214731   4.315   1.206   5.080
 4929TIP3    H114732   4.229   1.182   5.047
 4929TIP3    H214733   4.305   1.209   5.175
 4930TIP3   OH214734   2.518   3.531   0.612
 4930TIP3    H114735   2.444   3.589   0.630
 4930TIP3    H214736   2.484   3.443   0.629
 4931TIP3   OH214737   6.580   0.104   0.187
 4931TIP3    H114738   6.529   0.156   0.125
 4931TIP3    H214739   6.671   0.121   0.163
 4932TIP3   OH214740   0.161   3.363   0.412
 4932TIP3    H114741   0.082   3.373   0.360
 4932TIP3    H214742   0.228   3.411   0.363
 4933TIP3   OH214743   7.224   2.304   5.421
 4933TIP3    H114744   7.299   2.358   5.442
 4933TIP3    H214745   7.161   2.321   5.491
 4934TIP3   OH214746   0.865   1.671   5.922
 4934TIP3    H114747   0.917   1.611   5.975
 4934TIP3    H214748   0.930   1.725   5.876
 4935TIP3   OH214749   2.435   2.100   1.103
 4935TIP3    H114750   2.451   2.131   1.192
 4935TIP3    H214751   2.493   2.154   1.048
 4936TIP3   OH214752   1.426   6.056   1.128
 4936TIP3    H114753   1.487   6.015   1.188
 4936TIP3    H214754   1.464   6.044   1.041
 4937TIP3   OH214755   0.595   4.860   3.946
 4937TIP3    H114756   0.564   4.931   3.890
 4937TIP3    H214757   0.544   4.784   3.920
 4938TIP3   OH214758   6.256   3.317   5.775
 4938TIP3    H114759   6.332   3.369   5.751
 4938TIP3    H214760   6.255   3.316   5.870
 4939TIP3   OH214761   4.144   3.713   4.839
 4939TIP3    H114762   4.213   3.646   4.841
 4939TIP3    H214763   4.065   3.667   4.867
 4940TIP3   OH214764   0.408   0.631   5.425
 4940TIP3    H114765   0.326   0.641   5.474
 4940TIP3    H214766   0.454   0.560   5.470
 4941TIP3   OH214767   1.430   0.172   6.659
 4941TIP3    H114768   1.376   0.246   6.685
 4941TIP3    H214769   1.509   0.179   6.712
 4942TIP3   OH214770   2.963   2.971   6.726
 4942TIP3    H114771   2.952   2.878   6.703
 4942TIP3    H214772   3.028   2.970   6.796
 4943TIP3   OH214773   8.082   6.771   2.406
 4943TIP3    H114774   8.123   6.692   2.372
 4943TIP3    H214775   8.049   6.817   2.329
 4944TIP3   OH214776   6.955   6.331   0.815
 4944TIP3    H114777   6.950   6.283   0.732
 4944TIP3    H214778   7.046   6.322   0.843
 4945TIP3   OH214779   7.067   4.261   6.273
 4945TIP3    H114780   7.070   4.174   6.312
 4945TIP3    H214781   7.002   4.254   6.203
 4946TIP3   OH214782   8.051   1.668   4.836
 4946TIP3    H114783   7.971   1.616   4.823
 4946TIP3    H214784   8.121   1.614   4.802
 4947TIP3   OH214785   6.542   3.210   4.731
 4947TIP3    H114786   6.513   3.278   4.672
 4947TIP3    H214787   6.638   3.216   4.731
 4948TIP3   OH214788   4.133   6.016   1.305
 4948TIP3    H114789   4.038   6.003   1.299
 4948TIP3    H214790   4.167   5.929   1.329
 4949TIP3   OH214791   3.364   5.883   5.873
 4949TIP3    H114792   3.428   5.847   5.935
 4949TIP3    H214793   3.417   5.931   5.809
 4950TIP3   OH214794   2.100   6.328   3.812
 4950TIP3    H114795   2.130   6.275   3.738
 4950TIP3    H214796   2.132   6.282   3.890
 4951TIP3   OH214797   4.923   2.055   1.247
 4951TIP3    H114798   4.851   2.080   1.189
 4951TIP3    H214799   4.989   2.123   1.235
 4952TIP3   OH214800   3.838   5.192   1.747
 4952TIP3    H114801   3.813   5.133   1.676
 4952TIP3    H214802   3.910   5.244   1.710
 4953TIP3   OH214803   2.020   3.050   0.136
 4953TIP3    H114804   2.077   3.065   0.061
 4953TIP3    H214805   1.950   3.114   0.125
 4954TIP3   OH214806   0.731   2.507   3.059
 4954TIP3    H114807   0.799   2.442   3.037
 4954TIP3    H214808   0.737   2.515   3.155
 4955TIP3   OH214809   3.506   0.992   2.425
 4955TIP3    H114810   3.574   0.926   2.442
 4955TIP3    H214811   3.548   1.056   2.368
 4956TIP3   OH214812   3.757   1.738   0.835
 4956TIP3    H114813   3.827   1.673   0.830
 4956TIP3    H214814   3.749   1.771   0.746
 4957TIP3   OH214815   4.931   6.226   1.794
 4957TIP3    H114816   4.995   6.161   1.767
 4957TIP3    H214817   4.979   6.309   1.790
 4958TIP3   OH214818   5.290   1.502   1.281
 4958TIP3    H114819   5.208   1.457   1.262
 4958TIP3    H214820   5.354   1.464   1.221
 4959TIP3   OH214821   2.807   4.782   0.308
 4959TIP3    H114822   2.776   4.755   0.221
 4959TIP3    H214823   2.900   4.799   0.296
 4960TIP3   OH214824   5.855   5.611   5.390
 4960TIP3    H114825   5.892   5.561   5.463
 4960TIP3    H214826   5.760   5.601   5.402
 4961TIP3   OH214827   4.831   3.273   1.220
 4961TIP3    H114828   4.903   3.333   1.201
 4961TIP3    H214829   4.849   3.240   1.308
 4962TIP3   OH214830   3.839   3.672   6.084
 4962TIP3    H114831   3.902   3.615   6.041
 4962TIP3    H214832   3.891   3.744   6.118
 4963TIP3   OH214833   7.635   3.693   4.684
 4963TIP3    H114834   7.639   3.609   4.638
 4963TIP3    H214835   7.670   3.674   4.771
 4964TIP3   OH214836   2.046   6.934   0.912
 4964TIP3    H114837   1.969   6.989   0.930
 4964TIP3    H214838   2.115   6.996   0.891
 4965TIP3   OH214839   5.555   3.621   3.741
 4965TIP3    H114840   5.600   3.538   3.753
 4965TIP3    H214841   5.497   3.606   3.666
 4966TIP3   OH214842   4.029   2.243   3.195
 4966TIP3    H114843   3.947   2.198   3.174
 4966TIP3    H214844   4.088   2.219   3.124
 4967TIP3   OH214845   2.141   7.677   3.160
 4967TIP3    H114846   2.147   7.604   3.223
 4967TIP3    H214847   2.116   7.752   3.213
 4968TIP3   OH214848   2.322   3.433   2.241
 4968TIP3    H114849   2.363   3.433   2.154
 4968TIP3    H214850   2.395   3.439   2.302
 4969TIP3   OH214851   2.126   0.322   3.292
 4969TIP3    H114852   2.197   0.266   3.321
 4969TIP3    H214853   2.057   0.261   3.264
 4970TIP3   OH214854   2.292   0.568   1.260
 4970TIP3    H114855   2.359   0.541   1.324
 4970TIP3    H214856   2.218   0.597   1.314
 4971TIP3   OH214857   5.717   5.171   5.744
 4971TIP3    H114858   5.799   5.218   5.758
 4971TIP3    H214859   5.733   5.083   5.778
 4972TIP3   OH214860   3.014   6.953   2.848
 4972TIP3    H114861   3.089   6.927   2.795
 4972TIP3    H214862   2.971   6.870   2.870
 4973TIP3   OH214863   4.347   1.367   0.808
 4973TIP3    H114864   4.273   1.309   0.825
 4973TIP3    H214865   4.405   1.317   0.752
 4974TIP3   OH214866   3.705   6.193   5.851
 4974TIP3    H114867   3.728   6.204   5.943
 4974TIP3    H214868   3.742   6.109   5.826
 4975TIP3   OH214869   8.212   1.120   0.007
 4975TIP3    H114870   8.282   1.083   0.060
 4975TIP3    H214871   8.249   1.200  -0.030
 4976TIP3   OH214872   3.918   3.030   3.284
 4976TIP3    H114873   3.901   2.959   3.223
 4976TIP3    H214874   3.843   3.031   3.342
 4977TIP3   OH214875   2.927   6.172   5.673
 4977TIP3    H114876   3.020   6.180   5.654
 4977TIP3    H214877   2.914   6.079   5.691
 4978TIP3   OH214878   6.396   3.469   1.892
 4978TIP3    H114879   6.435   3.505   1.971
 4978TIP3    H214880   6.303   3.491   1.899
 4979TIP3   OH214881   6.527   6.045   0.172
 4979TIP3    H114882   6.622   6.046   0.159
 4979TIP3    H214883   6.504   6.137   0.185
 4980TIP3   OH214884   3.895   7.555   0.281
 4980TIP3    H114885   3.957   7.593   0.219
 4980TIP3    H214886   3.858   7.630   0.327
 4981TIP3   OH214887   4.809   5.167   6.487
 4981TIP3    H114888   4.714   5.178   6.481
 4981TIP3    H214889   4.830   5.186   6.578
 4982TIP3   OH214890   7.794   3.924   0.359
 4982TIP3    H114891   7.732   3.991   0.389
 4982TIP3    H214892   7.815   3.874   0.438
 4983TIP3   OH214893   0.369   5.257   5.332
 4983TIP3    H114894   0.287   5.302   5.348
 4983TIP3    H214895   0.382   5.201   5.408
 4984TIP3   OH214896   0.502   6.420   0.123
 4984TIP3    H114897   0.447   6.431   0.201
 4984TIP3    H214898   0.445   6.375   0.061
 4985TIP3   OH214899   8.004   4.939   3.528
 4985TIP3    H114900   7.915   4.927   3.495
 4985TIP3    H214901   8.054   4.870   3.486
 4986TIP3   OH214902   8.188   6.280   3.940
 4986TIP3    H114903   8.139   6.198   3.952
 4986TIP3    H214904   8.221   6.302   4.027
 4987TIP3   OH214905   7.120   1.253   6.172
 4987TIP3    H114906   7.112   1.218   6.260
 4987TIP3    H214907   7.030   1.275   6.146
 4988TIP3   OH214908   8.253   1.983   0.584
 4988TIP3    H114909   8.170   1.955   0.546
 4988TIP3    H214910   8.294   2.036   0.515
 4989TIP3   OH214911   1.019   4.468   0.778
 4989TIP3    H114912   1.034   4.537   0.713
 4989TIP3    H214913   0.951   4.413   0.740
 4990TIP3   OH214914   0.180   3.540   4.979
 4990TIP3    H114915   0.128   3.460   4.991
 4990TIP3    H214916   0.221   3.529   4.894
 4991TIP3   OH214917   0.574   6.922   4.767
 4991TIP3    H114918   0.657   6.966   4.785
 4991TIP3    H214919   0.523   6.986   4.718
 4992TIP3   OH214920   5.463   6.525   3.150
 4992TIP3    H114921   5.464   6.488   3.238
 4992TIP3    H214922   5.438   6.452   3.093
 4993TIP3   OH214923   5.505   2.832   6.139
 4993TIP3    H114924   5.450   2.902   6.176
 4993TIP3    H214925   5.556   2.800   6.214
 4994TIP3   OH214926   1.417   1.429   5.824
 4994TIP3    H114927   1.420   1.514   5.780
 4994TIP3    H214928   1.462   1.370   5.764
 4995TIP3   OH214929   1.123   2.424   4.498
 4995TIP3    H114930   1.213   2.440   4.470
 4995TIP3    H214931   1.126   2.428   4.593
 4996TIP3   OH214932   5.142   1.086   3.677
 4996TIP3    H114933   5.126   1.132   3.594
 4996TIP3    H214934   5.064   1.032   3.690
 4997TIP3   OH214935   2.628   0.150   5.122
 4997TIP3    H114936   2.618   0.055   5.127
 4997TIP3    H214937   2.642   0.178   5.213
 4998TIP3   OH214938   3.165   2.262   1.122
 4998TIP3    H114939   3.098   2.317   1.082
 4998TIP3    H214940   3.246   2.312   1.114
 4999TIP3   OH214941   4.629   5.114   3.832
 4999TIP3    H114942   4.580   5.195   3.846
 4999TIP3    H214943   4.704   5.140   3.778
 5000TIP3   OH214944   4.960   0.897   5.847
 5000TIP3    H114945   4.970   0.897   5.942
 5000TIP3    H214946   5.015   0.825   5.817
 5001TIP3   OH214947   7.632   0.989   0.468
 5001TIP3    H114948   7.649   0.896   0.481
 5001TIP3    H214949   7.572   1.013   0.538
 5002TIP3   OH214950   5.429   7.684   0.955
 5002TIP3    H114951   5.427   7.764   1.007
 5002TIP3    H214952   5.521   7.656   0.959
 5003TIP3   OH214953   8.049   0.855   2.460
 5003TIP3    H114954   8.091   0.934   2.494
 5003TIP3    H214955   8.010   0.883   2.378
 5004TIP3   OH214956   2.412   4.396   5.307
 5004TIP3    H114957   2.407   4.429   5.397
 5004TIP3    H214958   2.387   4.304   5.314
 5005TIP3   OH214959   8.024   7.248   0.474
 5005TIP3    H114960   8.037   7.200   0.393
 5005TIP3    H214961   7.998   7.335   0.447
 5006TIP3   OH214962   8.179   7.381   1.620
 5006TIP3    H114963   8.084   7.370   1.622
 5006TIP3    H214964   8.195   7.437   1.545
 5007TIP3   OH214965   0.812   3.802   5.098
 5007TIP3    H114966   0.793   3.756   5.180
 5007TIP3    H214967   0.899   3.771   5.073
 5008TIP3   OH214968   5.971   1.237   5.865
 5008TIP3    H114969   6.016   1.203   5.942
 5008TIP3    H214970   6.034   1.227   5.794
 5009TIP3   OH214971   3.390   4.685   1.917
 5009TIP3    H114972   3.478   4.711   1.944
 5009TIP3    H214973   3.339   4.766   1.917
 5010TIP3   OH214974   2.305   4.421   6.787
 5010TIP3    H114975   2.235   4.356   6.793
 5010TIP3    H214976   2.336   4.414   6.696
 5011TIP3   OH214977   5.589   3.022   5.992
 5011TIP3    H114978   5.558   3.021   5.901
 5011TIP3    H214979   5.552   2.943   6.031
 5012TIP3   OH214980   6.344   1.400   1.593
 5012TIP3    H114981   6.264   1.433   1.553
 5012TIP3    H214982   6.369   1.467   1.656
 5013TIP3   OH214983   4.321   2.759   2.527
 5013TIP3    H114984   4.302   2.676   2.483
 5013TIP3    H214985   4.268   2.823   2.481
 5014TIP3   OH214986   1.660   5.567   3.685
 5014TIP3    H114987   1.701   5.574   3.771
 5014TIP3    H214988   1.698   5.488   3.646
 5015TIP3   OH214989   3.046   5.667   6.053
 5015TIP3    H114990   2.988   5.677   6.129
 5015TIP3    H214991   3.126   5.713   6.078
 5016TIP3   OH214992   2.233   0.789   5.647
 5016TIP3    H114993   2.206   0.834   5.728
 5016TIP3    H214994   2.328   0.803   5.643
 5017TIP3   OH214995   4.861   6.329   1.565
 5017TIP3    H114996   4.866   6.269   1.640
 5017TIP3    H214997   4.833   6.412   1.603
 5018TIP3   OH214998   0.774   3.521   4.851
 5018TIP3    H114999   0.710   3.584   4.820
 5018TIP3    H215000   0.770   3.449   4.788
 5019TIP3   OH215001   7.156   1.662   1.711
 5019TIP3    H115002   7.084   1.705   1.758
 5019TIP3    H215003   7.211   1.734   1.681
 5020TIP3   OH215004   7.839   2.765   5.675
 5020TIP3    H115005   7.805   2.803   5.756
 5020TIP3    H215006   7.880   2.838   5.629
 5021TIP3   OH215007   7.210   3.731   1.564
 5021TIP3    H115008   7.170   3.658   1.611
 5021TIP3    H215009   7.237   3.792   1.632
 5022TIP3   OH215010   6.976   1.545   5.672
 5022TIP3    H115011   6.965   1.632   5.633
 5022TIP3    H215012   6.892   1.502   5.660
 5023TIP3   OH215013   3.318   1.911   5.033
 5023TIP3    H115014   3.287   1.983   4.978
 5023TIP3    H215015   3.376   1.860   4.975
 5024TIP3   OH215016   6.403   2.671   3.526
 5024TIP3    H115017   6.491   2.635   3.524
 5024TIP3    H215018   6.414   2.760   3.560
 5025TIP3   OH215019   2.871   1.069   1.727
 5025TIP3    H115020   2.798   1.121   1.693
 5025TIP3    H215021   2.849   1.054   1.819
 5026TIP3   OH215022   6.280   3.295   3.448
 5026TIP3    H115023   6.326   3.243   3.382
 5026TIP3    H215024   6.263   3.379   3.405
 5027TIP3   OH215025   1.522   4.377   4.264
 5027TIP3    H115026   1.551   4.389   4.354
 5027TIP3    H215027   1.602   4.371   4.213
 5028TIP3   OH215028   3.307   6.481   6.213
 5028TIP3    H115029   3.397   6.507   6.194
 5028TIP3    H215030   3.253   6.536   6.156
 5029TIP3   OH215031   1.143   5.590   1.015
 5029TIP3    H115032   1.148   5.634   0.930
 5029TIP3    H215033   1.227   5.606   1.056
 5030TIP3   OH215034   7.429   7.186   5.728
 5030TIP3    H115035   7.352   7.211   5.778
 5030TIP3    H215036   7.488   7.261   5.734
 5031TIP3   OH215037   4.250   3.634   4.166
 5031TIP3    H115038   4.217   3.641   4.076
 5031TIP3    H215039   4.279   3.544   4.174
 5032TIP3   OH215040   6.126   1.310   4.923
 5032TIP3    H115041   6.102   1.268   4.841
 5032TIP3    H215042   6.179   1.385   4.897
 5033TIP3   OH215043   3.342   6.945   3.037
 5033TIP3    H115044   3.381   6.882   3.099
 5033TIP3    H215045   3.395   7.024   3.047
 5034TIP3   OH215046   0.131   7.367   3.508
 5034TIP3    H115047   0.147   7.283   3.465
 5034TIP3    H215048   0.144   7.351   3.601
 5035TIP3   OH215049   8.183   5.447   3.946
 5035TIP3    H115050   8.183   5.387   3.872
 5035TIP3    H215051   8.275   5.455   3.971
 5036TIP3   OH215052   0.699   1.704   4.422
 5036TIP3    H115053   0.653   1.775   4.379
 5036TIP3    H215054   0.690   1.722   4.516
 5037TIP3   OH215055   4.284   3.915   2.765
 5037TIP3    H115056   4.329   3.882   2.843
 5037TIP3    H215057   4.327   3.999   2.746
 5038TIP3   OH215058   0.258   5.603   6.619
 5038TIP3    H115059   0.290   5.514   6.636
 5038TIP3    H215060   0.309   5.633   6.544
 5039TIP3   OH215061   1.695   3.728   1.920
 5039TIP3    H115062   1.627   3.785   1.884
 5039TIP3    H215063   1.700   3.753   2.012
 5040TIP3   OH215064   1.608   4.815   5.948
 5040TIP3    H115065   1.609   4.911   5.952
 5040TIP3    H215066   1.656   4.794   5.869
 5041TIP3   OH215067   7.940   0.620   4.530
 5041TIP3    H115068   7.855   0.661   4.514
 5041TIP3    H215069   8.004   0.686   4.504
 5042TIP3   OH215070   5.333   2.223   5.507
 5042TIP3    H115071   5.337   2.319   5.512
 5042TIP3    H215072   5.254   2.199   5.557
 5043TIP3   OH215073   4.626   6.058   0.203
 5043TIP3    H115074   4.654   6.002   0.275
 5043TIP3    H215075   4.707   6.075   0.154
 5044TIP3   OH215076   1.243   2.277   5.672
 5044TIP3    H115077   1.269   2.277   5.580
 5044TIP3    H215078   1.291   2.350   5.711
 5045TIP3   OH215079   5.418   6.592   4.373
 5045TIP3    H115080   5.331   6.590   4.332
 5045TIP3    H215081   5.412   6.659   4.441
 5046TIP3   OH215082   2.570   0.697   0.550
 5046TIP3    H115083   2.475   0.689   0.558
 5046TIP3    H215084   2.603   0.687   0.639
 5047TIP3   OH215085   7.124   0.964   6.620
 5047TIP3    H115086   7.202   0.955   6.565
 5047TIP3    H215087   7.154   1.011   6.698
 5048TIP3   OH215088   1.176   4.044   3.747
 5048TIP3    H115089   1.190   4.052   3.653
 5048TIP3    H215090   1.141   4.129   3.773
 5049TIP3   OH215091   5.605   2.748   4.705
 5049TIP3    H115092   5.693   2.780   4.722
 5049TIP3    H215093   5.588   2.772   4.613
 5050TIP3   OH215094   2.887   4.730   5.296
 5050TIP3    H115095   2.814   4.685   5.252
 5050TIP3    H215096   2.889   4.817   5.257
 5051TIP3   OH215097   5.233   4.918   2.746
 5051TIP3    H115098   5.235   5.006   2.709
 5051TIP3    H215099   5.221   4.861   2.670
 5052TIP3   OH215100   7.613   4.359   6.262
 5052TIP3    H115101   7.535   4.312   6.231
 5052TIP3    H215102   7.634   4.318   6.345
 5053TIP3   OH215103   2.174   3.684   6.399
 5053TIP3    H115104   2.097   3.673   6.343
 5053TIP3    H215105   2.204   3.595   6.417
 5054TIP3   OH215106   3.020   6.314   0.784
 5054TIP3    H115107   2.940   6.363   0.803
 5054TIP3    H215108   2.989   6.228   0.755
 5055TIP3   OH215109   6.455   3.884   2.616
 5055TIP3    H115110   6.538   3.882   2.567
 5055TIP3    H215111   6.388   3.875   2.549
 5056TIP3   OH215112   7.394   1.465   3.151
 5056TIP3    H115113   7.482   1.480   3.185
 5056TIP3    H215114   7.404   1.395   3.086
 5057TIP3   OH215115   4.182   4.591   0.409
 5057TIP3    H115116   4.204   4.670   0.361
 5057TIP3    H215117   4.117   4.547   0.353
 5058TIP3   OH215118   5.992   1.936   4.331
 5058TIP3    H115119   5.953   1.919   4.417
 5058TIP3    H215120   6.063   1.997   4.348
 5059TIP3   OH215121   1.163   6.707   6.623
 5059TIP3    H115122   1.230   6.641   6.603
 5059TIP3    H215123   1.159   6.707   6.719
 5060TIP3   OH215124   6.381   1.065   4.274
 5060TIP3    H115125   6.369   1.133   4.341
 5060TIP3    H215126   6.377   0.982   4.323
 5061TIP3   OH215127   4.503   4.830   6.507
 5061TIP3    H115128   4.518   4.798   6.418
 5061TIP3    H215129   4.589   4.859   6.537
 5062TIP3   OH215130   4.759   6.255   5.175
 5062TIP3    H115131   4.821   6.199   5.220
 5062TIP3    H215132   4.683   6.199   5.157
 5063TIP3   OH215133   6.074   6.419   2.086
 5063TIP3    H115134   6.065   6.343   2.144
 5063TIP3    H215135   6.157   6.460   2.113
 5064TIP3   OH215136   1.632   1.576   5.105
 5064TIP3    H115137   1.591   1.562   5.020
 5064TIP3    H215138   1.565   1.554   5.169
 5065TIP3   OH215139   1.346   3.137   6.541
 5065TIP3    H115140   1.310   3.048   6.538
 5065TIP3    H215141   1.337   3.163   6.633
 5066TIP3   OH215142   7.359   4.996   3.213
 5066TIP3    H115143   7.388   5.024   3.300
 5066TIP3    H215144   7.275   4.953   3.229
 5067TIP3   OH215145   2.817   2.565   5.966
 5067TIP3    H115146   2.776   2.530   6.045
 5067TIP3    H215147   2.799   2.499   5.898
 5068TIP3   OH215148   8.258   0.093   4.332
 5068TIP3    H115149   8.342   0.128   4.364
 5068TIP3    H215150   8.205   0.171   4.314
 5069TIP3   OH215151   7.810   0.339   5.751
 5069TIP3    H115152   7.805   0.424   5.708
 5069TIP3    H215153   7.839   0.279   5.683
 5070TIP3   OH215154   7.430   6.142   2.856
 5070TIP3    H115155   7.498   6.208   2.874
 5070TIP3    H215156   7.474   6.058   2.868
 5071TIP3   OH215157   8.157   2.317   5.558
 5071TIP3    H115158   8.168   2.391   5.498
 5071TIP3    H215159   8.162   2.356   5.645
 5072TIP3   OH215160   6.377   4.546   0.471
 5072TIP3    H115161   6.336   4.499   0.544
 5072TIP3    H215162   6.459   4.579   0.508
 5073TIP3   OH215163   2.635   3.128   0.482
 5073TIP3    H115164   2.567   3.178   0.526
 5073TIP3    H215165   2.713   3.139   0.538
 5074TIP3   OH215166   2.243   1.989   3.808
 5074TIP3    H115167   2.197   2.012   3.727
 5074TIP3    H215168   2.181   1.936   3.857
 5075TIP3   OH215169   3.185   4.643   4.391
 5075TIP3    H115170   3.238   4.567   4.369
 5075TIP3    H215171   3.183   4.695   4.311
 5076TIP3   OH215172   2.626   0.546   6.648
 5076TIP3    H115173   2.705   0.556   6.701
 5076TIP3    H215174   2.658   0.537   6.558
 5077TIP3   OH215175   2.871   0.748   0.450
 5077TIP3    H115176   2.784   0.733   0.487
 5077TIP3    H215177   2.891   0.667   0.403
 5078TIP3   OH215178   2.951   0.897   4.106
 5078TIP3    H115179   3.022   0.938   4.057
 5078TIP3    H215180   2.926   0.962   4.172
 5079TIP3   OH215181   2.442   0.069   2.090
 5079TIP3    H115182   2.507   0.005   2.118
 5079TIP3    H215183   2.494   0.143   2.059
 5080TIP3   OH215184   1.439   5.328   5.613
 5080TIP3    H115185   1.465   5.314   5.522
 5080TIP3    H215186   1.483   5.409   5.638
 5081TIP3   OH215187   1.020   0.233   5.912
 5081TIP3    H115188   1.003   0.144   5.879
 5081TIP3    H215189   1.031   0.222   6.007
 5082TIP3   OH215190   3.660   6.976   6.694
 5082TIP3    H115191   3.705   6.893   6.677
 5082TIP3    H215192   3.616   6.997   6.611
 5083TIP3   OH215193   5.071   5.965   4.946
 5083TIP3    H115194   5.086   5.923   4.861
 5083TIP3    H215195   5.022   5.900   4.997
 5084TIP3   OH215196   5.444   4.069   3.545
 5084TIP3    H115197   5.515   4.012   3.574
 5084TIP3    H215198   5.459   4.152   3.590
 5085TIP3   OH215199   0.943   7.401   0.958
 5085TIP3    H115200   0.868   7.429   1.011
 5085TIP3    H215201   0.914   7.320   0.917
 5086TIP3   OH215202   3.393   3.112   0.128
 5086TIP3    H115203   3.400   3.074   0.215
 5086TIP3    H215204   3.328   3.182   0.137
 5087TIP3   OH215205   7.912   5.799   6.608
 5087TIP3    H115206   7.861   5.822   6.530
 5087TIP3    H215207   8.001   5.788   6.576
 5088TIP3   OH215208   4.401   1.320   2.793
 5088TIP3    H115209   4.329   1.372   2.827
 5088TIP3    H215210   4.361   1.238   2.764
 5089TIP3   OH215211   4.326   6.716   1.487
 5089TIP3    H115212   4.251   6.775   1.500
 5089TIP3    H215213   4.385   6.737   1.560
 5090TIP3   OH215214   2.315   0.315   0.397
 5090TIP3    H115215   2.391   0.346   0.447
 5090TIP3    H215216   2.299   0.227   0.432
 5091TIP3   OH215217   5.412   0.540   0.981
 5091TIP3    H115218   5.346   0.474   1.004
 5091TIP3    H215219   5.480   0.491   0.936
 5092TIP3   OH215220   4.655   1.803   0.026
 5092TIP3    H115221   4.599   1.878   0.047
 5092TIP3    H215222   4.677   1.765   0.112
 5093TIP3   OH215223   0.046   4.334   0.442
 5093TIP3    H115224  -0.012   4.258   0.443
 5093TIP3    H215225   0.074   4.341   0.351
 5094TIP3   OH215226   0.986   2.811   0.682
 5094TIP3    H115227   0.961   2.902   0.697
 5094TIP3    H215228   1.074   2.803   0.719
 5095TIP3   OH215229   4.488   1.472   0.243
 5095TIP3    H115230   4.531   1.555   0.264
 5095TIP3    H215231   4.483   1.471   0.148
 5096TIP3   OH215232   0.171   7.486   2.620
 5096TIP3    H115233   0.238   7.550   2.644
 5096TIP3    H215234   0.213   7.433   2.552
 5097TIP3   OH215235   3.858   6.803   6.536
 5097TIP3    H115236   3.788   6.773   6.479
 5097TIP3    H215237   3.855   6.744   6.611
 5098TIP3   OH215238   4.687   7.072   6.182
 5098TIP3    H115239   4.646   7.141   6.130
 5098TIP3    H215240   4.779   7.071   6.153
 5099TIP3   OH215241   0.205   2.670   3.457
 5099TIP3    H115242   0.298   2.670   3.433
 5099TIP3    H215243   0.205   2.689   3.551
 5100TIP3   OH215244   3.361   7.269   6.586
 5100TIP3    H115245   3.397   7.255   6.673
 5100TIP3    H215246   3.350   7.181   6.550
 5101TIP3   OH215247   2.938   5.670   3.695
 5101TIP3    H115248   3.003   5.631   3.636
 5101TIP3    H215249   2.952   5.764   3.688
 5102TIP3   OH215250   3.027   3.670   4.001
 5102TIP3    H115251   3.034   3.616   4.079
 5102TIP3    H215252   2.974   3.745   4.028
 5103TIP3   OH215253   5.746   2.764   5.385
 5103TIP3    H115254   5.702   2.846   5.361
 5103TIP3    H215255   5.698   2.733   5.462
 5104TIP3   OH215256   5.659   6.683   5.239
 5104TIP3    H115257   5.594   6.726   5.184
 5104TIP3    H215258   5.613   6.665   5.321
 5105TIP3   OH215259   4.391   5.928   0.068
 5105TIP3    H115260   4.474   5.883   0.081
 5105TIP3    H215261   4.391   5.999   0.132
 5106TIP3   OH215262   2.950   5.250   1.831
 5106TIP3    H115263   2.911   5.165   1.855
 5106TIP3    H215264   3.041   5.229   1.809
 5107TIP3   OH215265   0.421   3.811   1.590
 5107TIP3    H115266   0.337   3.803   1.545
 5107TIP3    H215267   0.481   3.760   1.535
 5108TIP3   OH215268   2.077   5.992   0.822
 5108TIP3    H115269   2.101   6.059   0.887
 5108TIP3    H215270   2.160   5.969   0.781
 5109TIP3   OH215271   3.924   3.618   4.952
 5109TIP3    H115272   3.899   3.685   5.015
 5109TIP3    H215273   3.858   3.549   4.962
 5110TIP3   OH215274   6.805   2.989   2.942
 5110TIP3    H115275   6.876   2.997   2.878
 5110TIP3    H215276   6.840   2.931   3.009
 5111TIP3   OH215277   1.413   7.183   2.809
 5111TIP3    H115278   1.494   7.210   2.766
 5111TIP3    H215279   1.434   7.186   2.903
 5112TIP3   OH215280   7.651   0.673   6.532
 5112TIP3    H115281   7.570   0.664   6.582
 5112TIP3    H215282   7.721   0.658   6.595
 5113TIP3   OH215283   7.723   2.998   2.915
 5113TIP3    H115284   7.669   2.928   2.952
 5113TIP3    H215285   7.705   2.995   2.821
 5114TIP3   OH215286   1.287   0.657   1.356
 5114TIP3    H115287   1.318   0.646   1.446
 5114TIP3    H215288   1.203   0.702   1.365
 5115TIP3   OH215289   7.849   1.607   3.345
 5115TIP3    H115290   7.922   1.546   3.351
 5115TIP3    H215291   7.885   1.683   3.298
 5116TIP3   OH215292   3.097   1.488   3.959
 5116TIP3    H115293   3.072   1.527   3.876
 5116TIP3    H215294   3.178   1.441   3.939
 5117TIP3   OH215295   0.833   1.149   1.412
 5117TIP3    H115296   0.795   1.187   1.333
 5117TIP3    H215297   0.903   1.210   1.436
 5118TIP3   OH215298   7.441   4.395   1.575
 5118TIP3    H115299   7.424   4.338   1.500
 5118TIP3    H215300   7.472   4.336   1.644
 5119TIP3   OH215301   1.637   4.195   4.941
 5119TIP3    H115302   1.711   4.146   4.905
 5119TIP3    H215303   1.568   4.188   4.874
 5120TIP3   OH215304   0.979   0.513   5.950
 5120TIP3    H115305   0.966   0.419   5.950
 5120TIP3    H215306   1.047   0.528   6.015
 5121TIP3   OH215307   3.534   7.454   2.445
 5121TIP3    H115308   3.458   7.496   2.405
 5121TIP3    H215309   3.529   7.477   2.537
 5122TIP3   OH215310   5.306   6.140   3.318
 5122TIP3    H115311   5.324   6.056   3.359
 5122TIP3    H215312   5.211   6.148   3.320
 5123TIP3   OH215313   5.707   0.450   4.527
 5123TIP3    H115314   5.789   0.456   4.575
 5123TIP3    H215315   5.639   0.470   4.591
 5124TIP3   OH215316   6.303   1.117   1.705
 5124TIP3    H115317   6.208   1.126   1.712
 5124TIP3    H215318   6.336   1.206   1.720
 5125TIP3   OH215319   4.419   2.650   0.499
 5125TIP3    H115320   4.405   2.644   0.594
 5125TIP3    H215321   4.339   2.691   0.466
 5126TIP3   OH215322   4.387   0.478   2.496
 5126TIP3    H115323   4.422   0.557   2.538
 5126TIP3    H215324   4.419   0.406   2.550
 5127TIP3   OH215325   3.649   0.530   0.202
 5127TIP3    H115326   3.603   0.554   0.282
 5127TIP3    H215327   3.696   0.450   0.225
 5128TIP3   OH215328   7.084   7.545   5.187
 5128TIP3    H115329   7.081   7.488   5.111
 5128TIP3    H215330   7.140   7.500   5.249
 5129TIP3   OH215331   4.508   1.880   3.741
 5129TIP3    H115332   4.540   1.960   3.700
 5129TIP3    H215333   4.586   1.826   3.753
 5130TIP3   OH215334   0.995   5.712   5.208
 5130TIP3    H115335   0.942   5.792   5.204
 5130TIP3    H215336   1.035   5.705   5.122
 5131TIP3   OH215337   4.561   0.823   3.613
 5131TIP3    H115338   4.591   0.910   3.586
 5131TIP3    H215339   4.466   0.832   3.622
 5132TIP3   OH215340   0.126   5.534   5.569
 5132TIP3    H115341   0.218   5.552   5.547
 5132TIP3    H215342   0.099   5.612   5.618
 5133TIP3   OH215343   6.776   5.084   5.516
 5133TIP3    H115344   6.862   5.044   5.501
 5133TIP3    H215345   6.714   5.011   5.509
 5134TIP3   OH215346   3.379   6.496   1.892
 5134TIP3    H115347   3.326   6.518   1.969
 5134TIP3    H215348   3.444   6.434   1.926
 5135TIP3   OH215349   4.955   3.462   4.513
 5135TIP3    H115350   4.935   3.369   4.521
 5135TIP3    H215351   5.049   3.469   4.530
 5136TIP3   OH215352   6.941   2.079   0.287
 5136TIP3    H115353   7.030   2.045   0.294
 5136TIP3    H215354   6.888   2.018   0.339
 5137TIP3   OH215355   5.825   5.780   3.211
 5137TIP3    H115356   5.899   5.732   3.246
 5137TIP3    H215357   5.752   5.718   3.217
 5138TIP3   OH215358   5.508   2.944   2.883
 5138TIP3    H115359   5.481   2.918   2.971
 5138TIP3    H215360   5.555   2.868   2.849
 5139TIP3   OH215361   6.457   2.265   3.914
 5139TIP3    H115362   6.480   2.319   3.989
 5139TIP3    H215363   6.504   2.183   3.928
 5140TIP3   OH215364   3.213   5.505   5.446
 5140TIP3    H115365   3.243   5.578   5.392
 5140TIP3    H215366   3.265   5.510   5.526
 5141TIP3   OH215367   5.396   3.333   5.403
 5141TIP3    H115368   5.319   3.389   5.398
 5141TIP3    H215369   5.465   3.390   5.437
 5142TIP3   OH215370   7.445   6.528   6.012
 5142TIP3    H115371   7.524   6.581   6.023
 5142TIP3    H215372   7.389   6.553   6.086
 5143TIP3   OH215373   0.820   5.548   5.039
 5143TIP3    H115374   0.848   5.463   5.075
 5143TIP3    H215375   0.899   5.583   4.998
 5144TIP3   OH215376   2.216   6.530   1.998
 5144TIP3    H115377   2.210   6.584   1.919
 5144TIP3    H215378   2.273   6.457   1.973
 5145TIP3   OH215379   0.827   3.533   0.487
 5145TIP3    H115380   0.834   3.440   0.509
 5145TIP3    H215381   0.840   3.537   0.392
 5146TIP3   OH215382   8.079   2.590   6.309
 5146TIP3    H115383   8.131   2.668   6.289
 5146TIP3    H215384   8.123   2.519   6.262
 5147TIP3   OH215385   1.445   2.263   4.203
 5147TIP3    H115386   1.362   2.237   4.163
 5147TIP3    H215387   1.452   2.208   4.281
 5148TIP3   OH215388   0.684   2.682   1.108
 5148TIP3    H115389   0.644   2.768   1.097
 5148TIP3    H215390   0.778   2.697   1.098
 5149TIP3   OH215391   2.545   7.349   0.721
 5149TIP3    H115392   2.573   7.258   0.732
 5149TIP3    H215393   2.563   7.390   0.806
 5150TIP3   OH215394   1.820   0.013   2.162
 5150TIP3    H115395   1.893   0.013   2.101
 5150TIP3    H215396   1.824  -0.073   2.204
 5151TIP3   OH215397   8.179   3.084   2.828
 5151TIP3    H115398   8.213   3.141   2.897
 5151TIP3    H215399   8.237   3.008   2.830
 5152TIP3   OH215400   5.395   2.747   3.615
 5152TIP3    H115401   5.459   2.775   3.550
 5152TIP3    H215402   5.429   2.663   3.647
 5153TIP3   OH215403   1.406   6.040   3.597
 5153TIP3    H115404   1.334   6.097   3.570
 5153TIP3    H215405   1.364   5.964   3.636
 5154TIP3   OH215406   3.157   3.304   3.409
 5154TIP3    H115407   3.071   3.286   3.372
 5154TIP3    H215408   3.148   3.389   3.451
 5155TIP3   OH215409   5.261   1.278   3.065
 5155TIP3    H115410   5.258   1.336   3.141
 5155TIP3    H215411   5.289   1.335   2.993
 5156TIP3   OH215412   4.333   5.314   2.639
 5156TIP3    H115413   4.285   5.396   2.628
 5156TIP3    H215414   4.418   5.330   2.599
 5157TIP3   OH215415   2.011   0.423   5.895
 5157TIP3    H115416   1.918   0.445   5.896
 5157TIP3    H215417   2.018   0.354   5.829
 5158TIP3   OH215418   3.016   7.629   5.963
 5158TIP3    H115419   2.926   7.644   5.994
 5158TIP3    H215420   3.028   7.695   5.894
 5159TIP3   OH215421   1.727   4.193   1.194
 5159TIP3    H115422   1.810   4.153   1.219
 5159TIP3    H215423   1.735   4.284   1.224
 5160TIP3   OH215424   0.804   1.533   3.664
 5160TIP3    H115425   0.833   1.529   3.573
 5160TIP3    H215426   0.881   1.566   3.712
 5161TIP3   OH215427   1.133   5.814   1.447
 5161TIP3    H115428   1.218   5.841   1.481
 5161TIP3    H215429   1.138   5.832   1.353
 5162TIP3   OH215430   4.188   7.620   6.617
 5162TIP3    H115431   4.110   7.675   6.628
 5162TIP3    H215432   4.250   7.654   6.682
 5163TIP3   OH215433   2.186   5.130   0.555
 5163TIP3    H115434   2.193   5.192   0.628
 5163TIP3    H215435   2.165   5.184   0.479
 5164TIP3   OH215436   6.032   0.506   5.955
 5164TIP3    H115437   6.088   0.543   6.024
 5164TIP3    H215438   6.092   0.488   5.883
 5165TIP3   OH215439   1.247   1.811   6.011
 5165TIP3    H115440   1.287   1.775   6.090
 5165TIP3    H215441   1.320   1.824   5.951
 5166TIP3   OH215442   6.429   1.536   5.520
 5166TIP3    H115443   6.390   1.605   5.467
 5166TIP3    H215444   6.446   1.464   5.459
 5167TIP3   OH215445   8.193   1.257   4.389
 5167TIP3    H115446   8.151   1.297   4.313
 5167TIP3    H215447   8.182   1.163   4.376
 5168TIP3   OH215448   0.652   4.469   6.339
 5168TIP3    H115449   0.708   4.442   6.267
 5168TIP3    H215450   0.671   4.562   6.352
 5169TIP3   OH215451   0.140   4.623   2.477
 5169TIP3    H115452   0.100   4.595   2.559
 5169TIP3    H215453   0.214   4.565   2.464
 5170TIP3   OH215454   2.506   1.883   4.514
 5170TIP3    H115455   2.442   1.953   4.501
 5170TIP3    H215456   2.591   1.927   4.515
 5171TIP3   OH215457   1.575   5.898   6.318
 5171TIP3    H115458   1.655   5.924   6.272
 5171TIP3    H215459   1.512   5.967   6.299
 5172TIP3   OH215460   4.074   5.356   3.515
 5172TIP3    H115461   4.081   5.439   3.564
 5172TIP3    H215462   4.030   5.296   3.576
 5173TIP3   OH215463   4.207   4.225   5.201
 5173TIP3    H115464   4.267   4.150   5.206
 5173TIP3    H215465   4.185   4.231   5.108
 5174TIP3   OH215466   1.571   2.586   1.065
 5174TIP3    H115467   1.545   2.496   1.088
 5174TIP3    H215468   1.615   2.577   0.981
 5175TIP3   OH215469   8.134   7.600   3.641
 5175TIP3    H115470   8.209   7.560   3.685
 5175TIP3    H215471   8.080   7.526   3.613
 5176TIP3   OH215472   4.442   4.202   1.199
 5176TIP3    H115473   4.383   4.270   1.231
 5176TIP3    H215474   4.383   4.135   1.162
 5177TIP3   OH215475   1.111   0.350   5.654
 5177TIP3    H115476   1.100   0.328   5.746
 5177TIP3    H215477   1.105   0.446   5.652
 5178TIP3   OH215478   0.759   2.750   5.579
 5178TIP3    H115479   0.753   2.845   5.585
 5178TIP3    H215480   0.809   2.724   5.656
 5179TIP3   OH215481   1.158   2.410   2.896
 5179TIP3    H115482   1.118   2.399   2.982
 5179TIP3    H215483   1.097   2.464   2.847
 5180TIP3   OH215484   7.405   5.813   2.551
 5180TIP3    H115485   7.323   5.772   2.576
 5180TIP3    H215486   7.388   5.907   2.559
 5181TIP3   OH215487   8.295   3.218   2.593
 5181TIP3    H115488   8.269   3.189   2.681
 5181TIP3    H215489   8.289   3.313   2.597
 5182TIP3   OH215490   4.509   4.967   0.106
 5182TIP3    H115491   4.578   5.015   0.060
 5182TIP3    H215492   4.463   4.919   0.038
 5183TIP3   OH215493   6.981   7.231   0.170
 5183TIP3    H115494   6.923   7.218   0.245
 5183TIP3    H215495   7.024   7.146   0.157
 5184TIP3   OH215496   3.896   4.654   6.736
 5184TIP3    H115497   3.946   4.732   6.712
 5184TIP3    H215498   3.817   4.658   6.681
 5185TIP3   OH215499   3.291   1.536   1.766
 5185TIP3    H115500   3.255   1.456   1.804
 5185TIP3    H215501   3.222   1.601   1.777
 5186TIP3   OH215502   4.126   3.863   1.085
 5186TIP3    H115503   4.106   3.956   1.090
 5186TIP3    H215504   4.219   3.857   1.105
 5187TIP3   OH215505   2.703   7.529   1.716
 5187TIP3    H115506   2.783   7.515   1.666
 5187TIP3    H215507   2.714   7.476   1.794
 5188TIP3   OH215508   7.754   5.408   5.126
 5188TIP3    H115509   7.757   5.502   5.111
 5188TIP3    H215510   7.795   5.394   5.211
 5189TIP3   OH215511   5.974   1.240   0.951
 5189TIP3    H115512   6.052   1.296   0.953
 5189TIP3    H215513   5.923   1.274   0.877
 5190TIP3   OH215514   0.159   2.363   1.746
 5190TIP3    H115515   0.107   2.350   1.666
 5190TIP3    H215516   0.118   2.438   1.789
 5191TIP3   OH215517   3.243   6.647   1.375
 5191TIP3    H115518   3.257   6.689   1.291
 5191TIP3    H215519   3.150   6.661   1.393
 5192TIP3   OH215520   6.011   0.908   3.355
 5192TIP3    H115521   6.052   0.837   3.404
 5192TIP3    H215522   6.068   0.984   3.370
 5193TIP3   OH215523   4.329   3.516   4.773
 5193TIP3    H115524   4.348   3.513   4.679
 5193TIP3    H215525   4.314   3.424   4.797
 5194TIP3   OH215526   1.346   3.675   6.668
 5194TIP3    H115527   1.347   3.586   6.632
 5194TIP3    H215528   1.419   3.719   6.624
 5195TIP3   OH215529   6.044   4.187   1.907
 5195TIP3    H115530   6.138   4.172   1.915
 5195TIP3    H215531   6.035   4.253   1.838
 5196TIP3   OH215532   3.788   3.007   2.381
 5196TIP3    H115533   3.861   2.946   2.390
 5196TIP3    H215534   3.818   3.073   2.319
 5197TIP3   OH215535   0.372   2.205   5.354
 5197TIP3    H115536   0.283   2.213   5.387
 5197TIP3    H215537   0.426   2.251   5.419
 5198TIP3   OH215538   2.207   1.427   4.569
 5198TIP3    H115539   2.215   1.334   4.547
 5198TIP3    H215540   2.132   1.432   4.628
 5199TIP3   OH215541   3.785   5.034   5.756
 5199TIP3    H115542   3.721   5.084   5.807
 5199TIP3    H215543   3.751   4.945   5.757
 5200TIP3   OH215544   1.103   2.395   0.641
 5200TIP3    H115545   1.084   2.401   0.547
 5200TIP3    H215546   1.023   2.427   0.683
 5201TIP3   OH215547   6.186   6.998   4.271
 5201TIP3    H115548   6.240   6.930   4.231
 5201TIP3    H215549   6.100   6.986   4.231
 5202TIP3   OH215550   5.950   1.271   2.339
 5202TIP3    H115551   5.995   1.319   2.408
 5202TIP3    H215552   5.894   1.208   2.386
 5203TIP3   OH215553   1.297   0.538   3.813
 5203TIP3    H115554   1.304   0.450   3.851
 5203TIP3    H215555   1.386   0.560   3.786
 5204TIP3   OH215556   1.574   2.468   3.713
 5204TIP3    H115557   1.549   2.536   3.776
 5204TIP3    H215558   1.601   2.394   3.767
 5205TIP3   OH215559   4.717   1.766   2.720
 5205TIP3    H115560   4.747   1.719   2.642
 5205TIP3    H215561   4.765   1.849   2.718
 5206TIP3   OH215562   7.457   6.087   3.226
 5206TIP3    H115563   7.471   6.054   3.314
 5206TIP3    H215564   7.380   6.144   3.234
 5207TIP3   OH215565   0.423   1.457   5.967
 5207TIP3    H115566   0.508   1.462   6.012
 5207TIP3    H215567   0.383   1.543   5.983
 5208TIP3   OH215568   0.595   1.827   1.326
 5208TIP3    H115569   0.500   1.816   1.325
 5208TIP3    H215570   0.620   1.815   1.417
 5209TIP3   OH215571   5.364   6.815   2.635
 5209TIP3    H115572   5.430   6.885   2.636
 5209TIP3    H215573   5.376   6.773   2.549
 5210TIP3   OH215574   6.173   5.732   5.871
 5210TIP3    H115575   6.266   5.712   5.880
 5210TIP3    H215576   6.168   5.828   5.872
 5211TIP3   OH215577   5.761   6.704   3.529
 5211TIP3    H115578   5.706   6.669   3.599
 5211TIP3    H215579   5.764   6.798   3.546
 5212TIP3   OH215580   5.328   7.515   5.431
 5212TIP3    H115581   5.402   7.550   5.381
 5212TIP3    H215582   5.368   7.459   5.498
 5213TIP3   OH215583   4.432   4.297   1.622
 5213TIP3    H115584   4.373   4.285   1.548
 5213TIP3    H215585   4.500   4.231   1.609
 5214TIP3   OH215586   7.333   1.279   5.477
 5214TIP3    H115587   7.399   1.321   5.531
 5214TIP3    H215588   7.266   1.346   5.465
 5215TIP3   OH215589   4.724   3.983   1.012
 5215TIP3    H115590   4.730   3.889   1.033
 5215TIP3    H215591   4.676   3.985   0.929
 5216TIP3   OH215592   6.821   4.672   0.409
 5216TIP3    H115593   6.895   4.722   0.373
 5216TIP3    H215594   6.746   4.699   0.356
 5217TIP3   OH215595   0.278   5.993   0.700
 5217TIP3    H115596   0.303   6.018   0.611
 5217TIP3    H215597   0.271   5.898   0.697
 5218TIP3   OH215598   7.667   4.685   3.962
 5218TIP3    H115599   7.748   4.731   3.985
 5218TIP3    H215600   7.636   4.728   3.882
 5219TIP3   OH215601   7.008   0.833   2.140
 5219TIP3    H115602   6.996   0.866   2.051
 5219TIP3    H215603   6.965   0.898   2.196
 5220TIP3   OH215604   4.323   3.487   0.594
 5220TIP3    H115605   4.398   3.494   0.653
 5220TIP3    H215606   4.278   3.407   0.620
 5221TIP3   OH215607   7.387   1.706   0.814
 5221TIP3    H115608   7.439   1.766   0.867
 5221TIP3    H215609   7.310   1.757   0.788
 5222TIP3   OH215610   6.818   1.127   3.050
 5222TIP3    H115611   6.855   1.161   2.968
 5222TIP3    H215612   6.883   1.065   3.082
 5223TIP3   OH215613   0.430   4.448   5.573
 5223TIP3    H115614   0.522   4.458   5.598
 5223TIP3    H215615   0.383   4.512   5.627
 5224TIP3   OH215616   0.693   6.469   2.482
 5224TIP3    H115617   0.642   6.389   2.482
 5224TIP3    H215618   0.650   6.526   2.546
 5225TIP3   OH215619   6.429   7.465   3.892
 5225TIP3    H115620   6.390   7.396   3.838
 5225TIP3    H215621   6.521   7.439   3.900
 5226TIP3   OH215622   1.757   1.205   1.951
 5226TIP3    H115623   1.675   1.196   1.902
 5226TIP3    H215624   1.748   1.145   2.024
 5227TIP3   OH215625   4.292   5.938   4.429
 5227TIP3    H115626   4.269   5.845   4.422
 5227TIP3    H215627   4.377   5.945   4.385
 5228TIP3   OH215628   2.170   5.358   0.926
 5228TIP3    H115629   2.116   5.355   0.848
 5228TIP3    H215630   2.201   5.449   0.931
 5229TIP3   OH215631   2.692   7.297   3.988
 5229TIP3    H115632   2.628   7.235   3.952
 5229TIP3    H215633   2.774   7.247   3.990
 5230TIP3   OH215634   2.786   6.317   2.222
 5230TIP3    H115635   2.841   6.322   2.300
 5230TIP3    H215636   2.847   6.322   2.149
 5231TIP3   OH215637   5.023   0.989   2.184
 5231TIP3    H115638   5.041   0.911   2.131
 5231TIP3    H215639   5.001   1.057   2.121
 5232TIP3   OH215640   2.615   7.743   4.531
 5232TIP3    H115641   2.697   7.784   4.556
 5232TIP3    H215642   2.621   7.733   4.436
 5233TIP3   OH215643   0.843   6.359   6.749
 5233TIP3    H115644   0.799   6.284   6.708
 5233TIP3    H215645   0.929   6.325   6.774
 5234TIP3   OH215646   2.249   3.019   6.219
 5234TIP3    H115647   2.279   3.067   6.142
 5234TIP3    H215648   2.329   2.999   6.268
 5235TIP3   OH215649   1.777   0.783   5.013
 5235TIP3    H115650   1.791   0.811   4.923
 5235TIP3    H215651   1.733   0.858   5.055
 5236TIP3   OH215652   5.800   4.849   0.622
 5236TIP3    H115653   5.742   4.773   0.613
 5236TIP3    H215654   5.767   4.895   0.699
 5237TIP3   OH215655   1.724   1.188   6.193
 5237TIP3    H115656   1.800   1.159   6.142
 5237TIP3    H215657   1.654   1.196   6.129
 5238TIP3   OH215658   3.536   2.115   5.043
 5238TIP3    H115659   3.494   2.197   5.017
 5238TIP3    H215660   3.499   2.094   5.128
 5239TIP3   OH215661   7.833   5.234   6.621
 5239TIP3    H115662   7.866   5.237   6.710
 5239TIP3    H215663   7.796   5.321   6.606
 5240TIP3   OH215664   3.165   7.638   3.591
 5240TIP3    H115665   3.137   7.693   3.664
 5240TIP3    H215666   3.114   7.558   3.600
 5241TIP3   OH215667   2.541   4.182   3.757
 5241TIP3    H115668   2.571   4.126   3.829
 5241TIP3    H215669   2.596   4.260   3.762
 5242TIP3   OH215670   1.321   3.438   6.507
 5242TIP3    H115671   1.290   3.348   6.520
 5242TIP3    H215672   1.411   3.428   6.479
 5243TIP3   OH215673   3.959   1.524   0.074
 5243TIP3    H115674   3.888   1.535   0.137
 5243TIP3    H215675   3.967   1.429   0.063
 5244TIP3   OH215676   7.879   2.179   2.947
 5244TIP3    H115677   7.786   2.162   2.936
 5244TIP3    H215678   7.900   2.242   2.877
 5245TIP3   OH215679   4.627   7.674   1.217
 5245TIP3    H115680   4.602   7.762   1.189
 5245TIP3    H215681   4.706   7.687   1.269
 5246TIP3   OH215682   2.519   2.980   3.039
 5246TIP3    H115683   2.432   2.983   2.999
 5246TIP3    H215684   2.564   2.910   2.991
 5247TIP3   OH215685   8.049   4.431   5.911
 5247TIP3    H115686   7.979   4.394   5.965
 5247TIP3    H215687   8.003   4.490   5.851
 5248TIP3   OH215688   1.903   1.000   4.578
 5248TIP3    H115689   1.897   1.071   4.514
 5248TIP3    H215690   1.945   0.928   4.531
 5249TIP3   OH215691   6.954   4.241   1.493
 5249TIP3    H115692   6.873   4.200   1.524
 5249TIP3    H215693   6.927   4.294   1.418
 5250TIP3   OH215694   2.978   0.420   5.705
 5250TIP3    H115695   2.883   0.423   5.717
 5250TIP3    H215696   2.989   0.381   5.618
 5251TIP3   OH215697   5.081   4.562   4.364
 5251TIP3    H115698   5.147   4.521   4.307
 5251TIP3    H215699   5.131   4.624   4.418
 5252TIP3   OH215700   7.035   5.809   2.374
 5252TIP3    H115701   6.944   5.792   2.349
 5252TIP3    H215702   7.087   5.763   2.309
 5253TIP3   OH215703   0.486   1.215   2.463
 5253TIP3    H115704   0.486   1.266   2.383
 5253TIP3    H215705   0.574   1.178   2.469
 5254TIP3   OH215706   3.483  -0.031   3.009
 5254TIP3    H115707   3.499   0.042   3.068
 5254TIP3    H215708   3.570  -0.058   2.979
 5255TIP3   OH215709   6.400   2.891   3.235
 5255TIP3    H115710   6.360   2.974   3.211
 5255TIP3    H215711   6.418   2.898   3.328
 5256TIP3   OH215712   2.773   3.516   0.735
 5256TIP3    H115713   2.827   3.550   0.664
 5256TIP3    H215714   2.685   3.507   0.698
 5257TIP3   OH215715   7.767   1.730   0.045
 5257TIP3    H115716   7.686   1.769   0.078
 5257TIP3    H215717   7.775   1.762  -0.045
 5258TIP3   OH215718   6.189   2.936   2.427
 5258TIP3    H115719   6.134   2.948   2.349
 5258TIP3    H215720   6.278   2.928   2.392
 5259TIP3   OH215721   7.763   3.067   1.321
 5259TIP3    H115722   7.725   3.064   1.233
 5259TIP3    H215723   7.724   3.144   1.361
 5260TIP3   OH215724   5.507   4.416   6.594
 5260TIP3    H115725   5.541   4.339   6.641
 5260TIP3    H215726   5.456   4.463   6.660
 5261TIP3   OH215727   4.334   6.196   1.214
 5261TIP3    H115728   4.271   6.134   1.249
 5261TIP3    H215729   4.290   6.280   1.217
 5262TIP3   OH215730   2.820   2.121   0.081
 5262TIP3    H115731   2.820   2.054   0.150
 5262TIP3    H215732   2.740   2.172   0.097
 5263TIP3   OH215733   1.998   5.696   0.186
 5263TIP3    H115734   1.959   5.716   0.101
 5263TIP3    H215735   1.956   5.614   0.213
 5264TIP3   OH215736   3.126   0.538   5.921
 5264TIP3    H115737   3.130   0.627   5.885
 5264TIP3    H215738   3.064   0.492   5.865
 5265TIP3   OH215739   4.939   6.888   5.132
 5265TIP3    H115740   4.907   6.826   5.197
 5265TIP3    H215741   4.919   6.848   5.048
 5266TIP3   OH215742   5.208   2.810   6.192
 5266TIP3    H115743   5.157   2.887   6.217
 5266TIP3    H215744   5.262   2.791   6.269
 5267TIP3   OH215745   3.438   7.446   5.895
 5267TIP3    H115746   3.513   7.413   5.945
 5267TIP3    H215747   3.366   7.447   5.958
 5268TIP3   OH215748   0.300   5.526   5.079
 5268TIP3    H115749   0.368   5.594   5.085
 5268TIP3    H215750   0.274   5.527   4.987
 5269TIP3   OH215751   6.373   7.817   0.678
 5269TIP3    H115752   6.357   7.873   0.603
 5269TIP3    H215753   6.317   7.741   0.664
 5270TIP3   OH215754   3.083   4.989   6.604
 5270TIP3    H115755   3.127   5.049   6.543
 5270TIP3    H215756   3.155   4.948   6.653
 5271TIP3   OH215757   6.492   0.863   4.032
 5271TIP3    H115758   6.537   0.863   4.116
 5271TIP3    H215759   6.543   0.922   3.977
 5272TIP3   OH215760   7.843   3.845   2.977
 5272TIP3    H115761   7.830   3.938   2.997
 5272TIP3    H215762   7.754   3.810   2.970
 5273TIP3   OH215763   3.068   0.077   0.265
 5273TIP3    H115764   3.111   0.129   0.197
 5273TIP3    H215765   2.975   0.101   0.257
 5274TIP3   OH215766   5.694   4.744   2.205
 5274TIP3    H115767   5.701   4.651   2.187
 5274TIP3    H215768   5.745   4.756   2.286
 5275TIP3   OH215769   7.724   5.744   4.629
 5275TIP3    H115770   7.759   5.728   4.542
 5275TIP3    H215771   7.801   5.746   4.686
 5276TIP3   OH215772   2.361   6.256   0.743
 5276TIP3    H115773   2.309   6.282   0.819
 5276TIP3    H215774   2.446   6.297   0.757
 5277TIP3   OH215775   4.800   1.268   6.207
 5277TIP3    H115776   4.883   1.260   6.253
 5277TIP3    H215777   4.798   1.193   6.148
 5278TIP3   OH215778   6.098   0.532   2.641
 5278TIP3    H115779   6.031   0.589   2.605
 5278TIP3    H215780   6.089   0.541   2.736
 5279TIP3   OH215781   0.904   6.952   5.136
 5279TIP3    H115782   0.890   6.977   5.227
 5279TIP3    H215783   0.992   6.915   5.134
 5280TIP3   OH215784   6.633   7.048   1.251
 5280TIP3    H115785   6.645   7.136   1.286
 5280TIP3    H215786   6.639   7.058   1.156
 5281TIP3   OH215787   6.051   6.261   0.811
 5281TIP3    H115788   6.093   6.179   0.838
 5281TIP3    H215789   6.109   6.297   0.744
 5282TIP3   OH215790   7.673   4.702   6.599
 5282TIP3    H115791   7.726   4.781   6.598
 5282TIP3    H215792   7.639   4.695   6.510
 5283TIP3   OH215793   1.862   1.660   2.350
 5283TIP3    H115794   1.803   1.700   2.414
 5283TIP3    H215795   1.944   1.708   2.360
 5284TIP3   OH215796   7.785   4.430   4.009
 5284TIP3    H115797   7.743   4.391   4.086
 5284TIP3    H215798   7.739   4.513   3.996
 5285TIP3   OH215799   6.416   7.241   0.441
 5285TIP3    H115800   6.454   7.327   0.460
 5285TIP3    H215801   6.365   7.253   0.361
 5286TIP3   OH215802   1.503   0.396   5.849
 5286TIP3    H115803   1.504   0.442   5.765
 5286TIP3    H215804   1.440   0.325   5.837
 5287TIP3   OH215805   3.923   7.015   1.838
 5287TIP3    H115806   3.978   6.937   1.845
 5287TIP3    H215807   3.838   6.987   1.872
 5288TIP3   OH215808   2.617   7.413   4.889
 5288TIP3    H115809   2.653   7.498   4.865
 5288TIP3    H215810   2.664   7.350   4.834
 5289TIP3   OH215811   7.776   0.452   1.554
 5289TIP3    H115812   7.817   0.531   1.588
 5289TIP3    H215813   7.719   0.483   1.484
 5290TIP3   OH215814   3.066   2.472   3.288
 5290TIP3    H115815   3.047   2.517   3.205
 5290TIP3    H215816   3.158   2.445   3.280
 5291TIP3   OH215817   1.043   3.653   5.018
 5291TIP3    H115818   1.110   3.720   5.006
 5291TIP3    H215819   1.055   3.594   4.943
 5292TIP3   OH215820   0.359   1.865   0.245
 5292TIP3    H115821   0.267   1.848   0.228
 5292TIP3    H215822   0.405   1.817   0.175
 5293TIP3   OH215823   3.553   2.025   0.182
 5293TIP3    H115824   3.593   2.070   0.256
 5293TIP3    H215825   3.548   2.092   0.114
 5294TIP3   OH215826   6.106   1.704   6.411
 5294TIP3    H115827   6.072   1.622   6.374
 5294TIP3    H215828   6.137   1.678   6.498
 5295TIP3   OH215829   2.506   7.114   5.436
 5295TIP3    H115830   2.569   7.163   5.488
 5295TIP3    H215831   2.425   7.116   5.488
 5296TIP3   OH215832   1.306   7.329   5.376
 5296TIP3    H115833   1.385   7.316   5.429
 5296TIP3    H215834   1.266   7.408   5.412
 5297TIP3   OH215835   4.818   6.418   4.950
 5297TIP3    H115836   4.770   6.364   5.013
 5297TIP3    H215837   4.893   6.363   4.925
 5298TIP3   OH215838   2.567   0.061   0.994
 5298TIP3    H115839   2.583   0.117   1.070
 5298TIP3    H215840   2.529  -0.019   1.031
 5299TIP3   OH215841   3.764   4.053   3.054
 5299TIP3    H115842   3.856   4.034   3.040
 5299TIP3    H215843   3.763   4.130   3.111
 5300TIP3   OH215844   2.468   2.461   0.635
 5300TIP3    H115845   2.538   2.521   0.663
 5300TIP3    H215846   2.402   2.468   0.704
 5301TIP3   OH215847   6.253   1.474   4.748
 5301TIP3    H115848   6.288   1.563   4.752
 5301TIP3    H215849   6.175   1.481   4.693
 5302TIP3   OH215850   4.778   2.644   5.910
 5302TIP3    H115851   4.829   2.724   5.903
 5302TIP3    H215852   4.839   2.579   5.946
 5303TIP3   OH215853   5.258   6.434   1.468
 5303TIP3    H115854   5.191   6.446   1.536
 5303TIP3    H215855   5.219   6.473   1.389
 5304TIP3   OH215856   1.949   3.758   1.203
 5304TIP3    H115857   2.003   3.794   1.274
 5304TIP3    H215858   1.891   3.696   1.247
 5305TIP3   OH215859   7.474   6.798   3.345
 5305TIP3    H115860   7.491   6.853   3.268
 5305TIP3    H215861   7.461   6.710   3.309
 5306TIP3   OH215862   4.928   5.897   2.584
 5306TIP3    H115863   5.019   5.870   2.594
 5306TIP3    H215864   4.894   5.903   2.673
 5307TIP3   OH215865   8.227   2.509   5.752
 5307TIP3    H115866   8.300   2.518   5.690
 5307TIP3    H215867   8.193   2.597   5.763
 5308TIP3   OH215868   5.064   5.483   0.192
 5308TIP3    H115869   5.017   5.558   0.229
 5308TIP3    H215870   5.072   5.421   0.264
 5309TIP3   OH215871   5.176   1.689   1.462
 5309TIP3    H115872   5.097   1.722   1.420
 5309TIP3    H215873   5.201   1.613   1.410
 5310TIP3   OH215874   1.595   5.985   5.375
 5310TIP3    H115875   1.616   5.948   5.289
 5310TIP3    H215876   1.640   5.927   5.437
 5311TIP3   OH215877   1.665   1.669   5.978
 5311TIP3    H115878   1.659   1.671   5.882
 5311TIP3    H215879   1.748   1.625   5.995
 5312TIP3   OH215880   0.606   7.085   5.268
 5312TIP3    H115881   0.669   7.148   5.301
 5312TIP3    H215882   0.592   7.023   5.340
 5313TIP3   OH215883   2.956   1.544   2.532
 5313TIP3    H115884   2.982   1.504   2.449
 5313TIP3    H215885   3.025   1.519   2.594
 5314TIP3   OH215886   3.746   0.495   4.209
 5314TIP3    H115887   3.777   0.456   4.291
 5314TIP3    H215888   3.666   0.448   4.188
 5315TIP3   OH215889   7.370   0.174   6.321
 5315TIP3    H115890   7.288   0.145   6.361
 5315TIP3    H215891   7.432   0.176   6.393
 5316TIP3   OH215892   6.062   6.787   6.608
 5316TIP3    H115893   6.139   6.801   6.663
 5316TIP3    H215894   6.053   6.692   6.602
 5317TIP3   OH215895   0.125   4.871   3.022
 5317TIP3    H115896   0.153   4.857   2.932
 5317TIP3    H215897   0.114   4.783   3.058
 5318TIP3   OH215898   5.621   6.100   1.432
 5318TIP3    H115899   5.634   6.193   1.452
 5318TIP3    H215900   5.704   6.072   1.395
 5319TIP3   OH215901   6.278   6.121   0.281
 5319TIP3    H115902   6.314   6.049   0.333
 5319TIP3    H215903   6.348   6.186   0.281
 5320TIP3   OH215904   5.643   3.780   2.507
 5320TIP3    H115905   5.700   3.755   2.434
 5320TIP3    H215906   5.573   3.831   2.466
 5321TIP3   OH215907   5.221   1.673   2.319
 5321TIP3    H115908   5.167   1.752   2.308
 5321TIP3    H215909   5.309   1.707   2.336
 5322TIP3   OH215910   1.173   6.395   5.836
 5322TIP3    H115911   1.130   6.480   5.833
 5322TIP3    H215912   1.264   6.416   5.861
 5323TIP3   OH215913   0.130   2.211   5.722
 5323TIP3    H115914   0.082   2.141   5.677
 5323TIP3    H215915   0.148   2.175   5.809
 5324TIP3   OH215916   2.857   3.136   3.756
 5324TIP3    H115917   2.928   3.192   3.723
 5324TIP3    H215918   2.892   3.098   3.836
 5325TIP3   OH215919   7.219   6.920   3.922
 5325TIP3    H115920   7.263   6.873   3.850
 5325TIP3    H215921   7.270   6.897   4.000
 5326TIP3   OH215922   0.997   1.708   3.253
 5326TIP3    H115923   1.060   1.645   3.219
 5326TIP3    H215924   0.956   1.746   3.176
 5327TIP3   OH215925   8.044   5.147   0.022
 5327TIP3    H115926   7.990   5.205   0.076
 5327TIP3    H215927   7.986   5.073   0.002
 5328TIP3   OH215928   5.409   5.960   6.276
 5328TIP3    H115929   5.349   5.888   6.254
 5328TIP3    H215930   5.360   6.013   6.339
 5329TIP3   OH215931   6.449   5.690   1.516
 5329TIP3    H115932   6.515   5.624   1.494
 5329TIP3    H215933   6.385   5.685   1.445
 5330TIP3   OH215934   7.276   1.731   5.078
 5330TIP3    H115935   7.280   1.703   5.169
 5330TIP3    H215936   7.299   1.654   5.027
 5331TIP3   OH215937   1.970   3.572   3.625
 5331TIP3    H115938   1.986   3.493   3.676
 5331TIP3    H215939   1.894   3.612   3.666
 5332TIP3   OH215940   0.075   2.388   0.102
 5332TIP3    H115941   0.068   2.455   0.170
 5332TIP3    H215942   0.156   2.341   0.124
 5333TIP3   OH215943   1.844   7.478   6.673
 5333TIP3    H115944   1.887   7.509   6.753
 5333TIP3    H215945   1.775   7.542   6.656
 5334TIP3   OH215946   0.174   0.275   2.321
 5334TIP3    H115947   0.145   0.346   2.378
 5334TIP3    H215948   0.094   0.226   2.301
 5335TIP3   OH215949   0.765   5.767   1.486
 5335TIP3    H115950   0.781   5.851   1.443
 5335TIP3    H215951   0.835   5.710   1.455
 5336TIP3   OH215952   3.787   1.878   6.784
 5336TIP3    H115953   3.736   1.935   6.842
 5336TIP3    H215954   3.722   1.821   6.743
 5337TIP3   OH215955   3.085   6.992   4.747
 5337TIP3    H115956   3.099   6.967   4.655
 5337TIP3    H215957   3.018   6.931   4.777
 5338TIP3   OH215958   6.119   6.335   4.398
 5338TIP3    H115959   6.114   6.278   4.322
 5338TIP3    H215960   6.150   6.419   4.363
 5339TIP3   OH215961   3.008   7.480   0.724
 5339TIP3    H115962   3.052   7.436   0.797
 5339TIP3    H215963   2.998   7.412   0.658
 5340TIP3   OH215964   6.637   2.618   4.425
 5340TIP3    H115965   6.722   2.654   4.398
 5340TIP3    H215966   6.615   2.556   4.356
 5341TIP3   OH215967   3.271   6.820   5.231
 5341TIP3    H115968   3.251   6.841   5.140
 5341TIP3    H215969   3.362   6.792   5.229
 5342TIP3   OH215970   5.389   6.776   2.010
 5342TIP3    H115971   5.466   6.733   1.973
 5342TIP3    H215972   5.323   6.772   1.940
 5343TIP3   OH215973   6.531   7.582   4.962
 5343TIP3    H115974   6.605   7.549   4.910
 5343TIP3    H215975   6.510   7.509   5.021
 5344TIP3   OH215976   1.800   6.383   2.817
 5344TIP3    H115977   1.714   6.343   2.807
 5344TIP3    H215978   1.831   6.353   2.903
 5345TIP3   OH215979   1.128   0.886   5.848
 5345TIP3    H115980   1.039   0.915   5.826
 5345TIP3    H215981   1.120   0.853   5.938
 5346TIP3   OH215982   2.591   6.255   0.376
 5346TIP3    H115983   2.552   6.339   0.352
 5346TIP3    H215984   2.631   6.223   0.295
 5347TIP3   OH215985   0.783   5.753   4.561
 5347TIP3    H115986   0.836   5.800   4.624
 5347TIP3    H215987   0.719   5.817   4.530
 5348TIP3   OH215988   1.852   4.706   1.988
 5348TIP3    H115989   1.778   4.707   1.927
 5348TIP3    H215990   1.825   4.762   2.060
 5349TIP3   OH215991   7.808   4.383   3.551
 5349TIP3    H115992   7.898   4.416   3.549
 5349TIP3    H215993   7.817   4.289   3.537
 5350TIP3   OH215994   0.944   3.510   0.795
 5350TIP3    H115995   0.952   3.597   0.833
 5350TIP3    H215996   1.000   3.513   0.717
 5351TIP3   OH215997   7.887   5.163   6.357
 5351TIP3    H115998   7.896   5.196   6.446
 5351TIP3    H215999   7.976   5.160   6.322
 5352TIP3   OH216000   5.140   2.993   5.281
 5352TIP3    H116001   5.117   2.973   5.371
 5352TIP3    H216002   5.068   3.047   5.249
 5353TIP3   OH216003   0.019   7.330   6.710
 5353TIP3    H116004  -0.019   7.299   6.627
 5353TIP3    H216005   0.021   7.425   6.702
 5354TIP3   OH216006   7.069   4.501   4.960
 5354TIP3    H116007   7.030   4.560   5.025
 5354TIP3    H216008   7.061   4.548   4.877
 5355TIP3   OH216009   4.200   7.774   2.051
 5355TIP3    H116010   4.195   7.835   2.124
 5355TIP3    H216011   4.294   7.762   2.036
 5356TIP3   OH216012   4.331   4.627   0.143
 5356TIP3    H116013   4.243   4.652   0.114
 5356TIP3    H216014   4.363   4.702   0.192
 5357TIP3   OH216015   2.456   4.838   3.108
 5357TIP3    H116016   2.469   4.900   3.179
 5357TIP3    H216017   2.469   4.752   3.148
 5358TIP3   OH216018   3.699   3.547   0.553
 5358TIP3    H116019   3.730   3.559   0.464
 5358TIP3    H216020   3.686   3.453   0.562
 5359TIP3   OH216021   3.885   0.580   3.973
 5359TIP3    H116022   3.889   0.675   3.966
 5359TIP3    H216023   3.876   0.563   4.067
 5360TIP3   OH216024   3.660   2.439   0.158
 5360TIP3    H116025   3.609   2.503   0.108
 5360TIP3    H216026   3.631   2.354   0.125
 5361TIP3   OH216027   1.828   1.841   4.582
 5361TIP3    H116028   1.881   1.902   4.531
 5361TIP3    H216029   1.892   1.781   4.620
 5362TIP3   OH216030   8.091   0.414   2.203
 5362TIP3    H116031   8.137   0.496   2.217
 5362TIP3    H216032   8.016   0.437   2.148
 5363TIP3   OH216033   0.740   4.993   5.560
 5363TIP3    H116034   0.783   5.072   5.592
 5363TIP3    H216035   0.659   4.988   5.610
 5364TIP3   OH216036   5.585   1.471   0.729
 5364TIP3    H116037   5.553   1.523   0.655
 5364TIP3    H216038   5.577   1.529   0.805
 5365TIP3   OH216039   2.440   2.772   2.286
 5365TIP3    H116040   2.434   2.867   2.280
 5365TIP3    H216041   2.434   2.742   2.195
 5366TIP3   OH216042   2.556   6.163   1.107
 5366TIP3    H116043   2.568   6.253   1.137
 5366TIP3    H216044   2.469   6.163   1.067
 5367TIP3   OH216045   5.439   6.421   6.285
 5367TIP3    H116046   5.360   6.452   6.240
 5367TIP3    H216047   5.507   6.424   6.219
 5368TIP3   OH216048   4.766   4.397   5.216
 5368TIP3    H116049   4.704   4.325   5.227
 5368TIP3    H216050   4.711   4.475   5.207
 5369TIP3   OH216051   4.785   5.020   0.632
 5369TIP3    H116052   4.734   4.945   0.662
 5369TIP3    H216053   4.724   5.073   0.582
 5370TIP3   OH216054   1.003   7.494   5.000
 5370TIP3    H116055   0.965   7.418   5.043
 5370TIP3    H216056   1.097   7.486   5.016
 5371TIP3   OH216057   1.134   0.515   0.098
 5371TIP3    H116058   1.106   0.592   0.048
 5371TIP3    H216059   1.109   0.441   0.043
 5372TIP3   OH216060   7.958   7.754   5.759
 5372TIP3    H116061   8.014   7.830   5.745
 5372TIP3    H216062   7.932   7.760   5.851
 5373TIP3   OH216063   0.777   0.061   0.413
 5373TIP3    H116064   0.687   0.039   0.389
 5373TIP3    H216065   0.831   0.016   0.347
 5374TIP3   OH216066   1.987   1.781   1.696
 5374TIP3    H116067   1.934   1.811   1.770
 5374TIP3    H216068   2.073   1.819   1.712
 5375TIP3   OH216069   1.886   4.383   3.280
 5375TIP3    H116070   1.829   4.383   3.203
 5375TIP3    H216071   1.862   4.304   3.328
 5376TIP3   OH216072   7.945   3.002   4.919
 5376TIP3    H116073   8.022   2.979   4.971
 5376TIP3    H216074   7.888   3.050   4.979
 5377TIP3   OH216075   1.286   3.350   0.162
 5377TIP3    H116076   1.224   3.366   0.091
 5377TIP3    H216077   1.315   3.259   0.148
 5378TIP3   OH216078   4.412   6.920   6.375
 5378TIP3    H116079   4.464   6.997   6.396
 5378TIP3    H216080   4.454   6.849   6.423
 5379TIP3   OH216081   1.426   2.317   5.423
 5379TIP3    H116082   1.425   2.409   5.451
 5379TIP3    H216083   1.483   2.316   5.346
 5380TIP3   OH216084   0.023   3.276   5.044
 5380TIP3    H116085  -0.051   3.337   5.038
 5380TIP3    H216086   0.002   3.221   5.120
 5381TIP3   OH216087   3.863   0.896   2.360
 5381TIP3    H116088   3.817   0.832   2.413
 5381TIP3    H216089   3.891   0.848   2.282
 5382TIP3   OH216090   6.573   4.198   3.956
 5382TIP3    H116091   6.576   4.290   3.929
 5382TIP3    H216092   6.582   4.150   3.874
 5383TIP3   OH216093   3.443   5.117   4.879
 5383TIP3    H116094   3.523   5.142   4.924
 5383TIP3    H216095   3.471   5.096   4.790
 5384TIP3   OH216096   4.659   2.370   6.266
 5384TIP3    H116097   4.651   2.339   6.356
 5384TIP3    H216098   4.753   2.386   6.254
 5385TIP3   OH216099   2.592   1.696   0.468
 5385TIP3    H116100   2.602   1.625   0.531
 5385TIP3    H216101   2.502   1.688   0.436
 5386TIP3   OH216102   7.348   1.362   1.382
 5386TIP3    H116103   7.431   1.330   1.418
 5386TIP3    H216104   7.370   1.445   1.339
 5387TIP3   OH216105   2.993   3.371   3.978
 5387TIP3    H116106   3.015   3.451   3.931
 5387TIP3    H216107   3.067   3.356   4.036
 5388TIP3   OH216108   8.131   7.410   5.884
 5388TIP3    H116109   8.036   7.410   5.878
 5388TIP3    H216110   8.159   7.345   5.819
 5389TIP3   OH216111   4.262   0.779   4.503
 5389TIP3    H116112   4.253   0.750   4.594
 5389TIP3    H216113   4.177   0.815   4.480
 5390TIP3   OH216114   1.115   2.164   0.162
 5390TIP3    H116115   1.202   2.177   0.201
 5390TIP3    H216116   1.054   2.170   0.235
 5391TIP3   OH216117   3.615   7.739   3.053
 5391TIP3    H116118   3.599   7.720   2.960
 5391TIP3    H216119   3.710   7.741   3.061
 5392TIP3   OH216120   5.727   0.480   3.394
 5392TIP3    H116121   5.665   0.513   3.330
 5392TIP3    H216122   5.673   0.435   3.459
 5393TIP3   OH216123   8.287   7.834   3.541
 5393TIP3    H116124   8.375   7.829   3.577
 5393TIP3    H216125   8.241   7.758   3.576
 5394TIP3   OH216126   5.160   6.242   0.845
 5394TIP3    H116127   5.242   6.265   0.803
 5394TIP3    H216128   5.185   6.207   0.930
 5395TIP3   OH216129   5.225   4.475   4.132
 5395TIP3    H116130   5.319   4.490   4.145
 5395TIP3    H216131   5.220   4.400   4.073
 5396TIP3   OH216132   1.531   6.737   6.117
 5396TIP3    H116133   1.600   6.696   6.065
 5396TIP3    H216134   1.481   6.664   6.152
 5397TIP3   OH216135   6.877   6.622   1.147
 5397TIP3    H116136   6.817   6.654   1.214
 5397TIP3    H216137   6.832   6.641   1.064
 5398TIP3   OH216138   4.375   1.610   3.458
 5398TIP3    H116139   4.314   1.666   3.410
 5398TIP3    H216140   4.344   1.521   3.441
 5399TIP3   OH216141   3.416   2.252   6.000
 5399TIP3    H116142   3.414   2.345   6.020
 5399TIP3    H216143   3.340   2.238   5.942
 5400TIP3   OH216144   2.676   3.236   1.769
 5400TIP3    H116145   2.587   3.270   1.759
 5400TIP3    H216146   2.687   3.178   1.694
 5401TIP3   OH216147   7.112   4.994   2.533
 5401TIP3    H116148   7.063   5.029   2.609
 5401TIP3    H216149   7.073   5.038   2.458
 5402TIP3   OH216150   6.407   0.514   5.973
 5402TIP3    H116151   6.347   0.477   5.908
 5402TIP3    H216152   6.481   0.547   5.922
 5403TIP3   OH216153   6.668   7.113   3.515
 5403TIP3    H116154   6.759   7.095   3.542
 5403TIP3    H216155   6.672   7.122   3.420
 5404TIP3   OH216156   0.060   3.425   2.092
 5404TIP3    H116157   0.049   3.474   2.011
 5404TIP3    H216158   0.104   3.486   2.151
 5405TIP3   OH216159   0.714   0.622   1.430
 5405TIP3    H116160   0.766   0.571   1.368
 5405TIP3    H216161   0.737   0.713   1.410
 5406TIP3   OH216162   3.502   2.060   4.690
 5406TIP3    H116163   3.594   2.044   4.711
 5406TIP3    H216164   3.504   2.115   4.611
 5407TIP3   OH216165   6.734   3.483   0.306
 5407TIP3    H116166   6.715   3.417   0.240
 5407TIP3    H216167   6.815   3.525   0.276
 5408TIP3   OH216168   6.172   3.648   1.971
 5408TIP3    H116169   6.080   3.645   1.943
 5408TIP3    H216170   6.169   3.625   2.064
 5409TIP3   OH216171   1.136   4.798   1.194
 5409TIP3    H116172   1.136   4.799   1.290
 5409TIP3    H216173   1.052   4.836   1.170
 5410TIP3   OH216174   7.709   6.035   0.874
 5410TIP3    H116175   7.669   6.104   0.927
 5410TIP3    H216176   7.769   5.990   0.934
 5411TIP3   OH216177   3.703   1.070   2.000
 5411TIP3    H116178   3.626   1.040   1.951
 5411TIP3    H216179   3.755   1.120   1.937
 5412TIP3   OH216180   4.620   2.430   2.977
 5412TIP3    H116181   4.558   2.408   3.048
 5412TIP3    H216182   4.705   2.400   3.010
 5413TIP3   OH216183   2.320   2.072   3.003
 5413TIP3    H116184   2.405   2.102   3.036
 5413TIP3    H216185   2.293   2.004   3.065
 5414TIP3   OH216186   2.251   5.077   5.213
 5414TIP3    H116187   2.277   5.005   5.271
 5414TIP3    H216188   2.246   5.154   5.270
 5415TIP3   OH216189   1.681   2.768   2.963
 5415TIP3    H116190   1.744   2.717   3.013
 5415TIP3    H216191   1.720   2.856   2.958
 5416TIP3   OH216192   7.732   5.261   3.654
 5416TIP3    H116193   7.773   5.347   3.642
 5416TIP3    H216194   7.805   5.201   3.667
 5417TIP3   OH216195   2.710   3.537   4.851
 5417TIP3    H116196   2.700   3.497   4.937
 5417TIP3    H216197   2.673   3.624   4.860
 5418TIP3   OH216198   2.839   7.613   5.598
 5418TIP3    H116199   2.767   7.583   5.653
 5418TIP3    H216200   2.800   7.673   5.536
 5419TIP3   OH216201   3.800   4.641   2.374
 5419TIP3    H116202   3.878   4.671   2.327
 5419TIP3    H216203   3.764   4.572   2.318
 5420TIP3   OH216204   3.433   3.565   4.218
 5420TIP3    H116205   3.431   3.497   4.285
 5420TIP3    H216206   3.404   3.644   4.263
 5421TIP3   OH216207   6.755   6.943   4.474
 5421TIP3    H116208   6.760   6.879   4.545
 5421TIP3    H216209   6.828   6.920   4.417
 5422TIP3   OH216210   0.895   6.561   5.066
 5422TIP3    H116211   0.829   6.505   5.026
 5422TIP3    H216212   0.848   6.643   5.085
 5423TIP3   OH216213   3.713   0.180   5.579
 5423TIP3    H116214   3.677   0.265   5.605
 5423TIP3    H216215   3.749   0.143   5.660
 5424TIP3   OH216216   7.601   4.224   0.987
 5424TIP3    H116217   7.620   4.318   0.996
 5424TIP3    H216218   7.521   4.211   1.038
 5425TIP3   OH216219   4.689   4.129   5.100
 5425TIP3    H116220   4.610   4.180   5.120
 5425TIP3    H216221   4.655   4.043   5.076
 5426TIP3   OH216222   1.943   4.919   6.051
 5426TIP3    H116223   2.002   4.882   6.117
 5426TIP3    H216224   2.001   4.944   5.979
 5427TIP3   OH216225   8.144   0.806   4.545
 5427TIP3    H116226   8.207   0.748   4.501
 5427TIP3    H216227   8.189   0.834   4.624
 5428TIP3   OH216228   3.372   6.840   3.781
 5428TIP3    H116229   3.387   6.747   3.761
 5428TIP3    H216230   3.281   6.855   3.759
 5429TIP3   OH216231   3.427   7.068   5.986
 5429TIP3    H116232   3.436   7.101   6.076
 5429TIP3    H216233   3.509   7.023   5.968
 5430TIP3   OH216234   1.725   1.909   1.631
 5430TIP3    H116235   1.733   1.991   1.680
 5430TIP3    H216236   1.715   1.842   1.698
 5431TIP3   OH216237   1.272   5.398   1.704
 5431TIP3    H116238   1.215   5.457   1.752
 5431TIP3    H216239   1.231   5.389   1.618
 5432TIP3   OH216240   7.929   6.181   4.788
 5432TIP3    H116241   7.979   6.178   4.706
 5432TIP3    H216242   7.992   6.212   4.854
 5433TIP3   OH216243   1.622   0.765   2.993
 5433TIP3    H116244   1.696   0.799   2.943
 5433TIP3    H216245   1.622   0.671   2.974
 5434TIP3   OH216246   1.153   3.651   5.307
 5434TIP3    H116247   1.135   3.651   5.401
 5434TIP3    H216248   1.121   3.735   5.276
 5435TIP3   OH216249   4.482   5.093   4.511
 5435TIP3    H116250   4.455   5.010   4.551
 5435TIP3    H216251   4.532   5.137   4.580
 5436TIP3   OH216252   1.394   3.290   2.649
 5436TIP3    H116253   1.450   3.365   2.627
 5436TIP3    H216254   1.454   3.216   2.655
 5437TIP3   OH216255   6.357   1.428   6.006
 5437TIP3    H116256   6.327   1.408   6.095
 5437TIP3    H216257   6.279   1.419   5.952
 5438TIP3   OH216258   0.423   6.702   1.706
 5438TIP3    H116259   0.452   6.693   1.615
 5438TIP3    H216260   0.409   6.796   1.717
 5439TIP3   OH216261   7.061   0.642   4.994
 5439TIP3    H116262   6.976   0.677   5.020
 5439TIP3    H216263   7.042   0.553   4.965
 5440TIP3   OH216264   7.812   3.691   4.929
 5440TIP3    H116265   7.903   3.699   4.902
 5440TIP3    H216266   7.797   3.766   4.986
 5441TIP3   OH216267   4.783   7.324   6.513
 5441TIP3    H116268   4.799   7.401   6.459
 5441TIP3    H216269   4.870   7.296   6.541
 5442TIP3   OH216270   2.922   0.297   3.883
 5442TIP3    H116271   2.962   0.340   3.959
 5442TIP3    H216272   2.834   0.335   3.877
 5443TIP3   OH216273   0.638   0.246   5.900
 5443TIP3    H116274   0.645   0.245   5.996
 5443TIP3    H216275   0.588   0.168   5.879
 5444TIP3   OH216276   6.818   2.316   0.170
 5444TIP3    H116277   6.749   2.324   0.236
 5444TIP3    H216278   6.865   2.237   0.195
 5445TIP3   OH216279   6.104   3.030   2.156
 5445TIP3    H116280   6.084   3.028   2.062
 5445TIP3    H216281   6.024   2.999   2.198
 5446TIP3   OH216282   6.246   3.044   0.409
 5446TIP3    H116283   6.314   3.047   0.477
 5446TIP3    H216284   6.295   3.034   0.328
 5447TIP3   OH216285   4.728   5.621   6.063
 5447TIP3    H116286   4.710   5.610   5.970
 5447TIP3    H216287   4.689   5.543   6.104
 5448TIP3   OH216288   0.310   5.208   5.793
 5448TIP3    H116289   0.217   5.226   5.798
 5448TIP3    H216290   0.350   5.292   5.769
 5449TIP3   OH216291   2.166   1.174   3.820
 5449TIP3    H116292   2.253   1.140   3.799
 5449TIP3    H216293   2.116   1.096   3.846
 5450TIP3   OH216294   4.958   3.213   6.345
 5450TIP3    H116295   4.875   3.238   6.386
 5450TIP3    H216296   5.002   3.161   6.412
 5451TIP3   OH216297   7.766   5.187   1.635
 5451TIP3    H116298   7.671   5.195   1.642
 5451TIP3    H216299   7.800   5.250   1.698
 5452TIP3   OH216300   7.272   4.665   4.196
 5452TIP3    H116301   7.329   4.609   4.249
 5452TIP3    H216302   7.295   4.644   4.105
 5453TIP3   OH216303   0.513   7.776   2.301
 5453TIP3    H116304   0.498   7.866   2.329
 5453TIP3    H216305   0.594   7.780   2.250
 5454TIP3   OH216306   3.026   6.596   0.632
 5454TIP3    H116307   3.109   6.590   0.585
 5454TIP3    H216308   3.008   6.507   0.662
 5455TIP3   OH216309   3.877   0.275   3.978
 5455TIP3    H116310   3.880   0.370   3.988
 5455TIP3    H216311   3.791   0.257   3.940
 5456TIP3   OH216312   1.490   6.748   0.531
 5456TIP3    H116313   1.463   6.757   0.623
 5456TIP3    H216314   1.466   6.832   0.492
 5457TIP3   OH216315   2.238   3.516   1.672
 5457TIP3    H116316   2.243   3.603   1.711
 5457TIP3    H216317   2.155   3.516   1.623
 5458TIP3   OH216318   0.449   6.471   3.303
 5458TIP3    H116319   0.468   6.558   3.268
 5458TIP3    H216320   0.421   6.420   3.227
 5459TIP3   OH216321   1.810   7.805   2.689
 5459TIP3    H116322   1.781   7.771   2.774
 5459TIP3    H216323   1.905   7.793   2.691
 5460TIP3   OH216324   7.036   3.212   5.573
 5460TIP3    H116325   7.037   3.275   5.501
 5460TIP3    H216326   7.127   3.205   5.601
 5461TIP3   OH216327   3.286   1.564   2.367
 5461TIP3    H116328   3.233   1.635   2.404
 5461TIP3    H216329   3.372   1.603   2.351
 5462TIP3   OH216330   5.426   2.574   0.362
 5462TIP3    H116331   5.509   2.565   0.315
 5462TIP3    H216332   5.366   2.514   0.318
 5463TIP3   OH216333   1.983   7.728   3.696
 5463TIP3    H116334   2.032   7.810   3.701
 5463TIP3    H216335   1.895   7.754   3.667
 5464TIP3   OH216336   2.728   5.716   6.538
 5464TIP3    H116337   2.679   5.639   6.565
 5464TIP3    H216338   2.680   5.749   6.462
 5465TIP3   OH216339   6.302   2.794   4.344
 5465TIP3    H116340   6.375   2.779   4.404
 5465TIP3    H216341   6.250   2.714   4.347
 5466TIP3   OH216342   1.862   6.736   5.926
 5466TIP3    H116343   1.955   6.723   5.948
 5466TIP3    H216344   1.818   6.659   5.961
 5467TIP3   OH216345   0.596   5.451   1.610
 5467TIP3    H116346   0.543   5.531   1.601
 5467TIP3    H216347   0.651   5.450   1.531
 5468TIP3   OH216348   7.461   3.876   0.536
 5468TIP3    H116349   7.533   3.823   0.502
 5468TIP3    H216350   7.502   3.958   0.563
 5469TIP3   OH216351   0.271   6.088   4.172
 5469TIP3    H116352   0.270   6.004   4.126
 5469TIP3    H216353   0.240   6.151   4.107
 5470TIP3   OH216354   5.457   2.883   2.434
 5470TIP3    H116355   5.535   2.847   2.475
 5470TIP3    H216356   5.487   2.913   2.348
 5471TIP3   OH216357   2.841   4.828   4.103
 5471TIP3    H116358   2.933   4.838   4.126
 5471TIP3    H216359   2.822   4.903   4.047
 5472TIP3   OH216360   7.648   5.645   3.036
 5472TIP3    H116361   7.702   5.718   3.067
 5472TIP3    H216362   7.643   5.657   2.942
 5473TIP3   OH216363   1.858   1.903   0.262
 5473TIP3    H116364   1.944   1.894   0.302
 5473TIP3    H216365   1.821   1.815   0.263
 5474TIP3   OH216366   6.567   3.943   6.440
 5474TIP3    H116367   6.580   3.947   6.535
 5474TIP3    H216368   6.531   4.029   6.417
 5475TIP3   OH216369   6.954   5.064   6.640
 5475TIP3    H116370   6.915   4.981   6.613
 5475TIP3    H216371   6.880   5.124   6.647
 5476TIP3   OH216372   4.877   6.228   6.137
 5476TIP3    H116373   4.906   6.271   6.217
 5476TIP3    H216374   4.782   6.219   6.147
 5477TIP3   OH216375   3.797   3.663   1.485
 5477TIP3    H116376   3.845   3.705   1.414
 5477TIP3    H216377   3.718   3.628   1.444
 5478TIP3   OH216378   4.521   1.919   6.773
 5478TIP3    H116379   4.539   2.001   6.728
 5478TIP3    H216380   4.590   1.859   6.744
 5479TIP3   OH216381   3.760   4.744   4.980
 5479TIP3    H116382   3.706   4.776   4.908
 5479TIP3    H216383   3.719   4.779   5.059
 5480TIP3   OH216384   1.216   0.198   1.208
 5480TIP3    H116385   1.293   0.150   1.237
 5480TIP3    H216386   1.198   0.164   1.121
 5481TIP3   OH216387   3.930   3.813   3.746
 5481TIP3    H116388   3.994   3.882   3.763
 5481TIP3    H216389   3.877   3.809   3.826
 5482TIP3   OH216390   3.838   5.530   4.767
 5482TIP3    H116391   3.816   5.540   4.860
 5482TIP3    H216392   3.904   5.597   4.751
 5483TIP3   OH216393   4.048   5.066   3.342
 5483TIP3    H116394   4.047   5.147   3.291
 5483TIP3    H216395   4.129   5.071   3.392
 5484TIP3   OH216396   5.022   1.012   3.369
 5484TIP3    H116397   4.968   1.035   3.294
 5484TIP3    H216398   5.108   0.993   3.331
 5485TIP3   OH216399   5.405   5.422   2.255
 5485TIP3    H116400   5.449   5.400   2.338
 5485TIP3    H216401   5.363   5.506   2.271
 5486TIP3   OH216402   4.697   5.176   0.286
 5486TIP3    H116403   4.654   5.229   0.353
 5486TIP3    H216404   4.658   5.206   0.203
 5487TIP3   OH216405   0.230   4.560   6.141
 5487TIP3    H116406   0.286   4.516   6.206
 5487TIP3    H216407   0.177   4.489   6.103
 5488TIP3   OH216408   5.085   7.486   0.655
 5488TIP3    H116409   5.048   7.562   0.700
 5488TIP3    H216410   5.021   7.416   0.667
 5489TIP3   OH216411   1.630   6.066   0.921
 5489TIP3    H116412   1.672   6.079   0.836
 5489TIP3    H216413   1.668   5.984   0.954
 5490TIP3   OH216414   2.659   5.623   1.836
 5490TIP3    H116415   2.737   5.631   1.781
 5490TIP3    H216416   2.625   5.536   1.816
 5491TIP3   OH216417   6.230   6.638   3.604
 5491TIP3    H116418   6.323   6.645   3.579
 5491TIP3    H216419   6.185   6.697   3.544
 5492TIP3   OH216420   3.948   3.409   6.342
 5492TIP3    H116421   3.920   3.496   6.370
 5492TIP3    H216422   4.043   3.410   6.353
 5493TIP3   OH216423   5.158   0.404   5.876
 5493TIP3    H116424   5.207   0.370   5.801
 5493TIP3    H216425   5.095   0.335   5.897
 5494TIP3   OH216426   0.283   2.147   1.096
 5494TIP3    H116427   0.345   2.204   1.141
 5494TIP3    H216428   0.264   2.192   1.014
 5495TIP3   OH216429   7.287   5.085   4.044
 5495TIP3    H116430   7.250   5.173   4.056
 5495TIP3    H216431   7.269   5.063   3.952
 5496TIP3   OH216432   7.357   7.546   6.019
 5496TIP3    H116433   7.413   7.619   6.044
 5496TIP3    H216434   7.410   7.494   5.958
 5497TIP3   OH216435   0.400   2.350   0.880
 5497TIP3    H116436   0.311   2.356   0.915
 5497TIP3    H216437   0.403   2.414   0.809
 5498TIP3   OH216438   4.291   2.240   6.144
 5498TIP3    H116439   4.206   2.283   6.158
 5498TIP3    H216440   4.326   2.229   6.232
 5499TIP3   OH216441   1.643   2.737   5.095
 5499TIP3    H116442   1.663   2.722   5.188
 5499TIP3    H216443   1.685   2.820   5.074
 5500TIP3   OH216444   1.294   7.299   3.315
 5500TIP3    H116445   1.233   7.319   3.244
 5500TIP3    H216446   1.323   7.385   3.346
 5501TIP3   OH216447   7.463   2.521   0.536
 5501TIP3    H116448   7.527   2.507   0.466
 5501TIP3    H216449   7.515   2.556   0.609
 5502TIP3   OH216450   5.084   1.969   4.599
 5502TIP3    H116451   5.039   1.981   4.683
 5502TIP3    H216452   5.116   1.878   4.602
 5503TIP3   OH216453   6.522   1.486   6.385
 5503TIP3    H116454   6.561   1.509   6.301
 5503TIP3    H216455   6.595   1.492   6.448
 5504TIP3   OH216456   4.503   5.154   3.005
 5504TIP3    H116457   4.539   5.074   3.043
 5504TIP3    H216458   4.577   5.213   2.997
 5505TIP3   OH216459   5.308   3.526   4.032
 5505TIP3    H116460   5.359   3.536   4.112
 5505TIP3    H216461   5.339   3.444   3.993
 5506TIP3   OH216462   3.773   7.126   0.655
 5506TIP3    H116463   3.687   7.085   0.652
 5506TIP3    H216464   3.777   7.179   0.575
 5507TIP3   OH216465   6.624   0.770   5.950
 5507TIP3    H116466   6.596   0.812   5.868
 5507TIP3    H216467   6.640   0.843   6.010
 5508TIP3   OH216468   6.864   4.326   4.719
 5508TIP3    H116469   6.835   4.408   4.760
 5508TIP3    H216470   6.958   4.339   4.705
 5509TIP3   OH216471   0.949   4.452   5.059
 5509TIP3    H116472   0.934   4.520   5.125
 5509TIP3    H216473   0.964   4.372   5.109
 5510TIP3   OH216474   5.713   3.503   6.525
 5510TIP3    H116475   5.628   3.540   6.498
 5510TIP3    H216476   5.691   3.420   6.567
 5511TIP3   OH216477   3.334   1.458   6.005
 5511TIP3    H116478   3.374   1.519   6.067
 5511TIP3    H216479   3.402   1.393   5.987
 5512TIP3   OH216480   7.052   0.910   0.557
 5512TIP3    H116481   7.134   0.949   0.525
 5512TIP3    H216482   7.078   0.824   0.591
 5513TIP3   OH216483   4.490   3.009   0.789
 5513TIP3    H116484   4.566   3.054   0.825
 5513TIP3    H216485   4.519   2.919   0.776
 5514TIP3   OH216486   7.971   0.878   5.742
 5514TIP3    H116487   8.011   0.965   5.742
 5514TIP3    H216488   7.895   0.886   5.684
 5515TIP3   OH216489   6.242   0.396   1.357
 5515TIP3    H116490   6.311   0.448   1.398
 5515TIP3    H216491   6.162   0.447   1.370
 5516TIP3   OH216492   0.716   0.843   0.640
 5516TIP3    H116493   0.761   0.795   0.571
 5516TIP3    H216494   0.763   0.926   0.646
 5517TIP3   OH216495   5.986   2.556   1.991
 5517TIP3    H116496   6.007   2.600   2.073
 5517TIP3    H216497   6.071   2.539   1.951
 5518TIP3   OH216498   5.261   2.423   0.221
 5518TIP3    H116499   5.197   2.353   0.234
 5518TIP3    H216500   5.228   2.473   0.146
 5519TIP3   OH216501   5.954   1.586   4.154
 5519TIP3    H116502   5.985   1.523   4.088
 5519TIP3    H216503   5.859   1.579   4.149
 5520TIP3   OH216504   6.847   6.344   4.728
 5520TIP3    H116505   6.898   6.263   4.717
 5520TIP3    H216506   6.912   6.411   4.749
 5521TIP3   OH216507   4.623   2.433   3.369
 5521TIP3    H116508   4.697   2.375   3.349
 5521TIP3    H216509   4.632   2.505   3.306
 5522TIP3   OH216510   6.346   1.942   3.055
 5522TIP3    H116511   6.377   1.863   3.011
 5522TIP3    H216512   6.392   1.942   3.139
 5523TIP3   OH216513   6.970   0.471   0.000
 5523TIP3    H116514   7.009   0.405   0.057
 5523TIP3    H216515   7.014   0.552   0.023
 5524TIP3   OH216516   0.762   2.459   2.347
 5524TIP3    H116517   0.677   2.420   2.371
 5524TIP3    H216518   0.740   2.528   2.285
 5525TIP3   OH216519   6.521   0.234   6.400
 5525TIP3    H116520   6.502   0.246   6.307
 5525TIP3    H216521   6.600   0.179   6.401
 5526TIP3   OH216522   5.646   4.881   6.416
 5526TIP3    H116523   5.688   4.795   6.426
 5526TIP3    H216524   5.708   4.943   6.453
 5527TIP3   OH216525   1.038   4.283   3.873
 5527TIP3    H116526   0.994   4.308   3.955
 5527TIP3    H216527   1.086   4.361   3.847
 5528TIP3   OH216528   6.291   1.036   6.348
 5528TIP3    H116529   6.198   1.015   6.362
 5528TIP3    H216530   6.338   0.974   6.403
 5529TIP3   OH216531   4.981   5.257   2.460
 5529TIP3    H116532   5.055   5.296   2.505
 5529TIP3    H216533   4.985   5.293   2.371
 5530TIP3   OH216534   5.294   2.082   4.104
 5530TIP3    H116535   5.268   2.093   4.195
 5530TIP3    H216536   5.249   2.003   4.076
 5531TIP3   OH216537   6.495   7.142   5.929
 5531TIP3    H116538   6.560   7.205   5.898
 5531TIP3    H216539   6.492   7.075   5.861
 5532TIP3   OH216540   5.227   5.073   1.024
 5532TIP3    H116541   5.196   5.039   0.940
 5532TIP3    H216542   5.199   5.165   1.024
 5533TIP3   OH216543   7.774   5.035   4.151
 5533TIP3    H116544   7.695   5.078   4.186
 5533TIP3    H216545   7.838   5.106   4.146
 5534TIP3   OH216546   5.224   6.756   3.806
 5534TIP3    H116547   5.162   6.798   3.746
 5534TIP3    H216548   5.278   6.827   3.840
 5535TIP3   OH216549   7.024   0.449   5.422
 5535TIP3    H116550   7.089   0.380   5.410
 5535TIP3    H216551   7.073   0.524   5.454
 5536TIP3   OH216552   3.187   1.245   2.204
 5536TIP3    H116553   3.215   1.327   2.164
 5536TIP3    H216554   3.169   1.268   2.295
 5537TIP3   OH216555   3.573   0.473   0.506
 5537TIP3    H116556   3.665   0.498   0.507
 5537TIP3    H216557   3.533   0.520   0.579
 5538TIP3   OH216558   6.141   7.686   2.016
 5538TIP3    H116559   6.157   7.592   2.014
 5538TIP3    H216560   6.221   7.724   1.979
 5539TIP3   OH216561   1.278   6.455   4.982
 5539TIP3    H116562   1.327   6.438   5.063
 5539TIP3    H216563   1.189   6.423   5.001
 5540TIP3   OH216564   0.270   2.116   5.020
 5540TIP3    H116565   0.251   2.184   5.084
 5540TIP3    H216566   0.243   2.034   5.063
 5541TIP3   OH216567   7.270   0.225   2.603
 5541TIP3    H116568   7.326   0.266   2.669
 5541TIP3    H216569   7.323   0.153   2.568
 5542TIP3   OH216570   0.196   1.559   3.231
 5542TIP3    H116571   0.103   1.579   3.236
 5542TIP3    H216572   0.222   1.584   3.142
 5543TIP3   OH216573   8.234   2.097   6.156
 5543TIP3    H116574   8.178   2.175   6.158
 5543TIP3    H216575   8.303   2.119   6.093
 5544TIP3   OH216576   3.493   5.904   0.284
 5544TIP3    H116577   3.399   5.914   0.299
 5544TIP3    H216578   3.517   5.827   0.336
 5545TIP3   OH216579   0.967   5.097   1.258
 5545TIP3    H116580   0.897   5.034   1.272
 5545TIP3    H216581   0.992   5.085   1.166
 5546TIP3   OH216582   4.953   0.656   4.590
 5546TIP3    H116583   4.963   0.611   4.674
 5546TIP3    H216584   4.874   0.617   4.552
 5547TIP3   OH216585   1.142   5.371   4.962
 5547TIP3    H116586   1.233   5.380   4.990
 5547TIP3    H216587   1.107   5.460   4.965
 5548TIP3   OH216588   6.584   1.221   3.398
 5548TIP3    H116589   6.583   1.275   3.319
 5548TIP3    H216590   6.593   1.131   3.365
 5549TIP3   OH216591   1.916   2.004   5.014
 5549TIP3    H116592   1.995   2.026   5.063
 5549TIP3    H216593   1.922   1.909   5.002
 5550TIP3   OH216594   6.943   3.959   1.626
 5550TIP3    H116595   7.014   4.024   1.634
 5550TIP3    H216596   6.954   3.903   1.703
 5551TIP3   OH216597   2.895   7.063   3.543
 5551TIP3    H116598   2.940   7.036   3.463
 5551TIP3    H216599   2.893   7.158   3.539
 5552TIP3   OH216600   1.476   2.509   4.124
 5552TIP3    H116601   1.432   2.425   4.137
 5552TIP3    H216602   1.569   2.489   4.135
 5553TIP3   OH216603   1.480   5.678   5.340
 5553TIP3    H116604   1.430   5.597   5.348
 5553TIP3    H216605   1.457   5.728   5.419
 5554TIP3   OH216606   6.814   2.280   6.123
 5554TIP3    H116607   6.731   2.233   6.122
 5554TIP3    H216608   6.790   2.372   6.134
 5555TIP3   OH216609   6.886   0.580   2.958
 5555TIP3    H116610   6.966   0.611   2.916
 5555TIP3    H216611   6.827   0.560   2.885
 5556TIP3   OH216612   1.601   3.558   0.170
 5556TIP3    H116613   1.665   3.598   0.229
 5556TIP3    H216614   1.530   3.529   0.227
 5557TIP3   OH216615   0.969   5.969   6.659
 5557TIP3    H116616   0.932   5.989   6.573
 5557TIP3    H216617   0.948   5.877   6.673
 5558TIP3   OH216618   4.584   2.504   1.617
 5558TIP3    H116619   4.639   2.527   1.691
 5558TIP3    H216620   4.606   2.568   1.550
 5559TIP3   OH216621   5.736   7.059   3.858
 5559TIP3    H116622   5.825   7.023   3.860
 5559TIP3    H216623   5.681   6.988   3.890
 5560TIP3   OH216624   3.426   0.569   5.946
 5560TIP3    H116625   3.330   0.576   5.951
 5560TIP3    H216626   3.446   0.588   5.854
 5561TIP3   OH216627   4.075   5.914   2.456
 5561TIP3    H116628   4.079   5.974   2.382
 5561TIP3    H216629   4.030   5.837   2.422
 5562TIP3   OH216630   7.871   5.759   2.504
 5562TIP3    H116631   7.846   5.674   2.468
 5562TIP3    H216632   7.805   5.779   2.569
 5563TIP3   OH216633   0.781   2.754   3.860
 5563TIP3    H116634   0.738   2.771   3.944
 5563TIP3    H216635   0.807   2.841   3.828
 5564TIP3   OH216636   5.020   6.684   4.793
 5564TIP3    H116637   4.939   6.674   4.843
 5564TIP3    H216638   5.089   6.658   4.854
 5565TIP3   OH216639   1.496   1.338   0.265
 5565TIP3    H116640   1.575   1.318   0.316
 5565TIP3    H216641   1.495   1.272   0.196
 5566TIP3   OH216642   2.581   4.332   6.063
 5566TIP3    H116643   2.569   4.340   5.969
 5566TIP3    H216644   2.493   4.340   6.100
 5567TIP3   OH216645   2.593   3.958   4.615
 5567TIP3    H116646   2.649   3.883   4.596
 5567TIP3    H216647   2.506   3.921   4.628
 5568TIP3   OH216648   2.657   2.872   1.865
 5568TIP3    H116649   2.625   2.944   1.919
 5568TIP3    H216650   2.675   2.912   1.780
 5569TIP3   OH216651   3.433   0.122   5.369
 5569TIP3    H116652   3.512   0.135   5.421
 5569TIP3    H216653   3.465   0.103   5.280
 5570TIP3   OH216654   8.094   4.077   5.818
 5570TIP3    H116655   8.043   4.037   5.747
 5570TIP3    H216656   8.177   4.102   5.776
 5571TIP3   OH216657   4.062   6.348   3.628
 5571TIP3    H116658   3.987   6.323   3.681
 5571TIP3    H216659   4.138   6.313   3.675
 5572TIP3   OH216660   3.994   1.425   3.343
 5572TIP3    H116661   4.015   1.451   3.254
 5572TIP3    H216662   3.899   1.435   3.350
 5573TIP3   OH216663   0.479   1.778   2.100
 5573TIP3    H116664   0.437   1.823   2.027
 5573TIP3    H216665   0.419   1.707   2.122
 5574TIP3   OH216666   8.191   0.487   2.682
 5574TIP3    H116667   8.147   0.542   2.747
 5574TIP3    H216668   8.181   0.398   2.715
 5575TIP3   OH216669   4.212   1.071   3.830
 5575TIP3    H116670   4.259   1.093   3.910
 5575TIP3    H216671   4.143   1.137   3.823
 5576TIP3   OH216672   1.988   0.745   0.878
 5576TIP3    H116673   2.036   0.670   0.914
 5576TIP3    H216674   1.964   0.797   0.955
 5577TIP3   OH216675   7.993   7.809   3.462
 5577TIP3    H116676   8.084   7.781   3.450
 5577TIP3    H216677   7.963   7.833   3.375
 5578TIP3   OH216678   3.926   4.011   1.383
 5578TIP3    H116679   3.919   4.106   1.373
 5578TIP3    H216680   3.836   3.982   1.395
 5579TIP3   OH216681   6.956   4.573  -0.010
 5579TIP3    H116682   6.928   4.516   0.062
 5579TIP3    H216683   7.042   4.604   0.016
 5580TIP3   OH216684   4.337   4.473   5.742
 5580TIP3    H116685   4.421   4.442   5.775
 5580TIP3    H216686   4.303   4.400   5.690
 5581TIP3   OH216687   3.534   1.289   0.297
 5581TIP3    H116688   3.472   1.226   0.260
 5581TIP3    H216689   3.578   1.242   0.368
 5582TIP3   OH216690   7.535   6.200   6.007
 5582TIP3    H116691   7.456   6.249   6.030
 5582TIP3    H216692   7.593   6.265   5.969
 5583TIP3   OH216693   3.941   2.128   0.991
 5583TIP3    H116694   3.873   2.079   1.037
 5583TIP3    H216695   3.976   2.066   0.927
 5584TIP3   OH216696   7.449   1.076   0.271
 5584TIP3    H116697   7.426   1.050   0.182
 5584TIP3    H216698   7.530   1.028   0.290
 5585TIP3   OH216699   6.180   2.852   5.891
 5585TIP3    H116700   6.225   2.906   5.826
 5585TIP3    H216701   6.142   2.780   5.840
 5586TIP3   OH216702   4.138   6.750   3.934
 5586TIP3    H116703   4.073   6.713   3.875
 5586TIP3    H216704   4.223   6.729   3.894
 5587TIP3   OH216705   5.198   0.305   4.694
 5587TIP3    H116706   5.137   0.280   4.625
 5587TIP3    H216707   5.232   0.390   4.668
 5588TIP3   OH216708   0.883   4.619   1.304
 5588TIP3    H116709   0.923   4.587   1.223
 5588TIP3    H216710   0.956   4.652   1.356
 5589TIP3   OH216711   7.839   1.186   2.385
 5589TIP3    H116712   7.822   1.276   2.415
 5589TIP3    H216713   7.798   1.130   2.451
 5590TIP3   OH216714   1.916   5.959   3.578
 5590TIP3    H116715   1.922   6.040   3.527
 5590TIP3    H216716   1.822   5.948   3.595
 5591TIP3   OH216717   4.732   0.463   0.334
 5591TIP3    H116718   4.769   0.551   0.337
 5591TIP3    H216719   4.688   0.452   0.418
 5592TIP3   OH216720   7.259   5.425   6.737
 5592TIP3    H116721   7.324   5.361   6.709
 5592TIP3    H216722   7.306   5.508   6.739
 5593TIP3   OH216723   2.430   0.878   3.378
 5593TIP3    H116724   2.401   0.969   3.389
 5593TIP3    H216725   2.485   0.879   3.300
 5594TIP3   OH216726   5.599   2.251   2.610
 5594TIP3    H116727   5.516   2.204   2.619
 5594TIP3    H216728   5.573   2.340   2.584
 5595TIP3   OH216729   5.165   4.658   6.495
 5595TIP3    H116730   5.258   4.666   6.518
 5595TIP3    H216731   5.163   4.660   6.400
 5596TIP3   OH216732   2.614   7.234   3.626
 5596TIP3    H116733   2.608   7.139   3.640
 5596TIP3    H216734   2.673   7.242   3.551
 5597TIP3   OH216735   5.223   6.292   4.600
 5597TIP3    H116736   5.289   6.240   4.555
 5597TIP3    H216737   5.272   6.344   4.663
 5598TIP3   OH216738   4.573   0.759   4.619
 5598TIP3    H116739   4.485   0.788   4.598
 5598TIP3    H216740   4.568   0.732   4.711
 5599TIP3   OH216741   6.737   4.106   4.897
 5599TIP3    H116742   6.770   4.117   4.987
 5599TIP3    H216743   6.777   4.178   4.848
 5600TIP3   OH216744   0.962   7.393   5.635
 5600TIP3    H116745   0.930   7.307   5.660
 5600TIP3    H216746   0.887   7.451   5.647
 5601TIP3   OH216747   4.010   6.530   0.459
 5601TIP3    H116748   4.003   6.434   0.462
 5601TIP3    H216749   3.937   6.558   0.404
 5602TIP3   OH216750   1.793   6.641   3.039
 5602TIP3    H116751   1.784   6.570   2.976
 5602TIP3    H216752   1.845   6.604   3.111
 5603TIP3   OH216753   5.783   5.882   1.061
 5603TIP3    H116754   5.814   5.972   1.065
 5603TIP3    H216755   5.816   5.841   1.141
 5604TIP3   OH216756   8.063   6.555   3.883
 5604TIP3    H116757   8.083   6.486   3.946
 5604TIP3    H216758   8.137   6.554   3.822
 5605TIP3   OH216759   6.946   7.512   0.144
 5605TIP3    H116760   6.942   7.416   0.138
 5605TIP3    H216761   6.966   7.541   0.055
 5606TIP3   OH216762   4.859   1.919   6.534
 5606TIP3    H116763   4.942   1.875   6.520
 5606TIP3    H216764   4.809   1.859   6.589
 5607TIP3   OH216765   7.858   2.827   5.946
 5607TIP3    H116766   7.891   2.915   5.931
 5607TIP3    H216767   7.935   2.770   5.942
 5608TIP3   OH216768   4.388   1.480   5.280
 5608TIP3    H116769   4.432   1.397   5.300
 5608TIP3    H216770   4.295   1.458   5.275
 5609TIP3   OH216771   1.638   1.645   3.275
 5609TIP3    H116772   1.559   1.627   3.326
 5609TIP3    H216773   1.710   1.621   3.333
 5610TIP3   OH216774   7.524   3.774   5.563
 5610TIP3    H116775   7.544   3.764   5.656
 5610TIP3    H216776   7.429   3.771   5.558
 5611TIP3   OH216777   0.802   4.765   2.864
 5611TIP3    H116778   0.799   4.860   2.856
 5611TIP3    H216779   0.718   4.741   2.902
 5612TIP3   OH216780   3.354   7.409   5.215
 5612TIP3    H116781   3.426   7.471   5.229
 5612TIP3    H216782   3.365   7.344   5.285
 5613TIP3   OH216783   0.885   4.619   6.265
 5613TIP3    H116784   0.945   4.586   6.332
 5613TIP3    H216785   0.934   4.612   6.183
 5614TIP3   OH216786   3.213   0.473   0.401
 5614TIP3    H116787   3.293   0.421   0.400
 5614TIP3    H216788   3.143   0.409   0.391
 5615TIP3   OH216789   6.801   2.012   4.384
 5615TIP3    H116790   6.749   2.078   4.339
 5615TIP3    H216791   6.846   1.965   4.315
 5616TIP3   OH216792   7.637   0.686   3.552
 5616TIP3    H116793   7.637   0.628   3.628
 5616TIP3    H216794   7.544   0.700   3.533
 5617TIP3   OH216795   6.043   5.683   1.146
 5617TIP3    H116796   6.025   5.595   1.113
 5617TIP3    H216797   5.972   5.700   1.209
 5618TIP3   OH216798   0.759   6.209   6.516
 5618TIP3    H116799   0.794   6.155   6.444
 5618TIP3    H216800   0.736   6.292   6.475
 5619TIP3   OH216801   7.663   6.206   6.306
 5619TIP3    H116802   7.710   6.189   6.387
 5619TIP3    H216803   7.635   6.297   6.312
 5620TIP3   OH216804   6.617   5.738   4.203
 5620TIP3    H116805   6.661   5.744   4.288
 5620TIP3    H216806   6.533   5.782   4.216
 5621TIP3   OH216807   1.186   2.249   1.841
 5621TIP3    H116808   1.168   2.203   1.759
 5621TIP3    H216809   1.166   2.340   1.822
 5622TIP3   OH216810   4.693   2.497   5.220
 5622TIP3    H116811   4.634   2.447   5.277
 5622TIP3    H216812   4.768   2.517   5.275
 5623TIP3   OH216813   2.109   5.853   0.367
 5623TIP3    H116814   2.204   5.861   0.379
 5623TIP3    H216815   2.099   5.796   0.291
 5624TIP3   OH216816   4.317   2.487   5.131
 5624TIP3    H116817   4.275   2.561   5.088
 5624TIP3    H216818   4.398   2.473   5.081
 5625TIP3   OH216819   3.090   6.983   0.658
 5625TIP3    H116820   3.086   6.911   0.720
 5625TIP3    H216821   3.180   7.016   0.663
 5626TIP3   OH216822   3.657   3.535   2.791
 5626TIP3    H116823   3.668   3.440   2.788
 5626TIP3    H216824   3.608   3.552   2.871
 5627TIP3   OH216825   4.577   4.425   3.215
 5627TIP3    H116826   4.526   4.473   3.150
 5627TIP3    H216827   4.516   4.360   3.250
 5628TIP3   OH216828   2.352   0.378   6.727
 5628TIP3    H116829   2.264   0.412   6.744
 5628TIP3    H216830   2.389   0.437   6.660
 5629TIP3   OH216831   6.204   7.556   2.650
 5629TIP3    H116832   6.163   7.573   2.565
 5629TIP3    H216833   6.182   7.465   2.670
 5630TIP3   OH216834   0.272   7.613   2.245
 5630TIP3    H116835   0.275   7.582   2.155
 5630TIP3    H216836   0.361   7.642   2.264
 5631TIP3   OH216837   1.020   3.333   6.584
 5631TIP3    H116838   1.038   3.241   6.602
 5631TIP3    H216839   0.924   3.340   6.588
 5632TIP3   OH216840   6.013   3.433   4.206
 5632TIP3    H116841   5.952   3.436   4.133
 5632TIP3    H216842   6.067   3.356   4.189
 5633TIP3   OH216843   2.733   6.758   5.696
 5633TIP3    H116844   2.695   6.733   5.781
 5633TIP3    H216845   2.821   6.721   5.697
 5634TIP3   OH216846   5.290   5.443   4.812
 5634TIP3    H116847   5.229   5.433   4.740
 5634TIP3    H216848   5.372   5.406   4.780
 5635TIP3   OH216849   4.648   7.699   0.533
 5635TIP3    H116850   4.710   7.771   0.519
 5635TIP3    H216851   4.652   7.648   0.452
 5636TIP3   OH216852   6.102   4.456   3.254
 5636TIP3    H116853   6.116   4.404   3.333
 5636TIP3    H216854   6.124   4.545   3.280
 5637TIP3   OH216855   1.347   4.478   4.683
 5637TIP3    H116856   1.285   4.470   4.611
 5637TIP3    H216857   1.308   4.426   4.754
 5638TIP3   OH216858   3.746   7.112   5.719
 5638TIP3    H116859   3.833   7.079   5.697
 5638TIP3    H216860   3.686   7.047   5.681
 5639TIP3   OH216861   3.056   5.918   1.471
 5639TIP3    H116862   2.963   5.897   1.472
 5639TIP3    H216863   3.070   5.966   1.390
 5640TIP3   OH216864   5.203   7.145   3.807
 5640TIP3    H116865   5.273   7.169   3.746
 5640TIP3    H216866   5.243   7.079   3.865
 5641TIP3   OH216867   4.614   1.663   6.178
 5641TIP3    H116868   4.527   1.650   6.142
 5641TIP3    H216869   4.640   1.750   6.148
 5642TIP3   OH216870   1.637   0.778   4.404
 5642TIP3    H116871   1.572   0.844   4.429
 5642TIP3    H216872   1.720   0.812   4.435
 5643TIP3   OH216873   3.749   4.279   1.724
 5643TIP3    H116874   3.804   4.349   1.689
 5643TIP3    H216875   3.808   4.225   1.776
 5644TIP3   OH216876   3.258   7.343   2.161
 5644TIP3    H116877   3.332   7.404   2.167
 5644TIP3    H216878   3.265   7.306   2.073
 5645TIP3   OH216879   3.517   7.439   4.406
 5645TIP3    H116880   3.450   7.502   4.434
 5645TIP3    H216881   3.510   7.438   4.310
 5646TIP3   OH216882   6.399   0.168   2.186
 5646TIP3    H116883   6.313   0.128   2.172
 5646TIP3    H216884   6.386   0.230   2.257
 5647TIP3   OH216885   6.013   2.258   4.138
 5647TIP3    H116886   5.936   2.224   4.185
 5647TIP3    H216887   6.083   2.256   4.203
 5648TIP3   OH216888   2.379   0.455   3.641
 5648TIP3    H116889   2.303   0.480   3.694
 5648TIP3    H216890   2.361   0.365   3.613
 5649TIP3   OH216891   3.229   2.838   6.243
 5649TIP3    H116892   3.152   2.888   6.217
 5649TIP3    H216893   3.222   2.755   6.195
 5650TIP3   OH216894   6.738   1.788   3.406
 5650TIP3    H116895   6.796   1.863   3.398
 5650TIP3    H216896   6.739   1.766   3.499
 5651TIP3   OH216897   5.601   1.810   3.379
 5651TIP3    H116898   5.606   1.886   3.322
 5651TIP3    H216899   5.677   1.757   3.356
 5652TIP3   OH216900   5.655   1.211   1.408
 5652TIP3    H116901   5.703   1.233   1.328
 5652TIP3    H216902   5.663   1.116   1.416
 5653TIP3   OH216903   7.081   1.355   6.759
 5653TIP3    H116904   7.126   1.418   6.816
 5653TIP3    H216905   7.113   1.376   6.671
 5654TIP3   OH216906   3.911   4.481   4.982
 5654TIP3    H116907   3.845   4.510   4.919
 5654TIP3    H216908   3.947   4.401   4.944
 5655TIP3   OH216909   6.822   4.629   6.049
 5655TIP3    H116910   6.744   4.591   6.009
 5655TIP3    H216911   6.810   4.614   6.143
 5656TIP3   OH216912   5.758   5.396   2.869
 5656TIP3    H116913   5.719   5.365   2.951
 5656TIP3    H216914   5.699   5.465   2.839
 5657TIP3   OH216915   5.617   5.237   0.053
 5657TIP3    H116916   5.558   5.260   0.125
 5657TIP3    H216917   5.559   5.220  -0.021
 5658TIP3   OH216918   7.036   2.943   3.695
 5658TIP3    H116919   7.075   2.958   3.609
 5658TIP3    H216920   7.063   3.019   3.747
 5659TIP3   OH216921   6.379   1.556   1.851
 5659TIP3    H116922   6.459   1.541   1.901
 5659TIP3    H216923   6.314   1.580   1.917
 5660TIP3   OH216924   1.241   7.058   5.646
 5660TIP3    H116925   1.216   6.998   5.575
 5660TIP3    H216926   1.285   7.130   5.601
 5661TIP3   OH216927   1.929   4.466   1.673
 5661TIP3    H116928   2.019   4.499   1.667
 5661TIP3    H216929   1.929   4.408   1.749
 5662TIP3   OH216930   5.500   7.300   0.614
 5662TIP3    H116931   5.516   7.206   0.602
 5662TIP3    H216932   5.432   7.304   0.682
 5663TIP3   OH216933   5.389   6.720   2.291
 5663TIP3    H116934   5.410   6.755   2.204
 5663TIP3    H216935   5.460   6.658   2.310
 5664TIP3   OH216936   0.639   7.049   5.696
 5664TIP3    H116937   0.615   6.982   5.633
 5664TIP3    H216938   0.587   7.028   5.774
 5665TIP3   OH216939   5.523   0.197   1.042
 5665TIP3    H116940   5.545   0.229   1.129
 5665TIP3    H216941   5.556   0.265   0.982
 5666TIP3   OH216942   7.488   7.231   3.219
 5666TIP3    H116943   7.440   7.159   3.179
 5666TIP3    H216944   7.531   7.275   3.146
 5667TIP3   OH216945   1.254   2.953   1.643
 5667TIP3    H116946   1.200   2.879   1.616
 5667TIP3    H216947   1.210   3.030   1.608
 5668TIP3   OH216948   2.580   1.941   1.368
 5668TIP3    H116949   2.586   2.035   1.354
 5668TIP3    H216950   2.669   1.909   1.351
 5669TIP3   OH216951   0.575   3.414   2.795
 5669TIP3    H116952   0.637   3.444   2.862
 5669TIP3    H216953   0.524   3.346   2.840
 5670TIP3   OH216954   4.108   4.703   0.854
 5670TIP3    H116955   4.073   4.618   0.827
 5670TIP3    H216956   4.181   4.681   0.913
 5671TIP3   OH216957   8.018   6.345   4.536
 5671TIP3    H116958   8.087   6.339   4.470
 5671TIP3    H216959   7.963   6.267   4.520
 5672TIP3   OH216960   7.301   6.939   6.743
 5672TIP3    H116961   7.267   7.021   6.779
 5672TIP3    H216962   7.394   6.956   6.729
 5673TIP3   OH216963   0.254   5.278   2.302
 5673TIP3    H116964   0.226   5.350   2.359
 5673TIP3    H216965   0.343   5.301   2.275
 5674TIP3   OH216966   3.820   7.574   1.278
 5674TIP3    H116967   3.901   7.597   1.323
 5674TIP3    H216968   3.764   7.651   1.289
 5675TIP3   OH216969   6.009   0.192   3.853
 5675TIP3    H116970   6.100   0.160   3.853
 5675TIP3    H216971   6.016   0.283   3.883
 5676TIP3   OH216972   7.350   7.249   2.668
 5676TIP3    H116973   7.400   7.240   2.587
 5676TIP3    H216974   7.286   7.317   2.650
 5677TIP3   OH216975   7.928   0.894   1.861
 5677TIP3    H116976   7.859   0.940   1.813
 5677TIP3    H216977   7.896   0.803   1.866
 5678TIP3   OH216978   6.424   2.152   1.511
 5678TIP3    H116979   6.404   2.245   1.506
 5678TIP3    H216980   6.356   2.110   1.458
 5679TIP3   OH216981   5.509   3.486   1.233
 5679TIP3    H116982   5.477   3.531   1.155
 5679TIP3    H216983   5.603   3.475   1.218
 5680TIP3   OH216984   6.902   4.001   2.468
 5680TIP3    H116985   6.939   4.079   2.510
 5680TIP3    H216986   6.932   4.006   2.377
 5681TIP3   OH216987   2.279   6.782   1.472
 5681TIP3    H116988   2.195   6.751   1.438
 5681TIP3    H216989   2.286   6.872   1.439
 5682TIP3   OH216990   6.688   6.779   1.297
 5682TIP3    H116991   6.704   6.839   1.369
 5682TIP3    H216992   6.615   6.818   1.249
 5683TIP3   OH216993   3.146   2.756   2.728
 5683TIP3    H116994   3.121   2.848   2.717
 5683TIP3    H216995   3.241   2.758   2.737
 5684TIP3   OH216996   7.673   2.108   3.650
 5684TIP3    H116997   7.757   2.153   3.652
 5684TIP3    H216998   7.608   2.178   3.638
 5685TIP3   OH216999   6.296   6.472   2.269
 5685TIP3    H117000   6.320   6.514   2.352
 5685TIP3    H217001   6.333   6.384   2.276
 5686TIP3   OH217002   5.189   3.184   1.067
 5686TIP3    H117003   5.266   3.181   1.123
 5686TIP3    H217004   5.126   3.238   1.116
 5687TIP3   OH217005   0.530   3.757   5.324
 5687TIP3    H117006   0.443   3.722   5.340
 5687TIP3    H217007   0.516   3.831   5.265
 5688TIP3   OH217008   7.031   5.867   0.396
 5688TIP3    H117009   7.065   5.799   0.338
 5688TIP3    H217010   7.086   5.944   0.378
 5689TIP3   OH217011   1.590   4.392   3.471
 5689TIP3    H117012   1.574   4.298   3.469
 5689TIP3    H217013   1.515   4.430   3.425
 5690TIP3   OH217014   7.014   2.473   4.712
 5690TIP3    H117015   6.994   2.548   4.656
 5690TIP3    H217016   7.012   2.397   4.653
 5691TIP3   OH217017   2.072   5.247   0.138
 5691TIP3    H117018   2.094   5.291   0.220
 5691TIP3    H217019   1.986   5.209   0.153
 5692TIP3   OH217020   1.723   5.965   1.536
 5692TIP3    H117021   1.722   5.996   1.627
 5692TIP3    H217022   1.813   5.938   1.521
 5693TIP3   OH217023   4.781   3.731   0.665
 5693TIP3    H117024   4.699   3.690   0.692
 5693TIP3    H217025   4.763   3.765   0.577
 5694TIP3   OH217026   3.521   7.126   3.126
 5694TIP3    H117027   3.576   7.083   3.191
 5694TIP3    H217028   3.582   7.164   3.063
 5695TIP3   OH217029   7.771   7.541   4.135
 5695TIP3    H117030   7.705   7.534   4.204
 5695TIP3    H217031   7.724   7.583   4.062
 5696TIP3   OH217032   6.211   4.935   3.694
 5696TIP3    H117033   6.198   4.841   3.706
 5696TIP3    H217034   6.235   4.967   3.781
 5697TIP3   OH217035   6.041   4.281   6.422
 5697TIP3    H117036   6.074   4.232   6.347
 5697TIP3    H217037   6.089   4.364   6.419
 5698TIP3   OH217038   7.786   6.739   3.083
 5698TIP3    H117039   7.881   6.743   3.097
 5698TIP3    H217040   7.764   6.824   3.046
 5699TIP3   OH217041   8.054   5.574   2.339
 5699TIP3    H117042   8.062   5.666   2.365
 5699TIP3    H217043   8.035   5.528   2.421
 5700TIP3   OH217044   8.111   3.785   1.069
 5700TIP3    H117045   8.057   3.719   1.111
 5700TIP3    H217046   8.078   3.869   1.102
 5701TIP3   OH217047   1.531   2.931   3.946
 5701TIP3    H117048   1.491   3.000   3.891
 5701TIP3    H217049   1.525   2.965   4.035
 5702TIP3   OH217050   4.178   5.706   5.255
 5702TIP3    H117051   4.218   5.734   5.173
 5702TIP3    H217052   4.226   5.626   5.279
 5703TIP3   OH217053   6.597   4.495   1.113
 5703TIP3    H117054   6.597   4.435   1.188
 5703TIP3    H217055   6.641   4.446   1.043
 5704TIP3   OH217056   2.895   5.335   3.048
 5704TIP3    H117057   2.912   5.404   2.983
 5704TIP3    H217058   2.868   5.259   2.996
 5705TIP3   OH217059   1.844   7.635   3.954
 5705TIP3    H117060   1.828   7.706   4.016
 5705TIP3    H217061   1.892   7.677   3.882
 5706TIP3   OH217062   4.649   3.028   5.116
 5706TIP3    H117063   4.610   2.944   5.138
 5706TIP3    H217064   4.581   3.074   5.067
 5707TIP3   OH217065   7.316   6.195   6.327
 5707TIP3    H117066   7.387   6.259   6.329
 5707TIP3    H217067   7.357   6.113   6.303
 5708TIP3   OH217068   1.694   6.069   3.270
 5708TIP3    H117069   1.783   6.045   3.242
 5708TIP3    H217070   1.639   6.050   3.194
 5709TIP3   OH217071   5.277   4.313   0.784
 5709TIP3    H117072   5.245   4.289   0.696
 5709TIP3    H217073   5.325   4.395   0.771
 5710TIP3   OH217074   1.068   2.700   1.821
 5710TIP3    H117075   1.141   2.642   1.796
 5710TIP3    H217076   1.004   2.688   1.751
 5711TIP3   OH217077   4.979   3.638   5.837
 5711TIP3    H117078   5.009   3.551   5.812
 5711TIP3    H217079   5.022   3.655   5.921
 5712TIP3   OH217080   3.858   7.186   6.259
 5712TIP3    H117081   3.921   7.240   6.210
 5712TIP3    H217082   3.811   7.248   6.314
 5713TIP3   OH217083   1.777   2.749   0.435
 5713TIP3    H117084   1.837   2.814   0.398
 5713TIP3    H217085   1.696   2.798   0.450
 5714TIP3   OH217086   1.671   1.074   0.378
 5714TIP3    H117087   1.738   1.037   0.321
 5714TIP3    H217088   1.637   0.998   0.426
 5715TIP3   OH217089   3.970   0.797   6.676
 5715TIP3    H117090   3.979   0.886   6.710
 5715TIP3    H217091   4.052   0.754   6.702
 5716TIP3   OH217092   5.355   5.967   2.552
 5716TIP3    H117093   5.369   5.991   2.644
 5716TIP3    H217094   5.437   5.925   2.526
 5717TIP3   OH217095   1.515   5.078   5.737
 5717TIP3    H117096   1.600   5.065   5.695
 5717TIP3    H217097   1.483   5.161   5.701
 5718TIP3   OH217098   0.086   1.614   2.094
 5718TIP3    H117099   0.015   1.589   2.035
 5718TIP3    H217100   0.042   1.643   2.174
 5719TIP3   OH217101   2.658   0.525   3.187
 5719TIP3    H117102   2.695   0.440   3.212
 5719TIP3    H217103   2.584   0.537   3.246
 5720TIP3   OH217104   5.242   7.509   0.335
 5720TIP3    H117105   5.182   7.512   0.409
 5720TIP3    H217106   5.274   7.419   0.333
 5721TIP3   OH217107   4.687   6.441   4.639
 5721TIP3    H117108   4.752   6.390   4.592
 5721TIP3    H217109   4.718   6.442   4.730
 5722TIP3   OH217110   4.449   3.744   5.624
 5722TIP3    H117111   4.465   3.822   5.572
 5722TIP3    H217112   4.456   3.774   5.715
 5723TIP3   OH217113   4.943   3.798   6.416
 5723TIP3    H117114   4.958   3.819   6.324
 5723TIP3    H217115   4.997   3.721   6.432
 5724TIP3   OH217116   4.110   0.407   6.649
 5724TIP3    H117117   4.174   0.336   6.644
 5724TIP3    H217118   4.148   0.468   6.712
 5725TIP3   OH217119   4.738   0.439   1.941
 5725TIP3    H117120   4.807   0.388   1.984
 5725TIP3    H217121   4.674   0.374   1.912
 5726TIP3   OH217122   6.121   6.419   3.902
 5726TIP3    H117123   6.199   6.438   3.954
 5726TIP3    H217124   6.151   6.424   3.811
 5727TIP3   OH217125   5.370   7.108   5.762
 5727TIP3    H117126   5.362   7.065   5.847
 5727TIP3    H217127   5.427   7.049   5.712
 5728TIP3   OH217128   5.297   3.688   2.415
 5728TIP3    H117129   5.350   3.662   2.491
 5728TIP3    H217130   5.291   3.609   2.362
 5729TIP3   OH217131   3.474   2.367   3.843
 5729TIP3    H117132   3.419   2.445   3.832
 5729TIP3    H217133   3.559   2.393   3.808
 5730TIP3   OH217134   0.792   4.843   5.862
 5730TIP3    H117135   0.874   4.891   5.864
 5730TIP3    H217136   0.818   4.751   5.858
 5731TIP3   OH217137   1.695   2.473   4.671
 5731TIP3    H117138   1.766   2.412   4.690
 5731TIP3    H217139   1.652   2.486   4.756
 5732TIP3   OH217140   5.002   1.588   6.484
 5732TIP3    H117141   5.076   1.549   6.436
 5732TIP3    H217142   5.027   1.680   6.494
 5733TIP3   OH217143   4.738   0.789   5.296
 5733TIP3    H117144   4.790   0.741   5.361
 5733TIP3    H217145   4.795   0.861   5.269
 5734TIP3   OH217146   4.320   3.580   4.468
 5734TIP3    H117147   4.413   3.559   4.456
 5734TIP3    H217148   4.291   3.608   4.382
 5735TIP3   OH217149   5.455   7.156   3.668
 5735TIP3    H117150   5.453   7.060   3.667
 5735TIP3    H217151   5.512   7.180   3.595
 5736TIP3   OH217152   2.874   2.768   2.965
 5736TIP3    H117153   2.894   2.862   2.962
 5736TIP3    H217154   2.794   2.758   2.913
 5737TIP3   OH217155   1.759   0.441   3.168
 5737TIP3    H117156   1.726   0.466   3.082
 5737TIP3    H217157   1.826   0.375   3.151
 5738TIP3   OH217158   0.114   2.929   4.786
 5738TIP3    H117159   0.174   3.001   4.802
 5738TIP3    H217160   0.065   2.920   4.868
 5739TIP3   OH217161   4.580   7.458   0.647
 5739TIP3    H117162   4.592   7.459   0.742
 5739TIP3    H217163   4.592   7.549   0.621
 5740TIP3   OH217164   0.895   4.908   1.035
 5740TIP3    H117165   0.925   4.824   1.002
 5740TIP3    H217166   0.801   4.909   1.016
 5741TIP3   OH217167   5.055   6.832   1.588
 5741TIP3    H117168   5.011   6.875   1.514
 5741TIP3    H217169   4.986   6.777   1.627
 5742TIP3   OH217170   4.643   4.565   4.182
 5742TIP3    H117171   4.567   4.622   4.182
 5742TIP3    H217172   4.637   4.517   4.099
 5743TIP3   OH217173   6.836   3.660   6.300
 5743TIP3    H117174   6.783   3.625   6.371
 5743TIP3    H217175   6.829   3.755   6.310
 5744TIP3   OH217176   8.131   1.617   5.431
 5744TIP3    H117177   8.111   1.703   5.395
 5744TIP3    H217178   8.198   1.581   5.374
 5745TIP3   OH217179   2.610   5.584   1.427
 5745TIP3    H117180   2.568   5.664   1.457
 5745TIP3    H217181   2.669   5.612   1.357
 5746TIP3   OH217182   5.608   5.600   5.101
 5746TIP3    H117183   5.555   5.520   5.109
 5746TIP3    H217184   5.697   5.571   5.121
 5747TIP3   OH217185   0.218   7.353   1.183
 5747TIP3    H117186   0.285   7.286   1.169
 5747TIP3    H217187   0.217   7.403   1.102
 5748TIP3   OH217188   3.968   2.978   6.530
 5748TIP3    H117189   4.002   2.971   6.441
 5748TIP3    H217190   4.044   3.007   6.582
 5749TIP3   OH217191   7.566   2.210   1.115
 5749TIP3    H117192   7.546   2.155   1.191
 5749TIP3    H217193   7.560   2.149   1.041
 5750TIP3   OH217194   7.377   1.421   1.666
 5750TIP3    H117195   7.311   1.489   1.653
 5750TIP3    H217196   7.368   1.364   1.590
 5751TIP3   OH217197   3.840   2.739   3.759
 5751TIP3    H117198   3.783   2.796   3.810
 5751TIP3    H217199   3.876   2.677   3.822
 5752TIP3   OH217200   4.912   5.005   4.988
 5752TIP3    H117201   4.940   4.978   5.076
 5752TIP3    H217202   4.994   5.018   4.940
 5753TIP3   OH217203   6.914   2.654   6.418
 5753TIP3    H117204   6.921   2.719   6.488
 5753TIP3    H217205   6.914   2.706   6.338
 5754TIP3   OH217206   1.127   2.049   1.629
 5754TIP3    H117207   1.198   2.071   1.568
 5754TIP3    H217208   1.051   2.035   1.572
 5755TIP3   OH217209   3.884   0.694   1.907
 5755TIP3    H117210   3.873   0.690   2.002
 5755TIP3    H217211   3.797   0.674   1.872
 5756TIP3   OH217212   0.410   6.585   0.790
 5756TIP3    H117213   0.424   6.589   0.885
 5756TIP3    H217214   0.359   6.505   0.777
 5757TIP3   OH217215  -0.040   6.587   0.650
 5757TIP3    H117216  -0.018   6.673   0.615
 5757TIP3    H217217  -0.072   6.537   0.575
 5758TIP3   OH217218   5.613   5.842   2.562
 5758TIP3    H117219   5.700   5.880   2.569
 5758TIP3    H217220   5.617   5.789   2.482
 5759TIP3   OH217221   7.786   0.597   5.643
 5759TIP3    H117222   7.726   0.586   5.569
 5759TIP3    H217223   7.748   0.669   5.694
 5760TIP3   OH217224   4.992   6.205   6.589
 5760TIP3    H117225   4.925   6.272   6.599
 5760TIP3    H217226   5.011   6.177   6.679
 5761TIP3   OH217227   8.181   3.794   6.062
 5761TIP3    H117228   8.127   3.864   6.100
 5761TIP3    H217229   8.270   3.818   6.086
 5762TIP3   OH217230   5.148   6.937   6.608
 5762TIP3    H117231   5.239   6.964   6.620
 5762TIP3    H217232   5.154   6.849   6.573
 5763TIP3   OH217233   2.940   1.364   5.855
 5763TIP3    H117234   2.853   1.337   5.827
 5763TIP3    H217235   2.984   1.394   5.775
 5764TIP3   OH217236   8.256   0.897   4.772
 5764TIP3    H117237   8.265   0.858   4.859
 5764TIP3    H217238   8.289   0.986   4.782
 5765TIP3   OH217239   7.518   2.980   0.379
 5765TIP3    H117240   7.497   2.930   0.458
 5765TIP3    H217241   7.549   2.913   0.317
 5766TIP3   OH217242   5.898   3.384   4.890
 5766TIP3    H117243   5.866   3.321   4.825
 5766TIP3    H217244   5.985   3.353   4.912
 5767TIP3   OH217245   6.986   0.271   1.548
 5767TIP3    H117246   6.896   0.253   1.575
 5767TIP3    H217247   7.014   0.190   1.505
 5768TIP3   OH217248   7.888   3.530   5.928
 5768TIP3    H117249   7.963   3.556   5.874
 5768TIP3    H217250   7.919   3.540   6.018
 5769TIP3   OH217251   1.145   4.371   6.108
 5769TIP3    H117252   1.071   4.310   6.103
 5769TIP3    H217253   1.214   4.329   6.056
 5770TIP3   OH217254   6.851   7.192   6.240
 5770TIP3    H117255   6.858   7.281   6.274
 5770TIP3    H217256   6.762   7.187   6.205
 5771TIP3   OH217257   8.063   0.170   5.974
 5771TIP3    H117258   8.012   0.120   5.911
 5771TIP3    H217259   8.090   0.106   6.040
 5772TIP3   OH217260   4.754   3.289   5.920
 5772TIP3    H117261   4.748   3.334   6.005
 5772TIP3    H217262   4.834   3.324   5.881
 5773TIP3   OH217263   2.131   0.768   3.082
 5773TIP3    H117264   2.127   0.852   3.129
 5773TIP3    H217265   2.091   0.706   3.143
 5774TIP3   OH217266   6.106   2.650   5.718
 5774TIP3    H117267   6.089   2.613   5.632
 5774TIP3    H217268   6.034   2.712   5.731
 5775TIP3   OH217269   5.242   4.121   2.160
 5775TIP3    H117270   5.241   4.200   2.214
 5775TIP3    H217271   5.277   4.149   2.076
 5776TIP3   OH217272   5.614   0.077   3.660
 5776TIP3    H117273   5.623   0.122   3.744
 5776TIP3    H217274   5.565  -0.003   3.680
 5777TIP3   OH217275   0.330   6.003   0.189
 5777TIP3    H117276   0.306   5.927   0.136
 5777TIP3    H217277   0.252   6.058   0.188
 5778TIP3   OH217278   6.520   4.972   4.860
 5778TIP3    H117279   6.587   4.915   4.822
 5778TIP3    H217280   6.551   5.061   4.843
 5779TIP3   OH217281   0.480   3.599   6.742
 5779TIP3    H117282   0.440   3.595   6.829
 5779TIP3    H217283   0.568   3.563   6.755
 5780TIP3   OH217284   1.041   0.782   1.278
 5780TIP3    H117285   1.050   0.792   1.183
 5780TIP3    H217286   0.955   0.820   1.298
 5781TIP3   OH217287   5.214   0.248   2.651
 5781TIP3    H117288   5.289   0.243   2.592
 5781TIP3    H217289   5.185   0.339   2.645
 5782TIP3   OH217290   8.057   1.476   4.025
 5782TIP3    H117291   8.025   1.561   3.994
 5782TIP3    H217292   8.047   1.418   3.950
 5783TIP3   OH217293   1.602   1.984   4.107
 5783TIP3    H117294   1.641   1.952   4.188
 5783TIP3    H217295   1.507   1.976   4.121
 5784TIP3   OH217296   4.899   5.406   5.576
 5784TIP3    H117297   4.859   5.321   5.595
 5784TIP3    H217298   4.992   5.387   5.564
 5785TIP3   OH217299   5.384   1.317   3.553
 5785TIP3    H117300   5.370   1.252   3.621
 5785TIP3    H217301   5.309   1.306   3.494
 5786TIP3   OH217302   7.747   4.171   0.703
 5786TIP3    H117303   7.824   4.220   0.672
 5786TIP3    H217304   7.768   4.150   0.794
 5787TIP3   OH217305   5.006   7.040   1.973
 5787TIP3    H117306   5.074   7.047   2.041
 5787TIP3    H217307   5.050   7.067   1.893
 5788TIP3   OH217308   5.988   3.129   4.826
 5788TIP3    H117309   6.052   3.125   4.755
 5788TIP3    H217310   5.921   3.064   4.802
 5789TIP3   OH217311   7.507   7.784   6.621
 5789TIP3    H117312   7.418   7.769   6.590
 5789TIP3    H217313   7.503   7.868   6.666
 5790TIP3   OH217314   7.113   5.946   3.633
 5790TIP3    H117315   7.088   6.002   3.706
 5790TIP3    H217316   7.173   5.882   3.672
 5791TIP3   OH217317   1.361   3.326   5.334
 5791TIP3    H117318   1.300   3.255   5.314
 5791TIP3    H217319   1.362   3.379   5.255
 5792TIP3   OH217320   2.710   3.738   5.094
 5792TIP3    H117321   2.713   3.825   5.135
 5792TIP3    H217322   2.670   3.753   5.009
 5793TIP3   OH217323   0.222   0.512   3.412
 5793TIP3    H117324   0.143   0.463   3.387
 5793TIP3    H217325   0.264   0.533   3.329
 5794TIP3   OH217326   7.215   2.099   2.389
 5794TIP3    H117327   7.246   2.184   2.420
 5794TIP3    H217328   7.120   2.110   2.381
 5795TIP3   OH217329   5.844   2.354   0.225
 5795TIP3    H117330   5.825   2.327   0.135
 5795TIP3    H217331   5.939   2.351   0.232
 5796TIP3   OH217332   4.384   0.201   2.319
 5796TIP3    H117333   4.361   0.195   2.226
 5796TIP3    H217334   4.328   0.271   2.352
 5797TIP3   OH217335   3.115   7.395   6.635
 5797TIP3    H117336   3.201   7.358   6.656
 5797TIP3    H217337   3.056   7.320   6.635
 5798TIP3   OH217338   7.521   5.364   2.188
 5798TIP3    H117339   7.488   5.452   2.206
 5798TIP3    H217340   7.462   5.306   2.236
 5799TIP3   OH217341   2.160   4.398   2.467
 5799TIP3    H117342   2.074   4.389   2.506
 5799TIP3    H217343   2.154   4.351   2.384
 5800TIP3   OH217344   6.627   4.966   4.435
 5800TIP3    H117345   6.575   4.918   4.500
 5800TIP3    H217346   6.679   5.028   4.487
 5801TIP3   OH217347   0.859   7.024   3.273
 5801TIP3    H117348   0.868   6.979   3.188
 5801TIP3    H217349   0.838   7.114   3.250
 5802TIP3   OH217350   5.029   5.535   2.740
 5802TIP3    H117351   5.080   5.605   2.700
 5802TIP3    H217352   5.068   5.455   2.707
 5803TIP3   OH217353   7.789   2.707   4.283
 5803TIP3    H117354   7.802   2.623   4.327
 5803TIP3    H217355   7.797   2.686   4.189
 5804TIP3   OH217356   3.072   5.155   5.906
 5804TIP3    H117357   3.066   5.249   5.926
 5804TIP3    H217358   3.119   5.152   5.823
 5805TIP3   OH217359   7.825   0.192   3.720
 5805TIP3    H117360   7.732   0.209   3.705
 5805TIP3    H217361   7.847   0.243   3.798
 5806TIP3   OH217362   1.807   2.887   2.358
 5806TIP3    H117363   1.746   2.833   2.409
 5806TIP3    H217364   1.762   2.971   2.348
 5807TIP3   OH217365   5.844   0.080   0.701
 5807TIP3    H117366   5.909   0.142   0.736
 5807TIP3    H217367   5.881   0.053   0.617
 5808TIP3   OH217368   5.908   1.289   6.403
 5808TIP3    H117369   5.911   1.384   6.413
 5808TIP3    H217370   5.976   1.256   6.462
 5809TIP3   OH217371   6.152   2.916   3.432
 5809TIP3    H117372   6.081   2.971   3.466
 5809TIP3    H217373   6.218   2.917   3.502
 5810TIP3   OH217374   2.454   7.600   4.108
 5810TIP3    H117375   2.384   7.607   4.043
 5810TIP3    H217376   2.420   7.646   4.185
 5811TIP3   OH217377   2.021   2.362   6.393
 5811TIP3    H117378   2.109   2.386   6.366
 5811TIP3    H217379   1.971   2.443   6.387
 5812TIP3   OH217380   6.478   1.811   3.259
 5812TIP3    H117381   6.420   1.804   3.335
 5812TIP3    H217382   6.566   1.806   3.294
 5813TIP3   OH217383   2.564   1.686   5.498
 5813TIP3    H117384   2.528   1.687   5.410
 5813TIP3    H217385   2.487   1.683   5.556
 5814TIP3   OH217386   8.111   3.862   5.195
 5814TIP3    H117387   8.181   3.913   5.237
 5814TIP3    H217388   8.156   3.789   5.154
 5815TIP3   OH217389   2.790   6.367   5.543
 5815TIP3    H117390   2.864   6.422   5.515
 5815TIP3    H217391   2.831   6.298   5.596
 5816TIP3   OH217392   1.566   5.501   6.585
 5816TIP3    H117393   1.660   5.516   6.593
 5816TIP3    H217394   1.531   5.583   6.551
 5817TIP3   OH217395   8.286   2.740   6.154
 5817TIP3    H117396   8.331   2.803   6.099
 5817TIP3    H217397   8.330   2.657   6.136
 5818TIP3   OH217398   5.437   0.750   1.573
 5818TIP3    H117399   5.483   0.808   1.512
 5818TIP3    H217400   5.345   0.773   1.563
 5819TIP3   OH217401   6.354   6.390   0.897
 5819TIP3    H117402   6.323   6.466   0.947
 5819TIP3    H217403   6.412   6.427   0.831
 5820TIP3   OH217404   0.843   7.299   4.038
 5820TIP3    H117405   0.777   7.250   3.990
 5820TIP3    H217406   0.865   7.244   4.113
 5821TIP3   OH217407   6.749   5.542   6.601
 5821TIP3    H117408   6.735   5.512   6.690
 5821TIP3    H217409   6.784   5.630   6.610
 5822TIP3   OH217410   4.171   1.342   0.266
 5822TIP3    H117411   4.092   1.396   0.272
 5822TIP3    H217412   4.165   1.283   0.342
 5823TIP3   OH217413   5.505   5.030   0.279
 5823TIP3    H117414   5.458   5.076   0.348
 5823TIP3    H217415   5.546   4.955   0.322
 5824TIP3   OH217416   0.350   7.587   5.487
 5824TIP3    H117417   0.397   7.600   5.405
 5824TIP3    H217418   0.349   7.492   5.500
 5825TIP3   OH217419   6.885   4.216   5.761
 5825TIP3    H117420   6.893   4.122   5.742
 5825TIP3    H217421   6.793   4.235   5.745
 5826TIP3   OH217422   3.809   5.766   4.024
 5826TIP3    H117423   3.749   5.739   3.954
 5826TIP3    H217424   3.753   5.772   4.102
 5827TIP3   OH217425   6.806   6.311   1.460
 5827TIP3    H117426   6.712   6.299   1.454
 5827TIP3    H217427   6.825   6.307   1.554
 5828TIP3   OH217428   0.742   4.584   0.029
 5828TIP3    H117429   0.802   4.541  -0.032
 5828TIP3    H217430   0.719   4.515   0.092
 5829TIP3   OH217431   6.768   5.295   1.578
 5829TIP3    H117432   6.793   5.356   1.648
 5829TIP3    H217433   6.835   5.226   1.582
 5830TIP3   OH217434   1.898   1.994   2.215
 5830TIP3    H117435   1.905   2.071   2.159
 5830TIP3    H217436   1.820   1.949   2.184
 5831TIP3   OH217437   0.299   2.275   0.198
 5831TIP3    H117438   0.390   2.251   0.180
 5831TIP3    H217439   0.304   2.324   0.280
 5832TIP3   OH217440   6.408   7.533   0.133
 5832TIP3    H117441   6.444   7.615   0.167
 5832TIP3    H217442   6.470   7.506   0.065
 5833TIP3   OH217443   7.882  -0.019   6.644
 5833TIP3    H117444   7.873   0.071   6.611
 5833TIP3    H217445   7.890  -0.009   6.739
 5834TIP3   OH217446   1.790   3.510   3.440
 5834TIP3    H117447   1.867   3.542   3.488
 5834TIP3    H217448   1.738   3.589   3.424
 5835TIP3   OH217449   0.976   1.245   5.732
 5835TIP3    H117450   1.051   1.273   5.784
 5835TIP3    H217451   0.932   1.180   5.788
 5836TIP3   OH217452   3.117   6.984   5.803
 5836TIP3    H117453   3.138   6.960   5.893
 5836TIP3    H217454   3.197   7.025   5.770
 5837TIP3   OH217455   0.624   7.691   0.268
 5837TIP3    H117456   0.581   7.728   0.191
 5837TIP3    H217457   0.578   7.609   0.284
 5838TIP3   OH217458   4.572   2.743   0.782
 5838TIP3    H117459   4.537   2.654   0.785
 5838TIP3    H217460   4.561   2.776   0.871
 5839TIP3   OH217461   0.417   0.205   3.032
 5839TIP3    H117462   0.508   0.233   3.038
 5839TIP3    H217463   0.392   0.223   2.941
 5840TIP3   OH217464   7.762   7.137   5.181
 5840TIP3    H117465   7.709   7.120   5.103
 5840TIP3    H217466   7.815   7.213   5.158
 5841TIP3   OH217467   2.278   3.902   2.564
 5841TIP3    H117468   2.276   3.972   2.499
 5841TIP3    H217469   2.369   3.900   2.594
 5842TIP3   OH217470   7.488   6.316   4.585
 5842TIP3    H117471   7.494   6.382   4.655
 5842TIP3    H217472   7.448   6.240   4.627
 5843TIP3   OH217473   7.213   5.050   6.480
 5843TIP3    H117474   7.195   4.964   6.442
 5843TIP3    H217475   7.127   5.084   6.505
 5844TIP3   OH217476   7.720   4.477   5.366
 5844TIP3    H117477   7.737   4.474   5.272
 5844TIP3    H217478   7.674   4.560   5.379
 5845TIP3   OH217479   0.048   5.997   2.636
 5845TIP3    H117480   0.060   5.918   2.688
 5845TIP3    H217481   0.129   6.046   2.648
 5846TIP3   OH217482   3.318   5.536   3.824
 5846TIP3    H117483   3.370   5.562   3.748
 5846TIP3    H217484   3.274   5.456   3.797
 5847TIP3   OH217485   7.713   5.204   3.100
 5847TIP3    H117486   7.657   5.280   3.118
 5847TIP3    H217487   7.686   5.175   3.013
 5848TIP3   OH217488   3.925   1.602   0.392
 5848TIP3    H117489   3.846   1.553   0.368
 5848TIP3    H217490   3.964   1.551   0.463
 5849TIP3   OH217491   6.163   0.513   4.822
 5849TIP3    H117492   6.202   0.599   4.835
 5849TIP3    H217493   6.110   0.522   4.743
 5850TIP3   OH217494   1.509   5.125   3.606
 5850TIP3    H117495   1.580   5.182   3.577
 5850TIP3    H217496   1.528   5.109   3.699
 5851TIP3   OH217497   6.010   5.616   1.928
 5851TIP3    H117498   6.093   5.618   1.976
 5851TIP3    H217499   5.956   5.684   1.969
 5852TIP3   OH217500   0.302   5.947   4.688
 5852TIP3    H117501   0.288   5.922   4.780
 5852TIP3    H217502   0.220   5.926   4.644
 5853TIP3   OH217503   6.414   6.533   3.368
 5853TIP3    H117504   6.461   6.498   3.444
 5853TIP3    H217505   6.403   6.458   3.310
 5854TIP3   OH217506   1.717   0.488   4.360
 5854TIP3    H117507   1.644   0.439   4.322
 5854TIP3    H217508   1.728   0.564   4.303
 5855TIP3   OH217509   8.087   5.179   1.120
 5855TIP3    H117510   8.160   5.229   1.086
 5855TIP3    H217511   8.127   5.100   1.157
 5856TIP3   OH217512   0.741   4.435   3.889
 5856TIP3    H117513   0.721   4.500   3.822
 5856TIP3    H217514   0.697   4.356   3.859
 5857TIP3   OH217515   2.669   7.369   3.153
 5857TIP3    H117516   2.679   7.461   3.132
 5857TIP3    H217517   2.584   7.363   3.195
 5858TIP3   OH217518   4.756   4.327   2.988
 5858TIP3    H117519   4.711   4.389   3.045
 5858TIP3    H217520   4.687   4.270   2.956
 5859TIP3   OH217521   5.200   6.706   6.454
 5859TIP3    H117522   5.152   6.689   6.373
 5859TIP3    H217523   5.171   6.637   6.513
 5860TIP3   OH217524   6.309   3.677   4.458
 5860TIP3    H117525   6.273   3.667   4.370
 5860TIP3    H217526   6.400   3.650   4.450
 5861TIP3   OH217527   4.016   7.083   1.405
 5861TIP3    H117528   3.983   7.173   1.410
 5861TIP3    H217529   3.970   7.045   1.331
 5862TIP3   OH217530   8.282   0.385   3.539
 5862TIP3    H117531   8.198   0.348   3.568
 5862TIP3    H217532   8.347   0.323   3.571
 5863TIP3   OH217533   1.900   6.044   1.241
 5863TIP3    H117534   1.813   6.012   1.216
 5863TIP3    H217535   1.951   5.965   1.257
 5864TIP3   OH217536   4.747   5.512   3.772
 5864TIP3    H117537   4.782   5.423   3.770
 5864TIP3    H217538   4.668   5.508   3.717
 5865TIP3   OH217539   3.290   5.222   6.563
 5865TIP3    H117540   3.273   5.316   6.565
 5865TIP3    H217541   3.291   5.197   6.656
 5866TIP3   OH217542   2.621   1.419   0.290
 5866TIP3    H117543   2.543   1.404   0.343
 5866TIP3    H217544   2.686   1.453   0.351
 5867TIP3   OH217545   7.781   1.285   2.680
 5867TIP3    H117546   7.872   1.314   2.675
 5867TIP3    H217547   7.761   1.286   2.774
 5868TIP3   OH217548   6.978   1.850   5.075
 5868TIP3    H117549   6.921   1.920   5.107
 5868TIP3    H217550   6.976   1.784   5.144
 5869TIP3   OH217551   0.611   6.053   0.190
 5869TIP3    H117552   0.522   6.016   0.185
 5869TIP3    H217553   0.617   6.111   0.115
 5870TIP3   OH217554   7.213   2.051   5.001
 5870TIP3    H117555   7.223   2.054   5.096
 5870TIP3    H217556   7.271   2.119   4.969
 5871TIP3   OH217557   0.580   6.343   1.011
 5871TIP3    H117558   0.498   6.391   1.023
 5871TIP3    H217559   0.603   6.312   1.099
 5872TIP3   OH217560   1.751   6.830   2.144
 5872TIP3    H117561   1.793   6.913   2.167
 5872TIP3    H217562   1.761   6.775   2.222
 5873TIP3   OH217563   2.005   3.407   5.253
 5873TIP3    H117564   2.056   3.476   5.213
 5873TIP3    H217565   1.928   3.451   5.289
 5874TIP3   OH217566   0.878   2.041   1.504
 5874TIP3    H117567   0.792   2.017   1.536
 5874TIP3    H217568   0.885   1.998   1.418
 5875TIP3   OH217569   5.657   3.198   0.048
 5875TIP3    H117570   5.617   3.250  -0.021
 5875TIP3    H217571   5.621   3.110   0.036
 5876TIP3   OH217572   2.882   5.346   2.747
 5876TIP3    H117573   2.834   5.408   2.692
 5876TIP3    H217574   2.843   5.261   2.727
 5877TIP3   OH217575   5.968   0.933   5.833
 5877TIP3    H117576   6.018   1.013   5.815
 5877TIP3    H217577   5.908   0.958   5.903
 5878TIP3   OH217578   3.448   7.586   1.790
 5878TIP3    H117579   3.381   7.635   1.837
 5878TIP3    H217580   3.459   7.505   1.839
 5879TIP3   OH217581   0.308   6.830   6.610
 5879TIP3    H117582   0.333   6.912   6.653
 5879TIP3    H217583   0.343   6.839   6.521
 5880TIP3   OH217584   1.609   5.943   1.301
 5880TIP3    H117585   1.654   5.866   1.267
 5880TIP3    H217586   1.649   5.959   1.386
 5881TIP3   OH217587   5.527   7.223   5.051
 5881TIP3    H117588   5.514   7.300   4.997
 5881TIP3    H217589   5.538   7.257   5.140
 5882TIP3   OH217590   1.322   2.473   0.839
 5882TIP3    H117591   1.353   2.550   0.790
 5882TIP3    H217592   1.252   2.437   0.784
 5883TIP3   OH217593   4.316   6.688   4.161
 5883TIP3    H117594   4.349   6.639   4.085
 5883TIP3    H217595   4.223   6.699   4.143
 5884TIP3   OH217596   6.907   3.632   2.924
 5884TIP3    H117597   6.831   3.586   2.959
 5884TIP3    H217598   6.954   3.663   3.001
 5885TIP3   OH217599   7.900   2.400   3.875
 5885TIP3    H117600   7.858   2.474   3.831
 5885TIP3    H217601   7.893   2.327   3.814
 5886TIP3   OH217602   5.876   5.944   0.381
 5886TIP3    H117603   5.893   5.995   0.302
 5886TIP3    H217604   5.826   6.003   0.438
 5887TIP3   OH217605   1.278   3.733   2.267
 5887TIP3    H117606   1.249   3.760   2.354
 5887TIP3    H217607   1.327   3.809   2.233
 5888TIP3   OH217608   0.432   1.845   1.811
 5888TIP3    H117609   0.358   1.829   1.869
 5888TIP3    H217610   0.418   1.933   1.776
 5889TIP3   OH217611   0.700   3.299   4.118
 5889TIP3    H117612   0.611   3.281   4.087
 5889TIP3    H217613   0.748   3.322   4.038
 5890TIP3   OH217614   1.094   3.125   1.457
 5890TIP3    H117615   1.056   3.170   1.381
 5890TIP3    H217616   1.055   3.038   1.456
 5891TIP3   OH217617   5.508   4.445   4.139
 5891TIP3    H117618   5.549   4.421   4.056
 5891TIP3    H217619   5.581   4.454   4.201
 5892TIP3   OH217620   1.917   3.115   1.964
 5892TIP3    H117621   1.994   3.063   1.987
 5892TIP3    H217622   1.952   3.202   1.945
 5893TIP3   OH217623   7.075   1.338   1.081
 5893TIP3    H117624   6.997   1.350   1.026
 5893TIP3    H217625   7.107   1.427   1.095
 5894TIP3   OH217626   1.664   1.682   6.676
 5894TIP3    H117627   1.626   1.737   6.608
 5894TIP3    H217628   1.700   1.744   6.740
 5895TIP3   OH217629   0.282   5.395   0.682
 5895TIP3    H117630   0.364   5.347   0.696
 5895TIP3    H217631   0.260   5.379   0.590
 5896TIP3   OH217632   4.934   6.861   5.748
 5896TIP3    H117633   4.994   6.901   5.686
 5896TIP3    H217634   4.954   6.767   5.744
 5897TIP3   OH217635   0.464   3.973   3.027
 5897TIP3    H117636   0.491   3.940   3.113
 5897TIP3    H217637   0.417   3.900   2.987
 5898TIP3   OH217638   0.107   1.174   3.702
 5898TIP3    H117639   0.096   1.079   3.702
 5898TIP3    H217640   0.138   1.195   3.614
 5899TIP3   OH217641   7.716   1.800   2.020
 5899TIP3    H117642   7.762   1.788   1.937
 5899TIP3    H217643   7.648   1.865   2.001
 5900TIP3   OH217644   6.757   6.718   4.989
 5900TIP3    H117645   6.748   6.624   5.009
 5900TIP3    H217646   6.680   6.737   4.935
 5901TIP3   OH217647   6.499   3.826   4.774
 5901TIP3    H117648   6.566   3.834   4.707
 5901TIP3    H217649   6.461   3.740   4.761
 5902TIP3   OH217650   7.289   2.693   2.212
 5902TIP3    H117651   7.277   2.756   2.141
 5902TIP3    H217652   7.212   2.636   2.207
 5903TIP3   OH217653   7.831   4.087   5.664
 5903TIP3    H117654   7.762   4.090   5.730
 5903TIP3    H217655   7.793   4.133   5.588
 5904TIP3   OH217656   7.401   1.244   3.005
 5904TIP3    H117657   7.395   1.205   2.918
 5904TIP3    H217658   7.439   1.176   3.060
 5905TIP3   OH217659   0.555   0.618   2.973
 5905TIP3    H117660   0.534   0.567   3.052
 5905TIP3    H217661   0.645   0.595   2.952
 5906TIP3   OH217662   4.865   2.555   0.860
 5906TIP3    H117663   4.909   2.635   0.888
 5906TIP3    H217664   4.826   2.578   0.776
 5907TIP3   OH217665   0.495   0.114   4.948
 5907TIP3    H117666   0.451   0.031   4.931
 5907TIP3    H217667   0.506   0.117   5.043
 5908TIP3   OH217668   1.343   7.527   3.485
 5908TIP3    H117669   1.343   7.621   3.502
 5908TIP3    H217670   1.428   7.497   3.516
 5909TIP3   OH217671   7.321   2.310   2.879
 5909TIP3    H117672   7.303   2.337   2.789
 5909TIP3    H217673   7.408   2.270   2.875
 5910TIP3   OH217674   3.335   4.613   5.217
 5910TIP3    H117675   3.400   4.598   5.148
 5910TIP3    H217676   3.384   4.599   5.298
 5911TIP3   OH217677   8.102   3.486   4.414
 5911TIP3    H117678   8.151   3.518   4.490
 5911TIP3    H217679   8.168   3.437   4.363
 5912TIP3   OH217680   6.778   0.684   1.146
 5912TIP3    H117681   6.774   0.771   1.108
 5912TIP3    H217682   6.870   0.671   1.167
 5913TIP3   OH217683   5.822   4.801   2.433
 5913TIP3    H117684   5.909   4.826   2.400
 5913TIP3    H217685   5.839   4.763   2.519
 5914TIP3   OH217686   6.388   4.078   0.024
 5914TIP3    H117687   6.483   4.088   0.029
 5914TIP3    H217688   6.354   4.164   0.049
 5915TIP3   OH217689   3.917   6.336   6.580
 5915TIP3    H117690   3.964   6.371   6.504
 5915TIP3    H217691   3.982   6.332   6.649
 5916TIP3   OH217692   3.621   4.470   4.176
 5916TIP3    H117693   3.601   4.563   4.166
 5916TIP3    H217694   3.602   4.432   4.091
 5917TIP3   OH217695   2.741   0.719   2.317
 5917TIP3    H117696   2.823   0.766   2.308
 5917TIP3    H217697   2.730   0.708   2.412
 5918TIP3   OH217698   5.817   5.849   0.799
 5918TIP3    H117699   5.791   5.824   0.888
 5918TIP3    H217700   5.757   5.920   0.776
 5919TIP3   OH217701   2.222   0.598   5.928
 5919TIP3    H117702   2.142   0.549   5.908
 5919TIP3    H217703   2.201   0.688   5.905
 5920TIP3   OH217704   5.099   5.351   6.386
 5920TIP3    H117705   5.064   5.394   6.463
 5920TIP3    H217706   5.024   5.344   6.326
 5921TIP3   OH217707   6.094   5.951   1.683
 5921TIP3    H117708   6.142   5.950   1.601
 5921TIP3    H217709   6.140   6.014   1.738
 5922TIP3   OH217710   5.112   1.354   1.672
 5922TIP3    H117711   5.136   1.414   1.743
 5922TIP3    H217712   5.075   1.410   1.604
 5923TIP3   OH217713   4.039   6.468   4.400
 5923TIP3    H117714   4.029   6.524   4.323
 5923TIP3    H217715   4.093   6.395   4.371
 5924TIP3   OH217716   7.746   2.622   2.904
 5924TIP3    H117717   7.714   2.686   2.967
 5924TIP3    H217718   7.834   2.599   2.935
 5925TIP3   OH217719   5.732   0.880   3.136
 5925TIP3    H117720   5.739   0.870   3.041
 5925TIP3    H217721   5.666   0.816   3.163
 5926TIP3   OH217722   4.465   5.608   5.747
 5926TIP3    H117723   4.487   5.648   5.831
 5926TIP3    H217724   4.509   5.662   5.682
 5927TIP3   OH217725   4.943   2.206   4.162
 5927TIP3    H117726   5.018   2.152   4.185
 5927TIP3    H217727   4.948   2.214   4.066
 5928TIP3   OH217728   1.420   4.906   1.067
 5928TIP3    H117729   1.480   4.942   1.133
 5928TIP3    H217730   1.348   4.869   1.118
 5929TIP3   OH217731   6.169   2.429   4.813
 5929TIP3    H117732   6.265   2.433   4.808
 5929TIP3    H217733   6.151   2.391   4.898
 5930TIP3   OH217734   6.439   0.669   2.977
 5930TIP3    H117735   6.436   0.757   2.939
 5930TIP3    H217736   6.406   0.680   3.066
 5931TIP3   OH217737   4.393   4.463   4.457
 5931TIP3    H117738   4.457   4.405   4.497
 5931TIP3    H217739   4.391   4.437   4.365
 5932TIP3   OH217740   4.028   3.853   2.783
 5932TIP3    H117741   4.116   3.890   2.770
 5932TIP3    H217742   4.043   3.775   2.836
 5933TIP3   OH217743   7.057   3.768   5.426
 5933TIP3    H117744   7.000   3.806   5.493
 5933TIP3    H217745   7.020   3.796   5.343
 5934TIP3   OH217746   3.189   4.314   4.091
 5934TIP3    H117747   3.223   4.244   4.034
 5934TIP3    H217748   3.146   4.374   4.030
 5935TIP3   OH217749   5.058   3.634   0.233
 5935TIP3    H117750   5.148   3.655   0.209
 5935TIP3    H217751   5.008   3.712   0.210
 5936TIP3   OH217752   7.963   6.239   3.442
 5936TIP3    H117753   8.005   6.295   3.508
 5936TIP3    H217754   7.899   6.188   3.491
 5937TIP3   OH217755   1.805   6.621   6.285
 5937TIP3    H117756   1.825   6.712   6.307
 5937TIP3    H217757   1.718   6.606   6.321
 5938TIP3   OH217758   1.396   5.664   0.395
 5938TIP3    H117759   1.461   5.679   0.464
 5938TIP3    H217760   1.446   5.626   0.323
 5939TIP3   OH217761   6.179   6.181   4.162
 5939TIP3    H117762   6.256   6.131   4.135
 5939TIP3    H217763   6.196   6.270   4.131
 5940TIP3   OH217764   5.429   3.218   4.601
 5940TIP3    H117765   5.512   3.193   4.643
 5940TIP3    H217766   5.424   3.162   4.524
 5941TIP3   OH217767   0.454   5.446   5.710
 5941TIP3    H117768   0.482   5.471   5.621
 5941TIP3    H217769   0.400   5.519   5.739
 5942TIP3   OH217770   3.765   6.382   3.933
 5942TIP3    H117771   3.785   6.329   3.855
 5942TIP3    H217772   3.826   6.349   3.999
 5943TIP3   OH217773   3.197   1.634   4.860
 5943TIP3    H117774   3.189   1.645   4.766
 5943TIP3    H217775   3.288   1.610   4.874
 5944TIP3   OH217776   4.670   4.667   4.469
 5944TIP3    H117777   4.705   4.587   4.510
 5944TIP3    H217778   4.657   4.643   4.377
 5945TIP3   OH217779   0.362   6.782   2.538
 5945TIP3    H117780   0.281   6.731   2.535
 5945TIP3    H217781   0.427   6.727   2.495
 5946TIP3   OH217782   4.514   7.179   0.594
 5946TIP3    H117783   4.507   7.166   0.689
 5946TIP3    H217784   4.538   7.271   0.584
 5947TIP3   OH217785   4.793   2.860   4.424
 5947TIP3    H117786   4.857   2.822   4.484
 5947TIP3    H217787   4.809   2.816   4.340
 5948TIP3   OH217788   5.972   6.704   1.273
 5948TIP3    H117789   6.038   6.757   1.227
 5948TIP3    H217790   5.890   6.751   1.261
 5949TIP3   OH217791   6.727   0.682   2.724
 5949TIP3    H117792   6.745   0.764   2.768
 5949TIP3    H217793   6.641   0.695   2.684
 5950TIP3   OH217794   4.797   7.778   1.402
 5950TIP3    H117795   4.726   7.802   1.461
 5950TIP3    H217796   4.827   7.861   1.365
 5951TIP3   OH217797   8.217   3.424   0.161
 5951TIP3    H117798   8.145   3.487   0.151
 5951TIP3    H217799   8.177   3.339   0.139
 5952TIP3   OH217800   2.247   4.677   6.458
 5952TIP3    H117801   2.301   4.675   6.537
 5952TIP3    H217802   2.158   4.662   6.488
 5953TIP3   OH217803   4.697   3.317   4.233
 5953TIP3    H117804   4.682   3.285   4.322
 5953TIP3    H217805   4.760   3.389   4.243
 5954TIP3   OH217806   4.942   4.782   3.388
 5954TIP3    H117807   4.870   4.734   3.347
 5954TIP3    H217808   4.905   4.814   3.471
 5955TIP3   OH217809   4.293   5.810   1.849
 5955TIP3    H117810   4.388   5.799   1.859
 5955TIP3    H217811   4.259   5.805   1.938
 5956TIP3   OH217812   7.594   2.211   0.344
 5956TIP3    H117813   7.519   2.219   0.286
 5956TIP3    H217814   7.643   2.292   0.332
 5957TIP3   OH217815   4.763   1.606   4.220
 5957TIP3    H117816   4.725   1.620   4.133
 5957TIP3    H217817   4.725   1.523   4.250
 5958TIP3   OH217818   5.888   5.210   4.794
 5958TIP3    H117819   5.952   5.165   4.739
 5958TIP3    H217820   5.873   5.293   4.749
 5959TIP3   OH217821   0.532   2.238   4.234
 5959TIP3    H117822   0.439   2.253   4.219
 5959TIP3    H217823   0.544   2.256   4.328
 5960TIP3   OH217824   2.750   4.254   3.219
 5960TIP3    H117825   2.716   4.323   3.276
 5960TIP3    H217826   2.838   4.283   3.195
 5961TIP3   OH217827   2.649   4.431   3.743
 5961TIP3    H117828   2.661   4.502   3.806
 5961TIP3    H217829   2.611   4.473   3.666
 5962TIP3   OH217830   6.043   0.584   1.454
 5962TIP3    H117831   6.070   0.548   1.538
 5962TIP3    H217832   6.074   0.675   1.456
 5963TIP3   OH217833   6.986   1.653   3.810
 5963TIP3    H117834   6.902   1.663   3.764
 5963TIP3    H217835   6.972   1.578   3.868
 5964TIP3   OH217836   3.427   5.828  -0.019
 5964TIP3    H117837   3.390   5.822   0.069
 5964TIP3    H217838   3.517   5.859  -0.005
 5965TIP3   OH217839   7.650   4.507   2.608
 5965TIP3    H117840   7.572   4.453   2.618
 5965TIP3    H217841   7.616   4.593   2.583
 5966TIP3   OH217842   8.098   1.854   5.274
 5966TIP3    H117843   8.178   1.906   5.271
 5966TIP3    H217844   8.028   1.919   5.287
 5967TIP3   OH217845   6.509   4.303   6.338
 5967TIP3    H117846   6.492   4.322   6.430
 5967TIP3    H217847   6.424   4.278   6.302
 5968TIP3   OH217848   4.411   3.224   0.619
 5968TIP3    H117849   4.411   3.145   0.673
 5968TIP3    H217850   4.333   3.217   0.565
 5969TIP3   OH217851   6.942   0.226   3.200
 5969TIP3    H117852   6.964   0.141   3.161
 5969TIP3    H217853   6.926   0.206   3.292
 5970TIP3   OH217854   0.699   3.175   0.249
 5970TIP3    H117855   0.795   3.167   0.253
 5970TIP3    H217856   0.670   3.094   0.208
 5971TIP3   OH217857   6.017   0.420   3.284
 5971TIP3    H117858   5.932   0.455   3.310
 5971TIP3    H217859   6.019   0.430   3.189
 5972TIP3   OH217860   5.932   4.950   1.482
 5972TIP3    H117861   5.997   4.911   1.540
 5972TIP3    H217862   5.861   4.885   1.478
 5973TIP3   OH217863   5.657   3.647   5.824
 5973TIP3    H117864   5.677   3.689   5.740
 5973TIP3    H217865   5.576   3.690   5.854
 5974TIP3   OH217866   7.970   5.642   1.815
 5974TIP3    H117867   7.881   5.608   1.818
 5974TIP3    H217868   8.018   5.590   1.880
 5975TIP3   OH217869   5.918   3.682   3.609
 5975TIP3    H117870   5.846   3.708   3.552
 5975TIP3    H217871   5.996   3.720   3.569
 5976TIP3   OH217872   3.063   7.287   1.790
 5976TIP3    H117873   3.135   7.322   1.739
 5976TIP3    H217874   2.992   7.275   1.727
 5977TIP3   OH217875   4.697   6.896   3.828
 5977TIP3    H117876   4.762   6.846   3.778
 5977TIP3    H217877   4.666   6.835   3.894
 5978TIP3   OH217878   7.431   0.528   4.063
 5978TIP3    H117879   7.487   0.468   4.114
 5978TIP3    H217880   7.342   0.499   4.083
 5979TIP3   OH217881   3.324   5.634   1.051
 5979TIP3    H117882   3.257   5.702   1.056
 5979TIP3    H217883   3.322   5.592   1.138
 5980TIP3   OH217884   4.525   6.070   3.382
 5980TIP3    H117885   4.567   6.066   3.297
 5980TIP3    H217886   4.554   5.991   3.427
 5981TIP3   OH217887   4.741   0.711   2.019
 5981TIP3    H117888   4.756   0.621   1.989
 5981TIP3    H217889   4.829   0.746   2.035
 5982TIP3   OH217890   3.807   6.443   5.955
 5982TIP3    H117891   3.791   6.401   5.870
 5982TIP3    H217892   3.855   6.524   5.933
 5983TIP3   OH217893   0.308   3.170   1.653
 5983TIP3    H117894   0.220   3.200   1.677
 5983TIP3    H217895   0.314   3.186   1.559
 5984TIP3   OH217896   4.133   2.891   4.403
 5984TIP3    H117897   4.176   2.814   4.442
 5984TIP3    H217898   4.045   2.862   4.382
 5985TIP3   OH217899   2.138   2.650   5.569
 5985TIP3    H117900   2.146   2.657   5.664
 5985TIP3    H217901   2.194   2.720   5.535
 5986TIP3   OH217902   0.732   0.685   1.073
 5986TIP3    H117903   0.778   0.610   1.112
 5986TIP3    H217904   0.802   0.745   1.048
 5987TIP3   OH217905   5.575   6.967   2.104
 5987TIP3    H117906   5.655   6.915   2.111
 5987TIP3    H217907   5.507   6.903   2.082
 5988TIP3   OH217908   5.962   2.462   5.974
 5988TIP3    H117909   5.920   2.393   5.922
 5988TIP3    H217910   6.025   2.502   5.914
 5989TIP3   OH217911   3.136   4.009   4.893
 5989TIP3    H117912   3.051   3.971   4.871
 5989TIP3    H217913   3.133   4.097   4.854
 5990TIP3   OH217914   2.857   3.290   2.728
 5990TIP3    H117915   2.777   3.289   2.780
 5990TIP3    H217916   2.844   3.361   2.665
 5991TIP3   OH217917   3.726   7.197   3.804
 5991TIP3    H117918   3.787   7.123   3.800
 5991TIP3    H217919   3.641   7.159   3.780
 5992TIP3   OH217920   4.155   7.084   4.853
 5992TIP3    H117921   4.145   7.064   4.760
 5992TIP3    H217922   4.095   7.157   4.869
 5993TIP3   OH217923   2.549   3.811   3.980
 5993TIP3    H117924   2.485   3.843   4.045
 5993TIP3    H217925   2.495   3.766   3.915
 5994TIP3   OH217926   0.581   3.758   0.360
 5994TIP3    H117927   0.581   3.676   0.410
 5994TIP3    H217928   0.501   3.803   0.386
 5995TIP3   OH217929   0.490   7.612   3.287
 5995TIP3    H117930   0.532   7.529   3.267
 5995TIP3    H217931   0.497   7.620   3.382
 5996TIP3   OH217932   7.451   3.200   0.262
 5996TIP3    H117933   7.416   3.152   0.187
 5996TIP3    H217934   7.470   3.133   0.327
 5997TIP3   OH217935   4.817   5.123   1.940
 5997TIP3    H117936   4.764   5.192   1.979
 5997TIP3    H217937   4.798   5.045   1.992
 5998TIP3   OH217938   3.259   7.712   1.941
 5998TIP3    H117939   3.188   7.655   1.973
 5998TIP3    H217940   3.236   7.799   1.974
 5999TIP3   OH217941   6.897   5.623   0.537
 5999TIP3    H117942   6.825   5.683   0.557
 5999TIP3    H217943   6.947   5.668   0.468
 6000TIP3   OH217944   7.660   6.687   6.019
 6000TIP3    H117945   7.736   6.718   5.970
 6000TIP3    H217946   7.595   6.757   6.011
 6001TIP3   OH217947   5.918   3.692   4.613
 6001TIP3    H117948   5.945   3.631   4.544
 6001TIP3    H217949   5.826   3.672   4.628
 6002TIP3   OH217950   5.260   1.886   1.704
 6002TIP3    H117951   5.304   1.826   1.764
 6002TIP3    H217952   5.216   1.828   1.641
 6003TIP3   OH217953   3.374   5.820   1.339
 6003TIP3    H117954   3.360   5.892   1.278
 6003TIP3    H217955   3.464   5.793   1.324
 6004TIP3   OH217956   7.357   3.502   2.400
 6004TIP3    H117957   7.362   3.426   2.343
 6004TIP3    H217958   7.360   3.466   2.488
 6005TIP3   OH217959   7.257   3.365   1.250
 6005TIP3    H117960   7.201   3.401   1.181
 6005TIP3    H217961   7.311   3.299   1.205
 6006TIP3   OH217962   2.139   1.816   4.956
 6006TIP3    H117963   2.134   1.905   4.992
 6006TIP3    H217964   2.198   1.824   4.881
 6007TIP3   OH217965   4.235   0.706   1.301
 6007TIP3    H117966   4.143   0.725   1.286
 6007TIP3    H217967   4.235   0.647   1.376
 6008TIP3   OH217968   4.575   1.029   2.994
 6008TIP3    H117969   4.638   1.084   2.947
 6008TIP3    H217970   4.546   0.965   2.930
 6009TIP3   OH217971   1.274   4.771   5.807
 6009TIP3    H117972   1.219   4.833   5.759
 6009TIP3    H217973   1.345   4.824   5.842
 6010TIP3   OH217974   4.290   6.374   5.767
 6010TIP3    H117975   4.346   6.383   5.845
 6010TIP3    H217976   4.246   6.290   5.780
 6011TIP3   OH217977   0.704   6.451   0.410
 6011TIP3    H117978   0.621   6.499   0.415
 6011TIP3    H217979   0.770   6.519   0.396
 6012TIP3   OH217980   7.556   0.202   2.029
 6012TIP3    H117981   7.540   0.163   2.115
 6012TIP3    H217982   7.603   0.282   2.048
 6013TIP3   OH217983   4.430   7.127   2.284
 6013TIP3    H117984   4.384   7.188   2.341
 6013TIP3    H217985   4.411   7.041   2.319
 6014TIP3   OH217986   2.051   2.931   2.129
 6014TIP3    H117987   2.043   3.010   2.182
 6014TIP3    H217988   2.094   2.868   2.187
 6015TIP3   OH217989   2.271   1.550   1.137
 6015TIP3    H117990   2.291   1.635   1.097
 6015TIP3    H217991   2.276   1.488   1.065
 6016TIP3   OH217992   5.104   4.526   5.531
 6016TIP3    H117993   5.146   4.593   5.585
 6016TIP3    H217994   5.159   4.519   5.453
 6017TIP3   OH217995   7.808   6.527   3.899
 6017TIP3    H117996   7.801   6.557   3.990
 6017TIP3    H217997   7.902   6.524   3.883
 6018TIP3   OH217998   3.614   6.637   0.832
 6018TIP3    H117999   3.584   6.615   0.744
 6018TIP3    H218000   3.607   6.555   0.881
 6019TIP3   OH218001   1.587   5.950   3.044
 6019TIP3    H118002   1.576   5.865   3.087
 6019TIP3    H218003   1.631   5.929   2.961
 6020TIP3   OH218004   7.936   2.688   3.993
 6020TIP3    H118005   7.937   2.600   3.955
 6020TIP3    H218006   8.027   2.703   4.021
 6021TIP3   OH218007   2.598   7.708   5.481
 6021TIP3    H118008   2.581   7.631   5.428
 6021TIP3    H218009   2.511   7.745   5.497
 6022TIP3   OH218010   3.448   0.784   2.682
 6022TIP3    H118011   3.542   0.793   2.696
 6022TIP3    H218012   3.440   0.750   2.593
 6023TIP3   OH218013   5.486   5.908   3.458
 6023TIP3    H118014   5.493   5.814   3.444
 6023TIP3    H218015   5.570   5.943   3.429
 6024TIP3   OH218016   5.223   7.780   5.210
 6024TIP3    H118017   5.169   7.800   5.286
 6024TIP3    H218018   5.242   7.865   5.171
 6025TIP3   OH218019   0.702   4.078   5.647
 6025TIP3    H118020   0.754   4.030   5.711
 6025TIP3    H218021   0.611   4.060   5.672
 6026TIP3   OH218022   4.645   5.418   5.054
 6026TIP3    H118023   4.660   5.325   5.041
 6026TIP3    H218024   4.656   5.456   4.966
 6027TIP3   OH218025   5.777   7.470   4.076
 6027TIP3    H118026   5.781   7.559   4.041
 6027TIP3    H218027   5.695   7.468   4.125
 6028TIP3   OH218028   4.908   1.926   5.521
 6028TIP3    H118029   4.859   1.905   5.600
 6028TIP3    H218030   4.841   1.947   5.456
 6029TIP3   OH218031   0.651   4.600   0.901
 6029TIP3    H118032   0.676   4.592   0.809
 6029TIP3    H218033   0.723   4.560   0.949
 6030TIP3   OH218034   2.084   7.744   2.672
 6030TIP3    H118035   2.149   7.746   2.742
 6030TIP3    H218036   2.102   7.823   2.620
 6031TIP3   OH218037   2.764   6.610   0.520
 6031TIP3    H118038   2.727   6.562   0.595
 6031TIP3    H218039   2.857   6.615   0.539
 6032TIP3   OH218040   6.522   6.533   3.882
 6032TIP3    H118041   6.515   6.575   3.796
 6032TIP3    H218042   6.526   6.605   3.944
 6033TIP3   OH218043   4.388   5.079   2.764
 6033TIP3    H118044   4.424   5.117   2.844
 6033TIP3    H218045   4.365   5.155   2.711
 6034TIP3   OH218046   5.254   1.800   1.984
 6034TIP3    H118047   5.267   1.883   2.030
 6034TIP3    H218048   5.336   1.753   1.996
 6035TIP3   OH218049   4.851   3.626   4.949
 6035TIP3    H118050   4.859   3.614   4.854
 6035TIP3    H218051   4.915   3.566   4.986
 6036TIP3   OH218052   6.839   3.244   5.800
 6036TIP3    H118053   6.796   3.326   5.779
 6036TIP3    H218054   6.901   3.230   5.729
 6037TIP3   OH218055   3.503   7.525   3.827
 6037TIP3    H118056   3.541   7.450   3.872
 6037TIP3    H218057   3.409   7.509   3.829
 6038TIP3   OH218058   8.185   1.142   4.914
 6038TIP3    H118059   8.180   1.183   4.828
 6038TIP3    H218060   8.254   1.190   4.959
 6039TIP3   OH218061   1.138   4.137   3.474
 6039TIP3    H118062   1.152   4.210   3.413
 6039TIP3    H218063   1.071   4.083   3.432
 6040TIP3   OH218064   4.715   7.723   3.088
 6040TIP3    H118065   4.715   7.727   3.184
 6040TIP3    H218066   4.700   7.814   3.061
 6041TIP3   OH218067   5.421   5.389   1.995
 6041TIP3    H118068   5.410   5.401   2.089
 6041TIP3    H218069   5.502   5.339   1.987
 6042TIP3   OH218070   8.075   2.233   0.334
 6042TIP3    H118071   8.142   2.184   0.286
 6042TIP3    H218072   8.064   2.184   0.415
 6043TIP3   OH218073   4.489   4.796   4.619
 6043TIP3    H118074   4.560   4.747   4.578
 6043TIP3    H218075   4.413   4.737   4.616
 6044TIP3   OH218076   4.040   7.083   0.384
 6044TIP3    H118077   4.135   7.078   0.394
 6044TIP3    H218078   4.009   6.996   0.412
 6045TIP3   OH218079   1.971   3.732   5.809
 6045TIP3    H118080   1.945   3.733   5.717
 6045TIP3    H218081   1.910   3.791   5.853
 6046TIP3   OH218082   1.958   5.754   0.922
 6046TIP3    H118083   1.992   5.838   0.889
 6046TIP3    H218084   1.911   5.717   0.847
 6047TIP3   OH218085   6.217   1.529   3.433
 6047TIP3    H118086   6.231   1.483   3.516
 6047TIP3    H218087   6.235   1.621   3.453
 6048TIP3   OH218088   2.695   1.452   3.787
 6048TIP3    H118089   2.713   1.523   3.725
 6048TIP3    H218090   2.683   1.497   3.871
 6049TIP3   OH218091   0.226   7.510   4.792
 6049TIP3    H118092   0.230   7.584   4.852
 6049TIP3    H218093   0.143   7.467   4.812
 6050TIP3   OH218094   1.222   4.322   1.097
 6050TIP3    H118095   1.302   4.279   1.128
 6050TIP3    H218096   1.238   4.415   1.110
 6051TIP3   OH218097   5.892   1.614   1.598
 6051TIP3    H118098   5.840   1.622   1.518
 6051TIP3    H218099   5.838   1.561   1.657
 6052TIP3   OH218100   3.068   2.205   4.427
 6052TIP3    H118101   3.020   2.186   4.346
 6052TIP3    H218102   3.158   2.220   4.398
 6053TIP3   OH218103   0.746   3.373   2.998
 6053TIP3    H118104   0.777   3.451   3.044
 6053TIP3    H218105   0.722   3.311   3.067
 6054TIP3   OH218106   0.205   3.510   6.203
 6054TIP3    H118107   0.255   3.578   6.247
 6054TIP3    H218108   0.122   3.507   6.251
 6055TIP3   OH218109   2.998   1.676   1.763
 6055TIP3    H118110   2.968   1.585   1.767
 6055TIP3    H218111   2.946   1.721   1.830
 6056TIP3   OH218112   3.957   4.270   4.804
 6056TIP3    H118113   3.959   4.177   4.782
 6056TIP3    H218114   3.937   4.314   4.721
 6057TIP3   OH218115   7.821   7.211   3.365
 6057TIP3    H118116   7.747   7.211   3.427
 6057TIP3    H218117   7.849   7.119   3.362
 6058TIP3   OH218118   5.037   5.303   0.409
 6058TIP3    H118119   5.071   5.216   0.387
 6058TIP3    H218120   5.014   5.297   0.501
 6059TIP3   OH218121   7.681   6.890   0.456
 6059TIP3    H118122   7.601   6.893   0.509
 6059TIP3    H218123   7.678   6.804   0.414
 6060TIP3   OH218124   3.983   7.736   1.834
 6060TIP3    H118125   4.070   7.769   1.856
 6060TIP3    H218126   3.946   7.707   1.917
 6061TIP3   OH218127   3.679   4.598   1.568
 6061TIP3    H118128   3.711   4.645   1.491
 6061TIP3    H218129   3.756   4.551   1.601
 6062TIP3   OH218130   5.014   3.372   5.872
 6062TIP3    H118131   5.049   3.306   5.812
 6062TIP3    H218132   5.092   3.407   5.917
 6063TIP3   OH218133   2.005   6.629   5.424
 6063TIP3    H118134   1.989   6.588   5.508
 6063TIP3    H218135   1.932   6.602   5.369
 6064TIP3   OH218136   8.037   0.910   6.292
 6064TIP3    H118137   8.129   0.930   6.277
 6064TIP3    H218138   7.990   0.962   6.228
 6065TIP3   OH218139   6.077   0.662   6.436
 6065TIP3    H118140   6.168   0.682   6.459
 6065TIP3    H218141   6.075   0.567   6.426
 6066TIP3   OH218142   4.845   2.104   0.074
 6066TIP3    H118143   4.758   2.133   0.102
 6066TIP3    H218144   4.830   2.061  -0.011
 6067TIP3   OH218145   0.065   3.873   3.284
 6067TIP3    H118146   0.099   3.788   3.255
 6067TIP3    H218147   0.052   3.922   3.202
 6068TIP3   OH218148   6.886   5.294   4.302
 6068TIP3    H118149   6.852   5.219   4.350
 6068TIP3    H218150   6.918   5.354   4.369
 6069TIP3   OH218151   7.637   2.654   5.534
 6069TIP3    H118152   7.705   2.702   5.582
 6069TIP3    H218153   7.575   2.721   5.506
 6070TIP3   OH218154   6.806   0.828   0.637
 6070TIP3    H118155   6.866   0.761   0.670
 6070TIP3    H218156   6.859   0.879   0.575
 6071TIP3   OH218157   3.982   5.782   1.975
 6071TIP3    H118158   3.957   5.820   1.891
 6071TIP3    H218159   3.991   5.688   1.958
 6072TIP3   OH218160   7.203   1.713   2.808
 6072TIP3    H118161   7.206   1.692   2.902
 6072TIP3    H218162   7.124   1.767   2.799
 6073TIP3   OH218163   2.067   7.803   0.058
 6073TIP3    H118164   2.029   7.891   0.060
 6073TIP3    H218165   2.015   7.753   0.121
 6074TIP3   OH218166   2.635   0.512   2.179
 6074TIP3    H118167   2.675   0.596   2.203
 6074TIP3    H218168   2.607   0.474   2.262
 6075TIP3   OH218169   1.754   6.490   5.326
 6075TIP3    H118170   1.707   6.418   5.369
 6075TIP3    H218171   1.775   6.455   5.239
 6076TIP3   OH218172   3.916   1.543   0.759
 6076TIP3    H118173   3.993   1.546   0.702
 6076TIP3    H218174   3.934   1.473   0.821
 6077TIP3   OH218175   7.721   6.664   4.742
 6077TIP3    H118176   7.719   6.737   4.805
 6077TIP3    H218177   7.749   6.705   4.660
 6078TIP3   OH218178   1.325   0.833   0.506
 6078TIP3    H118179   1.411   0.857   0.541
 6078TIP3    H218180   1.317   0.884   0.426
 6079TIP3   OH218181   2.597   7.447   3.796
 6079TIP3    H118182   2.604   7.363   3.750
 6079TIP3    H218183   2.616   7.427   3.887
 6080TIP3   OH218184   2.164   5.694   5.598
 6080TIP3    H118185   2.205   5.731   5.519
 6080TIP3    H218186   2.235   5.691   5.662
 6081TIP3   OH218187   6.234   4.589   4.881
 6081TIP3    H118188   6.215   4.504   4.843
 6081TIP3    H218189   6.308   4.622   4.829
 6082TIP3   OH218190   1.264   1.760   4.635
 6082TIP3    H118191   1.271   1.675   4.592
 6082TIP3    H218192   1.350   1.800   4.626
 6083TIP3   OH218193   2.628   1.056   2.607
 6083TIP3    H118194   2.544   1.009   2.614
 6083TIP3    H218195   2.676   1.010   2.538
 6084TIP3   OH218196   3.161   7.792   0.437
 6084TIP3    H118197   3.095   7.732   0.402
 6084TIP3    H218198   3.243   7.742   0.432
 6085TIP3   OH218199   6.203   7.363   3.439
 6085TIP3    H118200   6.185   7.311   3.517
 6085TIP3    H218201   6.119   7.402   3.416
 6086TIP3   OH218202   1.308   6.512   2.137
 6086TIP3    H118203   1.256   6.437   2.110
 6086TIP3    H218204   1.388   6.506   2.085
 6087TIP3   OH218205   6.289   2.336   6.352
 6087TIP3    H118206   6.237   2.296   6.283
 6087TIP3    H218207   6.365   2.279   6.362
 6088TIP3   OH218208   1.959   4.315   0.748
 6088TIP3    H118209   1.970   4.333   0.655
 6088TIP3    H218210   1.968   4.220   0.756
 6089TIP3   OH218211   1.778   6.428   4.273
 6089TIP3    H118212   1.791   6.523   4.275
 6089TIP3    H218213   1.683   6.417   4.271
 6090TIP3   OH218214   5.504   6.059   1.060
 6090TIP3    H118215   5.520   5.987   1.121
 6090TIP3    H218216   5.513   6.138   1.113
 6091TIP3   OH218217   3.522   0.295   4.604
 6091TIP3    H118218   3.470   0.215   4.612
 6091TIP3    H218219   3.589   0.274   4.539
 6092TIP3   OH218220   1.804   2.071   4.301
 6092TIP3    H118221   1.825   1.978   4.302
 6092TIP3    H218222   1.866   2.110   4.239
 6093TIP3   OH218223   3.645   5.244   0.279
 6093TIP3    H118224   3.707   5.199   0.336
 6093TIP3    H218225   3.625   5.325   0.326
 6094TIP3   OH218226   4.113   1.451   6.617
 6094TIP3    H118227   4.204   1.440   6.589
 6094TIP3    H218228   4.094   1.373   6.668
 6095TIP3   OH218229   7.681   3.540   2.348
 6095TIP3    H118230   7.690   3.445   2.342
 6095TIP3    H218231   7.771   3.573   2.342
 6096TIP3   OH218232   6.797   2.949   5.949
 6096TIP3    H118233   6.715   2.998   5.957
 6096TIP3    H218234   6.831   2.975   5.864
 6097TIP3   OH218235   4.290   7.845   1.422
 6097TIP3    H118236   4.303   7.847   1.328
 6097TIP3    H218237   4.273   7.753   1.443
 6098TIP3   OH218238   1.965   6.230   1.792
 6098TIP3    H118239   2.020   6.195   1.862
 6098TIP3    H218240   2.026   6.271   1.731
 6099TIP3   OH218241   6.801   2.794   3.242
 6099TIP3    H118242   6.864   2.835   3.184
 6099TIP3    H218243   6.838   2.708   3.262
 6100TIP3   OH218244   3.346   0.849   3.234
 6100TIP3    H118245   3.332   0.765   3.277
 6100TIP3    H218246   3.270   0.901   3.259
 6101TIP3   OH218247   0.190   7.088   1.996
 6101TIP3    H118248   0.161   7.128   1.915
 6101TIP3    H218249   0.237   7.157   2.043
 6102TIP3   OH218250   5.218   7.282   3.456
 6102TIP3    H118251   5.277   7.309   3.386
 6102TIP3    H218252   5.192   7.193   3.432
 6103TIP3   OH218253   3.269   7.388   1.135
 6103TIP3    H118254   3.264   7.295   1.156
 6103TIP3    H218255   3.328   7.424   1.201
 6104TIP3   OH218256   4.554   0.701   4.274
 6104TIP3    H118257   4.575   0.611   4.297
 6104TIP3    H218258   4.516   0.738   4.354
 6105TIP3   OH218259   6.292   3.345   1.369
 6105TIP3    H118260   6.312   3.438   1.358
 6105TIP3    H218261   6.246   3.320   1.289
 6106TIP3   OH218262   5.808   0.145   2.698
 6106TIP3    H118263   5.859   0.130   2.618
 6106TIP3    H218264   5.867   0.120   2.769
 6107TIP3   OH218265   5.900   0.633   3.706
 6107TIP3    H118266   5.829   0.679   3.749
 6107TIP3    H218267   5.925   0.564   3.768
 6108TIP3   OH218268   2.274   0.491   1.646
 6108TIP3    H118269   2.328   0.518   1.572
 6108TIP3    H218270   2.184   0.508   1.617
 6109TIP3   OH218271   7.260   4.753   1.169
 6109TIP3    H118272   7.244   4.702   1.249
 6109TIP3    H218273   7.266   4.844   1.199
 6110TIP3   OH218274   8.313   7.046   4.646
 6110TIP3    H118275   8.235   6.993   4.663
 6110TIP3    H218276   8.306   7.072   4.555
 6111TIP3   OH218277   1.282   5.315   0.743
 6111TIP3    H118278   1.369   5.348   0.724
 6111TIP3    H218279   1.294   5.221   0.757
 6112TIP3   OH218280   6.244   3.351   6.596
 6112TIP3    H118281   6.287   3.426   6.637
 6112TIP3    H218282   6.278   3.275   6.643
 6113TIP3   OH218283   1.536   4.831   6.407
 6113TIP3    H118284   1.618   4.878   6.419
 6113TIP3    H218285   1.468   4.895   6.424
 6114TIP3   OH218286   4.946   5.708   5.074
 6114TIP3    H118287   4.915   5.620   5.097
 6114TIP3    H218288   4.866   5.760   5.064
 6115TIP3   OH218289   0.925   0.660   4.524
 6115TIP3    H118290   0.851   0.618   4.567
 6115TIP3    H218291   0.909   0.754   4.532
 6116TIP3   OH218292   4.519   5.356   3.908
 6116TIP3    H118293   4.591   5.350   3.971
 6116TIP3    H218294   4.550   5.419   3.843
 6117TIP3   OH218295   0.498   3.043   5.575
 6117TIP3    H118296   0.451   2.970   5.616
 6117TIP3    H218297   0.436   3.116   5.576
 6118TIP3   OH218298   4.725   4.625   3.325
 6118TIP3    H118299   4.701   4.578   3.245
 6118TIP3    H218300   4.665   4.700   3.326
 6119TIP3   OH218301   5.752   4.349   1.676
 6119TIP3    H118302   5.737   4.323   1.767
 6119TIP3    H218303   5.847   4.351   1.668
 6120TIP3   OH218304   0.596   5.460   1.907
 6120TIP3    H118305   0.632   5.445   1.819
 6120TIP3    H218306   0.641   5.539   1.938
 6121TIP3   OH218307   8.012   1.364   5.806
 6121TIP3    H118308   7.925   1.335   5.835
 6121TIP3    H218309   8.009   1.460   5.814
 6122TIP3   OH218310   1.659   2.713   2.529
 6122TIP3    H118311   1.672   2.775   2.601
 6122TIP3    H218312   1.648   2.628   2.573
 6123TIP3   OH218313   7.765   2.684   3.173
 6123TIP3    H118314   7.812   2.715   3.251
 6123TIP3    H218315   7.779   2.590   3.172
 6124TIP3   OH218316   6.697   7.258   5.473
 6124TIP3    H118317   6.696   7.177   5.524
 6124TIP3    H218318   6.732   7.324   5.533
 6125TIP3   OH218319   5.094   5.545   3.685
 6125TIP3    H118320   5.078   5.513   3.596
 6125TIP3    H218321   5.152   5.479   3.723
 6126TIP3   OH218322   1.471   5.485   4.734
 6126TIP3    H118323   1.549   5.501   4.681
 6126TIP3    H218324   1.399   5.521   4.683
 6127TIP3   OH218325   3.916   4.332   4.074
 6127TIP3    H118326   3.911   4.245   4.114
 6127TIP3    H218327   4.010   4.347   4.061
 6128TIP3   OH218328   5.940   6.339   4.092
 6128TIP3    H118329   5.986   6.360   4.011
 6128TIP3    H218330   5.938   6.421   4.140
 6129TIP3   OH218331   0.370   4.398   1.430
 6129TIP3    H118332   0.373   4.363   1.519
 6129TIP3    H218333   0.424   4.477   1.433
 6130TIP3   OH218334   6.138   6.002   6.399
 6130TIP3    H118335   6.062   6.039   6.444
 6130TIP3    H218336   6.101   5.936   6.340
 6131TIP3   OH218337   5.347   0.893   3.615
 6131TIP3    H118338   5.391   0.939   3.544
 6131TIP3    H218339   5.266   0.942   3.628
 6132TIP3   OH218340   4.104   7.750   4.107
 6132TIP3    H118341   4.146   7.780   4.188
 6132TIP3    H218342   4.147   7.666   4.088
 6133TIP3   OH218343   8.001   4.568   1.522
 6133TIP3    H118344   7.993   4.473   1.523
 6133TIP3    H218345   7.920   4.600   1.561
 6134TIP3   OH218346   4.466   2.752   0.114
 6134TIP3    H118347   4.506   2.780   0.197
 6134TIP3    H218348   4.477   2.827   0.056
 6135TIP3   OH218349   1.800   0.748   3.820
 6135TIP3    H118350   1.722   0.803   3.808
 6135TIP3    H218351   1.780   0.668   3.772
 6136TIP3   OH218352   0.365   4.913   2.612
 6136TIP3    H118353   0.400   4.929   2.700
 6136TIP3    H218354   0.292   4.974   2.604
 6137TIP3   OH218355   6.550   2.155   0.776
 6137TIP3    H118356   6.506   2.234   0.808
 6137TIP3    H218357   6.607   2.185   0.705
 6138TIP3   OH218358   1.347   5.205   2.915
 6138TIP3    H118359   1.252   5.219   2.916
 6138TIP3    H218360   1.361   5.145   2.842
 6139TIP3   OH218361   4.381   2.256   3.416
 6139TIP3    H118362   4.426   2.331   3.375
 6139TIP3    H218363   4.303   2.294   3.455
 6140TIP3   OH218364   1.387   3.554   3.792
 6140TIP3    H118365   1.457   3.546   3.727
 6140TIP3    H218366   1.376   3.648   3.804
 6141TIP3   OH218367   4.986   4.653   0.376
 6141TIP3    H118368   5.006   4.577   0.431
 6141TIP3    H218369   5.012   4.728   0.429
 6142TIP3   OH218370   3.609   3.686   4.928
 6142TIP3    H118371   3.670   3.727   4.990
 6142TIP3    H218372   3.614   3.592   4.947
 6143TIP3   OH218373   4.284   4.386   0.903
 6143TIP3    H118374   4.310   4.294   0.895
 6143TIP3    H218375   4.192   4.386   0.876
 6144TIP3   OH218376   6.761   4.619   0.771
 6144TIP3    H118377   6.737   4.531   0.800
 6144TIP3    H218378   6.855   4.614   0.753
 6145TIP3   OH218379   5.163   1.154   0.779
 6145TIP3    H118380   5.215   1.174   0.857
 6145TIP3    H218381   5.174   1.060   0.766
 6146TIP3   OH218382   8.290   3.662   0.870
 6146TIP3    H118383   8.377   3.637   0.902
 6146TIP3    H218384   8.242   3.687   0.949
 6147TIP3   OH218385   1.539   2.558   4.913
 6147TIP3    H118386   1.555   2.626   4.977
 6147TIP3    H218387   1.464   2.510   4.947
 6148TIP3   OH218388   7.421   4.679   6.735
 6148TIP3    H118389   7.383   4.767   6.742
 6148TIP3    H218390   7.515   4.693   6.738
 6149TIP3   OH218391   5.711   1.347   0.355
 6149TIP3    H118392   5.652   1.288   0.307
 6149TIP3    H218393   5.712   1.427   0.302
 6150TIP3   OH218394   7.446   3.814   6.106
 6150TIP3    H118395   7.429   3.860   6.188
 6150TIP3    H218396   7.437   3.881   6.038
 6151TIP3   OH218397   4.033   7.575   1.633
 6151TIP3    H118398   4.005   7.628   1.707
 6151TIP3    H218399   4.008   7.626   1.556
 6152TIP3   OH218400   6.102   4.883   1.970
 6152TIP3    H118401   6.068   4.798   1.996
 6152TIP3    H218402   6.029   4.944   1.983
 6153TIP3   OH218403   3.465   6.121   4.112
 6153TIP3    H118404   3.395   6.186   4.116
 6153TIP3    H218405   3.435   6.059   4.045
 6154TIP3   OH218406   0.981   7.433   6.001
 6154TIP3    H118407   1.027   7.352   5.979
 6154TIP3    H218408   0.889   7.409   6.002
 6155TIP3   OH218409   8.016   3.913   5.525
 6155TIP3    H118410   7.941   3.938   5.578
 6155TIP3    H218411   7.998   3.822   5.499
 6156TIP3   OH218412   5.802   6.856   1.497
 6156TIP3    H118413   5.869   6.792   1.518
 6156TIP3    H218414   5.783   6.843   1.404
 6157TIP3   OH218415   1.146   6.108   1.503
 6157TIP3    H118416   1.135   6.184   1.445
 6157TIP3    H218417   1.238   6.083   1.493
 6158TIP3   OH218418   3.841   5.178   2.317
 6158TIP3    H118419   3.922   5.154   2.272
 6158TIP3    H218420   3.870   5.223   2.396
 6159TIP3   OH218421   3.241   1.450   3.211
 6159TIP3    H118422   3.150   1.437   3.237
 6159TIP3    H218423   3.237   1.515   3.141
 6160TIP3   OH218424   0.810   2.022   6.062
 6160TIP3    H118425   0.885   1.986   6.015
 6160TIP3    H218426   0.840   2.028   6.153
 6161TIP3   OH218427   1.030   3.364   2.177
 6161TIP3    H118428   1.056   3.448   2.140
 6161TIP3    H218429   1.082   3.300   2.129
 6162TIP3   OH218430   0.585   0.988   3.270
 6162TIP3    H118431   0.680   0.988   3.254
 6162TIP3    H218432   0.547   0.951   3.190
 6163TIP3   OH218433   0.366   2.575   2.717
 6163TIP3    H118434   0.412   2.500   2.754
 6163TIP3    H218435   0.275   2.546   2.710
 6164TIP3   OH218436   1.198   0.046   0.347
 6164TIP3    H118437   1.164   0.063   0.259
 6164TIP3    H218438   1.175   0.124   0.397
 6165TIP3   OH218439   0.032   3.467   1.439
 6165TIP3    H118440   0.124   3.468   1.413
 6165TIP3    H218441   0.029   3.408   1.514
 6166TIP3   OH218442   4.101   7.604   1.334
 6166TIP3    H118443   4.149   7.663   1.276
 6166TIP3    H218444   4.159   7.528   1.344
 6167TIP3   OH218445   7.780   4.422   6.046
 6167TIP3    H118446   7.737   4.490   5.993
 6167TIP3    H218447   7.715   4.401   6.114
 6168TIP3   OH218448   0.218   0.241   5.908
 6168TIP3    H118449   0.288   0.264   5.847
 6168TIP3    H218450   0.141   0.287   5.875
 6169TIP3   OH218451   4.618   7.408   1.851
 6169TIP3    H118452   4.659   7.323   1.861
 6169TIP3    H218453   4.665   7.449   1.778
 6170TIP3   OH218454   7.521   0.480   0.672
 6170TIP3    H118455   7.543   0.428   0.595
 6170TIP3    H218456   7.600   0.529   0.692
 6171TIP3   OH218457   0.575   7.015   3.350
 6171TIP3    H118458   0.580   7.039   3.443
 6171TIP3    H218459   0.661   7.039   3.315
 6172TIP3   OH218460   1.964   5.365   2.626
 6172TIP3    H118461   2.047   5.395   2.663
 6172TIP3    H218462   1.897   5.399   2.686
 6173TIP3   OH218463   7.565   5.027   3.909
 6173TIP3    H118464   7.607   5.109   3.935
 6173TIP3    H218465   7.547   4.982   3.992
 6174TIP3   OH218466   5.443   0.576   2.061
 6174TIP3    H118467   5.519   0.569   2.119
 6174TIP3    H218468   5.481   0.590   1.974
 6175TIP3   OH218469   8.059   4.680   3.832
 6175TIP3    H118470   8.143   4.724   3.822
 6175TIP3    H218471   8.003   4.744   3.876
 6176TIP3   OH218472   0.536   7.741   2.002
 6176TIP3    H118473   0.535   7.796   1.923
 6176TIP3    H218474   0.562   7.801   2.072
 6177TIP3   OH218475   2.748   3.457   2.515
 6177TIP3    H118476   2.791   3.454   2.430
 6177TIP3    H218477   2.778   3.539   2.554
 6178TIP3   OH218478   1.451   7.306   1.074
 6178TIP3    H118479   1.368   7.273   1.038
 6178TIP3    H218480   1.424   7.360   1.148
 6179TIP3   OH218481   2.511   0.623   2.956
 6179TIP3    H118482   2.587   0.620   2.898
 6179TIP3    H218483   2.534   0.563   3.028
 6180TIP3   OH218484   7.895   6.876   1.116
 6180TIP3    H118485   7.896   6.934   1.040
 6180TIP3    H218486   7.815   6.899   1.163
 6181TIP3   OH218487   4.460   5.803   0.685
 6181TIP3    H118488   4.376   5.800   0.731
 6181TIP3    H218489   4.525   5.780   0.751
 6182TIP3   OH218490   1.687   4.943   5.542
 6182TIP3    H118491   1.658   4.902   5.461
 6182TIP3    H218492   1.719   4.871   5.595
 6183TIP3   OH218493   4.662   1.699   3.020
 6183TIP3    H118494   4.690   1.694   2.929
 6183TIP3    H218495   4.583   1.646   3.025
 6184TIP3   OH218496   4.249   0.950   6.468
 6184TIP3    H118497   4.161   0.988   6.466
 6184TIP3    H218498   4.244   0.875   6.409
 6185TIP3   OH218499   1.837   0.588   0.014
 6185TIP3    H118500   1.798   0.595   0.101
 6185TIP3    H218501   1.784   0.645  -0.042
 6186TIP3   OH218502   0.349   4.073   3.957
 6186TIP3    H118503   0.363   4.124   4.037
 6186TIP3    H218504   0.326   4.139   3.891
 6187TIP3   OH218505   6.606   4.489   0.190
 6187TIP3    H118506   6.691   4.494   0.233
 6187TIP3    H218507   6.556   4.427   0.243
 6188TIP3   OH218508   5.047   5.157   3.556
 6188TIP3    H118509   5.122   5.158   3.616
 6188TIP3    H218510   5.085   5.169   3.469
 6189TIP3   OH218511   3.029   1.876   0.784
 6189TIP3    H118512   3.080   1.800   0.813
 6189TIP3    H218513   2.963   1.839   0.726
 6190TIP3   OH218514   5.059   3.882   6.701
 6190TIP3    H118515   4.979   3.897   6.753
 6190TIP3    H218516   5.055   3.946   6.631
 6191TIP3   OH218517   4.278   7.813   2.798
 6191TIP3    H118518   4.191   7.836   2.830
 6191TIP3    H218519   4.308   7.891   2.752
 6192TIP3   OH218520   0.741   6.137   3.752
 6192TIP3    H118521   0.646   6.142   3.741
 6192TIP3    H218522   0.776   6.142   3.663
 6193TIP3   OH218523   1.314   7.794   3.493
 6193TIP3    H118524   1.321   7.838   3.578
 6193TIP3    H218525   1.400   7.806   3.453
 6194TIP3   OH218526   5.129   6.664   2.384
 6194TIP3    H118527   5.220   6.688   2.368
 6194TIP3    H218528   5.090   6.742   2.423
 6195TIP3   OH218529   6.145   3.343   5.441
 6195TIP3    H118530   6.232   3.335   5.479
 6195TIP3    H218531   6.150   3.422   5.387
 6196TIP3   OH218532   6.913   2.476   3.625
 6196TIP3    H118533   7.008   2.466   3.630
 6196TIP3    H218534   6.898   2.570   3.634
 6197TIP3   OH218535   2.512   0.291   2.445
 6197TIP3    H118536   2.489   0.363   2.387
 6197TIP3    H218537   2.603   0.308   2.470
 6198TIP3   OH218538   4.531   5.716   2.492
 6198TIP3    H118539   4.608   5.772   2.487
 6198TIP3    H218540   4.565   5.630   2.517
 6199TIP3   OH218541   2.510   0.872   5.951
 6199TIP3    H118542   2.595   0.840   5.980
 6199TIP3    H218543   2.447   0.835   6.012
 6200TIP3   OH218544   5.628   4.402   3.144
 6200TIP3    H118545   5.642   4.376   3.236
 6200TIP3    H218546   5.617   4.497   3.148
 6201TIP3   OH218547   3.048   1.629   6.144
 6201TIP3    H118548   3.051   1.701   6.082
 6201TIP3    H218549   3.057   1.550   6.091
 6202TIP3   OH218550   6.970   3.331   1.400
 6202TIP3    H118551   6.895   3.390   1.406
 6202TIP3    H218552   7.034   3.379   1.348
 6203TIP3   OH218553   5.724   7.198   6.462
 6203TIP3    H118554   5.724   7.292   6.444
 6203TIP3    H218555   5.639   7.180   6.501
 6204TIP3   OH218556   2.884   5.306   6.613
 6204TIP3    H118557   2.894   5.289   6.707
 6204TIP3    H218558   2.934   5.236   6.571
 6205TIP3   OH218559   7.696   5.572   1.802
 6205TIP3    H118560   7.645   5.608   1.874
 6205TIP3    H218561   7.650   5.599   1.723
 6206TIP3   OH218562   2.819   6.657   2.563
 6206TIP3    H118563   2.856   6.695   2.643
 6206TIP3    H218564   2.860   6.571   2.555
 6207TIP3   OH218565   1.320   3.216   1.207
 6207TIP3    H118566   1.291   3.305   1.226
 6207TIP3    H218567   1.370   3.224   1.126
 6208TIP3   OH218568   6.206   0.036   2.483
 6208TIP3    H118569   6.153  -0.024   2.534
 6208TIP3    H218570   6.162   0.042   2.398
 6209TIP3   OH218571   0.818   2.855   6.386
 6209TIP3    H118572   0.808   2.948   6.368
 6209TIP3    H218573   0.771   2.811   6.315
 6210TIP3   OH218574   1.929   7.359   4.281
 6210TIP3    H118575   1.908   7.382   4.372
 6210TIP3    H218576   1.844   7.337   4.242
 6211TIP3   OH218577   6.198   7.226   2.036
 6211TIP3    H118578   6.257   7.299   2.056
 6211TIP3    H218579   6.251   7.166   1.984
 6212TIP3   OH218580   3.651   1.484   2.170
 6212TIP3    H118581   3.585   1.538   2.213
 6212TIP3    H218582   3.617   1.468   2.082
 6213TIP3   OH218583   2.711   1.058   2.010
 6213TIP3    H118584   2.651   1.019   2.073
 6213TIP3    H218585   2.657   1.118   1.959
 6214TIP3   OH218586   1.474   0.424   2.676
 6214TIP3    H118587   1.444   0.485   2.609
 6214TIP3    H218588   1.569   0.435   2.679
 6215TIP3   OH218589   2.003   4.955   5.250
 6215TIP3    H118590   1.997   4.866   5.215
 6215TIP3    H218591   2.086   4.988   5.217
 6216TIP3   OH218592   1.767   0.394   4.027
 6216TIP3    H118593   1.783   0.488   4.031
 6216TIP3    H218594   1.721   0.373   4.108
 6217TIP3   OH218595   1.498   7.210   1.425
 6217TIP3    H118596   1.548   7.221   1.505
 6217TIP3    H218597   1.409   7.239   1.446
 6218TIP3   OH218598   5.559   7.752   1.823
 6218TIP3    H118599   5.572   7.726   1.915
 6218TIP3    H218600   5.470   7.786   1.820
 6219TIP3   OH218601   1.833   6.529   0.379
 6219TIP3    H118602   1.900   6.479   0.426
 6219TIP3    H218603   1.761   6.538   0.441
 6220TIP3   OH218604   4.481   7.541   3.352
 6220TIP3    H118605   4.439   7.546   3.265
 6220TIP3    H218606   4.412   7.508   3.409
 6221TIP3   OH218607   2.920   2.454   3.557
 6221TIP3    H118608   2.960   2.495   3.633
 6221TIP3    H218609   2.972   2.484   3.483
 6222TIP3   OH218610   3.487   3.172   3.741
 6222TIP3    H118611   3.507   3.211   3.656
 6222TIP3    H218612   3.392   3.163   3.741
 6223TIP3   OH218613   7.347   3.235   5.185
 6223TIP3    H118614   7.287   3.295   5.229
 6223TIP3    H218615   7.291   3.186   5.124
 6224TIP3   OH218616   8.003   4.973   0.913
 6224TIP3    H118617   8.006   5.066   0.938
 6224TIP3    H218618   7.966   4.974   0.825
 6225TIP3   OH218619   5.023   2.551   6.208
 6225TIP3    H118620   5.102   2.566   6.260
 6225TIP3    H218621   4.981   2.476   6.249
 6226TIP3   OH218622   0.700   2.797   3.335
 6226TIP3    H118623   0.747   2.880   3.325
 6226TIP3    H218624   0.761   2.741   3.383
 6227TIP3   OH218625   4.198   2.942   3.615
 6227TIP3    H118626   4.168   2.859   3.652
 6227TIP3    H218627   4.218   2.997   3.691
 6228TIP3   OH218628   7.203   4.749   2.457
 6228TIP3    H118629   7.234   4.711   2.539
 6228TIP3    H218630   7.167   4.834   2.482
 6229TIP3   OH218631   7.415   6.838   4.964
 6229TIP3    H118632   7.474   6.913   4.958
 6229TIP3    H218633   7.328   6.876   4.951
 6230TIP3   OH218634   2.608   5.165   5.853
 6230TIP3    H118635   2.657   5.244   5.875
 6230TIP3    H218636   2.637   5.143   5.765
 6231TIP3   OH218637   6.351   0.408   2.335
 6231TIP3    H118638   6.263   0.416   2.298
 6231TIP3    H218639   6.337   0.405   2.429
 6232TIP3   OH218640   5.014   7.656   3.613
 6232TIP3    H118641   5.078   7.723   3.589
 6232TIP3    H218642   4.953   7.702   3.671
 6233TIP3   OH218643   5.775   0.353   1.731
 6233TIP3    H118644   5.682   0.337   1.746
 6233TIP3    H218645   5.777   0.398   1.646
 6234TIP3   OH218646   1.092   4.819   0.306
 6234TIP3    H118647   1.152   4.747   0.326
 6234TIP3    H218648   1.147   4.883   0.260
 6235TIP3   OH218649   3.328   3.311   1.369
 6235TIP3    H118650   3.298   3.401   1.362
 6235TIP3    H218651   3.316   3.289   1.462
 6236TIP3   OH218652   8.185   3.504   3.928
 6236TIP3    H118653   8.126   3.439   3.965
 6236TIP3    H218654   8.149   3.588   3.957
 6237TIP3   OH218655   3.862   1.344   2.307
 6237TIP3    H118656   3.799   1.412   2.282
 6237TIP3    H218657   3.811   1.281   2.358
 6238TIP3   OH218658   2.067   3.789   5.300
 6238TIP3    H118659   2.063   3.776   5.205
 6238TIP3    H218660   2.047   3.882   5.312
 6239TIP3   OH218661   3.799   5.010   3.420
 6239TIP3    H118662   3.806   4.917   3.402
 6239TIP3    H218663   3.881   5.047   3.388
 6240TIP3   OH218664   5.388   1.923   5.555
 6240TIP3    H118665   5.449   1.929   5.629
 6240TIP3    H218666   5.338   2.004   5.559
 6241TIP3   OH218667   8.071   1.324   1.890
 6241TIP3    H118668   8.144   1.360   1.840
 6241TIP3    H218669   8.104   1.242   1.927
 6242TIP3   OH218670   7.772   1.462   2.397
 6242TIP3    H118671   7.765   1.539   2.453
 6242TIP3    H218672   7.795   1.496   2.311
 6243TIP3   OH218673   3.084   1.455   5.235
 6243TIP3    H118674   3.140   1.532   5.222
 6243TIP3    H218675   3.002   1.477   5.191
 6244TIP3   OH218676   2.286   3.104   3.416
 6244TIP3    H118677   2.311   3.048   3.489
 6244TIP3    H218678   2.336   3.069   3.342
 6245TIP3   OH218679   0.029   1.013   2.779
 6245TIP3    H118680   0.093   0.946   2.756
 6245TIP3    H218681   0.070   1.096   2.755
 6246TIP3   OH218682   2.511   2.777   1.204
 6246TIP3    H118683   2.555   2.716   1.145
 6246TIP3    H218684   2.453   2.828   1.148
 6247TIP3   OH218685   4.494   2.004   0.151
 6247TIP3    H118686   4.421   2.056   0.117
 6247TIP3    H218687   4.529   2.055   0.224
 6248TIP3   OH218688   5.209   3.741   1.156
 6248TIP3    H118689   5.196   3.652   1.186
 6248TIP3    H218690   5.224   3.792   1.235
 6249TIP3   OH218691   6.143   3.534   5.260
 6249TIP3    H118692   6.207   3.468   5.231
 6249TIP3    H218693   6.168   3.614   5.213
 6250TIP3   OH218694   2.861   7.217   1.259
 6250TIP3    H118695   2.775   7.215   1.218
 6250TIP3    H218696   2.881   7.125   1.278
 6251TIP3   OH218697   1.873   0.264   6.174
 6251TIP3    H118698   1.822   0.340   6.203
 6251TIP3    H218699   1.817   0.221   6.109
 6252TIP3   OH218700   1.098   7.208   1.259
 6252TIP3    H118701   1.182   7.221   1.303
 6252TIP3    H218702   1.071   7.295   1.231
 6253TIP3   OH218703   3.698   2.833   5.044
 6253TIP3    H118704   3.767   2.885   5.002
 6253TIP3    H218705   3.653   2.894   5.102
 6254TIP3   OH218706   7.070   0.955   1.572
 6254TIP3    H118707   7.143   0.942   1.512
 6254TIP3    H218708   7.086   0.894   1.644
 6255TIP3   OH218709   6.750   1.032   6.387
 6255TIP3    H118710   6.698   1.038   6.467
 6255TIP3    H218711   6.774   0.940   6.381
 6256TIP3   OH218712   5.276   3.600   3.635
 6256TIP3    H118713   5.184   3.624   3.651
 6256TIP3    H218714   5.271   3.530   3.570
 6257TIP3   OH218715   3.783   0.725   4.353
 6257TIP3    H118716   3.846   0.764   4.292
 6257TIP3    H218717   3.770   0.636   4.322
 6258TIP3   OH218718   3.479   3.111   6.517
 6258TIP3    H118719   3.573   3.127   6.507
 6258TIP3    H218720   3.444   3.193   6.553
 6259TIP3   OH218721   1.069   5.169   6.592
 6259TIP3    H118722   0.997   5.135   6.538
 6259TIP3    H218723   1.074   5.262   6.569
 6260TIP3   OH218724   5.734   4.926   5.851
 6260TIP3    H118725   5.661   4.896   5.798
 6260TIP3    H218726   5.723   4.881   5.935
 6261TIP3   OH218727   3.930   2.246   5.364
 6261TIP3    H118728   3.842   2.245   5.328
 6261TIP3    H218729   3.948   2.338   5.383
 6262TIP3   OH218730   1.360   5.383   6.388
 6262TIP3    H118731   1.419   5.440   6.338
 6262TIP3    H218732   1.418   5.332   6.445
 6263TIP3   OH218733   7.653   7.574   2.102
 6263TIP3    H118734   7.611   7.500   2.147
 6263TIP3    H218735   7.743   7.546   2.089
 6264TIP3   OH218736   5.601   7.617   5.648
 6264TIP3    H118737   5.551   7.546   5.688
 6264TIP3    H218738   5.693   7.595   5.666
 6265TIP3   OH218739   7.749   0.920   3.536
 6265TIP3    H118740   7.776   0.955   3.620
 6265TIP3    H218741   7.714   0.833   3.556
 6266TIP3   OH218742   5.738   6.107   2.817
 6266TIP3    H118743   5.671   6.050   2.854
 6266TIP3    H218744   5.781   6.147   2.893
 6267TIP3   OH218745   0.167   6.344   6.142
 6267TIP3    H118746   0.249   6.311   6.178
 6267TIP3    H218747   0.186   6.358   6.049
 6268TIP3   OH218748   4.148   1.697   3.656
 6268TIP3    H118749   4.056   1.673   3.658
 6268TIP3    H218750   4.195   1.613   3.654
 6269TIP3   OH218751   7.556   7.422   2.353
 6269TIP3    H118752   7.571   7.340   2.399
 6269TIP3    H218753   7.530   7.484   2.421
 6270TIP3   OH218754   4.448   0.308   5.868
 6270TIP3    H118755   4.375   0.297   5.929
 6270TIP3    H218756   4.465   0.220   5.834
 6271TIP3   OH218757   0.076   1.329   5.317
 6271TIP3    H118758   0.102   1.244   5.353
 6271TIP3    H218759   0.093   1.391   5.388
 6272TIP3   OH218760   5.372   1.408   2.238
 6272TIP3    H118761   5.465   1.428   2.253
 6272TIP3    H218762   5.331   1.493   2.224
 6273TIP3   OH218763   6.398   0.856   6.537
 6273TIP3    H118764   6.379   0.920   6.606
 6273TIP3    H218765   6.439   0.783   6.583
 6274TIP3   OH218766   2.398   2.692   5.317
 6274TIP3    H118767   2.420   2.759   5.252
 6274TIP3    H218768   2.319   2.650   5.283
 6275TIP3   OH218769   4.544   0.386   3.628
 6275TIP3    H118770   4.545   0.459   3.566
 6275TIP3    H218771   4.533   0.427   3.714
 6276TIP3   OH218772   6.526   0.833   5.690
 6276TIP3    H118773   6.580   0.893   5.639
 6276TIP3    H218774   6.528   0.751   5.640
 6277TIP3   OH218775   7.989   1.482   1.121
 6277TIP3    H118776   8.047   1.406   1.117
 6277TIP3    H218777   7.920   1.463   1.058
 6278TIP3   OH218778   6.150   3.099   4.611
 6278TIP3    H118779   6.204   3.020   4.606
 6278TIP3    H218780   6.193   3.161   4.553
 6279TIP3   OH218781   6.554   7.633   4.236
 6279TIP3    H118782   6.575   7.540   4.235
 6279TIP3    H218783   6.565   7.659   4.327
 6280TIP3   OH218784   1.568   7.778   3.402
 6280TIP3    H118785   1.579   7.683   3.409
 6280TIP3    H218786   1.657   7.811   3.389
 6281TIP3   OH218787   2.943   2.802   5.915
 6281TIP3    H118788   2.913   2.718   5.949
 6281TIP3    H218789   3.007   2.779   5.847
 6282TIP3   OH218790   0.421   7.598   1.143
 6282TIP3    H118791   0.471   7.608   1.224
 6282TIP3    H218792   0.362   7.673   1.142
 6283TIP3   OH218793   8.172   1.642   4.265
 6283TIP3    H118794   8.142   1.598   4.185
 6283TIP3    H218795   8.092   1.662   4.313
 6284TIP3   OH218796   3.240   2.352   2.583
 6284TIP3    H118797   3.185   2.351   2.504
 6284TIP3    H218798   3.187   2.396   2.649
 6285TIP3   OH218799   7.072   5.449   3.703
 6285TIP3    H118800   7.043   5.478   3.789
 6285TIP3    H218801   7.000   5.395   3.670
 6286TIP3   OH218802   1.981   2.913   1.490
 6286TIP3    H118803   2.010   2.856   1.418
 6286TIP3    H218804   1.891   2.885   1.507
 6287TIP3   OH218805   7.218   4.108   5.178
 6287TIP3    H118806   7.297   4.120   5.230
 6287TIP3    H218807   7.228   4.021   5.138
 6288TIP3   OH218808   1.497   0.055   1.241
 6288TIP3    H118809   1.484  -0.021   1.298
 6288TIP3    H218810   1.527   0.017   1.158
 6289TIP3   OH218811   4.237   0.409   3.974
 6289TIP3    H118812   4.165   0.345   3.970
 6289TIP3    H218813   4.212   0.476   3.910
 6290TIP3   OH218814   4.503   4.518   1.420
 6290TIP3    H118815   4.502   4.443   1.479
 6290TIP3    H218816   4.498   4.481   1.332
 6291TIP3   OH218817   3.327   2.866   5.458
 6291TIP3    H118818   3.380   2.945   5.458
 6291TIP3    H218819   3.359   2.815   5.384
 6292TIP3   OH218820   1.618   4.089   2.672
 6292TIP3    H118821   1.661   4.011   2.707
 6292TIP3    H218822   1.542   4.102   2.729
 6293TIP3   OH218823   6.256   2.641   2.618
 6293TIP3    H118824   6.326   2.684   2.569
 6293TIP3    H218825   6.237   2.702   2.690
 6294TIP3   OH218826   2.829   7.523   6.370
 6294TIP3    H118827   2.902   7.506   6.430
 6294TIP3    H218828   2.753   7.535   6.427
 6295TIP3   OH218829   2.886   0.999   2.772
 6295TIP3    H118830   2.803   1.045   2.786
 6295TIP3    H218831   2.953   1.059   2.805
 6296TIP3   OH218832   5.444   4.510   1.912
 6296TIP3    H118833   5.476   4.509   2.003
 6296TIP3    H218834   5.385   4.435   1.907
 6297TIP3   OH218835   1.651   4.632   2.408
 6297TIP3    H118836   1.598   4.553   2.419
 6297TIP3    H218837   1.673   4.660   2.497
 6298TIP3   OH218838   8.204   1.781   3.514
 6298TIP3    H118839   8.125   1.824   3.545
 6298TIP3    H218840   8.197   1.691   3.546
 6299TIP3   OH218841   0.413   4.327   3.594
 6299TIP3    H118842   0.504   4.301   3.581
 6299TIP3    H218843   0.361   4.249   3.575
 6300TIP3   OH218844   2.188   5.463   2.752
 6300TIP3    H118845   2.212   5.547   2.790
 6300TIP3    H218846   2.240   5.399   2.802
 6301TIP3   OH218847   1.240   4.494   1.924
 6301TIP3    H118848   1.190   4.456   1.851
 6301TIP3    H218849   1.210   4.585   1.928
 6302TIP3   OH218850   3.889   1.659   5.772
 6302TIP3    H118851   3.826   1.695   5.711
 6302TIP3    H218852   3.939   1.735   5.803
 6303TIP3   OH218853   5.049   2.284   4.745
 6303TIP3    H118854   4.973   2.245   4.788
 6303TIP3    H218855   5.019   2.304   4.657
 6304TIP3   OH218856   3.693   2.214   3.095
 6304TIP3    H118857   3.667   2.304   3.112
 6304TIP3    H218858   3.697   2.174   3.182
 6305TIP3   OH218859   5.044   0.677   1.707
 6305TIP3    H118860   4.962   0.631   1.687
 6305TIP3    H218861   5.111   0.609   1.704
 6306TIP3   OH218862   0.842   0.578   2.682
 6306TIP3    H118863   0.816   0.667   2.658
 6306TIP3    H218864   0.823   0.572   2.776
 6307TIP3   OH218865   5.721   5.129   6.578
 6307TIP3    H118866   5.687   5.217   6.594
 6307TIP3    H218867   5.645   5.072   6.585
 6308TIP3   OH218868   8.242   7.562   0.943
 6308TIP3    H118869   8.275   7.476   0.915
 6308TIP3    H218870   8.318   7.606   0.980
 6309TIP3   OH218871   6.227   4.751   3.377
 6309TIP3    H118872   6.283   4.715   3.446
 6309TIP3    H218873   6.172   4.816   3.422
 6310TIP3   OH218874   0.333   7.678   4.186
 6310TIP3    H118875   0.241   7.683   4.158
 6310TIP3    H218876   0.360   7.769   4.194
 6311TIP3   OH218877   7.302   4.768   2.705
 6311TIP3    H118878   7.346   4.734   2.783
 6311TIP3    H218879   7.211   4.780   2.731
 6312TIP3   OH218880   5.350   1.503   3.262
 6312TIP3    H118881   5.388   1.553   3.190
 6312TIP3    H218882   5.425   1.460   3.303
 6313TIP3   OH218883   1.377   2.433   4.660
 6313TIP3    H118884   1.402   2.400   4.573
 6313TIP3    H218885   1.432   2.510   4.673
 6314TIP3   OH218886   5.388   3.052   6.619
 6314TIP3    H118887   5.450   3.092   6.557
 6314TIP3    H218888   5.443   3.022   6.691
 6315TIP3   OH218889   1.122   7.310   3.104
 6315TIP3    H118890   1.043   7.307   3.158
 6315TIP3    H218891   1.128   7.223   3.066
 6316TIP3   OH218892   1.043   5.399   5.615
 6316TIP3    H118893   1.022   5.475   5.561
 6316TIP3    H218894   1.085   5.435   5.693
 6317TIP3   OH218895   2.194   4.928   1.346
 6317TIP3    H118896   2.198   4.837   1.315
 6317TIP3    H218897   2.101   4.943   1.362
 6318TIP3   OH218898   1.305   0.577   1.078
 6318TIP3    H118899   1.306   0.637   1.152
 6318TIP3    H218900   1.382   0.522   1.091
 6319TIP3   OH218901   5.738   1.631   5.622
 6319TIP3    H118902   5.771   1.608   5.709
 6319TIP3    H218903   5.719   1.546   5.581
 6320TIP3   OH218904   7.459   6.234   5.708
 6320TIP3    H118905   7.546   6.273   5.698
 6320TIP3    H218906   7.409   6.299   5.757
 6321TIP3   OH218907   7.875   6.068   0.189
 6321TIP3    H118908   7.874   6.105   0.101
 6321TIP3    H218909   7.805   6.113   0.235
 6322TIP3   OH218910   5.485   0.095   0.139
 6322TIP3    H118911   5.396   0.089   0.175
 6322TIP3    H218912   5.494   0.186   0.111
 6323TIP3   OH218913   6.718   4.861   4.688
 6323TIP3    H118914   6.805   4.862   4.729
 6323TIP3    H218915   6.718   4.782   4.634
 6324TIP3   OH218916   7.930   7.052   1.583
 6324TIP3    H118917   8.014   7.056   1.629
 6324TIP3    H218918   7.924   6.961   1.552
 6325TIP3   OH218919   1.599   4.226   0.237
 6325TIP3    H118920   1.580   4.176   0.158
 6325TIP3    H218921   1.515   4.233   0.282
 6326TIP3   OH218922   3.180   1.306   0.717
 6326TIP3    H118923   3.255   1.365   0.725
 6326TIP3    H218924   3.205   1.244   0.648
 6327TIP3   OH218925   5.575   7.472   4.284
 6327TIP3    H118926   5.490   7.463   4.241
 6327TIP3    H218927   5.555   7.484   4.377
 6328TIP3   OH218928   2.683   6.988   1.749
 6328TIP3    H118929   2.766   6.947   1.773
 6328TIP3    H218930   2.617   6.939   1.798
 6329TIP3   OH218931   2.419   5.843   6.602
 6329TIP3    H118932   2.333   5.860   6.566
 6329TIP3    H218933   2.480   5.867   6.532
 6330TIP3   OH218934   3.937   3.125   0.039
 6330TIP3    H118935   3.927   3.090  -0.050
 6330TIP3    H218936   4.004   3.192   0.031
 6331TIP3   OH218937   6.470   4.917   2.994
 6331TIP3    H118938   6.490   4.981   3.062
 6331TIP3    H218939   6.380   4.890   3.013
 6332TIP3   OH218940   0.998   2.208   1.211
 6332TIP3    H118941   1.077   2.174   1.170
 6332TIP3    H218942   0.942   2.131   1.225
 6333TIP3   OH218943   8.099   5.902   1.313
 6333TIP3    H118944   8.126   5.970   1.375
 6333TIP3    H218945   8.012   5.877   1.342
 6334TIP3   OH218946   4.026   3.451   0.581
 6334TIP3    H118947   4.113   3.484   0.558
 6334TIP3    H218948   3.976   3.529   0.603
 6335TIP3   OH218949   0.636   2.092   0.076
 6335TIP3    H118950   0.584   2.152   0.022
 6335TIP3    H218951   0.725   2.102   0.044
 6336TIP3   OH218952   0.652   0.531   5.900
 6336TIP3    H118953   0.729   0.550   5.954
 6336TIP3    H218954   0.620   0.447   5.933
 6337TIP3   OH218955   5.841   7.375   3.827
 6337TIP3    H118956   5.833   7.280   3.839
 6337TIP3    H218957   5.791   7.413   3.899
 6338TIP3   OH218958   6.895   1.505   0.844
 6338TIP3    H118959   6.873   1.598   0.854
 6338TIP3    H218960   6.960   1.503   0.773
 6339TIP3   OH218961   4.736   6.557   6.375
 6339TIP3    H118962   4.757   6.539   6.283
 6339TIP3    H218963   4.772   6.645   6.391
 6340TIP3   OH218964   4.781   6.358   6.649
 6340TIP3    H118965   4.791   6.423   6.718
 6340TIP3    H218966   4.690   6.365   6.623
 6341TIP3   OH218967   5.464   5.217   6.295
 6341TIP3    H118968   5.484   5.297   6.345
 6341TIP3    H218969   5.538   5.158   6.314
 6342TIP3   OH218970   2.739   0.162   1.703
 6342TIP3    H118971   2.680   0.238   1.704
 6342TIP3    H218972   2.683   0.088   1.725
 6343TIP3   OH218973   5.945   6.046   4.020
 6343TIP3    H118974   5.881   5.984   4.055
 6343TIP3    H218975   5.969   6.100   4.095
 6344TIP3   OH218976   0.548   2.265   5.864
 6344TIP3    H118977   0.619   2.306   5.813
 6344TIP3    H218978   0.539   2.178   5.825
 6345TIP3   OH218979   3.683   2.609   2.488
 6345TIP3    H118980   3.650   2.641   2.404
 6345TIP3    H218981   3.768   2.653   2.499
 6346TIP3   OH218982   1.429   2.598   6.424
 6346TIP3    H118983   1.342   2.559   6.436
 6346TIP3    H218984   1.446   2.644   6.506
 6347TIP3   OH218985   2.672   3.617   0.131
 6347TIP3    H118986   2.746   3.559   0.112
 6347TIP3    H218987   2.659   3.611   0.225
 6348TIP3   OH218988   0.976   0.066   3.260
 6348TIP3    H118989   0.902   0.012   3.231
 6348TIP3    H218990   1.053   0.011   3.245
 6349TIP3   OH218991   7.136   1.503   2.047
 6349TIP3    H118992   7.183   1.583   2.022
 6349TIP3    H218993   7.112   1.517   2.138
 6350TIP3   OH218994   2.170   6.838   2.444
 6350TIP3    H118995   2.173   6.795   2.358
 6350TIP3    H218996   2.244   6.898   2.443
 6351TIP3   OH218997   5.699   3.993   0.264
 6351TIP3    H118998   5.618   4.015   0.311
 6351TIP3    H218999   5.691   4.038   0.180
 6352TIP3   OH219000   1.592   3.052   5.780
 6352TIP3    H119001   1.622   2.970   5.821
 6352TIP3    H219002   1.647   3.120   5.821
 6353TIP3   OH219003   5.695   0.540   6.285
 6353TIP3    H119004   5.724   0.500   6.203
 6353TIP3    H219005   5.764   0.518   6.348
 6354TIP3   OH219006   5.909   7.669   0.838
 6354TIP3    H119007   5.952   7.727   0.900
 6354TIP3    H219008   5.824   7.710   0.822
 6355TIP3   OH219009   1.379   5.115   6.751
 6355TIP3    H119010   1.396   5.206   6.727
 6355TIP3    H219011   1.293   5.117   6.794
 6356TIP3   OH219012   6.462   3.697   3.607
 6356TIP3    H119013   6.409   3.747   3.670
 6356TIP3    H219014   6.479   3.614   3.651
 6357TIP3   OH219015   2.777   0.559   2.838
 6357TIP3    H119016   2.859   0.524   2.803
 6357TIP3    H219017   2.804   0.630   2.896
 6358TIP3   OH219018   1.003   1.347   6.400
 6358TIP3    H119019   0.953   1.294   6.338
 6358TIP3    H219020   0.941   1.363   6.472
 6359TIP3   OH219021   3.322   7.186   5.749
 6359TIP3    H119022   3.347   7.145   5.832
 6359TIP3    H219023   3.335   7.280   5.764
 6360TIP3   OH219024   7.612   3.492   3.815
 6360TIP3    H119025   7.654   3.578   3.815
 6360TIP3    H219026   7.685   3.431   3.808
 6361TIP3   OH219027   7.016   4.140   0.403
 6361TIP3    H119028   6.989   4.215   0.455
 6361TIP3    H219029   6.937   4.086   0.396
 6362TIP3   OH219030   8.158   7.189   4.115
 6362TIP3    H119031   8.248   7.223   4.111
 6362TIP3    H219032   8.120   7.231   4.192
 6363TIP3   OH219033   7.088   7.316   5.055
 6363TIP3    H119034   7.020   7.263   5.013
 6363TIP3    H219035   7.142   7.253   5.103
 6364TIP3   OH219036   7.857   6.624   4.148
 6364TIP3    H119037   7.948   6.650   4.132
 6364TIP3    H219038   7.815   6.704   4.180
 6365TIP3   OH219039   0.107   1.322   0.883
 6365TIP3    H119040   0.036   1.316   0.820
 6365TIP3    H219041   0.151   1.237   0.879
 6366TIP3   OH219042   6.211   2.812   4.833
 6366TIP3    H119043   6.117   2.799   4.818
 6366TIP3    H219044   6.244   2.848   4.751
 6367TIP3   OH219045   0.789   0.052   2.094
 6367TIP3    H119046   0.780   0.018   2.183
 6367TIP3    H219047   0.844   0.130   2.103
 6368TIP3   OH219048   2.533   5.762   0.110
 6368TIP3    H119049   2.451   5.721   0.140
 6368TIP3    H219050   2.593   5.688   0.097
 6369TIP3   OH219051   3.248   2.703   5.689
 6369TIP3    H119052   3.235   2.762   5.616
 6369TIP3    H219053   3.302   2.753   5.751
 6370TIP3   OH219054   0.567   4.927   4.722
 6370TIP3    H119055   0.485   4.887   4.695
 6370TIP3    H219056   0.542   4.993   4.787
 6371TIP3   OH219057   8.134   0.592   0.253
 6371TIP3    H119058   8.167   0.512   0.295
 6371TIP3    H219059   8.133   0.571   0.159
 6372TIP3   OH219060   5.136   2.076   5.314
 6372TIP3    H119061   5.222   2.097   5.276
 6372TIP3    H219062   5.156   2.056   5.406
 6373TIP3   OH219063   0.458   1.707   2.747
 6373TIP3    H119064   0.490   1.734   2.660
 6373TIP3    H219065   0.472   1.613   2.749
 6374TIP3   OH219066   3.124   3.711   4.671
 6374TIP3    H119067   3.130   3.741   4.762
 6374TIP3    H219068   3.049   3.650   4.671
 6375TIP3   OH219069   0.348   6.297   0.766
 6375TIP3    H119070   0.313   6.230   0.824
 6375TIP3    H219071   0.443   6.286   0.771
 6376TIP3   OH219072   7.366   4.520   1.064
 6376TIP3    H119073   7.320   4.601   1.085
 6376TIP3    H219074   7.459   4.543   1.071
 6377TIP3   OH219075   7.100   1.429   5.447
 6377TIP3    H119076   7.025   1.370   5.438
 6377TIP3    H219077   7.089   1.469   5.534
 6378TIP3   OH219078   2.013   2.970   5.770
 6378TIP3    H119079   1.961   2.914   5.712
 6378TIP3    H219080   1.994   2.936   5.858
 6379TIP3   OH219081   5.018   5.881   1.458
 6379TIP3    H119082   5.078   5.948   1.491
 6379TIP3    H219083   4.932   5.922   1.463
 6380TIP3   OH219084   0.304   6.634   2.811
 6380TIP3    H119085   0.261   6.690   2.876
 6380TIP3    H219086   0.236   6.618   2.746
 6381TIP3   OH219087   2.686   6.827   4.579
 6381TIP3    H119088   2.780   6.815   4.590
 6381TIP3    H219089   2.658   6.753   4.526
 6382TIP3   OH219090   5.917   2.803   6.245
 6382TIP3    H119091   6.002   2.759   6.252
 6382TIP3    H219092   5.905   2.845   6.330
 6383TIP3   OH219093   1.226   5.634   1.889
 6383TIP3    H119094   1.142   5.679   1.880
 6383TIP3    H219095   1.290   5.698   1.858
 6384TIP3   OH219096   1.479   5.772   2.168
 6384TIP3    H119097   1.557   5.759   2.113
 6384TIP3    H219098   1.472   5.867   2.177
 6385TIP3   OH219099   6.450   2.623   6.649
 6385TIP3    H119100   6.374   2.569   6.626
 6385TIP3    H219101   6.446   2.697   6.589
 6386TIP3   OH219102   6.116   2.738   2.944
 6386TIP3    H119103   6.093   2.649   2.973
 6386TIP3    H219104   6.036   2.789   2.958
 6387TIP3   OH219105   0.510   4.403   4.164
 6387TIP3    H119106   0.583   4.342   4.157
 6387TIP3    H219107   0.548   4.487   4.139
 6388TIP3   OH219108   0.739   7.241   4.795
 6388TIP3    H119109   0.651   7.274   4.775
 6388TIP3    H219110   0.768   7.203   4.712
 6389TIP3   OH219111   2.917   5.415   0.994
 6389TIP3    H119112   2.997   5.432   0.944
 6389TIP3    H219113   2.871   5.499   0.994
 6390TIP3   OH219114   2.152   4.005   4.022
 6390TIP3    H119115   2.173   3.914   4.003
 6390TIP3    H219116   2.172   4.015   4.115
 6391TIP3   OH219117   1.820   0.725   0.667
 6391TIP3    H119118   1.735   0.748   0.705
 6391TIP3    H219119   1.879   0.720   0.742
 6392TIP3   OH219120   1.734   0.180   5.922
 6392TIP3    H119121   1.740   0.169   5.827
 6392TIP3    H219122   1.661   0.124   5.948
 6393TIP3   OH219123   7.948   1.774   4.383
 6393TIP3    H119124   7.888   1.758   4.456
 6393TIP3    H219125   7.940   1.868   4.366
 6394TIP3   OH219126   3.200   3.979   5.574
 6394TIP3    H119127   3.105   3.984   5.561
 6394TIP3    H219128   3.229   3.914   5.511
 6395TIP3   OH219129   3.815   5.075   0.414
 6395TIP3    H119130   3.821   5.019   0.491
 6395TIP3    H219131   3.905   5.080   0.381
 6396TIP3   OH219132   5.613   5.615   0.920
 6396TIP3    H119133   5.704   5.613   0.891
 6396TIP3    H219134   5.581   5.526   0.905
 6397TIP3   OH219135   1.609   1.332   5.346
 6397TIP3    H119136   1.575   1.261   5.401
 6397TIP3    H219137   1.530   1.379   5.318
 6398TIP3   OH219138   1.990   4.591   5.872
 6398TIP3    H119139   1.983   4.555   5.961
 6398TIP3    H219140   2.024   4.680   5.885
 6399TIP3   OH219141   0.419   5.801   3.776
 6399TIP3    H119142   0.426   5.735   3.707
 6399TIP3    H219143   0.503   5.846   3.775
 6400TIP3   OH219144   2.301   2.685   4.544
 6400TIP3    H119145   2.320   2.778   4.532
 6400TIP3    H219146   2.239   2.665   4.473
 6401TIP3   OH219147   8.004   6.211   3.074
 6401TIP3    H119148   7.917   6.176   3.094
 6401TIP3    H219149   8.023   6.270   3.147
 6402TIP3   OH219150   3.425   3.493   3.514
 6402TIP3    H119151   3.501   3.435   3.510
 6402TIP3    H219152   3.457   3.573   3.556
 6403TIP3   OH219153   0.681   6.297   3.054
 6403TIP3    H119154   0.650   6.382   3.025
 6403TIP3    H219155   0.772   6.311   3.080
 6404TIP3   OH219156   5.581   5.916   2.943
 6404TIP3    H119157   5.611   5.831   2.911
 6404TIP3    H219158   5.586   5.909   3.038
 6405TIP3   OH219159   2.350   2.995   6.704
 6405TIP3    H119160   2.443   3.002   6.684
 6405TIP3    H219161   2.328   3.081   6.740
 6406TIP3   OH219162   8.257   5.606   3.274
 6406TIP3    H119163   8.257   5.513   3.255
 6406TIP3    H219164   8.170   5.624   3.310
 6407TIP3   OH219165   6.252   5.696   2.027
 6407TIP3    H119166   6.307   5.618   2.024
 6407TIP3    H219167   6.280   5.742   2.107
 6408TIP3   OH219168   2.968   1.331   5.455
 6408TIP3    H119169   3.000   1.370   5.373
 6408TIP3    H219170   2.903   1.266   5.427
 6409TIP3   OH219171   5.501   7.682   4.503
 6409TIP3    H119172   5.526   7.744   4.435
 6409TIP3    H219173   5.559   7.701   4.576
 6410TIP3   OH219174   4.660   6.320   3.322
 6410TIP3    H119175   4.705   6.339   3.404
 6410TIP3    H219176   4.602   6.247   3.343
 6411TIP3   OH219177   8.058   7.624   1.515
 6411TIP3    H119178   8.014   7.696   1.471
 6411TIP3    H219179   8.088   7.660   1.598
 6412TIP3   OH219180   1.713   3.784   2.171
 6412TIP3    H119181   1.689   3.701   2.212
 6412TIP3    H219182   1.771   3.826   2.235
 6413TIP3   OH219183   6.411   0.639  -0.002
 6413TIP3    H119184   6.495   0.598   0.022
 6413TIP3    H219185   6.366   0.651   0.081
 6414TIP3   OH219186   5.202   3.967   5.062
 6414TIP3    H119187   5.254   4.026   5.117
 6414TIP3    H219188   5.120   4.014   5.047
 6415TIP3   OH219189   7.077   4.462   0.871
 6415TIP3    H119190   7.152   4.500   0.916
 6415TIP3    H219191   7.058   4.524   0.800
 6416TIP3   OH219192   1.551   6.611   2.391
 6416TIP3    H119193   1.579   6.523   2.367
 6416TIP3    H219194   1.629   6.665   2.382
 6417TIP3   OH219195   0.607   2.585   1.347
 6417TIP3    H119196   0.670   2.630   1.404
 6417TIP3    H219197   0.643   2.596   1.259
 6418TIP3   OH219198   1.779   4.137   3.342
 6418TIP3    H119199   1.691   4.138   3.379
 6418TIP3    H219200   1.827   4.074   3.396
 6419TIP3   OH219201   6.563   6.124   0.631
 6419TIP3    H119202   6.614   6.082   0.562
 6419TIP3    H219203   6.611   6.105   0.712
 6420TIP3   OH219204   4.382   1.588   0.967
 6420TIP3    H119205   4.310   1.589   1.030
 6420TIP3    H219206   4.373   1.505   0.921
 6421TIP3   OH219207   3.999   2.906   6.265
 6421TIP3    H119208   4.013   2.993   6.228
 6421TIP3    H219209   3.904   2.893   6.259
 6422TIP3   OH219210   2.162   5.403   5.162
 6422TIP3    H119211   2.209   5.347   5.224
 6422TIP3    H219212   2.228   5.466   5.133
 6423TIP3   OH219213   0.216   5.676   3.371
 6423TIP3    H119214   0.270   5.733   3.317
 6423TIP3    H219215   0.126   5.701   3.350
 6424TIP3   OH219216   3.334   5.035   6.368
 6424TIP3    H119217   3.331   5.095   6.294
 6424TIP3    H219218   3.313   5.090   6.444
 6425TIP3   OH219219   2.327   4.839   2.328
 6425TIP3    H119220   2.326   4.769   2.393
 6425TIP3    H219221   2.234   4.861   2.315
 6426TIP3   OH219222   0.891   2.164   0.007
 6426TIP3    H119223   0.889   2.230  -0.062
 6426TIP3    H219224   0.965   2.189   0.063
 6427TIP3   OH219225   7.519   6.924   6.311
 6427TIP3    H119226   7.495   6.846   6.360
 6427TIP3    H219227   7.504   6.996   6.373
 6428TIP3   OH219228   3.594   5.376   3.607
 6428TIP3    H119229   3.617   5.284   3.620
 6428TIP3    H219230   3.610   5.392   3.514
 6429TIP3   OH219231   6.881   3.002   1.041
 6429TIP3    H119232   6.939   2.927   1.042
 6429TIP3    H219233   6.935   3.074   1.008
 6430TIP3   OH219234   7.725   0.319   1.783
 6430TIP3    H119235   7.729   0.355   1.694
 6430TIP3    H219236   7.637   0.281   1.789
 6431TIP3   OH219237   3.581   0.427   3.637
 6431TIP3    H119238   3.664   0.443   3.683
 6431TIP3    H219239   3.587   0.336   3.608
 6432TIP3   OH219240   6.816   4.286   2.908
 6432TIP3    H119241   6.818   4.250   2.819
 6432TIP3    H219242   6.723   4.306   2.923
 6433TIP3   OH219243   4.516   0.542   2.126
 6433TIP3    H119244   4.581   0.485   2.169
 6433TIP3    H219245   4.568   0.615   2.093
 6434TIP3   OH219246   1.851   0.883   0.255
 6434TIP3    H119247   1.818   0.795   0.242
 6434TIP3    H219248   1.946   0.875   0.250
 6435TIP3   OH219249   1.091   2.603   5.732
 6435TIP3    H119250   1.099   2.576   5.641
 6435TIP3    H219251   1.181   2.617   5.761
 6436TIP3   OH219252   4.811   2.161   1.549
 6436TIP3    H119253   4.901   2.159   1.581
 6436TIP3    H219254   4.814   2.216   1.471
 6437TIP3   OH219255   1.772   3.292   4.375
 6437TIP3    H119256   1.816   3.207   4.379
 6437TIP3    H219257   1.679   3.270   4.371
 6438TIP3   OH219258   5.864   3.648   5.984
 6438TIP3    H119259   5.912   3.565   5.974
 6438TIP3    H219260   5.799   3.647   5.914
 6439TIP3   OH219261   4.666   3.264   5.246
 6439TIP3    H119262   4.729   3.237   5.313
 6439TIP3    H219263   4.666   3.193   5.182
 6440TIP3   OH219264   7.900   2.762   5.300
 6440TIP3    H119265   7.818   2.746   5.253
 6440TIP3    H219266   7.878   2.827   5.366
 6441TIP3   OH219267   2.348   0.188   3.593
 6441TIP3    H119268   2.392   0.113   3.554
 6441TIP3    H219269   2.310   0.154   3.674
 6442TIP3   OH219270   7.204   2.046   3.038
 6442TIP3    H119271   7.159   2.110   2.983
 6442TIP3    H219272   7.144   1.971   3.042
 6443TIP3   OH219273   4.304   5.944   5.465
 6443TIP3    H119274   4.245   5.967   5.393
 6443TIP3    H219275   4.368   5.885   5.425
 6444TIP3   OH219276   7.319   6.165   0.686
 6444TIP3    H119277   7.227   6.189   0.672
 6444TIP3    H219278   7.320   6.122   0.771
 6445TIP3   OH219279   5.746   5.314   6.315
 6445TIP3    H119280   5.812   5.376   6.345
 6445TIP3    H219281   5.785   5.228   6.328
 6446TIP3   OH219282   6.891   5.957   2.042
 6446TIP3    H119283   6.863   5.968   2.133
 6446TIP3    H219284   6.958   6.024   2.029
 6447TIP3   OH219285   0.843   1.928   5.274
 6447TIP3    H119286   0.904   1.881   5.332
 6447TIP3    H219287   0.887   1.930   5.189
 6448TIP3   OH219288   7.418   6.086   3.909
 6448TIP3    H119289   7.502   6.128   3.927
 6448TIP3    H219290   7.367   6.099   3.989
 6449TIP3   OH219291   5.896   7.421   0.734
 6449TIP3    H119292   5.971   7.380   0.691
 6449TIP3    H219293   5.917   7.515   0.735
 6450TIP3   OH219294   3.083   0.167   4.979
 6450TIP3    H119295   3.128   0.190   5.060
 6450TIP3    H219296   3.006   0.223   4.977
 6451TIP3   OH219297   5.349   0.881   1.245
 6451TIP3    H119298   5.330   0.800   1.293
 6451TIP3    H219299   5.276   0.890   1.184
 6452TIP3   OH219300   5.217   0.968   2.696
 6452TIP3    H119301   5.211   0.989   2.790
 6452TIP3    H219302   5.299   0.919   2.687
 6453TIP3   OH219303   1.700   0.494   1.985
 6453TIP3    H119304   1.651   0.444   2.051
 6453TIP3    H219305   1.678   0.585   2.004
 6454TIP3   OH219306   5.327   3.707   5.526
 6454TIP3    H119307   5.293   3.729   5.613
 6454TIP3    H219308   5.292   3.776   5.469
 6455TIP3   OH219309   3.037   2.363   5.145
 6455TIP3    H119310   3.110   2.358   5.207
 6455TIP3    H219311   2.965   2.319   5.189
 6456TIP3   OH219312   3.070   7.638   6.779
 6456TIP3    H119313   3.093   7.577   6.709
 6456TIP3    H219314   2.995   7.686   6.746
 6457TIP3   OH219315   6.179   3.550   4.908
 6457TIP3    H119316   6.270   3.520   4.908
 6457TIP3    H219317   6.137   3.498   4.839
 6458TIP3   OH219318   4.774   2.448   4.959
 6458TIP3    H119319   4.745   2.372   5.010
 6458TIP3    H219320   4.800   2.512   5.026
 6459TIP3   OH219321   3.559   6.809   5.915
 6459TIP3    H119322   3.486   6.789   5.857
 6459TIP3    H219323   3.634   6.762   5.876
 6460TIP3   OH219324   0.062   1.542   6.345
 6460TIP3    H119325   0.108   1.481   6.403
 6460TIP3    H219326   0.001   1.487   6.295
 6461TIP3   OH219327   5.590   2.232   5.087
 6461TIP3    H119328   5.545   2.300   5.137
 6461TIP3    H219329   5.550   2.235   5.001
 6462TIP3   OH219330   8.178   7.701   2.029
 6462TIP3    H119331   8.231   7.651   1.967
 6462TIP3    H219332   8.239   7.723   2.100
 6463TIP3   OH219333   1.334   0.584   1.995
 6463TIP3    H119334   1.377   0.515   1.944
 6463TIP3    H219335   1.242   0.579   1.968
 6464TIP3   OH219336   7.294   3.248   1.514
 6464TIP3    H119337   7.233   3.284   1.579
 6464TIP3    H219338   7.270   3.291   1.432
 6465TIP3   OH219339   5.694   1.148   6.244
 6465TIP3    H119340   5.759   1.207   6.282
 6465TIP3    H219341   5.744   1.068   6.224
 6466TIP3   OH219342   4.252   5.310   0.254
 6466TIP3    H119343   4.307   5.360   0.315
 6466TIP3    H219344   4.225   5.373   0.188
 6467TIP3   OH219345   3.127   5.785   5.813
 6467TIP3    H119346   3.099   5.726   5.883
 6467TIP3    H219347   3.217   5.809   5.836
 6468TIP3   OH219348   5.447   5.651   6.040
 6468TIP3    H119349   5.512   5.639   6.109
 6468TIP3    H219350   5.389   5.575   6.048
 6469TIP3   OH219351   5.739   5.455   2.374
 6469TIP3    H119352   5.820   5.486   2.414
 6469TIP3    H219353   5.766   5.379   2.322
 6470TIP3   OH219354   2.455   2.212   5.836
 6470TIP3    H119355   2.494   2.297   5.855
 6470TIP3    H219356   2.365   2.219   5.868
 6471TIP3   OH219357   2.714   1.559   3.214
 6471TIP3    H119358   2.631   1.602   3.234
 6471TIP3    H219359   2.750   1.609   3.141
 6472TIP3   OH219360   1.290   1.083   5.736
 6472TIP3    H119361   1.282   1.152   5.802
 6472TIP3    H219362   1.261   1.004   5.781
 6473TIP3   OH219363   6.720   5.794   2.343
 6473TIP3    H119364   6.712   5.728   2.411
 6473TIP3    H219365   6.631   5.804   2.309
 6474TIP3   OH219366   3.564   4.147   4.516
 6474TIP3    H119367   3.620   4.075   4.545
 6474TIP3    H219368   3.623   4.207   4.471
 6475TIP3   OH219369   2.055   4.910   2.728
 6475TIP3    H119370   2.091   4.962   2.800
 6475TIP3    H219371   2.041   4.973   2.658
 6476TIP3   OH219372   5.914   3.657   1.009
 6476TIP3    H119373   5.990   3.619   0.965
 6476TIP3    H219374   5.876   3.716   0.943
 6477TIP3   OH219375   0.176   5.474   0.128
 6477TIP3    H119376   0.085   5.492   0.103
 6477TIP3    H219377   0.223   5.468   0.045
 6478TIP3   OH219378   7.516   5.926   2.982
 6478TIP3    H119379   7.506   5.950   3.074
 6478TIP3    H219380   7.483   5.837   2.976
 6479TIP3   OH219381   0.378   2.113   0.634
 6479TIP3    H119382   0.349   2.187   0.688
 6479TIP3    H219383   0.342   2.036   0.679
 6480TIP3   OH219384   3.935   1.767   1.706
 6480TIP3    H119385   3.932   1.685   1.755
 6480TIP3    H219386   3.894   1.831   1.763
 6481TIP3   OH219387   6.204   5.264   6.458
 6481TIP3    H119388   6.143   5.256   6.531
 6481TIP3    H219389   6.194   5.354   6.427
 6482TIP3   OH219390   2.147   7.223   2.113
 6482TIP3    H119391   2.144   7.317   2.129
 6482TIP3    H219392   2.241   7.202   2.114
 6483TIP3   OH219393   1.677   3.575   0.613
 6483TIP3    H119394   1.720   3.490   0.611
 6483TIP3    H219395   1.697   3.610   0.700
 6484TIP3   OH219396   0.980   2.217   3.452
 6484TIP3    H119397   0.979   2.185   3.542
 6484TIP3    H219398   1.064   2.263   3.444
 6485TIP3   OH219399   5.324   4.500   2.549
 6485TIP3    H119400   5.279   4.583   2.564
 6485TIP3    H219401   5.417   4.520   2.562
 6486TIP3   OH219402   5.836   5.651   0.148
 6486TIP3    H119403   5.789   5.582   0.101
 6486TIP3    H219404   5.769   5.696   0.199
 6487TIP3   OH219405   7.518   6.450   5.495
 6487TIP3    H119406   7.593   6.455   5.435
 6487TIP3    H219407   7.557   6.426   5.579
 6488TIP3   OH219408   6.004   7.181   0.136
 6488TIP3    H119409   5.978   7.090   0.119
 6488TIP3    H219410   5.964   7.231   0.064
 6489TIP3   OH219411   5.388   6.472   1.133
 6489TIP3    H119412   5.479   6.487   1.159
 6489TIP3    H219413   5.365   6.390   1.175
 6490TIP3   OH219414   4.000   5.372   5.520
 6490TIP3    H119415   4.042   5.445   5.565
 6490TIP3    H219416   3.999   5.301   5.584
 6491TIP3   OH219417   3.595   5.120   6.569
 6491TIP3    H119418   3.550   5.166   6.498
 6491TIP3    H219419   3.616   5.188   6.633
 6492TIP3   OH219420   3.588   5.390   0.576
 6492TIP3    H119421   3.661   5.342   0.616
 6492TIP3    H219422   3.510   5.352   0.615
 6493TIP3   OH219423   3.175   5.086   5.655
 6493TIP3    H119424   3.251   5.037   5.624
 6493TIP3    H219425   3.102   5.024   5.648
 6494TIP3   OH219426   7.697   5.278   3.937
 6494TIP3    H119427   7.709   5.258   3.844
 6494TIP3    H219428   7.786   5.289   3.971
 6495TIP3   OH219429   2.513   1.532   2.917
 6495TIP3    H119430   2.497   1.455   2.863
 6495TIP3    H219431   2.605   1.525   2.943
 6496TIP3   OH219432   4.340   4.843   0.350
 6496TIP3    H119433   4.364   4.823   0.441
 6496TIP3    H219434   4.408   4.905   0.321
 6497TIP3   OH219435   5.795   7.185   5.945
 6497TIP3    H119436   5.788   7.159   6.037
 6497TIP3    H219437   5.704   7.193   5.916
 6498TIP3   OH219438   3.702   3.153   5.675
 6498TIP3    H119439   3.692   3.218   5.745
 6498TIP3    H219440   3.792   3.164   5.645
 6499TIP3   OH219441   7.696   4.231   4.589
 6499TIP3    H119442   7.734   4.158   4.541
 6499TIP3    H219443   7.631   4.268   4.529
 6500TIP3   OH219444   6.553   6.785   4.020
 6500TIP3    H119445   6.536   6.853   4.085
 6500TIP3    H219446   6.643   6.802   3.991
 6501TIP3   OH219447   3.072   5.505   4.602
 6501TIP3    H119448   3.001   5.509   4.538
 6501TIP3    H219449   3.028   5.517   4.686
 6502TIP3   OH219450   2.537   0.949   4.152
 6502TIP3    H119451   2.569   1.018   4.210
 6502TIP3    H219452   2.608   0.886   4.148
 6503TIP3   OH219453   6.785   1.935   0.038
 6503TIP3    H119454   6.881   1.937   0.043
 6503TIP3    H219455   6.757   1.988   0.114
 6504TIP3   OH219456   3.211   4.062   3.589
 6504TIP3    H119457   3.265   4.001   3.640
 6504TIP3    H219458   3.124   4.056   3.630
 6505TIP3   OH219459   4.433   3.942   0.051
 6505TIP3    H119460   4.519   3.957   0.091
 6505TIP3    H219461   4.451   3.929  -0.042
 6506TIP3   OH219462   0.848   0.471   3.690
 6506TIP3    H119463   0.830   0.400   3.751
 6506TIP3    H219464   0.840   0.550   3.743
 6507TIP3   OH219465   0.248   0.385   0.316
 6507TIP3    H119466   0.278   0.460   0.265
 6507TIP3    H219467   0.222   0.422   0.401
 6508TIP3   OH219468   2.540   5.350   3.083
 6508TIP3    H119469   2.581   5.403   3.152
 6508TIP3    H219470   2.612   5.296   3.049
 6509TIP3   OH219471   7.073   5.249   0.715
 6509TIP3    H119472   6.986   5.271   0.748
 6509TIP3    H219473   7.076   5.288   0.627
 6510TIP3   OH219474   4.553   2.239   6.038
 6510TIP3    H119475   4.604   2.265   6.115
 6510TIP3    H219476   4.464   2.228   6.071
 6511TIP3   OH219477   5.212   0.554   2.645
 6511TIP3    H119478   5.186   0.579   2.734
 6511TIP3    H219479   5.307   0.563   2.644
 6512TIP3   OH219480   5.685   5.235   3.088
 6512TIP3    H119481   5.656   5.273   3.171
 6512TIP3    H219482   5.615   5.175   3.062
 6513TIP3   OH219483   3.687   5.952   2.407
 6513TIP3    H119484   3.627   5.877   2.404
 6513TIP3    H219485   3.696   5.979   2.315
 6514TIP3   OH219486   2.789   0.355   2.426
 6514TIP3    H119487   2.813   0.350   2.334
 6514TIP3    H219488   2.848   0.422   2.462
 6515TIP3   OH219489   1.339   3.658   2.775
 6515TIP3    H119490   1.409   3.626   2.718
 6515TIP3    H219491   1.370   3.640   2.864
 6516TIP3   OH219492   4.922   0.676   2.220
 6516TIP3    H119493   5.017   0.669   2.211
 6516TIP3    H219494   4.909   0.709   2.309
 6517TIP3   OH219495   0.958   1.204   5.420
 6517TIP3    H119496   0.939   1.192   5.513
 6517TIP3    H219497   0.907   1.135   5.377
 6518TIP3   OH219498   3.192   1.759   3.491
 6518TIP3    H119499   3.279   1.767   3.453
 6518TIP3    H219500   3.185   1.831   3.553
 6519TIP3   OH219501   6.940   5.475   2.116
 6519TIP3    H119502   6.845   5.474   2.108
 6519TIP3    H219503   6.968   5.390   2.083
 6520TIP3   OH219504   1.145   1.046   4.839
 6520TIP3    H119505   1.144   1.065   4.933
 6520TIP3    H219506   1.105   0.960   4.831
 6521TIP3   OH219507   7.446   2.156   1.746
 6521TIP3    H119508   7.443   2.230   1.685
 6521TIP3    H219509   7.354   2.133   1.759
 6522TIP3   OH219510   5.957   7.364   1.734
 6522TIP3    H119511   6.035   7.318   1.702
 6522TIP3    H219512   5.919   7.305   1.799
 6523TIP3   OH219513   2.746   3.000   0.833
 6523TIP3    H119514   2.696   3.054   0.893
 6523TIP3    H219515   2.777   2.927   0.887
 6524TIP3   OH219516   2.365   7.081   6.215
 6524TIP3    H119517   2.377   7.004   6.270
 6524TIP3    H219518   2.326   7.146   6.272
 6525TIP3   OH219519   5.916   3.404   3.565
 6525TIP3    H119520   5.843   3.384   3.624
 6525TIP3    H219521   5.951   3.487   3.596
 6526TIP3   OH219522   8.070   1.451   6.539
 6526TIP3    H119523   8.111   1.365   6.555
 6526TIP3    H219524   8.001   1.433   6.476
 6527TIP3   OH219525   7.096   3.205   3.052
 6527TIP3    H119526   7.151   3.262   3.105
 6527TIP3    H219527   7.086   3.251   2.968
 6528TIP3   OH219528   6.414   6.204   5.222
 6528TIP3    H119529   6.428   6.138   5.154
 6528TIP3    H219530   6.414   6.287   5.174
 6529TIP3   OH219531   5.547   4.054   0.898
 6529TIP3    H119532   5.507   4.129   0.942
 6529TIP3    H219533   5.513   3.978   0.945
 6530TIP3   OH219534   7.393   3.589   5.833
 6530TIP3    H119535   7.383   3.528   5.760
 6530TIP3    H219536   7.487   3.598   5.844
 6531TIP3   OH219537   5.255   3.242   0.190
 6531TIP3    H119538   5.236   3.153   0.160
 6531TIP3    H219539   5.183   3.294   0.156
 6532TIP3   OH219540   2.541   1.001   1.553
 6532TIP3    H119541   2.578   1.071   1.606
 6532TIP3    H219542   2.478   1.044   1.496
 6533TIP3   OH219543   7.237   4.264   5.922
 6533TIP3    H119544   7.199   4.350   5.901
 6533TIP3    H219545   7.166   4.216   5.965
 6534TIP3   OH219546   6.925   2.387   1.421
 6534TIP3    H119547   6.974   2.469   1.413
 6534TIP3    H219548   6.857   2.393   1.354
 6535TIP3   OH219549   2.273   2.054   2.293
 6535TIP3    H119550   2.207   2.122   2.309
 6535TIP3    H219551   2.333   2.060   2.367
 6536TIP3   OH219552   5.215   2.559   5.269
 6536TIP3    H119553   5.139   2.507   5.246
 6536TIP3    H219554   5.207   2.638   5.215
 6537TIP3   OH219555   3.188   2.707   2.310
 6537TIP3    H119556   3.209   2.635   2.250
 6537TIP3    H219557   3.274   2.739   2.339
 6538TIP3   OH219558   0.156   2.308   5.471
 6538TIP3    H119559   0.089   2.374   5.451
 6538TIP3    H219560   0.143   2.289   5.564
 6539TIP3   OH219561   0.927   4.642   5.250
 6539TIP3    H119562   0.869   4.688   5.190
 6539TIP3    H219563   0.920   4.690   5.332
 6540TIP3   OH219564   0.512   5.854   6.318
 6540TIP3    H119565   0.515   5.844   6.223
 6540TIP3    H219566   0.505   5.765   6.351
 6541TIP3   OH219567   6.231   5.368   0.594
 6541TIP3    H119568   6.250   5.311   0.519
 6541TIP3    H219569   6.317   5.398   0.623
 6542TIP3   OH219570   8.188   1.059   1.198
 6542TIP3    H119571   8.149   1.060   1.111
 6542TIP3    H219572   8.205   0.966   1.216
 6543TIP3   OH219573   3.802   6.590   6.323
 6543TIP3    H119574   3.876   6.529   6.333
 6543TIP3    H219575   3.825   6.643   6.247
 6544TIP3   OH219576   6.944   5.463   4.520
 6544TIP3    H119577   6.853   5.492   4.529
 6544TIP3    H219578   6.972   5.445   4.610
 6545TIP3   OH219579   1.421   6.354   5.207
 6545TIP3    H119580   1.422   6.337   5.301
 6545TIP3    H219581   1.403   6.269   5.167
 6546TIP3   OH219582   7.571   7.766   3.519
 6546TIP3    H119583   7.507   7.698   3.537
 6546TIP3    H219584   7.542   7.805   3.436
 6547TIP3   OH219585   5.711   4.322   0.133
 6547TIP3    H119586   5.781   4.365   0.084
 6547TIP3    H219587   5.697   4.239   0.088
 6548TIP3   OH219588   4.534   0.896   5.082
 6548TIP3    H119589   4.531   0.839   5.005
 6548TIP3    H219590   4.588   0.848   5.145
 6549TIP3   OH219591   0.477   1.927   0.937
 6549TIP3    H119592   0.505   2.014   0.964
 6549TIP3    H219593   0.508   1.869   1.007
 6550TIP3   OH219594   1.492   5.524   3.222
 6550TIP3    H119595   1.485   5.437   3.261
 6550TIP3    H219596   1.442   5.581   3.281
 6551TIP3   OH219597   2.868   1.574   4.639
 6551TIP3    H119598   2.796   1.538   4.588
 6551TIP3    H219599   2.832   1.588   4.726
 6552TIP3   OH219600   6.693   2.683   0.094
 6552TIP3    H119601   6.616   2.698   0.148
 6552TIP3    H219602   6.682   2.595   0.059
 6553TIP3   OH219603   3.818   5.747   6.438
 6553TIP3    H119604   3.879   5.705   6.377
 6553TIP3    H219605   3.861   5.830   6.461
 6554TIP3   OH219606   2.730   2.542   6.487
 6554TIP3    H119607   2.789   2.615   6.468
 6554TIP3    H219608   2.763   2.505   6.569
 6555TIP3   OH219609   1.304   5.554   2.876
 6555TIP3    H119610   1.318   5.585   2.787
 6555TIP3    H219611   1.381   5.502   2.896
 6556TIP3   OH219612   1.638   3.379   4.795
 6556TIP3    H119613   1.634   3.301   4.739
 6556TIP3    H219614   1.716   3.426   4.765
 6557TIP3   OH219615   6.589  -0.021   0.434
 6557TIP3    H119616   6.599   0.005   0.342
 6557TIP3    H219617   6.622   0.054   0.484
 6558TIP3   OH219618   4.488   2.610   5.712
 6558TIP3    H119619   4.525   2.555   5.782
 6558TIP3    H219620   4.420   2.661   5.756
 6559TIP3   OH219621   6.113   5.722   5.262
 6559TIP3    H119622   6.187   5.721   5.322
 6559TIP3    H219623   6.048   5.665   5.303
 6560TIP3   OH219624   6.396   1.530   0.643
 6560TIP3    H119625   6.339   1.546   0.567
 6560TIP3    H219626   6.408   1.616   0.682
 6561TIP3   OH219627   6.668   2.034   3.092
 6561TIP3    H119628   6.701   2.096   3.028
 6561TIP3    H219629   6.673   1.949   3.047
 6562TIP3   OH219630   6.887   0.021   2.400
 6562TIP3    H119631   6.895   0.099   2.456
 6562TIP3    H219632   6.826   0.047   2.331
 6563TIP3   OH219633   7.464   0.738   3.307
 6563TIP3    H119634   7.386   0.754   3.254
 6563TIP3    H219635   7.535   0.727   3.244
 6564TIP3   OH219636   5.154   0.626   3.338
 6564TIP3    H119637   5.231   0.681   3.322
 6564TIP3    H219638   5.187   0.554   3.391
 6565TIP3   OH219639   4.461   0.727   2.738
 6565TIP3    H119640   4.368   0.729   2.763
 6565TIP3    H219641   4.508   0.747   2.819
 6566TIP3   OH219642   8.093   5.507   5.642
 6566TIP3    H119643   8.150   5.563   5.694
 6566TIP3    H219644   8.022   5.482   5.702
 6567TIP3   OH219645   2.089   3.320   4.448
 6567TIP3    H119646   2.041   3.331   4.366
 6567TIP3    H219647   2.157   3.256   4.428
 6568TIP3   OH219648   5.713   1.092   1.993
 6568TIP3    H119649   5.671   1.070   1.910
 6568TIP3    H219650   5.771   1.018   2.011
 6569TIP3   OH219651   1.162   7.014   3.310
 6569TIP3    H119652   1.075   7.020   3.272
 6569TIP3    H219653   1.198   7.102   3.299
 6570TIP3   OH219654   4.310   1.637   1.333
 6570TIP3    H119655   4.354   1.577   1.393
 6570TIP3    H219656   4.234   1.588   1.301
 6571TIP3   OH219657   6.448   0.901   1.782
 6571TIP3    H119658   6.395   0.974   1.751
 6571TIP3    H219659   6.458   0.917   1.876
 6572TIP3   OH219660   4.660   1.965   1.729
 6572TIP3    H119661   4.584   1.949   1.673
 6572TIP3    H219662   4.721   2.014   1.673
 6573TIP3   OH219663   0.444   6.718   1.398
 6573TIP3    H119664   0.442   6.622   1.392
 6573TIP3    H219665   0.385   6.748   1.330
 6574TIP3   OH219666   0.264   1.688   6.048
 6574TIP3    H119667   0.329   1.704   6.117
 6574TIP3    H219668   0.186   1.659   6.094
 6575TIP3   OH219669   7.855   6.195   5.853
 6575TIP3    H119670   7.854   6.176   5.946
 6575TIP3    H219671   7.868   6.109   5.811
 6576TIP3   OH219672   1.601   2.304   3.946
 6576TIP3    H119673   1.551   2.280   4.024
 6576TIP3    H219674   1.692   2.290   3.971
 6577TIP3   OH219675   5.326   6.240   1.297
 6577TIP3    H119676   5.258   6.204   1.354
 6577TIP3    H219677   5.364   6.312   1.346
 6578TIP3   OH219678   2.257   4.882   0.675
 6578TIP3    H119679   2.245   4.972   0.644
 6578TIP3    H219680   2.169   4.845   0.674
 6579TIP3   OH219681   4.980   7.553   5.053
 6579TIP3    H119682   5.049   7.488   5.070
 6579TIP3    H219683   4.945   7.574   5.140
 6580TIP3   OH219684   3.537   2.266   0.836
 6580TIP3    H119685   3.619   2.236   0.796
 6580TIP3    H219686   3.529   2.214   0.916
 6581TIP3   OH219687   8.082   6.360   0.646
 6581TIP3    H119688   8.046   6.272   0.651
 6581TIP3    H219689   8.042   6.398   0.567
 6582TIP3   OH219690   6.434   2.170   0.129
 6582TIP3    H119691   6.476   2.122   0.057
 6582TIP3    H219692   6.346   2.189   0.097
 6583TIP3   OH219693   3.646   6.446   0.329
 6583TIP3    H119694   3.661   6.358   0.295
 6583TIP3    H219695   3.551   6.459   0.320
 6584TIP3   OH219696   1.131   7.235   5.931
 6584TIP3    H119697   1.147   7.147   5.896
 6584TIP3    H219698   1.210   7.256   5.981
 6585TIP3   OH219699   4.839   4.082   6.384
 6585TIP3    H119700   4.919   4.082   6.435
 6585TIP3    H219701   4.826   3.991   6.359
 6586TIP3   OH219702   4.442   2.242   2.295
 6586TIP3    H119703   4.403   2.326   2.320
 6586TIP3    H219704   4.512   2.228   2.359
 6587TIP3   OH219705   6.338   4.558   1.371
 6587TIP3    H119706   6.357   4.468   1.344
 6587TIP3    H219707   6.424   4.596   1.390
 6588TIP3   OH219708   3.710   3.801   0.643
 6588TIP3    H119709   3.683   3.711   0.624
 6588TIP3    H219710   3.748   3.832   0.561
 6589TIP3   OH219711   3.735   2.349   5.132
 6589TIP3    H119712   3.799   2.414   5.102
 6589TIP3    H219713   3.667   2.350   5.065
 6590TIP3   OH219714   1.488   3.810   5.605
 6590TIP3    H119715   1.521   3.730   5.565
 6590TIP3    H219716   1.505   3.800   5.698
 6591TIP3   OH219717   2.430   7.197   5.839
 6591TIP3    H119718   2.339   7.206   5.809
 6591TIP3    H219719   2.434   7.108   5.875
 6592TIP3   OH219720   2.645   0.315   2.836
 6592TIP3    H119721   2.711   0.385   2.837
 6592TIP3    H219722   2.581   0.343   2.770
 6593TIP3   OH219723   4.142   4.543   5.142
 6593TIP3    H119724   4.083   4.496   5.083
 6593TIP3    H219725   4.091   4.618   5.173
 6594TIP3   OH219726   1.830   0.203   1.825
 6594TIP3    H119727   1.772   0.189   1.900
 6594TIP3    H219728   1.909   0.241   1.863
 6595TIP3   OH219729   4.048   0.147   2.126
 6595TIP3    H119730   4.056   0.114   2.215
 6595TIP3    H219731   4.137   0.145   2.091
 6596TIP3   OH219732   7.978   2.047   1.229
 6596TIP3    H119733   8.057   2.006   1.265
 6596TIP3    H219734   7.924   2.068   1.305
 6597TIP3   OH219735   0.715   3.963  -0.012
 6597TIP3    H119736   0.629   3.942   0.024
 6597TIP3    H219737   0.760   3.879  -0.015
 6598TIP3   OH219738   6.857   0.739   2.465
 6598TIP3    H119739   6.883   0.652   2.434
 6598TIP3    H219740   6.825   0.724   2.554
 6599TIP3   OH219741   4.984   7.344   0.258
 6599TIP3    H119742   4.909   7.342   0.317
 6599TIP3    H219743   5.050   7.290   0.301
 6600TIP3   OH219744   1.705   3.655   0.872
 6600TIP3    H119745   1.613   3.628   0.871
 6600TIP3    H219746   1.749   3.586   0.922
 6601TIP3   OH219747   5.540   4.804   4.361
 6601TIP3    H119748   5.602   4.837   4.427
 6601TIP3    H219749   5.581   4.725   4.327
 6602TIP3   OH219750   5.925   2.113   0.110
 6602TIP3    H119751   5.938   2.169   0.033
 6602TIP3    H219752   5.963   2.029   0.085
 6603TIP3   OH219753   0.459   0.849   2.478
 6603TIP3    H119754   0.378   0.810   2.444
 6603TIP3    H219755   0.448   0.943   2.465
 6604TIP3   OH219756   6.722   2.955   4.620
 6604TIP3    H119757   6.662   2.882   4.606
 6604TIP3    H219758   6.752   2.945   4.710
 6605TIP3   OH219759   4.221   0.841   0.643
 6605TIP3    H119760   4.286   0.878   0.584
 6605TIP3    H219761   4.262   0.844   0.730
 6606TIP3   OH219762   1.952   6.806   2.860
 6606TIP3    H119763   1.877   6.771   2.908
 6606TIP3    H219764   1.974   6.738   2.797
 6607TIP3   OH219765   7.514   2.982   3.858
 6607TIP3    H119766   7.585   3.036   3.895
 6607TIP3    H219767   7.551   2.944   3.779
 6608TIP3   OH219768   0.608   7.563   2.516
 6608TIP3    H119769   0.689   7.571   2.565
 6608TIP3    H219770   0.597   7.648   2.473
 6609TIP3   OH219771   6.391   6.813   3.351
 6609TIP3    H119772   6.396   6.719   3.367
 6609TIP3    H219773   6.369   6.821   3.258
 6610TIP3   OH219774   3.923   2.642   1.712
 6610TIP3    H119775   4.004   2.637   1.762
 6610TIP3    H219776   3.926   2.728   1.670
 6611TIP3   OH219777   0.094   1.807   0.245
 6611TIP3    H119778   0.026   1.799   0.178
 6611TIP3    H219779   0.055   1.865   0.311
 6612TIP3   OH219780   7.857   3.745   2.685
 6612TIP3    H119781   7.862   3.759   2.779
 6612TIP3    H219782   7.766   3.724   2.668
 6613TIP3   OH219783   1.806   7.330   6.003
 6613TIP3    H119784   1.832   7.248   6.044
 6613TIP3    H219785   1.758   7.304   5.924
 6614TIP3   OH219786   5.265   0.550   2.951
 6614TIP3    H119787   5.258   0.476   3.011
 6614TIP3    H219788   5.345   0.595   2.976
 6615TIP3   OH219789   5.411   6.158   1.603
 6615TIP3    H119790   5.430   6.248   1.628
 6615TIP3    H219791   5.476   6.137   1.536
 6616TIP3   OH219792   2.211   4.249   0.172
 6616TIP3    H119793   2.131   4.203   0.146
 6616TIP3    H219794   2.241   4.292   0.092
 6617TIP3   OH219795   6.595   6.794   6.347
 6617TIP3    H119796   6.658   6.793   6.275
 6617TIP3    H219797   6.517   6.835   6.312
 6618TIP3   OH219798   7.056   2.277   5.158
 6618TIP3    H119799   7.109   2.231   5.093
 6618TIP3    H219800   7.117   2.337   5.200
 6619TIP3   OH219801   1.517   3.912   4.574
 6619TIP3    H119802   1.463   3.867   4.640
 6619TIP3    H219803   1.461   3.917   4.497
 6620TIP3   OH219804   4.344   5.581   1.239
 6620TIP3    H119805   4.419   5.529   1.210
 6620TIP3    H219806   4.294   5.522   1.295
 6621TIP3   OH219807   2.071   3.202   6.307
 6621TIP3    H119808   2.010   3.168   6.372
 6621TIP3    H219809   2.128   3.127   6.287
 6622TIP3   OH219810   0.932   7.266   3.733
 6622TIP3    H119811   1.008   7.286   3.678
 6622TIP3    H219812   0.963   7.198   3.792
 6623TIP3   OH219813   7.233   4.189   6.657
 6623TIP3    H119814   7.179   4.231   6.589
 6623TIP3    H219815   7.317   4.173   6.614
 6624TIP3   OH219816   8.244   1.974   2.358
 6624TIP3    H119817   8.248   1.883   2.329
 6624TIP3    H219818   8.336   2.000   2.369
 6625TIP3   OH219819   3.032   6.718   5.720
 6625TIP3    H119820   2.990   6.736   5.804
 6625TIP3    H219821   3.068   6.803   5.692
 6626TIP3   OH219822   3.475   2.187   1.855
 6626TIP3    H119823   3.520   2.139   1.925
 6626TIP3    H219824   3.543   2.203   1.789
 6627TIP3   OH219825   6.390   6.709   1.547
 6627TIP3    H119826   6.446   6.704   1.625
 6627TIP3    H219827   6.406   6.797   1.513
 6628TIP3   OH219828   7.904   2.303   2.500
 6628TIP3    H119829   7.994   2.275   2.483
 6628TIP3    H219830   7.881   2.356   2.424
 6629TIP3   OH219831   4.419   4.659   3.852
 6629TIP3    H119832   4.428   4.754   3.846
 6629TIP3    H219833   4.353   4.645   3.919
 6630TIP3   OH219834   3.553   6.186   0.287
 6630TIP3    H119835   3.502   6.233   0.221
 6630TIP3    H219836   3.507   6.103   0.299
 6631TIP3   OH219837   6.395   5.390   0.143
 6631TIP3    H119838   6.432   5.339   0.215
 6631TIP3    H219839   6.306   5.356   0.133
 6632TIP3   OH219840   2.877   0.675   1.762
 6632TIP3    H119841   2.795   0.691   1.807
 6632TIP3    H219842   2.945   0.686   1.829
 6633TIP3   OH219843   1.794   2.061   0.544
 6633TIP3    H119844   1.804   2.016   0.460
 6633TIP3    H219845   1.875   2.042   0.591
 6634TIP3   OH219846   2.902   0.572   1.487
 6634TIP3    H119847   2.914   0.609   1.574
 6634TIP3    H219848   2.830   0.622   1.449
 6635TIP3   OH219849   6.783   7.757   3.719
 6635TIP3    H119850   6.859   7.729   3.667
 6635TIP3    H219851   6.796   7.715   3.804
 6636TIP3   OH219852   3.833   1.215   5.632
 6636TIP3    H119853   3.818   1.168   5.550
 6636TIP3    H219854   3.780   1.295   5.624
 6637TIP3   OH219855   1.296   4.586   1.145
 6637TIP3    H119856   1.227   4.652   1.151
 6637TIP3    H219857   1.370   4.624   1.193
 6638TIP3   OH219858   6.271   1.390   0.131
 6638TIP3    H119859   6.258   1.410   0.039
 6638TIP3    H219860   6.290   1.296   0.133
 6639TIP3   OH219861   3.421   4.381   2.435
 6639TIP3    H119862   3.492   4.318   2.422
 6639TIP3    H219863   3.419   4.432   2.354
 6640TIP3   OH219864   3.467   0.199   0.697
 6640TIP3    H119865   3.529   0.238   0.758
 6640TIP3    H219866   3.487   0.239   0.613
 6641TIP3   OH219867   8.055   1.640   5.832
 6641TIP3    H119868   8.137   1.647   5.782
 6641TIP3    H219869   8.023   1.730   5.838
 6642TIP3   OH219870   4.481   0.220   0.538
 6642TIP3    H119871   4.540   0.200   0.465
 6642TIP3    H219872   4.516   0.171   0.612
 6643TIP3   OH219873   7.286   7.413   1.122
 6643TIP3    H119874   7.312   7.504   1.109
 6643TIP3    H219875   7.197   7.408   1.089
 6644TIP3   OH219876   6.022   4.706   0.033
 6644TIP3    H119877   6.054   4.617   0.052
 6644TIP3    H219878   5.942   4.714   0.085
 6645TIP3   OH219879   1.061   2.862   0.225
 6645TIP3    H119880   1.142   2.825   0.190
 6645TIP3    H219881   1.025   2.793   0.280
 6646TIP3   OH219882   4.696   5.737   4.403
 6646TIP3    H119883   4.788   5.728   4.377
 6646TIP3    H219884   4.665   5.812   4.353
 6647TIP3   OH219885   4.075   2.366   3.854
 6647TIP3    H119886   4.124   2.301   3.906
 6647TIP3    H219887   4.107   2.354   3.765
 6648TIP3   OH219888   1.051   2.474   3.733
 6648TIP3    H119889   1.132   2.424   3.739
 6648TIP3    H219890   1.080   2.565   3.721
 6649TIP3   OH219891   0.373   3.261   6.093
 6649TIP3    H119892   0.325   3.228   6.016
 6649TIP3    H219893   0.464   3.264   6.065
 6650TIP3   OH219894   0.079   6.068   4.408
 6650TIP3    H119895   0.120   6.126   4.344
 6650TIP3    H219896   0.094   5.980   4.375
 6651TIP3   OH219897   1.972   7.130   1.905
 6651TIP3    H119898   1.932   7.180   1.976
 6651TIP3    H219899   2.056   7.100   1.941
 6652TIP3   OH219900   3.545   7.864   0.459
 6652TIP3    H119901   3.631   7.834   0.432
 6652TIP3    H219902   3.542   7.848   0.553
 6653TIP3   OH219903   0.284   3.166   1.995
 6653TIP3    H119904   0.201   3.213   2.006
 6653TIP3    H219905   0.261   3.074   2.013
 6654TIP3   OH219906   7.162   7.724   4.978
 6654TIP3    H119907   7.091   7.699   5.038
 6654TIP3    H219908   7.233   7.751   5.036
 6655TIP3   OH219909   4.275   5.527   0.707
 6655TIP3    H119910   4.359   5.564   0.735
 6655TIP3    H219911   4.242   5.482   0.784
 6656TIP3   OH219912   1.947   5.243   3.131
 6656TIP3    H119913   1.985   5.182   3.068
 6656TIP3    H219914   1.946   5.194   3.213
 6657TIP3   OH219915   2.058   5.812   2.441
 6657TIP3    H119916   2.136   5.763   2.412
 6657TIP3    H219917   2.001   5.745   2.478
 6658TIP3   OH219918   7.702   5.857   0.229
 6658TIP3    H119919   7.780   5.817   0.268
 6658TIP3    H219920   7.726   5.948   0.215
 6659TIP3   OH219921   3.214   1.703   5.203
 6659TIP3    H119922   3.254   1.775   5.155
 6659TIP3    H219923   3.287   1.656   5.242
 6660TIP3   OH219924   1.094   3.900   6.352
 6660TIP3    H119925   1.097   3.819   6.403
 6660TIP3    H219926   1.176   3.901   6.304
 6661TIP3   OH219927   4.292   3.475   2.471
 6661TIP3    H119928   4.284   3.566   2.498
 6661TIP3    H219929   4.378   3.469   2.429
 6662TIP3   OH219930   2.796   4.828   3.565
 6662TIP3    H119931   2.846   4.767   3.619
 6662TIP3    H219932   2.810   4.913   3.606
 6663TIP3   OH219933   3.773   2.903   0.053
 6663TIP3    H119934   3.860   2.936   0.075
 6663TIP3    H219935   3.782   2.872  -0.037
 6664TIP3   OH219936   0.046   2.195   2.056
 6664TIP3    H119937   0.092   2.266   2.011
 6664TIP3    H219938   0.024   2.232   2.142
 6665TIP3   OH219939   7.091   5.636   3.484
 6665TIP3    H119940   7.091   5.578   3.560
 6665TIP3    H219941   7.177   5.677   3.484
 6666TIP3   OH219942   0.986   4.174   6.376
 6666TIP3    H119943   1.015   4.083   6.387
 6666TIP3    H219944   1.064   4.226   6.396
 6667TIP3   OH219945   0.920   0.861   3.600
 6667TIP3    H119946   0.935   0.918   3.524
 6667TIP3    H219947   0.985   0.792   3.590
 6668TIP3   OH219948   2.180   6.652   4.526
 6668TIP3    H119949   2.234   6.712   4.578
 6668TIP3    H219950   2.111   6.707   4.490
 6669TIP3   OH219951   2.411   7.175   0.290
 6669TIP3    H119952   2.459   7.107   0.338
 6669TIP3    H219953   2.467   7.195   0.215
 6670TIP3   OH219954   1.351   6.840   5.162
 6670TIP3    H119955   1.268   6.792   5.161
 6670TIP3    H219956   1.414   6.778   5.199
 6671TIP3   OH219957   7.789   1.565   2.123
 6671TIP3    H119958   7.769   1.498   2.057
 6671TIP3    H219959   7.761   1.647   2.083
 6672TIP3   OH219960   8.277   2.214   4.210
 6672TIP3    H119961   8.181   2.216   4.214
 6672TIP3    H219962   8.296   2.152   4.140
 6673TIP3   OH219963   5.145   3.878   6.216
 6673TIP3    H119964   5.226   3.852   6.172
 6673TIP3    H219965   5.075   3.841   6.163
 6674TIP3   OH219966   2.603   7.542   2.506
 6674TIP3    H119967   2.677   7.531   2.566
 6674TIP3    H219968   2.595   7.637   2.495
 6675TIP3   OH219969   2.330   7.770   5.578
 6675TIP3    H119970   2.346   7.718   5.657
 6675TIP3    H219971   2.286   7.710   5.518
 6676TIP3   OH219972   7.804   2.091   5.824
 6676TIP3    H119973   7.768   2.113   5.738
 6676TIP3    H219974   7.785   1.998   5.835
 6677TIP3   OH219975   7.044   5.366   6.318
 6677TIP3    H119976   7.070   5.360   6.410
 6677TIP3    H219977   7.010   5.455   6.308
 6678TIP3   OH219978   0.925   0.855   5.050
 6678TIP3    H119979   0.871   0.824   4.978
 6678TIP3    H219980   1.011   0.817   5.035
 6679TIP3   OH219981   7.336   3.141   1.948
 6679TIP3    H119982   7.322   3.196   1.871
 6679TIP3    H219983   7.418   3.096   1.930
 6680TIP3   OH219984   4.957   3.206   5.210
 6680TIP3    H119985   4.908   3.226   5.129
 6680TIP3    H219986   5.048   3.222   5.187
 6681TIP3   OH219987   5.119   4.013   4.378
 6681TIP3    H119988   5.164   4.086   4.422
 6681TIP3    H219989   5.112   4.041   4.287
 6682TIP3   OH219990   5.328   1.442   3.846
 6682TIP3    H119991   5.295   1.461   3.758
 6682TIP3    H219992   5.343   1.348   3.846
 6683TIP3   OH219993   7.982   0.643   3.556
 6683TIP3    H119994   8.032   0.580   3.608
 6683TIP3    H219995   7.907   0.666   3.612
 6684TIP3   OH219996   3.574   5.520   4.014
 6684TIP3    H119997   3.643   5.463   3.979
 6684TIP3    H219998   3.583   5.515   4.109
 6685TIP3   OH219999   2.514   3.825   1.383
 6685TIP3    H120000   2.473   3.817   1.297
 6685TIP3    H220001   2.608   3.820   1.365
 6686TIP3   OH220002   4.855   0.491   4.382
 6686TIP3    H120003   4.885   0.537   4.304
 6686TIP3    H220004   4.763   0.470   4.364
 6687TIP3   OH220005   4.678   7.604   2.081
 6687TIP3    H120006   4.721   7.684   2.052
 6687TIP3    H220007   4.649   7.561   2.000
 6688TIP3   OH220008   3.998   2.387   1.229
 6688TIP3    H120009   4.000   2.292   1.236
 6688TIP3    H220010   3.909   2.407   1.198
 6689TIP3   OH220011   6.710   2.158   4.860
 6689TIP3    H120012   6.678   2.248   4.865
 6689TIP3    H220013   6.759   2.155   4.778
 6690TIP3   OH220014   3.654   0.797   2.107
 6690TIP3    H120015   3.566   0.823   2.079
 6690TIP3    H220016   3.707   0.875   2.094
 6691TIP3   OH220017   7.494   0.619   2.108
 6691TIP3    H120018   7.405   0.586   2.121
 6691TIP3    H220019   7.550   0.548   2.140
 6692TIP3   OH220020   5.400   0.607   1.272
 6692TIP3    H120021   5.495   0.605   1.269
 6692TIP3    H220022   5.373   0.623   1.182
 6693TIP3   OH220023   6.858   6.538   4.115
 6693TIP3    H120024   6.863   6.611   4.053
 6693TIP3    H220025   6.949   6.510   4.126
 6694TIP3   OH220026   6.455   5.470   6.470
 6694TIP3    H120027   6.490   5.401   6.415
 6694TIP3    H220028   6.480   5.551   6.426
 6695TIP3   OH220029   0.698   0.815   5.431
 6695TIP3    H120030   0.631   0.793   5.496
 6695TIP3    H220031   0.670   0.769   5.351
 6696TIP3   OH220032   3.496   6.354   5.884
 6696TIP3    H120033   3.501   6.396   5.798
 6696TIP3    H220034   3.569   6.292   5.885
 6697TIP3   OH220035   6.904   5.911   1.706
 6697TIP3    H120036   6.890   5.828   1.752
 6697TIP3    H220037   6.897   5.888   1.613
 6698TIP3   OH220038   5.558   1.372   6.530
 6698TIP3    H120039   5.606   1.349   6.610
 6698TIP3    H220040   5.472   1.400   6.562
 6699TIP3   OH220041   1.541   3.732   6.419
 6699TIP3    H120042   1.477   3.689   6.362
 6699TIP3    H220043   1.608   3.666   6.434
 6700TIP3   OH220044   0.052   4.601   0.768
 6700TIP3    H120045  -0.040   4.626   0.767
 6700TIP3    H220046   0.085   4.634   0.851
 6701TIP3   OH220047   1.266   4.948   3.585
 6701TIP3    H120048   1.273   4.896   3.666
 6701TIP3    H220049   1.327   5.020   3.598
 6702TIP3   OH220050   2.635   0.309   2.014
 6702TIP3    H120051   2.652   0.391   2.060
 6702TIP3    H220052   2.719   0.263   2.016
 6703TIP3   OH220053   0.715   1.277   1.197
 6703TIP3    H120054   0.777   1.254   1.128
 6703TIP3    H220055   0.686   1.366   1.175
 6704TIP3   OH220056   1.437   4.544   0.386
 6704TIP3    H120057   1.451   4.461   0.429
 6704TIP3    H220058   1.460   4.610   0.451
 6705TIP3   OH220059   6.348   6.578   5.896
 6705TIP3    H120060   6.336   6.486   5.918
 6705TIP3    H220061   6.270   6.621   5.930
 6706TIP3   OH220062   7.508   3.985   2.800
 6706TIP3    H120063   7.576   3.981   2.733
 6706TIP3    H220064   7.499   3.895   2.832
 6707TIP3   OH220065   3.599   1.165   2.246
 6707TIP3    H120066   3.577   1.257   2.230
 6707TIP3    H220067   3.622   1.132   2.159
 6708TIP3   OH220068   6.428   6.622   5.340
 6708TIP3    H120069   6.418   6.640   5.434
 6708TIP3    H220070   6.498   6.681   5.312
 6709TIP3   OH220071   6.141   6.882   1.114
 6709TIP3    H120072   6.234   6.863   1.127
 6709TIP3    H220073   6.125   6.865   1.022
 6710TIP3   OH220074   7.717   5.454   0.299
 6710TIP3    H120075   7.715   5.549   0.310
 6710TIP3    H220076   7.663   5.420   0.370
 6711TIP3   OH220077   3.416   1.283   2.892
 6711TIP3    H120078   3.393   1.373   2.916
 6711TIP3    H220079   3.461   1.291   2.808
 6712TIP3   OH220080   3.541   1.860   1.235
 6712TIP3    H120081   3.612   1.864   1.171
 6712TIP3    H220082   3.461   1.861   1.182
 6713TIP3   OH220083   6.241   0.267   0.331
 6713TIP3    H120084   6.268   0.178   0.353
 6713TIP3    H220085   6.156   0.277   0.375
 6714TIP3   OH220086   6.946   1.470   4.834
 6714TIP3    H120087   6.912   1.505   4.917
 6714TIP3    H220088   6.893   1.391   4.819
 6715TIP3   OH220089   3.099   4.521   6.628
 6715TIP3    H120090   3.088   4.535   6.534
 6715TIP3    H220091   3.014   4.486   6.657
 6716TIP3   OH220092   6.204   1.252   2.865
 6716TIP3    H120093   6.265   1.268   2.938
 6716TIP3    H220094   6.246   1.292   2.789
 6717TIP3   OH220095   5.808   1.460   4.418
 6717TIP3    H120096   5.774   1.461   4.329
 6717TIP3    H220097   5.802   1.369   4.445
 6718TIP3   OH220098   7.971   1.259   3.849
 6718TIP3    H120099   8.027   1.260   3.771
 6718TIP3    H220100   8.007   1.189   3.904
 6719TIP3   OH220101   6.542   6.362   3.591
 6719TIP3    H120102   6.611   6.428   3.590
 6719TIP3    H220103   6.583   6.285   3.551
 6720TIP3   OH220104   0.843   3.789   4.584
 6720TIP3    H120105   0.923   3.818   4.628
 6720TIP3    H220106   0.852   3.820   4.494
 6721TIP3   OH220107   0.863   1.069   5.906
 6721TIP3    H120108   0.821   0.995   5.863
 6721TIP3    H220109   0.791   1.127   5.931
 6722TIP3   OH220110   4.022   5.874   4.156
 6722TIP3    H120111   3.945   5.842   4.108
 6722TIP3    H220112   4.088   5.887   4.088
 6723TIP3   OH220113   3.945   6.255   3.355
 6723TIP3    H120114   3.902   6.217   3.432
 6723TIP3    H220115   3.985   6.336   3.387
 6724TIP3   OH220116   4.159   5.823   6.211
 6724TIP3    H120117   4.164   5.762   6.137
 6724TIP3    H220118   4.076   5.869   6.199
 6725TIP3   OH220119   1.490   6.542   3.049
 6725TIP3    H120120   1.516   6.632   3.072
 6725TIP3    H220121   1.526   6.488   3.119
 6726TIP3   OH220122   4.385   0.881   5.921
 6726TIP3    H120123   4.451   0.884   5.989
 6726TIP3    H220124   4.410   0.806   5.866
 6727TIP3   OH220125  -0.022   1.608   5.048
 6727TIP3    H120126   0.034   1.598   5.125
 6727TIP3    H220127   0.001   1.694   5.013
 6728TIP3   OH220128   7.905   0.597   6.191
 6728TIP3    H120129   7.909   0.535   6.118
 6728TIP3    H220130   7.902   0.543   6.269
 6729TIP3   OH220131   2.139   0.250   1.747
 6729TIP3    H120132   2.191   0.330   1.746
 6729TIP3    H220133   2.105   0.246   1.837
 6730TIP3   OH220134   3.788   3.505   0.286
 6730TIP3    H120135   3.861   3.567   0.283
 6730TIP3    H220136   3.790   3.462   0.200
 6731TIP3   OH220137   7.047   5.827   1.064
 6731TIP3    H120138   7.001   5.768   1.125
 6731TIP3    H220139   7.133   5.841   1.105
 6732TIP3   OH220140   6.468   3.192   6.129
 6732TIP3    H120141   6.478   3.278   6.086
 6732TIP3    H220142   6.399   3.206   6.194
 6733TIP3   OH220143   1.892   1.651   0.373
 6733TIP3    H120144   1.834   1.626   0.444
 6733TIP3    H220145   1.897   1.573   0.317
 6734TIP3   OH220146   3.216   7.126   5.455
 6734TIP3    H120147   3.224   7.050   5.512
 6734TIP3    H220148   3.139   7.173   5.489
 6735TIP3   OH220149   1.606   2.423   5.991
 6735TIP3    H120150   1.676   2.455   5.934
 6735TIP3    H220151   1.589   2.495   6.051
 6736TIP3   OH220152   5.570   2.208   0.933
 6736TIP3    H120153   5.476   2.202   0.950
 6736TIP3    H220154   5.588   2.302   0.932
 6737TIP3   OH220155   1.687   3.730   3.092
 6737TIP3    H120156   1.681   3.760   3.183
 6737TIP3    H220157   1.650   3.802   3.041
 6738TIP3   OH220158   0.147   6.411   5.389
 6738TIP3    H120159   0.191   6.350   5.330
 6738TIP3    H220160   0.127   6.487   5.335
 6739TIP3   OH220161   2.485   2.599   2.765
 6739TIP3    H120162   2.537   2.661   2.817
 6739TIP3    H220163   2.480   2.639   2.679
 6740TIP3   OH220164   3.292   2.673   4.818
 6740TIP3    H120165   3.212   2.645   4.862
 6740TIP3    H220166   3.265   2.690   4.728
 6741TIP3   OH220167   1.669   3.816   2.771
 6741TIP3    H120168   1.647   3.771   2.689
 6741TIP3    H220169   1.736   3.761   2.812
 6742TIP3   OH220170   3.834   1.008   3.648
 6742TIP3    H120171   3.762   1.031   3.706
 6742TIP3    H220172   3.792   0.970   3.571
 6743TIP3   OH220173   1.498   4.761   0.856
 6743TIP3    H120174   1.422   4.702   0.856
 6743TIP3    H220175   1.494   4.807   0.940
 6744TIP3   OH220176   6.879   6.968   0.520
 6744TIP3    H120177   6.946   7.027   0.555
 6744TIP3    H220178   6.798   7.019   0.522
 6745TIP3   OH220179   2.453   3.813   6.312
 6745TIP3    H120180   2.497   3.789   6.231
 6745TIP3    H220181   2.461   3.735   6.367
 6746TIP3   OH220182   3.529   5.786   1.625
 6746TIP3    H120183   3.562   5.727   1.557
 6746TIP3    H220184   3.451   5.825   1.586
 6747TIP3   OH220185   6.687   5.913   6.188
 6747TIP3    H120186   6.630   5.838   6.205
 6747TIP3    H220187   6.773   5.875   6.174
 6748TIP3   OH220188   8.154   3.304   5.791
 6748TIP3    H120189   8.089   3.369   5.763
 6748TIP3    H220190   8.218   3.354   5.841
 6749TIP3   OH220191   4.281   3.112   2.963
 6749TIP3    H120192   4.320   3.080   2.882
 6749TIP3    H220193   4.352   3.106   3.028
 6750TIP3   OH220194   5.069   2.840   4.044
 6750TIP3    H120195   5.085   2.829   3.951
 6750TIP3    H220196   5.020   2.922   4.051
 6751TIP3   OH220197   5.051   4.993   1.943
 6751TIP3    H120198   5.069   4.933   1.871
 6751TIP3    H220199   4.958   5.013   1.934
 6752TIP3   OH220200   3.334   1.148   0.203
 6752TIP3    H120201   3.254   1.100   0.183
 6752TIP3    H220202   3.378   1.157   0.118
 6753TIP3   OH220203   5.543   6.606   5.575
 6753TIP3    H120204   5.529   6.522   5.532
 6753TIP3    H220205   5.460   6.652   5.566
 6754TIP3   OH220206   3.792   0.645  -0.013
 6754TIP3    H120207   3.735   0.602   0.051
 6754TIP3    H220208   3.881   0.623   0.014
 6755TIP3   OH220209   7.534   1.334   2.565
 6755TIP3    H120210   7.514   1.246   2.534
 6755TIP3    H220211   7.626   1.330   2.593
 6756TIP3   OH220212   5.610   1.458   2.663
 6756TIP3    H120213   5.526   1.480   2.703
 6756TIP3    H220214   5.660   1.540   2.667
 6757TIP3   OH220215   4.480   5.167   1.972
 6757TIP3    H120216   4.559   5.212   2.001
 6757TIP3    H220217   4.409   5.208   2.021
 6758TIP3   OH220218   3.350   0.117   3.643
 6758TIP3    H120219   3.295   0.178   3.692
 6758TIP3    H220220   3.431   0.164   3.627
 6759TIP3   OH220221   5.812   0.170   1.415
 6759TIP3    H120222   5.867   0.155   1.491
 6759TIP3    H220223   5.741   0.107   1.424
 6760TIP3   OH220224   5.637   2.768   3.230
 6760TIP3    H120225   5.546   2.743   3.242
 6760TIP3    H220226   5.660   2.735   3.143
 6761TIP3   OH220227   4.091   3.935   4.990
 6761TIP3    H120228   4.118   3.861   4.936
 6761TIP3    H220229   4.078   4.006   4.927
 6762TIP3   OH220230   4.248   2.580   6.737
 6762TIP3    H120231   4.245   2.571   6.832
 6762TIP3    H220232   4.338   2.558   6.713
 6763TIP3   OH220233   8.095   5.460   0.929
 6763TIP3    H120234   8.173   5.494   0.886
 6763TIP3    H220235   8.123   5.442   1.019
 6764TIP3   OH220236   0.245   6.924   4.581
 6764TIP3    H120237   0.329   6.967   4.596
 6764TIP3    H220238   0.180   6.988   4.611
 6765TIP3   OH220239   7.943   2.775   0.319
 6765TIP3    H120240   7.905   2.838   0.380
 6765TIP3    H220241   7.874   2.761   0.254
 6766TIP3   OH220242   5.434   6.144   6.032
 6766TIP3    H120243   5.430   6.088   6.109
 6766TIP3    H220244   5.492   6.216   6.058
 6767TIP3   OH220245   0.745   6.196   2.094
 6767TIP3    H120246   0.778   6.278   2.058
 6767TIP3    H220247   0.698   6.155   2.022
 6768TIP3   OH220248   3.274   4.952   2.028
 6768TIP3    H120249   3.206   5.014   2.001
 6768TIP3    H220250   3.335   5.004   2.080
 6769TIP3   OH220251   5.930   7.573   0.073
 6769TIP3    H120252   5.898   7.489   0.041
 6769TIP3    H220253   6.006   7.552   0.127
 6770TIP3   OH220254   1.706   2.364   2.367
 6770TIP3    H120255   1.731   2.397   2.454
 6770TIP3    H220256   1.711   2.269   2.374
 6771TIP3   OH220257   7.193   7.600   5.704
 6771TIP3    H120258   7.156   7.587   5.791
 6771TIP3    H220259   7.279   7.639   5.721
 6772TIP3   OH220260   3.709   1.658   1.263
 6772TIP3    H120261   3.630   1.708   1.241
 6772TIP3    H220262   3.734   1.689   1.350
 6773TIP3   OH220263   3.971   1.941   3.343
 6773TIP3    H120264   3.946   2.032   3.360
 6773TIP3    H220265   3.899   1.889   3.380
 6774TIP3   OH220266   2.403   5.132   2.301
 6774TIP3    H120267   2.370   5.213   2.261
 6774TIP3    H220268   2.328   5.096   2.347
 6775TIP3   OH220269   3.810   6.095   2.117
 6775TIP3    H120270   3.722   6.056   2.123
 6775TIP3    H220271   3.800   6.182   2.156
 6776TIP3   OH220272   6.889   7.191   6.640
 6776TIP3    H120273   6.935   7.247   6.578
 6776TIP3    H220274   6.864   7.114   6.589
 6777TIP3   OH220275   2.158   6.825   3.938
 6777TIP3    H120276   2.202   6.899   3.896
 6777TIP3    H220277   2.227   6.780   3.987
 6778TIP3   OH220278   6.093   6.217   2.252
 6778TIP3    H120279   6.170   6.221   2.308
 6778TIP3    H220280   6.020   6.208   2.314
 6779TIP3   OH220281   1.830   5.495   6.522
 6779TIP3    H120282   1.864   5.535   6.442
 6779TIP3    H220283   1.905   5.488   6.580
 6780TIP3   OH220284   0.859   0.822   4.045
 6780TIP3    H120285   0.868   0.743   4.098
 6780TIP3    H220286   0.821   0.886   4.104
 6781TIP3   OH220287   4.797   6.594   2.773
 6781TIP3    H120288   4.722   6.652   2.758
 6781TIP3    H220289   4.843   6.591   2.690
 6782TIP3   OH220290   6.165   6.101   1.154
 6782TIP3    H120291   6.104   6.056   1.095
 6782TIP3    H220292   6.206   6.031   1.204
 6783TIP3   OH220293   4.908   0.527   3.580
 6783TIP3    H120294   4.829   0.549   3.629
 6783TIP3    H220295   4.932   0.609   3.536
 6784TIP3   OH220296   5.948   5.711   2.231
 6784TIP3    H120297   5.980   5.764   2.305
 6784TIP3    H220298   5.944   5.622   2.265
 6785TIP3   OH220299   7.243   4.221   3.696
 6785TIP3    H120300   7.254   4.283   3.623
 6785TIP3    H220301   7.212   4.274   3.769
 6786TIP3   OH220302   1.067   0.910   3.885
 6786TIP3    H120303   1.044   1.003   3.879
 6786TIP3    H220304   0.998   0.872   3.938
 6787TIP3   OH220305   6.575   1.242   5.993
 6787TIP3    H120306   6.518   1.256   5.917
 6787TIP3    H220307   6.518   1.253   6.069
 6788TIP3   OH220308   3.945   0.358   5.255
 6788TIP3    H120309   4.009   0.414   5.213
 6788TIP3    H220310   3.863   0.376   5.209
 6789TIP3   OH220311   2.639   6.609   1.948
 6789TIP3    H120312   2.724   6.621   1.907
 6789TIP3    H220313   2.580   6.667   1.898
 6790TIP3   OH220314   0.195   3.508   2.950
 6790TIP3    H120315   0.247   3.465   2.882
 6790TIP3    H220316   0.168   3.436   3.008
 6791TIP3   OH220317   4.435   6.652   6.221
 6791TIP3    H120318   4.504   6.705   6.180
 6791TIP3    H220319   4.428   6.686   6.310
 6792TIP3   OH220320   4.135   4.837   1.936
 6792TIP3    H120321   4.204   4.876   1.882
 6792TIP3    H220322   4.177   4.764   1.981
 6793TIP3   OH220323   2.093   3.720   3.454
 6793TIP3    H120324   2.065   3.646   3.508
 6793TIP3    H220325   2.170   3.755   3.499
 6794TIP3   OH220326   3.785   3.105   2.921
 6794TIP3    H120327   3.802   3.026   2.972
 6794TIP3    H220328   3.870   3.147   2.912
 6795TIP3   OH220329   5.324   7.348   6.737
 6795TIP3    H120330   5.362   7.422   6.785
 6795TIP3    H220331   5.385   7.333   6.665
 6796TIP3   OH220332   8.291   4.164   3.634
 6796TIP3    H120333   8.281   4.250   3.675
 6796TIP3    H220334   8.268   4.102   3.703
 6797TIP3   OH220335   4.504   5.255   5.997
 6797TIP3    H120336   4.562   5.180   5.996
 6797TIP3    H220337   4.437   5.234   5.932
 6798TIP3   OH220338   2.126   0.587   3.335
 6798TIP3    H120339   2.138   0.492   3.333
 6798TIP3    H220340   2.040   0.600   3.375
 6799TIP3   OH220341   2.826   7.719   6.168
 6799TIP3    H120342   2.828   7.801   6.217
 6799TIP3    H220343   2.826   7.651   6.235
 6800TIP3   OH220344   0.902   3.749   2.319
 6800TIP3    H120345   0.922   3.719   2.407
 6800TIP3    H220346   0.908   3.845   2.325
 6801TIP3   OH220347   5.608   6.634   3.747
 6801TIP3    H120348   5.699   6.618   3.775
 6801TIP3    H220349   5.559   6.559   3.781
 6802TIP3   OH220350   2.405   5.635   6.348
 6802TIP3    H120351   2.414   5.557   6.293
 6802TIP3    H220352   2.411   5.709   6.288
 6803TIP3   OH220353   5.792   3.031   5.732
 6803TIP3    H120354   5.844   3.031   5.812
 6803TIP3    H220355   5.723   3.095   5.748
 6804TIP3   OH220356   5.897   7.000   4.611
 6804TIP3    H120357   5.841   7.011   4.688
 6804TIP3    H220358   5.860   6.925   4.565
 6805TIP3   OH220359   5.141   0.845   0.507
 6805TIP3    H120360   5.144   0.937   0.482
 6805TIP3    H220361   5.075   0.840   0.576
 6806TIP3   OH220362   5.010   5.029   0.279
 6806TIP3    H120363   4.967   4.986   0.205
 6806TIP3    H220364   4.937   5.058   0.335
 6807TIP3   OH220365   0.724   6.942   4.071
 6807TIP3    H120366   0.768   6.879   4.014
 6807TIP3    H220367   0.652   6.976   4.018
 6808TIP3   OH220368   4.043   4.748   6.455
 6808TIP3    H120369   3.972   4.812   6.454
 6808TIP3    H220370   4.031   4.697   6.375
 6809TIP3   OH220371   3.328   7.283   1.917
 6809TIP3    H120372   3.290   7.331   1.844
 6809TIP3    H220373   3.395   7.227   1.876
 6810TIP3   OH220374   3.829   2.161   3.965
 6810TIP3    H120375   3.867   2.221   3.901
 6810TIP3    H220376   3.844   2.074   3.928
 6811TIP3   OH220377   6.452   2.829   6.395
 6811TIP3    H120378   6.429   2.860   6.307
 6811TIP3    H220379   6.548   2.832   6.397
 6812TIP3   OH220380   6.810   0.377   3.785
 6812TIP3    H120381   6.858   0.297   3.807
 6812TIP3    H220382   6.721   0.346   3.766
 6813TIP3   OH220383   2.569   0.155   1.474
 6813TIP3    H120384   2.532   0.242   1.487
 6813TIP3    H220385   2.497   0.095   1.492
 6814TIP3   OH220386   7.755   7.794   4.344
 6814TIP3    H120387   7.809   7.748   4.409
 6814TIP3    H220388   7.679   7.738   4.332
 6815TIP3   OH220389   1.576   0.735   2.647
 6815TIP3    H120390   1.624   0.704   2.724
 6815TIP3    H220391   1.621   0.694   2.573
 6816TIP3   OH220392   2.323   5.739   1.201
 6816TIP3    H120393   2.416   5.744   1.222
 6816TIP3    H220394   2.299   5.827   1.173
 6817TIP3   OH220395   2.588   4.929   3.800
 6817TIP3    H120396   2.661   4.872   3.777
 6817TIP3    H220397   2.567   4.976   3.720
 6818TIP3   OH220398   6.632   2.560   3.801
 6818TIP3    H120399   6.659   2.475   3.837
 6818TIP3    H220400   6.712   2.612   3.800
 6819TIP3   OH220401   5.250   3.987   2.697
 6819TIP3    H120402   5.220   4.009   2.609
 6819TIP3    H220403   5.276   4.071   2.735
 6820TIP3   OH220404   6.538   4.811   2.752
 6820TIP3    H120405   6.559   4.718   2.762
 6820TIP3    H220406   6.514   4.840   2.840
 6821TIP3   OH220407   0.542   4.713   6.670
 6821TIP3    H120408   0.562   4.625   6.702
 6821TIP3    H220409   0.484   4.699   6.595
 6822TIP3   OH220410   4.818   4.082   3.922
 6822TIP3    H120411   4.902   4.048   3.892
 6822TIP3    H220412   4.815   4.171   3.888
 6823TIP3   OH220413   1.440   3.898   0.566
 6823TIP3    H120414   1.392   3.905   0.648
 6823TIP3    H220415   1.378   3.929   0.500
 6824TIP3   OH220416   7.640   6.922   1.260
 6824TIP3    H120417   7.674   6.977   1.330
 6824TIP3    H220418   7.601   6.984   1.198
 6825TIP3   OH220419   0.793   4.099   1.259
 6825TIP3    H120420   0.704   4.072   1.280
 6825TIP3    H220421   0.807   4.067   1.170
 6826TIP3   OH220422   0.896   1.857   1.895
 6826TIP3    H120423   0.990   1.874   1.898
 6826TIP3    H220424   0.855   1.935   1.933
 6827TIP3   OH220425   7.109   5.944   2.739
 6827TIP3    H120426   7.193   5.953   2.694
 6827TIP3    H220427   7.092   5.850   2.741
 6828TIP3   OH220428   5.830   5.411   5.142
 6828TIP3    H120429   5.810   5.354   5.217
 6828TIP3    H220430   5.905   5.370   5.100
 6829TIP3   OH220431   0.572   1.456   1.057
 6829TIP3    H120432   0.485   1.477   1.091
 6829TIP3    H220433   0.613   1.541   1.041
 6830TIP3   OH220434   2.830   0.094   3.029
 6830TIP3    H120435   2.904   0.035   3.017
 6830TIP3    H220436   2.851   0.170   2.974
 6831TIP3   OH220437   3.500   4.145   4.099
 6831TIP3    H120438   3.447   4.144   4.179
 6831TIP3    H220439   3.525   4.054   4.085
 6832TIP3   OH220440   5.946   7.258   4.442
 6832TIP3    H120441   5.919   7.227   4.355
 6832TIP3    H220442   5.953   7.178   4.494
 6833TIP3   OH220443   3.573   3.257   0.554
 6833TIP3    H120444   3.624   3.206   0.492
 6833TIP3    H220445   3.519   3.314   0.500
 6834TIP3   OH220446   1.191   7.558   5.421
 6834TIP3    H120447   1.123   7.604   5.470
 6834TIP3    H220448   1.264   7.621   5.416
 6835TIP3   OH220449   5.509   1.939   3.611
 6835TIP3    H120450   5.512   1.894   3.526
 6835TIP3    H220451   5.449   1.886   3.664
 6836TIP3   OH220452   6.766   3.169   6.552
 6836TIP3    H120453   6.715   3.230   6.605
 6836TIP3    H220454   6.787   3.218   6.473
 6837TIP3   OH220455   3.869   5.608   1.694
 6837TIP3    H120456   3.936   5.568   1.639
 6837TIP3    H220457   3.906   5.693   1.719
 6838TIP3   OH220458   5.931   5.633   4.220
 6838TIP3    H120459   5.938   5.639   4.315
 6838TIP3    H220460   6.011   5.675   4.187
 6839TIP3   OH220461   0.352   0.577   2.759
 6839TIP3    H120462   0.290   0.549   2.826
 6839TIP3    H220463   0.428   0.609   2.808
 6840TIP3   OH220464   5.393   0.785   3.045
 6840TIP3    H120465   5.334   0.849   3.085
 6840TIP3    H220466   5.379   0.794   2.951
 6841TIP3   OH220467   2.288   4.649   4.280
 6841TIP3    H120468   2.331   4.691   4.355
 6841TIP3    H220469   2.205   4.617   4.315
 6842TIP3   OH220470   3.300   1.173   3.197
 6842TIP3    H120471   3.304   1.267   3.211
 6842TIP3    H220472   3.349   1.159   3.115
 6843TIP3   OH220473   3.126   5.431   2.015
 6843TIP3    H120474   3.189   5.432   2.088
 6843TIP3    H220475   3.171   5.384   1.945
 6844TIP3   OH220476   7.116   1.528   2.603
 6844TIP3    H120477   7.138   1.582   2.679
 6844TIP3    H220478   7.200   1.512   2.560
 6845TIP3   OH220479   2.677   6.862   1.365
 6845TIP3    H120480   2.763   6.902   1.379
 6845TIP3    H220481   2.624   6.893   1.438
 6846TIP3   OH220482   1.977   3.590   0.485
 6846TIP3    H120483   2.019   3.551   0.561
 6846TIP3    H220484   1.954   3.678   0.513
 6847TIP3   OH220485   1.552   6.891   3.611
 6847TIP3    H120486   1.476   6.864   3.559
 6847TIP3    H220487   1.517   6.957   3.671
 6848TIP3   OH220488   0.413   5.482   1.212
 6848TIP3    H120489   0.361   5.495   1.133
 6848TIP3    H220490   0.429   5.571   1.245
 6849TIP3   OH220491   6.433   0.454   0.283
 6849TIP3    H120492   6.366   0.519   0.304
 6849TIP3    H220493   6.398   0.372   0.317
 6850TIP3   OH220494   7.425   7.010   4.243
 6850TIP3    H120495   7.519   7.024   4.231
 6850TIP3    H220496   7.384   7.088   4.206
 6851TIP3   OH220497   6.217   5.390   2.611
 6851TIP3    H120498   6.247   5.303   2.585
 6851TIP3    H220499   6.135   5.374   2.658
 6852TIP3   OH220500   3.817   4.257   6.606
 6852TIP3    H120501   3.721   4.258   6.596
 6852TIP3    H220502   3.850   4.275   6.518
 6853TIP3   OH220503   0.525   5.008   3.724
 6853TIP3    H120504   0.587   5.036   3.658
 6853TIP3    H220505   0.445   5.058   3.705
 6854TIP3   OH220506   7.377   6.736   4.173
 6854TIP3    H120507   7.376   6.670   4.242
 6854TIP3    H220508   7.393   6.818   4.218
 6855TIP3   OH220509   3.497   2.852   0.029
 6855TIP3    H120510   3.577   2.902   0.015
 6855TIP3    H220511   3.434   2.916   0.061
 6856TIP3   OH220512   4.704   0.298   5.081
 6856TIP3    H120513   4.654   0.292   4.999
 6856TIP3    H220514   4.687   0.387   5.112
 6857TIP3   OH220515   3.390   6.914   3.461
 6857TIP3    H120516   3.306   6.891   3.500
 6857TIP3    H220517   3.396   6.857   3.383
 6858TIP3   OH220518   5.109   7.799   5.854
 6858TIP3    H120519   5.168   7.726   5.833
 6858TIP3    H220520   5.025   7.758   5.872
 6859TIP3   OH220521   1.274   0.949   3.075
 6859TIP3    H120522   1.237   0.997   3.149
 6859TIP3    H220523   1.360   0.922   3.104
 6860TIP3   OH220524   0.473   2.765   4.910
 6860TIP3    H120525   0.492   2.822   4.836
 6860TIP3    H220526   0.440   2.684   4.870
 6861TIP3   OH220527   0.958   3.115   0.179
 6861TIP3    H120528   0.923   3.119   0.089
 6861TIP3    H220529   1.005   3.032   0.182
 6862TIP3   OH220530   2.534   5.852   0.920
 6862TIP3    H120531   2.522   5.879   1.011
 6862TIP3    H220532   2.488   5.768   0.915
 6863TIP3   OH220533   6.347   3.897   5.175
 6863TIP3    H120534   6.268   3.877   5.126
 6863TIP3    H220535   6.344   3.838   5.251
 6864TIP3   OH220536   7.269   2.898   3.975
 6864TIP3    H120537   7.212   2.963   3.933
 6864TIP3    H220538   7.354   2.909   3.933
 6865TIP3   OH220539   8.036   2.019   2.184
 6865TIP3    H120540   8.099   2.002   2.253
 6865TIP3    H220541   7.958   1.970   2.210
 6866TIP3   OH220542   6.362   4.858   6.507
 6866TIP3    H120543   6.405   4.866   6.422
 6866TIP3    H220544   6.432   4.827   6.565
 6867TIP3   OH220545   4.088   5.325   3.237
 6867TIP3    H120546   4.017   5.381   3.205
 6867TIP3    H220547   4.113   5.366   3.320
 6868TIP3   OH220548   1.188   1.112   4.357
 6868TIP3    H120549   1.197   1.067   4.441
 6868TIP3    H220550   1.218   1.047   4.292
 6869TIP3   OH220551   5.333   1.696   2.774
 6869TIP3    H120552   5.242   1.709   2.799
 6869TIP3    H220553   5.353   1.771   2.718
 6870TIP3   OH220554   6.114   2.361   3.282
 6870TIP3    H120555   6.201   2.398   3.298
 6870TIP3    H220556   6.075   2.353   3.369
 6871TIP3   OH220557   6.375   1.754   3.495
 6871TIP3    H120558   6.439   1.722   3.558
 6871TIP3    H220559   6.320   1.815   3.545
 6872TIP3   OH220560   7.748   3.157   5.012
 6872TIP3    H120561   7.674   3.122   4.961
 6872TIP3    H220562   7.733   3.251   5.014
 6873TIP3   OH220563   2.391   7.331   3.302
 6873TIP3    H120564   2.364   7.310   3.392
 6873TIP3    H220565   2.397   7.246   3.258
 6874TIP3   OH220566   7.695   6.368   2.891
 6874TIP3    H120567   7.699   6.407   2.979
 6874TIP3    H220568   7.778   6.322   2.882
 6875TIP3   OH220569   7.499   7.716   5.731
 6875TIP3    H120570   7.514   7.791   5.790
 6875TIP3    H220571   7.506   7.753   5.643
 6876TIP3   OH220572   0.322   5.381   4.426
 6876TIP3    H120573   0.270   5.337   4.494
 6876TIP3    H220574   0.413   5.360   4.449
 6877TIP3   OH220575   5.108   4.581   2.755
 6877TIP3    H120576   5.184   4.595   2.811
 6877TIP3    H220577   5.079   4.492   2.776
 6878TIP3   OH220578   6.165   2.378   2.717
 6878TIP3    H120579   6.188   2.467   2.690
 6878TIP3    H220580   6.202   2.369   2.804
 6879TIP3   OH220581   0.047   0.411   4.224
 6879TIP3    H120582   0.003   0.462   4.157
 6879TIP3    H220583   0.126   0.378   4.182
 6880TIP3   OH220584   5.857   3.969   6.407
 6880TIP3    H120585   5.821   3.893   6.362
 6880TIP3    H220586   5.783   4.029   6.416
 6881TIP3   OH220587   6.300   6.316   3.719
 6881TIP3    H120588   6.304   6.221   3.706
 6881TIP3    H220589   6.386   6.347   3.689
 6882TIP3   OH220590   2.914   0.169   6.773
 6882TIP3    H120591   2.958   0.085   6.755
 6882TIP3    H220592   2.924   0.219   6.692
 6883TIP3   OH220593   6.306   3.808   1.517
 6883TIP3    H120594   6.351   3.828   1.598
 6883TIP3    H220595   6.276   3.892   1.483
 6884TIP3   OH220596   3.930   1.871   2.300
 6884TIP3    H120597   3.878   1.819   2.239
 6884TIP3    H220598   3.993   1.917   2.245
 6885TIP3   OH220599   3.492   4.343   1.981
 6885TIP3    H120600   3.479   4.251   2.004
 6885TIP3    H220601   3.416   4.365   1.928
 6886TIP3   OH220602   0.637   2.716   1.605
 6886TIP3    H120603   0.672   2.805   1.603
 6886TIP3    H220604   0.675   2.678   1.685
 6887TIP3   OH220605   2.671   3.026   1.600
 6887TIP3    H120606   2.722   2.975   1.537
 6887TIP3    H220607   2.585   3.035   1.559
 6888TIP3   OH220608   3.348   4.174   3.886
 6888TIP3    H120609   3.394   4.177   3.970
 6888TIP3    H220610   3.378   4.252   3.839
 6889TIP3   OH220611   0.845   7.649   0.715
 6889TIP3    H120612   0.935   7.621   0.735
 6889TIP3    H220613   0.803   7.655   0.800
 6890TIP3   OH220614   5.554   2.507   1.606
 6890TIP3    H120615   5.517   2.581   1.655
 6890TIP3    H220616   5.607   2.547   1.538
 6891TIP3   OH220617   1.696   1.355   5.655
 6891TIP3    H120618   1.656   1.322   5.575
 6891TIP3    H220619   1.690   1.450   5.648
 6892TIP3   OH220620   5.269   7.714   0.169
 6892TIP3    H120621   5.271   7.634   0.221
 6892TIP3    H220622   5.361   7.734   0.152
 6893TIP3   OH220623   5.692   0.764   2.450
 6893TIP3    H120624   5.649   0.845   2.477
 6893TIP3    H220625   5.634   0.694   2.482
 6894TIP3   OH220626   7.494   1.636   3.596
 6894TIP3    H120627   7.483   1.555   3.647
 6894TIP3    H220628   7.405   1.660   3.572
 6895TIP3   OH220629   0.712   5.444   3.669
 6895TIP3    H120630   0.645   5.380   3.648
 6895TIP3    H220631   0.702   5.459   3.763
 6896TIP3   OH220632   5.869   5.238   5.463
 6896TIP3    H120633   5.778   5.239   5.435
 6896TIP3    H220634   5.899   5.149   5.445
 6897TIP3   OH220635  -0.006   1.261   0.622
 6897TIP3    H120636   0.073   1.296   0.580
 6897TIP3    H220637  -0.014   1.172   0.586
 6898TIP3   OH220638   4.575   3.542   4.398
 6898TIP3    H120639   4.659   3.579   4.371
 6898TIP3    H220640   4.596   3.491   4.477
 6899TIP3   OH220641   1.728   4.018   0.389
 6899TIP3    H120642   1.695   4.094   0.342
 6899TIP3    H220643   1.718   4.040   0.482
 6900TIP3   OH220644   8.084   2.092   2.744
 6900TIP3    H120645   8.127   2.106   2.660
 6900TIP3    H220646   8.030   2.170   2.757
 6901TIP3   OH220647   8.327   4.578   3.992
 6901TIP3    H120648   8.356   4.487   3.996
 6901TIP3    H220649   8.327   4.598   3.898
 6902TIP3   OH220650   2.849   0.318   4.959
 6902TIP3    H120651   2.802   0.240   4.989
 6902TIP3    H220652   2.798   0.391   4.993
 6903TIP3   OH220653   5.194   2.784   5.097
 6903TIP3    H120654   5.199   2.860   5.156
 6903TIP3    H220655   5.284   2.771   5.067
 6904TIP3   OH220656   4.518   6.421   0.055
 6904TIP3    H120657   4.568   6.392   0.132
 6904TIP3    H220658   4.478   6.503   0.082
 6905TIP3   OH220659   0.257   1.940   6.450
 6905TIP3    H120660   0.297   1.853   6.454
 6905TIP3    H220661   0.319   1.997   6.494
 6906TIP3   OH220662   3.531   5.511   5.293
 6906TIP3    H120663   3.599   5.573   5.267
 6906TIP3    H220664   3.451   5.563   5.298
 6907TIP3   OH220665   3.487   0.439   5.126
 6907TIP3    H120666   3.559   0.436   5.189
 6907TIP3    H220667   3.529   0.457   5.042
 6908TIP3   OH220668   6.587   5.340   4.467
 6908TIP3    H120669   6.507   5.333   4.519
 6908TIP3    H220670   6.640   5.265   4.496
 6909TIP3   OH220671   0.827   5.196   0.108
 6909TIP3    H120672   0.765   5.264   0.084
 6909TIP3    H220673   0.829   5.199   0.204
 6910TIP3   OH220674   3.784   1.164   6.263
 6910TIP3    H120675   3.807   1.246   6.307
 6910TIP3    H220676   3.690   1.153   6.282
 6911TIP3   OH220677   7.293   3.513   0.844
 6911TIP3    H120678   7.222   3.577   0.855
 6911TIP3    H220679   7.356   3.557   0.787
 6912TIP3   OH220680   3.776   7.274   3.283
 6912TIP3    H120681   3.699   7.324   3.309
 6912TIP3    H220682   3.762   7.253   3.191
 6913TIP3   OH220683   0.674   2.163   5.390
 6913TIP3    H120684   0.744   2.226   5.369
 6913TIP3    H220685   0.621   2.208   5.455
 6914TIP3   OH220686   4.770   5.152   5.654
 6914TIP3    H120687   4.772   5.059   5.634
 6914TIP3    H220688   4.761   5.157   5.749
 6915TIP3   OH220689   0.636   3.757   4.748
 6915TIP3    H120690   0.631   3.832   4.807
 6915TIP3    H220691   0.706   3.780   4.687
 6916TIP3   OH220692   3.374   5.801   2.423
 6916TIP3    H120693   3.366   5.815   2.328
 6916TIP3    H220694   3.292   5.835   2.459
 6917TIP3   OH220695   1.394   0.719   5.858
 6917TIP3    H120696   1.344   0.736   5.938
 6917TIP3    H220697   1.328   0.711   5.790
 6918TIP3   OH220698   4.987   0.829   2.598
 6918TIP3    H120699   5.062   0.863   2.647
 6918TIP3    H220700   5.027   0.775   2.530
 6919TIP3   OH220701   4.696   6.573   5.699
 6919TIP3    H120702   4.633   6.607   5.635
 6919TIP3    H220703   4.690   6.477   5.689
 6920TIP3   OH220704   1.485   3.830   5.879
 6920TIP3    H120705   1.494   3.801   5.970
 6920TIP3    H220706   1.391   3.839   5.866
 6921TIP3   OH220707   4.125   5.308   3.924
 6921TIP3    H120708   4.093   5.237   3.981
 6921TIP3    H220709   4.090   5.388   3.964
 6922TIP3   OH220710   0.174   7.843   5.808
 6922TIP3    H120711   0.128   7.885   5.735
 6922TIP3    H220712   0.147   7.752   5.804
 6923TIP3   OH220713   2.938   3.797   2.896
 6923TIP3    H120714   2.852   3.811   2.936
 6923TIP3    H220715   2.997   3.853   2.947
 6924TIP3   OH220716   1.027   1.921   4.516
 6924TIP3    H120717   1.102   1.895   4.569
 6924TIP3    H220718   0.982   1.838   4.497
 6925TIP3   OH220719   1.338   1.195   0.659
 6925TIP3    H120720   1.416   1.237   0.624
 6925TIP3    H220721   1.372   1.129   0.720
 6926TIP3   OH220722   8.244   3.590   3.173
 6926TIP3    H120723   8.204   3.636   3.247
 6926TIP3    H220724   8.176   3.588   3.106
 6927TIP3   OH220725   6.019   5.959   6.082
 6927TIP3    H120726   6.058   5.871   6.080
 6927TIP3    H220727   5.925   5.944   6.077
 6928TIP3   OH220728   2.568   3.805   4.867
 6928TIP3    H120729   2.488   3.787   4.819
 6928TIP3    H220730   2.561   3.897   4.892
 6929TIP3   OH220731   4.611   4.056   1.775
 6929TIP3    H120732   4.671   4.074   1.847
 6929TIP3    H220733   4.528   4.036   1.817
 6930TIP3   OH220734   6.599   6.099   2.989
 6930TIP3    H120735   6.600   6.059   2.902
 6930TIP3    H220736   6.508   6.124   3.003
 6931TIP3   OH220737   0.215   5.893   5.642
 6931TIP3    H120738   0.288   5.952   5.658
 6931TIP3    H220739   0.236   5.850   5.559
 6932TIP3   OH220740   0.909   2.717   0.437
 6932TIP3    H120741   0.924   2.623   0.442
 6932TIP3    H220742   0.906   2.746   0.528
 6933TIP3   OH220743   5.253   1.783   5.201
 6933TIP3    H120744   5.292   1.796   5.114
 6933TIP3    H220745   5.208   1.866   5.219
 6934TIP3   OH220746   0.175   3.766   1.453
 6934TIP3    H120747   0.108   3.757   1.521
 6934TIP3    H220748   0.145   3.839   1.398
 6935TIP3   OH220749   4.069   5.667   1.378
 6935TIP3    H120750   4.047   5.575   1.392
 6935TIP3    H220751   4.118   5.692   1.456
 6936TIP3   OH220752   1.910   2.890   3.575
 6936TIP3    H120753   1.838   2.935   3.619
 6936TIP3    H220754   1.901   2.913   3.483
 6937TIP3   OH220755   2.489   3.586   6.446
 6937TIP3    H120756   2.420   3.520   6.440
 6937TIP3    H220757   2.488   3.615   6.537
 6938TIP3   OH220758   3.927   3.694   4.393
 6938TIP3    H120759   3.902   3.614   4.440
 6938TIP3    H220760   3.973   3.747   4.458
 6939TIP3   OH220761   7.330   1.688   6.639
 6939TIP3    H120762   7.378   1.769   6.620
 6939TIP3    H220763   7.362   1.625   6.574
 6940TIP3   OH220764   0.951   7.176   6.417
 6940TIP3    H120765   1.028   7.136   6.377
 6940TIP3    H220766   0.979   7.265   6.439
 6941TIP3   OH220767   3.155   4.257   4.769
 6941TIP3    H120768   3.101   4.334   4.788
 6941TIP3    H220769   3.207   4.282   4.693
 6942TIP3   OH220770   3.230   1.788   6.727
 6942TIP3    H120771   3.196   1.869   6.689
 6942TIP3    H220772   3.178   1.775   6.806
 6943TIP3   OH220773   2.338   6.911   5.668
 6943TIP3    H120774   2.327   6.900   5.762
 6943TIP3    H220775   2.415   6.859   5.646
 6944TIP3   OH220776   6.895   2.701   4.356
 6944TIP3    H120777   6.851   2.644   4.292
 6944TIP3    H220778   6.982   2.717   4.318
 6945TIP3   OH220779   0.922   5.148   5.697
 6945TIP3    H120780   0.905   5.145   5.791
 6945TIP3    H220781   0.972   5.229   5.685
 6946TIP3   OH220782   5.269   5.703   3.831
 6946TIP3    H120783   5.358   5.688   3.798
 6946TIP3    H220784   5.215   5.644   3.779
 6947TIP3   OH220785   2.094   6.368   1.624
 6947TIP3    H120786   2.056   6.359   1.537
 6947TIP3    H220787   2.140   6.452   1.622
 6948TIP3   OH220788   6.969   2.039   3.723
 6948TIP3    H120789   6.938   2.015   3.810
 6948TIP3    H220790   6.912   1.990   3.663
 6949TIP3   OH220791   0.071   7.809   2.217
 6949TIP3    H120792   0.053   7.845   2.304
 6949TIP3    H220793   0.124   7.731   2.234
 6950TIP3   OH220794   0.788   7.734   6.183
 6950TIP3    H120795   0.842   7.812   6.196
 6950TIP3    H220796   0.756   7.741   6.093
 6951TIP3   OH220797   1.284   0.326   2.839
 6951TIP3    H120798   1.356   0.357   2.785
 6951TIP3    H220799   1.210   0.316   2.778
 6952TIP3   OH220800   7.051   2.589   2.091
 6952TIP3    H120801   7.028   2.498   2.071
 6952TIP3    H220802   7.013   2.639   2.019
 6953TIP3   OH220803   0.290   5.421   1.692
 6953TIP3    H120804   0.261   5.330   1.687
 6953TIP3    H220805   0.386   5.415   1.692
 6954TIP3   OH220806   1.362   6.772   3.417
 6954TIP3    H120807   1.300   6.709   3.453
 6954TIP3    H220808   1.394   6.731   3.337
 6955TIP3   OH220809   7.254   4.797   5.429
 6955TIP3    H120810   7.320   4.849   5.476
 6955TIP3    H220811   7.270   4.815   5.337
 6956TIP3   OH220812   6.030   2.483   1.206
 6956TIP3    H120813   6.089   2.409   1.189
 6956TIP3    H220814   5.988   2.461   1.289
 6957TIP3   OH220815   6.285   2.886   0.808
 6957TIP3    H120816   6.238   2.913   0.729
 6957TIP3    H220817   6.318   2.967   0.845
 6958TIP3   OH220818   0.790   1.391   2.393
 6958TIP3    H120819   0.824   1.309   2.430
 6958TIP3    H220820   0.717   1.363   2.338
 6959TIP3   OH220821   2.430   1.733   6.242
 6959TIP3    H120822   2.518   1.759   6.213
 6959TIP3    H220823   2.375   1.810   6.222
 6960TIP3   OH220824   7.466   2.156   2.606
 6960TIP3    H120825   7.373   2.130   2.601
 6960TIP3    H220826   7.497   2.117   2.688
 6961TIP3   OH220827   0.741   6.811   3.606
 6961TIP3    H120828   0.698   6.737   3.563
 6961TIP3    H220829   0.807   6.840   3.543
 6962TIP3   OH220830   5.015   0.185   5.745
 6962TIP3    H120831   5.073   0.119   5.709
 6962TIP3    H220832   5.001   0.247   5.673
 6963TIP3   OH220833   5.060   2.718   2.637
 6963TIP3    H120834   4.996   2.658   2.675
 6963TIP3    H220835   5.133   2.662   2.611
 6964TIP3   OH220836   0.584   6.041   1.590
 6964TIP3    H120837   0.623   5.962   1.629
 6964TIP3    H220838   0.660   6.090   1.558
 6965TIP3   OH220839   4.310   0.465   4.970
 6965TIP3    H120840   4.257   0.386   4.980
 6965TIP3    H220841   4.331   0.492   5.059
 6966TIP3   OH220842   4.474   3.965   5.399
 6966TIP3    H120843   4.518   3.893   5.352
 6966TIP3    H220844   4.406   3.995   5.339
 6967TIP3   OH220845   0.377   4.427   2.477
 6967TIP3    H120846   0.363   4.334   2.460
 6967TIP3    H220847   0.437   4.430   2.552
 6968TIP3   OH220848   5.031   4.365   5.225
 6968TIP3    H120849   5.038   4.460   5.223
 6968TIP3    H220850   4.937   4.347   5.231
 6969TIP3   OH220851   0.983   3.675   1.236
 6969TIP3    H120852   1.067   3.722   1.237
 6969TIP3    H220853   0.986   3.622   1.157
 6970TIP3   OH220854   7.332   5.304   3.451
 6970TIP3    H120855   7.329   5.212   3.476
 6970TIP3    H220856   7.395   5.344   3.510
 6971TIP3   OH220857   6.768   6.714   3.888
 6971TIP3    H120858   6.804   6.802   3.876
 6971TIP3    H220859   6.732   6.691   3.803
 6972TIP3   OH220860   0.909   4.563   0.367
 6972TIP3    H120861   0.917   4.639   0.309
 6972TIP3    H220862   0.947   4.593   0.450
 6973TIP3   OH220863   1.768   2.149   1.126
 6973TIP3    H120864   1.811   2.075   1.169
 6973TIP3    H220865   1.817   2.226   1.154
 6974TIP3   OH220866   7.414   2.865   2.385
 6974TIP3    H120867   7.372   2.814   2.316
 6974TIP3    H220868   7.466   2.930   2.338
 6975TIP3   OH220869   8.198   0.868   3.002
 6975TIP3    H120870   8.247   0.923   2.942
 6975TIP3    H220871   8.119   0.844   2.954
 6976TIP3   OH220872   1.912   0.178   3.170
 6976TIP3    H120873   1.955   0.097   3.199
 6976TIP3    H220874   1.822   0.151   3.150
 6977TIP3   OH220875   5.580   7.629   5.355
 6977TIP3    H120876   5.589   7.667   5.443
 6977TIP3    H220877   5.642   7.677   5.301
 6978TIP3   OH220878   4.007   6.257   1.573
 6978TIP3    H120879   4.067   6.211   1.515
 6978TIP3    H220880   3.926   6.205   1.570
 6979TIP3   OH220881   6.669   0.817   1.988
 6979TIP3    H120882   6.745   0.843   1.936
 6979TIP3    H220883   6.674   0.721   1.992
 6980TIP3   OH220884   4.020   3.505   2.373
 6980TIP3    H120885   3.997   3.595   2.398
 6980TIP3    H220886   4.113   3.497   2.398
 6981TIP3   OH220887   5.362   1.626   5.868
 6981TIP3    H120888   5.359   1.534   5.842
 6981TIP3    H220889   5.317   1.673   5.798
 6982TIP3   OH220890   5.699   0.557   2.177
 6982TIP3    H120891   5.769   0.581   2.239
 6982TIP3    H220892   5.745   0.537   2.096
 6983TIP3   OH220893   1.730   2.607   0.218
 6983TIP3    H120894   1.745   2.645   0.304
 6983TIP3    H220895   1.671   2.668   0.174
 6984TIP3   OH220896   7.662   3.858   4.345
 6984TIP3    H120897   7.740   3.822   4.302
 6984TIP3    H220898   7.693   3.939   4.386
 6985TIP3   OH220899   4.843   0.056   5.112
 6985TIP3    H120900   4.815   0.146   5.095
 6985TIP3    H220901   4.938   0.058   5.096
 6986TIP3   OH220902   1.521   4.074  -0.025
 6986TIP3    H120903   1.498   3.996   0.025
 6986TIP3    H220904   1.440   4.126  -0.028
 6987TIP3   OH220905   5.255   7.062   0.664
 6987TIP3    H120906   5.228   6.973   0.688
 6987TIP3    H220907   5.342   7.050   0.626
 6988TIP3   OH220908   4.694   1.678   1.239
 6988TIP3    H120909   4.668   1.600   1.191
 6988TIP3    H220910   4.697   1.650   1.331
 6989TIP3   OH220911   0.869   3.514   4.481
 6989TIP3    H120912   0.917   3.568   4.418
 6989TIP3    H220913   0.867   3.567   4.561
 6990TIP3   OH220914   7.206   2.910   2.051
 6990TIP3    H120915   7.257   2.990   2.061
 6990TIP3    H220916   7.116   2.940   2.037
 6991TIP3   OH220917   4.381   5.254   4.141
 6991TIP3    H120918   4.465   5.230   4.181
 6991TIP3    H220919   4.402   5.275   4.050
 6992TIP3   OH220920   6.228   1.274   0.453
 6992TIP3    H120921   6.176   1.352   0.434
 6992TIP3    H220922   6.312   1.289   0.410
 6993TIP3   OH220923   2.723   1.573   4.036
 6993TIP3    H120924   2.734   1.644   4.099
 6993TIP3    H220925   2.722   1.493   4.090
 6994TIP3   OH220926   4.689   5.916   4.743
 6994TIP3    H120927   4.641   6.000   4.744
 6994TIP3    H220928   4.769   5.936   4.695
 6995TIP3   OH220929   2.458   4.606   3.264
 6995TIP3    H120930   2.511   4.602   3.344
 6995TIP3    H220931   2.373   4.570   3.290
 6996TIP3   OH220932   4.866   7.154   4.795
 6996TIP3    H120933   4.944   7.106   4.822
 6996TIP3    H220934   4.795   7.089   4.800
 6997TIP3   OH220935   0.208   4.306   4.799
 6997TIP3    H120936   0.244   4.302   4.888
 6997TIP3    H220937   0.113   4.304   4.810
 6998TIP3   OH220938   3.254   3.089   3.890
 6998TIP3    H120939   3.262   3.020   3.823
 6998TIP3    H220940   3.179   3.141   3.861
 6999TIP3   OH220941   2.685   4.295   5.639
 6999TIP3    H120942   2.720   4.241   5.710
 6999TIP3    H220943   2.756   4.356   5.618
 7000TIP3   OH220944   4.235   7.513   4.052
 7000TIP3    H120945   4.209   7.441   3.994
 7000TIP3    H220946   4.312   7.480   4.098
 7001TIP3   OH220947   3.122   3.819   3.802
 7001TIP3    H120948   3.098   3.770   3.880
 7001TIP3    H220949   3.049   3.806   3.742
 7002TIP3   OH220950   1.736   2.211   5.496
 7002TIP3    H120951   1.707   2.290   5.450
 7002TIP3    H220952   1.772   2.155   5.426
 7003TIP3   OH220953   1.519   4.713   1.286
 7003TIP3    H120954   1.609   4.746   1.293
 7003TIP3    H220955   1.481   4.728   1.373
 7004TIP3   OH220956   4.377   6.446   0.403
 7004TIP3    H120957   4.342   6.507   0.468
 7004TIP3    H220958   4.306   6.383   0.388
 7005TIP3   OH220959   7.328   7.011   2.854
 7005TIP3    H120960   7.345   7.082   2.792
 7005TIP3    H220961   7.247   7.036   2.898
 7006TIP3   OH220962   4.123   3.803   5.916
 7006TIP3    H120963   4.087   3.735   5.972
 7006TIP3    H220964   4.191   3.845   5.969
 7007TIP3   OH220965   3.096   0.982   3.207
 7007TIP3    H120966   3.012   1.027   3.197
 7007TIP3    H220967   3.161   1.051   3.198
 7008TIP3   OH220968   0.474   0.756   6.464
 7008TIP3    H120969   0.436   0.670   6.482
 7008TIP3    H220970   0.401   0.817   6.477
 7009TIP3   OH220971   1.097   6.752   3.238
 7009TIP3    H120972   1.102   6.830   3.294
 7009TIP3    H220973   1.158   6.769   3.167
 7010TIP3   OH220974   8.249   5.509   2.649
 7010TIP3    H120975   8.314   5.499   2.718
 7010TIP3    H220976   8.180   5.563   2.688
 7011TIP3   OH220977   2.649   7.696   5.014
 7011TIP3    H120978   2.608   7.706   5.100
 7011TIP3    H220979   2.608   7.763   4.960
 7012TIP3   OH220980   1.683   3.050   2.944
 7012TIP3    H120981   1.703   3.140   2.968
 7012TIP3    H220982   1.607   3.027   2.997
 7013TIP3   OH220983   7.087   7.489   5.944
 7013TIP3    H120984   7.012   7.513   5.999
 7013TIP3    H220985   7.162   7.529   5.988
 7014TIP3   OH220986   4.357   5.502   0.444
 7014TIP3    H120987   4.333   5.584   0.400
 7014TIP3    H220988   4.312   5.506   0.528
 7015TIP3   OH220989   7.789   7.271   4.057
 7015TIP3    H120990   7.765   7.361   4.034
 7015TIP3    H220991   7.865   7.280   4.114
 7016TIP3   OH220992   3.771   7.701   4.051
 7016TIP3    H120993   3.768   7.644   4.128
 7016TIP3    H220994   3.850   7.673   4.004
 7017TIP3   OH220995   5.402   7.069   1.118
 7017TIP3    H120996   5.447   7.122   1.053
 7017TIP3    H220997   5.472   7.026   1.167
 7018TIP3   OH220998   0.178   1.933   1.642
 7018TIP3    H120999   0.188   1.852   1.693
 7018TIP3    H221000   0.262   1.944   1.599
 7019TIP3   OH221001   7.381   4.334   4.153
 7019TIP3    H121002   7.361   4.390   4.077
 7019TIP3    H221003   7.427   4.258   4.115
 7020TIP3   OH221004   0.766   3.612   1.911
 7020TIP3    H121005   0.676   3.614   1.879
 7020TIP3    H221006   0.760   3.639   2.002
 7021TIP3   OH221007   5.823   2.965   4.666
 7021TIP3    H121008   5.733   2.958   4.635
 7021TIP3    H221009   5.874   2.986   4.588
 7022TIP3   OH221010   1.051   6.950   2.377
 7022TIP3    H121011   1.020   6.859   2.385
 7022TIP3    H221012   1.111   6.961   2.450
 7023TIP3   OH221013   6.674   2.866   0.899
 7023TIP3    H121014   6.594   2.910   0.930
 7023TIP3    H221015   6.744   2.903   0.953
 7024TIP3   OH221016   3.923   7.767   6.608
 7024TIP3    H121017   3.934   7.811   6.524
 7024TIP3    H221018   3.847   7.710   6.595
 7025TIP3   OH221019   0.912   5.474   4.710
 7025TIP3    H121020   0.841   5.508   4.654
 7025TIP3    H221021   0.887   5.384   4.727
 7026TIP3   OH221022   3.131   3.773   1.970
 7026TIP3    H121023   3.207   3.715   1.962
 7026TIP3    H221024   3.077   3.751   1.894
 7027TIP3   OH221025   7.398   6.931   1.589
 7027TIP3    H121026   7.325   6.869   1.598
 7027TIP3    H221027   7.475   6.876   1.576
 7028TIP3   OH221028   2.475   3.006   1.390
 7028TIP3    H121029   2.440   2.934   1.442
 7028TIP3    H221030   2.553   2.969   1.349
 7029TIP3   OH221031   3.515   7.050   5.528
 7029TIP3    H121032   3.453   7.105   5.576
 7029TIP3    H221033   3.520   7.089   5.441
 7030TIP3   OH221034   6.477   6.337   0.251
 7030TIP3    H121035   6.559   6.318   0.206
 7030TIP3    H221036   6.483   6.430   0.272
 7031TIP3   OH221037   4.783   3.588   1.243
 7031TIP3    H121038   4.785   3.665   1.300
 7031TIP3    H221039   4.872   3.555   1.244
 7032TIP3   OH221040   7.789   6.956   6.717
 7032TIP3    H121041   7.798   7.030   6.656
 7032TIP3    H221042   7.878   6.925   6.730
 7033TIP3   OH221043   1.303   5.446   5.343
 7033TIP3    H121044   1.330   5.355   5.332
 7033TIP3    H221045   1.216   5.441   5.382
 7034TIP3   OH221046   1.916   3.317   5.755
 7034TIP3    H121047   1.897   3.256   5.684
 7034TIP3    H221048   1.833   3.362   5.771
 7035TIP3   OH221049   4.101   3.733   4.578
 7035TIP3    H121050   4.166   3.675   4.538
 7035TIP3    H221051   4.117   3.725   4.672
 7036TIP3   OH221052   1.867   1.793   4.274
 7036TIP3    H121053   1.938   1.823   4.331
 7036TIP3    H221054   1.901   1.713   4.233
 7037TIP3   OH221055   6.321   3.190   0.786
 7037TIP3    H121056   6.225   3.195   0.788
 7037TIP3    H221057   6.350   3.277   0.812
 7038TIP3   OH221058   5.292   3.371   2.942
 7038TIP3    H121059   5.234   3.314   2.993
 7038TIP3    H221060   5.236   3.443   2.914
 7039TIP3   OH221061   3.134   7.338   4.103
 7039TIP3    H121062   3.158   7.403   4.037
 7039TIP3    H221063   3.128   7.256   4.055
 7040TIP3   OH221064   1.951   3.551   2.519
 7040TIP3    H121065   2.003   3.544   2.438
 7040TIP3    H221066   1.862   3.566   2.488
 7041TIP3   OH221067   6.547   2.227   3.281
 7041TIP3    H121068   6.563   2.168   3.208
 7041TIP3    H221069   6.533   2.170   3.356
 7042TIP3   OH221070   7.106   2.124   1.595
 7042TIP3    H121071   7.020   2.156   1.567
 7042TIP3    H221072   7.165   2.146   1.523
 7043TIP3   OH221073   2.981   0.316   0.428
 7043TIP3    H121074   2.923   0.377   0.382
 7043TIP3    H221075   2.971   0.233   0.381
 7044TIP3   OH221076   7.753   0.475   0.897
 7044TIP3    H121077   7.759   0.536   0.823
 7044TIP3    H221078   7.835   0.425   0.894
 7045TIP3   OH221079   6.106   2.513   0.495
 7045TIP3    H121080   6.192   2.513   0.537
 7045TIP3    H221081   6.116   2.453   0.421
 7046TIP3   OH221082   7.492   7.719   4.651
 7046TIP3    H121083   7.495   7.635   4.604
 7046TIP3    H221084   7.567   7.716   4.710
 7047TIP3   OH221085   3.701   7.664   0.736
 7047TIP3    H121086   3.692   7.736   0.798
 7047TIP3    H221087   3.650   7.692   0.660
 7048TIP3   OH221088   1.202   2.837   3.614
 7048TIP3    H121089   1.150   2.825   3.693
 7048TIP3    H221090   1.217   2.932   3.609
 7049TIP3   OH221091   3.800   7.561   2.036
 7049TIP3    H121092   3.807   7.469   2.009
 7049TIP3    H221093   3.787   7.557   2.131
 7050TIP3   OH221094   7.847   5.462   4.302
 7050TIP3    H121095   7.856   5.392   4.367
 7050TIP3    H221096   7.928   5.513   4.311
 7051TIP3   OH221097   6.882   5.888   4.052
 7051TIP3    H121098   6.974   5.864   4.048
 7051TIP3    H221099   6.882   5.979   4.083
 7052TIP3   OH221100   4.657   3.332   3.454
 7052TIP3    H121101   4.623   3.367   3.537
 7052TIP3    H221102   4.692   3.409   3.409
 7053TIP3   OH221103   4.332   1.668   2.409
 7053TIP3    H121104   4.283   1.636   2.484
 7053TIP3    H221105   4.335   1.763   2.420
 7054TIP3   OH221106   2.859   4.009   3.420
 7054TIP3    H121107   2.912   4.028   3.342
 7054TIP3    H221108   2.829   3.919   3.406
 7055TIP3   OH221109   0.827   5.803   5.840
 7055TIP3    H121110   0.782   5.787   5.923
 7055TIP3    H221111   0.836   5.717   5.800
 7056TIP3   OH221112   7.665   7.037   5.690
 7056TIP3    H121113   7.722   7.113   5.678
 7056TIP3    H221114   7.577   7.074   5.694
 7057TIP3   OH221115   2.022   5.551   1.319
 7057TIP3    H121116   2.032   5.641   1.348
 7057TIP3    H221117   2.023   5.499   1.399
 7058TIP3   OH221118   1.249   7.360   5.710
 7058TIP3    H121119   1.203   7.310   5.777
 7058TIP3    H221120   1.180   7.394   5.654
 7059TIP3   OH221121   6.679   5.627   2.564
 7059TIP3    H121122   6.688   5.682   2.641
 7059TIP3    H221123   6.667   5.539   2.598
 7060TIP3   OH221124   3.323   6.276   1.654
 7060TIP3    H121125   3.265   6.212   1.615
 7060TIP3    H221126   3.337   6.341   1.585
 7061TIP3   OH221127   3.955   7.296   0.875
 7061TIP3    H121128   3.865   7.305   0.844
 7061TIP3    H221129   3.950   7.316   0.969
 7062TIP3   OH221130   3.194   4.616   6.050
 7062TIP3    H121131   3.259   4.669   6.098
 7062TIP3    H221132   3.124   4.678   6.030
 7063TIP3   OH221133   0.314   0.931   3.872
 7063TIP3    H121134   0.395   0.892   3.905
 7063TIP3    H221135   0.343   1.013   3.830
 7064TIP3   OH221136   2.194   4.962   4.150
 7064TIP3    H121137   2.233   4.921   4.227
 7064TIP3    H221138   2.262   4.959   4.083
 7065TIP3   OH221139   2.782   4.248   1.065
 7065TIP3    H121140   2.769   4.285   0.978
 7065TIP3    H221141   2.853   4.300   1.103
 7066TIP3   OH221142   2.994   0.743   6.423
 7066TIP3    H121143   2.990   0.652   6.452
 7066TIP3    H221144   3.075   0.777   6.461
 7067TIP3   OH221145   5.853   5.984   2.592
 7067TIP3    H121146   5.849   6.014   2.683
 7067TIP3    H221147   5.842   6.064   2.540
 7068TIP3   OH221148   0.904   2.182   0.347
 7068TIP3    H121149   0.862   2.213   0.428
 7068TIP3    H221150   0.872   2.093   0.336
 7069TIP3   OH221151   3.342  -0.002   2.768
 7069TIP3    H121152   3.419   0.050   2.741
 7069TIP3    H221153   3.328   0.023   2.860
 7070TIP3   OH221154   1.212   4.480   3.795
 7070TIP3    H121155   1.208   4.536   3.872
 7070TIP3    H221156   1.288   4.424   3.810
 7071TIP3   OH221157   6.444   2.988   2.232
 7071TIP3    H121158   6.383   3.044   2.183
 7071TIP3    H221159   6.479   2.928   2.166
 7072TIP3   OH221160   7.721   4.757   2.232
 7072TIP3    H121161   7.734   4.676   2.182
 7072TIP3    H221162   7.626   4.766   2.239
 7073TIP3   OH221163   0.869   6.598   5.401
 7073TIP3    H121164   0.959   6.568   5.396
 7073TIP3    H221165   0.817   6.519   5.385
 7074TIP3   OH221166   2.658   0.119   0.338
 7074TIP3    H121167   2.665   0.042   0.395
 7074TIP3    H221168   2.590   0.172   0.377
 7075TIP3   OH221169   8.130   3.152   1.251
 7075TIP3    H121170   8.104   3.227   1.305
 7075TIP3    H221171   8.056   3.091   1.257
 7076TIP3   OH221172   1.640   6.428   0.552
 7076TIP3    H121173   1.612   6.442   0.642
 7076TIP3    H221174   1.610   6.339   0.531
 7077TIP3   OH221175   2.479   5.216   0.978
 7077TIP3    H121176   2.516   5.220   0.889
 7077TIP3    H221177   2.551   5.186   1.032
 7078TIP3   OH221178   2.913   6.964   1.447
 7078TIP3    H121179   2.924   6.911   1.526
 7078TIP3    H221180   2.909   7.054   1.478
 7079TIP3   OH221181   0.732   2.131   0.886
 7079TIP3    H121182   0.694   2.073   0.952
 7079TIP3    H221183   0.730   2.080   0.805
 7080TIP3   OH221184   1.268   7.677   0.280
 7080TIP3    H121185   1.288   7.768   0.299
 7080TIP3    H221186   1.283   7.667   0.186
 7081TIP3   OH221187   3.928   5.012   0.120
 7081TIP3    H121188   3.994   5.059   0.068
 7081TIP3    H221189   3.844   5.042   0.085
 7082TIP3   OH221190   1.482   1.550   3.067
 7082TIP3    H121191   1.552   1.582   3.123
 7082TIP3    H221192   1.405   1.546   3.124
 7083TIP3   OH221193   3.010   4.078   3.926
 7083TIP3    H121194   3.022   4.108   3.835
 7083TIP3    H221195   2.955   4.000   3.918
 7084TIP3   OH221196   0.308   1.013   5.999
 7084TIP3    H121197   0.305   1.021   6.094
 7084TIP3    H221198   0.272   1.095   5.966
 7085TIP3   OH221199   7.984   4.613   2.270
 7085TIP3    H121200   8.033   4.654   2.199
 7085TIP3    H221201   7.995   4.672   2.344
 7086TIP3   OH221202   2.624   4.311   5.158
 7086TIP3    H121203   2.594   4.309   5.067
 7086TIP3    H221204   2.544   4.321   5.210
 7087TIP3   OH221205   7.670   0.760   4.984
 7087TIP3    H121206   7.593   0.720   4.942
 7087TIP3    H221207   7.701   0.693   5.045
 7088TIP3   OH221208   8.042   3.816   1.351
 7088TIP3    H121209   8.083   3.756   1.413
 7088TIP3    H221210   7.981   3.761   1.301
 7089TIP3   OH221211   5.474   2.433   5.202
 7089TIP3    H121212   5.551   2.484   5.176
 7089TIP3    H221213   5.406   2.498   5.218
 7090TIP3   OH221214   5.331   5.413   3.713
 7090TIP3    H121215   5.324   5.362   3.632
 7090TIP3    H221216   5.415   5.459   3.704
 7091TIP3   OH221217   6.134   6.706   6.006
 7091TIP3    H121218   6.139   6.651   6.085
 7091TIP3    H221219   6.043   6.735   6.002
 7092TIP3   OH221220   4.661   6.407   1.375
 7092TIP3    H121221   4.597   6.356   1.425
 7092TIP3    H221222   4.746   6.383   1.413
 7093TIP3   OH221223   1.306   3.100   6.117
 7093TIP3    H121224   1.394   3.115   6.149
 7093TIP3    H221225   1.267   3.039   6.180
 7094TIP3   OH221226   0.888   1.498   3.408
 7094TIP3    H121227   0.902   1.419   3.355
 7094TIP3    H221228   0.942   1.565   3.365
 7095TIP3   OH221229   1.728   3.851   6.662
 7095TIP3    H121230   1.741   3.894   6.578
 7095TIP3    H221231   1.637   3.871   6.686
 7096TIP3   OH221232   0.440  -0.044   1.759
 7096TIP3    H121233   0.479  -0.003   1.836
 7096TIP3    H221234   0.423   0.029   1.699
 7097TIP3   OH221235   1.108   3.425   3.071
 7097TIP3    H121236   1.136   3.414   2.980
 7097TIP3    H221237   1.062   3.344   3.092
 7098TIP3   OH221238   1.175   2.721   4.080
 7098TIP3    H121239   1.116   2.672   4.137
 7098TIP3    H221240   1.262   2.689   4.103
 7099TIP3   OH221241   2.483   2.476   4.974
 7099TIP3    H121242   2.531   2.467   5.056
 7099TIP3    H221243   2.487   2.389   4.934
 7100TIP3   OH221244   0.265   4.146   2.789
 7100TIP3    H121245   0.252   4.126   2.882
 7100TIP3    H221246   0.335   4.086   2.761
 7101TIP3   OH221247   7.983   3.803   2.464
 7101TIP3    H121248   7.949   3.794   2.553
 7101TIP3    H221249   8.032   3.885   2.465
 7102TIP3   OH221250   6.540   2.927   5.658
 7102TIP3    H121251   6.579   2.982   5.726
 7102TIP3    H221252   6.453   2.965   5.643
 7103TIP3   OH221253   7.263   2.597   5.191
 7103TIP3    H121254   7.241   2.574   5.281
 7103TIP3    H221255   7.358   2.592   5.186
 7104TIP3   OH221256   0.813   3.870   4.147
 7104TIP3    H121257   0.866   3.898   4.222
 7104TIP3    H221258   0.825   3.940   4.082
 7105TIP3   OH221259   1.612   0.517   3.785
 7105TIP3    H121260   1.674   0.471   3.728
 7105TIP3    H221261   1.584   0.451   3.848
 7106TIP3   OH221262   2.813   1.570   2.022
 7106TIP3    H121263   2.727   1.610   2.037
 7106TIP3    H221264   2.850   1.559   2.110
 7107TIP3   OH221265   2.702   3.277   5.248
 7107TIP3    H121266   2.647   3.199   5.248
 7107TIP3    H221267   2.655   3.340   5.195
 7108TIP3   OH221268   4.584   7.795   3.571
 7108TIP3    H121269   4.565   7.889   3.575
 7108TIP3    H221270   4.498   7.753   3.569
 7109TIP3   OH221271   1.559   2.805   1.262
 7109TIP3    H121272   1.547   2.822   1.168
 7109TIP3    H221273   1.472   2.783   1.294
 7110TIP3   OH221274   5.654   2.214   6.098
 7110TIP3    H121275   5.623   2.211   6.008
 7110TIP3    H221276   5.717   2.142   6.104
 7111TIP3   OH221277   0.058   2.031   4.032
 7111TIP3    H121278   0.137   1.978   4.031
 7111TIP3    H221279   0.022   2.023   3.943
 7112TIP3   OH221280   6.744   6.739   2.756
 7112TIP3    H121281   6.736   6.805   2.687
 7112TIP3    H221282   6.716   6.658   2.714
 7113TIP3   OH221283   7.689   0.399   4.046
 7113TIP3    H121284   7.645   0.315   4.062
 7113TIP3    H221285   7.771   0.374   4.002
 7114TIP3   OH221286   0.650   4.816   1.363
 7114TIP3    H121287   0.582   4.774   1.312
 7114TIP3    H221288   0.725   4.756   1.357
 7115TIP3   OH221289   7.315   0.803   4.366
 7115TIP3    H121290   7.359   0.816   4.451
 7115TIP3    H221291   7.241   0.863   4.368
 7116TIP3   OH221292   7.178   2.388   2.338
 7116TIP3    H121293   7.209   2.352   2.255
 7116TIP3    H221294   7.084   2.371   2.338
 7117TIP3   OH221295   2.109   6.460   2.388
 7117TIP3    H121296   2.176   6.410   2.436
 7117TIP3    H221297   2.027   6.435   2.429
 7118TIP3   OH221298   7.613   2.489   6.691
 7118TIP3    H121299   7.608   2.491   6.786
 7118TIP3    H221300   7.662   2.568   6.667
 7119TIP3   OH221301   4.567   6.833   0.029
 7119TIP3    H121302   4.559   6.738   0.016
 7119TIP3    H221303   4.660   6.852   0.015
 7120TIP3   OH221304   5.723   6.412   5.925
 7120TIP3    H121305   5.648   6.409   5.865
 7120TIP3    H221306   5.799   6.425   5.868
 7121TIP3   OH221307   6.168   4.584   5.831
 7121TIP3    H121308   6.144   4.537   5.751
 7121TIP3    H221309   6.085   4.613   5.868
 7122TIP3   OH221310   4.593   4.384   0.118
 7122TIP3    H121311   4.565   4.335   0.195
 7122TIP3    H221312   4.659   4.446   0.151
 7123TIP3   OH221313   6.482   4.267   4.870
 7123TIP3    H121314   6.568   4.225   4.867
 7123TIP3    H221315   6.482   4.328   4.796
 7124TIP3   OH221316   6.138   1.458   5.245
 7124TIP3    H121317   6.088   1.498   5.317
 7124TIP3    H221318   6.092   1.484   5.166
 7125TIP3   OH221319   1.758   7.257   1.682
 7125TIP3    H121320   1.816   7.268   1.757
 7125TIP3    H221321   1.704   7.335   1.681
 7126TIP3   OH221322   5.055   4.344   0.998
 7126TIP3    H121323   4.966   4.352   1.032
 7126TIP3    H221324   5.055   4.261   0.950
 7127TIP3   OH221325   3.755   3.744   4.155
 7127TIP3    H121326   3.812   3.709   4.223
 7127TIP3    H221327   3.812   3.800   4.102
 7128TIP3   OH221328   2.043   5.019   1.937
 7128TIP3    H121329   2.119   5.072   1.957
 7128TIP3    H221330   2.071   4.929   1.955
 7129TIP3   OH221331   0.825   2.406   2.004
 7129TIP3    H121332   0.733   2.380   2.016
 7129TIP3    H221333   0.875   2.328   2.028
 7130TIP3   OH221334   1.798   3.482   4.157
 7130TIP3    H121335   1.795   3.431   4.076
 7130TIP3    H221336   1.774   3.419   4.225
 7131TIP3   OH221337   1.709   7.108   2.968
 7131TIP3    H121338   1.768   7.175   2.934
 7131TIP3    H221339   1.682   7.058   2.892
 7132TIP3   OH221340   7.173   4.121   5.635
 7132TIP3    H121341   7.170   4.134   5.730
 7132TIP3    H221342   7.121   4.193   5.600
 7133TIP3   OH221343   3.437   4.835   3.859
 7133TIP3    H121344   3.450   4.812   3.767
 7133TIP3    H221345   3.440   4.930   3.861
 7134TIP3   OH221346   3.952   1.786   4.711
 7134TIP3    H121347   4.018   1.764   4.778
 7134TIP3    H221348   3.957   1.881   4.704
 7135TIP3   OH221349   7.397   2.343   1.557
 7135TIP3    H121350   7.371   2.427   1.596
 7135TIP3    H221351   7.325   2.321   1.498
 7136TIP3   OH221352   4.140   3.095   1.364
 7136TIP3    H121353   4.128   3.183   1.398
 7136TIP3    H221354   4.055   3.073   1.324
 7137TIP3   OH221355   2.307   3.089   1.685
 7137TIP3    H121356   2.266   3.113   1.603
 7137TIP3    H221357   2.349   3.005   1.668
 7138TIP3   OH221358   6.738   2.562   5.804
 7138TIP3    H121359   6.804   2.562   5.873
 7138TIP3    H221360   6.668   2.617   5.838
 7139TIP3   OH221361   0.316   5.024   6.594
 7139TIP3    H121362   0.277   5.090   6.651
 7139TIP3    H221363   0.411   5.037   6.605
 7140TIP3   OH221364   3.020   5.791   1.104
 7140TIP3    H121365   2.987   5.717   1.155
 7140TIP3    H221366   2.963   5.795   1.028
 7141TIP3   OH221367   5.369   3.225   1.681
 7141TIP3    H121368   5.337   3.289   1.618
 7141TIP3    H221369   5.390   3.276   1.759
 7142TIP3   OH221370   2.022   1.689   4.660
 7142TIP3    H121371   2.039   1.640   4.741
 7142TIP3    H221372   2.100   1.744   4.649
 7143TIP3   OH221373   7.333   1.051   4.920
 7143TIP3    H121374   7.299   1.076   5.006
 7143TIP3    H221375   7.425   1.030   4.935
 7144TIP3   OH221376   4.907   2.436   3.534
 7144TIP3    H121377   4.830   2.478   3.572
 7144TIP3    H221378   4.887   2.429   3.441
 7145TIP3   OH221379   2.902   3.469   0.980
 7145TIP3    H121380   2.945   3.394   0.939
 7145TIP3    H221381   2.837   3.498   0.915
 7146TIP3   OH221382   2.040   2.344   4.327
 7146TIP3    H121383   2.119   2.301   4.294
 7146TIP3    H221384   2.039   2.325   4.420
 7147TIP3   OH221385   4.429   0.531   0.328
 7147TIP3    H121386   4.421   0.606   0.270
 7147TIP3    H221387   4.448   0.457   0.270
 7148TIP3   OH221388   0.894   5.914   4.788
 7148TIP3    H121389   0.969   5.887   4.842
 7148TIP3    H221390   0.905   6.009   4.778
 7149TIP3   OH221391   3.999   0.068   5.290
 7149TIP3    H121392   4.015   0.162   5.281
 7149TIP3    H221393   4.060   0.040   5.359
 7150TIP3   OH221394   3.201   1.986   3.650
 7150TIP3    H121395   3.257   2.035   3.709
 7150TIP3    H221396   3.128   2.045   3.631
 7151TIP3   OH221397   0.976   4.528   6.520
 7151TIP3    H121398   0.991   4.621   6.505
 7151TIP3    H221399   0.919   4.526   6.597
 7152TIP3   OH221400   7.093   0.078   6.119
 7152TIP3    H121401   7.188   0.091   6.124
 7152TIP3    H221402   7.070   0.034   6.201
 7153TIP3   OH221403   6.430   7.406   5.173
 7153TIP3    H121404   6.399   7.420   5.262
 7153TIP3    H221405   6.499   7.340   5.182
 7154TIP3   OH221406   0.919   2.452   1.074
 7154TIP3    H121407   0.835   2.446   1.028
 7154TIP3    H221408   0.930   2.365   1.114
 7155TIP3   OH221409   2.851   6.060   6.333
 7155TIP3    H121410   2.831   6.153   6.333
 7155TIP3    H221411   2.913   6.049   6.405
 7156TIP3   OH221412   1.021   7.072   3.014
 7156TIP3    H121413   1.089   7.037   2.957
 7156TIP3    H221414   0.950   7.097   2.956
 7157TIP3   OH221415   7.602   7.706   5.075
 7157TIP3    H121416   7.524   7.759   5.090
 7157TIP3    H221417   7.568   7.619   5.055
 7158TIP3   OH221418   6.603   5.352   5.426
 7158TIP3    H121419   6.615   5.277   5.484
 7158TIP3    H221420   6.589   5.426   5.485
 7159TIP3   OH221421   6.599   3.340   0.111
 7159TIP3    H121422   6.517   3.292   0.118
 7159TIP3    H221423   6.582   3.409   0.048
 7160TIP3   OH221424   6.143   5.314   0.149
 7160TIP3    H121425   6.056   5.282   0.173
 7160TIP3    H221426   6.137   5.409   0.160
 7161TIP3   OH221427   5.962   2.143   4.953
 7161TIP3    H121428   5.980   2.148   4.860
 7161TIP3    H221429   5.869   2.166   4.961
 7162TIP3   OH221430   6.639   6.600   4.269
 7162TIP3    H121431   6.700   6.593   4.196
 7162TIP3    H221432   6.696   6.603   4.347
 7163TIP3   OH221433   5.241   0.257   0.727
 7163TIP3    H121434   5.149   0.234   0.717
 7163TIP3    H221435   5.271   0.206   0.803
 7164TIP3   OH221436   8.122   5.845   4.737
 7164TIP3    H121437   8.157   5.930   4.711
 7164TIP3    H221438   8.134   5.790   4.660
 7165TIP3   OH221439   3.409   3.765   1.599
 7165TIP3    H121440   3.432   3.856   1.581
 7165TIP3    H221441   3.469   3.714   1.545
 7166TIP3   OH221442   4.470   4.902   2.193
 7166TIP3    H121443   4.408   4.974   2.207
 7166TIP3    H221444   4.427   4.825   2.231
 7167TIP3   OH221445   4.026   2.089   2.471
 7167TIP3    H121446   3.993   2.032   2.401
 7167TIP3    H221447   4.019   2.177   2.436
 7168TIP3   OH221448   5.733   3.905   1.142
 7168TIP3    H121449   5.715   3.830   1.085
 7168TIP3    H221450   5.648   3.924   1.183
 7169TIP3   OH221451   7.524   5.521   3.698
 7169TIP3    H121452   7.468   5.460   3.746
 7169TIP3    H221453   7.532   5.597   3.756
 7170TIP3   OH221454   6.543   4.993   5.117
 7170TIP3    H121455   6.543   5.002   5.022
 7170TIP3    H221456   6.470   4.934   5.135
 7171TIP3   OH221457   1.865   5.052   0.292
 7171TIP3    H121458   1.935   5.025   0.352
 7171TIP3    H221459   1.821   5.124   0.338
 7172TIP3   OH221460   6.137   6.141   1.478
 7172TIP3    H121461   6.153   6.154   1.571
 7172TIP3    H221462   6.223   6.151   1.437
 7173TIP3   OH221463   4.259   3.975   5.695
 7173TIP3    H121464   4.227   4.050   5.745
 7173TIP3    H221465   4.292   3.914   5.762
 7174TIP3   OH221466   5.990   5.964   5.220
 7174TIP3    H121467   6.071   5.915   5.206
 7174TIP3    H221468   5.974   6.010   5.138
 7175TIP3   OH221469   7.110   7.681   1.832
 7175TIP3    H121470   7.192   7.645   1.797
 7175TIP3    H221471   7.055   7.604   1.845
 7176TIP3   OH221472   1.666   5.171   6.145
 7176TIP3    H121473   1.582   5.127   6.129
 7176TIP3    H221474   1.657   5.207   6.234
 7177TIP3   OH221475   3.716   0.740   2.716
 7177TIP3    H121476   3.700   0.734   2.810
 7177TIP3    H221477   3.721   0.649   2.686
 7178TIP3   OH221478   6.255   6.879   0.113
 7178TIP3    H121479   6.177   6.884   0.057
 7178TIP3    H221480   6.328   6.877   0.053
 7179TIP3   OH221481   7.874   4.044   1.313
 7179TIP3    H121482   7.954   3.991   1.311
 7179TIP3    H221483   7.905   4.133   1.328
 7180TIP3   OH221484   6.691   1.388   2.558
 7180TIP3    H121485   6.781   1.376   2.529
 7180TIP3    H221486   6.682   1.333   2.636
 7181TIP3   OH221487   0.902   5.028   0.622
 7181TIP3    H121488   0.976   5.056   0.569
 7181TIP3    H221489   0.855   5.109   0.643
 7182TIP3   OH221490   7.051   7.566   2.158
 7182TIP3    H121491   7.135   7.583   2.116
 7182TIP3    H221492   7.046   7.629   2.230
 7183TIP3   OH221493   3.442   6.503   5.076
 7183TIP3    H121494   3.463   6.434   5.139
 7183TIP3    H221495   3.363   6.472   5.032
 7184TIP3   OH221496   4.856   7.690   6.528
 7184TIP3    H121497   4.774   7.703   6.576
 7184TIP3    H221498   4.918   7.751   6.568
 7185TIP3   OH221499   5.873   0.954   2.705
 7185TIP3    H121500   5.862   1.045   2.675
 7185TIP3    H221501   5.942   0.959   2.770
 7186TIP3   OH221502   4.327   1.079   3.511
 7186TIP3    H121503   4.234   1.093   3.531
 7186TIP3    H221504   4.368   1.063   3.596
 7187TIP3   OH221505   6.076   1.696   0.769
 7187TIP3    H121506   6.023   1.669   0.694
 7187TIP3    H221507   6.112   1.614   0.805
 7188TIP3   OH221508   7.780   2.031   0.250
 7188TIP3    H121509   7.743   2.088   0.317
 7188TIP3    H221510   7.707   2.013   0.191
 7189TIP3   OH221511   7.295   4.691   0.702
 7189TIP3    H121512   7.225   4.754   0.716
 7189TIP3    H221513   7.375   4.738   0.724
 7190TIP3   OH221514   2.912   2.817   3.248
 7190TIP3    H121515   2.885   2.905   3.222
 7190TIP3    H221516   2.921   2.769   3.166
 7191TIP3   OH221517   4.248   2.833   0.373
 7191TIP3    H121518   4.339   2.855   0.354
 7191TIP3    H221519   4.232   2.873   0.459
 7192TIP3   OH221520   6.966   6.087   4.695
 7192TIP3    H121521   6.954   6.006   4.646
 7192TIP3    H221522   7.036   6.067   4.758
 7193TIP3   OH221523   4.604   6.897   6.680
 7193TIP3    H121524   4.679   6.949   6.651
 7193TIP3    H221525   4.549   6.958   6.729
 7194TIP3   OH221526   1.602   5.555   2.642
 7194TIP3    H121527   1.514   5.542   2.606
 7194TIP3    H221528   1.652   5.591   2.569
 7195TIP3   OH221529   3.362   2.505   1.834
 7195TIP3    H121530   3.406   2.512   1.749
 7195TIP3    H221531   3.390   2.420   1.868
 7196TIP3   OH221532   1.723   4.845   2.211
 7196TIP3    H121533   1.731   4.764   2.262
 7196TIP3    H221534   1.702   4.912   2.275
 7197TIP3   OH221535   1.592   1.384   4.671
 7197TIP3    H121536   1.660   1.424   4.617
 7197TIP3    H221537   1.513   1.436   4.652
 7198TIP3   OH221538   5.074   5.544   1.295
 7198TIP3    H121539   5.030   5.623   1.265
 7198TIP3    H221540   5.080   5.489   1.217
 7199TIP3   OH221541   7.205   4.960   4.879
 7199TIP3    H121542   7.196   4.909   4.799
 7199TIP3    H221543   7.249   5.040   4.852
 7200TIP3   OH221544   5.663   1.241   0.620
 7200TIP3    H121545   5.658   1.273   0.530
 7200TIP3    H221546   5.639   1.316   0.675
 7201TIP3   OH221547   6.246   5.389   1.639
 7201TIP3    H121548   6.301   5.377   1.562
 7201TIP3    H221549   6.259   5.480   1.664
 7202TIP3   OH221550   3.096   6.921   1.105
 7202TIP3    H121551   3.126   6.869   1.031
 7202TIP3    H221552   3.079   7.008   1.068
 7203TIP3   OH221553   4.613   0.021   4.126
 7203TIP3    H121554   4.686   0.020   4.187
 7203TIP3    H221555   4.538   0.046   4.180
 7204TIP3   OH221556   5.038   1.528   0.833
 7204TIP3    H121557   5.121   1.541   0.880
 7204TIP3    H221558   4.974   1.578   0.883
 7205TIP3   OH221559   7.283   4.855   5.121
 7205TIP3    H121560   7.258   4.906   5.043
 7205TIP3    H221561   7.378   4.861   5.125
 7206TIP3   OH221562   0.651   2.764   6.164
 7206TIP3    H121563   0.684   2.683   6.126
 7206TIP3    H221564   0.559   2.767   6.138
 7207TIP3   OH221565   5.650   6.256   4.724
 7207TIP3    H121566   5.647   6.163   4.747
 7207TIP3    H221567   5.611   6.261   4.637
 7208TIP3   OH221568   4.222   6.464   1.642
 7208TIP3    H121569   4.140   6.429   1.608
 7208TIP3    H221570   4.270   6.493   1.564
 7209TIP3   OH221571   3.708   3.412   5.488
 7209TIP3    H121572   3.774   3.477   5.514
 7209TIP3    H221573   3.636   3.425   5.550
 7210TIP3   OH221574   6.355   3.976   2.857
 7210TIP3    H121575   6.406   3.931   2.789
 7210TIP3    H221576   6.264   3.968   2.829
 7211TIP3   OH221577   6.462   2.376   4.814
 7211TIP3    H121578   6.531   2.412   4.759
 7211TIP3    H221579   6.481   2.410   4.902
 7212TIP3   OH221580   1.028   0.468   5.397
 7212TIP3    H121581   0.966   0.507   5.459
 7212TIP3    H221582   0.987   0.482   5.311
 7213TIP3   OH221583   8.200   4.385   4.847
 7213TIP3    H121584   8.158   4.351   4.926
 7213TIP3    H221585   8.132   4.378   4.779
 7214TIP3   OH221586   1.178   5.474   1.444
 7214TIP3    H121587   1.211   5.530   1.373
 7214TIP3    H221588   1.102   5.521   1.478
 7215TIP3   OH221589   8.307   5.744   1.427
 7215TIP3    H121590   8.299   5.809   1.357
 7215TIP3    H221591   8.216   5.718   1.444
 7216TIP3   OH221592   0.119   0.756   3.938
 7216TIP3    H121593   0.163   0.841   3.938
 7216TIP3    H221594   0.126   0.726   3.847
 7217TIP3   OH221595   0.644   3.257   6.012
 7217TIP3    H121596   0.712   3.237   6.076
 7217TIP3    H221597   0.654   3.351   5.994
 7218TIP3   OH221598   2.695   1.871   4.102
 7218TIP3    H121599   2.638   1.836   4.033
 7218TIP3    H221600   2.681   1.965   4.098
 7219TIP3   OH221601   7.503   1.775   5.875
 7219TIP3    H121602   7.599   1.781   5.879
 7219TIP3    H221603   7.482   1.769   5.782
 7220TIP3   OH221604   0.945   1.198   4.241
 7220TIP3    H121605   1.020   1.163   4.289
 7220TIP3    H221606   0.873   1.194   4.303
 7221TIP3   OH221607   0.464   6.756   3.228
 7221TIP3    H121608   0.369   6.746   3.240
 7221TIP3    H221609   0.489   6.822   3.293
 7222TIP3   OH221610   8.271   2.022   0.901
 7222TIP3    H121611   8.180   1.993   0.893
 7222TIP3    H221612   8.299   2.035   0.810
 7223TIP3   OH221613   2.676   7.510   6.587
 7223TIP3    H121614   2.681   7.508   6.683
 7223TIP3    H221615   2.619   7.437   6.564
 7224TIP3   OH221616   1.047   2.421   4.799
 7224TIP3    H121617   1.090   2.339   4.775
 7224TIP3    H221618   0.955   2.398   4.808
 7225TIP3   OH221619   6.664   1.940   5.585
 7225TIP3    H121620   6.579   1.962   5.546
 7225TIP3    H221621   6.678   2.007   5.651
 7226TIP3   OH221622   3.505   5.287   4.542
 7226TIP3    H121623   3.573   5.236   4.586
 7226TIP3    H221624   3.423   5.258   4.582
 7227TIP3   OH221625   7.341   2.659   3.129
 7227TIP3    H121626   7.389   2.600   3.187
 7227TIP3    H221627   7.286   2.710   3.188
 7228TIP3   OH221628   4.026   1.796   5.949
 7228TIP3    H121629   3.996   1.826   6.035
 7228TIP3    H221630   4.086   1.865   5.920
 7229TIP3   OH221631   0.316   6.224   1.108
 7229TIP3    H121632   0.256   6.177   1.050
 7229TIP3    H221633   0.341   6.159   1.174
 7230TIP3   OH221634   2.051   2.378   3.141
 7230TIP3    H121635   2.019   2.305   3.194
 7230TIP3    H221636   2.116   2.421   3.197
 7231TIP3   OH221637   8.123   1.250   0.344
 7231TIP3    H121638   8.061   1.193   0.299
 7231TIP3    H221639   8.089   1.338   0.332
 7232TIP3   OH221640   1.068   0.520   6.417
 7232TIP3    H121641   1.010   0.586   6.380
 7232TIP3    H221642   1.010   0.451   6.448
 7233TIP3   OH221643   1.460   6.178   0.499
 7233TIP3    H121644   1.409   6.097   0.494
 7233TIP3    H221645   1.549   6.153   0.474
 7234TIP3   OH221646   7.774   6.657   5.099
 7234TIP3    H121647   7.749   6.586   5.040
 7234TIP3    H221648   7.759   6.737   5.049
 7235TIP3   OH221649   1.452   6.336   4.017
 7235TIP3    H121650   1.375   6.286   4.043
 7235TIP3    H221651   1.417   6.411   3.969
 7236TIP3   OH221652   1.063   2.754   3.826
 7236TIP3    H121653   1.102   2.724   3.908
 7236TIP3    H221654   0.970   2.736   3.835
 7237TIP3   OH221655   2.930   4.745   2.571
 7237TIP3    H121656   2.847   4.701   2.592
 7237TIP3    H221657   2.948   4.800   2.647
 7238TIP3   OH221658   1.337   6.281   4.755
 7238TIP3    H121659   1.421   6.237   4.744
 7238TIP3    H221660   1.343   6.324   4.840
 7239TIP3   OH221661   2.193   2.946   3.639
 7239TIP3    H121662   2.256   2.894   3.590
 7239TIP3    H221663   2.108   2.920   3.603
 7240TIP3   OH221664   1.022   4.959   4.281
 7240TIP3    H121665   1.036   4.886   4.220
 7240TIP3    H221666   1.028   4.920   4.368
 7241TIP3   OH221667   3.610   1.283   2.659
 7241TIP3    H121668   3.682   1.227   2.629
 7241TIP3    H221669   3.556   1.296   2.581
 7242TIP3   OH221670   4.250   3.277   2.664
 7242TIP3    H121671   4.253   3.358   2.613
 7242TIP3    H221672   4.231   3.209   2.600
 7243TIP3   OH221673   3.249   6.112   5.220
 7243TIP3    H121674   3.201   6.055   5.280
 7243TIP3    H221675   3.250   6.064   5.137
 7244TIP3   OH221676   5.095   1.428   2.288
 7244TIP3    H121677   5.155   1.498   2.313
 7244TIP3    H221678   5.150   1.351   2.278
 7245TIP3   OH221679   7.248   6.217   5.928
 7245TIP3    H121680   7.263   6.307   5.899
 7245TIP3    H221681   7.173   6.223   5.988
 7246TIP3   OH221682   4.402   6.518   4.381
 7246TIP3    H121683   4.473   6.488   4.324
 7246TIP3    H221684   4.347   6.571   4.323
 7247TIP3   OH221685   1.526   0.052   6.054
 7247TIP3    H121686   1.438   0.076   6.023
 7247TIP3    H221687   1.518  -0.040   6.079
 7248TIP3   OH221688   8.166   4.927   3.174
 7248TIP3    H121689   8.249   4.907   3.130
 7248TIP3    H221690   8.175   4.886   3.261
 7249TIP3   OH221691   3.784   4.665   0.786
 7249TIP3    H121692   3.823   4.680   0.699
 7249TIP3    H221693   3.714   4.603   0.769
 7250TIP3   OH221694   7.957   4.176   1.949
 7250TIP3    H121695   8.038   4.227   1.956
 7250TIP3    H221696   7.960   4.137   1.862
 7251TIP3   OH221697   4.936   2.294   6.305
 7251TIP3    H121698   4.982   2.282   6.388
 7251TIP3    H221699   4.986   2.242   6.242
 7252TIP3   OH221700   3.091   0.827   3.569
 7252TIP3    H121701   3.113   0.827   3.476
 7252TIP3    H221702   2.996   0.836   3.571
 7253TIP3   OH221703   7.981   7.792   2.936
 7253TIP3    H121704   8.062   7.798   2.887
 7253TIP3    H221705   7.925   7.734   2.884
 7254TIP3   OH221706   6.258   6.814   2.123
 7254TIP3    H121707   6.211   6.773   2.196
 7254TIP3    H221708   6.327   6.865   2.166
 7255TIP3   OH221709   6.094   2.743   1.129
 7255TIP3    H121710   6.086   2.680   1.201
 7255TIP3    H221711   6.149   2.698   1.065
 7256TIP3   OH221712   4.109   2.494   4.243
 7256TIP3    H121713   4.166   2.462   4.172
 7256TIP3    H221714   4.028   2.446   4.231
 7257TIP3   OH221715   4.823   3.058   0.258
 7257TIP3    H121716   4.774   3.118   0.314
 7257TIP3    H221717   4.903   3.040   0.306
 7258TIP3   OH221718   4.196   6.950   1.055
 7258TIP3    H121719   4.238   6.909   0.980
 7258TIP3    H221720   4.105   6.919   1.052
 7259TIP3   OH221721   4.989   4.246   2.852
 7259TIP3    H121722   5.060   4.200   2.897
 7259TIP3    H221723   4.913   4.236   2.909
 7260TIP3   OH221724   6.710   4.460   4.174
 7260TIP3    H121725   6.712   4.450   4.269
 7260TIP3    H221726   6.785   4.410   4.142
 7261TIP3   OH221727   7.756   6.446   3.147
 7261TIP3    H121728   7.770   6.428   3.240
 7261TIP3    H221729   7.767   6.541   3.138
 7262TIP3   OH221730   5.819   7.097   6.209
 7262TIP3    H121731   5.782   7.016   6.244
 7262TIP3    H221732   5.801   7.162   6.276
 7263TIP3   OH221733   7.932   3.134   6.253
 7263TIP3    H121734   8.028   3.135   6.254
 7263TIP3    H221735   7.909   3.178   6.171
 7264TIP3   OH221736   7.891   6.298   1.468
 7264TIP3    H121737   7.969   6.262   1.426
 7264TIP3    H221738   7.925   6.358   1.534
 7265TIP3   OH221739   2.694   1.486   6.245
 7265TIP3    H121740   2.782   1.450   6.236
 7265TIP3    H221741   2.640   1.412   6.272
 7266TIP3   OH221742   7.054   4.241   2.558
 7266TIP3    H121743   7.086   4.205   2.641
 7266TIP3    H221744   7.134   4.259   2.508
 7267TIP3   OH221745   3.305   4.481   3.093
 7267TIP3    H121746   3.279   4.482   3.185
 7267TIP3    H221747   3.400   4.494   3.094
 7268TIP3   OH221748   0.657   5.135   1.055
 7268TIP3    H121749   0.717   5.173   0.990
 7268TIP3    H221750   0.652   5.042   1.030
 7269TIP3   OH221751   5.354   4.284   2.748
 7269TIP3    H121752   5.330   4.343   2.677
 7269TIP3    H221753   5.329   4.331   2.828
 7270TIP3   OH221754   4.186   3.052   6.690
 7270TIP3    H121755   4.233   3.067   6.773
 7270TIP3    H221756   4.181   2.957   6.682
 7271TIP3   OH221757   6.418   4.242   0.296
 7271TIP3    H121758   6.357   4.312   0.272
 7271TIP3    H221759   6.380   4.203   0.375
 7272TIP3   OH221760   1.925   1.594   5.083
 7272TIP3    H121761   1.935   1.664   5.148
 7272TIP3    H221762   1.851   1.542   5.115
 7273TIP3   OH221763   1.182   6.833   5.481
 7273TIP3    H121764   1.108   6.888   5.457
 7273TIP3    H221765   1.163   6.748   5.441
 7274TIP3   OH221766   0.704   5.845   1.742
 7274TIP3    H121767   0.789   5.865   1.782
 7274TIP3    H221768   0.724   5.793   1.665
 7275TIP3   OH221769   1.172   1.743   0.019
 7275TIP3    H121770   1.085   1.745  -0.022
 7275TIP3    H221771   1.158   1.696   0.101
 7276TIP3   OH221772   2.314   6.297   2.522
 7276TIP3    H121773   2.284   6.206   2.525
 7276TIP3    H221774   2.368   6.302   2.443
 7277TIP3   OH221775   0.496   2.604   3.065
 7277TIP3    H121776   0.532   2.689   3.042
 7277TIP3    H221777   0.572   2.548   3.080
 7278TIP3   OH221778   7.559   1.578   4.870
 7278TIP3    H121779   7.641   1.543   4.833
 7278TIP3    H221780   7.581   1.597   4.962
 7279TIP3   OH221781   2.529   5.688   0.453
 7279TIP3    H121782   2.451   5.638   0.478
 7279TIP3    H221783   2.580   5.628   0.398
 7280TIP3   OH221784   6.553   3.258   2.813
 7280TIP3    H121785   6.552   3.163   2.824
 7280TIP3    H221786   6.514   3.273   2.727
 7281TIP3   OH221787   3.507   3.251   3.174
 7281TIP3    H121788   3.602   3.254   3.172
 7281TIP3    H221789   3.483   3.209   3.091
 7282TIP3   OH221790   5.303   3.400   3.462
 7282TIP3    H121791   5.268   3.326   3.414
 7282TIP3    H221792   5.397   3.383   3.468
 7283TIP3   OH221793   6.673   1.396   3.068
 7283TIP3    H121794   6.715   1.479   3.090
 7283TIP3    H221795   6.739   1.330   3.087
 7284TIP3   OH221796   1.165   1.938   1.889
 7284TIP3    H121797   1.173   1.988   1.807
 7284TIP3    H221798   1.221   1.984   1.951
 7285TIP3   OH221799   2.274   1.584   0.207
 7285TIP3    H121800   2.289   1.489   0.205
 7285TIP3    H221801   2.200   1.597   0.148
 7286TIP3   OH221802   2.356   3.668   3.826
 7286TIP3    H121803   2.261   3.663   3.841
 7286TIP3    H221804   2.365   3.668   3.731
 7287TIP3   OH221805   5.082   6.073   6.071
 7287TIP3    H121806   5.071   5.978   6.073
 7287TIP3    H221807   5.010   6.108   6.123
 7288TIP3   OH221808   4.301   4.851   2.645
 7288TIP3    H121809   4.355   4.923   2.677
 7288TIP3    H221810   4.217   4.892   2.622
 7289TIP3   OH221811   1.471   6.096   6.617
 7289TIP3    H121812   1.474   6.040   6.540
 7289TIP3    H221813   1.378   6.099   6.641
 7290TIP3   OH221814   2.090   4.949   4.602
 7290TIP3    H121815   2.119   5.032   4.637
 7290TIP3    H221816   2.016   4.923   4.657
 7291TIP3   OH221817   8.041   5.692   3.395
 7291TIP3    H121818   7.953   5.661   3.372
 7291TIP3    H221819   8.042   5.691   3.491
 7292TIP3   OH221820   7.594   4.699   3.457
 7292TIP3    H121821   7.637   4.646   3.390
 7292TIP3    H221822   7.501   4.676   3.450
 7293TIP3   OH221823   3.983   0.817   1.267
 7293TIP3    H121824   3.993   0.908   1.241
 7293TIP3    H221825   3.955   0.772   1.187
 7294TIP3   OH221826   0.927   6.112   3.523
 7294TIP3    H121827   0.951   6.090   3.613
 7294TIP3    H221828   1.003   6.085   3.471
 7295TIP3   OH221829   6.345   1.757   5.706
 7295TIP3    H121830   6.321   1.841   5.666
 7295TIP3    H221831   6.340   1.694   5.634
 7296TIP3   OH221832   3.254   2.341   6.311
 7296TIP3    H121833   3.208   2.264   6.278
 7296TIP3    H221834   3.203   2.415   6.278
 7297TIP3   OH221835   0.359   3.419   4.430
 7297TIP3    H121836   0.339   3.363   4.355
 7297TIP3    H221837   0.447   3.452   4.412
 7298TIP3   OH221838   3.377   1.533   0.707
 7298TIP3    H121839   3.428   1.543   0.626
 7298TIP3    H221840   3.442   1.517   0.775
 7299TIP3   OH221841   8.227   5.920   3.323
 7299TIP3    H121842   8.226   5.825   3.316
 7299TIP3    H221843   8.174   5.940   3.400
 7300TIP3   OH221844   2.998   2.305   6.109
 7300TIP3    H121845   2.960   2.320   6.195
 7300TIP3    H221846   3.060   2.233   6.122
 7301TIP3   OH221847   0.964   7.679   2.035
 7301TIP3    H121848   0.949   7.588   2.058
 7301TIP3    H221849   0.986   7.722   2.118
 7302TIP3   OH221850   3.075   5.785   2.429
 7302TIP3    H121851   3.092   5.828   2.512
 7302TIP3    H221852   3.089   5.692   2.447
 7303TIP3   OH221853   2.545   0.429   4.623
 7303TIP3    H121854   2.511   0.486   4.555
 7303TIP3    H221855   2.604   0.484   4.675
 7304TIP3   OH221856   5.908   2.025   6.100
 7304TIP3    H121857   5.919   2.002   6.008
 7304TIP3    H221858   5.957   2.107   6.111
 7305TIP3   OH221859   0.040   3.743   1.703
 7305TIP3    H121860  -0.029   3.807   1.716
 7305TIP3    H221861  -0.005   3.659   1.694
 7306TIP3   OH221862   2.324   1.744   0.422
 7306TIP3    H121863   2.299   1.683   0.352
 7306TIP3    H221864   2.254   1.809   0.423
 7307TIP3   OH221865   4.550   3.755   4.972
 7307TIP3    H121866   4.528   3.847   4.957
 7307TIP3    H221867   4.625   3.758   5.031
 7308TIP3   OH221868   6.887   2.071   1.385
 7308TIP3    H121869   6.877   2.093   1.292
 7308TIP3    H221870   6.801   2.087   1.423
 7309TIP3   OH221871   6.938   2.585   0.744
 7309TIP3    H121872   6.909   2.535   0.668
 7309TIP3    H221873   6.912   2.675   0.726
 7310TIP3   OH221874   5.456   7.546   3.841
 7310TIP3    H121875   5.457   7.624   3.896
 7310TIP3    H221876   5.419   7.477   3.897
 7311TIP3   OH221877   5.793   2.135   4.335
 7311TIP3    H121878   5.731   2.062   4.324
 7311TIP3    H221879   5.879   2.093   4.335
 7312TIP3   OH221880   6.355   5.678   4.419
 7312TIP3    H121881   6.306   5.700   4.340
 7312TIP3    H221882   6.435   5.636   4.387
 7313TIP3   OH221883   8.269   6.186   6.256
 7313TIP3    H121884   8.334   6.239   6.209
 7313TIP3    H221885   8.244   6.118   6.194
 7314TIP3   OH221886   2.765   6.754   4.233
 7314TIP3    H121887   2.853   6.778   4.262
 7314TIP3    H221888   2.740   6.681   4.289
 7315TIP3   OH221889   0.682   4.424   4.932
 7315TIP3    H121890   0.651   4.505   4.973
 7315TIP3    H221891   0.769   4.409   4.969
 7316TIP3   OH221892   0.823   4.908   4.634
 7316TIP3    H121893   0.857   4.836   4.688
 7316TIP3    H221894   0.728   4.896   4.637
 7317TIP3   OH221895   3.945   6.677   4.594
 7317TIP3    H121896   3.918   6.624   4.669
 7317TIP3    H221897   3.906   6.632   4.518
 7318TIP3   OH221898   5.074   7.398   3.774
 7318TIP3    H121899   5.114   7.310   3.777
 7318TIP3    H221900   5.101   7.434   3.689
 7319TIP3   OH221901   6.825   7.123   4.685
 7319TIP3    H121902   6.763   7.149   4.753
 7319TIP3    H221903   6.783   7.049   4.641
 7320TIP3   OH221904   2.492   5.577   5.717
 7320TIP3    H121905   2.560   5.601   5.654
 7320TIP3    H221906   2.461   5.492   5.688
 7321TIP3   OH221907   1.636   7.658   5.418
 7321TIP3    H121908   1.717   7.679   5.465
 7321TIP3    H221909   1.651   7.570   5.383
 7322TIP3   OH221910   2.410   6.910   5.954
 7322TIP3    H121911   2.503   6.896   5.972
 7322TIP3    H221912   2.378   6.958   6.030
 7323TIP3   OH221913   1.135   4.990   5.360
 7323TIP3    H121914   1.207   4.963   5.417
 7323TIP3    H221915   1.161   4.963   5.272
 7324TIP3   OH221916   4.968   4.729   6.679
 7324TIP3    H121917   5.046   4.704   6.629
 7324TIP3    H221918   4.977   4.684   6.763
 7325TIP3   OH221919   0.973   5.048   2.655
 7325TIP3    H121920   0.996   4.958   2.631
 7325TIP3    H221921   0.956   5.091   2.571
 7326TIP3   OH221922   6.591   2.640   5.125
 7326TIP3    H121923   6.566   2.663   5.214
 7326TIP3    H221924   6.511   2.652   5.074
 7327TIP3   OH221925   6.586   3.913   6.750
 7327TIP3    H121926   6.662   3.858   6.769
 7327TIP3    H221927   6.530   3.904   6.828
 7328TIP3   OH221928   4.865   1.860   4.268
 7328TIP3    H121929   4.816   1.779   4.252
 7328TIP3    H221930   4.824   1.898   4.345
 7329TIP3   OH221931   2.155   6.079   1.960
 7329TIP3    H121932   2.076   6.026   1.951
 7329TIP3    H221933   2.226   6.020   1.935
 7330TIP3   OH221934   5.365   2.508   5.501
 7330TIP3    H121935   5.304   2.520   5.428
 7330TIP3    H221936   5.400   2.596   5.518
 7331TIP3   OH221937   4.956   6.500   1.002
 7331TIP3    H121938   4.972   6.471   0.912
 7331TIP3    H221939   4.892   6.438   1.036
 7332TIP3   OH221940   7.586   1.020   4.972
 7332TIP3    H121941   7.628   0.936   4.988
 7332TIP3    H221942   7.577   1.059   5.059
 7333TIP3   OH221943   7.673   5.821   6.164
 7333TIP3    H121944   7.722   5.738   6.159
 7333TIP3    H221945   7.664   5.849   6.073
 7334TIP3   OH221946   6.926   3.071   2.142
 7334TIP3    H121947   6.890   2.995   2.189
 7334TIP3    H221948   6.849   3.118   2.111
 7335TIP3   OH221949   5.625   0.774   5.915
 7335TIP3    H121950   5.570   0.697   5.898
 7335TIP3    H221951   5.599   0.837   5.848
 7336TIP3   OH221952   6.175   2.093   3.869
 7336TIP3    H121953   6.184   2.034   3.944
 7336TIP3    H221954   6.179   2.181   3.907
 7337TIP3   OH221955   0.848   0.031   5.531
 7337TIP3    H121956   0.851  -0.054   5.487
 7337TIP3    H221957   0.933   0.071   5.511
 7338TIP3   OH221958   4.630   4.269   1.005
 7338TIP3    H121959   4.564   4.297   1.069
 7338TIP3    H221960   4.669   4.191   1.044
 7339TIP3   OH221961   3.818   2.863   3.103
 7339TIP3    H121962   3.737   2.823   3.133
 7339TIP3    H221963   3.866   2.791   3.061
 7340TIP3   OH221964   7.328   2.365   4.597
 7340TIP3    H121965   7.373   2.393   4.677
 7340TIP3    H221966   7.311   2.446   4.549
 7341TIP3   OH221967   6.873   0.299   5.902
 7341TIP3    H121968   6.803   0.363   5.890
 7341TIP3    H221969   6.953   0.350   5.904
 7342TIP3   OH221970   8.076   7.071   3.269
 7342TIP3    H121971   8.162   7.086   3.307
 7342TIP3    H221972   8.025   7.032   3.339
 7343TIP3   OH221973   6.887   4.404   0.506
 7343TIP3    H121974   6.888   4.498   0.489
 7343TIP3    H221975   6.795   4.381   0.512
 7344TIP3   OH221976   2.711   1.257   1.642
 7344TIP3    H121977   2.639   1.318   1.625
 7344TIP3    H221978   2.776   1.308   1.689
 7345TIP3   OH221979   8.145   1.863   1.361
 7345TIP3    H121980   8.107   1.807   1.292
 7345TIP3    H221981   8.221   1.815   1.393
 7346TIP3   OH221982   2.295   7.801   3.446
 7346TIP3    H121983   2.297   7.719   3.496
 7346TIP3    H221984   2.383   7.808   3.408
 7347TIP3   OH221985   0.839   1.690   4.955
 7347TIP3    H121986   0.792   1.656   5.031
 7347TIP3    H221987   0.863   1.780   4.979
 7348TIP3   OH221988   1.773   5.328   2.252
 7348TIP3    H121989   1.858   5.284   2.260
 7348TIP3    H221990   1.765   5.346   2.158
 7349TIP3   OH221991   8.250   3.294   3.009
 7349TIP3    H121992   8.176   3.307   3.069
 7349TIP3    H221993   8.328   3.311   3.062
 7350TIP3   OH221994   0.879   0.731   6.342
 7350TIP3    H121995   0.898   0.757   6.432
 7350TIP3    H221996   0.802   0.781   6.317
 7351TIP3   OH221997   3.652   0.791   3.566
 7351TIP3    H121998   3.707   0.716   3.589
 7351TIP3    H221999   3.603   0.810   3.645
 7352TIP3   OH222000   6.154   6.889   3.742
 7352TIP3    H122001   6.139   6.804   3.702
 7352TIP3    H222002   6.228   6.926   3.695
 7353TIP3   OH222003   6.404   0.351   3.384
 7353TIP3    H122004   6.325   0.372   3.434
 7353TIP3    H222005   6.379   0.363   3.293
 7354TIP3   OH222006   1.949   0.564   0.482
 7354TIP3    H122007   1.942   0.471   0.504
 7354TIP3    H222008   1.930   0.609   0.565
 7355TIP3   OH222009   0.854   5.929   2.349
 7355TIP3    H122010   0.763   5.905   2.330
 7355TIP3    H222011   0.865   5.911   2.442
 7356TIP3   OH222012   1.624   1.316   3.692
 7356TIP3    H122013   1.560   1.320   3.762
 7356TIP3    H222014   1.702   1.278   3.732
 7357TIP3   OH222015   4.854   6.047   4.404
 7357TIP3    H122016   4.874   6.017   4.315
 7357TIP3    H222017   4.834   6.140   4.393
 7358TIP3   OH222018   3.488   7.023   1.988
 7358TIP3    H122019   3.473   6.950   2.047
 7358TIP3    H222020   3.505   7.098   2.046
 7359TIP3   OH222021   5.670   3.513   4.150
 7359TIP3    H122022   5.676   3.492   4.243
 7359TIP3    H222023   5.619   3.441   4.112
 7360TIP3   OH222024   5.763   4.575   3.799
 7360TIP3    H122025   5.789   4.617   3.880
 7360TIP3    H222026   5.726   4.491   3.826
 7361TIP3   OH222027   7.014   2.889   3.408
 7361TIP3    H122028   6.996   2.947   3.334
 7361TIP3    H222029   6.928   2.857   3.435
 7362TIP3   OH222030   4.131   6.719   2.341
 7362TIP3    H122031   4.152   6.795   2.286
 7362TIP3    H222032   4.165   6.741   2.427
 7363TIP3   OH222033   3.971   4.527   5.613
 7363TIP3    H122034   3.945   4.607   5.659
 7363TIP3    H222035   4.044   4.555   5.558
 7364TIP3   OH222036   5.053   1.885   2.265
 7364TIP3    H122037   4.961   1.895   2.242
 7364TIP3    H222038   5.097   1.955   2.218
 7365TIP3   OH222039   0.392   2.758   1.317
 7365TIP3    H122040   0.421   2.690   1.378
 7365TIP3    H222041   0.449   2.746   1.241
 7366TIP3   OH222042   6.075   7.623   3.217
 7366TIP3    H122043   6.033   7.660   3.140
 7366TIP3    H222044   6.005   7.576   3.263
 7367TIP3   OH222045   5.667   5.052   4.830
 7367TIP3    H122046   5.695   4.968   4.865
 7367TIP3    H222047   5.748   5.104   4.827
 7368TIP3   OH222048   0.261   0.070   5.495
 7368TIP3    H122049   0.352   0.073   5.524
 7368TIP3    H222050   0.262   0.012   5.418
 7369TIP3   OH222051   6.364   4.226   1.606
 7369TIP3    H122052   6.432   4.288   1.579
 7369TIP3    H222053   6.327   4.194   1.524
 7370TIP3   OH222054   6.428   1.972   0.365
 7370TIP3    H122055   6.468   1.887   0.347
 7370TIP3    H222056   6.445   2.024   0.286
 7371TIP3   OH222057   6.878   2.431   4.975
 7371TIP3    H122058   6.889   2.338   4.995
 7371TIP3    H222059   6.931   2.445   4.896
 7372TIP3   OH222060   2.261   3.319   0.864
 7372TIP3    H122061   2.301   3.351   0.945
 7372TIP3    H222062   2.179   3.279   0.893
 7373TIP3   OH222063   0.823   5.913   0.095
 7373TIP3    H122064   0.905   5.963   0.091
 7373TIP3    H222065   0.757   5.978   0.121
 7374TIP3   OH222066   0.597   1.857   5.458
 7374TIP3    H122067   0.620   1.766   5.477
 7374TIP3    H222068   0.584   1.897   5.545
 7375TIP3   OH222069   5.757   0.013   6.422
 7375TIP3    H122070   5.729  -0.008   6.511
 7375TIP3    H222071   5.702   0.087   6.396
 7376TIP3   OH222072   1.019   7.656   5.841
 7376TIP3    H122073   1.026   7.575   5.891
 7376TIP3    H222074   0.952   7.638   5.774
 7377TIP3   OH222075   2.477   4.835   0.844
 7377TIP3    H122076   2.429   4.837   0.927
 7377TIP3    H222077   2.409   4.838   0.777
 7378TIP3   OH222078   2.318   7.316   1.129
 7378TIP3    H122079   2.303   7.343   1.038
 7378TIP3    H222080   2.298   7.394   1.181
 7379TIP3   OH222081   2.731   3.505   6.355
 7379TIP3    H122082   2.650   3.544   6.387
 7379TIP3    H222083   2.734   3.528   6.262
 7380TIP3   OH222084   5.013   5.410   4.130
 7380TIP3    H122085   5.056   5.493   4.110
 7380TIP3    H222086   5.073   5.365   4.190
 7381TIP3   OH222087   4.968   7.609   2.570
 7381TIP3    H122088   4.913   7.639   2.642
 7381TIP3    H222089   5.039   7.560   2.613
 7382TIP3   OH222090   1.799   6.894   6.156
 7382TIP3    H122091   1.713   6.855   6.166
 7382TIP3    H222092   1.825   6.871   6.067
 7383TIP3   OH222093   0.632   1.180   0.791
 7383TIP3    H122094   0.726   1.188   0.770
 7383TIP3    H222095   0.591   1.252   0.743
 7384TIP3   OH222096   2.040  -0.001   0.047
 7384TIP3    H122097   2.001  -0.021   0.133
 7384TIP3    H222098   2.027   0.093   0.037
 7385TIP3   OH222099   1.721   3.527   2.350
 7385TIP3    H122100   1.755   3.440   2.327
 7385TIP3    H222101   1.626   3.515   2.354
 7386TIP3   OH222102   0.031   0.666   4.399
 7386TIP3    H122103   0.083   0.736   4.360
 7386TIP3    H222104   0.024   0.600   4.331
 7387TIP3   OH222105   0.324   6.139   1.566
 7387TIP3    H122106   0.415   6.107   1.566
 7387TIP3    H222107   0.273   6.063   1.595
 7388TIP3   OH222108   5.365   0.147   6.005
 7388TIP3    H122109   5.357   0.052   6.004
 7388TIP3    H222110   5.385   0.171   5.915
 7389TIP3   OH222111   7.653   5.368   6.064
 7389TIP3    H122112   7.644   5.462   6.078
 7389TIP3    H222113   7.625   5.329   6.147
 7390TIP3   OH222114   2.817   2.240   5.409
 7390TIP3    H122115   2.907   2.209   5.406
 7390TIP3    H222116   2.771   2.188   5.343
 7391TIP3   OH222117   0.474   3.314   1.845
 7391TIP3    H122118   0.502   3.402   1.821
 7391TIP3    H222119   0.432   3.279   1.767
 7392TIP3   OH222120   6.407   6.979   1.436
 7392TIP3    H122121   6.482   6.982   1.495
 7392TIP3    H222122   6.444   6.996   1.350
 7393TIP3   OH222123   0.974   4.791   3.279
 7393TIP3    H122124   0.929   4.849   3.340
 7393TIP3    H222125   1.067   4.811   3.290
 7394TIP3   OH222126   0.260   4.045   5.420
 7394TIP3    H122127   0.219   4.126   5.389
 7394TIP3    H222128   0.354   4.057   5.401
 7395TIP3   OH222129   6.172   2.255   1.130
 7395TIP3    H122130   6.185   2.179   1.074
 7395TIP3    H222131   6.192   2.224   1.218
 7396TIP3   OH222132   1.357   4.174   2.318
 7396TIP3    H122133   1.416   4.118   2.267
 7396TIP3    H222134   1.307   4.223   2.253
 7397TIP3   OH222135   3.512   2.212   4.434
 7397TIP3    H122136   3.482   2.277   4.498
 7397TIP3    H222137   3.446   2.214   4.365
 7398TIP3   OH222138   7.236   3.376   4.483
 7398TIP3    H122139   7.152   3.360   4.440
 7398TIP3    H222140   7.288   3.299   4.463
 7399TIP3   OH222141   5.937   0.594   2.290
 7399TIP3    H122142   5.935   0.624   2.381
 7399TIP3    H222143   5.969   0.669   2.240
 7400TIP3   OH222144   7.510   2.556   2.384
 7400TIP3    H122145   7.543   2.467   2.394
 7400TIP3    H222146   7.415   2.548   2.389
 7401TIP3   OH222147   7.327   0.877   5.757
 7401TIP3    H122148   7.288   0.804   5.805
 7401TIP3    H222149   7.254   0.914   5.706
 7402TIP3   OH222150   5.381   2.417   4.123
 7402TIP3    H122151   5.445   2.356   4.160
 7402TIP3    H222152   5.298   2.392   4.163
 7403TIP3   OH222153   0.673   2.375   1.628
 7403TIP3    H122154   0.623   2.315   1.685
 7403TIP3    H222155   0.617   2.452   1.621
 7404TIP3   OH222156   6.550   0.606   5.529
 7404TIP3    H122157   6.589   0.533   5.577
 7404TIP3    H222158   6.613   0.625   5.459
 7405TIP3   OH222159   4.889   2.696   5.074
 7405TIP3    H122160   4.802   2.706   5.113
 7405TIP3    H222161   4.920   2.612   5.107
 7406TIP3   OH222162   0.964   4.433   1.088
 7406TIP3    H122163   0.888   4.381   1.063
 7406TIP3    H222164   1.038   4.374   1.077
 7407TIP3   OH222165   0.585   6.614   2.694
 7407TIP3    H122166   0.498   6.651   2.685
 7407TIP3    H222167   0.592   6.591   2.787
 7408TIP3   OH222168   3.829   4.076   6.250
 7408TIP3    H122169   3.791   4.018   6.184
 7408TIP3    H222170   3.807   4.164   6.221
 7409TIP3   OH222171   2.612   3.286   5.674
 7409TIP3    H122172   2.685   3.229   5.650
 7409TIP3    H222173   2.537   3.226   5.683
 7410TIP3   OH222174   7.645   1.166   3.715
 7410TIP3    H122175   7.596   1.201   3.789
 7410TIP3    H222176   7.700   1.097   3.752
 7411TIP3   OH222177   1.915   2.071   4.753
 7411TIP3    H122178   1.914   2.061   4.848
 7411TIP3    H222179   1.879   1.989   4.720
 7412TIP3   OH222180   5.960   3.132   4.084
 7412TIP3    H122181   6.006   3.061   4.129
 7412TIP3    H222182   6.028   3.174   4.031
 7413TIP3   OH222183   2.120   1.177   2.453
 7413TIP3    H122184   2.201   1.229   2.451
 7413TIP3    H222185   2.120   1.136   2.539
 7414TIP3   OH222186   5.473   7.632   2.974
 7414TIP3    H122187   5.457   7.691   3.048
 7414TIP3    H222188   5.390   7.632   2.926
 7415TIP3   OH222189   5.039   7.682   3.258
 7415TIP3    H122190   4.954   7.689   3.300
 7415TIP3    H222191   5.050   7.765   3.211
 7416TIP3   OH222192   1.645   5.435   1.508
 7416TIP3    H122193   1.657   5.523   1.543
 7416TIP3    H222194   1.558   5.410   1.536
 7417TIP3   OH222195   1.228   1.788   5.105
 7417TIP3    H122196   1.208   1.695   5.096
 7417TIP3    H222197   1.321   1.795   5.085
 7418TIP3   OH222198   0.364   1.339   5.080
 7418TIP3    H122199   0.441   1.295   5.114
 7418TIP3    H222200   0.291   1.282   5.104
 7419TIP3   OH222201   1.353   3.114   3.838
 7419TIP3    H122202   1.355   3.158   3.753
 7419TIP3    H222203   1.319   3.180   3.898
 7420TIP3   OH222204   1.161   1.593   2.399
 7420TIP3    H122205   1.142   1.499   2.395
 7420TIP3    H222206   1.180   1.618   2.309
 7421TIP3   OH222207   1.913   7.722   2.337
 7421TIP3    H122208   1.824   7.756   2.331
 7421TIP3    H222209   1.911   7.641   2.285
 7422TIP3   OH222210   5.860   4.457   3.555
 7422TIP3    H122211   5.815   4.509   3.622
 7422TIP3    H222212   5.953   4.472   3.571
 7423TIP3   OH222213   3.398   1.552   0.219
 7423TIP3    H122214   3.360   1.586   0.138
 7423TIP3    H222215   3.426   1.463   0.197
 7424TIP3   OH222216   2.731   2.539   0.169
 7424TIP3    H122217   2.774   2.588   0.099
 7424TIP3    H222218   2.667   2.600   0.204
 7425TIP3   OH222219   7.455   1.767   2.720
 7425TIP3    H122220   7.365   1.733   2.722
 7425TIP3    H222221   7.453   1.842   2.780
 7426TIP3   OH222222   0.358   4.633   5.766
 7426TIP3    H122223   0.416   4.614   5.840
 7426TIP3    H222224   0.276   4.661   5.806
 7427TIP3   OH222225   3.576   5.056   2.194
 7427TIP3    H122226   3.636   5.030   2.264
 7427TIP3    H222227   3.630   5.109   2.135
 7428TIP3   OH222228   2.707   2.509   3.724
 7428TIP3    H122229   2.743   2.542   3.806
 7428TIP3    H222230   2.785   2.488   3.671
 7429TIP3   OH222231   1.668   2.973   5.498
 7429TIP3    H122232   1.702   3.051   5.453
 7429TIP3    H222233   1.643   3.005   5.585
 7430TIP3   OH222234   5.015   1.611   2.117
 7430TIP3    H122235   5.053   1.687   2.160
 7430TIP3    H222236   5.045   1.536   2.169
 7431TIP3   OH222237   5.644   7.566   2.213
 7431TIP3    H122238   5.667   7.641   2.159
 7431TIP3    H222239   5.591   7.510   2.156
 7432TIP3   OH222240   8.177   1.602   6.758
 7432TIP3    H122241   8.122   1.601   6.680
 7432TIP3    H222242   8.252   1.546   6.735
 7433TIP3   OH222243   5.633   2.241   3.438
 7433TIP3    H122244   5.561   2.222   3.378
 7433TIP3    H222245   5.600   2.215   3.524
 7434TIP3   OH222246   1.352   6.932   4.888
 7434TIP3    H122247   1.390   6.877   4.819
 7434TIP3    H222248   1.340   6.874   4.962
 7435TIP3   OH222249   2.635   5.540   5.448
 7435TIP3    H122250   2.567   5.490   5.404
 7435TIP3    H222251   2.715   5.488   5.437
 7436TIP3   OH222252   4.093   5.602   1.077
 7436TIP3    H122253   4.017   5.623   1.131
 7436TIP3    H222254   4.165   5.592   1.139
 7437TIP3   OH222255   4.053   4.998   6.092
 7437TIP3    H122256   4.129   4.995   6.149
 7437TIP3    H222257   4.040   5.091   6.074
 7438TIP3   OH222258   2.630   1.547   5.151
 7438TIP3    H122259   2.603   1.615   5.212
 7438TIP3    H222260   2.554   1.489   5.145
 7439TIP3   OH222261   3.621   0.038   0.501
 7439TIP3    H122262   3.608   0.048   0.596
 7439TIP3    H222263   3.681  -0.036   0.493
 7440TIP3   OH222264   4.112   7.367   6.192
 7440TIP3    H122265   4.131   7.393   6.102
 7440TIP3    H222266   4.175   7.297   6.211
 7441TIP3   OH222267   3.343   5.402   3.490
 7441TIP3    H122268   3.431   5.424   3.520
 7441TIP3    H222269   3.355   5.376   3.398
 7442TIP3   OH222270   1.518   1.330   3.409
 7442TIP3    H122271   1.463   1.295   3.479
 7442TIP3    H222272   1.550   1.413   3.442
 7443TIP3   OH222273   0.047   5.614   3.619
 7443TIP3    H122274  -0.015   5.546   3.594
 7443TIP3    H222275   0.088   5.641   3.537
 7444TIP3   OH222276   2.725   4.132   4.110
 7444TIP3    H122277   2.746   4.093   4.194
 7444TIP3    H222278   2.781   4.209   4.104
 7445TIP3   OH222279   6.102   0.363   2.198
 7445TIP3    H122280   6.120   0.417   2.122
 7445TIP3    H222281   6.054   0.420   2.258
 7446TIP3   OH222282   6.744   2.410   3.316
 7446TIP3    H122283   6.672   2.347   3.305
 7446TIP3    H222284   6.823   2.359   3.297
 7447TIP3   OH222285   0.831   5.002   3.810
 7447TIP3    H122286   0.757   4.942   3.807
 7447TIP3    H222287   0.894   4.965   3.747
 7448TIP3   OH222288   7.003   7.001   2.807
 7448TIP3    H122289   7.029   6.909   2.798
 7448TIP3    H222290   6.949   7.003   2.886
 7449TIP3   OH222291   0.164   3.105   6.690
 7449TIP3    H122292   0.176   3.147   6.776
 7449TIP3    H222293   0.251   3.073   6.667
 7450TIP3   OH222294   2.379   7.379   5.208
 7450TIP3    H122295   2.352   7.418   5.125
 7450TIP3    H222296   2.392   7.286   5.188
 7451TIP3   OH222297   7.420   0.409   5.909
 7451TIP3    H122298   7.394   0.391   5.999
 7451TIP3    H222299   7.507   0.447   5.916
 7452TIP3   OH222300   0.269   2.799   1.668
 7452TIP3    H122301   0.347   2.846   1.697
 7452TIP3    H222302   0.213   2.795   1.745
 7453TIP3   OH222303   0.323   6.563   4.955
 7453TIP3    H122304   0.397   6.619   4.976
 7453TIP3    H222305   0.286   6.600   4.875
 7454TIP3   OH222306   6.976   2.231   2.541
 7454TIP3    H122307   6.917   2.158   2.558
 7454TIP3    H222308   6.946   2.266   2.457
 7455TIP3   OH222309   7.132   1.183   2.395
 7455TIP3    H122310   7.190   1.259   2.402
 7455TIP3    H222311   7.188   1.113   2.363
 7456TIP3   OH222312   0.596   0.678   5.690
 7456TIP3    H122313   0.615   0.608   5.752
 7456TIP3    H222314   0.512   0.713   5.718
 7457TIP3   OH222315   6.640   3.401   5.690
 7457TIP3    H122316   6.599   3.388   5.604
 7457TIP3    H222317   6.649   3.496   5.697
 7458TIP3   OH222318   2.742   1.914   1.723
 7458TIP3    H122319   2.665   1.949   1.767
 7458TIP3    H222320   2.806   1.903   1.793
 7459TIP3   OH222321   7.531   4.303   3.199
 7459TIP3    H122322   7.523   4.239   3.270
 7459TIP3    H222323   7.455   4.361   3.210
 7460TIP3   OH222324   5.213   1.031   2.971
 7460TIP3    H122325   5.256   1.116   2.986
 7460TIP3    H222326   5.124   1.044   3.004
 7461TIP3   OH222327   1.285   2.781   1.330
 7461TIP3    H122328   1.216   2.843   1.309
 7461TIP3    H222329   1.238   2.703   1.362
 7462TIP3   OH222330   3.452   5.222   5.959
 7462TIP3    H122331   3.464   5.252   5.869
 7462TIP3    H222332   3.539   5.194   5.987
 7463TIP3   OH222333   4.704   2.265   2.561
 7463TIP3    H122334   4.629   2.268   2.620
 7463TIP3    H222335   4.707   2.351   2.521
 7464TIP3   OH222336   5.902   1.878   6.367
 7464TIP3    H122337   5.946   1.937   6.307
 7464TIP3    H222338   5.969   1.813   6.390
 7465TIP3   OH222339   2.357   1.092   3.081
 7465TIP3    H122340   2.325   1.063   3.166
 7465TIP3    H222341   2.279   1.093   3.025
 7466TIP3   OH222342   3.363   6.182   4.709
 7466TIP3    H122343   3.378   6.162   4.616
 7466TIP3    H222344   3.443   6.225   4.738
 7467TIP3   OH222345   1.257   0.342   3.308
 7467TIP3    H122346   1.251   0.419   3.252
 7467TIP3    H222347   1.182   0.349   3.367
 7468TIP3   OH222348   5.065   7.727   1.724
 7468TIP3    H122349   5.119   7.798   1.758
 7468TIP3    H222350   5.071   7.734   1.629
 7469TIP3   OH222351   5.516   2.392   0.583
 7469TIP3    H122352   5.444   2.386   0.647
 7469TIP3    H222353   5.473   2.382   0.498
 7470TIP3   OH222354   3.399   6.413   1.396
 7470TIP3    H122355   3.337   6.364   1.342
 7470TIP3    H222356   3.357   6.499   1.408
 7471TIP3   OH222357   1.558   6.177   4.952
 7471TIP3    H122358   1.631   6.147   4.897
 7471TIP3    H222359   1.501   6.100   4.959
 7472TIP3   OH222360   7.320   7.287   3.427
 7472TIP3    H122361   7.260   7.213   3.438
 7472TIP3    H222362   7.385   7.256   3.364
 7473TIP3   OH222363   5.045   7.165  -0.011
 7473TIP3    H122364   5.034   7.234   0.055
 7473TIP3    H222365   4.964   7.167  -0.061
 7474TIP3   OH222366   2.765   2.397   5.766
 7474TIP3    H122367   2.758   2.345   5.847
 7474TIP3    H222368   2.685   2.377   5.718
 7475TIP3   OH222369   5.139   4.567   2.314
 7475TIP3    H122370   5.068   4.601   2.260
 7475TIP3    H222371   5.163   4.640   2.371
 7476TIP3   OH222372   0.550   7.169   3.040
 7476TIP3    H122373   0.548   7.252   2.991
 7476TIP3    H222374   0.565   7.102   2.973
 7477TIP3   OH222375   5.261   2.326   6.020
 7477TIP3    H122376   5.283   2.368   5.936
 7477TIP3    H222377   5.264   2.398   6.084
 7478TIP3   OH222378   7.200   3.315   6.156
 7478TIP3    H122379   7.272   3.378   6.162
 7478TIP3    H222380   7.235   3.242   6.106
 7479TIP3   OH222381   8.019   1.952   5.577
 7479TIP3    H122382   7.982   2.039   5.562
 7479TIP3    H222383   7.948   1.892   5.559
 7480TIP3   OH222384   1.828   4.562   3.962
 7480TIP3    H122385   1.750   4.593   3.915
 7480TIP3    H222386   1.873   4.642   3.988
 7481TIP3   OH222387   6.889   3.556   5.736
 7481TIP3    H122388   6.899   3.508   5.818
 7481TIP3    H222389   6.979   3.569   5.705
 7482TIP3   OH222390   2.550   5.259   4.434
 7482TIP3    H122391   2.498   5.278   4.512
 7482TIP3    H222392   2.570   5.345   4.397
 7483TIP3   OH222393   4.281   4.201   3.686
 7483TIP3    H122394   4.300   4.289   3.654
 7483TIP3    H222395   4.367   4.165   3.710
 7484TIP3   OH222396   2.894   6.780   0.778
 7484TIP3    H122397   2.956   6.773   0.850
 7484TIP3    H222398   2.927   6.718   0.712
 7485TIP3   OH222399   6.235   4.561   6.200
 7485TIP3    H122400   6.226   4.528   6.289
 7485TIP3    H222401   6.150   4.598   6.178
 7486TIP3   OH222402   3.863   0.955   6.073
 7486TIP3    H122403   3.894   1.002   5.995
 7486TIP3    H222404   3.833   1.023   6.132
 7487TIP3   OH222405   0.481   5.936   2.477
 7487TIP3    H122406   0.436   5.929   2.392
 7487TIP3    H222407   0.440   5.869   2.531
 7488TIP3   OH222408   5.825   0.481   1.967
 7488TIP3    H122409   5.896   0.541   1.948
 7488TIP3    H222410   5.825   0.420   1.893
 7489TIP3   OH222411   1.407   7.811   5.479
 7489TIP3    H122412   1.498   7.783   5.480
 7489TIP3    H222413   1.373   7.786   5.564
 7490TIP3   OH222414   2.046   5.433   6.692
 7490TIP3    H122415   2.111   5.459   6.756
 7490TIP3    H222416   2.031   5.340   6.709
 7491TIP3   OH222417   7.559   5.218   5.713
 7491TIP3    H122418   7.525   5.297   5.672
 7491TIP3    H222419   7.496   5.197   5.782
 7492TIP3   OH222420   4.300   5.984   3.093
 7492TIP3    H122421   4.207   5.987   3.115
 7492TIP3    H222422   4.303   5.937   3.009
 7493TIP3   OH222423   1.226   2.654   3.178
 7493TIP3    H122424   1.186   2.713   3.114
 7493TIP3    H222425   1.183   2.675   3.260
 7494TIP3   OH222426   4.681   6.850   5.807
 7494TIP3    H122427   4.654   6.767   5.768
 7494TIP3    H222428   4.775   6.857   5.787
 7495TIP3   OH222429   7.613   3.626   2.623
 7495TIP3    H122430   7.586   3.551   2.675
 7495TIP3    H222431   7.613   3.595   2.533
 7496TIP3   OH222432   4.270   3.775   5.309
 7496TIP3    H122433   4.312   3.805   5.229
 7496TIP3    H222434   4.199   3.718   5.280
 7497TIP3   OH222435   4.830   3.882   2.188
 7497TIP3    H122436   4.773   3.895   2.263
 7497TIP3    H222437   4.916   3.867   2.225
 7498TIP3   OH222438   1.979   4.850   0.623
 7498TIP3    H122439   1.922   4.861   0.698
 7498TIP3    H222440   1.939   4.779   0.572
 7499TIP3   OH222441   8.335   5.183   0.057
 7499TIP3    H122442   8.345   5.153   0.148
 7499TIP3    H222443   8.240   5.188   0.045
 7500TIP3   OH222444   4.449   2.076   5.191
 7500TIP3    H122445   4.370   2.129   5.199
 7500TIP3    H222446   4.445   2.016   5.265
 7501TIP3   OH222447   0.088   5.658   2.269
 7501TIP3    H122448   0.147   5.733   2.273
 7501TIP3    H222449   0.114   5.603   2.343
 7502TIP3   OH222450   6.991   5.997   5.072
 7502TIP3    H122451   6.959   6.068   5.127
 7502TIP3    H222452   6.960   5.917   5.114
 7503TIP3   OH222453   3.109   5.507   2.431
 7503TIP3    H122454   3.169   5.511   2.357
 7503TIP3    H222455   3.102   5.414   2.452
 7504TIP3   OH222456   4.345   4.972   1.819
 7504TIP3    H122457   4.406   5.021   1.874
 7504TIP3    H222458   4.281   5.037   1.790
 7505TIP3   OH222459   1.006   0.630   2.272
 7505TIP3    H122460   0.993   0.702   2.334
 7505TIP3    H222461   0.939   0.566   2.294
 7506TIP3   OH222462   5.239   0.449   4.330
 7506TIP3    H122463   5.301   0.401   4.384
 7506TIP3    H222464   5.251   0.414   4.241
 7507TIP3   OH222465   4.573   5.381   0.029
 7507TIP3    H122466   4.574   5.418   0.117
 7507TIP3    H222467   4.513   5.436  -0.020
 7508TIP3   OH222468   1.465   4.169   4.707
 7508TIP3    H122469   1.382   4.190   4.665
 7508TIP3    H222470   1.490   4.085   4.668
 7509TIP3   OH222471   0.082   5.031   6.008
 7509TIP3    H122472   0.093   4.961   6.073
 7509TIP3    H222473  -0.009   5.059   6.018
 7510TIP3   OH222474   2.457   7.486   2.271
 7510TIP3    H122475   2.499   7.521   2.349
 7510TIP3    H222476   2.523   7.431   2.230
 7511TIP3   OH222477   7.620   7.618   1.840
 7511TIP3    H122478   7.631   7.628   1.935
 7511TIP3    H222479   7.525   7.619   1.828
 7512TIP3   OH222480   0.383   1.849   4.562
 7512TIP3    H122481   0.306   1.874   4.614
 7512TIP3    H222482   0.406   1.762   4.594
 7513TIP3   OH222483   7.087   1.453   0.197
 7513TIP3    H122484   7.072   1.364   0.229
 7513TIP3    H222485   7.021   1.464   0.128
 7514TIP3   OH222486   0.879   1.400   2.820
 7514TIP3    H122487   0.810   1.336   2.805
 7514TIP3    H222488   0.872   1.461   2.747
 7515TIP3   OH222489   7.016   0.152   3.456
 7515TIP3    H122490   7.075   0.112   3.393
 7515TIP3    H222491   7.065   0.153   3.538
 7516TIP3   OH222492   8.150   0.026   2.637
 7516TIP3    H122493   8.204  -0.021   2.574
 7516TIP3    H222494   8.069   0.046   2.589
 7517TIP3   OH222495   6.930   3.943   5.751
 7517TIP3    H122496   7.000   3.880   5.766
 7517TIP3    H222497   6.879   3.942   5.832
 7518TIP3   OH222498   0.703   5.596   6.227
 7518TIP3    H122499   0.660   5.513   6.245
 7518TIP3    H222500   0.646   5.638   6.162
 7519TIP3   OH222501   3.542   3.095   5.433
 7519TIP3    H122502   3.503   3.182   5.426
 7519TIP3    H222503   3.589   3.096   5.516
 7520TIP3   OH222504   0.633   5.080   6.137
 7520TIP3    H122505   0.572   5.046   6.071
 7520TIP3    H222506   0.666   5.003   6.183
 7521TIP3   OH222507   7.121   1.185   0.276
 7521TIP3    H122508   7.170   1.158   0.353
 7521TIP3    H222509   7.072   1.107   0.250
 7522TIP3   OH222510   1.902   4.105   1.914
 7522TIP3    H122511   1.897   4.200   1.915
 7522TIP3    H222512   1.811   4.076   1.921
 7523TIP3   OH222513   4.557   3.388   0.216
 7523TIP3    H122514   4.603   3.320   0.166
 7523TIP3    H222515   4.475   3.345   0.243
 7524TIP3   OH222516   7.242   4.436   2.725
 7524TIP3    H122517   7.241   4.473   2.637
 7524TIP3    H222518   7.309   4.368   2.723
 7525TIP3   OH222519   4.102   2.523   2.164
 7525TIP3    H122520   4.135   2.526   2.074
 7525TIP3    H222521   4.035   2.591   2.167
 7526TIP3   OH222522   1.647   7.020   2.536
 7526TIP3    H122523   1.592   7.009   2.458
 7526TIP3    H222524   1.725   6.968   2.517
 7527TIP3   OH222525   0.521   2.212   1.797
 7527TIP3    H122526   0.531   2.269   1.873
 7527TIP3    H222527   0.442   2.161   1.815
 7528TIP3   OH222528   3.776   0.170   6.439
 7528TIP3    H122529   3.689   0.207   6.422
 7528TIP3    H222530   3.798   0.122   6.359
 7529TIP3   OH222531   1.844   2.679   4.872
 7529TIP3    H122532   1.810   2.684   4.961
 7529TIP3    H222533   1.891   2.595   4.869
 7530TIP3   OH222534   7.669   5.176   2.812
 7530TIP3    H122535   7.760   5.204   2.800
 7530TIP3    H222536   7.626   5.199   2.729
 7531TIP3   OH222537   0.400   5.003   1.382
 7531TIP3    H122538   0.409   4.977   1.290
 7531TIP3    H222539   0.358   5.089   1.379
 7532TIP3   OH222540   7.599   7.171   1.742
 7532TIP3    H122541   7.554   7.193   1.824
 7532TIP3    H222542   7.690   7.193   1.757
 7533TIP3   OH222543   6.032   7.767   2.997
 7533TIP3    H122544   6.073   7.764   2.911
 7533TIP3    H222545   5.981   7.848   2.996
 7534TIP3   OH222546   5.746   5.617   5.995
 7534TIP3    H122547   5.704   5.607   6.080
 7534TIP3    H222548   5.682   5.586   5.932
 7535TIP3   OH222549   6.433   7.785   5.139
 7535TIP3    H122550   6.430   7.755   5.048
 7535TIP3    H222551   6.483   7.718   5.185
 7536TIP3   OH222552   5.686   0.614   0.073
 7536TIP3    H122553   5.617   0.643   0.132
 7536TIP3    H222554   5.747   0.565   0.130
 7537TIP3   OH222555   6.656   3.026   5.089
 7537TIP3    H122556   6.702   2.965   5.147
 7537TIP3    H222557   6.576   2.980   5.065
 7538TIP3   OH222558   5.218   4.255   3.597
 7538TIP3    H122559   5.200   4.162   3.591
 7538TIP3    H222560   5.133   4.297   3.583
 7539TIP3   OH222561   0.298   0.421   1.497
 7539TIP3    H122562   0.366   0.440   1.433
 7539TIP3    H222563   0.218   0.457   1.458
 7540TIP3   OH222564   7.446   0.742   2.406
 7540TIP3    H122565   7.430   0.650   2.384
 7540TIP3    H222566   7.541   0.751   2.405
 7541TIP3   OH222567   2.472   1.817   2.729
 7541TIP3    H122568   2.529   1.752   2.770
 7541TIP3    H222569   2.388   1.773   2.720
 7542TIP3   OH222570   3.393   7.154   2.346
 7542TIP3    H122571   3.330   7.209   2.299
 7542TIP3    H222572   3.479   7.187   2.319
 7543TIP3   OH222573   1.974   2.787   4.627
 7543TIP3    H122574   1.987   2.750   4.714
 7543TIP3    H222575   2.039   2.744   4.572
 7544TIP3   OH222576   4.047   2.838   2.414
 7544TIP3    H122577   3.987   2.805   2.481
 7544TIP3    H222578   4.032   2.781   2.339
 7545TIP3   OH222579   6.856   4.398   2.110
 7545TIP3    H122580   6.828   4.413   2.020
 7545TIP3    H222581   6.846   4.484   2.153
 7546TIP3   OH222582   1.475   0.011   0.026
 7546TIP3    H122583   1.545  -0.044   0.061
 7546TIP3    H222584   1.501   0.028  -0.065
 7547TIP3   OH222585   0.434   7.106   0.717
 7547TIP3    H122586   0.340   7.128   0.712
 7547TIP3    H222587   0.452   7.060   0.635
 7548TIP3   OH222588   1.805   2.780   2.057
 7548TIP3    H122589   1.717   2.767   2.092
 7548TIP3    H222590   1.852   2.826   2.127
 7549TIP3   OH222591   5.679   3.012   5.277
 7549TIP3    H122592   5.592   2.984   5.252
 7549TIP3    H222593   5.674   3.108   5.281
 7550TIP3   OH222594   7.563   2.046   5.369
 7550TIP3    H122595   7.492   1.995   5.331
 7550TIP3    H222596   7.635   1.983   5.378
 7551TIP3   OH222597   4.549   7.534   0.035
 7551TIP3    H122598   4.551   7.609  -0.025
 7551TIP3    H222599   4.485   7.559   0.102
 7552TIP3   OH222600   0.933   1.900   3.919
 7552TIP3    H122601   0.870   1.972   3.923
 7552TIP3    H222602   0.901   1.837   3.983
 7553TIP3   OH222603   1.981   5.156   2.827
 7553TIP3    H122604   1.926   5.096   2.878
 7553TIP3    H222605   1.920   5.223   2.796
 7554TIP3   OH222606   4.423   1.581   3.034
 7554TIP3    H122607   4.413   1.511   2.969
 7554TIP3    H222608   4.371   1.551   3.109
 7555TIP3   OH222609   2.814   7.349   6.141
 7555TIP3    H122610   2.801   7.414   6.211
 7555TIP3    H222611   2.804   7.399   6.060
 7556TIP3   OH222612   7.741   0.224   4.866
 7556TIP3    H122613   7.829   0.247   4.897
 7556TIP3    H222614   7.756   0.163   4.794
 7557TIP3   OH222615   7.697   6.071   1.913
 7557TIP3    H122616   7.603   6.057   1.901
 7557TIP3    H222617   7.713   6.046   2.004
 7558TIP3   OH222618   2.362   6.002   5.147
 7558TIP3    H122619   2.340   6.027   5.236
 7558TIP3    H222620   2.385   5.909   5.153
 7559TIP3   OH222621   1.078   1.931   3.396
 7559TIP3    H122622   1.032   1.910   3.477
 7559TIP3    H222623   1.061   1.857   3.338
 7560TIP3   OH222624   2.739   2.388   5.135
 7560TIP3    H122625   2.738   2.294   5.157
 7560TIP3    H222626   2.720   2.432   5.217
 7561TIP3   OH222627   6.810   3.936   6.336
 7561TIP3    H122628   6.825   4.019   6.291
 7561TIP3    H222629   6.717   3.938   6.359
 7562TIP3   OH222630   1.192   4.713   2.387
 7562TIP3    H122631   1.251   4.740   2.316
 7562TIP3    H222632   1.242   4.647   2.435
 7563TIP3   OH222633   2.950   7.358   5.847
 7563TIP3    H122634   3.014   7.366   5.776
 7563TIP3    H222635   2.980   7.421   5.913
 7564TIP3   OH222636   1.855   5.575   1.094
 7564TIP3    H122637   1.878   5.656   1.048
 7564TIP3    H222638   1.894   5.585   1.180
 7565TIP3   OH222639   7.186   7.079   5.184
 7565TIP3    H122640   7.271   7.099   5.223
 7565TIP3    H222641   7.123   7.095   5.255
 7566TIP3   OH222642   2.815   2.001   2.939
 7566TIP3    H122643   2.748   2.068   2.956
 7566TIP3    H222644   2.783   1.955   2.862
 7567TIP3   OH222645   0.861   6.293   3.933
 7567TIP3    H122646   0.859   6.235   3.857
 7567TIP3    H222647   0.940   6.268   3.981
 7568TIP3   OH222648   4.871   4.934   3.629
 7568TIP3    H122649   4.851   4.910   3.719
 7568TIP3    H222650   4.966   4.944   3.627
 7569TIP3   OH222651   3.943   1.972   4.233
 7569TIP3    H122652   3.992   1.927   4.302
 7569TIP3    H222653   3.855   1.983   4.269
 7570TIP3   OH222654   2.651   5.223   5.579
 7570TIP3    H122655   2.647   5.164   5.504
 7570TIP3    H222656   2.738   5.263   5.573
 7571TIP3   OH222657   5.825   5.442   3.235
 7571TIP3    H122658   5.882   5.374   3.199
 7571TIP3    H222659   5.885   5.506   3.274
 7572TIP3   OH222660   3.071   0.693   4.250
 7572TIP3    H122661   3.012   0.762   4.217
 7572TIP3    H222662   3.015   0.638   4.305
 7573TIP3   OH222663   1.675   4.578   1.630
 7573TIP3    H122664   1.768   4.555   1.636
 7573TIP3    H222665   1.656   4.622   1.713
 7574TIP3   OH222666   4.898   5.450   5.168
 7574TIP3    H122667   4.809   5.430   5.138
 7574TIP3    H222668   4.940   5.364   5.175
 7575TIP3   OH222669   2.261   7.769   6.039
 7575TIP3    H122670   2.355   7.752   6.050
 7575TIP3    H222671   2.255   7.864   6.026
 7576TIP3   OH222672   0.977   2.864   2.477
 7576TIP3    H122673   0.989   2.896   2.567
 7576TIP3    H222674   0.921   2.930   2.436
 7577TIP3   OH222675   1.115   0.793   1.602
 7577TIP3    H122676   1.044   0.838   1.556
 7577TIP3    H222677   1.080   0.706   1.621
 7578TIP3   OH222678   3.287   4.132   0.896
 7578TIP3    H122679   3.206   4.181   0.884
 7578TIP3    H222680   3.259   4.040   0.901
 7579TIP3   OH222681   4.074   1.200   2.583
 7579TIP3    H122682   4.089   1.126   2.642
 7579TIP3    H222683   4.162   1.228   2.558
 7580TIP3   OH222684   5.176   4.431   6.630
 7580TIP3    H122685   5.158   4.518   6.594
 7580TIP3    H222686   5.158   4.439   6.723
 7581TIP3   OH222687   4.751   3.486   0.966
 7581TIP3    H122688   4.696   3.415   0.999
 7581TIP3    H222689   4.811   3.506   1.038
 7582TIP3   OH222690   7.053   5.904   6.218
 7582TIP3    H122691   7.115   5.873   6.284
 7582TIP3    H222692   7.106   5.914   6.139
 7583TIP3   OH222693   5.568   0.249   6.165
 7583TIP3    H122694   5.645   0.225   6.113
 7583TIP3    H222695   5.495   0.206   6.120
 7584TIP3   OH222696   7.665   3.774   3.873
 7584TIP3    H122697   7.573   3.763   3.848
 7584TIP3    H222698   7.674   3.867   3.892
 7585TIP3   OH222699   3.674   2.557   4.061
 7585TIP3    H122700   3.681   2.495   4.133
 7585TIP3    H222701   3.756   2.549   4.013
 7586TIP3   OH222702   0.558   3.576   3.881
 7586TIP3    H122703   0.654   3.579   3.886
 7586TIP3    H222704   0.529   3.612   3.965
 7587TIP3   OH222705   2.406   5.337   0.716
 7587TIP3    H122706   2.439   5.286   0.642
 7587TIP3    H222707   2.362   5.412   0.677
 7588TIP3   OH222708   1.424   2.583   5.474
 7588TIP3    H122709   1.386   2.596   5.387
 7588TIP3    H222710   1.383   2.652   5.528
 7589TIP3   OH222711   0.143   2.575   0.325
 7589TIP3    H122712   0.170   2.569   0.416
 7589TIP3    H222713   0.064   2.629   0.326
 7590TIP3   OH222714   5.848   3.021   4.387
 7590TIP3    H122715   5.850   3.115   4.370
 7590TIP3    H222716   5.925   2.987   4.341
 7591TIP3   OH222717   8.174   4.348   1.979
 7591TIP3    H122718   8.111   4.383   2.043
 7591TIP3    H222719   8.191   4.422   1.920
 7592TIP3   OH222720   0.510   0.026   6.398
 7592TIP3    H122721   0.437  -0.014   6.446
 7592TIP3    H222722   0.539  -0.042   6.338
 7593TIP3   OH222723   1.217   7.371   0.933
 7593TIP3    H122724   1.140   7.327   0.968
 7593TIP3    H222725   1.186   7.457   0.905
 7594TIP3   OH222726   2.414   5.793   3.523
 7594TIP3    H122727   2.486   5.747   3.566
 7594TIP3    H222728   2.454   5.873   3.489
 7595TIP3   OH222729   3.545   2.013   2.977
 7595TIP3    H122730   3.588   2.095   3.004
 7595TIP3    H222731   3.462   2.041   2.939
 7596TIP3   OH222732   5.438   1.973   2.905
 7596TIP3    H122733   5.411   1.915   2.833
 7596TIP3    H222734   5.356   2.014   2.934
 7597TIP3   OH222735   4.275   7.391   3.628
 7597TIP3    H122736   4.304   7.390   3.719
 7597TIP3    H222737   4.314   7.313   3.589
 7598TIP3   OH222738   3.121   3.048   2.660
 7598TIP3    H122739   3.216   3.041   2.645
 7598TIP3    H222740   3.113   3.109   2.733
 7599TIP3   OH222741   2.210   0.021   4.732
 7599TIP3    H122742   2.178   0.061   4.813
 7599TIP3    H222743   2.296   0.062   4.718
 7600TIP3   OH222744   0.010   1.306   3.912
 7600TIP3    H122745  -0.034   1.245   3.971
 7600TIP3    H222746   0.043   1.251   3.841
 7601TIP3   OH222747   1.837   3.404   2.804
 7601TIP3    H122748   1.826   3.404   2.899
 7601TIP3    H222749   1.874   3.490   2.784
 7602TIP3   OH222750   6.266   4.034   2.411
 7602TIP3    H122751   6.231   3.975   2.343
 7602TIP3    H222752   6.193   4.046   2.471
 7603TIP3   OH222753   7.784   2.128   4.103
 7603TIP3    H122754   7.752   2.206   4.058
 7603TIP3    H222755   7.731   2.056   4.068
 7604TIP3   OH222756   2.389   0.172   2.686
 7604TIP3    H122757   2.395   0.084   2.647
 7604TIP3    H222758   2.427   0.230   2.620
 7605TIP3   OH222759   5.483   6.869   3.685
 7605TIP3    H122760   5.563   6.913   3.656
 7605TIP3    H222761   5.514   6.803   3.748
 7606TIP3   OH222762   2.755   7.243   2.559
 7606TIP3    H122763   2.770   7.207   2.647
 7606TIP3    H222764   2.842   7.269   2.529
 7607TIP3   OH222765   4.708   7.338   2.182
 7607TIP3    H122766   4.785   7.372   2.227
 7607TIP3    H222767   4.695   7.397   2.108
 7608TIP3   OH222768   0.828   2.705   5.310
 7608TIP3    H122769   0.791   2.700   5.398
 7608TIP3    H222770   0.768   2.655   5.256
 7609TIP3   OH222771   0.108   5.290   5.051
 7609TIP3    H122772   0.118   5.277   5.145
 7609TIP3    H222773   0.195   5.318   5.022
 7610TIP3   OH222774   4.523   4.030   4.889
 7610TIP3    H122775   4.522   4.125   4.877
 7610TIP3    H222776   4.536   3.995   4.801
 7611TIP3   OH222777   5.887   5.932   1.887
 7611TIP3    H122778   5.965   5.943   1.832
 7611TIP3    H222779   5.883   6.013   1.938
 7612TIP3   OH222780   2.527   0.266   4.911
 7612TIP3    H122781   2.485   0.209   4.846
 7612TIP3    H222782   2.553   0.207   4.982
 7613TIP3   OH222783   1.705   1.042   1.460
 7613TIP3    H122784   1.778   1.093   1.495
 7613TIP3    H222785   1.703   0.963   1.514
 7614TIP3   OH222786   5.777   0.309   5.539
 7614TIP3    H122787   5.727   0.384   5.573
 7614TIP3    H222788   5.828   0.346   5.467
 7615TIP3   OH222789   7.383   1.749   4.743
 7615TIP3    H122790   7.422   1.668   4.775
 7615TIP3    H222791   7.458   1.806   4.724
 7616TIP3   OH222792   1.227   0.312   2.111
 7616TIP3    H122793   1.164   0.383   2.102
 7616TIP3    H222794   1.284   0.321   2.035
 7617TIP3   OH222795   4.407   5.323   6.373
 7617TIP3    H122796   4.455   5.403   6.393
 7617TIP3    H222797   4.316   5.343   6.394
 7618TIP3   OH222798   0.379   4.320   1.697
 7618TIP3    H122799   0.460   4.272   1.709
 7618TIP3    H222800   0.391   4.401   1.748
 7619TIP3   OH222801   5.650   6.610   6.133
 7619TIP3    H122802   5.694   6.583   6.213
 7619TIP3    H222803   5.693   6.561   6.064
 7620TIP3   OH222804   3.246   2.332   0.803
 7620TIP3    H122805   3.331   2.290   0.801
 7620TIP3    H222806   3.192   2.281   0.742
 7621TIP3   OH222807   6.341   0.355   4.676
 7621TIP3    H122808   6.318   0.367   4.584
 7621TIP3    H222809   6.285   0.415   4.724
 7622TIP3   OH222810   2.648   5.876   4.911
 7622TIP3    H122811   2.699   5.837   4.982
 7622TIP3    H222812   2.679   5.831   4.832
 7623TIP3   OH222813   5.982   4.856   5.172
 7623TIP3    H122814   5.940   4.896   5.249
 7623TIP3    H222815   6.060   4.814   5.207
 7624TIP3   OH222816   8.006   5.635   4.508
 7624TIP3    H122817   8.087   5.608   4.464
 7624TIP3    H222818   8.002   5.579   4.586
 7625TIP3   OH222819   4.564   4.274   0.372
 7625TIP3    H122820   4.622   4.213   0.418
 7625TIP3    H222821   4.477   4.255   0.407
 7626TIP3   OH222822   4.664   2.149   3.960
 7626TIP3    H122823   4.595   2.210   3.935
 7626TIP3    H222824   4.619   2.081   4.010
 7627TIP3   OH222825   6.558   5.422   1.775
 7627TIP3    H122826   6.645   5.456   1.794
 7627TIP3    H222827   6.573   5.351   1.713
 7628TIP3   OH222828   2.314   2.078   2.035
 7628TIP3    H122829   2.322   2.166   1.998
 7628TIP3    H222830   2.295   2.093   2.127
 7629TIP3   OH222831   7.711   6.433   3.406
 7629TIP3    H122832   7.676   6.346   3.426
 7629TIP3    H222833   7.727   6.472   3.492
 7630TIP3   OH222834   4.266   7.087   5.708
 7630TIP3    H122835   4.250   7.076   5.614
 7630TIP3    H222836   4.358   7.061   5.720
 7631TIP3   OH222837   1.013   7.735   5.563
 7631TIP3    H122838   1.002   7.828   5.546
 7631TIP3    H222839   1.075   7.731   5.635
 7632TIP3   OH222840   6.299   7.027   2.949
 7632TIP3    H122841   6.369   7.051   2.888
 7632TIP3    H222842   6.249   7.108   2.960
 7633TIP3   OH222843   3.614   6.709   1.932
 7633TIP3    H122844   3.549   6.730   1.999
 7633TIP3    H222845   3.591   6.621   1.904
 7634TIP3   OH222846   5.813   1.333   2.095
 7634TIP3    H122847   5.882   1.286   2.142
 7634TIP3    H222848   5.750   1.265   2.070
 7635TIP3   OH222849   2.227   2.567   2.552
 7635TIP3    H122850   2.147   2.603   2.512
 7635TIP3    H222851   2.282   2.544   2.478
 7636TIP3   OH222852   7.065   5.815   4.666
 7636TIP3    H122853   7.126   5.790   4.735
 7636TIP3    H222854   7.099   5.773   4.587
 7637TIP3   OH222855   6.859   0.110   3.862
 7637TIP3    H122856   6.783   0.150   3.905
 7637TIP3    H222857   6.849   0.016   3.879
 7638TIP3   OH222858   5.120   0.698   5.528
 7638TIP3    H122859   5.138   0.778   5.478
 7638TIP3    H222860   5.032   0.671   5.499
 7639TIP3   OH222861   4.615   3.547   3.904
 7639TIP3    H122862   4.663   3.623   3.870
 7639TIP3    H222863   4.585   3.501   3.826
 7640TIP3   OH222864   2.799   3.653   6.100
 7640TIP3    H122865   2.746   3.706   6.041
 7640TIP3    H222866   2.832   3.714   6.166
 7641TIP3   OH222867   2.687   7.678   3.696
 7641TIP3    H122868   2.661   7.633   3.615
 7641TIP3    H222869   2.676   7.612   3.764
 7642TIP3   OH222870   6.883   2.466   2.928
 7642TIP3    H122871   6.965   2.516   2.924
 7642TIP3    H222872   6.817   2.530   2.954
 7643TIP3   OH222873   0.358   2.378   4.848
 7643TIP3    H122874   0.398   2.342   4.927
 7643TIP3    H222875   0.328   2.465   4.874
 7644TIP3   OH222876   7.477   3.387   2.671
 7644TIP3    H122877   7.383   3.399   2.659
 7644TIP3    H222878   7.485   3.333   2.750
 7645TIP3   OH222879   0.111   4.620   3.172
 7645TIP3    H122880   0.067   4.649   3.252
 7645TIP3    H222881   0.094   4.526   3.169
 7646TIP3   OH222882   3.723   2.078   1.401
 7646TIP3    H122883   3.631   2.086   1.424
 7646TIP3    H222884   3.744   1.986   1.417
 7647TIP3   OH222885   5.836   6.156   1.157
 7647TIP3    H122886   5.846   6.250   1.144
 7647TIP3    H222887   5.860   6.141   1.248
 7648TIP3   OH222888   5.581   1.543   0.999
 7648TIP3    H122889   5.628   1.461   1.015
 7648TIP3    H222890   5.599   1.597   1.076
 7649TIP3   OH222891   2.299   5.688   2.858
 7649TIP3    H122892   2.277   5.779   2.839
 7649TIP3    H222893   2.388   5.677   2.824
 7650TIP3   OH222894   5.955   0.739   2.523
 7650TIP3    H122895   5.861   0.761   2.528
 7650TIP3    H222896   5.998   0.812   2.568
 7651TIP3   OH222897   5.195   1.186   5.409
 7651TIP3    H122898   5.234   1.192   5.322
 7651TIP3    H222899   5.191   1.277   5.439
 7652TIP3   OH222900   4.294   0.726   6.247
 7652TIP3    H122901   4.376   0.718   6.199
 7652TIP3    H222902   4.306   0.669   6.323
 7653TIP3   OH222903   6.906   7.522   1.912
 7653TIP3    H122904   6.840   7.588   1.890
 7653TIP3    H222905   6.898   7.512   2.007
 7654TIP3   OH222906   3.052   1.046   0.126
 7654TIP3    H122907   3.076   1.006   0.043
 7654TIP3    H222908   2.962   1.017   0.141
 7655TIP3   OH222909   0.708   5.847   3.700
 7655TIP3    H122910   0.780   5.789   3.677
 7655TIP3    H222911   0.733   5.885   3.784
 7656TIP3   OH222912   7.804   3.674   0.036
 7656TIP3    H122913   7.721   3.676   0.085
 7656TIP3    H222914   7.780   3.638  -0.049
 7657TIP3   OH222915   4.310   7.189   6.105
 7657TIP3    H122916   4.388   7.238   6.079
 7657TIP3    H222917   4.328   7.099   6.079
 7658TIP3   OH222918   0.028   6.332   5.627
 7658TIP3    H122919   0.086   6.377   5.565
 7658TIP3    H222920  -0.048   6.389   5.633
 7659TIP3   OH222921   1.832   2.480   0.920
 7659TIP3    H122922   1.843   2.530   0.839
 7659TIP3    H222923   1.872   2.395   0.901
 7660TIP3   OH222924   0.032   7.228   5.413
 7660TIP3    H122925   0.050   7.193   5.326
 7660TIP3    H222926   0.083   7.173   5.473
 7661TIP3   OH222927   7.516   1.119   4.472
 7661TIP3    H122928   7.544   1.158   4.555
 7661TIP3    H222929   7.421   1.124   4.474
 7662TIP3   OH222930   5.208   7.470   2.667
 7662TIP3    H122931   5.190   7.401   2.732
 7662TIP3    H222932   5.238   7.545   2.718
 7663TIP3   OH222933   4.834   5.743   2.852
 7663TIP3    H122934   4.800   5.655   2.835
 7663TIP3    H222935   4.916   5.728   2.900
 7664TIP3   OH222936   0.047   2.543   5.029
 7664TIP3    H122937   0.119   2.557   4.967
 7664TIP3    H222938   0.005   2.629   5.036
 7665TIP3   OH222939   2.266   6.268   0.478
 7665TIP3    H122940   2.271   6.362   0.460
 7665TIP3    H222941   2.280   6.261   0.572
 7666TIP3   OH222942   7.448   2.808   2.648
 7666TIP3    H122943   7.453   2.785   2.556
 7666TIP3    H222944   7.538   2.827   2.674
 7667TIP3   OH222945   7.269   2.888   3.237
 7667TIP3    H122946   7.352   2.871   3.283
 7667TIP3    H222947   7.208   2.913   3.307
 7668TIP3   OH222948   2.273  -0.004   1.762
 7668TIP3    H122949   2.233   0.082   1.750
 7668TIP3    H222950   2.199  -0.065   1.760
 7669TIP3   OH222951   7.115   6.834   5.793
 7669TIP3    H122952   7.201   6.859   5.760
 7669TIP3    H222953   7.117   6.857   5.886
 7670TIP3   OH222954   3.412   0.501   2.937
 7670TIP3    H122955   3.349   0.489   2.866
 7670TIP3    H222956   3.420   0.596   2.947
 7671TIP3   OH222957   0.042   5.789   4.328
 7671TIP3    H122958   0.118   5.731   4.328
 7671TIP3    H222959   0.014   5.791   4.237
 7672TIP3   OH222960   1.927   0.042   0.539
 7672TIP3    H122961   1.993   0.019   0.474
 7672TIP3    H222962   1.977   0.067   0.616
 7673TIP3   OH222963   6.062   5.723   5.586
 7673TIP3    H122964   6.030   5.633   5.583
 7673TIP3    H222965   6.111   5.728   5.668
 7674TIP3   OH222966   5.961   5.586   3.765
 7674TIP3    H122967   6.035   5.586   3.826
 7674TIP3    H222968   5.896   5.529   3.806
 7675TIP3   OH222969   3.667   5.569   2.860
 7675TIP3    H122970   3.670   5.508   2.786
 7675TIP3    H222971   3.574   5.589   2.870
 7676TIP3   OH222972   6.851   1.256   6.664
 7676TIP3    H122973   6.922   1.283   6.722
 7676TIP3    H222974   6.873   1.298   6.580
 7677TIP3   OH222975   2.040   2.676   1.360
 7677TIP3    H122976   2.130   2.674   1.393
 7677TIP3    H222977   2.049   2.652   1.268
 7678TIP3   OH222978   7.954   7.371   4.782
 7678TIP3    H122979   7.977   7.313   4.854
 7678TIP3    H222980   7.985   7.457   4.810
 7679TIP3   OH222981   1.670   5.377   0.286
 7679TIP3    H122982   1.723   5.354   0.210
 7679TIP3    H222983   1.598   5.429   0.251
 7680TIP3   OH222984   3.952   1.964   3.773
 7680TIP3    H122985   4.024   1.961   3.710
 7680TIP3    H222986   3.960   1.884   3.824
 7681TIP3   OH222987   8.159   3.582   5.887
 7681TIP3    H122988   8.240   3.539   5.916
 7681TIP3    H222989   8.151   3.659   5.942
 7682TIP3   OH222990   4.834   1.306   2.339
 7682TIP3    H122991   4.893   1.380   2.324
 7682TIP3    H222992   4.885   1.247   2.395
 7683TIP3   OH222993   6.915   2.116   6.643
 7683TIP3    H122994   6.947   2.206   6.636
 7683TIP3    H222995   6.968   2.067   6.580
 7684TIP3   OH222996   0.928   5.777   1.106
 7684TIP3    H122997   0.935   5.733   1.021
 7684TIP3    H222998   0.843   5.821   1.103
 7685TIP3   OH222999   1.085   6.229   0.417
 7685TIP3    H123000   1.124   6.204   0.334
 7685TIP3    H223001   0.995   6.253   0.395
 7686TIP3   OH223002   2.493   6.886   4.250
 7686TIP3    H123003   2.429   6.827   4.210
 7686TIP3    H223004   2.577   6.842   4.236
 7687TIP3   OH223005   0.507   1.894   0.500
 7687TIP3    H123006   0.472   1.883   0.412
 7687TIP3    H223007   0.459   1.968   0.537
 7688TIP3   OH223008   7.292   6.472   5.788
 7688TIP3    H123009   7.275   6.537   5.720
 7688TIP3    H223010   7.361   6.511   5.842
 7689TIP3   OH223011   3.793   0.054   4.978
 7689TIP3    H123012   3.770   0.083   4.890
 7689TIP3    H223013   3.887   0.037   4.974
 7690TIP3   OH223014   8.223   5.195   2.974
 7690TIP3    H123015   8.217   5.289   2.957
 7690TIP3    H223016   8.212   5.188   3.069
 7691TIP3   OH223017   7.203   4.373   1.225
 7691TIP3    H123018   7.262   4.425   1.171
 7691TIP3    H223019   7.261   4.314   1.274
 7692TIP3   OH223020   7.997   6.674   3.380
 7692TIP3    H123021   8.023   6.697   3.291
 7692TIP3    H223022   7.901   6.678   3.379
 7693TIP3   OH223023   1.349   3.098   0.204
 7693TIP3    H123024   1.420   3.038   0.225
 7693TIP3    H223025   1.337   3.090   0.109
 7694TIP3   OH223026   1.825   4.848   3.158
 7694TIP3    H123027   1.734   4.822   3.140
 7694TIP3    H223028   1.834   4.841   3.253
 7695TIP3   OH223029   2.487   4.769   5.782
 7695TIP3    H123030   2.415   4.708   5.768
 7695TIP3    H223031   2.528   4.740   5.863
 7696TIP3   OH223032   7.520   3.852   0.113
 7696TIP3    H123033   7.532   3.929   0.169
 7696TIP3    H223034   7.478   3.886   0.034
 7697TIP3   OH223035   5.698   4.611   0.511
 7697TIP3    H123036   5.626   4.670   0.488
 7697TIP3    H223037   5.655   4.529   0.533
 7698TIP3   OH223038   5.839   3.946   2.684
 7698TIP3    H123039   5.744   3.934   2.682
 7698TIP3    H223040   5.861   3.952   2.777
 7699TIP3   OH223041   0.802   3.392   2.632
 7699TIP3    H123042   0.806   3.444   2.552
 7699TIP3    H223043   0.718   3.414   2.672
 7700TIP3   OH223044   0.794   7.669   4.900
 7700TIP3    H123045   0.874   7.641   4.945
 7700TIP3    H223046   0.794   7.619   4.818
 7701TIP3   OH223047   2.268   5.043   0.172
 7701TIP3    H123048   2.233   5.128   0.146
 7701TIP3    H223049   2.228   4.981   0.111
 7702TIP3   OH223050   0.759   3.385   6.483
 7702TIP3    H123051   0.790   3.457   6.428
 7702TIP3    H223052   0.739   3.425   6.567
 7703TIP3   OH223053   3.196   3.519   0.062
 7703TIP3    H123054   3.146   3.580   0.117
 7703TIP3    H223055   3.195   3.437   0.111
 7704TIP3   OH223056   5.384   1.131   6.228
 7704TIP3    H123057   5.422   1.211   6.191
 7704TIP3    H223058   5.452   1.065   6.216
 7705TIP3   OH223059   3.043   5.048   4.730
 7705TIP3    H123060   2.995   4.971   4.699
 7705TIP3    H223061   3.029   5.113   4.662
 7706TIP3   OH223062   4.145   0.618   1.886
 7706TIP3    H123063   4.052   0.641   1.883
 7706TIP3    H223064   4.191   0.702   1.885
 7707TIP3   OH223065   5.991   4.388   2.093
 7707TIP3    H123066   6.068   4.392   2.149
 7707TIP3    H223067   5.994   4.302   2.052
 7708TIP3   OH223068   1.523   0.472   4.125
 7708TIP3    H123069   1.560   0.558   4.106
 7708TIP3    H223070   1.431   0.489   4.145
 7709TIP3   OH223071   7.383   1.000   1.731
 7709TIP3    H123072   7.341   1.085   1.718
 7709TIP3    H223073   7.468   1.009   1.688
 7710TIP3   OH223074   0.158   4.681   4.193
 7710TIP3    H123075   0.175   4.764   4.149
 7710TIP3    H223076   0.108   4.630   4.129
 7711TIP3   OH223077   6.672   1.424   4.556
 7711TIP3    H123078   6.761   1.390   4.547
 7711TIP3    H223079   6.680   1.518   4.541
 7712TIP3   OH223080   0.778   2.351   5.727
 7712TIP3    H123081   0.785   2.336   5.633
 7712TIP3    H223082   0.867   2.372   5.755
 7713TIP3   OH223083   1.799   1.302   2.759
 7713TIP3    H123084   1.872   1.301   2.822
 7713TIP3    H223085   1.725   1.266   2.809
 7714TIP3   OH223086   2.746   3.547   3.169
 7714TIP3    H123087   2.712   3.636   3.181
 7714TIP3    H223088   2.750   3.535   3.074
 7715TIP3   OH223089   2.943   2.817   4.732
 7715TIP3    H123090   3.004   2.857   4.670
 7715TIP3    H223091   2.856   2.832   4.694
 7716TIP3   OH223092   1.348   5.278   4.158
 7716TIP3    H123093   1.385   5.192   4.176
 7716TIP3    H223094   1.319   5.309   4.244
 7717TIP3   OH223095   5.532   1.123   2.824
 7717TIP3    H123096   5.459   1.110   2.763
 7717TIP3    H223097   5.575   1.202   2.793
 7718TIP3   OH223098   8.181   0.370   0.022
 7718TIP3    H123099   8.108   0.326  -0.022
 7718TIP3    H223100   8.243   0.299   0.041
 7719TIP3   OH223101   6.718   3.997   3.452
 7719TIP3    H123102   6.779   3.947   3.506
 7719TIP3    H223103   6.715   4.084   3.492
 7720TIP3   OH223104   7.208   2.644   3.503
 7720TIP3    H123105   7.148   2.718   3.499
 7720TIP3    H223106   7.177   2.584   3.434
 7721TIP3   OH223107   4.295   2.498   6.416
 7721TIP3    H123108   4.259   2.574   6.370
 7721TIP3    H223109   4.222   2.437   6.421
 7722TIP3   OH223110   5.399   4.619   2.899
 7722TIP3    H123111   5.390   4.708   2.935
 7722TIP3    H223112   5.492   4.612   2.876
 7723TIP3   OH223113   0.034   1.870   4.965
 7723TIP3    H123114  -0.029   1.889   4.895
 7723TIP3    H223115   0.033   1.948   5.020
 7724TIP3   OH223116   2.718   4.444   0.880
 7724TIP3    H123117   2.623   4.437   0.887
 7724TIP3    H223118   2.736   4.538   0.876
 7725TIP3   OH223119   1.424   7.530   5.834
 7725TIP3    H123120   1.514   7.526   5.803
 7725TIP3    H223121   1.376   7.469   5.778
 7726TIP3   OH223122   0.047   2.685   0.977
 7726TIP3    H123123   0.028   2.616   1.041
 7726TIP3    H223124   0.038   2.642   0.892
 7727TIP3   OH223125   8.247   6.068   4.651
 7727TIP3    H123126   8.288   6.149   4.682
 7727TIP3    H223127   8.287   6.052   4.566
 7728TIP3   OH223128   2.276   3.043   1.967
 7728TIP3    H123129   2.207   2.978   1.982
 7728TIP3    H223130   2.270   3.062   1.873
 7729TIP3   OH223131   5.490   5.123   6.029
 7729TIP3    H123132   5.578   5.150   6.002
 7729TIP3    H223133   5.467   5.182   6.100
 7730TIP3   OH223134   1.370   5.419   6.751
 7730TIP3    H123135   1.304   5.488   6.758
 7730TIP3    H223136   1.433   5.453   6.688
 7731TIP3   OH223137   0.300   5.863   4.024
 7731TIP3    H123138   0.355   5.805   4.076
 7731TIP3    H223139   0.313   5.835   3.934
 7732TIP3   OH223140   3.198   4.010   2.797
 7732TIP3    H123141   3.236   4.065   2.728
 7732TIP3    H223142   3.241   4.039   2.877
 7733TIP3   OH223143   4.203   7.344   0.734
 7733TIP3    H123144   4.253   7.318   0.811
 7733TIP3    H223145   4.113   7.356   0.766
 7734TIP3   OH223146   7.609   3.417   1.263
 7734TIP3    H123147   7.597   3.341   1.321
 7734TIP3    H223148   7.689   3.397   1.214
 7735TIP3   OH223149   7.721   7.656   6.104
 7735TIP3    H123150   7.718   7.739   6.057
 7735TIP3    H223151   7.658   7.667   6.176
 7736TIP3   OH223152   4.017   5.162   5.698
 7736TIP3    H123153   3.943   5.103   5.707
 7736TIP3    H223154   4.017   5.214   5.778
 7737TIP3   OH223155   7.560   1.093   6.257
 7737TIP3    H123156   7.514   1.056   6.181
 7737TIP3    H223157   7.622   1.025   6.284
 7738TIP3   OH223158   7.774   6.520   2.280
 7738TIP3    H123159   7.853   6.472   2.258
 7738TIP3    H223160   7.722   6.458   2.332
 7739TIP3   OH223161   4.957   4.408   0.157
 7739TIP3    H123162   5.037   4.434   0.202
 7739TIP3    H223163   4.897   4.481   0.171
 7740TIP3   OH223164   4.365   5.534   2.012
 7740TIP3    H123165   4.348   5.619   2.052
 7740TIP3    H223166   4.290   5.479   2.038
 7741TIP3   OH223167   7.205   0.317   2.958
 7741TIP3    H123168   7.171   0.391   3.009
 7741TIP3    H223169   7.257   0.357   2.888
 7742TIP3   OH223170   3.082   4.555   6.348
 7742TIP3    H123171   3.124   4.480   6.306
 7742TIP3    H223172   3.081   4.623   6.280
 7743TIP3   OH223173   5.976   5.641   3.451
 7743TIP3    H123174   5.967   5.572   3.516
 7743TIP3    H223175   6.070   5.659   3.449
 7744TIP3   OH223176   5.870   5.099   1.278
 7744TIP3    H123177   5.928   5.091   1.203
 7744TIP3    H223178   5.913   5.048   1.347
 7745TIP3   OH223179   4.693   3.064   3.681
 7745TIP3    H123180   4.612   3.067   3.629
 7745TIP3    H223181   4.725   3.154   3.680
 7746TIP3   OH223182   8.326   6.402   6.727
 7746TIP3    H123183   8.333   6.438   6.639
 7746TIP3    H223184   8.243   6.353   6.727
 7747TIP3   OH223185   1.868   1.377   3.498
 7747TIP3    H123186   1.833   1.374   3.409
 7747TIP3    H223187   1.791   1.381   3.554
 7748TIP3   OH223188   4.998   0.118   0.675
 7748TIP3    H123189   4.972   0.027   0.690
 7748TIP3    H223190   4.936   0.150   0.609
 7749TIP3   OH223191   3.723   1.810   2.981
 7749TIP3    H123192   3.655   1.876   2.991
 7749TIP3    H223193   3.676   1.731   2.954
 7750TIP3   OH223194   1.864   0.653   5.511
 7750TIP3    H123195   1.852   0.667   5.417
 7750TIP3    H223196   1.814   0.724   5.553
 7751TIP3   OH223197   1.614   1.778   1.830
 7751TIP3    H123198   1.667   1.809   1.903
 7751TIP3    H223199   1.552   1.849   1.814
 7752TIP3   OH223200   0.592   6.931   1.593
 7752TIP3    H123201   0.544   6.892   1.520
 7752TIP3    H223202   0.654   6.863   1.619
 7753TIP3   OH223203   5.584   0.041   2.217
 7753TIP3    H123204   5.633   0.110   2.172
 7753TIP3    H223205   5.548   0.083   2.295
 7754TIP3   OH223206   2.599   3.486   5.094
 7754TIP3    H123207   2.642   3.571   5.100
 7754TIP3    H223208   2.505   3.506   5.093
 7755TIP3   OH223209   2.804   2.306   2.087
 7755TIP3    H123210   2.757   2.379   2.127
 7755TIP3    H223211   2.886   2.344   2.057
 7756TIP3   OH223212   8.189   4.358   5.642
 7756TIP3    H123213   8.247   4.299   5.690
 7756TIP3    H223214   8.146   4.410   5.711
 7757TIP3   OH223215   5.747   2.021   5.103
 7757TIP3    H123216   5.699   1.973   5.170
 7757TIP3    H223217   5.694   2.099   5.085
 7758TIP3   OH223218   5.573   0.905   6.553
 7758TIP3    H123219   5.564   0.828   6.609
 7758TIP3    H223220   5.490   0.951   6.562
 7759TIP3   OH223221   3.149   7.309   1.420
 7759TIP3    H123222   3.227   7.295   1.474
 7759TIP3    H223223   3.143   7.230   1.366
 7760TIP3   OH223224   0.220   5.002   0.701
 7760TIP3    H123225   0.240   4.941   0.772
 7760TIP3    H223226   0.134   5.038   0.723
 7761TIP3   OH223227   1.498   3.031   5.006
 7761TIP3    H123228   1.494   3.126   5.005
 7761TIP3    H223229   1.591   3.010   4.994
 7762TIP3   OH223230   7.247   1.407   4.619
 7762TIP3    H123231   7.302   1.354   4.676
 7762TIP3    H223232   7.179   1.347   4.589
 7763TIP3   OH223233   4.029   1.125   4.654
 7763TIP3    H123234   3.934   1.122   4.664
 7763TIP3    H223235   4.043   1.141   4.561
 7764TIP3   OH223236   8.174   1.519   6.109
 7764TIP3    H123237   8.109   1.586   6.086
 7764TIP3    H223238   8.183   1.466   6.029
 7765TIP3   OH223239   3.512   0.251   2.315
 7765TIP3    H123240   3.528   0.164   2.279
 7765TIP3    H223241   3.420   0.251   2.339
 7766TIP3   OH223242   8.214   2.216   3.524
 7766TIP3    H123243   8.260   2.165   3.458
 7766TIP3    H223244   8.126   2.228   3.489
 7767TIP3   OH223245   3.652   0.186   3.835
 7767TIP3    H123246   3.584   0.251   3.851
 7767TIP3    H223247   3.613   0.103   3.863
 7768TIP3   OH223248   3.106   7.747   3.830
 7768TIP3    H123249   3.123   7.841   3.832
 7768TIP3    H223250   3.040   7.732   3.898
 7769TIP3   OH223251   5.682   7.832   2.981
 7769TIP3    H123252   5.624   7.775   2.932
 7769TIP3    H223253   5.691   7.790   3.067
 7770TIP3   OH223254   0.384   0.912   5.307
 7770TIP3    H123255   0.436   0.950   5.378
 7770TIP3    H223256   0.381   0.819   5.327
 7771TIP3   OH223257   6.767   3.899   2.852
 7771TIP3    H123258   6.820   3.821   2.835
 7771TIP3    H223259   6.761   3.902   2.948
 7772TIP3   OH223260   3.110   6.524   3.004
 7772TIP3    H123261   3.103   6.437   3.045
 7772TIP3    H223262   3.159   6.508   2.923
 7773TIP3   OH223263   5.632   2.564   5.960
 7773TIP3    H123264   5.640   2.541   6.052
 7773TIP3    H223265   5.707   2.621   5.942
 7774TIP3   OH223266   3.155   0.179   0.966
 7774TIP3    H123267   3.231   0.219   1.007
 7774TIP3    H223268   3.155   0.213   0.876
 7775TIP3   OH223269   5.605   5.991   5.714
 7775TIP3    H123270   5.547   6.064   5.736
 7775TIP3    H223271   5.650   5.969   5.795
 7776TIP3   OH223272   8.003   3.005   2.090
 7776TIP3    H123273   7.985   3.025   2.182
 7776TIP3    H223274   8.051   3.081   2.058
 7777TIP3   OH223275   6.325   0.201   5.554
 7777TIP3    H123276   6.390   0.187   5.486
 7777TIP3    H223277   6.241   0.179   5.512
 7778TIP3   OH223278   4.458   5.512   2.267
 7778TIP3    H123279   4.418   5.477   2.188
 7778TIP3    H223280   4.384   5.529   2.326
 7779TIP3   OH223281   5.611   4.360   3.460
 7779TIP3    H123282   5.546   4.373   3.529
 7779TIP3    H223283   5.694   4.387   3.499
 7780TIP3   OH223284   2.787   4.438   2.815
 7780TIP3    H123285   2.816   4.445   2.724
 7780TIP3    H223286   2.783   4.343   2.832
 7781TIP3   OH223287   6.252   0.928   5.660
 7781TIP3    H123288   6.331   0.877   5.676
 7781TIP3    H223289   6.180   0.864   5.665
 7782TIP3   OH223290   0.020   5.031   1.610
 7782TIP3    H123291  -0.063   5.078   1.603
 7782TIP3    H223292   0.011   4.956   1.550
 7783TIP3   OH223293   4.188   4.019   5.420
 7783TIP3    H123294   4.195   4.002   5.514
 7783TIP3    H223295   4.200   3.934   5.379
 7784TIP3   OH223296   4.335   7.608   5.117
 7784TIP3    H123297   4.359   7.677   5.056
 7784TIP3    H223298   4.266   7.558   5.071
 7785TIP3   OH223299   4.245   1.748   2.792
 7785TIP3    H123300   4.318   1.795   2.752
 7785TIP3    H223301   4.167   1.797   2.766
 7786TIP3   OH223302   1.708   3.969   1.396
 7786TIP3    H123303   1.711   3.923   1.312
 7786TIP3    H223304   1.649   4.043   1.381
 7787TIP3   OH223305   5.332   3.804   5.796
 7787TIP3    H123306   5.379   3.807   5.879
 7787TIP3    H223307   5.240   3.811   5.820
 7788TIP3   OH223308   4.619   1.380   2.936
 7788TIP3    H123309   4.533   1.345   2.913
 7788TIP3    H223310   4.662   1.393   2.852
 7789TIP3   OH223311   2.369   0.829   0.770
 7789TIP3    H123312   2.385   0.801   0.860
 7789TIP3    H223313   2.293   0.777   0.742
 7790TIP3   OH223314   1.967   2.938   0.371
 7790TIP3    H123315   1.961   2.965   0.279
 7790TIP3    H223316   2.061   2.934   0.388
 7791TIP3   OH223317   3.257   3.273   4.085
 7791TIP3    H123318   3.253   3.225   4.002
 7791TIP3    H223319   3.340   3.246   4.125
 7792TIP3   OH223320   0.422   1.702   5.708
 7792TIP3    H123321   0.385   1.777   5.660
 7792TIP3    H223322   0.475   1.742   5.777
 7793TIP3   OH223323   1.811   2.551   5.751
 7793TIP3    H123324   1.773   2.479   5.702
 7793TIP3    H223325   1.807   2.625   5.690
 7794TIP3   OH223326   3.674   7.216   2.603
 7794TIP3    H123327   3.651   7.270   2.527
 7794TIP3    H223328   3.678   7.127   2.569
 7795TIP3   OH223329   6.321   2.075   0.618
 7795TIP3    H123330   6.353   1.991   0.585
 7795TIP3    H223331   6.389   2.105   0.678
 7796TIP3   OH223332   7.257   2.964   1.434
 7796TIP3    H123333   7.265   3.047   1.482
 7796TIP3    H223334   7.241   2.899   1.502
 7797TIP3   OH223335   6.083   6.474   3.373
 7797TIP3    H123336   6.143   6.524   3.318
 7797TIP3    H223337   6.105   6.500   3.463
 7798TIP3   OH223338   3.598   4.761   2.206
 7798TIP3    H123339   3.582   4.854   2.190
 7798TIP3    H223340   3.689   4.758   2.236
 7799TIP3   OH223341   7.546   0.941   2.775
 7799TIP3    H123342   7.492   1.017   2.750
 7799TIP3    H223343   7.597   0.971   2.850
 7800TIP3   OH223344   1.278   7.408   0.109
 7800TIP3    H123345   1.347   7.353   0.070
 7800TIP3    H223346   1.294   7.495   0.073
 7801TIP3   OH223347   7.835   1.674   2.645
 7801TIP3    H123348   7.776   1.669   2.721
 7801TIP3    H223349   7.922   1.680   2.682
 7802TIP3   OH223350   3.499   3.676   0.012
 7802TIP3    H123351   3.422   3.724   0.042
 7802TIP3    H223352   3.471   3.585   0.009
 7803TIP3   OH223353   4.969   7.716   2.156
 7803TIP3    H123354   5.061   7.694   2.175
 7803TIP3    H223355   4.948   7.663   2.079
 7804TIP3   OH223356   7.440   6.420   0.797
 7804TIP3    H123357   7.353   6.383   0.813
 7804TIP3    H223358   7.431   6.513   0.818
 7805TIP3   OH223359   6.493   5.213   4.034
 7805TIP3    H123360   6.528   5.295   4.069
 7805TIP3    H223361   6.512   5.148   4.101
 7806TIP3   OH223362   0.177   0.263   4.421
 7806TIP3    H123363   0.248   0.261   4.485
 7806TIP3    H223364   0.204   0.328   4.357
 7807TIP3   OH223365   1.154   1.991   5.586
 7807TIP3    H123366   1.248   2.000   5.573
 7807TIP3    H223367   1.135   2.046   5.662
 7808TIP3   OH223368   3.228   7.502   3.907
 7808TIP3    H123369   3.197   7.588   3.879
 7808TIP3    H223370   3.188   7.441   3.844
 7809TIP3   OH223371   6.232   6.479   1.511
 7809TIP3    H123372   6.170   6.461   1.582
 7809TIP3    H223373   6.304   6.526   1.553
 7810TIP3   OH223374   0.586   4.060   3.324
 7810TIP3    H123375   0.620   4.148   3.337
 7810TIP3    H223376   0.491   4.072   3.315
 7811TIP3   OH223377   7.928   5.269   4.093
 7811TIP3    H123378   7.897   5.286   4.182
 7811TIP3    H223379   8.021   5.248   4.103
 7812TIP3   OH223380   4.417   3.184   3.279
 7812TIP3    H123381   4.463   3.168   3.361
 7812TIP3    H223382   4.325   3.191   3.303
 7813TIP3   OH223383   2.953   3.974   3.154
 7813TIP3    H123384   2.989   4.046   3.101
 7813TIP3    H223385   3.029   3.919   3.173
 7814TIP3   OH223386   3.166   4.766   1.100
 7814TIP3    H123387   3.146   4.741   1.010
 7814TIP3    H223388   3.226   4.840   1.091
 7815TIP3   OH223389   5.704   6.350   0.587
 7815TIP3    H123390   5.684   6.433   0.544
 7815TIP3    H223391   5.780   6.369   0.642
 7816TIP3   OH223392   5.730   0.538   2.927
 7816TIP3    H123393   5.693   0.626   2.935
 7816TIP3    H223394   5.770   0.537   2.840
 7817TIP3   OH223395   6.437   1.051   2.049
 7817TIP3    H123396   6.473   1.135   2.022
 7817TIP3    H223397   6.477   1.033   2.134
 7818TIP3   OH223398   1.844   1.138   0.716
 7818TIP3    H123399   1.896   1.219   0.710
 7818TIP3    H223400   1.849   1.114   0.809
 7819TIP3   OH223401   3.764   3.367   0.045
 7819TIP3    H123402   3.839   3.309   0.032
 7819TIP3    H223403   3.688   3.309   0.040
 7820TIP3   OH223404   8.210   4.029   4.101
 7820TIP3    H123405   8.203   4.039   4.006
 7820TIP3    H223406   8.178   4.112   4.136
 7821TIP3   OH223407   0.739   1.143   3.791
 7821TIP3    H123408   0.740   1.157   3.696
 7821TIP3    H223409   0.829   1.157   3.819
 7822TIP3   OH223410   6.101   2.971   0.628
 7822TIP3    H123411   6.134   2.983   0.538
 7822TIP3    H223412   6.072   2.880   0.630
 7823TIP3   OH223413   2.687   3.515   1.677
 7823TIP3    H123414   2.772   3.535   1.637
 7823TIP3    H223415   2.708   3.455   1.749
 7824TIP3   OH223416   7.342   1.126   2.744
 7824TIP3    H123417   7.274   1.074   2.789
 7824TIP3    H223418   7.294   1.182   2.684
 7825TIP3   OH223419   7.315   6.238   5.094
 7825TIP3    H123420   7.247   6.246   5.161
 7825TIP3    H223421   7.395   6.269   5.136
 7826TIP3   OH223422   1.919   4.257   1.426
 7826TIP3    H123423   1.874   4.314   1.488
 7826TIP3    H223424   1.970   4.197   1.481
 7827TIP3   OH223425   5.195   5.793   2.053
 7827TIP3    H123426   5.253   5.865   2.027
 7827TIP3    H223427   5.107   5.830   2.045
 7828TIP3   OH223428   6.925   6.677   1.829
 7828TIP3    H123429   6.974   6.596   1.844
 7828TIP3    H223430   6.919   6.684   1.734
 7829TIP3   OH223431   6.216   3.612   5.606
 7829TIP3    H123432   6.138   3.667   5.614
 7829TIP3    H223433   6.194   3.533   5.654
 7830TIP3   OH223434   7.878   5.800   5.508
 7830TIP3    H123435   7.898   5.815   5.416
 7830TIP3    H223436   7.826   5.719   5.508
 7831TIP3   OH223437   5.801   6.471   0.183
 7831TIP3    H123438   5.801   6.398   0.121
 7831TIP3    H223439   5.850   6.540   0.139
 7832TIP3   OH223440   2.735   4.480   6.384
 7832TIP3    H123441   2.718   4.484   6.290
 7832TIP3    H223442   2.830   4.477   6.391
 7833TIP3   OH223443   5.599   6.610   4.909
 7833TIP3    H123444   5.690   6.586   4.889
 7833TIP3    H223445   5.593   6.702   4.884
 7834TIP3   OH223446   6.911   2.862   4.823
 7834TIP3    H123447   6.862   2.789   4.860
 7834TIP3    H223448   6.989   2.869   4.878
 7835TIP3   OH223449   5.016   5.231   1.329
 7835TIP3    H123450   5.072   5.257   1.255
 7835TIP3    H223451   4.931   5.271   1.310
 7836TIP3   OH223452   3.603   4.721   4.052
 7836TIP3    H123453   3.682   4.691   4.007
 7836TIP3    H223454   3.558   4.776   3.988
 7837TIP3   OH223455   3.085   3.527   4.256
 7837TIP3    H123456   3.096   3.432   4.258
 7837TIP3    H223457   3.160   3.561   4.305
 7838TIP3   OH223458   4.790   7.511   6.341
 7838TIP3    H123459   4.831   7.514   6.254
 7838TIP3    H223460   4.834   7.580   6.391
 7839TIP3   OH223461   7.285   5.547   4.696
 7839TIP3    H123462   7.255   5.579   4.781
 7839TIP3    H223463   7.378   5.527   4.709
 7840TIP3   OH223464   8.139   5.122   6.110
 7840TIP3    H123465   8.096   5.174   6.042
 7840TIP3    H223466   8.141   5.179   6.187
 7841TIP3   OH223467   5.585   7.191   4.445
 7841TIP3    H123468   5.633   7.263   4.403
 7841TIP3    H223469   5.494   7.205   4.421
 7842TIP3   OH223470   2.091   4.491   2.075
 7842TIP3    H123471   2.046   4.529   2.150
 7842TIP3    H223472   2.162   4.552   2.055
 7843TIP3   OH223473   7.017   3.018   1.855
 7843TIP3    H123474   6.997   3.089   1.915
 7843TIP3    H223475   6.999   3.055   1.768
 7844TIP3   OH223476   6.765   5.334   6.397
 7844TIP3    H123477   6.751   5.417   6.442
 7844TIP3    H223478   6.847   5.300   6.434
 7845TIP3   OH223479   7.134   1.113   3.575
 7845TIP3    H123480   7.183   1.043   3.619
 7845TIP3    H223481   7.198   1.153   3.516
 7846TIP3   OH223482   7.093   0.255   5.068
 7846TIP3    H123483   7.179   0.293   5.084
 7846TIP3    H223484   7.043   0.325   5.026
 7847TIP3   OH223485   2.300   2.060   4.493
 7847TIP3    H123486   2.246   2.118   4.547
 7847TIP3    H223487   2.301   2.102   4.407
 7848TIP3   OH223488   0.009   3.338   6.617
 7848TIP3    H123489   0.098   3.346   6.582
 7848TIP3    H223490  -0.015   3.247   6.598
 7849TIP3   OH223491   3.507   2.401   2.476
 7849TIP3    H123492   3.569   2.473   2.491
 7849TIP3    H223493   3.425   2.432   2.515
 7850TIP3   OH223494   7.748   0.346   3.043
 7850TIP3    H123495   7.683   0.405   3.004
 7850TIP3    H223496   7.827   0.360   2.991
 7851TIP3   OH223497   0.151   6.306   1.875
 7851TIP3    H123498   0.122   6.387   1.917
 7851TIP3    H223499   0.084   6.287   1.809
 7852TIP3   OH223500   6.277   0.305   6.587
 7852TIP3    H123501   6.301   0.307   6.679
 7852TIP3    H223502   6.357   0.281   6.541
 7853TIP3   OH223503   7.365   0.509   1.546
 7853TIP3    H123504   7.335   0.536   1.633
 7853TIP3    H223505   7.454   0.476   1.560
 7854TIP3   OH223506   6.871   1.259   2.052
 7854TIP3    H123507   6.948   1.233   2.102
 7854TIP3    H223508   6.907   1.304   1.975
 7855TIP3   OH223509   8.002   0.327   4.935
 7855TIP3    H123510   8.027   0.418   4.951
 7855TIP3    H223511   8.036   0.279   5.010
 7856TIP3   OH223512   1.587   3.082   4.146
 7856TIP3    H123513   1.670   3.129   4.135
 7856TIP3    H223514   1.570   3.086   4.240
 7857TIP3   OH223515   4.493   2.013   1.065
 7857TIP3    H123516   4.500   1.944   0.999
 7857TIP3    H223517   4.541   2.087   1.028
 7858TIP3   OH223518   3.670   5.978   6.267
 7858TIP3    H123519   3.674   6.068   6.233
 7858TIP3    H223520   3.720   5.981   6.348
 7859TIP3   OH223521   4.548   3.674   4.710
 7859TIP3    H123522   4.571   3.720   4.790
 7859TIP3    H223523   4.486   3.606   4.738
 7860TIP3   OH223524   0.992   1.608   3.869
 7860TIP3    H123525   0.958   1.694   3.845
 7860TIP3    H223526   0.948   1.586   3.950
 7861TIP3   OH223527   1.129   3.638   0.294
 7861TIP3    H123528   1.101   3.571   0.232
 7861TIP3    H223529   1.082   3.717   0.268
 7862TIP3   OH223530   6.771   2.631   0.465
 7862TIP3    H123531   6.762   2.716   0.508
 7862TIP3    H223532   6.687   2.588   0.481
 7863TIP3   OH223533   7.975   4.322   4.656
 7863TIP3    H123534   7.893   4.278   4.631
 7863TIP3    H223535   8.040   4.289   4.593
 7864TIP3   OH223536   1.184   0.207   2.557
 7864TIP3    H123537   1.112   0.170   2.506
 7864TIP3    H223538   1.162   0.299   2.567
 7865TIP3   OH223539   6.647   7.695   2.788
 7865TIP3    H123540   6.565   7.738   2.762
 7865TIP3    H223541   6.630   7.663   2.876
 7866TIP3   OH223542   0.855   3.018   2.300
 7866TIP3    H123543   0.871   3.014   2.206
 7866TIP3    H223544   0.762   2.996   2.309
 7867TIP3   OH223545   7.342   4.232   5.416
 7867TIP3    H123546   7.283   4.181   5.471
 7867TIP3    H223547   7.301   4.318   5.410
 7868TIP3   OH223548   3.580   1.098   0.521
 7868TIP3    H123549   3.521   1.107   0.595
 7868TIP3    H223550   3.635   1.023   0.542
 7869TIP3   OH223551   5.540   4.083   0.641
 7869TIP3    H123552   5.623   4.125   0.618
 7869TIP3    H223553   5.545   4.072   0.736
 7870TIP3   OH223554   7.415   7.048   6.088
 7870TIP3    H123555   7.449   7.011   6.170
 7870TIP3    H223556   7.458   6.997   6.020
 7871TIP3   OH223557   8.241   3.249   3.419
 7871TIP3    H123558   8.172   3.189   3.391
 7871TIP3    H223559   8.318   3.222   3.367
 7872TIP3   OH223560   0.341   7.522   0.540
 7872TIP3    H123561   0.391   7.474   0.475
 7872TIP3    H223562   0.400   7.531   0.615
 7873TIP3   OH223563   5.621   6.568   6.760
 7873TIP3    H123564   5.716   6.576   6.767
 7873TIP3    H223565   5.605   6.550   6.667
 7874TIP3   OH223566   5.949   5.939   5.772
 7874TIP3    H123567   5.879   5.926   5.835
 7874TIP3    H223568   5.915   5.905   5.690
 7875TIP3   OH223569   2.547   3.836   0.944
 7875TIP3    H123570   2.550   3.826   0.849
 7875TIP3    H223571   2.587   3.756   0.977
 7876TIP3   OH223572   3.253   0.307   5.446
 7876TIP3    H123573   3.303   0.387   5.462
 7876TIP3    H223574   3.319   0.237   5.447
 7877TIP3   OH223575   2.904   0.697   4.910
 7877TIP3    H123576   2.808   0.695   4.903
 7877TIP3    H223577   2.934   0.628   4.852
 7878TIP3   OH223578   1.046   2.144   2.865
 7878TIP3    H123579   1.024   2.052   2.853
 7878TIP3    H223580   1.053   2.179   2.776
 7879TIP3   OH223581   5.232   6.379   2.320
 7879TIP3    H123582   5.239   6.440   2.393
 7879TIP3    H223583   5.291   6.414   2.253
 7880TIP3   OH223584   2.177   6.843   5.116
 7880TIP3    H123585   2.270   6.852   5.098
 7880TIP3    H223586   2.171   6.782   5.189
 7881TIP3   OH223587   5.325   5.402   4.453
 7881TIP3    H123588   5.282   5.317   4.457
 7881TIP3    H223589   5.260   5.464   4.485
 7882TIP3   OH223590   0.749   1.089   6.534
 7882TIP3    H123591   0.709   1.030   6.598
 7882TIP3    H223592   0.837   1.053   6.521
 7883TIP3   OH223593   1.649   0.913   6.042
 7883TIP3    H123594   1.607   0.986   5.997
 7883TIP3    H223595   1.578   0.869   6.088
 7884TIP3   OH223596   2.070   3.728   5.005
 7884TIP3    H123597   2.122   3.668   4.951
 7884TIP3    H223598   1.984   3.730   4.963
 7885TIP3   OH223599   0.890   4.011   2.247
 7885TIP3    H123600   0.947   4.075   2.290
 7885TIP3    H223601   0.842   4.062   2.181
 7886TIP3   OH223602   2.631   7.807   1.966
 7886TIP3    H123603   2.559   7.765   2.012
 7886TIP3    H223604   2.666   7.870   2.028
 7887TIP3   OH223605   0.325   0.856   4.504
 7887TIP3    H123606   0.297   0.944   4.529
 7887TIP3    H223607   0.336   0.809   4.586
 7888TIP3   OH223608   4.991   7.152   5.442
 7888TIP3    H123609   4.967   7.108   5.360
 7888TIP3    H223610   4.996   7.245   5.419
 7889TIP3   OH223611   8.099   2.893   1.537
 7889TIP3    H123612   8.074   2.974   1.583
 7889TIP3    H223613   8.195   2.893   1.541
 7890TIP3   OH223614   6.622   4.340   1.640
 7890TIP3    H123615   6.637   4.249   1.612
 7890TIP3    H223616   6.664   4.393   1.573
 7891TIP3   OH223617   4.026   6.989   6.406
 7891TIP3    H123618   3.955   7.039   6.365
 7891TIP3    H223619   3.984   6.944   6.480
 7892TIP3   OH223620   2.685   7.635   3.090
 7892TIP3    H123621   2.737   7.710   3.118
 7892TIP3    H223622   2.675   7.646   2.995
 7893TIP3   OH223623   1.961   3.481   1.028
 7893TIP3    H123624   1.975   3.538   1.102
 7893TIP3    H223625   1.978   3.393   1.062
 7894TIP3   OH223626   5.833   7.727   4.952
 7894TIP3    H123627   5.767   7.779   4.906
 7894TIP3    H223628   5.808   7.636   4.935
 7895TIP3   OH223629   2.893   3.016   5.304
 7895TIP3    H123630   2.988   3.010   5.291
 7895TIP3    H223631   2.882   3.093   5.360
 7896TIP3   OH223632   1.328   1.589   3.321
 7896TIP3    H123633   1.365   1.595   3.409
 7896TIP3    H223634   1.262   1.520   3.327
 7897TIP3   OH223635   1.199   7.057   0.245
 7897TIP3    H123636   1.249   7.014   0.175
 7897TIP3    H223637   1.265   7.086   0.307
 7898TIP3   OH223638   3.121   0.060   5.413
 7898TIP3    H123639   3.136   0.027   5.502
 7898TIP3    H223640   3.139   0.154   5.419
 7899TIP3   OH223641   2.029   1.947   4.434
 7899TIP3    H123642   2.079   2.006   4.490
 7899TIP3    H223643   2.091   1.919   4.367
 7900TIP3   OH223644   0.411   5.474   2.656
 7900TIP3    H123645   0.430   5.396   2.708
 7900TIP3    H223646   0.486   5.531   2.670
 7901TIP3   OH223647   1.628   0.177   3.870
 7901TIP3    H123648   1.664   0.240   3.934
 7901TIP3    H223649   1.593   0.106   3.924
 7902TIP3   OH223650   6.129   1.470   1.455
 7902TIP3    H123651   6.047   1.503   1.494
 7902TIP3    H223652   6.140   1.521   1.375
 7903TIP3   OH223653   2.967   5.520   5.662
 7903TIP3    H123654   2.922   5.565   5.734
 7903TIP3    H223655   3.060   5.524   5.686
 7904TIP3   OH223656   6.076   6.453   2.695
 7904TIP3    H123657   6.046   6.496   2.775
 7904TIP3    H223658   5.995   6.433   2.648
 7905TIP3   OH223659   5.906   3.646   0.646
 7905TIP3    H123660   5.884   3.734   0.616
 7905TIP3    H223661   5.972   3.615   0.583
 7906TIP3   OH223662   3.046   0.763   6.146
 7906TIP3    H123663   3.131   0.804   6.166
 7906TIP3    H223664   3.009   0.743   6.232
 7907TIP3   OH223665   6.106   6.124   2.710
 7907TIP3    H123666   6.033   6.173   2.747
 7907TIP3    H223667   6.149   6.186   2.651
 7908TIP3   OH223668   2.293   7.756   2.935
 7908TIP3    H123669   2.268   7.720   3.020
 7908TIP3    H223670   2.322   7.681   2.885
 7909TIP3   OH223671   4.318   5.621   3.484
 7909TIP3    H123672   4.283   5.697   3.437
 7909TIP3    H223673   4.258   5.609   3.559
 7910TIP3   OH223674   6.516   0.450   0.824
 7910TIP3    H123675   6.596   0.428   0.777
 7910TIP3    H223676   6.446   0.413   0.770
 7911TIP3   OH223677   6.934   6.879   5.533
 7911TIP3    H123678   6.857   6.926   5.564
 7911TIP3    H223679   7.008   6.930   5.564
 7912TIP3   OH223680   0.092   0.679   4.908
 7912TIP3    H123681   0.149   0.704   4.835
 7912TIP3    H223682   0.132   0.722   4.984
 7913TIP3   OH223683   4.139   5.197   6.397
 7913TIP3    H123684   4.169   5.117   6.353
 7913TIP3    H223685   4.143   5.176   6.490
 7914TIP3   OH223686   4.265   7.052   2.776
 7914TIP3    H123687   4.284   7.103   2.855
 7914TIP3    H223688   4.173   7.027   2.785
 7915TIP3   OH223689   0.229   2.500   6.315
 7915TIP3    H123690   0.155   2.452   6.351
 7915TIP3    H223691   0.223   2.488   6.221
 7916TIP3   OH223692   4.832   4.498   3.866
 7916TIP3    H123693   4.879   4.435   3.920
 7916TIP3    H223694   4.741   4.468   3.868
 7917TIP3   OH223695   2.046   4.658   0.296
 7917TIP3    H123696   2.099   4.729   0.333
 7917TIP3    H223697   1.959   4.672   0.332
 7918TIP3   OH223698   1.670   2.156   2.671
 7918TIP3    H123699   1.739   2.222   2.670
 7918TIP3    H223700   1.678   2.115   2.758
 7919TIP3   OH223701   3.292   1.215   4.472
 7919TIP3    H123702   3.271   1.296   4.426
 7919TIP3    H223703   3.231   1.151   4.435
 7920TIP3   OH223704   7.028   7.665   1.435
 7920TIP3    H123705   6.945   7.631   1.403
 7920TIP3    H223706   7.084   7.588   1.446
 7921TIP3   OH223707   2.494   7.240   2.413
 7921TIP3    H123708   2.573   7.286   2.444
 7921TIP3    H223709   2.422   7.286   2.455
 7922TIP3   OH223710   5.996   2.724   1.540
 7922TIP3    H123711   5.911   2.700   1.504
 7922TIP3    H223712   6.048   2.644   1.537
 7923TIP3   OH223713   5.224   1.061   2.381
 7923TIP3    H123714   5.295   1.099   2.329
 7923TIP3    H223715   5.162   1.028   2.316
 7924TIP3   OH223716   1.590   7.138   6.202
 7924TIP3    H123717   1.554   7.089   6.276
 7924TIP3    H223718   1.676   7.100   6.188
 7925TIP3   OH223719   6.497   7.518   2.286
 7925TIP3    H123720   6.575   7.572   2.277
 7925TIP3    H223721   6.468   7.531   2.376
 7926TIP3   OH223722   5.483   4.102   1.868
 7926TIP3    H123723   5.574   4.132   1.868
 7926TIP3    H223724   5.483   4.027   1.928
 7927TIP3   OH223725   3.404   3.501   3.244
 7927TIP3    H123726   3.423   3.409   3.225
 7927TIP3    H223727   3.395   3.504   3.339
 7928TIP3   OH223728   5.364   5.047   4.035
 7928TIP3    H123729   5.271   5.055   4.014
 7928TIP3    H223730   5.391   5.136   4.055
 7929TIP3   OH223731   1.843   6.790   3.873
 7929TIP3    H123732   1.920   6.738   3.897
 7929TIP3    H223733   1.863   6.822   3.785
 7930TIP3   OH223734   4.071   3.437   3.141
 7930TIP3    H123735   3.984   3.468   3.116
 7930TIP3    H223736   4.115   3.419   3.057
 7931TIP3   OH223737   7.150   7.537   6.759
 7931TIP3    H123738   7.129   7.556   6.668
 7931TIP3    H223739   7.077   7.574   6.809
 7932TIP3   OH223740   1.779   1.653   0.849
 7932TIP3    H123741   1.775   1.567   0.890
 7932TIP3    H223742   1.788   1.635   0.756
 7933TIP3   OH223743   6.890   6.056   2.877
 7933TIP3    H123744   6.971   6.014   2.847
 7933TIP3    H223745   6.918   6.144   2.902
 7934TIP3   OH223746   7.100   6.142   0.329
 7934TIP3    H123747   7.056   6.137   0.244
 7934TIP3    H223748   7.170   6.207   0.316
 7935TIP3   OH223749   1.384   5.954   4.639
 7935TIP3    H123750   1.413   6.040   4.609
 7935TIP3    H223751   1.439   5.892   4.593
 7936TIP3   OH223752   7.473   7.352   1.572
 7936TIP3    H123753   7.462   7.276   1.630
 7936TIP3    H223754   7.566   7.374   1.580
 7937TIP3   OH223755   6.283   1.927   1.209
 7937TIP3    H123756   6.374   1.933   1.238
 7937TIP3    H223757   6.236   1.990   1.263
 7938TIP3   OH223758   5.039   6.241   4.872
 7938TIP3    H123759   5.060   6.150   4.893
 7938TIP3    H223760   5.111   6.292   4.910
 7939TIP3   OH223761   3.895   6.391   3.108
 7939TIP3    H123762   3.839   6.349   3.174
 7939TIP3    H223763   3.895   6.331   3.034
 7940TIP3   OH223764   7.913   5.666   0.300
 7940TIP3    H123765   7.995   5.631   0.335
 7940TIP3    H223766   7.941   5.732   0.236
 7941TIP3   OH223767   4.230   7.676   4.586
 7941TIP3    H123768   4.178   7.656   4.664
 7941TIP3    H223769   4.310   7.624   4.596
 7942TIP3   OH223770   0.925   2.774   1.037
 7942TIP3    H123771   1.011   2.800   1.003
 7942TIP3    H223772   0.862   2.822   0.982
 7943TIP3   OH223773   5.592   5.575   2.729
 7943TIP3    H123774   5.564   5.667   2.724
 7943TIP3    H223775   5.594   5.546   2.638
 7944TIP3   OH223776   2.948   4.441   3.089
 7944TIP3    H123777   2.952   4.476   3.000
 7944TIP3    H223778   2.864   4.473   3.122
 7945TIP3   OH223779   2.172   1.326   6.712
 7945TIP3    H123780   2.191   1.269   6.786
 7945TIP3    H223781   2.229   1.295   6.642
 7946TIP3   OH223782   4.126   7.750   5.244
 7946TIP3    H123783   4.124   7.819   5.178
 7946TIP3    H223784   4.206   7.702   5.226
 7947TIP3   OH223785   3.401   1.828   2.585
 7947TIP3    H123786   3.445   1.753   2.625
 7947TIP3    H223787   3.466   1.863   2.524
 7948TIP3   OH223788   6.809   0.688   5.009
 7948TIP3    H123789   6.716   0.709   5.005
 7948TIP3    H223790   6.813   0.594   4.991
 7949TIP3   OH223791   3.511   0.097   5.030
 7949TIP3    H123792   3.595   0.051   5.036
 7949TIP3    H223793   3.455   0.037   4.980
 7950TIP3   OH223794   3.327   3.234   1.892
 7950TIP3    H123795   3.238   3.198   1.900
 7950TIP3    H223796   3.322   3.319   1.936
 7951TIP3   OH223797   6.770   5.837   3.792
 7951TIP3    H123798   6.708   5.772   3.827
 7951TIP3    H223799   6.811   5.875   3.869
 7952TIP3   OH223800   4.054   2.108   0.450
 7952TIP3    H123801   4.024   2.020   0.427
 7952TIP3    H223802   4.090   2.098   0.539
 7953TIP3   OH223803   0.156   6.507   2.572
 7953TIP3    H123804   0.071   6.473   2.600
 7953TIP3    H223805   0.192   6.438   2.515
 7954TIP3   OH223806   7.665   7.730   0.966
 7954TIP3    H123807   7.681   7.712   0.873
 7954TIP3    H223808   7.725   7.671   1.012
 7955TIP3   OH223809   1.714   7.773   2.930
 7955TIP3    H123810   1.693   7.850   2.983
 7955TIP3    H223811   1.630   7.732   2.912
 7956TIP3   OH223812   2.760   2.916   3.643
 7956TIP3    H123813   2.798   2.860   3.711
 7956TIP3    H223814   2.782   3.005   3.671
 7957TIP3   OH223815   2.031   2.112   6.251
 7957TIP3    H123816   2.015   2.193   6.298
 7957TIP3    H223817   2.108   2.074   6.294
 7958TIP3   OH223818   2.700   6.338   6.362
 7958TIP3    H123819   2.713   6.360   6.454
 7958TIP3    H223820   2.622   6.283   6.361
 7959TIP3   OH223821   6.537   1.952   3.879
 7959TIP3    H123822   6.542   1.978   3.787
 7959TIP3    H223823   6.473   1.881   3.881
 7960TIP3   OH223824   2.195   4.533   1.325
 7960TIP3    H123825   2.224   4.579   1.247
 7960TIP3    H223826   2.243   4.575   1.397
 7961TIP3   OH223827   2.370   4.762   6.112
 7961TIP3    H123828   2.378   4.837   6.171
 7961TIP3    H223829   2.457   4.751   6.074
 7962TIP3   OH223830   6.061   3.943   2.224
 7962TIP3    H123831   5.984   3.908   2.179
 7962TIP3    H223832   6.120   3.971   2.153
 7963TIP3   OH223833   1.185   2.342   1.049
 7963TIP3    H123834   1.234   2.419   1.019
 7963TIP3    H223835   1.102   2.378   1.081
 7964TIP3   OH223836   3.100   1.066   5.492
 7964TIP3    H123837   3.080   1.147   5.539
 7964TIP3    H223838   3.014   1.027   5.473
 7965TIP3   OH223839   5.069   4.253   5.554
 7965TIP3    H123840   5.067   4.250   5.458
 7965TIP3    H223841   5.073   4.346   5.575
 7966TIP3   OH223842   7.682   4.083   1.660
 7966TIP3    H123843   7.637   4.032   1.592
 7966TIP3    H223844   7.611   4.127   1.707
 7967TIP3   OH223845   1.168   2.619   4.949
 7967TIP3    H123846   1.166   2.540   4.894
 7967TIP3    H223847   1.083   2.661   4.932
 7968TIP3   OH223848   3.405   3.187   2.914
 7968TIP3    H123849   3.314   3.202   2.887
 7968TIP3    H223850   3.414   3.092   2.913
 7969TIP3   OH223851   5.940   5.638   5.033
 7969TIP3    H123852   5.906   5.559   5.075
 7969TIP3    H223853   5.982   5.687   5.103
 7970TIP3   OH223854   6.737   1.793   4.923
 7970TIP3    H123855   6.775   1.705   4.914
 7970TIP3    H223856   6.794   1.837   4.986
 7971TIP3   OH223857   6.718   2.419   1.226
 7971TIP3    H123858   6.661   2.493   1.247
 7971TIP3    H223859   6.760   2.444   1.143
 7972TIP3   OH223860   2.642   1.491   0.649
 7972TIP3    H123861   2.647   1.396   0.646
 7972TIP3    H223862   2.732   1.519   0.667
 7973TIP3   OH223863   2.087   7.447   3.330
 7973TIP3    H123864   1.997   7.417   3.337
 7973TIP3    H223865   2.138   7.381   3.376
 7974TIP3   OH223866   2.978   5.441   4.166
 7974TIP3    H123867   3.035   5.372   4.132
 7974TIP3    H223868   2.959   5.496   4.090
 7975TIP3   OH223869   5.844   5.377   1.951
 7975TIP3    H123870   5.905   5.450   1.963
 7975TIP3    H223871   5.850   5.355   1.859
 7976TIP3   OH223872   7.859   0.960   1.540
 7976TIP3    H123873   7.775   0.971   1.495
 7976TIP3    H223874   7.889   1.050   1.556
 7977TIP3   OH223875   6.994   4.576   2.354
 7977TIP3    H123876   7.046   4.636   2.408
 7977TIP3    H223877   7.058   4.521   2.310
 7978TIP3   OH223878   5.584   1.958   3.160
 7978TIP3    H123879   5.494   1.971   3.190
 7978TIP3    H223880   5.577   1.958   3.064
 7979TIP3   OH223881   4.724   0.684   3.213
 7979TIP3    H123882   4.698   0.776   3.213
 7979TIP3    H223883   4.808   0.683   3.259
 7980TIP3   OH223884   7.205   4.183   1.522
 7980TIP3    H123885   7.212   4.169   1.616
 7980TIP3    H223886   7.112   4.198   1.506
 7981TIP3   OH223887   6.108   3.261   5.074
 7981TIP3    H123888   6.061   3.191   5.120
 7981TIP3    H223889   6.176   3.216   5.025
 7982TIP3   OH223890   7.996   2.020   1.917
 7982TIP3    H123891   7.971   1.928   1.906
 7982TIP3    H223892   7.999   2.055   1.829
 7983TIP3   OH223893   6.469   3.708   0.867
 7983TIP3    H123894   6.546   3.728   0.813
 7983TIP3    H223895   6.448   3.617   0.846
 7984TIP3   OH223896   5.704   7.533   4.735
 7984TIP3    H123897   5.787   7.500   4.770
 7984TIP3    H223898   5.720   7.545   4.642
 7985TIP3   OH223899   2.499   6.650   1.348
 7985TIP3    H123900   2.570   6.714   1.338
 7985TIP3    H223901   2.431   6.697   1.396
 7986TIP3   OH223902   7.825   2.550   1.027
 7986TIP3    H123903   7.836   2.467   1.074
 7986TIP3    H223904   7.800   2.612   1.095
 7987TIP3   OH223905   4.950   2.279   0.830
 7987TIP3    H123906   4.950   2.345   0.899
 7987TIP3    H223907   4.945   2.329   0.749
 7988TIP3   OH223908   1.086   0.619   5.691
 7988TIP3    H123909   1.062   0.605   5.782
 7988TIP3    H223910   1.004   0.641   5.647
 7989TIP3   OH223911   0.238   5.364   6.204
 7989TIP3    H123912   0.251   5.269   6.201
 7989TIP3    H223913   0.285   5.398   6.128
 7990TIP3   OH223914   6.443   4.097   0.726
 7990TIP3    H123915   6.394   4.021   0.756
 7990TIP3    H223916   6.427   4.099   0.631
 7991TIP3   OH223917  -0.010   4.753   3.733
 7991TIP3    H123918   0.051   4.821   3.760
 7991TIP3    H223919   0.001   4.747   3.638
 7992TIP3   OH223920   6.396   6.950   5.178
 7992TIP3    H123921   6.326   7.010   5.154
 7992TIP3    H223922   6.360   6.899   5.251
 7993TIP3   OH223923   4.708   2.492   2.159
 7993TIP3    H123924   4.760   2.520   2.234
 7993TIP3    H223925   4.751   2.413   2.128
 7994TIP3   OH223926   2.962   6.017   4.930
 7994TIP3    H123927   2.928   5.954   4.865
 7994TIP3    H223928   2.921   6.100   4.906
 7995TIP3   OH223929   7.590   2.268   5.165
 7995TIP3    H123930   7.547   2.209   5.226
 7995TIP3    H223931   7.684   2.249   5.174
 7996TIP3   OH223932   4.815   4.224   2.288
 7996TIP3    H123933   4.833   4.200   2.379
 7996TIP3    H223934   4.901   4.222   2.245
 7997TIP3   OH223935   1.877   2.288   3.992
 7997TIP3    H123936   1.923   2.368   4.016
 7997TIP3    H223937   1.929   2.218   4.029
 7998TIP3   OH223938   4.121   0.300   2.427
 7998TIP3    H123939   4.064   0.376   2.413
 7998TIP3    H223940   4.153   0.311   2.517
 7999TIP3   OH223941   5.721   1.984   0.921
 7999TIP3    H123942   5.664   1.936   0.861
 7999TIP3    H223943   5.677   2.068   0.935
 8000TIP3   OH223944   4.445   7.393   5.822
 8000TIP3    H123945   4.409   7.313   5.782
 8000TIP3    H223946   4.368   7.439   5.856
 8001TIP3   OH223947   1.373   0.030   2.712
 8001TIP3    H123948   1.289  -0.012   2.699
 8001TIP3    H223949   1.352   0.119   2.742
 8002TIP3   OH223950   4.669   0.297   4.053
 8002TIP3    H123951   4.663   0.202   4.057
 8002TIP3    H223952   4.722   0.315   3.975
 8003TIP3   OH223953   8.286   6.561   6.518
 8003TIP3    H123954   8.300   6.611   6.437
 8003TIP3    H223955   8.192   6.567   6.534
 8004TIP3   OH223956   7.896   3.213   2.853
 8004TIP3    H123957   7.975   3.176   2.816
 8004TIP3    H223958   7.853   3.139   2.897
 8005TIP3   OH223959   1.035   0.679   0.307
 8005TIP3    H123960   1.067   0.763   0.276
 8005TIP3    H223961   1.065   0.616   0.242
 8006TIP3   OH223962   1.670   1.006   5.165
 8006TIP3    H123963   1.757   0.990   5.202
 8006TIP3    H223964   1.677   1.091   5.123
 8007TIP3   OH223965   0.631   6.914   4.330
 8007TIP3    H123966   0.679   6.908   4.247
 8007TIP3    H223967   0.569   6.986   4.317
 8008TIP3   OH223968   2.232   7.551   3.549
 8008TIP3    H123969   2.167   7.559   3.480
 8008TIP3    H223970   2.224   7.461   3.580
 8009TIP3   OH223971   2.386   7.827   1.818
 8009TIP3    H123972   2.397   7.770   1.742
 8009TIP3    H223973   2.475   7.856   1.838
 8010TIP3   OH223974   8.271   1.511   4.770
 8010TIP3    H123975   8.356   1.508   4.727
 8010TIP3    H223976   8.291   1.526   4.863
 8011TIP3   OH223977   4.855   5.909   6.027
 8011TIP3    H123978   4.842   5.830   5.974
 8011TIP3    H223979   4.776   5.916   6.080
 8012TIP3   OH223980   3.010   6.600   2.104
 8012TIP3    H123981   3.093   6.561   2.132
 8012TIP3    H223982   2.954   6.525   2.085
 8013TIP3   OH223983   1.666   5.008   0.089
 8013TIP3    H123984   1.753   5.021   0.128
 8013TIP3    H223985   1.641   5.095   0.058
 8014TIP3   OH223986   2.600   0.349   0.499
 8014TIP3    H123987   2.655   0.402   0.441
 8014TIP3    H223988   2.640   0.358   0.585
 8015TIP3   OH223989   6.811   4.899   2.736
 8015TIP3    H123990   6.800   4.991   2.715
 8015TIP3    H223991   6.728   4.872   2.775
 8016TIP3   OH223992   2.942   3.419   2.289
 8016TIP3    H123993   3.028   3.400   2.249
 8016TIP3    H223994   2.913   3.499   2.247
 8017TIP3   OH223995   6.717   5.806   0.607
 8017TIP3    H123996   6.702   5.868   0.535
 8017TIP3    H223997   6.630   5.782   0.637
 8018TIP3   OH223998   1.849   0.690   3.164
 8018TIP3    H123999   1.812   0.607   3.192
 8018TIP3    H224000   1.791   0.756   3.201
 8019TIP3   OH224001   1.602   4.384   4.543
 8019TIP3    H124002   1.553   4.355   4.619
 8019TIP3    H224003   1.680   4.330   4.541
 8020TIP3   OH224004   3.808   1.505   4.062
 8020TIP3    H124005   3.893   1.548   4.059
 8020TIP3    H224006   3.750   1.563   4.014
 8021TIP3   OH224007   3.007   1.092   4.676
 8021TIP3    H124008   3.100   1.071   4.664
 8021TIP3    H224009   2.995   1.174   4.629
 8022TIP3   OH224010   5.305   1.015   4.379
 8022TIP3    H124011   5.254   1.096   4.387
 8022TIP3    H224012   5.266   0.969   4.305
 8023TIP3   OH224013   6.798   4.544   4.851
 8023TIP3    H124014   6.820   4.581   4.937
 8023TIP3    H224015   6.870   4.573   4.794
 8024TIP3   OH224016   5.159   4.829   1.194
 8024TIP3    H124017   5.181   4.890   1.124
 8024TIP3    H224018   5.143   4.884   1.270
 8025TIP3   OH224019   2.851   1.269   4.898
 8025TIP3    H124020   2.933   1.319   4.893
 8025TIP3    H224021   2.878   1.178   4.908
 8026TIP3   OH224022   2.310   3.723   2.896
 8026TIP3    H124023   2.232   3.771   2.925
 8026TIP3    H224024   2.377   3.790   2.884
 8027TIP3   OH224025   1.125   5.645   3.557
 8027TIP3    H124026   1.136   5.551   3.567
 8027TIP3    H224027   1.030   5.659   3.557
 8028TIP3   OH224028   4.499   6.699   6.533
 8028TIP3    H124029   4.515   6.618   6.583
 8028TIP3    H224030   4.557   6.763   6.574
 8029TIP3   OH224031   7.975   0.301   1.016
 8029TIP3    H124032   8.029   0.343   0.949
 8029TIP3    H224033   8.022   0.220   1.037
 8030TIP3   OH224034   7.130   1.336   3.746
 8030TIP3    H124035   7.126   1.257   3.692
 8030TIP3    H224036   7.061   1.392   3.711
 8031TIP3   OH224037   0.523   2.341   5.143
 8031TIP3    H124038   0.614   2.332   5.172
 8031TIP3    H224039   0.472   2.291   5.207
 8032TIP3   OH224040   0.189   1.866   3.583
 8032TIP3    H124041   0.116   1.842   3.525
 8032TIP3    H224042   0.228   1.783   3.608
 8033TIP3   OH224043   4.741   5.806   1.224
 8033TIP3    H124044   4.653   5.840   1.243
 8033TIP3    H224045   4.742   5.719   1.263
 8034TIP3   OH224046   5.055   0.914   6.271
 8034TIP3    H124047   5.065   0.906   6.366
 8034TIP3    H224048   5.061   1.008   6.255
 8035TIP3   OH224049   5.308   7.423   0.996
 8035TIP3    H124050   5.325   7.513   0.967
 8035TIP3    H224051   5.306   7.372   0.915
 8036TIP3   OH224052   6.796   6.554   0.295
 8036TIP3    H124053   6.823   6.645   0.306
 8036TIP3    H224054   6.723   6.557   0.235
 8037TIP3   OH224055   2.717   2.951   5.889
 8037TIP3    H124056   2.797   2.899   5.885
 8037TIP3    H224057   2.746   3.041   5.880
 8038TIP3   OH224058   2.259   4.015   1.246
 8038TIP3    H124059   2.266   4.098   1.294
 8038TIP3    H224060   2.339   4.011   1.194
 8039TIP3   OH224061   6.467   3.174   4.193
 8039TIP3    H124062   6.534   3.229   4.233
 8039TIP3    H224063   6.515   3.121   4.129
 8040TIP3   OH224064   6.964   2.763   1.899
 8040TIP3    H124065   7.003   2.850   1.902
 8040TIP3    H224066   6.889   2.772   1.841
 8041TIP3   OH224067   6.273   1.421   3.681
 8041TIP3    H124068   6.219   1.398   3.757
 8041TIP3    H224069   6.299   1.336   3.645
 8042TIP3   OH224070   2.473   2.097   3.749
 8042TIP3    H124071   2.450   2.091   3.656
 8042TIP3    H224072   2.405   2.048   3.794
 8043TIP3   OH224073   6.986   4.905   6.341
 8043TIP3    H124074   6.971   4.827   6.288
 8043TIP3    H224075   6.978   4.978   6.279
 8044TIP3   OH224076   1.849   3.286   1.397
 8044TIP3    H124077   1.851   3.246   1.484
 8044TIP3    H224078   1.762   3.264   1.363
 8045TIP3   OH224079   1.594   2.253   0.573
 8045TIP3    H124080   1.507   2.213   0.572
 8045TIP3    H224081   1.655   2.179   0.563
 8046TIP3   OH224082   1.294   7.308   3.937
 8046TIP3    H124083   1.227   7.336   3.874
 8046TIP3    H224084   1.244   7.273   4.011
 8047TIP3   OH224085   4.306   5.511   4.195
 8047TIP3    H124086   4.323   5.419   4.172
 8047TIP3    H224087   4.391   5.554   4.188
 8048TIP3   OH224088   4.272   7.154   2.059
 8048TIP3    H124089   4.220   7.234   2.064
 8048TIP3    H224090   4.321   7.152   2.141
 8049TIP3   OH224091   4.144   2.785   0.907
 8049TIP3    H124092   4.077   2.741   0.959
 8049TIP3    H224093   4.158   2.727   0.832
 8050TIP3   OH224094   8.100   2.669   4.867
 8050TIP3    H124095   8.025   2.611   4.881
 8050TIP3    H224096   8.159   2.618   4.811
 8051TIP3   OH224097   4.841   1.785   0.566
 8051TIP3    H124098   4.812   1.871   0.535
 8051TIP3    H224099   4.933   1.797   0.586
 8052TIP3   OH224100   0.565   2.887   2.315
 8052TIP3    H124101   0.620   2.812   2.291
 8052TIP3    H224102   0.510   2.855   2.386
 8053TIP3   OH224103   4.271   7.026   5.407
 8053TIP3    H124104   4.200   7.089   5.395
 8053TIP3    H224105   4.250   6.954   5.349
 8054TIP3   OH224106   6.689   6.851   6.080
 8054TIP3    H124107   6.676   6.756   6.082
 8054TIP3    H224108   6.664   6.877   5.992
 8055TIP3   OH224109   7.055   5.342   3.104
 8055TIP3    H124110   7.032   5.416   3.160
 8055TIP3    H224111   7.053   5.266   3.163
 8056TIP3   OH224112   5.794   3.564   1.291
 8056TIP3    H124113   5.800   3.626   1.218
 8056TIP3    H224114   5.884   3.550   1.318
 8057TIP3   OH224115   6.269   4.991   0.247
 8057TIP3    H124116   6.344   4.971   0.191
 8057TIP3    H224117   6.193   4.981   0.190
 8058TIP3   OH224118   5.014   1.107   0.438
 8058TIP3    H124119   4.983   1.196   0.420
 8058TIP3    H224120   4.960   1.077   0.510
 8059TIP3   OH224121   1.932   0.507   5.261
 8059TIP3    H124122   1.927   0.501   5.165
 8059TIP3    H224123   2.025   0.510   5.280
 8060TIP3   OH224124   5.563   1.685   4.435
 8060TIP3    H124125   5.555   1.699   4.530
 8060TIP3    H224126   5.551   1.591   4.424
 8061TIP3   OH224127   4.623   3.860   4.370
 8061TIP3    H124128   4.586   3.799   4.305
 8061TIP3    H224129   4.714   3.871   4.344
 8062TIP3   OH224130   4.074   3.548   6.035
 8062TIP3    H124131   4.147   3.562   6.096
 8062TIP3    H224132   4.079   3.455   6.013
 8063TIP3   OH224133   5.640   1.867   5.354
 8063TIP3    H124134   5.574   1.799   5.371
 8063TIP3    H224135   5.603   1.945   5.396
 8064TIP3   OH224136   7.969   6.819   0.720
 8064TIP3    H124137   8.061   6.817   0.692
 8064TIP3    H224138   7.944   6.911   0.713
 8065TIP3   OH224139   4.120   0.464   6.244
 8065TIP3    H124140   4.053   0.406   6.282
 8065TIP3    H224141   4.125   0.538   6.304
 8066TIP3   OH224142   8.062   3.690   1.642
 8066TIP3    H124143   7.972   3.658   1.629
 8066TIP3    H224144   8.100   3.630   1.705
 8067TIP3   OH224145   1.498   2.402   2.189
 8067TIP3    H124146   1.411   2.416   2.225
 8067TIP3    H224147   1.550   2.371   2.263
 8068TIP3   OH224148   7.370   2.126   4.492
 8068TIP3    H124149   7.291   2.124   4.438
 8068TIP3    H224150   7.367   2.211   4.536
 8069TIP3   OH224151   4.022   0.396   1.760
 8069TIP3    H124152   4.068   0.464   1.810
 8069TIP3    H224153   3.930   0.421   1.766
 8070TIP3   OH224154   1.500   3.726   1.457
 8070TIP3    H124155   1.549   3.665   1.402
 8070TIP3    H224156   1.561   3.799   1.470
 8071TIP3   OH224157   2.776   5.764   0.591
 8071TIP3    H124158   2.825   5.682   0.591
 8071TIP3    H224159   2.703   5.748   0.532
 8072TIP3   OH224160   0.153   1.015   2.255
 8072TIP3    H124161   0.191   1.074   2.321
 8072TIP3    H224162   0.157   1.065   2.174
 8073TIP3   OH224163   2.028   5.368   0.668
 8073TIP3    H124164   2.052   5.402   0.582
 8073TIP3    H224165   1.933   5.361   0.665
 8074TIP3   OH224166   0.547   1.409   3.644
 8074TIP3    H124167   0.518   1.475   3.581
 8074TIP3    H224168   0.642   1.418   3.647
 8075TIP3   OH224169   7.645   3.681   0.482
 8075TIP3    H124170   7.624   3.587   0.482
 8075TIP3    H224171   7.705   3.692   0.409
 8076TIP3   OH224172   2.191   6.980   0.268
 8076TIP3    H124173   2.166   6.971   0.359
 8076TIP3    H224174   2.249   7.056   0.265
 8077TIP3   OH224175   5.980   5.474   5.597
 8077TIP3    H124176   5.989   5.441   5.686
 8077TIP3    H224177   5.945   5.400   5.547
 8078TIP3   OH224178   5.668   6.507   4.298
 8078TIP3    H124179   5.701   6.511   4.388
 8078TIP3    H224180   5.576   6.531   4.305
 8079TIP3   OH224181   3.830   6.092   6.451
 8079TIP3    H124182   3.896   6.064   6.514
 8079TIP3    H224183   3.819   6.186   6.467
 8080TIP3   OH224184   3.540   2.659   1.949
 8080TIP3    H124185   3.488   2.739   1.945
 8080TIP3    H224186   3.485   2.593   1.906
 8081TIP3   OH224187   2.584   3.652   5.801
 8081TIP3    H124188   2.662   3.689   5.761
 8081TIP3    H224189   2.518   3.654   5.732
 8082TIP3   OH224190   0.322   2.951   0.683
 8082TIP3    H124191   0.236   2.939   0.641
 8082TIP3    H224192   0.313   2.910   0.768
 8083TIP3   OH224193   4.809   0.240   1.491
 8083TIP3    H124194   4.729   0.243   1.438
 8083TIP3    H224195   4.828   0.332   1.510
 8084TIP3   OH224196   3.249   6.009   4.976
 8084TIP3    H124197   3.155   5.993   4.963
 8084TIP3    H224198   3.287   5.997   4.889
 8085TIP3   OH224199   3.670   7.196   4.438
 8085TIP3    H124200   3.615   7.269   4.410
 8085TIP3    H224201   3.608   7.127   4.462
 8086TIP3   OH224202   2.940   0.560   2.522
 8086TIP3    H124203   2.991   0.605   2.590
 8086TIP3    H224204   2.966   0.603   2.441
 8087TIP3   OH224205   8.098   7.330   3.900
 8087TIP3    H124206   8.096   7.267   3.973
 8087TIP3    H224207   8.006   7.342   3.877
 8088TIP3   OH224208   6.129   3.773   5.036
 8088TIP3    H124209   6.141   3.699   4.977
 8088TIP3    H224210   6.036   3.773   5.057
 8089TIP3   OH224211   1.700   7.198   1.249
 8089TIP3    H124212   1.685   7.290   1.225
 8089TIP3    H224213   1.629   7.178   1.310
 8090TIP3   OH224214   3.680   6.571   3.412
 8090TIP3    H124215   3.611   6.527   3.363
 8090TIP3    H224216   3.659   6.664   3.405
 8091TIP3   OH224217   5.214   2.111   0.051
 8091TIP3    H124218   5.156   2.133   0.124
 8091TIP3    H224219   5.164   2.046   0.000
 8092TIP3   OH224220   2.114   2.577   6.752
 8092TIP3    H124221   2.069   2.573   6.667
 8092TIP3    H224222   2.054   2.625   6.808
 8093TIP3   OH224223   0.179   3.814   6.668
 8093TIP3    H124224   0.262   3.813   6.714
 8093TIP3    H224225   0.114   3.788   6.734
 8094TIP3   OH224226   1.501   2.682   3.883
 8094TIP3    H124227   1.500   2.626   3.961
 8094TIP3    H224228   1.515   2.770   3.916
 8095TIP3   OH224229   6.162   3.223   2.806
 8095TIP3    H124230   6.201   3.267   2.730
 8095TIP3    H224231   6.195   3.272   2.881
 8096TIP3   OH224232   5.831   2.227   2.368
 8096TIP3    H124233   5.742   2.231   2.333
 8096TIP3    H224234   5.822   2.177   2.449
 8097TIP3   OH224235   8.151   2.249   5.955
 8097TIP3    H124236   8.057   2.262   5.941
 8097TIP3    H224237   8.173   2.172   5.902
 8098TIP3   OH224238   1.321  -0.004   5.498
 8098TIP3    H124239   1.374   0.052   5.440
 8098TIP3    H224240   1.231   0.008   5.468
 8099TIP3   OH224241   4.870   2.381   1.772
 8099TIP3    H124242   4.789   2.363   1.820
 8099TIP3    H224243   4.851   2.353   1.682
 8100TIP3   OH224244   6.876   6.883   1.036
 8100TIP3    H124245   6.800   6.940   1.022
 8100TIP3    H224246   6.894   6.891   1.130
 8101TIP3   OH224247   7.366   4.018   5.937
 8101TIP3    H124248   7.285   3.972   5.956
 8101TIP3    H224249   7.339   4.107   5.917
 8102TIP3   OH224250   4.648   4.143   4.201
 8102TIP3    H124251   4.711   4.072   4.214
 8102TIP3    H224252   4.696   4.222   4.227
 8103TIP3   OH224253   5.951   0.151   5.647
 8103TIP3    H124254   6.014   0.143   5.575
 8103TIP3    H224255   5.880   0.204   5.611
 8104TIP3   OH224256   6.250   5.442   4.815
 8104TIP3    H124257   6.300   5.418   4.737
 8104TIP3    H224258   6.174   5.488   4.781
 8105TIP3   OH224259   3.657   4.971   2.453
 8105TIP3    H124260   3.613   4.950   2.536
 8105TIP3    H224261   3.728   5.030   2.478
 8106TIP3   OH224262   2.116   5.804   4.708
 8106TIP3    H124263   2.105   5.812   4.802
 8106TIP3    H224264   2.142   5.891   4.678
 8107TIP3   OH224265   2.732   0.770   4.136
 8107TIP3    H124266   2.783   0.691   4.118
 8107TIP3    H224267   2.783   0.841   4.096
 8108TIP3   OH224268   7.723   7.117   4.690
 8108TIP3    H124269   7.776   7.192   4.718
 8108TIP3    H224270   7.657   7.108   4.759
 8109TIP3   OH224271   7.334   2.109   6.567
 8109TIP3    H124272   7.365   2.136   6.481
 8109TIP3    H224273   7.330   2.190   6.618
 8110TIP3   OH224274   6.722   1.317   0.912
 8110TIP3    H124275   6.781   1.248   0.941
 8110TIP3    H224276   6.778   1.380   0.867
 8111TIP3   OH224277   3.259   4.997  -0.018
 8111TIP3    H124278   3.282   5.080  -0.059
 8111TIP3    H224279   3.309   4.997   0.064
 8112TIP3   OH224280   0.163   4.930   5.493
 8112TIP3    H124281   0.172   4.948   5.586
 8112TIP3    H224282   0.189   5.012   5.450
 8113TIP3   OH224283   6.591   5.982   1.173
 8113TIP3    H124284   6.553   6.068   1.157
 8113TIP3    H224285   6.679   6.000   1.207
 8114TIP3   OH224286   6.801   7.587   5.968
 8114TIP3    H124287   6.803   7.645   6.045
 8114TIP3    H224288   6.833   7.641   5.896
 8115TIP3   OH224289   4.934   0.257   4.775
 8115TIP3    H124290   4.933   0.162   4.781
 8115TIP3    H224291   5.025   0.282   4.791
 8116TIP3   OH224292   2.382   6.106   0.283
 8116TIP3    H124293   2.376   6.174   0.349
 8116TIP3    H224294   2.371   6.024   0.331
 8117TIP3   OH224295   4.992   1.483   3.006
 8117TIP3    H124296   4.981   1.459   2.914
 8117TIP3    H224297   5.053   1.556   3.005
 8118TIP3   OH224298   0.722   1.140   1.683
 8118TIP3    H124299   0.648   1.200   1.681
 8118TIP3    H224300   0.754   1.138   1.593
 8119TIP3   OH224301   0.916   4.649   4.812
 8119TIP3    H124302   1.005   4.677   4.834
 8119TIP3    H224303   0.917   4.555   4.827
 8120TIP3   OH224304   2.173   6.511   1.159
 8120TIP3    H124305   2.083   6.502   1.128
 8120TIP3    H224306   2.185   6.605   1.173
 8121TIP3   OH224307   7.280   4.924   6.750
 8121TIP3    H124308   7.211   4.977   6.790
 8121TIP3    H224309   7.296   4.965   6.665
 8122TIP3   OH224310   7.373   4.040   3.852
 8122TIP3    H124311   7.350   4.104   3.784
 8122TIP3    H224312   7.443   4.082   3.902
 8123TIP3   OH224313   1.981   5.082   4.030
 8123TIP3    H124314   2.055   5.059   4.086
 8123TIP3    H224315   2.001   5.042   3.946
 8124TIP3   OH224316   6.021   1.936   5.126
 8124TIP3    H124317   5.968   2.009   5.093
 8124TIP3    H224318   5.957   1.868   5.149
 8125TIP3   OH224319   0.544   2.845   5.234
 8125TIP3    H124320   0.619   2.836   5.174
 8125TIP3    H224321   0.548   2.936   5.263
 8126TIP3   OH224322   6.294   0.109   4.436
 8126TIP3    H124323   6.298   0.062   4.354
 8126TIP3    H224324   6.264   0.197   4.412
 8127TIP3   OH224325   4.546   3.050   2.469
 8127TIP3    H124326   4.468   3.064   2.415
 8127TIP3    H224327   4.589   3.135   2.472
 8128TIP3   OH224328   3.818   5.574   0.072
 8128TIP3    H124329   3.813   5.578   0.168
 8128TIP3    H224330   3.878   5.644   0.048
 8129TIP3   OH224331   8.267   5.078   0.319
 8129TIP3    H124332   8.230   5.019   0.253
 8129TIP3    H224333   8.258   5.030   0.401
 8130TIP3   OH224334   7.085   1.581   2.310
 8130TIP3    H124335   7.026   1.584   2.385
 8130TIP3    H224336   7.162   1.631   2.338
 8131TIP3   OH224337   6.892   1.104   3.793
 8131TIP3    H124338   6.917   1.012   3.797
 8131TIP3    H224339   6.950   1.142   3.727
 8132TIP3   OH224340   7.859   5.005   6.089
 8132TIP3    H124341   7.945   5.023   6.051
 8132TIP3    H224342   7.835   5.086   6.134
 8133TIP3   OH224343   0.718   5.919   1.108
 8133TIP3    H124344   0.630   5.941   1.139
 8133TIP3    H224345   0.749   5.999   1.064
 8134TIP3   OH224346   2.882   1.051   4.331
 8134TIP3    H124347   2.923   1.136   4.344
 8134TIP3    H224348   2.797   1.059   4.374
 8135TIP3   OH224349   7.264   7.400   3.702
 8135TIP3    H124350   7.238   7.317   3.743
 8135TIP3    H224351   7.288   7.377   3.613
 8136TIP3   OH224352   3.037   3.901   0.034
 8136TIP3    H124353   2.976   3.923   0.104
 8136TIP3    H224354   3.000   3.823  -0.008
 8137TIP3   OH224355   2.458   2.963   6.390
 8137TIP3    H124356   2.465   2.867   6.385
 8137TIP3    H224357   2.438   2.980   6.482
 8138TIP3   OH224358   5.062   1.984   2.538
 8138TIP3    H124359   5.074   2.078   2.528
 8138TIP3    H224360   5.045   1.952   2.449
 8139TIP3   OH224361   1.868   1.220   3.750
 8139TIP3    H124362   1.935   1.288   3.755
 8139TIP3    H224363   1.913   1.139   3.775
 8140TIP3   OH224364   1.146   6.364   1.391
 8140TIP3    H124365   1.081   6.423   1.353
 8140TIP3    H224366   1.182   6.316   1.317
 8141TIP3   OH224367   2.834   4.931   5.055
 8141TIP3    H124368   2.742   4.929   5.081
 8141TIP3    H224369   2.859   5.023   5.063
 8142TIP3   OH224370   3.681   4.273   5.405
 8142TIP3    H124371   3.650   4.299   5.318
 8142TIP3    H224372   3.647   4.339   5.465
 8143TIP3   OH224373   4.742   0.986   2.141
 8143TIP3    H124374   4.749   1.020   2.052
 8143TIP3    H224375   4.830   0.953   2.161
 8144TIP3   OH224376   1.848   2.143   0.105
 8144TIP3    H124377   1.851   2.089   0.026
 8144TIP3    H224378   1.820   2.083   0.174
 8145TIP3   OH224379   4.369   3.397   2.032
 8145TIP3    H124380   4.296   3.336   2.027
 8145TIP3    H224381   4.347   3.466   1.969
 8146TIP3   OH224382   8.101   5.324   5.075
 8146TIP3    H124383   8.164   5.286   5.137
 8146TIP3    H224384   8.034   5.363   5.131
 8147TIP3   OH224385   7.086   1.587   6.296
 8147TIP3    H124386   7.175   1.552   6.289
 8147TIP3    H224387   7.098   1.682   6.291
 8148TIP3   OH224388   3.533   4.704   2.891
 8148TIP3    H124389   3.455   4.759   2.890
 8148TIP3    H224390   3.519   4.643   2.818
 8149TIP3   OH224391   1.370   4.526   5.881
 8149TIP3    H124392   1.360   4.603   5.825
 8149TIP3    H224393   1.350   4.452   5.824
 8150TIP3   OH224394   0.656   4.686   5.480
 8150TIP3    H124395   0.723   4.753   5.467
 8150TIP3    H224396   0.580   4.733   5.513
 8151TIP3   OH224397   2.412   1.626   2.471
 8151TIP3    H124398   2.359   1.687   2.522
 8151TIP3    H224399   2.383   1.640   2.380
 8152TIP3   OH224400   1.990   6.872   4.167
 8152TIP3    H124401   1.991   6.967   4.165
 8152TIP3    H224402   2.021   6.846   4.080
 8153TIP3   OH224403   0.289   7.111   3.175
 8153TIP3    H124404   0.380   7.100   3.147
 8153TIP3    H224405   0.289   7.192   3.226
 8154TIP3   OH224406   0.337   7.205   0.414
 8154TIP3    H124407   0.352   7.118   0.376
 8154TIP3    H224408   0.415   7.255   0.390
 8155TIP3   OH224409   7.012   4.719   4.279
 8155TIP3    H124410   7.105   4.700   4.269
 8155TIP3    H224411   6.978   4.646   4.330
 8156TIP3   OH224412   6.121   0.153   1.244
 8156TIP3    H124413   6.074   0.175   1.163
 8156TIP3    H224414   6.141   0.238   1.283
 8157TIP3   OH224415   0.208   0.650   1.097
 8157TIP3    H124416   0.288   0.701   1.088
 8157TIP3    H224417   0.203   0.629   1.190
 8158TIP3   OH224418   5.673   4.675   2.881
 8158TIP3    H124419   5.752   4.706   2.837
 8158TIP3    H224420   5.684   4.703   2.972
 8159TIP3   OH224421   2.626   0.950   6.346
 8159TIP3    H124422   2.606   0.857   6.357
 8159TIP3    H224423   2.681   0.953   6.267
 8160TIP3   OH224424   1.401   0.930   4.125
 8160TIP3    H124425   1.457   0.999   4.162
 8160TIP3    H224426   1.373   0.964   4.041
 8161TIP3   OH224427   6.457   7.162   4.571
 8161TIP3    H124428   6.474   7.203   4.656
 8161TIP3    H224429   6.407   7.226   4.522
 8162TIP3   OH224430   4.260   1.073   5.599
 8162TIP3    H124431   4.225   1.001   5.547
 8162TIP3    H224432   4.184   1.129   5.617
 8163TIP3   OH224433   0.815   0.514   1.973
 8163TIP3    H124434   0.797   0.541   1.883
 8163TIP3    H224435   0.729   0.504   2.013
 8164TIP3   OH224436   6.621   5.021   3.315
 8164TIP3    H124437   6.675   4.945   3.294
 8164TIP3    H224438   6.602   5.012   3.408
 8165TIP3   OH224439   4.328   7.259   4.956
 8165TIP3    H124440   4.268   7.189   4.932
 8165TIP3    H224441   4.413   7.215   4.967
 8166TIP3   OH224442   2.410   6.972   2.436
 8166TIP3    H124443   2.464   7.050   2.429
 8166TIP3    H224444   2.470   6.903   2.464
 8167TIP3   OH224445   7.280   7.052   2.075
 8167TIP3    H124446   7.223   6.997   2.022
 8167TIP3    H224447   7.224   7.123   2.105
 8168TIP3   OH224448   6.487   6.001   3.672
 8168TIP3    H124449   6.540   6.034   3.744
 8168TIP3    H224450   6.533   6.030   3.593
 8169TIP3   OH224451   6.366   0.436   2.653
 8169TIP3    H124452   6.291   0.494   2.640
 8169TIP3    H224453   6.330   0.359   2.696
 8170TIP3   OH224454   5.288   4.326   6.388
 8170TIP3    H124455   5.293   4.330   6.483
 8170TIP3    H224456   5.234   4.249   6.370
 8171TIP3   OH224457   4.826   1.992   2.684
 8171TIP3    H124458   4.784   2.071   2.651
 8171TIP3    H224459   4.909   1.988   2.636
 8172TIP3   OH224460   5.846   3.355   1.611
 8172TIP3    H124461   5.804   3.276   1.645
 8172TIP3    H224462   5.775   3.402   1.566
 8173TIP3   OH224463   5.812   1.191   3.017
 8173TIP3    H124464   5.834   1.171   3.108
 8173TIP3    H224465   5.730   1.240   3.022
 8174TIP3   OH224466   2.623   1.858   3.527
 8174TIP3    H124467   2.656   1.864   3.437
 8174TIP3    H224468   2.529   1.841   3.516
 8175TIP3   OH224469   2.036   2.022   2.525
 8175TIP3    H124470   2.100   2.021   2.596
 8175TIP3    H224471   2.023   2.115   2.505
 8176TIP3   OH224472   2.880   2.951   4.341
 8176TIP3    H124473   2.835   2.897   4.407
 8176TIP3    H224474   2.811   3.006   4.304
 8177TIP3   OH224475   4.198   7.424   3.215
 8177TIP3    H124476   4.237   7.505   3.180
 8177TIP3    H224477   4.111   7.450   3.244
 8178TIP3   OH224478   5.689   4.598   6.430
 8178TIP3    H124479   5.648   4.551   6.502
 8178TIP3    H224480   5.652   4.559   6.351
 8179TIP3   OH224481   3.334  -0.019   0.819
 8179TIP3    H124482   3.247   0.012   0.846
 8179TIP3    H224483   3.371   0.053   0.769
 8180TIP3   OH224484   8.255   7.566   3.361
 8180TIP3    H124485   8.199   7.602   3.292
 8180TIP3    H224486   8.195   7.549   3.434
 8181TIP3   OH224487   1.738   0.926   5.573
 8181TIP3    H124488   1.735   0.888   5.661
 8181TIP3    H224489   1.648   0.916   5.540
 8182TIP3   OH224490   3.953   7.271   3.499
 8182TIP3    H124491   3.899   7.264   3.421
 8182TIP3    H224492   3.921   7.349   3.545
 8183TIP3   OH224493   2.847   1.369   5.157
 8183TIP3    H124494   2.817   1.305   5.093
 8183TIP3    H224495   2.766   1.410   5.189
 8184TIP3   OH224496   7.701   5.760   0.514
 8184TIP3    H124497   7.680   5.788   0.425
 8184TIP3    H224498   7.687   5.839   0.567
 8185TIP3   OH224499   7.521   2.762   4.104
 8185TIP3    H124500   7.459   2.833   4.084
 8185TIP3    H224501   7.603   2.807   4.125
 8186TIP3   OH224502   0.517   4.042   4.356
 8186TIP3    H124503   0.466   4.037   4.437
 8186TIP3    H224504   0.494   3.963   4.308
 8187TIP3   OH224505   0.459   0.271   6.223
 8187TIP3    H124506   0.428   0.200   6.279
 8187TIP3    H224507   0.554   0.259   6.219
 8188TIP3   OH224508   3.772   1.405   0.543
 8188TIP3    H124509   3.796   1.427   0.633
 8188TIP3    H224510   3.681   1.431   0.534
 8189TIP3   OH224511   5.266   1.009   5.820
 8189TIP3    H124512   5.261   0.955   5.899
 8189TIP3    H224513   5.178   1.005   5.783
 8190TIP3   OH224514   7.921   5.058   3.776
 8190TIP3    H124515   7.970   5.022   3.702
 8190TIP3    H224516   7.909   4.983   3.835
 8191TIP3   OH224517   1.178   7.412   4.316
 8191TIP3    H124518   1.156   7.325   4.283
 8191TIP3    H224519   1.095   7.458   4.320
 8192TIP3   OH224520   3.273   5.296   3.730
 8192TIP3    H124521   3.281   5.313   3.636
 8192TIP3    H224522   3.235   5.209   3.736
 8193TIP3   OH224523   4.837   1.511   1.914
 8193TIP3    H124524   4.819   1.569   1.840
 8193TIP3    H224525   4.921   1.540   1.948
 8194TIP3   OH224526   7.813   1.168   6.161
 8194TIP3    H124527   7.814   1.096   6.098
 8194TIP3    H224528   7.732   1.155   6.211
 8195TIP3   OH224529   3.285   1.449   2.062
 8195TIP3    H124530   3.362   1.487   2.018
 8195TIP3    H224531   3.239   1.525   2.098
 8196TIP3   OH224532   1.232   7.695   1.346
 8196TIP3    H124533   1.160   7.679   1.285
 8196TIP3    H224534   1.237   7.791   1.352
 8197TIP3   OH224535   4.959   4.268   1.718
 8197TIP3    H124536   4.905   4.292   1.793
 8197TIP3    H224537   4.916   4.310   1.643
 8198TIP3   OH224538   6.791   6.982   2.610
 8198TIP3    H124539   6.873   7.006   2.653
 8198TIP3    H224540   6.773   7.055   2.551
 8199TIP3   OH224541   8.171   1.280   4.671
 8199TIP3    H124542   8.196   1.293   4.579
 8199TIP3    H224543   8.206   1.357   4.716
 8200TIP3   OH224544   0.773   2.437   3.763
 8200TIP3    H124545   0.780   2.494   3.840
 8200TIP3    H224546   0.860   2.401   3.751
 8201TIP3   OH224547   4.078   2.354   6.282
 8201TIP3    H124548   4.007   2.312   6.331
 8201TIP3    H224549   4.052   2.446   6.277
 8202TIP3   OH224550   0.915   2.226   5.525
 8202TIP3    H124551   0.924   2.159   5.592
 8202TIP3    H224552   1.000   2.230   5.482
 8203TIP3   OH224553   4.069   1.123   3.553
 8203TIP3    H124554   4.057   1.214   3.581
 8203TIP3    H224555   3.999   1.075   3.598
 8204TIP3   OH224556   1.342   5.644   1.239
 8204TIP3    H124557   1.437   5.637   1.232
 8204TIP3    H224558   1.323   5.735   1.218
 8205TIP3   OH224559   1.216   4.896   5.046
 8205TIP3    H124560   1.198   4.824   4.984
 8205TIP3    H224561   1.167   4.970   5.011
 8206TIP3   OH224562   6.862   5.893   3.531
 8206TIP3    H124563   6.823   5.876   3.616
 8206TIP3    H224564   6.956   5.904   3.549
 8207TIP3   OH224565   2.185   5.276   5.402
 8207TIP3    H124566   2.185   5.264   5.497
 8207TIP3    H224567   2.105   5.325   5.383
 8208TIP3   OH224568   8.017   6.437   1.685
 8208TIP3    H124569   7.990   6.529   1.687
 8208TIP3    H224570   8.063   6.424   1.768
 8209TIP3   OH224571   0.702   2.847   4.743
 8209TIP3    H124572   0.677   2.897   4.665
 8209TIP3    H224573   0.798   2.853   4.745
 8210TIP3   OH224574   2.944   7.621   2.026
 8210TIP3    H124575   2.904   7.536   2.042
 8210TIP3    H224576   2.902   7.680   2.089
 8211TIP3   OH224577   4.492   3.456   2.285
 8211TIP3    H124578   4.575   3.459   2.238
 8211TIP3    H224579   4.428   3.428   2.220
 8212TIP3   OH224580   6.265   7.795   5.764
 8212TIP3    H124581   6.305   7.736   5.827
 8212TIP3    H224582   6.327   7.800   5.692
 8213TIP3   OH224583   8.119   7.673   1.177
 8213TIP3    H124584   8.153   7.642   1.093
 8213TIP3    H224585   8.138   7.603   1.238
 8214TIP3   OH224586   7.683   6.645   0.368
 8214TIP3    H124587   7.655   6.609   0.283
 8214TIP3    H224588   7.675   6.571   0.429
 8215TIP3   OH224589   1.560   2.532   0.660
 8215TIP3    H124590   1.642   2.490   0.684
 8215TIP3    H224591   1.513   2.466   0.609
 8216TIP3   OH224592   6.131   6.572   6.234
 8216TIP3    H124593   6.083   6.542   6.312
 8216TIP3    H224594   6.203   6.510   6.225
 8217TIP3   OH224595   3.742   2.855   4.572
 8217TIP3    H124596   3.810   2.836   4.637
 8217TIP3    H224597   3.693   2.772   4.565
 8218TIP3   OH224598   5.377   2.802   6.493
 8218TIP3    H124599   5.314   2.869   6.518
 8218TIP3    H224600   5.458   2.850   6.478
 8219TIP3   OH224601   2.774   7.437   1.383
 8219TIP3    H124602   2.812   7.357   1.345
 8219TIP3    H224603   2.826   7.453   1.462
 8220TIP3   OH224604   3.457   0.432   3.391
 8220TIP3    H124605   3.509   0.455   3.468
 8220TIP3    H224606   3.396   0.505   3.380
 8221TIP3   OH224607   1.028   4.019   6.075
 8221TIP3    H124608   1.068   4.003   6.161
 8221TIP3    H224609   1.096   4.064   6.025
 8222TIP3   OH224610   3.270   5.811   5.569
 8222TIP3    H124611   3.222   5.794   5.650
 8222TIP3    H224612   3.354   5.767   5.581
 8223TIP3   OH224613   3.316   6.573   4.046
 8223TIP3    H124614   3.409   6.569   4.026
 8223TIP3    H224615   3.280   6.493   4.006
 8224TIP3   OH224616   7.440   5.040   1.037
 8224TIP3    H124617   7.475   5.019   1.124
 8224TIP3    H224618   7.362   5.092   1.055
 8225TIP3   OH224619   7.850   5.857   4.864
 8225TIP3    H124620   7.918   5.896   4.808
 8225TIP3    H224621   7.829   5.927   4.926
 8226TIP3   OH224622   6.408   6.579   1.280
 8226TIP3    H124623   6.389   6.644   1.347
 8226TIP3    H224624   6.429   6.500   1.328
 8227TIP3   OH224625   5.890   0.242   0.437
 8227TIP3    H124626   5.885   0.283   0.351
 8227TIP3    H224627   5.893   0.148   0.420
 8228TIP3   OH224628   1.793   7.492   1.893
 8228TIP3    H124629   1.832   7.578   1.909
 8228TIP3    H224630   1.704   7.511   1.862
 8229TIP3   OH224631   6.887   1.811   5.660
 8229TIP3    H124632   6.794   1.835   5.660
 8229TIP3    H224633   6.926   1.863   5.590
 8230TIP3   OH224634   7.659   4.433   0.240
 8230TIP3    H124635   7.710   4.360   0.205
 8230TIP3    H224636   7.606   4.463   0.166
 8231TIP3   OH224637   0.663   7.087   2.090
 8231TIP3    H124638   0.587   7.101   2.146
 8231TIP3    H224639   0.737   7.084   2.151
 8232TIP3   OH224640   4.150   6.828   5.761
 8232TIP3    H124641   4.192   6.914   5.760
 8232TIP3    H224642   4.212   6.771   5.717
 8233TIP3   OH224643   0.718   6.560   4.641
 8233TIP3    H124644   0.653   6.596   4.580
 8233TIP3    H224645   0.744   6.476   4.603
 8234TIP3   OH224646   7.637   6.465   0.585
 8234TIP3    H124647   7.569   6.401   0.610
 8234TIP3    H224648   7.631   6.533   0.652
 8235TIP3   OH224649   1.707   1.010   2.152
 8235TIP3    H124650   1.624   1.023   2.196
 8235TIP3    H224651   1.767   0.981   2.221
 8236TIP3   OH224652   3.319   1.293   1.261
 8236TIP3    H124653   3.410   1.280   1.233
 8236TIP3    H224654   3.321   1.370   1.317
 8237TIP3   OH224655   6.790   5.670   0.900
 8237TIP3    H124656   6.700   5.699   0.909
 8237TIP3    H224657   6.836   5.746   0.864
 8238TIP3   OH224658   6.593   1.874   2.683
 8238TIP3    H124659   6.535   1.858   2.609
 8238TIP3    H224660   6.610   1.968   2.681
 8239TIP3   OH224661   6.688   6.995   6.556
 8239TIP3    H124662   6.637   7.064   6.513
 8239TIP3    H224663   6.704   6.930   6.488
 8240TIP3   OH224664   7.147   2.359   3.632
 8240TIP3    H124665   7.140   2.301   3.707
 8240TIP3    H224666   7.121   2.306   3.557
 8241TIP3   OH224667   7.075   7.090   0.686
 8241TIP3    H124668   7.093   7.044   0.768
 8241TIP3    H224669   7.154   7.144   0.672
 8242TIP3   OH224670   7.049   1.624   4.603
 8242TIP3    H124671   7.125   1.567   4.597
 8242TIP3    H224672   6.990   1.579   4.664
 8243TIP3   OH224673   5.595   1.040   1.738
 8243TIP3    H124674   5.509   1.020   1.774
 8243TIP3    H224675   5.577   1.077   1.651
 8244TIP3   OH224676   5.639   0.362   2.395
 8244TIP3    H124677   5.649   0.409   2.313
 8244TIP3    H224678   5.699   0.406   2.455
 8245TIP3   OH224679   4.231   7.345   6.739
 8245TIP3    H124680   4.251   7.385   6.823
 8245TIP3    H224681   4.286   7.266   6.736
 8246TIP3   OH224682   3.892   6.716   2.640
 8246TIP3    H124683   3.821   6.771   2.608
 8246TIP3    H224684   3.953   6.777   2.682
 8247TIP3   OH224685   1.254   6.981   2.854
 8247TIP3    H124686   1.326   7.021   2.805
 8247TIP3    H224687   1.217   6.917   2.794
 8248TIP3   OH224688   8.144   4.274   4.182
 8248TIP3    H124689   8.211   4.336   4.208
 8248TIP3    H224690   8.112   4.306   4.098
 8249TIP3   OH224691   3.800   7.471   3.863
 8249TIP3    H124692   3.860   7.538   3.830
 8249TIP3    H224693   3.787   7.412   3.789
 8250TIP3   OH224694   4.963   5.093   6.149
 8250TIP3    H124695   4.936   5.183   6.167
 8250TIP3    H224696   4.975   5.053   6.235
 8251TIP3   OH224697   6.504   1.907   5.223
 8251TIP3    H124698   6.526   1.940   5.136
 8251TIP3    H224699   6.434   1.843   5.208
 8252TIP3   OH224700   7.256   7.476   2.537
 8252TIP3    H124701   7.335   7.530   2.531
 8252TIP3    H224702   7.185   7.539   2.549
 8253TIP3   OH224703   7.222   2.446   6.086
 8253TIP3    H124704   7.169   2.400   6.020
 8253TIP3    H224705   7.293   2.386   6.106
 8254TIP3   OH224706   2.927   3.800   3.632
 8254TIP3    H124707   2.880   3.879   3.604
 8254TIP3    H224708   2.926   3.743   3.556
 8255TIP3   OH224709   6.913   5.791   5.272
 8255TIP3    H124710   6.969   5.749   5.337
 8255TIP3    H224711   6.855   5.848   5.324
 8256TIP3   OH224712   0.497   5.740   1.372
 8256TIP3    H124713   0.448   5.708   1.448
 8256TIP3    H224714   0.586   5.751   1.405
 8257TIP3   OH224715   3.895   0.779   5.015
 8257TIP3    H124716   3.941   0.841   4.957
 8257TIP3    H224717   3.944   0.783   5.097
 8258TIP3   OH224718   2.164   5.481   3.370
 8258TIP3    H124719   2.124   5.564   3.398
 8258TIP3    H224720   2.182   5.493   3.277
 8259TIP3   OH224721   1.726   6.020   2.056
 8259TIP3    H124722   1.680   6.103   2.063
 8259TIP3    H224723   1.733   5.989   2.147
 8260TIP3   OH224724   7.588   2.273   4.380
 8260TIP3    H124725   7.547   2.195   4.417
 8260TIP3    H224726   7.533   2.345   4.411
 8261TIP3   OH224727   3.827   4.851   2.778
 8261TIP3    H124728   3.895   4.865   2.712
 8261TIP3    H224729   3.825   4.756   2.790
 8262TIP3   OH224730   3.359   0.767   5.258
 8262TIP3    H124731   3.324   0.801   5.176
 8262TIP3    H224732   3.453   0.754   5.241
 8263TIP3   OH224733   7.830   2.860   1.482
 8263TIP3    H124734   7.798   2.944   1.449
 8263TIP3    H224735   7.912   2.881   1.526
 8264TIP3   OH224736   7.192   0.414   4.213
 8264TIP3    H124737   7.239   0.457   4.285
 8264TIP3    H224738   7.238   0.331   4.201
 8265TIP3   OH224739   2.951   4.474   0.733
 8265TIP3    H124740   2.858   4.464   0.753
 8265TIP3    H224741   2.953   4.501   0.641
 8266TIP3   OH224742   2.441   4.909   4.022
 8266TIP3    H124743   2.501   4.941   4.089
 8266TIP3    H224744   2.482   4.934   3.939
 8267TIP3   OH224745   5.266   5.192   0.131
 8267TIP3    H124746   5.203   5.262   0.112
 8267TIP3    H224747   5.214   5.112   0.131
 8268TIP3   OH224748   6.990   7.062   1.736
 8268TIP3    H124749   6.918   7.045   1.674
 8268TIP3    H224750   7.061   7.094   1.681
 8269TIP3   OH224751   6.921   0.881   5.675
 8269TIP3    H124752   6.973   0.958   5.698
 8269TIP3    H224753   6.836   0.916   5.649
 8270TIP3   OH224754   1.207   6.758   4.206
 8270TIP3    H124755   1.299   6.737   4.189
 8270TIP3    H224756   1.169   6.772   4.120
 8271TIP3   OH224757   3.679   3.221   3.940
 8271TIP3    H124758   3.661   3.295   3.997
 8271TIP3    H224759   3.593   3.198   3.903
 8272TIP3   OH224760   1.063   3.381   5.241
 8272TIP3    H124761   1.089   3.465   5.278
 8272TIP3    H224762   0.984   3.400   5.192
 8273TIP3   OH224763   2.248   2.073   4.822
 8273TIP3    H124764   2.314   2.140   4.841
 8273TIP3    H224765   2.183   2.118   4.768
 8274TIP3   OH224766   3.845   5.755   4.417
 8274TIP3    H124767   3.836   5.669   4.458
 8274TIP3    H224768   3.922   5.793   4.458
 8275TIP3   OH224769   7.581   1.292   1.495
 8275TIP3    H124770   7.654   1.343   1.460
 8275TIP3    H224771   7.616   1.253   1.575
 8276TIP3   OH224772   6.099   2.205   6.140
 8276TIP3    H124773   6.150   2.128   6.114
 8276TIP3    H224774   6.134   2.276   6.086
 8277TIP3   OH224775   4.680   6.280   0.590
 8277TIP3    H124776   4.724   6.250   0.670
 8277TIP3    H224777   4.652   6.199   0.547
 8278TIP3   OH224778   1.863   5.213   5.593
 8278TIP3    H124779   1.924   5.275   5.631
 8278TIP3    H224780   1.884   5.129   5.635
 8279TIP3   OH224781   4.361   4.706   0.606
 8279TIP3    H124782   4.323   4.731   0.690
 8279TIP3    H224783   4.286   4.675   0.554
 8280TIP3   OH224784   8.073   5.111   4.560
 8280TIP3    H124785   8.083   5.023   4.525
 8280TIP3    H224786   8.052   5.097   4.653
 8281TIP3   OH224787   7.611   2.087   0.575
 8281TIP3    H124788   7.678   2.023   0.551
 8281TIP3    H224789   7.586   2.127   0.491
 8282TIP3   OH224790   4.637   4.272   5.849
 8282TIP3    H124791   4.614   4.358   5.886
 8282TIP3    H224792   4.641   4.287   5.755
 8283TIP3   OH224793   6.571   6.581   6.122
 8283TIP3    H124794   6.545   6.507   6.177
 8283TIP3    H224795   6.488   6.612   6.084
 8284TIP3   OH224796   1.780   5.365   4.256
 8284TIP3    H124797   1.872   5.378   4.234
 8284TIP3    H224798   1.761   5.431   4.323
 8285TIP3   OH224799   8.094   5.856   0.146
 8285TIP3    H124800   8.174   5.883   0.191
 8285TIP3    H224801   8.053   5.938   0.119
 8286TIP3   OH224802   7.822   0.955   1.136
 8286TIP3    H124803   7.855   0.886   1.193
 8286TIP3    H224804   7.900   0.999   1.103
 8287TIP3   OH224805   8.188   2.880   4.986
 8287TIP3    H124806   8.170   2.813   4.920
 8287TIP3    H224807   8.201   2.831   5.067
 8288TIP3   OH224808   2.910   0.517   6.167
 8288TIP3    H124809   2.986   0.573   6.153
 8288TIP3    H224810   2.865   0.517   6.082
 8289TIP3   OH224811   3.985   2.344   5.726
 8289TIP3    H124812   3.959   2.261   5.686
 8289TIP3    H224813   3.989   2.406   5.653
 8290TIP3   OH224814   2.419   6.100   2.930
 8290TIP3    H124815   2.343   6.058   2.890
 8290TIP3    H224816   2.462   6.145   2.857
 8291TIP3   OH224817   4.663   4.558   1.705
 8291TIP3    H124818   4.629   4.647   1.709
 8291TIP3    H224819   4.736   4.563   1.643
 8292TIP3   OH224820   2.315   6.906   2.788
 8292TIP3    H124821   2.331   6.812   2.783
 8292TIP3    H224822   2.275   6.919   2.874
 8293TIP3   OH224823   2.422   5.393   2.029
 8293TIP3    H124824   2.354   5.445   1.985
 8293TIP3    H224825   2.457   5.336   1.961
 8294TIP3   OH224826   7.176   7.215   5.852
 8294TIP3    H124827   7.084   7.196   5.872
 8294TIP3    H224828   7.188   7.306   5.877
 8295TIP3   OH224829   7.263   4.370   3.214
 8295TIP3    H124830   7.190   4.308   3.210
 8295TIP3    H224831   7.222   4.456   3.202
 8296TIP3   OH224832   0.378   4.144   2.416
 8296TIP3    H124833   0.458   4.104   2.451
 8296TIP3    H224834   0.377   4.120   2.324
 8297TIP3   OH224835   4.031   4.840   4.722
 8297TIP3    H124836   3.971   4.833   4.796
 8297TIP3    H224837   3.977   4.871   4.650
 8298TIP3   OH224838   1.599   3.989   6.226
 8298TIP3    H124839   1.682   4.035   6.240
 8298TIP3    H224840   1.535   4.058   6.210
 8299TIP3   OH224841   7.010   3.877   6.552
 8299TIP3    H124842   7.023   3.912   6.465
 8299TIP3    H224843   7.098   3.859   6.585
 8300TIP3   OH224844   4.683   2.560   6.660
 8300TIP3    H124845   4.722   2.646   6.672
 8300TIP3    H224846   4.741   2.500   6.708
 8301TIP3   OH224847   3.336   1.043   5.365
 8301TIP3    H124848   3.321   0.952   5.339
 8301TIP3    H224849   3.250   1.074   5.394
 8302TIP3   OH224850   3.639   5.377   6.722
 8302TIP3    H124851   3.602   5.448   6.670
 8302TIP3    H224852   3.636   5.408   6.812
 8303TIP3   OH224853   8.244   5.722   6.089
 8303TIP3    H124854   8.228   5.642   6.140
 8303TIP3    H224855   8.278   5.785   6.152
 8304TIP3   OH224856   6.487   0.724   2.594
 8304TIP3    H124857   6.449   0.636   2.588
 8304TIP3    H224858   6.499   0.751   2.503
 8305TIP3   OH224859   1.717   5.046   6.505
 8305TIP3    H124860   1.807   5.011   6.505
 8305TIP3    H224861   1.695   5.054   6.598
 8306TIP3   OH224862   2.475   3.411   1.538
 8306TIP3    H124863   2.553   3.455   1.573
 8306TIP3    H224864   2.404   3.440   1.596
 8307TIP3   OH224865   6.833   1.851   6.170
 8307TIP3    H124866   6.772   1.793   6.215
 8307TIP3    H224867   6.849   1.808   6.086
 8308TIP3   OH224868   6.492   1.309   0.280
 8308TIP3    H124869   6.421   1.372   0.267
 8308TIP3    H224870   6.562   1.338   0.221
 8309TIP3   OH224871   6.904   0.517   3.558
 8309TIP3    H124872   6.845   0.536   3.631
 8309TIP3    H224873   6.847   0.483   3.489
 8310TIP3   OH224874   6.837   0.109   5.062
 8310TIP3    H124875   6.906   0.147   5.008
 8310TIP3    H224876   6.803   0.183   5.113
 8311TIP3   OH224877   7.166   6.227   2.255
 8311TIP3    H124878   7.128   6.217   2.168
 8311TIP3    H224879   7.261   6.228   2.240
 8312TIP3   OH224880   0.435   0.272   2.258
 8312TIP3    H124881   0.451   0.178   2.251
 8312TIP3    H224882   0.346   0.280   2.291
 8313TIP3   OH224883   5.342   5.913   0.624
 8313TIP3    H124884   5.264   5.927   0.676
 8313TIP3    H224885   5.414   5.910   0.688
 8314TIP3   OH224886   6.756   3.830   3.740
 8314TIP3    H124887   6.732   3.767   3.807
 8314TIP3    H224888   6.851   3.834   3.743
 8315TIP3   OH224889   5.365   3.062   5.431
 8315TIP3    H124890   5.294   3.051   5.367
 8315TIP3    H224891   5.395   3.152   5.418
 8316TIP3   OH224892   5.200   5.200   2.184
 8316TIP3    H124893   5.152   5.132   2.233
 8316TIP3    H224894   5.158   5.282   2.210
 8317TIP3   OH224895   3.459   0.067   1.433
 8317TIP3    H124896   3.376   0.071   1.385
 8317TIP3    H224897   3.526   0.078   1.365
 8318TIP3   OH224898   2.208   1.521   5.564
 8318TIP3    H124899   2.173   1.503   5.477
 8318TIP3    H224900   2.139   1.492   5.624
 8319TIP3   OH224901   1.002   7.565   6.238
 8319TIP3    H124902   1.019   7.517   6.157
 8319TIP3    H224903   0.940   7.634   6.212
 8320TIP3   OH224904   0.684   6.357   5.394
 8320TIP3    H124905   0.635   6.313   5.325
 8320TIP3    H224906   0.621   6.365   5.466
 8321TIP3   OH224907   5.495   6.818   4.513
 8321TIP3    H124908   5.576   6.828   4.563
 8321TIP3    H224909   5.439   6.888   4.544
 8322TIP3   OH224910   2.533   4.609   4.173
 8322TIP3    H124911   2.581   4.658   4.239
 8322TIP3    H224912   2.441   4.615   4.200
 8323TIP3   OH224913   5.754   1.795   5.923
 8323TIP3    H124914   5.736   1.701   5.927
 8323TIP3    H224915   5.675   1.837   5.957
 8324TIP3   OH224916   0.515   1.585   5.045
 8324TIP3    H124917   0.545   1.507   4.998
 8324TIP3    H224918   0.494   1.648   4.976
 8325TIP3   OH224919   3.286   0.414   4.413
 8325TIP3    H124920   3.278   0.508   4.395
 8325TIP3    H224921   3.197   0.385   4.433
 8326TIP3   OH224922   7.836   6.888   4.578
 8326TIP3    H124923   7.767   6.950   4.599
 8326TIP3    H224924   7.844   6.892   4.483
 8327TIP3   OH224925   0.113   4.516   4.536
 8327TIP3    H124926   0.076   4.485   4.618
 8327TIP3    H224927   0.106   4.442   4.476
 8328TIP3   OH224928   7.638   3.002   6.575
 8328TIP3    H124929   7.669   2.992   6.485
 8328TIP3    H224930   7.674   2.927   6.621
 8329TIP3   OH224931   5.793   3.411   0.742
 8329TIP3    H124932   5.849   3.479   0.705
 8329TIP3    H224933   5.779   3.350   0.670
 8330TIP3   OH224934   1.492   2.626   6.165
 8330TIP3    H124935   1.474   2.614   6.259
 8330TIP3    H224936   1.513   2.719   6.157
 8331TIP3   OH224937   6.824   6.085   1.277
 8331TIP3    H124938   6.848   6.124   1.193
 8331TIP3    H224939   6.858   6.145   1.343
 8332TIP3   OH224940   8.162   1.120   2.289
 8332TIP3    H124941   8.257   1.124   2.299
 8332TIP3    H224942   8.130   1.202   2.327
 8333TIP3   OH224943   5.750   5.359   3.917
 8333TIP3    H124944   5.838   5.326   3.937
 8333TIP3    H224945   5.711   5.373   4.003
 8334TIP3   OH224946   8.190   0.227   4.769
 8334TIP3    H124947   8.113   0.241   4.824
 8334TIP3    H224948   8.167   0.269   4.685
 8335TIP3   OH224949   5.660   4.940   3.145
 8335TIP3    H124950   5.646   4.930   3.239
 8335TIP3    H224951   5.573   4.962   3.111
 8336TIP3   OH224952   0.168   2.342   0.568
 8336TIP3    H124953   0.084   2.306   0.597
 8336TIP3    H224954   0.166   2.433   0.597
 8337TIP3   OH224955   3.907   3.900   5.726
 8337TIP3    H124956   3.877   3.817   5.689
 8337TIP3    H224957   4.003   3.892   5.729
 8338TIP3   OH224958   5.931   7.458   5.896
 8338TIP3    H124959   5.893   7.371   5.883
 8338TIP3    H224960   5.914   7.504   5.814
 8339TIP3   OH224961   6.948   1.693   6.536
 8339TIP3    H124962   6.982   1.652   6.456
 8339TIP3    H224963   7.003   1.770   6.549
 8340TIP3   OH224964   0.277   6.608   0.350
 8340TIP3    H124965   0.185   6.619   0.326
 8340TIP3    H224966   0.280   6.522   0.392
 8341TIP3   OH224967   6.513   2.359   5.548
 8341TIP3    H124968   6.488   2.409   5.626
 8341TIP3    H224969   6.435   2.308   5.526
 8342TIP3   OH224970   8.119   6.019   4.315
 8342TIP3    H124971   8.204   5.983   4.339
 8342TIP3    H224972   8.060   5.944   4.320
 8343TIP3   OH224973   0.433   0.279   0.507
 8343TIP3    H124974   0.503   0.342   0.489
 8343TIP3    H224975   0.407   0.247   0.421
 8344TIP3   OH224976   6.228   2.409   2.976
 8344TIP3    H124977   6.236   2.416   3.071
 8344TIP3    H224978   6.233   2.315   2.959
 8345TIP3   OH224979   0.144   6.781   0.544
 8345TIP3    H124980   0.215   6.839   0.569
 8345TIP3    H224981   0.187   6.704   0.507
 8346TIP3   OH224982   4.886   5.763   3.696
 8346TIP3    H124983   4.979   5.787   3.686
 8346TIP3    H224984   4.888   5.680   3.743
 8347TIP3   OH224985   3.009   0.482   0.130
 8347TIP3    H124986   3.043   0.545   0.066
 8347TIP3    H224987   3.079   0.417   0.139
 8348TIP3   OH224988   4.566   0.641   6.161
 8348TIP3    H124989   4.597   0.632   6.251
 8348TIP3    H224990   4.596   0.728   6.134
 8349TIP3   OH224991   2.161   2.633   2.855
 8349TIP3    H124992   2.205   2.634   2.771
 8349TIP3    H224993   2.231   2.641   2.919
 8350TIP3   OH224994   6.939   4.203   1.092
 8350TIP3    H124995   6.977   4.123   1.128
 8350TIP3    H224996   6.984   4.274   1.138
 8351TIP3   OH224997   0.608   4.005   1.912
 8351TIP3    H124998   0.609   4.087   1.863
 8351TIP3    H224999   0.530   3.960   1.881
 8352TIP3   OH225000   5.397   5.075   1.246
 8352TIP3    H125001   5.381   5.163   1.279
 8352TIP3    H225002   5.367   5.077   1.155
 8353TIP3   OH225003   1.822   6.688   4.340
 8353TIP3    H125004   1.760   6.750   4.379
 8353TIP3    H225005   1.867   6.740   4.273
 8354TIP3   OH225006   6.131   5.252   0.839
 8354TIP3    H125007   6.110   5.237   0.747
 8354TIP3    H225008   6.204   5.315   0.837
 8355TIP3   OH225009   2.997   7.152   6.225
 8355TIP3    H125010   2.926   7.201   6.184
 8355TIP3    H225011   3.063   7.218   6.246
 8356TIP3   OH225012   2.563   1.620   1.219
 8356TIP3    H125013   2.494   1.599   1.283
 8356TIP3    H225014   2.516   1.652   1.142
 8357TIP3   OH225015   5.550   5.356   0.842
 8357TIP3    H125016   5.629   5.312   0.876
 8357TIP3    H225017   5.528   5.308   0.762
 8358TIP3   OH225018   2.891   6.162   0.468
 8358TIP3    H125019   2.808   6.196   0.500
 8358TIP3    H225020   2.869   6.077   0.430
 8359TIP3   OH225021   8.298   2.354   1.197
 8359TIP3    H125022   8.223   2.399   1.158
 8359TIP3    H225023   8.277   2.261   1.189
 8360TIP3   OH225024   1.769   3.174   1.611
 8360TIP3    H125025   1.688   3.124   1.596
 8360TIP3    H225026   1.776   3.180   1.707
 8361TIP3   OH225027   5.575   6.473   3.423
 8361TIP3    H125028   5.663   6.465   3.388
 8361TIP3    H225029   5.569   6.403   3.488
 8362TIP3   OH225030   0.575   4.653   5.949
 8362TIP3    H125031   0.655   4.706   5.957
 8362TIP3    H225032   0.525   4.673   6.028
 8363TIP3   OH225033   5.365   2.533   3.119
 8363TIP3    H125034   5.360   2.540   3.214
 8363TIP3    H225035   5.401   2.446   3.102
 8364TIP3   OH225036   6.385   4.211   2.720
 8364TIP3    H125037   6.398   4.120   2.746
 8364TIP3    H225038   6.306   4.210   2.665
 8365TIP3   OH225039   4.036   1.512   3.059
 8365TIP3    H125040   4.043   1.602   3.091
 8365TIP3    H225041   3.978   1.518   2.983
 8366TIP3   OH225042   1.691   4.604   2.889
 8366TIP3    H125043   1.773   4.646   2.862
 8366TIP3    H225044   1.649   4.669   2.946
 8367TIP3   OH225045   3.325   1.864   6.087
 8367TIP3    H125046   3.411   1.821   6.083
 8367TIP3    H225047   3.280   1.835   6.008
 8368TIP3   OH225048   0.112   6.086   0.930
 8368TIP3    H125049   0.159   6.027   0.870
 8368TIP3    H225050   0.046   6.030   0.972
 8369TIP3   OH225051   0.014   5.655   0.852
 8369TIP3    H125052   0.095   5.618   0.819
 8369TIP3    H225053  -0.021   5.706   0.779
 8370TIP3   OH225054   3.026   2.011   1.537
 8370TIP3    H125055   3.000   2.037   1.449
 8370TIP3    H225056   2.993   1.921   1.547
 8371TIP3   OH225057   1.401   4.038   5.286
 8371TIP3    H125058   1.341   4.039   5.211
 8371TIP3    H225059   1.444   3.952   5.281
 8372TIP3   OH225060   2.803   3.750   4.609
 8372TIP3    H125061   2.787   3.661   4.576
 8372TIP3    H225062   2.863   3.788   4.545
 8373TIP3   OH225063   6.232   4.548   5.178
 8373TIP3    H125064   6.268   4.637   5.177
 8373TIP3    H225065   6.233   4.520   5.087
 8374TIP3   OH225066   7.685   2.987   6.237
 8374TIP3    H125067   7.679   2.942   6.153
 8374TIP3    H225068   7.770   3.031   6.236
 8375TIP3   OH225069   7.102   6.242   5.631
 8375TIP3    H125070   7.161   6.316   5.617
 8375TIP3    H225071   7.132   6.202   5.712
 8376TIP3   OH225072   2.201   5.001   6.786
 8376TIP3    H125073   2.259   5.056   6.733
 8376TIP3    H225074   2.258   4.933   6.821
 8377TIP3   OH225075   3.914   4.669   0.529
 8377TIP3    H125076   4.006   4.670   0.505
 8377TIP3    H225077   3.884   4.580   0.508
 8378TIP3   OH225078   3.350   0.752   2.355
 8378TIP3    H125079   3.395   0.836   2.352
 8378TIP3    H225080   3.268   0.770   2.403
 8379TIP3   OH225081   5.218   2.268   4.311
 8379TIP3    H125082   5.153   2.308   4.369
 8379TIP3    H225083   5.207   2.174   4.324
 8380TIP3   OH225084   2.111   4.754   6.206
 8380TIP3    H125085   2.149   4.768   6.293
 8380TIP3    H225086   2.187   4.751   6.148
 8381TIP3   OH225087   4.241   1.837   6.270
 8381TIP3    H125088   4.281   1.828   6.184
 8381TIP3    H225089   4.294   1.780   6.327
 8382TIP3   OH225090   7.445   6.625   4.723
 8382TIP3    H125091   7.539   6.636   4.732
 8382TIP3    H225092   7.407   6.693   4.778
 8383TIP3   OH225093   5.337   1.277   5.189
 8383TIP3    H125094   5.416   1.260   5.239
 8383TIP3    H225095   5.346   1.368   5.160
 8384TIP3   OH225096   1.657   7.720   2.396
 8384TIP3    H125097   1.643   7.813   2.378
 8384TIP3    H225098   1.617   7.706   2.481
 8385TIP3   OH225099   2.403   1.389   3.449
 8385TIP3    H125100   2.387   1.478   3.482
 8385TIP3    H225101   2.364   1.388   3.362
 8386TIP3   OH225102   3.204   0.063   5.707
 8386TIP3    H125103   3.260  -0.007   5.739
 8386TIP3    H225104   3.128   0.062   5.765
 8387TIP3   OH225105   5.178   2.558   0.734
 8387TIP3    H125106   5.237   2.613   0.682
 8387TIP3    H225107   5.176   2.601   0.820
 8388TIP3   OH225108   2.670   3.576   0.398
 8388TIP3    H125109   2.732   3.507   0.420
 8388TIP3    H225110   2.606   3.575   0.470
 8389TIP3   OH225111   6.744   4.469   1.432
 8389TIP3    H125112   6.689   4.546   1.417
 8389TIP3    H225113   6.830   4.494   1.399
 8390TIP3   OH225114   7.807   6.073   3.615
 8390TIP3    H125115   7.716   6.044   3.611
 8390TIP3    H225116   7.828   6.074   3.709
 8391TIP3   OH225117   1.305   3.922   6.186
 8391TIP3    H125118   1.300   3.833   6.150
 8391TIP3    H225119   1.396   3.948   6.173
 8392TIP3   OH225120   1.230   5.735   4.764
 8392TIP3    H125121   1.277   5.812   4.732
 8392TIP3    H225122   1.252   5.666   4.700
 8393TIP3   OH225123   3.850   0.101   1.425
 8393TIP3    H125124   3.775   0.115   1.366
 8393TIP3    H225125   3.827   0.021   1.473
 8394TIP3   OH225126   0.582   7.409   2.882
 8394TIP3    H125127   0.551   7.490   2.923
 8394TIP3    H225128   0.676   7.420   2.876
 8395TIP3   OH225129   5.538   5.897   4.301
 8395TIP3    H125130   5.469   5.858   4.355
 8395TIP3    H225131   5.527   5.991   4.313
 8396TIP3   OH225132   6.505   7.139   2.802
 8396TIP3    H125133   6.448   7.177   2.735
 8396TIP3    H225134   6.594   7.166   2.776
 8397TIP3   OH225135   2.044   5.713   3.509
 8397TIP3    H125136   2.010   5.803   3.511
 8397TIP3    H225137   2.066   5.693   3.600
 8398TIP3   OH225138   3.278   1.935   1.626
 8398TIP3    H125139   3.321   2.020   1.621
 8398TIP3    H225140   3.187   1.952   1.602
 8399TIP3   OH225141   3.839   4.050   2.706
 8399TIP3    H125142   3.876   4.034   2.620
 8399TIP3    H225143   3.895   4.001   2.766
 8400TIP3   OH225144   3.378   5.379   4.805
 8400TIP3    H125145   3.330   5.340   4.732
 8400TIP3    H225146   3.407   5.304   4.857
 8401TIP3   OH225147   4.068   5.424   6.266
 8401TIP3    H125148   4.131   5.409   6.196
 8401TIP3    H225149   4.059   5.339   6.310
 8402TIP3   OH225150   0.253   4.937   4.725
 8402TIP3    H125151   0.295   4.996   4.663
 8402TIP3    H225152   0.223   4.863   4.671
 8403TIP3   OH225153   0.908   5.521   5.967
 8403TIP3    H125154   0.823   5.526   5.924
 8403TIP3    H225155   0.929   5.428   5.968
 8404TIP3   OH225156   4.071   2.654   3.645
 8404TIP3    H125157   4.029   2.606   3.573
 8404TIP3    H225158   4.001   2.704   3.686
 8405TIP3   OH225159   1.474   2.452   3.441
 8405TIP3    H125160   1.507   2.435   3.529
 8405TIP3    H225161   1.500   2.542   3.422
 8406TIP3   OH225162   7.703   0.436   3.440
 8406TIP3    H125163   7.753   0.466   3.364
 8406TIP3    H225164   7.656   0.514   3.469
 8407TIP3   OH225165   3.699   2.569   2.751
 8407TIP3    H125166   3.724   2.477   2.739
 8407TIP3    H225167   3.706   2.607   2.663
 8408TIP3   OH225168   1.226   4.037   5.081
 8408TIP3    H125169   1.188   4.086   5.009
 8408TIP3    H225170   1.263   3.958   5.040
 8409TIP3   OH225171   1.479   2.777   1.590
 8409TIP3    H125172   1.421   2.805   1.660
 8409TIP3    H225173   1.427   2.716   1.537
 8410TIP3   OH225174   7.558   2.716   2.143
 8410TIP3    H125175   7.647   2.681   2.137
 8410TIP3    H225176   7.510   2.650   2.193
 8411TIP3   OH225177   1.982   1.624   6.369
 8411TIP3    H125178   1.887   1.633   6.355
 8411TIP3    H225179   1.994   1.534   6.399
 8412TIP3   OH225180   1.437   0.221   5.366
 8412TIP3    H125181   1.459   0.303   5.410
 8412TIP3    H225182   1.510   0.206   5.306
 8413TIP3   OH225183   7.413   2.451   5.546
 8413TIP3    H125184   7.398   2.540   5.579
 8413TIP3    H225185   7.439   2.400   5.623
 8414TIP3   OH225186   6.056   5.196   3.177
 8414TIP3    H125187   6.112   5.273   3.188
 8414TIP3    H225188   6.017   5.181   3.263
 8415TIP3   OH225189   3.903   5.077   4.297
 8415TIP3    H125190   3.833   5.085   4.232
 8415TIP3    H225191   3.971   5.137   4.267
 8416TIP3   OH225192   7.260   3.785   3.396
 8416TIP3    H125193   7.236   3.765   3.486
 8416TIP3    H225194   7.184   3.760   3.344
 8417TIP3   OH225195   2.713   1.367   2.805
 8417TIP3    H125196   2.711   1.357   2.709
 8417TIP3    H225197   2.679   1.284   2.838
 8418TIP3   OH225198   1.300   7.760   5.742
 8418TIP3    H125199   1.317   7.674   5.780
 8418TIP3    H225200   1.225   7.794   5.791
 8419TIP3   OH225201   4.324   1.621   4.701
 8419TIP3    H125202   4.297   1.681   4.632
 8419TIP3    H225203   4.308   1.534   4.664
 8420TIP3   OH225204   2.609   2.118   4.056
 8420TIP3    H125205   2.620   2.189   3.993
 8420TIP3    H225206   2.631   2.157   4.140
 8421TIP3   OH225207   4.652   5.369   6.164
 8421TIP3    H125208   4.569   5.358   6.117
 8421TIP3    H225209   4.654   5.296   6.225
 8422TIP3   OH225210   4.310   5.035   0.573
 8422TIP3    H125211   4.242   5.052   0.508
 8422TIP3    H225212   4.264   4.997   0.647
 8423TIP3   OH225213   5.936   0.739   1.134
 8423TIP3    H125214   5.891   0.817   1.167
 8423TIP3    H225215   5.981   0.768   1.055
 8424TIP3   OH225216   6.072   4.540   1.491
 8424TIP3    H125217   6.095   4.614   1.548
 8424TIP3    H225218   6.157   4.508   1.460
 8425TIP3   OH225219   4.496   6.353   5.288
 8425TIP3    H125220   4.440   6.334   5.363
 8425TIP3    H225221   4.517   6.268   5.250
 8426TIP3   OH225222   1.717   5.992   0.103
 8426TIP3    H125223   1.760   5.982   0.187
 8426TIP3    H225224   1.674   6.077   0.108
 8427TIP3   OH225225   1.613   5.369   3.468
 8427TIP3    H125226   1.680   5.422   3.424
 8427TIP3    H225227   1.582   5.309   3.400
 8428TIP3   OH225228   1.833   1.887   2.686
 8428TIP3    H125229   1.912   1.902   2.633
 8428TIP3    H225230   1.768   1.856   2.624
 8429TIP3   OH225231   2.050   5.418   5.643
 8429TIP3    H125232   2.076   5.501   5.604
 8429TIP3    H225233   2.093   5.416   5.729
 8430TIP3   OH225234   3.917   0.094   1.783
 8430TIP3    H125235   4.002   0.104   1.827
 8430TIP3    H225236   3.909   0.173   1.730
 8431TIP3   OH225237   5.588   5.868   5.457
 8431TIP3    H125238   5.597   5.900   5.547
 8431TIP3    H225239   5.671   5.890   5.415
 8432TIP3   OH225240   7.567   0.226   6.515
 8432TIP3    H125241   7.534   0.315   6.509
 8432TIP3    H225242   7.662   0.235   6.504
 8433TIP3   OH225243   1.713   6.164   0.403
 8433TIP3    H125244   1.746   6.075   0.398
 8433TIP3    H225245   1.762   6.212   0.336
 8434TIP3   OH225246   3.124   6.575   5.277
 8434TIP3    H125247   3.172   6.657   5.273
 8434TIP3    H225248   3.114   6.548   5.185
 8435TIP3   OH225249   3.549   3.600   3.890
 8435TIP3    H125250   3.455   3.589   3.905
 8435TIP3    H225251   3.591   3.557   3.964
 8436TIP3   OH225252   2.881   1.784   2.343
 8436TIP3    H125253   2.969   1.822   2.346
 8436TIP3    H225254   2.888   1.703   2.393
 8437TIP3   OH225255   0.106   3.830   5.310
 8437TIP3    H125256   0.158   3.817   5.230
 8437TIP3    H225257   0.143   3.909   5.349
 8438TIP3   OH225258   6.622   1.818   6.707
 8438TIP3    H125259   6.717   1.809   6.700
 8438TIP3    H225260   6.606   1.830   6.801
 8439TIP3   OH225261   5.626   5.427   4.152
 8439TIP3    H125262   5.605   5.444   4.244
 8439TIP3    H225263   5.545   5.448   4.105
 8440TIP3   OH225264   5.510   6.276   3.658
 8440TIP3    H125265   5.597   6.263   3.620
 8440TIP3    H225266   5.521   6.260   3.751
 8441TIP3   OH225267   6.657   3.861   0.731
 8441TIP3    H125268   6.615   3.939   0.694
 8441TIP3    H225269   6.711   3.827   0.659
 8442TIP3   OH225270   2.199   2.300   4.639
 8442TIP3    H125271   2.220   2.382   4.683
 8442TIP3    H225272   2.104   2.291   4.650
 8443TIP3   OH225273   3.781   3.904   6.694
 8443TIP3    H125274   3.740   3.890   6.609
 8443TIP3    H225275   3.796   3.999   6.699
 8444TIP3   OH225276   3.005   0.059   3.724
 8444TIP3    H125277   3.094   0.092   3.733
 8444TIP3    H225278   2.953   0.118   3.779
 8445TIP3   OH225279   4.653   4.871   0.310
 8445TIP3    H125280   4.611   4.869   0.224
 8445TIP3    H225281   4.668   4.965   0.326
 8446TIP3   OH225282   4.633   1.586   0.636
 8446TIP3    H125283   4.693   1.653   0.604
 8446TIP3    H225284   4.678   1.546   0.710
 8447TIP3   OH225285   4.365   4.837   3.201
 8447TIP3    H125286   4.315   4.916   3.179
 8447TIP3    H225287   4.397   4.804   3.117
 8448TIP3   OH225288   3.932   5.818   4.718
 8448TIP3    H125289   3.944   5.912   4.708
 8448TIP3    H225290   3.843   5.808   4.752
 8449TIP3   OH225291   0.340   1.328   3.238
 8449TIP3    H125292   0.284   1.269   3.188
 8449TIP3    H225293   0.280   1.393   3.275
 8450TIP3   OH225294   5.237   6.790   0.655
 8450TIP3    H125295   5.146   6.771   0.679
 8450TIP3    H225296   5.287   6.718   0.694
 8451TIP3   OH225297   5.521   5.702   3.769
 8451TIP3    H125298   5.573   5.779   3.792
 8451TIP3    H225299   5.585   5.638   3.737
 8452TIP3   OH225300   7.991   3.209   5.162
 8452TIP3    H125301   7.917   3.191   5.103
 8452TIP3    H225302   8.029   3.290   5.128
 8453TIP3   OH225303   6.594   4.842   2.173
 8453TIP3    H125304   6.537   4.804   2.106
 8453TIP3    H225305   6.535   4.858   2.247
 8454TIP3   OH225306   3.726   2.854   1.320
 8454TIP3    H125307   3.695   2.802   1.394
 8454TIP3    H225308   3.739   2.942   1.356
 8455TIP3   OH225309   2.366   2.512   0.182
 8455TIP3    H125310   2.290   2.561   0.151
 8455TIP3    H225311   2.425   2.578   0.217
 8456TIP3   OH225312   7.244   6.786   2.358
 8456TIP3    H125313   7.191   6.785   2.438
 8456TIP3    H225314   7.335   6.789   2.389
 8457TIP3   OH225315   1.909   7.628   4.430
 8457TIP3    H125316   1.947   7.638   4.343
 8457TIP3    H225317   1.971   7.671   4.488
 8458TIP3   OH225318   3.618   6.249   5.434
 8458TIP3    H125319   3.577   6.291   5.509
 8458TIP3    H225320   3.701   6.295   5.422
 8459TIP3   OH225321   0.784   7.104   6.136
 8459TIP3    H125322   0.841   7.070   6.067
 8459TIP3    H225323   0.845   7.134   6.203
 8460TIP3   OH225324   0.022   2.516   4.274
 8460TIP3    H125325   0.066   2.538   4.355
 8460TIP3    H225326   0.080   2.452   4.232
 8461TIP3   OH225327   0.818   5.121   2.421
 8461TIP3    H125328   0.788   5.054   2.360
 8461TIP3    H225329   0.742   5.141   2.475
 8462TIP3   OH225330   7.872   4.867   5.154
 8462TIP3    H125331   7.807   4.798   5.141
 8462TIP3    H225332   7.930   4.859   5.078
 8463TIP3   OH225333   2.844   5.709   3.165
 8463TIP3    H125334   2.936   5.703   3.192
 8463TIP3    H225335   2.847   5.698   3.070
 8464TIP3   OH225336   6.307   2.753   1.387
 8464TIP3    H125337   6.263   2.836   1.370
 8464TIP3    H225338   6.341   2.725   1.302
 8465TIP3   OH225339   3.283   0.148   6.679
 8465TIP3    H125340   3.373   0.168   6.654
 8465TIP3    H225341   3.289   0.067   6.729
 8466TIP3   OH225342   3.107   1.500   5.634
 8466TIP3    H125343   3.085   1.590   5.609
 8466TIP3    H225344   3.060   1.445   5.571
 8467TIP3   OH225345   2.812   2.623   2.680
 8467TIP3    H125346   2.870   2.658   2.613
 8467TIP3    H225347   2.755   2.562   2.633
 8468TIP3   OH225348   1.049   3.082   4.959
 8468TIP3    H125349   1.041   3.073   5.054
 8468TIP3    H225350   1.099   3.005   4.932
 8469TIP3   OH225351   4.231   5.987   3.945
 8469TIP3    H125352   4.269   5.956   3.863
 8469TIP3    H225353   4.302   6.037   3.987
 8470TIP3   OH225354   2.134   1.627   3.981
 8470TIP3    H125355   2.217   1.672   3.995
 8470TIP3    H225356   2.094   1.621   4.068
 8471TIP3   OH225357   4.289   6.782   3.614
 8471TIP3    H125358   4.360   6.741   3.566
 8471TIP3    H225359   4.210   6.742   3.578
 8472TIP3   OH225360   5.445   2.199   3.231
 8472TIP3    H125361   5.360   2.155   3.234
 8472TIP3    H225362   5.466   2.206   3.138
 8473TIP3   OH225363   0.365   3.924   1.839
 8473TIP3    H125364   0.364   3.906   1.745
 8473TIP3    H225365   0.274   3.940   1.861
 8474TIP3   OH225366   4.130   3.487   6.598
 8474TIP3    H125367   4.067   3.419   6.622
 8474TIP3    H225368   4.089   3.569   6.627
 8475TIP3   OH225369   4.880   2.348   3.061
 8475TIP3    H125370   4.894   2.262   3.020
 8475TIP3    H225371   4.859   2.328   3.152
 8476TIP3   OH225372   2.763   6.493   0.784
 8476TIP3    H125373   2.720   6.408   0.788
 8476TIP3    H225374   2.750   6.531   0.871
 8477TIP3   OH225375   7.549   1.864   0.154
 8477TIP3    H125376   7.507   1.853   0.239
 8477TIP3    H225377   7.479   1.896   0.097
 8478TIP3   OH225378   4.363   2.071   4.277
 8478TIP3    H125379   4.386   2.155   4.236
 8478TIP3    H225380   4.408   2.073   4.361
 8479TIP3   OH225381   4.259   0.850   1.910
 8479TIP3    H125382   4.238   0.883   1.997
 8479TIP3    H225383   4.353   0.835   1.911
 8480TIP3   OH225384   7.136   0.714   5.492
 8480TIP3    H125385   7.125   0.707   5.587
 8480TIP3    H225386   7.121   0.806   5.473
 8481TIP3   OH225387   5.119   0.942   4.616
 8481TIP3    H125388   5.198   0.916   4.663
 8481TIP3    H225389   5.146   1.021   4.567
 8482TIP3   OH225390   3.184   5.056   3.858
 8482TIP3    H125391   3.181   4.961   3.861
 8482TIP3    H225392   3.162   5.084   3.947
 8483TIP3   OH225393   6.883   3.407   3.244
 8483TIP3    H125394   6.896   3.448   3.329
 8483TIP3    H225395   6.947   3.449   3.186
 8484TIP3   OH225396   3.833   1.851   4.007
 8484TIP3    H125397   3.738   1.861   4.015
 8484TIP3    H225398   3.869   1.906   4.076
 8485TIP3   OH225399   3.931   5.888   1.724
 8485TIP3    H125400   3.891   5.927   1.646
 8485TIP3    H225401   3.996   5.952   1.752
 8486TIP3   OH225402   5.953   2.562   5.089
 8486TIP3    H125403   6.025   2.500   5.079
 8486TIP3    H225404   5.958   2.589   5.181
 8487TIP3   OH225405   6.886   5.720   1.918
 8487TIP3    H125406   6.928   5.788   1.970
 8487TIP3    H225407   6.794   5.723   1.944
 8488TIP3   OH225408   1.277   2.792   0.088
 8488TIP3    H125409   1.310   2.774   0.000
 8488TIP3    H225410   1.337   2.747   0.146
 8489TIP3   OH225411   0.780   2.388   4.853
 8489TIP3    H125412   0.735   2.369   4.936
 8489TIP3    H225413   0.722   2.352   4.786
 8490TIP3   OH225414   0.316   3.192   5.149
 8490TIP3    H125415   0.378   3.141   5.200
 8490TIP3    H225416   0.312   3.277   5.192
 8491TIP3   OH225417   5.916   7.374   3.571
 8491TIP3    H125418   5.883   7.406   3.655
 8491TIP3    H225419   5.973   7.301   3.595
 8492TIP3   OH225420   3.205   5.035   1.421
 8492TIP3    H125421   3.270   5.011   1.487
 8492TIP3    H225422   3.127   4.986   1.445
 8493TIP3   OH225423   2.125   5.400   1.545
 8493TIP3    H125424   2.213   5.425   1.518
 8493TIP3    H225425   2.136   5.369   1.635
 8494TIP3   OH225426   2.112   4.984   5.844
 8494TIP3    H125427   2.095   4.988   5.750
 8494TIP3    H225428   2.202   5.016   5.853
 8495TIP3   OH225429   5.893   0.117   1.965
 8495TIP3    H125430   5.827   0.095   1.899
 8495TIP3    H225431   5.842   0.155   2.037
 8496TIP3   OH225432   5.413   0.299   2.055
 8496TIP3    H125433   5.443   0.386   2.082
 8496TIP3    H225434   5.317   0.305   2.057
 8497TIP3   OH225435   6.914   3.342   1.857
 8497TIP3    H125436   6.834   3.347   1.804
 8497TIP3    H225437   6.897   3.399   1.932
 8498TIP3   OH225438   1.892   3.164   1.156
 8498TIP3    H125439   1.892   3.081   1.204
 8498TIP3    H225440   1.902   3.231   1.224
 8499TIP3   OH225441   2.095   2.176   0.247
 8499TIP3    H125442   2.164   2.132   0.197
 8499TIP3    H225443   2.020   2.180   0.188
 8500TIP3   OH225444   4.396   3.128   2.251
 8500TIP3    H125445   4.360   3.083   2.175
 8500TIP3    H225446   4.331   3.194   2.273
 8501TIP3   OH225447   4.777   6.289   3.566
 8501TIP3    H125448   4.837   6.357   3.594
 8501TIP3    H225449   4.812   6.208   3.604
 8502TIP3   OH225450   5.839   5.965   2.184
 8502TIP3    H125451   5.783   5.888   2.179
 8502TIP3    H225452   5.926   5.933   2.158
 8503TIP3   OH225453   6.672   6.040   4.415
 8503TIP3    H125454   6.707   6.119   4.372
 8503TIP3    H225455   6.604   6.009   4.355
 8504TIP3   OH225456   0.531   2.973   3.073
 8504TIP3    H125457   0.585   2.911   3.024
 8504TIP3    H225458   0.594   3.029   3.118
 8505TIP3   OH225459   5.156   4.645   6.226
 8505TIP3    H125460   5.202   4.573   6.183
 8505TIP3    H225461   5.086   4.669   6.166
 8506TIP3   OH225462   2.997   3.217   0.883
 8506TIP3    H125463   2.983   3.124   0.862
 8506TIP3    H225464   3.089   3.233   0.861
 8507TIP3   OH225465   5.437   2.537   3.398
 8507TIP3    H125466   5.523   2.506   3.428
 8507TIP3    H225467   5.381   2.532   3.476
 8508TIP3   OH225468   2.141   2.031   3.565
 8508TIP3    H125469   2.064   2.067   3.609
 8508TIP3    H225470   2.115   2.023   3.473
 8509TIP3   OH225471   0.315   7.306   3.778
 8509TIP3    H125472   0.358   7.375   3.828
 8509TIP3    H225473   0.269   7.254   3.843
 8510TIP3   OH225474   1.175   0.422   0.882
 8510TIP3    H125475   1.249   0.430   0.942
 8510TIP3    H225476   1.121   0.499   0.900
 8511TIP3   OH225477   1.838   5.166   5.318
 8511TIP3    H125478   1.883   5.082   5.309
 8511TIP3    H225479   1.841   5.184   5.412
 8512TIP3   OH225480   3.548   5.012   4.660
 8512TIP3    H125481   3.479   5.006   4.593
 8512TIP3    H225482   3.585   4.924   4.664
 8513TIP3   OH225483   2.251   3.585   4.850
 8513TIP3    H125484   2.249   3.512   4.788
 8513TIP3    H225485   2.285   3.659   4.799
 8514TIP3   OH225486   3.365   4.113   4.318
 8514TIP3    H125487   3.316   4.184   4.359
 8514TIP3    H225488   3.437   4.096   4.378
 8515TIP3   OH225489   2.312   5.863   3.264
 8515TIP3    H125490   2.336   5.826   3.349
 8515TIP3    H225491   2.230   5.819   3.241
 8516TIP3   OH225492   2.356   7.551   5.799
 8516TIP3    H125493   2.411   7.529   5.874
 8516TIP3    H225494   2.298   7.475   5.789
 8517TIP3   OH225495   4.571   2.652   6.300
 8517TIP3    H125496   4.603   2.564   6.283
 8517TIP3    H225497   4.503   2.640   6.366
 8518TIP3   OH225498   4.976   0.259   6.548
 8518TIP3    H125499   4.958   0.276   6.455
 8518TIP3    H225500   4.902   0.207   6.578
 8519TIP3   OH225501   4.973   7.375   5.768
 8519TIP3    H125502   4.944   7.332   5.849
 8519TIP3    H225503   5.064   7.399   5.785
 8520TIP3   OH225504   2.401   1.901   0.796
 8520TIP3    H125505   2.312   1.930   0.812
 8520TIP3    H225506   2.424   1.941   0.711
 8521TIP3   OH225507   0.885   0.310   2.186
 8521TIP3    H125508   0.899   0.362   2.107
 8521TIP3    H225509   0.815   0.356   2.232
 8522TIP3   OH225510   6.910   0.532   6.552
 8522TIP3    H125511   6.837   0.501   6.498
 8522TIP3    H225512   6.925   0.461   6.615
 8523TIP3   OH225513   5.848   2.096   1.149
 8523TIP3    H125514   5.811   2.028   1.092
 8523TIP3    H225515   5.839   2.060   1.237
 8524TIP3   OH225516   6.300   3.175   4.863
 8524TIP3    H125517   6.380   3.215   4.828
 8524TIP3    H225518   6.265   3.123   4.791
 8525TIP3   OH225519   3.959   2.459   2.421
 8525TIP3    H125520   3.981   2.461   2.327
 8525TIP3    H225521   3.866   2.440   2.423
 8526TIP3   OH225522   1.963   2.221   2.076
 8526TIP3    H125523   2.012   2.233   1.995
 8526TIP3    H225524   1.878   2.261   2.059
 8527TIP3   OH225525   5.774   7.659   1.671
 8527TIP3    H125526   5.697   7.685   1.722
 8527TIP3    H225527   5.849   7.693   1.720
 8528TIP3   OH225528   0.996   2.153   3.722
 8528TIP3    H125529   0.988   2.181   3.814
 8528TIP3    H225530   1.089   2.160   3.703
 8529TIP3   OH225531   0.726   6.750   5.170
 8529TIP3    H125532   0.774   6.733   5.251
 8529TIP3    H225533   0.754   6.838   5.144
 8530TIP3   OH225534   1.961   4.196   6.406
 8530TIP3    H125535   1.977   4.254   6.480
 8530TIP3    H225536   2.047   4.156   6.388
 8531TIP3   OH225537   4.235   4.023   0.213
 8531TIP3    H125538   4.226   4.117   0.199
 8531TIP3    H225539   4.314   3.999   0.164
 8532TIP3   OH225540   7.061   3.903   4.495
 8532TIP3    H125541   7.103   3.844   4.558
 8532TIP3    H225542   7.015   3.844   4.434
 8533TIP3   OH225543   5.655   5.701   1.626
 8533TIP3    H125544   5.739   5.744   1.639
 8533TIP3    H225545   5.622   5.687   1.715
 8534TIP3   OH225546   2.698   3.210   3.034
 8534TIP3    H125547   2.784   3.201   3.075
 8534TIP3    H225548   2.651   3.132   3.061
 8535TIP3   OH225549   2.659   1.541   2.346
 8535TIP3    H125550   2.589   1.591   2.387
 8535TIP3    H225551   2.720   1.522   2.417
 8536TIP3   OH225552   0.595   2.799   1.931
 8536TIP3    H125553   0.563   2.875   1.882
 8536TIP3    H225554   0.539   2.727   1.902
 8537TIP3   OH225555   5.938   3.513   3.926
 8537TIP3    H125556   5.941   3.568   3.848
 8537TIP3    H225557   6.020   3.533   3.972
 8538TIP3   OH225558   3.444   1.257   5.206
 8538TIP3    H125559   3.439   1.175   5.256
 8538TIP3    H225560   3.369   1.253   5.147
 8539TIP3   OH225561   3.793   1.671   4.947
 8539TIP3    H125562   3.865   1.608   4.951
 8539TIP3    H225563   3.796   1.705   4.858
 8540TIP3   OH225564   6.213   5.896   3.931
 8540TIP3    H125565   6.125   5.916   3.897
 8540TIP3    H225566   6.260   5.859   3.857
 8541TIP3   OH225567   3.046   2.250   2.934
 8541TIP3    H125568   2.951   2.262   2.942
 8541TIP3    H225569   3.057   2.201   2.852
 8542TIP3   OH225570   4.835   0.752   1.448
 8542TIP3    H125571   4.835   0.794   1.533
 8542TIP3    H225572   4.856   0.660   1.466
 8543TIP3   OH225573   3.728   5.322   5.465
 8543TIP3    H125574   3.818   5.352   5.482
 8543TIP3    H225575   3.690   5.390   5.410
 8544TIP3   OH225576   7.075   0.409   0.299
 8544TIP3    H125577   7.143   0.472   0.326
 8544TIP3    H225578   7.114   0.363   0.224
 8545TIP3   OH225579   6.605   6.937   1.905
 8545TIP3    H125580   6.632   6.979   1.986
 8545TIP3    H225581   6.621   6.844   1.919
 8546TIP3   OH225582   1.626   6.822   1.421
 8546TIP3    H125583   1.683   6.784   1.488
 8546TIP3    H225584   1.574   6.887   1.469
 8547TIP3   OH225585   5.486   3.177   3.093
 8547TIP3    H125586   5.495   3.115   3.020
 8547TIP3    H225587   5.441   3.252   3.056
 8548TIP3   OH225588   5.372   1.340   5.858
 8548TIP3    H125589   5.416   1.283   5.794
 8548TIP3    H225590   5.439   1.357   5.924
 8549TIP3   OH225591   4.995   3.290   2.537
 8549TIP3    H125592   4.948   3.283   2.620
 8549TIP3    H225593   5.019   3.200   2.516
 8550TIP3   OH225594   0.990   4.194   1.665
 8550TIP3    H125595   1.019   4.104   1.656
 8550TIP3    H225596   0.917   4.203   1.604
 8551TIP3   OH225597   5.882   5.533   0.798
 8551TIP3    H125598   5.895   5.462   0.735
 8551TIP3    H225599   5.920   5.610   0.757
 8552TIP3   OH225600   5.183   1.689   4.526
 8552TIP3    H125601   5.228   1.664   4.445
 8552TIP3    H225602   5.092   1.662   4.512
 8553TIP3   OH225603   0.417   6.058   5.784
 8553TIP3    H125604   0.478   5.991   5.753
 8553TIP3    H225605   0.456   6.141   5.758
 8554TIP3   OH225606   3.912   3.530   2.657
 8554TIP3    H125607   3.897   3.493   2.570
 8554TIP3    H225608   3.828   3.568   2.682
 8555TIP3   OH225609   6.931   0.940   4.100
 8555TIP3    H125610   6.938   0.879   4.026
 8555TIP3    H225611   6.846   0.919   4.139
 8556TIP3   OH225612   4.269   2.430   4.790
 8556TIP3    H125613   4.194   2.487   4.809
 8556TIP3    H225614   4.343   2.472   4.834
 8557TIP3   OH225615   3.402   5.368   2.563
 8557TIP3    H125616   3.333   5.401   2.621
 8557TIP3    H225617   3.361   5.369   2.476
 8558TIP3   OH225618   2.705   2.851   5.636
 8558TIP3    H125619   2.713   2.894   5.721
 8558TIP3    H225620   2.620   2.807   5.639
 8559TIP3   OH225621   3.557   2.018   6.343
 8559TIP3    H125622   3.628   2.035   6.281
 8559TIP3    H225623   3.548   1.923   6.344
 8560TIP3   OH225624   1.040   5.610   4.894
 8560TIP3    H125625   0.999   5.556   4.827
 8560TIP3    H225626   1.112   5.654   4.849
 8561TIP3   OH225627   7.850   3.647   5.483
 8561TIP3    H125628   7.762   3.681   5.499
 8561TIP3    H225629   7.839   3.584   5.411
 8562TIP3   OH225630   4.598   3.591   3.219
 8562TIP3    H125631   4.558   3.520   3.168
 8562TIP3    H225632   4.693   3.576   3.211
 8563TIP3   OH225633   8.140   5.286   2.546
 8563TIP3    H125634   8.188   5.334   2.613
 8563TIP3    H225635   8.151   5.338   2.466
 8564TIP3   OH225636   0.132   2.833   3.779
 8564TIP3    H125637   0.190   2.757   3.783
 8564TIP3    H225638   0.116   2.855   3.871
 8565TIP3   OH225639   6.517   6.896   2.569
 8565TIP3    H125640   6.592   6.946   2.600
 8565TIP3    H225641   6.442   6.954   2.582
 8566TIP3   OH225642   3.818   5.475   3.787
 8566TIP3    H125643   3.789   5.549   3.734
 8566TIP3    H225644   3.804   5.398   3.732
 8567TIP3   OH225645   0.136   2.298   5.171
 8567TIP3    H125646   0.201   2.308   5.240
 8567TIP3    H225647   0.071   2.366   5.189
 8568TIP3   OH225648   2.334   3.221   5.045
 8568TIP3    H125649   2.330   3.311   5.075
 8568TIP3    H225650   2.371   3.172   5.119
 8569TIP3   OH225651   2.243   3.761   1.769
 8569TIP3    H125652   2.283   3.820   1.704
 8569TIP3    H225653   2.149   3.769   1.753
 8570TIP3   OH225654   7.386   7.143   0.735
 8570TIP3    H125655   7.435   7.214   0.777
 8570TIP3    H225656   7.338   7.186   0.664
 8571TIP3   OH225657   2.277   4.580   1.055
 8571TIP3    H125658   2.352   4.549   1.005
 8571TIP3    H225659   2.216   4.506   1.055
 8572TIP3   OH225660   3.002   6.890   4.329
 8572TIP3    H125661   3.057   6.823   4.288
 8572TIP3    H225662   3.064   6.957   4.358
 8573TIP3   OH225663   1.945   5.178   6.148
 8573TIP3    H125664   1.963   5.086   6.127
 8573TIP3    H225665   1.850   5.186   6.140
 8574TIP3   OH225666   6.521   2.719   5.939
 8574TIP3    H125667   6.481   2.755   6.019
 8574TIP3    H225668   6.523   2.793   5.878
 8575TIP3   OH225669   0.510   0.498   1.930
 8575TIP3    H125670   0.560   0.440   1.872
 8575TIP3    H225671   0.454   0.548   1.870
 8576TIP3   OH225672   6.827   0.629   1.440
 8576TIP3    H125673   6.780   0.567   1.384
 8576TIP3    H225674   6.902   0.656   1.387
 8577TIP3   OH225675   1.086   5.205   2.849
 8577TIP3    H125676   1.039   5.199   2.932
 8577TIP3    H225677   1.049   5.136   2.795
 8578TIP3   OH225678   4.788   0.753   0.374
 8578TIP3    H125679   4.721   0.818   0.392
 8578TIP3    H225680   4.868   0.789   0.411
 8579TIP3   OH225681   6.677   3.398   1.539
 8579TIP3    H125682   6.700   3.330   1.603
 8579TIP3    H225683   6.588   3.375   1.512
 8580TIP3   OH225684   3.905   0.249   6.776
 8580TIP3    H125685   3.984   0.212   6.737
 8580TIP3    H225686   3.920   0.344   6.775
 8581TIP3   OH225687   2.625   6.757   2.954
 8581TIP3    H125688   2.569   6.757   3.032
 8581TIP3    H225689   2.629   6.849   2.927
 8582TIP3   OH225690   7.807   0.977   5.959
 8582TIP3    H125691   7.867   0.943   5.893
 8582TIP3    H225692   7.720   0.957   5.926
 8583TIP3   OH225693   1.192   4.349   6.402
 8583TIP3    H125694   1.184   4.385   6.314
 8583TIP3    H225695   1.219   4.423   6.456
 8584TIP3   OH225696   7.914   1.891   1.541
 8584TIP3    H125697   7.980   1.830   1.507
 8584TIP3    H225698   7.963   1.971   1.557
 8585TIP3   OH225699   5.566   4.127   4.141
 8585TIP3    H125700   5.507   4.201   4.155
 8585TIP3    H225701   5.654   4.163   4.153
 8586TIP3   OH225702   1.782   4.247   2.506
 8586TIP3    H125703   1.855   4.256   2.567
 8586TIP3    H225704   1.726   4.180   2.546
 8587TIP3   OH225705   5.991   0.066   5.141
 8587TIP3    H125706   6.049   0.061   5.065
 8587TIP3    H225707   5.904   0.049   5.107
 8588TIP3   OH225708   0.358   3.759   4.378
 8588TIP3    H125709   0.381   3.745   4.470
 8588TIP3    H225710   0.265   3.737   4.372
 8589TIP3   OH225711   8.239   6.275   0.251
 8589TIP3    H125712   8.153   6.241   0.275
 8589TIP3    H225713   8.294   6.256   0.327
 8590TIP3   OH225714   1.506   5.671   0.974
 8590TIP3    H125715   1.489   5.577   0.962
 8590TIP3    H225716   1.472   5.712   0.894
 8591TIP3   OH225717   0.250   4.575   2.908
 8591TIP3    H125718   0.221   4.649   2.854
 8591TIP3    H225719   0.182   4.565   2.974
 8592TIP3   OH225720   0.297   1.901   1.257
 8592TIP3    H125721   0.273   1.842   1.186
 8592TIP3    H225722   0.281   1.989   1.222
 8593TIP3   OH225723   3.119   4.542   2.875
 8593TIP3    H125724   3.137   4.496   2.793
 8593TIP3    H225725   3.193   4.521   2.931
 8594TIP3   OH225726   6.907   6.371   2.646
 8594TIP3    H125727   6.816   6.345   2.633
 8594TIP3    H225728   6.915   6.386   2.740
 8595TIP3   OH225729   3.887   4.084   4.197
 8595TIP3    H125730   3.967   4.083   4.250
 8595TIP3    H225731   3.871   3.992   4.176
 8596TIP3   OH225732   4.757   4.905   6.651
 8596TIP3    H125733   4.824   4.973   6.659
 8596TIP3    H225734   4.806   4.823   6.648
 8597TIP3   OH225735   2.941   1.452   0.616
 8597TIP3    H125736   2.983   1.471   0.700
 8597TIP3    H225737   2.976   1.367   0.590
 8598TIP3   OH225738   2.645   3.798   1.734
 8598TIP3    H125739   2.651   3.709   1.699
 8598TIP3    H225740   2.583   3.791   1.806
 8599TIP3   OH225741   5.549   7.713   2.413
 8599TIP3    H125742   5.568   7.667   2.331
 8599TIP3    H225743   5.598   7.664   2.479
 8600TIP3   OH225744   5.642   0.981   0.748
 8600TIP3    H125745   5.727   0.938   0.736
 8600TIP3    H225746   5.638   1.047   0.679
 8601TIP3   OH225747   1.695   4.526   1.179
 8601TIP3    H125748   1.674   4.609   1.220
 8601TIP3    H225749   1.790   4.528   1.166
 8602TIP3   OH225750   3.297   1.454   1.505
 8602TIP3    H125751   3.271   1.545   1.493
 8602TIP3    H225752   3.284   1.437   1.598
 8603TIP3   OH225753   6.895   1.248   5.755
 8603TIP3    H125754   6.971   1.192   5.769
 8603TIP3    H225755   6.886   1.253   5.660
 8604TIP3   OH225756   3.188   3.585   3.087
 8604TIP3    H125757   3.274   3.565   3.124
 8604TIP3    H225758   3.143   3.501   3.086
 8605TIP3   OH225759   2.359   1.036   5.328
 8605TIP3    H125760   2.274   0.995   5.344
 8605TIP3    H225761   2.339   1.112   5.273
 8606TIP3   OH225762   2.330   1.364   2.492
 8606TIP3    H125763   2.376   1.448   2.501
 8606TIP3    H225764   2.333   1.326   2.579
 8607TIP3   OH225765   1.920   0.972   5.257
 8607TIP3    H125766   1.997   1.008   5.213
 8607TIP3    H225767   1.949   0.955   5.347
 8608TIP3   OH225768   6.338   7.145   0.713
 8608TIP3    H125769   6.375   7.197   0.642
 8608TIP3    H225770   6.353   7.054   0.687
 8609TIP3   OH225771   2.822   0.225   0.161
 8609TIP3    H125772   2.757   0.184   0.217
 8609TIP3    H225773   2.774   0.294   0.115
 8610TIP3   OH225774   2.737   2.032   2.109
 8610TIP3    H125775   2.701   1.988   2.186
 8610TIP3    H225776   2.755   2.122   2.139
 8611TIP3   OH225777   6.142   0.087   2.175
 8611TIP3    H125778   6.121   0.180   2.183
 8611TIP3    H225779   6.058   0.045   2.158
 8612TIP3   OH225780   7.569   3.822   5.162
 8612TIP3    H125781   7.501   3.874   5.206
 8612TIP3    H225782   7.651   3.857   5.196
 8613TIP3   OH225783   4.165   6.720   1.835
 8613TIP3    H125784   4.070   6.728   1.842
 8613TIP3    H225785   4.179   6.668   1.757
 8614TIP3   OH225786   6.903   1.295   3.319
 8614TIP3    H125787   6.864   1.381   3.329
 8614TIP3    H225788   6.957   1.302   3.241
 8615TIP3   OH225789   1.274   2.824   5.555
 8615TIP3    H125790   1.227   2.904   5.578
 8615TIP3    H225791   1.206   2.756   5.556
 8616TIP3   OH225792   3.013   2.542   3.031
 8616TIP3    H125793   3.017   2.456   2.988
 8616TIP3    H225794   2.944   2.589   2.983
 8617TIP3   OH225795   3.507   2.636   6.396
 8617TIP3    H125796   3.576   2.577   6.428
 8617TIP3    H225797   3.530   2.650   6.304
 8618TIP3   OH225798   1.064   6.975   0.957
 8618TIP3    H125799   1.126   7.012   0.895
 8618TIP3    H225800   0.988   7.033   0.954
 8619TIP3   OH225801   6.399   7.817   2.706
 8619TIP3    H125802   6.320   7.820   2.760
 8619TIP3    H225803   6.443   7.900   2.721
 8620TIP3   OH225804   2.291   7.423   0.372
 8620TIP3    H125805   2.316   7.332   0.358
 8620TIP3    H225806   2.331   7.470   0.299
 8621TIP3   OH225807   1.774   3.488   5.406
 8621TIP3    H125808   1.748   3.532   5.325
 8621TIP3    H225809   1.725   3.406   5.405
 8622TIP3   OH225810   4.024   0.205   4.541
 8622TIP3    H125811   4.070   0.132   4.582
 8622TIP3    H225812   4.083   0.280   4.552
 8623TIP3   OH225813   1.174   6.511   6.337
 8623TIP3    H125814   1.200   6.431   6.291
 8623TIP3    H225815   1.217   6.506   6.422
 8624TIP3   OH225816   7.081   3.661   1.821
 8624TIP3    H125817   7.004   3.617   1.858
 8624TIP3    H225818   7.066   3.754   1.838
 8625TIP3   OH225819   2.275   2.194   4.254
 8625TIP3    H125820   2.286   2.118   4.197
 8625TIP3    H225821   2.334   2.260   4.218
 8626TIP3   OH225822   4.441   2.734   4.752
 8626TIP3    H125823   4.501   2.796   4.794
 8626TIP3    H225824   4.446   2.756   4.659
 8627TIP3   OH225825   5.463   3.895   4.041
 8627TIP3    H125826   5.510   3.968   4.082
 8627TIP3    H225827   5.527   3.823   4.041
 8628TIP3   OH225828   3.067   2.927   3.559
 8628TIP3    H125829   2.988   2.882   3.589
 8628TIP3    H225830   3.094   2.878   3.482
 8629TIP3   OH225831   1.787   2.466   5.131
 8629TIP3    H125832   1.698   2.431   5.138
 8629TIP3    H225833   1.777   2.559   5.151
 8630TIP3   OH225834   7.826   6.085   5.040
 8630TIP3    H125835   7.902   6.142   5.028
 8630TIP3    H225836   7.796   6.103   5.129
 8631TIP3   OH225837   7.642   2.483   6.151
 8631TIP3    H125838   7.624   2.419   6.220
 8631TIP3    H225839   7.697   2.549   6.194
 8632TIP3   OH225840   6.972   7.658   2.953
 8632TIP3    H125841   6.962   7.733   2.895
 8632TIP3    H225842   6.930   7.684   3.035
 8633TIP3   OH225843   2.631   5.668   3.624
 8633TIP3    H125844   2.596   5.637   3.708
 8633TIP3    H225845   2.721   5.694   3.644
 8634TIP3   OH225846   7.929   0.825   0.392
 8634TIP3    H125847   7.861   0.758   0.387
 8634TIP3    H225848   7.985   0.809   0.316
 8635TIP3   OH225849   6.670   5.610   3.960
 8635TIP3    H125850   6.642   5.651   4.041
 8635TIP3    H225851   6.714   5.530   3.987
 8636TIP3   OH225852   6.158   2.859   1.811
 8636TIP3    H125853   6.071   2.856   1.851
 8636TIP3    H225854   6.158   2.784   1.750
 8637TIP3   OH225855   4.753   0.823   6.706
 8637TIP3    H125856   4.811   0.776   6.766
 8637TIP3    H225857   4.749   0.769   6.628
 8638TIP3   OH225858   4.643   3.888   1.552
 8638TIP3    H125859   4.562   3.912   1.507
 8638TIP3    H225860   4.671   3.969   1.594
 8639TIP3   OH225861   4.031   3.226   2.926
 8639TIP3    H125862   4.116   3.192   2.953
 8639TIP3    H225863   4.040   3.242   2.832
 8640TIP3   OH225864   3.033   6.061   6.553
 8640TIP3    H125865   3.013   5.970   6.576
 8640TIP3    H225866   3.102   6.086   6.614
 8641TIP3   OH225867   8.058   5.259   0.730
 8641TIP3    H125868   8.050   5.333   0.791
 8641TIP3    H225869   7.994   5.278   0.661
 8642TIP3   OH225870   0.659   3.228   5.042
 8642TIP3    H125871   0.706   3.310   5.058
 8642TIP3    H225872   0.580   3.234   5.095
 8643TIP3   OH225873   5.451   7.041   2.389
 8643TIP3    H125874   5.418   7.129   2.407
 8643TIP3    H225875   5.388   7.004   2.327
 8644TIP3   OH225876   3.158   6.005   4.230
 8644TIP3    H125877   3.207   6.035   4.153
 8644TIP3    H225878   3.116   5.924   4.201
 8645TIP3   OH225879   1.642   4.117   1.843
 8645TIP3    H125880   1.548   4.114   1.826
 8645TIP3    H225881   1.680   4.140   1.759
 8646TIP3   OH225882   0.870   0.607   0.530
 8646TIP3    H125883   0.921   0.554   0.591
 8646TIP3    H225884   0.934   0.640   0.467
 8647TIP3   OH225885   6.675   0.436   3.380
 8647TIP3    H125886   6.579   0.431   3.385
 8647TIP3    H225887   6.695   0.413   3.289
 8648TIP3   OH225888   6.171   6.829   5.775
 8648TIP3    H125889   6.085   6.823   5.734
 8648TIP3    H225890   6.157   6.798   5.864
 8649TIP3   OH225891   7.279   3.574   5.202
 8649TIP3    H125892   7.336   3.535   5.136
 8649TIP3    H225893   7.196   3.527   5.192
 8650TIP3   OH225894   0.851   1.001   3.225
 8650TIP3    H125895   0.936   0.965   3.252
 8650TIP3    H225896   0.865   1.031   3.135
 8651TIP3   OH225897   7.215   1.947   0.290
 8651TIP3    H125898   7.214   2.004   0.366
 8651TIP3    H225899   7.307   1.918   0.283
 8652TIP3   OH225900   1.677   6.594   3.995
 8652TIP3    H125901   1.747   6.649   3.961
 8652TIP3    H225902   1.699   6.505   3.967
 8653TIP3   OH225903   7.506   4.141   5.159
 8653TIP3    H125904   7.502   4.235   5.142
 8653TIP3    H225905   7.506   4.133   5.255
 8654TIP3   OH225906   2.639   0.709   0.045
 8654TIP3    H125907   2.599   0.745   0.125
 8654TIP3    H225908   2.588   0.747  -0.026
 8655TIP3   OH225909   6.692   6.391   5.109
 8655TIP3    H125910   6.661   6.370   5.021
 8655TIP3    H225911   6.626   6.452   5.143
 8656TIP3   OH225912   7.404   2.881   5.051
 8656TIP3    H125913   7.442   2.903   4.966
 8656TIP3    H225914   7.479   2.865   5.108
 8657TIP3   OH225915   8.254   2.444   6.117
 8657TIP3    H125916   8.205   2.384   6.061
 8657TIP3    H225917   8.317   2.486   6.057
 8658TIP3   OH225918   8.206   4.943   1.249
 8658TIP3    H125919   8.153   4.868   1.276
 8658TIP3    H225920   8.283   4.940   1.307
 8659TIP3   OH225921   0.093   6.842   3.510
 8659TIP3    H125922   0.011   6.836   3.559
 8659TIP3    H225923   0.149   6.775   3.549
 8660TIP3   OH225924   4.573   4.394   2.298
 8660TIP3    H125925   4.532   4.443   2.227
 8660TIP3    H225926   4.653   4.359   2.259
 8661TIP3   OH225927   0.643   4.990   2.014
 8661TIP3    H125928   0.569   4.989   1.953
 8661TIP3    H225929   0.650   5.082   2.041
 8662TIP3   OH225930   1.431   3.529   2.371
 8662TIP3    H125931   1.394   3.594   2.312
 8662TIP3    H225932   1.355   3.485   2.409
 8663TIP3   OH225933   3.177   7.350   4.542
 8663TIP3    H125934   3.246   7.311   4.596
 8663TIP3    H225935   3.159   7.434   4.584
 8664TIP3   OH225936   5.165   5.379   5.609
 8664TIP3    H125937   5.221   5.373   5.685
 8664TIP3    H225938   5.205   5.447   5.554
 8665TIP3   OH225939   8.082   7.082   2.131
 8665TIP3    H125940   8.141   7.009   2.116
 8665TIP3    H225941   8.138   7.160   2.128
 8666TIP3   OH225942   3.534   7.098   1.152
 8666TIP3    H125943   3.570   7.186   1.164
 8666TIP3    H225944   3.526   7.064   1.241
 8667TIP3   OH225945   1.780   6.206   4.766
 8667TIP3    H125946   1.830   6.288   4.770
 8667TIP3    H225947   1.782   6.182   4.673
 8668TIP3   OH225948   5.685   3.719   3.972
 8668TIP3    H125949   5.650   3.686   3.889
 8668TIP3    H225950   5.692   3.641   4.027
 8669TIP3   OH225951   6.398   3.416   5.176
 8669TIP3    H125952   6.400   3.413   5.080
 8669TIP3    H225953   6.419   3.326   5.203
 8670TIP3   OH225954   3.829   2.148   2.206
 8670TIP3    H125955   3.921   2.136   2.183
 8670TIP3    H225956   3.814   2.242   2.196
 8671TIP3   OH225957   2.207   4.752   3.044
 8671TIP3    H125958   2.295   4.787   3.032
 8671TIP3    H225959   2.215   4.658   3.025
 8672TIP3   OH225960   1.839   0.645   4.101
 8672TIP3    H125961   1.815   0.722   4.151
 8672TIP3    H225962   1.841   0.674   4.010
 8673TIP3   OH225963   3.722   3.401   5.801
 8673TIP3    H125964   3.762   3.367   5.881
 8673TIP3    H225965   3.631   3.418   5.826
 8674TIP3   OH225966   1.880   6.140   3.985
 8674TIP3    H125967   1.807   6.094   4.026
 8674TIP3    H225968   1.929   6.071   3.940
 8675TIP3   OH225969   6.544   0.199   4.768
 8675TIP3    H125970   6.509   0.171   4.853
 8675TIP3    H225971   6.478   0.260   4.735
 8676TIP3   OH225972   6.718   0.523   5.870
 8676TIP3    H125973   6.694   0.603   5.916
 8676TIP3    H225974   6.766   0.553   5.793
 8677TIP3   OH225975   0.718   6.425   4.894
 8677TIP3    H125976   0.696   6.338   4.860
 8677TIP3    H225977   0.715   6.482   4.817
 8678TIP3   OH225978   4.818   2.747   6.488
 8678TIP3    H125979   4.776   2.719   6.407
 8678TIP3    H225980   4.797   2.840   6.495
 8679TIP3   OH225981   3.638   2.215   2.691
 8679TIP3    H125982   3.562   2.213   2.750
 8679TIP3    H225983   3.600   2.238   2.606
 8680TIP3   OH225984   6.781   3.320   3.590
 8680TIP3    H125985   6.738   3.314   3.676
 8680TIP3    H225986   6.868   3.353   3.609
 8681TIP3   OH225987   6.964   5.511   3.952
 8681TIP3    H125988   7.026   5.551   4.013
 8681TIP3    H225989   6.886   5.565   3.957
 8682TIP3   OH225990   0.534   2.712   6.734
 8682TIP3    H125991   0.438   2.710   6.740
 8682TIP3    H225992   0.555   2.641   6.672
 8683TIP3   OH225993   3.195   3.605   1.477
 8683TIP3    H125994   3.249   3.639   1.549
 8683TIP3    H225995   3.184   3.679   1.418
 8684TIP3   OH225996   3.853   3.582   6.748
 8684TIP3    H125997   3.900   3.499   6.750
 8684TIP3    H225998   3.854   3.609   6.656
 8685TIP3   OH225999   3.877   1.256   0.321
 8685TIP3    H126000   3.806   1.308   0.358
 8685TIP3    H226001   3.921   1.218   0.397
 8686TIP3   OH226002   2.749   7.565   0.527
 8686TIP3    H126003   2.670   7.601   0.488
 8686TIP3    H226004   2.731   7.471   0.534
 8687TIP3   OH226005   6.194   6.497   1.803
 8687TIP3    H126006   6.143   6.572   1.833
 8687TIP3    H226007   6.282   6.511   1.839
 8688TIP3   OH226008   3.684   3.375   1.511
 8688TIP3    H126009   3.630   3.392   1.588
 8688TIP3    H226010   3.649   3.431   1.443
 8689TIP3   OH226011   0.068   6.849   5.456
 8689TIP3    H126012  -0.019   6.851   5.496
 8689TIP3    H226013   0.052   6.814   5.368
 8690TIP3   OH226014   0.366   0.013   2.556
 8690TIP3    H126015   0.356   0.031   2.462
 8690TIP3    H226016   0.382   0.099   2.595
 8691TIP3   OH226017   5.605   7.337   5.312
 8691TIP3    H126018   5.596   7.429   5.339
 8691TIP3    H226019   5.699   7.321   5.310
 8692TIP3   OH226020   6.314   3.845   1.841
 8692TIP3    H126021   6.295   3.910   1.908
 8692TIP3    H226022   6.280   3.763   1.877
 8693TIP3   OH226023   4.578   3.537   0.465
 8693TIP3    H126024   4.642   3.486   0.516
 8693TIP3    H226025   4.541   3.474   0.403
 8694TIP3   OH226026   0.122   0.265   3.962
 8694TIP3    H126027   0.184   0.199   3.993
 8694TIP3    H226028   0.175   0.325   3.910
 8695TIP3   OH226029   6.042   7.433   6.576
 8695TIP3    H126030   5.982   7.507   6.565
 8695TIP3    H226031   6.013   7.391   6.657
 8696TIP3   OH226032   5.090   5.333   4.985
 8696TIP3    H126033   5.025   5.347   4.916
 8696TIP3    H226034   5.168   5.377   4.954
 8697TIP3   OH226035   4.044   2.020   1.888
 8697TIP3    H126036   3.971   2.080   1.870
 8697TIP3    H226037   4.092   2.016   1.805
 8698TIP3   OH226038   6.865   6.669   5.369
 8698TIP3    H126039   6.795   6.713   5.320
 8698TIP3    H226040   6.922   6.740   5.399
 8699TIP3   OH226041   3.306   2.902   0.317
 8699TIP3    H126042   3.347   2.823   0.283
 8699TIP3    H226043   3.238   2.923   0.252
 8700TIP3   OH226044   7.669   4.256   6.535
 8700TIP3    H126045   7.611   4.295   6.601
 8700TIP3    H226046   7.635   4.167   6.522
 8701TIP3   OH226047   4.187   6.765   0.308
 8701TIP3    H126048   4.222   6.688   0.262
 8701TIP3    H226049   4.234   6.766   0.391
 8702TIP3   OH226050   6.492   2.141   6.339
 8702TIP3    H126051   6.549   2.107   6.408
 8702TIP3    H226052   6.527   2.103   6.259
 8703TIP3   OH226053   6.746   5.451   4.744
 8703TIP3    H126054   6.713   5.540   4.753
 8703TIP3    H226055   6.839   5.458   4.768
 8704TIP3   OH226056   3.121   4.823   6.271
 8704TIP3    H126057   3.194   4.865   6.316
 8704TIP3    H226058   3.082   4.892   6.218
 8705TIP3   OH226059   5.787   0.559   1.541
 8705TIP3    H126060   5.869   0.575   1.495
 8705TIP3    H226061   5.783   0.627   1.608
 8706TIP3   OH226062   6.361   7.384   0.868
 8706TIP3    H126063   6.308   7.304   0.875
 8706TIP3    H226064   6.405   7.391   0.952
 8707TIP3   OH226065   1.443   3.575   3.016
 8707TIP3    H126066   1.427   3.521   3.094
 8707TIP3    H226067   1.514   3.633   3.041
 8708TIP3   OH226068   1.993   1.643   6.701
 8708TIP3    H126069   1.969   1.660   6.610
 8708TIP3    H226070   1.952   1.558   6.721
 8709TIP3   OH226071   1.957  -0.001   1.643
 8709TIP3    H126072   1.993   0.044   1.567
 8709TIP3    H226073   1.915   0.068   1.694
 8710TIP3   OH226074   5.256   2.311   0.684
 8710TIP3    H126075   5.227   2.398   0.711
 8710TIP3    H226076   5.189   2.281   0.623
 8711TIP3   OH226077   6.009   4.484   2.657
 8711TIP3    H126078   5.914   4.478   2.666
 8711TIP3    H226079   6.025   4.469   2.564
 8712TIP3   OH226080   5.097   2.862   3.764
 8712TIP3    H126081   5.161   2.930   3.744
 8712TIP3    H226082   5.091   2.811   3.683
 8713TIP3   OH226083   3.707   6.059   3.830
 8713TIP3    H126084   3.648   5.989   3.858
 8713TIP3    H226085   3.781   6.054   3.889
 8714TIP3   OH226086   7.991   1.871   3.661
 8714TIP3    H126087   7.917   1.853   3.603
 8714TIP3    H226088   7.951   1.898   3.743
 8715TIP3   OH226089   2.941   3.520   4.731
 8715TIP3    H126090   2.893   3.492   4.653
 8715TIP3    H226091   2.878   3.513   4.802
 8716TIP3   OH226092   3.868   4.173   3.407
 8716TIP3    H126093   3.861   4.239   3.477
 8716TIP3    H226094   3.788   4.121   3.415
 8717TIP3   OH226095   6.456   3.907   0.489
 8717TIP3    H126096   6.382   3.885   0.432
 8717TIP3    H226097   6.452   3.843   0.559
 8718TIP3   OH226098   1.612   1.269   0.674
 8718TIP3    H126099   1.689   1.224   0.638
 8718TIP3    H226100   1.601   1.232   0.761
 8719TIP3   OH226101   5.113   5.974   0.773
 8719TIP3    H126102   5.043   5.937   0.827
 8719TIP3    H226103   5.143   6.050   0.821
 8720TIP3   OH226104   3.530   1.071   4.949
 8720TIP3    H126105   3.452   1.127   4.943
 8720TIP3    H226106   3.526   1.016   4.871
 8721TIP3   OH226107   0.177   1.529   3.521
 8721TIP3    H126108   0.146   1.535   3.430
 8721TIP3    H226109   0.272   1.541   3.515
 8722TIP3   OH226110   2.718   5.323   1.368
 8722TIP3    H126111   2.790   5.309   1.429
 8722TIP3    H226112   2.684   5.410   1.390
 8723TIP3   OH226113   8.215   2.426   5.241
 8723TIP3    H126114   8.233   2.463   5.155
 8723TIP3    H226115   8.141   2.477   5.274
 8724TIP3   OH226116   5.292   0.239   3.376
 8724TIP3    H126117   5.296   0.143   3.373
 8724TIP3    H226118   5.360   0.264   3.438
 8725TIP3   OH226119   1.480   2.966   4.470
 8725TIP3    H126120   1.385   2.956   4.468
 8725TIP3    H226121   1.515   2.877   4.469
 8726TIP3   OH226122   3.171   7.683   5.361
 8726TIP3    H126123   3.156   7.595   5.398
 8726TIP3    H226124   3.266   7.691   5.358
 8727TIP3   OH226125   7.441   2.760   1.895
 8727TIP3    H126126   7.461   2.851   1.872
 8727TIP3    H226127   7.474   2.750   1.985
 8728TIP3   OH226128   7.243   4.519   5.335
 8728TIP3    H126129   7.258   4.610   5.359
 8728TIP3    H226130   7.159   4.519   5.290
 8729TIP3   OH226131   2.514   2.235   2.443
 8729TIP3    H126132   2.572   2.260   2.515
 8729TIP3    H226133   2.506   2.140   2.451
 8730TIP3   OH226134   3.611   7.383   6.115
 8730TIP3    H126135   3.694   7.360   6.072
 8730TIP3    H226136   3.631   7.462   6.165
 8731TIP3   OH226137   3.075   7.485   5.589
 8731TIP3    H126138   3.021   7.563   5.582
 8731TIP3    H226139   3.025   7.416   5.545
 8732TIP3   OH226140   5.973   4.424   4.067
 8732TIP3    H126141   5.931   4.510   4.071
 8732TIP3    H226142   6.065   4.441   4.086
 8733TIP3   OH226143   6.288   0.731   0.223
 8733TIP3    H126144   6.228   0.803   0.204
 8733TIP3    H226145   6.339   0.761   0.299
 8734TIP3   OH226146   5.306   6.917   5.952
 8734TIP3    H126147   5.260   6.858   5.892
 8734TIP3    H226148   5.326   6.863   6.028
 8735TIP3   OH226149   7.615   4.272   2.247
 8735TIP3    H126150   7.685   4.325   2.286
 8735TIP3    H226151   7.545   4.274   2.312
 8736TIP3   OH226152   0.137   4.379   2.718
 8736TIP3    H126153   0.195   4.305   2.735
 8736TIP3    H226154   0.184   4.454   2.753
 8737TIP3   OH226155   5.199   7.606   6.042
 8737TIP3    H126156   5.269   7.554   6.002
 8737TIP3    H226157   5.241   7.686   6.071
 8738TIP3   OH226158   6.699   3.950   0.363
 8738TIP3    H126159   6.748   3.874   0.394
 8738TIP3    H226160   6.618   3.948   0.415
 8739TIP3   OH226161   6.176   0.114   1.567
 8739TIP3    H126162   6.102   0.059   1.592
 8739TIP3    H226163   6.138   0.201   1.553
 8740TIP3   OH226164   6.272   7.549   1.327
 8740TIP3    H126165   6.222   7.610   1.381
 8740TIP3    H226166   6.254   7.463   1.365
 8741TIP3   OH226167   6.247   4.205   0.921
 8741TIP3    H126168   6.213   4.116   0.913
 8741TIP3    H226169   6.302   4.217   0.844
 8742TIP3   OH226170   4.383   3.270   4.384
 8742TIP3    H126171   4.334   3.229   4.313
 8742TIP3    H226172   4.433   3.339   4.342
 8743TIP3   OH226173   4.245   6.977   3.996
 8743TIP3    H126174   4.189   6.907   3.963
 8743TIP3    H226175   4.202   7.006   4.076
 8744TIP3   OH226176   7.834   0.097   4.264
 8744TIP3    H126177   7.811   0.190   4.253
 8744TIP3    H226178   7.845   0.064   4.175
 8745TIP3   OH226179   2.046   2.503   4.031
 8745TIP3    H126180   2.132   2.461   4.033
 8745TIP3    H226181   2.061   2.587   3.989
 8746TIP3   OH226182   2.086   6.899   4.460
 8746TIP3    H126183   2.038   6.903   4.377
 8746TIP3    H226184   2.135   6.981   4.463
 8747TIP3   OH226185   6.612   3.683   1.420
 8747TIP3    H126186   6.541   3.714   1.477
 8747TIP3    H226187   6.640   3.601   1.461
 8748TIP3   OH226188   3.981   5.481   6.522
 8748TIP3    H126189   4.036   5.551   6.557
 8748TIP3    H226190   4.020   5.460   6.437
 8749TIP3   OH226191   6.933   0.763   4.440
 8749TIP3    H126192   7.010   0.743   4.493
 8749TIP3    H226193   6.873   0.689   4.457
 8750TIP3   OH226194   2.952   2.711   5.621
 8750TIP3    H126195   2.940   2.630   5.571
 8750TIP3    H226196   2.865   2.751   5.623
 8751TIP3   OH226197   6.712   7.646   1.745
 8751TIP3    H126198   6.652   7.703   1.794
 8751TIP3    H226199   6.692   7.663   1.653
 8752TIP3   OH226200   8.296   3.031   1.851
 8752TIP3    H126201   8.291   3.090   1.927
 8752TIP3    H226202   8.293   3.089   1.775
 8753TIP3   OH226203   2.942   0.081   2.714
 8753TIP3    H126204   2.956   0.005   2.771
 8753TIP3    H226205   3.031   0.110   2.692
 8754TIP3   OH226206   4.966   6.710   6.644
 8754TIP3    H126207   4.910   6.678   6.573
 8754TIP3    H226208   4.935   6.665   6.722
 8755TIP3   OH226209   0.115   3.382   4.060
 8755TIP3    H126210   0.057   3.448   4.023
 8755TIP3    H226211   0.077   3.298   4.033
 8756TIP3   OH226212   6.715   0.231   0.503
 8756TIP3    H126213   6.734   0.264   0.415
 8756TIP3    H226214   6.685   0.307   0.552
 8757TIP3   OH226215   3.507   2.208   2.275
 8757TIP3    H126216   3.514   2.268   2.349
 8757TIP3    H226217   3.428   2.238   2.228
 8758TIP3   OH226218   6.038   1.858   3.254
 8758TIP3    H126219   6.077   1.944   3.235
 8758TIP3    H226220   6.081   1.798   3.193
 8759TIP3   OH226221   2.921   4.109   5.489
 8759TIP3    H126222   2.880   4.194   5.471
 8759TIP3    H226223   2.933   4.070   5.402
 8760TIP3   OH226224   6.954   2.365   4.441
 8760TIP3    H126225   7.042   2.400   4.426
 8760TIP3    H226226   6.901   2.402   4.370
 8761TIP3   OH226227   5.222   2.574   4.380
 8761TIP3    H126228   5.280   2.508   4.342
 8761TIP3    H226229   5.242   2.572   4.474
 8762TIP3   OH226230   3.367   3.208   5.730
 8762TIP3    H126231   3.402   3.252   5.807
 8762TIP3    H226232   3.384   3.115   5.745
 8763TIP3   OH226233   6.292   4.216   6.183
 8763TIP3    H126234   6.255   4.254   6.103
 8763TIP3    H226235   6.234   4.144   6.204
 8764TIP3   OH226236   3.991   7.624   0.886
 8764TIP3    H126237   3.920   7.561   0.897
 8764TIP3    H226238   3.982   7.655   0.796
 8765TIP3   OH226239   6.326   1.812   6.250
 8765TIP3    H126240   6.386   1.816   6.325
 8765TIP3    H226241   6.247   1.771   6.284
 8766TIP3   OH226242   7.311   6.633   2.821
 8766TIP3    H126243   7.330   6.552   2.775
 8766TIP3    H226244   7.394   6.657   2.864
 8767TIP3   OH226245   6.111   0.996   3.749
 8767TIP3    H126246   6.076   1.052   3.679
 8767TIP3    H226247   6.039   0.988   3.811
 8768TIP3   OH226248   1.574   6.814   3.073
 8768TIP3    H126249   1.662   6.777   3.082
 8768TIP3    H226250   1.584   6.886   3.011
 8769TIP3   OH226251   4.991   3.974   1.842
 8769TIP3    H126252   4.930   3.995   1.913
 8769TIP3    H226253   5.006   4.058   1.798
 8770TIP3   OH226254   3.975   4.540   3.273
 8770TIP3    H126255   4.040   4.472   3.289
 8770TIP3    H226256   3.947   4.525   3.182
 8771TIP3   OH226257   2.828   0.817   2.956
 8771TIP3    H126258   2.737   0.825   2.985
 8771TIP3    H226259   2.853   0.906   2.929
 8772TIP3   OH226260   7.048   5.118   1.705
 8772TIP3    H126261   7.046   5.111   1.801
 8772TIP3    H226262   7.047   5.212   1.688
 8773TIP3   OH226263   3.288   0.083   1.761
 8773TIP3    H126264   3.320   0.172   1.751
 8773TIP3    H226265   3.202   0.083   1.719
 8774TIP3   OH226266   1.973   7.269   4.567
 8774TIP3    H126267   2.064   7.241   4.565
 8774TIP3    H226268   1.946   7.259   4.658
 8775TIP3   OH226269   0.785   3.596   5.329
 8775TIP3    H126270   0.703   3.646   5.321
 8775TIP3    H226271   0.834   3.642   5.397
 8776TIP3   OH226272   6.214   3.015   5.294
 8776TIP3    H126273   6.196   2.959   5.218
 8776TIP3    H226274   6.130   3.055   5.315
 8777TIP3   OH226275   6.293   1.097   5.863
 8777TIP3    H126276   6.321   1.169   5.807
 8777TIP3    H226277   6.269   1.027   5.802
 8778TIP3   OH226278   0.353   4.433   3.264
 8778TIP3    H126279   0.438   4.399   3.235
 8778TIP3    H226280   0.307   4.356   3.298
 8779TIP3   OH226281   6.551   0.735   1.362
 8779TIP3    H126282   6.632   0.744   1.312
 8779TIP3    H226283   6.555   0.806   1.427
 8780TIP3   OH226284   4.801   1.772   3.786
 8780TIP3    H126285   4.835   1.766   3.696
 8780TIP3    H226286   4.842   1.852   3.821
 8781TIP3   OH226287   6.500   1.652   4.952
 8781TIP3    H126288   6.531   1.585   4.891
 8781TIP3    H226289   6.561   1.725   4.940
 8782TIP3   OH226290   0.506   1.035   1.448
 8782TIP3    H126291   0.496   1.051   1.542
 8782TIP3    H226292   0.461   1.109   1.407
 8783TIP3   OH226293   4.118   1.372   4.723
 8783TIP3    H126294   4.046   1.414   4.676
 8783TIP3    H226295   4.097   1.278   4.721
 8784TIP3   OH226296   4.559   7.474   5.039
 8784TIP3    H126297   4.605   7.431   5.112
 8784TIP3    H226298   4.482   7.514   5.080
 8785TIP3   OH226299   4.963   0.858   4.358
 8785TIP3    H126300   5.027   0.793   4.327
 8785TIP3    H226301   4.920   0.889   4.278
 8786TIP3   OH226302   6.188   0.442   3.940
 8786TIP3    H126303   6.219   0.351   3.952
 8786TIP3    H226304   6.266   0.495   3.958
 8787TIP3   OH226305   5.820   3.960   6.045
 8787TIP3    H126306   5.832   4.052   6.024
 8787TIP3    H226307   5.739   3.935   5.999
 8788TIP3   OH226308   0.593   1.327   6.663
 8788TIP3    H126309   0.614   1.418   6.645
 8788TIP3    H226310   0.657   1.277   6.614
 8789TIP3   OH226311   7.196   3.121   0.063
 8789TIP3    H126312   7.109   3.157   0.082
 8789TIP3    H226313   7.232   3.178  -0.005
 8790TIP3   OH226314   8.234   1.384   3.038
 8790TIP3    H126315   8.240   1.476   3.066
 8790TIP3    H226316   8.307   1.373   2.977
 8791TIP3   OH226317   7.435   2.275   0.135
 8791TIP3    H126318   7.476   2.245   0.054
 8791TIP3    H226319   7.352   2.228   0.138
 8792TIP3   OH226320   2.377   2.634   1.395
 8792TIP3    H126321   2.452   2.575   1.387
 8792TIP3    H226322   2.389   2.696   1.323
 8793TIP3   OH226323   4.361   7.025   4.614
 8793TIP3    H126324   4.265   7.016   4.615
 8793TIP3    H226325   4.391   6.953   4.559
 8794TIP3   OH226326   2.998   2.547   0.474
 8794TIP3    H126327   2.973   2.629   0.430
 8794TIP3    H226328   2.989   2.480   0.406
 8795TIP3   OH226329   6.720   7.235  -0.030
 8795TIP3    H126330   6.634   7.199  -0.009
 8795TIP3    H226331   6.780   7.160  -0.020
 8796TIP3   OH226332   7.707   0.951   3.248
 8796TIP3    H126333   7.798   0.973   3.226
 8796TIP3    H226334   7.702   0.964   3.343
 8797TIP3   OH226335   5.190   2.161   2.848
 8797TIP3    H126336   5.219   2.162   2.757
 8797TIP3    H226337   5.144   2.245   2.860
 8798TIP3   OH226338   7.086   3.410   5.060
 8798TIP3    H126339   7.084   3.334   5.002
 8798TIP3    H226340   6.997   3.416   5.095
 8799TIP3   OH226341   4.904   1.405   3.685
 8799TIP3    H126342   4.846   1.481   3.680
 8799TIP3    H226343   4.958   1.420   3.762
 8800TIP3   OH226344   6.454   2.798   3.809
 8800TIP3    H126345   6.510   2.723   3.790
 8800TIP3    H226346   6.460   2.809   3.904
 8801TIP3   OH226347   5.419   7.015   3.303
 8801TIP3    H126348   5.355   6.977   3.364
 8801TIP3    H226349   5.462   6.939   3.263
 8802TIP3   OH226350   8.276   6.075   1.743
 8802TIP3    H126351   8.235   6.025   1.814
 8802TIP3    H226352   8.344   6.015   1.709
 8803TIP3   OH226353   0.831   1.000   5.274
 8803TIP3    H126354   0.877   0.931   5.227
 8803TIP3    H226355   0.767   0.954   5.328
 8804TIP3   OH226356   6.650   0.997   3.246
 8804TIP3    H126357   6.688   0.912   3.224
 8804TIP3    H226358   6.687   1.058   3.183
 8805TIP3   OH226359   1.464   1.663   3.824
 8805TIP3    H126360   1.391   1.603   3.811
 8805TIP3    H226361   1.425   1.750   3.820
 8806TIP3   OH226362   6.778   3.337   6.325
 8806TIP3    H126363   6.717   3.410   6.332
 8806TIP3    H226364   6.801   3.334   6.232
 8807TIP3   OH226365   1.025   3.387   6.320
 8807TIP3    H126366   1.066   3.334   6.388
 8807TIP3    H226367   1.013   3.473   6.361
 8808TIP3   OH226368   6.231   7.528   4.375
 8808TIP3    H126369   6.241   7.544   4.281
 8808TIP3    H226370   6.259   7.437   4.386
 8809TIP3   OH226371   1.132   2.060   6.119
 8809TIP3    H126372   1.184   2.118   6.063
 8809TIP3    H226373   1.163   1.972   6.096
 8810TIP3   OH226374   0.677   5.560   4.265
 8810TIP3    H126375   0.703   5.608   4.186
 8810TIP3    H226376   0.734   5.483   4.265
 8811TIP3   OH226377   4.703   1.162   5.929
 8811TIP3    H126378   4.692   1.256   5.916
 8811TIP3    H226379   4.776   1.138   5.871
 8812TIP3   OH226380   6.802   7.741   0.586
 8812TIP3    H126381   6.779   7.805   0.520
 8812TIP3    H226382   6.719   7.708   0.619
 8813TIP3   OH226383   1.111   0.362   0.431
 8813TIP3    H126384   1.072   0.339   0.516
 8813TIP3    H226385   1.036   0.372   0.372
 8814TIP3   OH226386   5.798   2.387   1.882
 8814TIP3    H126387   5.762   2.461   1.833
 8814TIP3    H226388   5.879   2.420   1.920
 8815TIP3   OH226389   8.015   5.472   4.757
 8815TIP3    H126390   7.962   5.410   4.807
 8815TIP3    H226391   8.106   5.445   4.776
 8816TIP3   OH226392   3.943   6.185   5.124
 8816TIP3    H126393   3.996   6.199   5.046
 8816TIP3    H226394   3.873   6.126   5.096
 8817TIP3   OH226395   4.643   7.745   4.321
 8817TIP3    H126396   4.673   7.686   4.253
 8817TIP3    H226397   4.721   7.764   4.373
 8818TIP3   OH226398   0.577   7.358   3.228
 8818TIP3    H126399   0.538   7.283   3.184
 8818TIP3    H226400   0.652   7.382   3.174
 8819TIP3   OH226401   4.953   6.394   0.706
 8819TIP3    H126402   4.897   6.343   0.648
 8819TIP3    H226403   5.011   6.330   0.747
 8820TIP3   OH226404   6.897   1.633   3.057
 8820TIP3    H126405   6.888   1.653   2.964
 8820TIP3    H226406   6.974   1.577   3.062
 8821TIP3   OH226407   3.391   2.908   4.423
 8821TIP3    H126408   3.460   2.974   4.420
 8821TIP3    H226409   3.328   2.937   4.357
 8822TIP3   OH226410   8.171   0.677   6.170
 8822TIP3    H126411   8.206   0.686   6.259
 8822TIP3    H226412   8.076   0.676   6.182
 8823TIP3   OH226413   6.746   1.740   2.427
 8823TIP3    H126414   6.776   1.653   2.403
 8823TIP3    H226415   6.693   1.726   2.506
 8824TIP3   OH226416   3.217   3.442   6.391
 8824TIP3    H126417   3.211   3.359   6.345
 8824TIP3    H226418   3.130   3.456   6.428
 8825TIP3   OH226419   7.000   3.146   1.625
 8825TIP3    H126420   7.057   3.220   1.644
 8825TIP3    H226421   6.938   3.180   1.560
 8826TIP3   OH226422   2.172   6.309   4.312
 8826TIP3    H126423   2.219   6.229   4.288
 8826TIP3    H226424   2.107   6.320   4.243
 8827TIP3   OH226425   4.250   6.338   6.484
 8827TIP3    H126426   4.330   6.367   6.439
 8827TIP3    H226427   4.267   6.246   6.506
 8828TIP3   OH226428   6.929   5.857   1.434
 8828TIP3    H126429   7.019   5.849   1.402
 8828TIP3    H226430   6.896   5.937   1.392
 8829TIP3   OH226431   3.929   5.223   3.712
 8829TIP3    H126432   3.866   5.151   3.709
 8829TIP3    H226433   3.991   5.198   3.780
 8830TIP3   OH226434   4.999   6.896   0.827
 8830TIP3    H126435   5.067   6.922   0.890
 8830TIP3    H226436   4.930   6.858   0.881
 8831TIP3   OH226437   0.667   2.585   5.125
 8831TIP3    H126438   0.636   2.649   5.061
 8831TIP3    H226439   0.593   2.528   5.141
 8832TIP3   OH226440   2.288   7.674   0.179
 8832TIP3    H126441   2.217   7.722   0.135
 8832TIP3    H226442   2.366   7.696   0.129
 8833TIP3   OH226443   4.101   5.537   2.870
 8833TIP3    H126444   4.178   5.493   2.907
 8833TIP3    H226445   4.029   5.511   2.929
 8834TIP3   OH226446   3.511   5.955   5.075
 8834TIP3    H126447   3.594   5.983   5.036
 8834TIP3    H226448   3.447   6.017   5.040
 8835TIP3   OH226449   7.283   2.618   4.830
 8835TIP3    H126450   7.190   2.624   4.810
 8835TIP3    H226451   7.298   2.684   4.897
 8836TIP3   OH226452   4.383   6.381   1.838
 8836TIP3    H126453   4.313   6.411   1.780
 8836TIP3    H226454   4.358   6.290   1.859
 8837TIP3   OH226455   3.617   6.509   1.162
 8837TIP3    H126456   3.588   6.599   1.145
 8837TIP3    H226457   3.583   6.459   1.087
 8838TIP3   OH226458   3.808   6.071   2.625
 8838TIP3    H126459   3.770   6.022   2.553
 8838TIP3    H226460   3.843   6.004   2.684
 8839TIP3   OH226461   4.579   6.455   4.056
 8839TIP3    H126462   4.627   6.513   4.115
 8839TIP3    H226463   4.610   6.479   3.969
 8840TIP3   OH226464   7.475   4.641   1.468
 8840TIP3    H126465   7.571   4.640   1.462
 8840TIP3    H226466   7.453   4.555   1.504
 8841TIP3   OH226467   7.614   0.042   4.480
 8841TIP3    H126468   7.575   0.052   4.567
 8841TIP3    H226469   7.640   0.131   4.455
 8842TIP3   OH226470   2.530   6.636   6.165
 8842TIP3    H126471   2.622   6.626   6.191
 8842TIP3    H226472   2.529   6.610   6.072
 8843TIP3   OH226473   6.741   6.519   2.236
 8843TIP3    H126474   6.835   6.507   2.233
 8843TIP3    H226475   6.729   6.595   2.294
 8844TIP3   OH226476   6.544   7.087   3.228
 8844TIP3    H126477   6.456   7.126   3.222
 8844TIP3    H226478   6.554   7.039   3.145
 8845TIP3   OH226479   5.118   5.933   3.887
 8845TIP3    H126480   5.178   6.007   3.886
 8845TIP3    H226481   5.159   5.867   3.831
 8846TIP3   OH226482   5.467   4.793   0.519
 8846TIP3    H126483   5.423   4.708   0.516
 8846TIP3    H226484   5.397   4.857   0.507
 8847TIP3   OH226485   0.982   5.610   6.207
 8847TIP3    H126486   0.947   5.576   6.124
 8847TIP3    H226487   0.904   5.627   6.260
 8848TIP3   OH226488   3.545   4.260   3.378
 8848TIP3    H126489   3.451   4.255   3.397
 8848TIP3    H226490   3.566   4.176   3.338
 8849TIP3   OH226491   4.768   5.524   3.065
 8849TIP3    H126492   4.782   5.447   3.009
 8849TIP3    H226493   4.676   5.545   3.054
 8850TIP3   OH226494   1.430   0.932   1.854
 8850TIP3    H126495   1.502   0.871   1.869
 8850TIP3    H226496   1.415   0.930   1.760
 8851TIP3   OH226497   5.848   5.308   0.185
 8851TIP3    H126498   5.806   5.369   0.245
 8851TIP3    H226499   5.778   5.247   0.160
 8852TIP3   OH226500   3.465   0.791   2.995
 8852TIP3    H126501   3.449   0.855   2.926
 8852TIP3    H226502   3.435   0.834   3.075
 8853TIP3   OH226503   1.441   4.730   4.074
 8853TIP3    H126504   1.384   4.666   4.115
 8853TIP3    H226505   1.511   4.745   4.138
 8854TIP3   OH226506   2.717   6.644   6.640
 8854TIP3    H126507   2.718   6.549   6.626
 8854TIP3    H226508   2.777   6.679   6.575
 8855TIP3   OH226509   8.082   3.102   4.247
 8855TIP3    H126510   8.159   3.108   4.190
 8855TIP3    H226511   8.092   3.018   4.292
 8856TIP3   OH226512   7.591   0.714   4.183
 8856TIP3    H126513   7.523   0.659   4.145
 8856TIP3    H226514   7.565   0.803   4.160
 8857TIP3   OH226515   3.981   2.448   4.571
 8857TIP3    H126516   4.011   2.534   4.540
 8857TIP3    H226517   3.886   2.451   4.564
 8858TIP3   OH226518  -0.010   1.336   3.348
 8858TIP3    H126519  -0.041   1.332   3.257
 8858TIP3    H226520  -0.031   1.250   3.385
 8859TIP3   OH226521   4.944   5.091   6.727
 8859TIP3    H126522   4.924   5.121   6.815
 8859TIP3    H226523   5.027   5.044   6.736
 8860TIP3   OH226524   1.226   3.106   4.420
 8860TIP3    H126525   1.150   3.081   4.367
 8860TIP3    H226526   1.195   3.099   4.510
 8861TIP3   OH226527   7.317   0.402   5.127
 8861TIP3    H126528   7.402   0.390   5.085
 8861TIP3    H226529   7.338   0.431   5.216
 8862TIP3   OH226530   6.955   1.327   2.570
 8862TIP3    H126531   7.007   1.407   2.565
 8862TIP3    H226532   6.989   1.271   2.500
 8863TIP3   OH226533   6.188   5.242   1.869
 8863TIP3    H126534   6.205   5.286   1.786
 8863TIP3    H226535   6.104   5.198   1.856
 8864TIP3   OH226536   7.039   0.560   2.149
 8864TIP3    H126537   6.961   0.512   2.176
 8864TIP3    H226538   7.018   0.652   2.169
 8865TIP3   OH226539   4.552   2.339   0.058
 8865TIP3    H126540   4.483   2.405   0.046
 8865TIP3    H226541   4.567   2.305  -0.030
 8866TIP3   OH226542   2.907   1.691   5.246
 8866TIP3    H126543   3.003   1.699   5.241
 8866TIP3    H226544   2.875   1.742   5.171
 8867TIP3   OH226545   1.852   5.923   0.393
 8867TIP3    H126546   1.870   5.942   0.485
 8867TIP3    H226547   1.936   5.937   0.349
 8868TIP3   OH226548   1.055   6.707   6.199
 8868TIP3    H126549   1.098   6.634   6.243
 8868TIP3    H226550   1.123   6.775   6.194
 8869TIP3   OH226551   2.609   2.495   2.144
 8869TIP3    H126552   2.593   2.509   2.237
 8869TIP3    H226553   2.557   2.563   2.100
 8870TIP3   OH226554   1.792   6.787   0.583
 8870TIP3    H126555   1.795   6.882   0.577
 8870TIP3    H226556   1.718   6.762   0.527
 8871TIP3   OH226557   1.928   3.803   1.795
 8871TIP3    H126558   1.913   3.895   1.819
 8871TIP3    H226559   1.856   3.756   1.838
 8872TIP3   OH226560   7.737   1.170   2.133
 8872TIP3    H126561   7.687   1.102   2.178
 8872TIP3    H226562   7.789   1.211   2.203
 8873TIP3   OH226563   1.514   0.812   2.304
 8873TIP3    H126564   1.521   0.898   2.346
 8873TIP3    H226565   1.420   0.797   2.295
 8874TIP3   OH226566   7.878   3.704   2.241
 8874TIP3    H126567   7.894   3.772   2.175
 8874TIP3    H226568   7.912   3.742   2.322
 8875TIP3   OH226569   5.121   5.602   4.458
 8875TIP3    H126570   5.059   5.529   4.467
 8875TIP3    H226571   5.094   5.665   4.524
 8876TIP3   OH226572   4.356   7.573   0.256
 8876TIP3    H126573   4.382   7.561   0.347
 8876TIP3    H226574   4.295   7.501   0.238
 8877TIP3   OH226575   4.897   2.636   3.066
 8877TIP3    H126576   4.921   2.544   3.058
 8877TIP3    H226577   4.980   2.683   3.058
 8878TIP3   OH226578   4.674   1.333   4.261
 8878TIP3    H126579   4.758   1.290   4.247
 8878TIP3    H226580   4.647   1.307   4.349
 8879TIP3   OH226581   0.128   6.629   2.333
 8879TIP3    H126582   0.147   6.550   2.282
 8879TIP3    H226583   0.122   6.597   2.423
 8880TIP3   OH226584   7.315   4.699   6.248
 8880TIP3    H126585   7.404   4.667   6.265
 8880TIP3    H226586   7.280   4.719   6.334
 8881TIP3   OH226587   6.166   2.092   3.230
 8881TIP3    H126588   6.140   2.184   3.241
 8881TIP3    H226589   6.218   2.092   3.150
 8882TIP3   OH226590   3.696   7.336   0.155
 8882TIP3    H126591   3.646   7.275   0.210
 8882TIP3    H226592   3.748   7.387   0.216
 8883TIP3   OH226593   4.251   5.312   2.152
 8883TIP3    H126594   4.182   5.365   2.193
 8883TIP3    H226595   4.279   5.252   2.221
 8884TIP3   OH226596   5.522   5.225   0.563
 8884TIP3    H126597   5.581   5.255   0.494
 8884TIP3    H226598   5.453   5.290   0.565
 8885TIP3   OH226599   1.503   6.773   0.984
 8885TIP3    H126600   1.576   6.771   1.046
 8885TIP3    H226601   1.436   6.826   1.026
 8886TIP3   OH226602   6.769   1.835   5.357
 8886TIP3    H126603   6.737   1.881   5.434
 8886TIP3    H226604   6.736   1.886   5.283
 8887TIP3   OH226605   7.609   1.051   6.610
 8887TIP3    H126606   7.611   1.001   6.692
 8887TIP3    H226607   7.656   0.996   6.547
 8888TIP3   OH226608   6.992   2.869   1.487
 8888TIP3    H126609   6.965   2.945   1.436
 8888TIP3    H226610   7.038   2.907   1.563
 8889TIP3   OH226611   6.901   3.738   4.319
 8889TIP3    H126612   6.807   3.744   4.303
 8889TIP3    H226613   6.939   3.811   4.270
 8890TIP3   OH226614   0.278   7.839   1.870
 8890TIP3    H126615   0.224   7.781   1.925
 8890TIP3    H226616   0.269   7.804   1.782
 8891TIP3   OH226617   3.133   0.044   3.156
 8891TIP3    H126618   3.123   0.130   3.116
 8891TIP3    H226619   3.097   0.055   3.245
 8892TIP3   OH226620   2.907   7.718   0.846
 8892TIP3    H126621   2.921   7.639   0.794
 8892TIP3    H226622   2.923   7.790   0.784
 8893TIP3   OH226623   4.997   3.401   4.867
 8893TIP3    H126624   4.954   3.328   4.824
 8893TIP3    H226625   5.091   3.385   4.854
 8894TIP3   OH226626   2.642   3.452   2.242
 8894TIP3    H126627   2.668   3.374   2.291
 8894TIP3    H226628   2.621   3.420   2.155
 8895TIP3   OH226629   7.267   2.011   0.602
 8895TIP3    H126630   7.317   2.012   0.684
 8895TIP3    H226631   7.288   2.094   0.560
 8896TIP3   OH226632   2.148   7.681   0.709
 8896TIP3    H126633   2.065   7.636   0.721
 8896TIP3    H226634   2.202   7.620   0.658
 8897TIP3   OH226635   1.199   1.502   5.121
 8897TIP3    H126636   1.210   1.475   5.030
 8897TIP3    H226637   1.117   1.459   5.148
 8898TIP3   OH226638   6.787   7.222   1.956
 8898TIP3    H126639   6.879   7.209   1.932
 8898TIP3    H226640   6.789   7.291   2.022
 8899TIP3   OH226641   1.322   4.266   0.014
 8899TIP3    H126642   1.336   4.346   0.066
 8899TIP3    H226643   1.246   4.224   0.054
 8900TIP3   OH226644   5.647   1.350   3.892
 8900TIP3    H126645   5.743   1.348   3.893
 8900TIP3    H226646   5.625   1.375   3.802
 8901TIP3   OH226647   6.376   2.651   0.697
 8901TIP3    H126648   6.357   2.729   0.749
 8901TIP3    H226649   6.438   2.601   0.751
 8902TIP3   OH226650   2.699   6.539   4.380
 8902TIP3    H126651   2.777   6.484   4.389
 8902TIP3    H226652   2.636   6.483   4.335
 8903TIP3   OH226653   3.223   4.274   0.403
 8903TIP3    H126654   3.264   4.223   0.473
 8903TIP3    H226655   3.250   4.229   0.322
 8904TIP3   OH226656   1.044   4.164   1.318
 8904TIP3    H126657   0.958   4.121   1.316
 8904TIP3    H226658   1.063   4.184   1.226
 8905TIP3   OH226659   2.412   7.528   2.816
 8905TIP3    H126660   2.423   7.592   2.747
 8905TIP3    H226661   2.468   7.455   2.790
 8906TIP3   OH226662   3.798   5.994   5.002
 8906TIP3    H126663   3.866   5.946   5.048
 8906TIP3    H226664   3.785   5.946   4.920
 8907TIP3   OH226665   4.663   4.027   0.156
 8907TIP3    H126666   4.740   4.060   0.110
 8907TIP3    H226667   4.634   4.101   0.210
 8908TIP3   OH226668   4.214   5.361   1.405
 8908TIP3    H126669   4.182   5.291   1.348
 8908TIP3    H226670   4.290   5.323   1.450
 8909TIP3   OH226671   0.613   5.925   4.404
 8909TIP3    H126672   0.561   5.983   4.459
 8909TIP3    H226673   0.588   5.948   4.314
 8910TIP3   OH226674   0.643   2.417   4.458
 8910TIP3    H126675   0.682   2.483   4.515
 8910TIP3    H226676   0.717   2.381   4.409
 8911TIP3   OH226677   2.300   3.205   2.994
 8911TIP3    H126678   2.260   3.279   2.948
 8911TIP3    H226679   2.244   3.131   2.974
 8912TIP3   OH226680   0.206   4.187   6.681
 8912TIP3    H126681   0.189   4.130   6.606
 8912TIP3    H226682   0.263   4.255   6.646
 8913TIP3   OH226683   4.848   0.358   3.837
 8913TIP3    H126684   4.879   0.291   3.776
 8913TIP3    H226685   4.810   0.426   3.781
 8914TIP3   OH226686   7.654   2.167   5.603
 8914TIP3    H126687   7.615   2.136   5.521
 8914TIP3    H226688   7.579   2.179   5.662
 8915TIP3   OH226689   6.634   1.992   3.610
 8915TIP3    H126690   6.555   2.046   3.603
 8915TIP3    H226691   6.689   2.020   3.537
 8916TIP3   OH226692   1.170   3.449   2.809
 8916TIP3    H126693   1.135   3.409   2.730
 8916TIP3    H226694   1.226   3.520   2.777
 8917TIP3   OH226695   3.289   2.504   0.424
 8917TIP3    H126696   3.366   2.547   0.463
 8917TIP3    H226697   3.217   2.524   0.484
 8918TIP3   OH226698   2.426   7.167   2.756
 8918TIP3    H126699   2.412   7.194   2.665
 8918TIP3    H226700   2.382   7.083   2.764
 8919TIP3   OH226701   7.870   0.500   0.363
 8919TIP3    H126702   7.963   0.503   0.384
 8919TIP3    H226703   7.863   0.543   0.278
 8920TIP3   OH226704   7.470   1.549   0.260
 8920TIP3    H126705   7.501   1.465   0.293
 8920TIP3    H226706   7.548   1.604   0.255
 8921TIP3   OH226707   8.228   7.104   5.766
 8921TIP3    H126708   8.293   7.130   5.700
 8921TIP3    H226709   8.218   7.010   5.754
 8922TIP3   OH226710   4.700   3.144   3.264
 8922TIP3    H126711   4.607   3.128   3.249
 8922TIP3    H226712   4.703   3.208   3.335
 8923TIP3   OH226713   5.534   6.058   0.067
 8923TIP3    H126714   5.501   6.029  -0.018
 8923TIP3    H226715   5.495   6.144   0.081
 8924TIP3   OH226716   3.201   2.341   4.871
 8924TIP3    H126717   3.162   2.364   4.787
 8924TIP3    H226718   3.143   2.379   4.937
 8925TIP3   OH226719   7.474   3.578   2.161
 8925TIP3    H126720   7.419   3.500   2.170
 8925TIP3    H226721   7.550   3.561   2.216
 8926TIP3   OH226722   0.446   3.456   3.158
 8926TIP3    H126723   0.488   3.410   3.230
 8926TIP3    H226724   0.472   3.407   3.080
 8927TIP3   OH226725   5.977   3.163   5.333
 8927TIP3    H126726   6.031   3.235   5.366
 8927TIP3    H226727   5.901   3.206   5.295
 8928TIP3   OH226728   7.398   4.175   1.344
 8928TIP3    H126729   7.368   4.143   1.259
 8928TIP3    H226730   7.322   4.165   1.401
 8929TIP3   OH226731   2.972   7.463   1.579
 8929TIP3    H126732   3.034   7.529   1.611
 8929TIP3    H226733   3.015   7.425   1.502
 8930TIP3   OH226734   0.041   0.618   6.385
 8930TIP3    H126735   0.038   0.707   6.422
 8930TIP3    H226736  -0.019   0.567   6.440
 8931TIP3   OH226737   0.120   2.287   6.462
 8931TIP3    H126738   0.029   2.313   6.478
 8931TIP3    H226739   0.141   2.230   6.536
 8932TIP3   OH226740   5.027   1.447   6.108
 8932TIP3    H126741   5.090   1.507   6.147
 8932TIP3    H226742   4.941   1.478   6.138
 8933TIP3   OH226743   3.884   4.401   4.558
 8933TIP3    H126744   3.808   4.422   4.613
 8933TIP3    H226745   3.846   4.364   4.479
 8934TIP3   OH226746   5.443   5.862   0.261
 8934TIP3    H126747   5.426   5.894   0.172
 8934TIP3    H226748   5.388   5.916   0.317
 8935TIP3   OH226749   7.754   4.368   5.107
 8935TIP3    H126750   7.665   4.376   5.141
 8935TIP3    H226751   7.744   4.374   5.012
 8936TIP3   OH226752   6.011   3.113   1.116
 8936TIP3    H126753   5.986   3.049   1.049
 8936TIP3    H226754   5.930   3.130   1.165
 8937TIP3   OH226755   8.195   0.250   1.886
 8937TIP3    H126756   8.156   0.329   1.924
 8937TIP3    H226757   8.274   0.280   1.843
 8938TIP3   OH226758   8.215   6.513   4.993
 8938TIP3    H126759   8.262   6.593   5.017
 8938TIP3    H226760   8.148   6.542   4.931
 8939TIP3   OH226761   5.040   4.547   3.682
 8939TIP3    H126762   5.117   4.557   3.737
 8939TIP3    H226763   4.970   4.525   3.742
 8940TIP3   OH226764   0.454   4.252   4.944
 8940TIP3    H126765   0.523   4.316   4.931
 8940TIP3    H226766   0.399   4.289   5.013
 8941TIP3   OH226767   6.840   3.957   6.012
 8941TIP3    H126768   6.928   3.962   6.051
 8941TIP3    H226769   6.792   4.030   6.052
 8942TIP3   OH226770   5.218   1.675   0.368
 8942TIP3    H126771   5.167   1.751   0.397
 8942TIP3    H226772   5.300   1.712   0.336
 8943TIP3   OH226773   7.625   1.686   6.497
 8943TIP3    H126774   7.562   1.728   6.438
 8943TIP3    H226775   7.662   1.615   6.446
 8944TIP3   OH226776   6.693   1.002   6.098
 8944TIP3    H126777   6.685   1.032   6.189
 8944TIP3    H226778   6.655   1.073   6.046
 8945TIP3   OH226779   3.261   0.962   4.684
 8945TIP3    H126780   3.353   0.965   4.658
 8945TIP3    H226781   3.240   0.869   4.690
 8946TIP3   OH226782   1.626   0.827   0.483
 8946TIP3    H126783   1.570   0.765   0.436
 8946TIP3    H226784   1.706   0.778   0.501
 8947TIP3   OH226785   3.247   3.553   4.460
 8947TIP3    H126786   3.234   3.632   4.513
 8947TIP3    H226787   3.333   3.520   4.486
 8948TIP3   OH226788   6.749   4.806   1.769
 8948TIP3    H126789   6.732   4.897   1.745
 8948TIP3    H226790   6.824   4.810   1.828
 8949TIP3   OH226791   1.495   4.703   3.446
 8949TIP3    H126792   1.500   4.657   3.362
 8949TIP3    H226793   1.402   4.707   3.466
 8950TIP3   OH226794   6.713   7.504   4.747
 8950TIP3    H126795   6.755   7.590   4.744
 8950TIP3    H226796   6.768   7.448   4.691
 8951TIP3   OH226797   7.365   5.678   3.541
 8951TIP3    H126798   7.394   5.769   3.537
 8951TIP3    H226799   7.412   5.640   3.615
 8952TIP3   OH226800   2.019   1.637   2.801
 8952TIP3    H126801   1.924   1.632   2.810
 8952TIP3    H226802   2.050   1.550   2.825
 8953TIP3   OH226803   2.636   2.330   2.705
 8953TIP3    H126804   2.569   2.273   2.743
 8953TIP3    H226805   2.698   2.346   2.776
 8954TIP3   OH226806   0.688   2.108   2.334
 8954TIP3    H126807   0.604   2.082   2.297
 8954TIP3    H226808   0.664   2.162   2.410
 8955TIP3   OH226809   1.594   2.565   4.427
 8955TIP3    H126810   1.621   2.504   4.358
 8955TIP3    H226811   1.631   2.528   4.507
 8956TIP3   OH226812   6.587   1.016   4.826
 8956TIP3    H126813   6.654   0.987   4.764
 8956TIP3    H226814   6.519   1.056   4.772
 8957TIP3   OH226815   0.459   7.366   1.029
 8957TIP3    H126816   0.452   7.379   0.934
 8957TIP3    H226817   0.449   7.453   1.066
 8958TIP3   OH226818   6.933   0.222   2.788
 8958TIP3    H126819   6.961   0.301   2.834
 8958TIP3    H226820   6.934   0.246   2.696
 8959TIP3   OH226821   2.712   5.529   3.858
 8959TIP3    H126822   2.698   5.448   3.809
 8959TIP3    H226823   2.806   5.546   3.850
 8960TIP3   OH226824   4.113   4.533   4.437
 8960TIP3    H126825   4.189   4.477   4.451
 8960TIP3    H226826   4.040   4.486   4.478
 8961TIP3   OH226827   1.605   1.723   4.226
 8961TIP3    H126828   1.618   1.746   4.134
 8961TIP3    H226829   1.691   1.731   4.266
 8962TIP3   OH226830   1.267   0.733   2.241
 8962TIP3    H126831   1.186   0.690   2.269
 8962TIP3    H226832   1.284   0.696   2.154
 8963TIP3   OH226833   5.206   7.348   6.388
 8963TIP3    H126834   5.209   7.442   6.373
 8963TIP3    H226835   5.121   7.332   6.428
 8964TIP3   OH226836   7.799   2.633   0.112
 8964TIP3    H126837   7.749   2.603   0.036
 8964TIP3    H226838   7.863   2.564   0.129
 8965TIP3   OH226839   3.371   5.751   3.170
 8965TIP3    H126840   3.428   5.731   3.096
 8965TIP3    H226841   3.284   5.723   3.140
 8966TIP3   OH226842   1.225   6.346   5.535
 8966TIP3    H126843   1.267   6.285   5.475
 8966TIP3    H226844   1.155   6.295   5.577
 8967TIP3   OH226845   4.939   7.503   6.099
 8967TIP3    H126846   4.945   7.409   6.081
 8967TIP3    H226847   5.030   7.532   6.109
 8968TIP3   OH226848   1.608   3.391   6.378
 8968TIP3    H126849   1.672   3.385   6.307
 8968TIP3    H226850   1.662   3.402   6.457
 8969TIP3   OH226851   3.141   4.721   3.181
 8969TIP3    H126852   3.080   4.791   3.156
 8969TIP3    H226853   3.105   4.643   3.140
 8970TIP3   OH226854   4.346   0.918   3.291
 8970TIP3    H126855   4.335   0.974   3.368
 8970TIP3    H226856   4.439   0.898   3.288
 8971TIP3   OH226857   7.527   4.824   4.251
 8971TIP3    H126858   7.535   4.919   4.257
 8971TIP3    H226859   7.437   4.809   4.223
 8972TIP3   OH226860   3.350   4.139   2.210
 8972TIP3    H126861   3.277   4.081   2.186
 8972TIP3    H226862   3.388   4.099   2.288
 8973TIP3   OH226863   0.393   2.815   3.991
 8973TIP3    H126864   0.340   2.769   3.925
 8973TIP3    H226865   0.413   2.747   4.056
 8974TIP3   OH226866   4.251   5.077   3.105
 8974TIP3    H126867   4.317   5.118   3.049
 8974TIP3    H226868   4.190   5.148   3.125
 8975TIP3   OH226869   7.348   6.188   3.663
 8975TIP3    H126870   7.412   6.126   3.626
 8975TIP3    H226871   7.351   6.171   3.757
 8976TIP3   OH226872   6.298   7.374   6.553
 8976TIP3    H126873   6.207   7.403   6.554
 8976TIP3    H226874   6.293   7.279   6.560
 8977TIP3   OH226875   1.498   6.979   2.005
 8977TIP3    H126876   1.573   6.921   2.022
 8977TIP3    H226877   1.422   6.921   2.004
 8978TIP3   OH226878   5.347   4.780   4.123
 8978TIP3    H126879   5.363   4.874   4.115
 8978TIP3    H226880   5.414   4.749   4.183
 8979TIP3   OH226881   3.724   6.563   0.003
 8979TIP3    H126882   3.706   6.547   0.095
 8979TIP3    H226883   3.748   6.477  -0.032
 8980TIP3   OH226884   7.333   1.473   2.428
 8980TIP3    H126885   7.408   1.439   2.477
 8980TIP3    H226886   7.361   1.469   2.336
 8981TIP3   OH226887   1.150   3.124   5.311
 8981TIP3    H126888   1.082   3.059   5.292
 8981TIP3    H226889   1.112   3.208   5.285
 8982TIP3   OH226890   7.735   1.285   4.340
 8982TIP3    H126891   7.649   1.268   4.301
 8982TIP3    H226892   7.766   1.365   4.298
 8983TIP3   OH226893   1.418   5.272   3.882
 8983TIP3    H126894   1.391   5.279   3.974
 8983TIP3    H226895   1.389   5.353   3.841
 8984TIP3   OH226896   2.879   1.338   1.213
 8984TIP3    H126897   2.805   1.293   1.171
 8984TIP3    H226898   2.839   1.389   1.283
 8985TIP3   OH226899   5.638   7.582   3.462
 8985TIP3    H126900   5.560   7.532   3.484
 8985TIP3    H226901   5.695   7.519   3.417
 8986TIP3   OH226902   2.842   3.864   3.970
 8986TIP3    H126903   2.790   3.928   4.018
 8986TIP3    H226904   2.782   3.827   3.906
 8987TIP3   OH226905   7.744   3.103   3.250
 8987TIP3    H126906   7.705   3.039   3.189
 8987TIP3    H226907   7.709   3.187   3.221
 8988TIP3   OH226908   0.288   3.250   0.856
 8988TIP3    H126909   0.230   3.296   0.795
 8988TIP3    H226910   0.325   3.319   0.910
 8989TIP3   OH226911   2.522   0.795   0.274
 8989TIP3    H126912   2.547   0.757   0.358
 8989TIP3    H226913   2.465   0.868   0.297
 8990TIP3   OH226914   6.652   1.423   0.096
 8990TIP3    H126915   6.621   1.449   0.009
 8990TIP3    H226916   6.701   1.499   0.127
 8991TIP3   OH226917   7.293   5.865   3.824
 8991TIP3    H126918   7.374   5.826   3.792
 8991TIP3    H226919   7.316   5.955   3.847
 8992TIP3   OH226920   4.345   6.300   5.493
 8992TIP3    H126921   4.413   6.235   5.507
 8992TIP3    H226922   4.317   6.326   5.581
 8993TIP3   OH226923   5.619   2.531   3.633
 8993TIP3    H126924   5.685   2.565   3.694
 8993TIP3    H226925   5.650   2.443   3.611
 8994TIP3   OH226926   2.296   2.347   3.618
 8994TIP3    H126927   2.308   2.268   3.565
 8994TIP3    H226928   2.250   2.317   3.696
 8995TIP3   OH226929   1.556   6.205   0.057
 8995TIP3    H126930   1.513   6.236   0.136
 8995TIP3    H226931   1.588   6.284   0.014
 8996TIP3   OH226932   6.266   0.216   2.799
 8996TIP3    H126933   6.340   0.245   2.852
 8996TIP3    H226934   6.249   0.127   2.829
 8997TIP3   OH226935   6.009   3.440   2.476
 8997TIP3    H126936   5.967   3.354   2.477
 8997TIP3    H226937   5.952   3.496   2.529
 8998TIP3   OH226938   3.791   6.089   3.546
 8998TIP3    H126939   3.758   6.144   3.618
 8998TIP3    H226940   3.843   6.022   3.589
 8999TIP3   OH226941   2.184   4.572   1.671
 8999TIP3    H126942   2.203   4.665   1.681
 8999TIP3    H226943   2.256   4.527   1.716
 9000TIP3   OH226944   6.327   1.742   1.585
 9000TIP3    H126945   6.374   1.798   1.524
 9000TIP3    H226946   6.337   1.785   1.670
 9001TIP3   OH226947   1.401   6.024   4.345
 9001TIP3    H126948   1.438   6.089   4.405
 9001TIP3    H226949   1.313   6.056   4.326
 9002TIP3   OH226950   4.317   5.094   3.488
 9002TIP3    H126951   4.278   5.151   3.554
 9002TIP3    H226952   4.358   5.024   3.538
 9003TIP3   OH226953   2.659   6.736   5.160
 9003TIP3    H126954   2.683   6.788   5.236
 9003TIP3    H226955   2.687   6.789   5.085
 9004TIP3   OH226956   2.165   4.420   3.195
 9004TIP3    H126957   2.186   4.482   3.264
 9004TIP3    H226958   2.076   4.390   3.215
 9005TIP3   OH226959   6.355   5.147   2.057
 9005TIP3    H126960   6.298   5.178   1.987
 9005TIP3    H226961   6.352   5.052   2.049
 9006TIP3   OH226962   4.246   4.339   1.381
 9006TIP3    H126963   4.155   4.348   1.409
 9006TIP3    H226964   4.270   4.425   1.348
 9007TIP3   OH226965   7.481   5.207   1.692
 9007TIP3    H126966   7.467   5.174   1.781
 9007TIP3    H226967   7.405   5.262   1.675
 9008TIP3   OH226968   2.677   5.170   2.923
 9008TIP3    H126969   2.686   5.163   2.828
 9008TIP3    H226970   2.669   5.080   2.953
 9009TIP3   OH226971   7.184   4.017   2.111
 9009TIP3    H126972   7.274   3.992   2.088
 9009TIP3    H226973   7.156   4.073   2.038
 9010TIP3   OH226974   5.419   2.444   1.179
 9010TIP3    H126975   5.446   2.354   1.197
 9010TIP3    H226976   5.488   2.480   1.124
 9011TIP3   OH226977   3.456   2.745   5.219
 9011TIP3    H126978   3.375   2.717   5.178
 9011TIP3    H226979   3.505   2.665   5.235
 9012TIP3   OH226980   6.774   3.609   1.901
 9012TIP3    H126981   6.811   3.685   1.946
 9012TIP3    H226982   6.698   3.585   1.954
 9013TIP3   OH226983   1.702   7.326   5.416
 9013TIP3    H126984   1.779   7.321   5.473
 9013TIP3    H226985   1.730   7.283   5.335
 9014TIP3   OH226986   4.633   6.547   3.782
 9014TIP3    H126987   4.695   6.604   3.738
 9014TIP3    H226988   4.599   6.490   3.712
 9015TIP3   OH226989   1.082   4.407   2.545
 9015TIP3    H126990   1.171   4.443   2.540
 9015TIP3    H226991   1.029   4.477   2.581
 9016TIP3   OH226992   5.317   1.456   0.893
 9016TIP3    H126993   5.386   1.517   0.919
 9016TIP3    H226994   5.343   1.427   0.806
 9017TIP3   OH226995   5.899   2.152   5.526
 9017TIP3    H126996   5.883   2.059   5.546
 9017TIP3    H226997   5.811   2.190   5.518
 9018TIP3   OH226998   8.257   4.634   2.699
 9018TIP3    H126999   8.187   4.569   2.711
 9018TIP3    H227000   8.216   4.718   2.722
 9019TIP3   OH227001   4.749   2.969   5.507
 9019TIP3    H127002   4.753   3.053   5.552
 9019TIP3    H227003   4.804   2.981   5.429
 9020TIP3   OH227004   4.055   2.042   4.685
 9020TIP3    H127005   4.079   2.103   4.616
 9020TIP3    H227006   4.092   2.080   4.765
 9021TIP3   OH227007   3.893   4.720   1.852
 9021TIP3    H127008   3.905   4.628   1.829
 9021TIP3    H227009   3.982   4.756   1.857
 9022TIP3   OH227010   1.447   6.725   4.607
 9022TIP3    H127011   1.470   6.785   4.537
 9022TIP3    H227012   1.492   6.644   4.585
 9023TIP3   OH227013   0.541   6.887   5.459
 9023TIP3    H127014   0.567   6.798   5.438
 9023TIP3    H227015   0.453   6.878   5.495
 9024TIP3   OH227016   3.131   1.953   2.219
 9024TIP3    H127017   3.150   2.012   2.292
 9024TIP3    H227018   3.088   2.008   2.155
 9025TIP3   OH227019   6.414   5.704   5.041
 9025TIP3    H127020   6.482   5.679   5.104
 9025TIP3    H227021   6.336   5.656   5.069
 9026TIP3   OH227022   2.862   4.700   1.476
 9026TIP3    H127023   2.822   4.634   1.532
 9026TIP3    H227024   2.899   4.764   1.537
 9027TIP3   OH227025   6.390   5.481   3.443
 9027TIP3    H127026   6.465   5.504   3.388
 9027TIP3    H227027   6.428   5.470   3.531
 9028TIP3   OH227028   0.647   4.191   3.783
 9028TIP3    H127029   0.575   4.141   3.745
 9028TIP3    H227030   0.703   4.125   3.824
 9029TIP3   OH227031   6.858   1.283   5.466
 9029TIP3    H127032   6.857   1.270   5.371
 9029TIP3    H227033   6.793   1.352   5.481
 9030TIP3   OH227034   1.992   2.526   1.696
 9030TIP3    H127035   1.936   2.578   1.639
 9030TIP3    H227036   2.074   2.518   1.648
 9031TIP3   OH227037   6.254   5.375   3.244
 9031TIP3    H127038   6.324   5.344   3.186
 9031TIP3    H227039   6.299   5.413   3.319
 9032TIP3   OH227040   6.965   1.806   0.946
 9032TIP3    H127041   7.050   1.827   0.984
 9032TIP3    H227042   6.979   1.813   0.851
 9033TIP3   OH227043   0.606   4.785   4.367
 9033TIP3    H127044   0.633   4.877   4.375
 9033TIP3    H227045   0.549   4.769   4.442
 9034TIP3   OH227046   5.788   3.188   2.074
 9034TIP3    H127047   5.707   3.226   2.040
 9034TIP3    H227048   5.823   3.255   2.133
 9035TIP3   OH227049   2.632   5.379   2.200
 9035TIP3    H127050   2.554   5.385   2.145
 9035TIP3    H227051   2.601   5.338   2.280
 9036TIP3   OH227052   0.204   5.559   4.275
 9036TIP3    H127053   0.276   5.614   4.244
 9036TIP3    H227054   0.246   5.494   4.331
 9037TIP3   OH227055   0.854   3.961   5.423
 9037TIP3    H127056   0.822   4.018   5.493
 9037TIP3    H227057   0.802   3.985   5.346
 9038TIP3   OH227058   1.061   0.578   2.011
 9038TIP3    H127059   1.048   0.616   2.097
 9038TIP3    H227060   0.973   0.554   1.982
 9039TIP3   OH227061   0.337   7.095   4.023
 9039TIP3    H127062   0.248   7.084   3.990
 9039TIP3    H227063   0.388   7.031   3.974
 9040TIP3   OH227064   0.141   0.642   2.979
 9040TIP3    H127065   0.118   0.550   2.962
 9040TIP3    H227066   0.073   0.672   3.040
 9041TIP3   OH227067   2.118   5.717   0.670
 9041TIP3    H127068   2.164   5.798   0.650
 9041TIP3    H227069   2.073   5.694   0.588
 9042TIP3   OH227070   1.376   3.331   0.425
 9042TIP3    H127071   1.344   3.353   0.338
 9042TIP3    H227072   1.371   3.414   0.474
 9043TIP3   OH227073   7.299   1.142   5.996
 9043TIP3    H127074   7.233   1.173   6.059
 9043TIP3    H227075   7.316   1.052   6.023
 9044TIP3   OH227076   6.971   2.691   2.349
 9044TIP3    H127077   6.900   2.627   2.360
 9044TIP3    H227078   6.997   2.682   2.258
 9045TIP3   OH227079   3.176   5.416   2.752
 9045TIP3    H127080   3.153   5.508   2.764
 9045TIP3    H227081   3.092   5.370   2.756
 9046TIP3   OH227082   6.844   2.178   5.298
 9046TIP3    H127083   6.801   2.262   5.315
 9046TIP3    H227084   6.929   2.202   5.261
 9047TIP3   OH227085   3.822   0.842   6.389
 9047TIP3    H127086   3.746   0.900   6.397
 9047TIP3    H227087   3.788   0.754   6.404
 9048TIP3   OH227088   0.333   6.359   0.424
 9048TIP3    H127089   0.248   6.316   0.429
 9048TIP3    H227090   0.393   6.299   0.468
 9049TIP3   OH227091   7.096   2.140   6.221
 9049TIP3    H127092   7.175   2.188   6.198
 9049TIP3    H227093   7.024   2.202   6.206
 9050TIP3   OH227094   0.651   3.832   6.319
 9050TIP3    H127095   0.594   3.850   6.245
 9050TIP3    H227096   0.723   3.895   6.309
 9051TIP3   OH227097   8.258   1.647   3.122
 9051TIP3    H127098   8.298   1.733   3.133
 9051TIP3    H227099   8.167   1.660   3.150
 9052TIP3   OH227100   5.185   3.894   5.387
 9052TIP3    H127101   5.092   3.875   5.379
 9052TIP3    H227102   5.196   3.981   5.350
 9053TIP3   OH227103   1.931   6.969   5.438
 9053TIP3    H127104   1.908   6.929   5.522
 9053TIP3    H227105   2.025   6.985   5.443
 9054TIP3   OH227106   7.606   5.274   6.333
 9054TIP3    H127107   7.562   5.210   6.389
 9054TIP3    H227108   7.699   5.249   6.338
 9055TIP3   OH227109   0.956   2.347   6.764
 9055TIP3    H127110   0.991   2.306   6.843
 9055TIP3    H227111   0.967   2.281   6.696
 9056TIP3   OH227112   2.405   1.206   2.726
 9056TIP3    H127113   2.338   1.142   2.700
 9056TIP3    H227114   2.484   1.176   2.682
 9057TIP3   OH227115   0.889   5.694   6.489
 9057TIP3    H127116   0.816   5.754   6.478
 9057TIP3    H227117   0.859   5.631   6.555
 9058TIP3   OH227118   3.086   2.559   0.842
 9058TIP3    H127119   3.147   2.633   0.844
 9058TIP3    H227120   3.141   2.482   0.850
 9059TIP3   OH227121   6.487   4.574   2.073
 9059TIP3    H127122   6.508   4.489   2.112
 9059TIP3    H227123   6.538   4.576   1.992
 9060TIP3   OH227124   1.097   3.904   5.289
 9060TIP3    H127125   1.028   3.945   5.341
 9060TIP3    H227126   1.119   3.969   5.223
 9061TIP3   OH227127   4.168   1.538   0.552
 9061TIP3    H127128   4.237   1.603   0.569
 9061TIP3    H227129   4.200   1.458   0.595
 9062TIP3   OH227130   2.638   4.821   0.513
 9062TIP3    H127131   2.706   4.813   0.580
 9062TIP3    H227132   2.681   4.796   0.432
 9063TIP3   OH227133   6.871   1.973   2.527
 9063TIP3    H127134   6.795   2.030   2.513
 9063TIP3    H227135   6.845   1.889   2.488
 9064TIP3   OH227136   3.706   5.679   3.108
 9064TIP3    H127137   3.690   5.619   3.035
 9064TIP3    H227138   3.709   5.766   3.068
 9065TIP3   OH227139   0.732   1.669   1.995
 9065TIP3    H127140   0.656   1.726   2.007
 9065TIP3    H227141   0.801   1.728   1.963
 9066TIP3   OH227142   0.138   4.817   6.201
 9066TIP3    H127143   0.169   4.727   6.192
 9066TIP3    H227144   0.089   4.818   6.284
 9067TIP3   OH227145   7.399   0.408   2.776
 9067TIP3    H127146   7.365   0.476   2.716
 9067TIP3    H227147   7.468   0.452   2.824
 9068TIP3   OH227148   4.589   4.893   5.519
 9068TIP3    H127149   4.615   4.828   5.584
 9068TIP3    H227150   4.510   4.933   5.556
 9069TIP3   OH227151   7.656   7.529   0.037
 9069TIP3    H127152   7.653   7.625   0.038
 9069TIP3    H227153   7.599   7.504  -0.036
 9070TIP3   OH227154   5.578   2.285   2.259
 9070TIP3    H127155   5.545   2.374   2.251
 9070TIP3    H227156   5.601   2.260   2.170
 9071TIP3   OH227157   5.518   0.783   4.540
 9071TIP3    H127158   5.477   0.789   4.454
 9071TIP3    H227159   5.611   0.765   4.521
 9072TIP3   OH227160   6.225   2.233   6.718
 9072TIP3    H127161   6.201   2.155   6.667
 9072TIP3    H227162   6.318   2.222   6.735
 9073TIP3   OH227163   3.569   4.578   3.121
 9073TIP3    H127164   3.639   4.513   3.131
 9073TIP3    H227165   3.579   4.613   3.033
 9074TIP3   OH227166   7.331   1.362   0.122
 9074TIP3    H127167   7.381   1.443   0.132
 9074TIP3    H227168   7.240   1.388   0.134
 9075TIP3   OH227169   1.353   1.087   6.130
 9075TIP3    H127170   1.259   1.102   6.119
 9075TIP3    H227171   1.360   0.993   6.149
 9076TIP3   OH227172   1.303   6.970   6.585
 9076TIP3    H127173   1.253   6.889   6.577
 9076TIP3    H227174   1.361   6.954   6.660
 9077TIP3   OH227175   6.322   6.651   5.588
 9077TIP3    H127176   6.270   6.571   5.583
 9077TIP3    H227177   6.275   6.706   5.651
 9078TIP3   OH227178   3.848   4.868   4.498
 9078TIP3    H127179   3.848   4.964   4.503
 9078TIP3    H227180   3.914   4.848   4.431
 9079TIP3   OH227181   7.420   6.095   1.951
 9079TIP3    H127182   7.469   6.176   1.939
 9079TIP3    H227183   7.406   6.088   2.045
 9080TIP3   OH227184   5.926   6.473   1.125
 9080TIP3    H127185   5.981   6.409   1.170
 9080TIP3    H227186   5.965   6.558   1.147
 9081TIP3   OH227187   5.167   6.975   1.032
 9081TIP3    H127188   5.087   7.017   1.061
 9081TIP3    H227189   5.237   7.035   1.060
 9082TIP3   OH227190   6.797   4.108   5.187
 9082TIP3    H127191   6.811   4.202   5.195
 9082TIP3    H227192   6.708   4.095   5.221
 9083TIP3   OH227193   6.516   2.488   2.962
 9083TIP3    H127194   6.426   2.456   2.968
 9083TIP3    H227195   6.520   2.560   3.024
 9084TIP3   OH227196   5.027   0.561   1.345
 9084TIP3    H127197   4.985   0.514   1.273
 9084TIP3    H227198   5.101   0.505   1.370
 9085TIP3   OH227199   2.087   1.218   3.459
 9085TIP3    H127200   2.000   1.199   3.495
 9085TIP3    H227201   2.088   1.313   3.448
 9086TIP3   OH227202   3.975   7.463   5.194
 9086TIP3    H127203   4.037   7.488   5.126
 9086TIP3    H227204   3.981   7.534   5.258
 9087TIP3   OH227205   3.236   1.493   4.581
 9087TIP3    H127206   3.222   1.588   4.577
 9087TIP3    H227207   3.303   1.476   4.514
 9088TIP3   OH227208   4.935   7.229   2.909
 9088TIP3    H127209   4.972   7.177   2.980
 9088TIP3    H227210   4.876   7.291   2.953
 9089TIP3   OH227211   7.374   4.249   6.157
 9089TIP3    H127212   7.286   4.239   6.194
 9089TIP3    H227213   7.361   4.254   6.063
 9090TIP3   OH227214   2.970   3.253   1.728
 9090TIP3    H127215   3.004   3.213   1.648
 9090TIP3    H227216   2.884   3.213   1.740
 9091TIP3   OH227217   2.206   3.848   0.922
 9091TIP3    H127218   2.243   3.828   1.008
 9091TIP3    H227219   2.112   3.837   0.932
 9092TIP3   OH227220   3.205   1.694   5.881
 9092TIP3    H127221   3.258   1.615   5.892
 9092TIP3    H227222   3.190   1.700   5.786
 9093TIP3   OH227223   2.870   4.431   4.064
 9093TIP3    H127224   2.908   4.408   3.979
 9093TIP3    H227225   2.814   4.506   4.045
 9094TIP3   OH227226   0.443   1.166   0.298
 9094TIP3    H127227   0.440   1.228   0.372
 9094TIP3    H227228   0.406   1.085   0.333
 9095TIP3   OH227229   2.231   3.632   1.386
 9095TIP3    H127230   2.321   3.651   1.360
 9095TIP3    H227231   2.202   3.710   1.433
 9096TIP3   OH227232   1.535   7.063   5.258
 9096TIP3    H127233   1.451   7.061   5.212
 9096TIP3    H227234   1.514   7.094   5.346
 9097TIP3   OH227235   7.842   5.520   3.629
 9097TIP3    H127236   7.889   5.558   3.702
 9097TIP3    H227237   7.799   5.594   3.586
 9098TIP3   OH227238   5.731   1.133   5.270
 9098TIP3    H127239   5.801   1.097   5.216
 9098TIP3    H227240   5.712   1.218   5.231
 9099TIP3   OH227241   7.057   1.391   3.003
 9099TIP3    H127242   7.116   1.346   3.064
 9099TIP3    H227243   7.014   1.320   2.955
 9100TIP3   OH227244   5.877   5.981   6.760
 9100TIP3    H127245   5.807   5.933   6.804
 9100TIP3    H227246   5.863   5.963   6.667
 9101TIP3   OH227247   0.237   0.847   0.088
 9101TIP3    H127248   0.279   0.880   0.008
 9101TIP3    H227249   0.151   0.818   0.060
 9102TIP3   OH227250   5.387   0.557   2.338
 9102TIP3    H127251   5.360   0.640   2.299
 9102TIP3    H227252   5.328   0.492   2.300
 9103TIP3   OH227253   6.197   3.623   4.170
 9103TIP3    H127254   6.241   3.577   4.099
 9103TIP3    H227255   6.138   3.558   4.208
 9104TIP3   OH227256   7.177   0.927   6.208
 9104TIP3    H127257   7.127   0.923   6.290
 9104TIP3    H227258   7.113   0.949   6.142
 9105TIP3   OH227259   3.471   3.313   2.212
 9105TIP3    H127260   3.452   3.344   2.301
 9105TIP3    H227261   3.470   3.392   2.158
 9106TIP3   OH227262   7.243   0.905   2.341
 9106TIP3    H127263   7.326   0.870   2.374
 9106TIP3    H227264   7.232   0.865   2.255
 9107TIP3   OH227265   6.409   6.837   0.647
 9107TIP3    H127266   6.453   6.832   0.563
 9107TIP3    H227267   6.335   6.777   0.639
 9108TIP3   OH227268   8.210   3.426   2.773
 9108TIP3    H127269   8.275   3.496   2.783
 9108TIP3    H227270   8.216   3.376   2.855
 9109TIP3   OH227271   7.659   3.265   2.299
 9109TIP3    H127272   7.667   3.170   2.291
 9109TIP3    H227273   7.651   3.281   2.393
 9110TIP3   OH227274   1.020   2.627   1.284
 9110TIP3    H127275   0.944   2.569   1.280
 9110TIP3    H227276   1.028   2.661   1.195
 9111TIP3   OH227277   3.237   6.024   0.345
 9111TIP3    H127278   3.215   6.116   0.336
 9111TIP3    H227279   3.171   5.989   0.404
 9112TIP3   OH227280   6.806   1.523   2.149
 9112TIP3    H127281   6.820   1.429   2.134
 9112TIP3    H227282   6.711   1.534   2.143
 9113TIP3   OH227283   7.245   1.375   4.100
 9113TIP3    H127284   7.263   1.443   4.034
 9113TIP3    H227285   7.240   1.423   4.183
 9114TIP3   OH227286   4.881   7.645   5.848
 9114TIP3    H127287   4.873   7.567   5.793
 9114TIP3    H227288   4.895   7.611   5.936
 9115TIP3   OH227289   1.813   5.579   2.446
 9115TIP3    H127290   1.863   5.509   2.488
 9115TIP3    H227291   1.767   5.536   2.374
 9116TIP3   OH227292   4.545   4.791   6.247
 9116TIP3    H127293   4.630   4.763   6.213
 9116TIP3    H227294   4.483   4.725   6.213
 9117TIP3   OH227295   8.237   4.084   0.481
 9117TIP3    H127296   8.225   3.989   0.478
 9117TIP3    H227297   8.151   4.119   0.503
 9118TIP3   OH227298   1.325   1.905   4.146
 9118TIP3    H127299   1.249   1.853   4.173
 9118TIP3    H227300   1.292   1.995   4.143
 9119TIP3   OH227301   7.802   4.018   1.002
 9119TIP3    H127302   7.733   4.064   1.051
 9119TIP3    H227303   7.755   3.952   0.951
 9120TIP3   OH227304   3.538   3.577   3.034
 9120TIP3    H127305   3.573   3.664   3.053
 9120TIP3    H227306   3.496   3.550   3.115
 9121TIP3   OH227307   2.598   5.905   1.186
 9121TIP3    H127308   2.571   5.911   1.278
 9121TIP3    H227309   2.597   5.995   1.155
 9122TIP3   OH227310   3.492   1.714   4.916
 9122TIP3    H127311   3.535   1.724   5.001
 9122TIP3    H227312   3.522   1.630   4.883
 9123TIP3   OH227313   6.021   2.163   2.611
 9123TIP3    H127314   6.023   2.161   2.515
 9123TIP3    H227315   6.094   2.221   2.635
 9124TIP3   OH227316   5.176   0.899   6.547
 9124TIP3    H127317   5.099   0.946   6.577
 9124TIP3    H227318   5.250   0.948   6.584
 9125TIP3   OH227319   3.066   2.145   5.384
 9125TIP3    H127320   3.159   2.141   5.363
 9125TIP3    H227321   3.062   2.118   5.476
 9126TIP3   OH227322   2.725   5.773   4.667
 9126TIP3    H127323   2.645   5.769   4.615
 9126TIP3    H227324   2.794   5.789   4.603
 9127TIP3   OH227325   7.519   1.029   5.630
 9127TIP3    H127326   7.491   1.016   5.540
 9127TIP3    H227327   7.454   0.984   5.683
 9128TIP3   OH227328   1.588   0.508   2.928
 9128TIP3    H127329   1.631   0.430   2.895
 9128TIP3    H227330   1.496   0.498   2.901
 9129TIP3   OH227331   1.027   1.777   5.411
 9129TIP3    H127332   1.092   1.707   5.405
 9129TIP3    H227333   1.059   1.834   5.481
 9130TIP3   OH227334   4.775   5.435   1.695
 9130TIP3    H127335   4.820   5.518   1.679
 9130TIP3    H227336   4.752   5.438   1.788
 9131TIP3   OH227337   3.304   3.002   6.704
 9131TIP3    H127338   3.220   3.017   6.660
 9131TIP3    H227339   3.369   3.035   6.642
 9132TIP3   OH227340   5.071   1.778   2.810
 9132TIP3    H127341   5.022   1.856   2.783
 9132TIP3    H227342   5.043   1.710   2.748
 9133TIP3   OH227343   8.137   4.008   4.758
 9133TIP3    H127344   8.057   3.985   4.804
 9133TIP3    H227345   8.163   3.928   4.712
 9134TIP3   OH227346   7.234   2.920   2.945
 9134TIP3    H127347   7.293   2.985   2.906
 9134TIP3    H227348   7.267   2.906   3.033
 9135TIP3   OH227349   3.649   4.677   4.451
 9135TIP3    H127350   3.679   4.616   4.383
 9135TIP3    H227351   3.721   4.738   4.461
 9136TIP3   OH227352   0.388   7.100   2.630
 9136TIP3    H127353   0.461   7.039   2.642
 9136TIP3    H227354   0.430   7.183   2.607
 9137TIP3   OH227355   6.580   1.300   2.309
 9137TIP3    H127356   6.626   1.311   2.392
 9137TIP3    H227357   6.622   1.225   2.268
 9138TIP3   OH227358   1.908   2.589   2.990
 9138TIP3    H127359   1.983   2.615   2.937
 9138TIP3    H227360   1.942   2.521   3.048
 9139TIP3   OH227361   8.156   3.528   3.610
 9139TIP3    H127362   8.200   3.448   3.581
 9139TIP3    H227363   8.101   3.554   3.536
 9140TIP3   OH227364   1.989   1.544   3.152
 9140TIP3    H127365   2.061   1.523   3.093
 9140TIP3    H227366   1.969   1.636   3.135
 9141TIP3   OH227367   5.856   3.876   1.493
 9141TIP3    H127368   5.897   3.961   1.506
 9141TIP3    H227369   5.928   3.813   1.500
 9142TIP3   OH227370   4.636   3.099   4.511
 9142TIP3    H127371   4.554   3.111   4.464
 9142TIP3    H227372   4.680   3.028   4.465
 9143TIP3   OH227373   6.513   4.307   1.322
 9143TIP3    H127374   6.502   4.214   1.299
 9143TIP3    H227375   6.600   4.311   1.362
 9144TIP3   OH227376   3.609   3.056   4.440
 9144TIP3    H127377   3.648   2.986   4.491
 9144TIP3    H227378   3.678   3.122   4.432
 9145TIP3   OH227379   7.014   4.597   6.267
 9145TIP3    H127380   7.070   4.612   6.190
 9145TIP3    H227381   7.046   4.515   6.304
 9146TIP3   OH227382   5.927   7.059   2.942
 9146TIP3    H127383   5.937   7.066   2.847
 9146TIP3    H227384   5.865   6.988   2.954
 9147TIP3   OH227385   6.046   3.975   0.884
 9147TIP3    H127386   6.022   4.048   0.942
 9147TIP3    H227387   5.963   3.933   0.863
 9148TIP3   OH227388   5.518   4.990   0.748
 9148TIP3    H127389   5.507   4.920   0.683
 9148TIP3    H227390   5.511   5.070   0.696
 9149TIP3   OH227391   0.741   3.228   1.511
 9149TIP3    H127392   0.711   3.201   1.424
 9149TIP3    H227393   0.677   3.294   1.538
 9150TIP3   OH227394   3.304   6.071   3.461
 9150TIP3    H127395   3.358   6.056   3.384
 9150TIP3    H227396   3.364   6.057   3.535
 9151TIP3   OH227397   6.732   4.634   4.514
 9151TIP3    H127398   6.646   4.592   4.523
 9151TIP3    H227399   6.794   4.562   4.514
 9152TIP3   OH227400   7.122   2.916   0.433
 9152TIP3    H127401   7.056   2.983   0.452
 9152TIP3    H227402   7.071   2.839   0.407
 9153TIP3   OH227403   5.080   1.179   6.222
 9153TIP3    H127404   5.173   1.161   6.205
 9153TIP3    H227405   5.056   1.242   6.155
 9154TIP3   OH227406   1.705   7.312   4.144
 9154TIP3    H127407   1.650   7.251   4.193
 9154TIP3    H227408   1.741   7.260   4.073
 9155TIP3   OH227409   6.289   7.389   4.693
 9155TIP3    H127410   6.279   7.483   4.679
 9155TIP3    H227411   6.200   7.355   4.689
 9156TIP3   OH227412   6.772   7.235   3.248
 9156TIP3    H127413   6.703   7.175   3.221
 9156TIP3    H227414   6.724   7.312   3.281
 9157TIP3   OH227415   0.402   5.669   2.108
 9157TIP3    H127416   0.382   5.597   2.048
 9157TIP3    H227417   0.461   5.630   2.172
 9158TIP3   OH227418   2.087   0.462   2.409
 9158TIP3    H127419   2.038   0.450   2.491
 9158TIP3    H227420   2.092   0.375   2.372
 9159TIP3   OH227421   4.142   0.395   1.147
 9159TIP3    H127422   4.197   0.425   1.074
 9159TIP3    H227423   4.099   0.316   1.113
 9160TIP3   OH227424   1.531   7.684   5.132
 9160TIP3    H127425   1.520   7.684   5.228
 9160TIP3    H227426   1.625   7.697   5.119
 9161TIP3   OH227427   4.459   0.468   4.605
 9161TIP3    H127428   4.388   0.531   4.610
 9161TIP3    H227429   4.520   0.495   4.674
 9162TIP3   OH227430   5.025   5.480   5.915
 9162TIP3    H127431   5.091   5.521   5.859
 9162TIP3    H227432   4.942   5.492   5.867
 9163TIP3   OH227433   7.648   4.235   5.473
 9163TIP3    H127434   7.684   4.317   5.438
 9163TIP3    H227435   7.554   4.251   5.481
 9164TIP3   OH227436   7.351   6.578   0.341
 9164TIP3    H127437   7.334   6.648   0.404
 9164TIP3    H227438   7.316   6.499   0.383
 9165TIP3   OH227439   0.526   6.748   4.508
 9165TIP3    H127440   0.586   6.797   4.453
 9165TIP3    H227441   0.533   6.790   4.594
 9166TIP3   OH227442   6.497   6.341   1.392
 9166TIP3    H127443   6.464   6.281   1.459
 9166TIP3    H227444   6.493   6.290   1.311
 9167TIP3   OH227445   0.346   0.994   6.267
 9167TIP3    H127446   0.407   1.064   6.290
 9167TIP3    H227447   0.398   0.914   6.274
 9168TIP3   OH227448   0.224   5.360   0.387
 9168TIP3    H127449   0.209   5.398   0.301
 9168TIP3    H227450   0.248   5.269   0.370
 9169TIP3   OH227451   1.580   5.822   2.812
 9169TIP3    H127452   1.633   5.743   2.801
 9169TIP3    H227453   1.517   5.818   2.740
 9170TIP3   OH227454   2.588   7.041   2.923
 9170TIP3    H127455   2.677   7.070   2.904
 9170TIP3    H227456   2.533   7.084   2.857
 9171TIP3   OH227457   0.274   5.112   0.443
 9171TIP3    H127458   0.232   5.085   0.525
 9171TIP3    H227459   0.286   5.030   0.394
 9172TIP3   OH227460   3.580   6.934   0.677
 9172TIP3    H127461   3.624   6.870   0.621
 9172TIP3    H227462   3.601   6.908   0.766
 9173TIP3   OH227463   4.451   7.461   1.331
 9173TIP3    H127464   4.495   7.524   1.275
 9173TIP3    H227465   4.441   7.506   1.415
 9174TIP3   OH227466   6.939   3.362   4.066
 9174TIP3    H127467   7.000   3.294   4.092
 9174TIP3    H227468   6.992   3.442   4.062
 9175TIP3   OH227469   2.840   7.349   1.969
 9175TIP3    H127470   2.766   7.302   1.931
 9175TIP3    H227471   2.916   7.316   1.921
 9176TIP3   OH227472   7.996   1.577   1.680
 9176TIP3    H127473   8.090   1.557   1.683
 9176TIP3    H227474   7.967   1.544   1.595
 9177TIP3   OH227475   7.121   3.990   6.348
 9177TIP3    H127476   7.120   3.954   6.260
 9177TIP3    H227477   7.203   3.958   6.387
 9178TIP3   OH227478   1.046   2.212   2.576
 9178TIP3    H127479   1.009   2.142   2.522
 9178TIP3    H227480   0.995   2.290   2.553
 9179TIP3   OH227481   4.396   1.237   6.320
 9179TIP3    H127482   4.442   1.238   6.237
 9179TIP3    H227483   4.363   1.147   6.327
 9180TIP3   OH227484   1.602   1.880   0.759
 9180TIP3    H127485   1.633   1.963   0.794
 9180TIP3    H227486   1.656   1.814   0.803
 9181TIP3   OH227487   0.191   7.474   5.994
 9181TIP3    H127488   0.124   7.529   5.955
 9181TIP3    H227489   0.209   7.514   6.080
 9182TIP3   OH227490   8.295   7.577   0.067
 9182TIP3    H127491   8.279   7.486   0.043
 9182TIP3    H227492   8.208   7.617   0.065
 9183TIP3   OH227493   4.860   3.635   3.173
 9183TIP3    H127494   4.862   3.731   3.174
 9183TIP3    H227495   4.950   3.609   3.151
 9184TIP3   OH227496   5.028   2.252   2.532
 9184TIP3    H127497   5.050   2.301   2.611
 9184TIP3    H227498   4.954   2.300   2.494
 9185TIP3   OH227499   3.838   4.901   3.827
 9185TIP3    H127500   3.812   4.817   3.867
 9185TIP3    H227501   3.885   4.876   3.748
 9186TIP3   OH227502   4.983   3.552   5.357
 9186TIP3    H127503   4.915   3.594   5.410
 9186TIP3    H227504   4.942   3.535   5.273
 9187TIP3   OH227505   5.271   4.981   0.446
 9187TIP3    H127506   5.247   5.049   0.508
 9187TIP3    H227507   5.209   4.991   0.373
 9188TIP3   OH227508   7.866   1.269   4.629
 9188TIP3    H127509   7.812   1.265   4.549
 9188TIP3    H227510   7.956   1.263   4.597
 9189TIP3   OH227511   0.635   4.457   4.653
 9189TIP3    H127512   0.644   4.485   4.744
 9189TIP3    H227513   0.541   4.443   4.642
 9190TIP3   OH227514   1.940   2.916   2.936
 9190TIP3    H127515   1.884   2.993   2.932
 9190TIP3    H227516   1.995   2.922   2.857
 9191TIP3   OH227517   3.924   2.726   2.617
 9191TIP3    H127518   3.948   2.635   2.637
 9191TIP3    H227519   3.981   2.778   2.673
 9192TIP3   OH227520   7.369   1.296   6.323
 9192TIP3    H127521   7.457   1.263   6.309
 9192TIP3    H227522   7.327   1.289   6.237
 9193TIP3   OH227523   5.582   7.564   6.616
 9193TIP3    H127524   5.508   7.624   6.616
 9193TIP3    H227525   5.628   7.583   6.535
 9194TIP3   OH227526   2.333   5.475   2.501
 9194TIP3    H127527   2.267   5.465   2.570
 9194TIP3    H227528   2.402   5.414   2.525
 9195TIP3   OH227529   5.542   3.552   5.466
 9195TIP3    H127530   5.623   3.603   5.465
 9195TIP3    H227531   5.478   3.610   5.506
 9196TIP3   OH227532   5.486   1.837   6.019
 9196TIP3    H127533   5.396   1.867   6.028
 9196TIP3    H227534   5.483   1.744   6.039
 9197TIP3   OH227535   7.953   7.644   0.339
 9197TIP3    H127536   7.890   7.572   0.331
 9197TIP3    H227537   8.039   7.601   0.342
 9198TIP3   OH227538   7.634   1.479   5.133
 9198TIP3    H127539   7.683   1.446   5.208
 9198TIP3    H227540   7.581   1.404   5.104
 9199TIP3   OH227541   4.402   4.551   3.043
 9199TIP3    H127542   4.316   4.594   3.043
 9199TIP3    H227543   4.420   4.533   2.951
 9200TIP3   OH227544   5.496   5.214   4.965
 9200TIP3    H127545   5.492   5.295   4.914
 9200TIP3    H227546   5.575   5.169   4.934
 9201TIP3   OH227547   4.248   2.851   1.334
 9201TIP3    H127548   4.178   2.821   1.275
 9201TIP3    H227549   4.228   2.943   1.349
 9202TIP3   OH227550   4.934   2.018   3.342
 9202TIP3    H127551   4.902   1.970   3.266
 9202TIP3    H227552   4.937   1.952   3.412
 9203TIP3   OH227553   6.809   2.843   0.669
 9203TIP3    H127554   6.748   2.847   0.743
 9203TIP3    H227555   6.845   2.931   0.663
 9204TIP3   OH227556   8.169   1.209   6.660
 9204TIP3    H127557   8.128   1.255   6.732
 9204TIP3    H227558   8.096   1.176   6.607
 9205TIP3   OH227559   7.977   0.926   4.145
 9205TIP3    H127560   7.895   0.975   4.137
 9205TIP3    H227561   7.954   0.837   4.118
 9206TIP3   OH227562   1.781   4.776   1.297
 9206TIP3    H127563   1.835   4.770   1.218
 9206TIP3    H227564   1.841   4.809   1.364
 9207TIP3   OH227565   2.136   2.727   6.260
 9207TIP3    H127566   2.128   2.820   6.239
 9207TIP3    H227567   2.078   2.715   6.335
 9208TIP3   OH227568   5.460   1.785   2.362
 9208TIP3    H127569   5.534   1.726   2.348
 9208TIP3    H227570   5.500   1.868   2.390
 9209TIP3   OH227571   6.550   1.708   0.337
 9209TIP3    H127572   6.591   1.673   0.417
 9209TIP3    H227573   6.615   1.693   0.268
 9210TIP3   OH227574   7.710   2.300   4.891
 9210TIP3    H127575   7.689   2.260   4.976
 9210TIP3    H227576   7.648   2.372   4.882
 9211TIP3   OH227577   2.110   1.810   2.367
 9211TIP3    H127578   2.165   1.806   2.289
 9211TIP3    H227579   2.093   1.903   2.379
 9212TIP3   OH227580   1.786   2.386   1.501
 9212TIP3    H127581   1.793   2.470   1.454
 9212TIP3    H227582   1.873   2.347   1.493
 9213TIP3   OH227583   7.911   2.607   0.762
 9213TIP3    H127584   7.816   2.606   0.774
 9213TIP3    H227585   7.942   2.675   0.822
 9214TIP3   OH227586   0.140   0.003   2.098
 9214TIP3    H127587   0.069   0.046   2.147
 9214TIP3    H227588   0.181   0.074   2.050
 9215TIP3   OH227589   1.396   1.771   2.045
 9215TIP3    H127590   1.444   1.721   1.978
 9215TIP3    H227591   1.350   1.705   2.096
 9216TIP3   OH227592   4.453   2.782   1.023
 9216TIP3    H127593   4.362   2.791   0.994
 9216TIP3    H227594   4.453   2.705   1.079
 9217TIP3   OH227595   4.773   7.069   3.633
 9217TIP3    H127596   4.684   7.069   3.669
 9217TIP3    H227597   4.827   7.106   3.702
 9218TIP3   OH227598   2.457   2.693   2.019
 9218TIP3    H127599   2.511   2.742   1.958
 9218TIP3    H227600   2.378   2.672   1.970
 9219TIP3   OH227601   0.521   2.296   1.283
 9219TIP3    H127602   0.537   2.361   1.215
 9219TIP3    H227603   0.540   2.342   1.365
 9220TIP3   OH227604   2.494   6.704   5.572
 9220TIP3    H127605   2.517   6.634   5.512
 9220TIP3    H227606   2.574   6.720   5.623
 9221TIP3   OH227607   6.120   2.622   3.495
 9221TIP3    H127608   6.025   2.622   3.497
 9221TIP3    H227609   6.144   2.710   3.468
 9222TIP3   OH227610   3.128   3.858   0.943
 9222TIP3    H127611   3.138   3.772   0.984
 9222TIP3    H227612   3.055   3.899   0.991
 9223TIP3   OH227613   8.113   6.968   5.541
 9223TIP3    H127614   8.033   6.938   5.584
 9223TIP3    H227615   8.112   7.063   5.552
 9224TIP3   OH227616   2.305   5.617   0.207
 9224TIP3    H127617   2.233   5.618   0.270
 9224TIP3    H227618   2.344   5.530   0.216
 9225TIP3   OH227619   2.705   6.392   2.987
 9225TIP3    H127620   2.791   6.385   2.946
 9225TIP3    H227621   2.647   6.421   2.917
 9226TIP3   OH227622   7.602   2.261   6.303
 9226TIP3    H127623   7.666   2.191   6.293
 9226TIP3    H227624   7.624   2.303   6.386
 9227TIP3   OH227625   2.153   7.268   5.424
 9227TIP3    H127626   2.161   7.174   5.406
 9227TIP3    H227627   2.185   7.310   5.344
 9228TIP3   OH227628   3.056   4.484   0.463
 9228TIP3    H127629   3.146   4.453   0.473
 9228TIP3    H227630   3.036   4.472   0.370
 9229TIP3   OH227631   4.003   0.353   1.404
 9229TIP3    H127632   4.038   0.368   1.316
 9229TIP3    H227633   3.923   0.302   1.389
 9230TIP3   OH227634   7.229   1.871   1.053
 9230TIP3    H127635   7.298   1.924   1.012
 9230TIP3    H227636   7.267   1.841   1.135
 9231TIP3   OH227637   0.214   6.340   4.370
 9231TIP3    H127638   0.130   6.359   4.328
 9231TIP3    H227639   0.278   6.345   4.299
 9232TIP3   OH227640   2.302   1.932   3.283
 9232TIP3    H127641   2.209   1.957   3.283
 9232TIP3    H227642   2.319   1.904   3.373
 9233TIP3   OH227643   2.541   3.032   2.332
 9233TIP3    H127644   2.630   3.067   2.339
 9233TIP3    H227645   2.500   3.056   2.415
 9234TIP3   OH227646   5.730   5.846   4.126
 9234TIP3    H127647   5.682   5.866   4.206
 9234TIP3    H227648   5.779   5.766   4.147
 9235TIP3   OH227649   3.111   1.011   0.937
 9235TIP3    H127650   3.177   1.075   0.911
 9235TIP3    H227651   3.148   0.926   0.911
 9236TIP3   OH227652   1.611   7.740   1.903
 9236TIP3    H127653   1.561   7.750   1.822
 9236TIP3    H227654   1.701   7.760   1.878
 9237TIP3   OH227655   4.913   1.849   1.468
 9237TIP3    H127656   4.931   1.882   1.380
 9237TIP3    H227657   4.943   1.918   1.527
 9238TIP3   OH227658   4.806   0.776   0.977
 9238TIP3    H127659   4.748   0.841   0.937
 9238TIP3    H227660   4.780   0.774   1.069
 9239TIP3   OH227661   3.254   4.380   6.230
 9239TIP3    H127662   3.338   4.365   6.273
 9239TIP3    H227663   3.244   4.306   6.170
 9240TIP3   OH227664   5.344   4.838   3.676
 9240TIP3    H127665   5.407   4.766   3.681
 9240TIP3    H227666   5.288   4.816   3.601
 9241TIP3   OH227667   0.980   1.043   6.178
 9241TIP3    H127668   0.971   1.010   6.089
 9241TIP3    H227669   1.017   0.969   6.227
 9242TIP3   OH227670   5.615   2.090   1.748
 9242TIP3    H127671   5.586   2.000   1.735
 9242TIP3    H227672   5.694   2.098   1.696
 9243TIP3   OH227673   5.567   4.819   3.419
 9243TIP3    H127674   5.477   4.832   3.449
 9243TIP3    H227675   5.621   4.859   3.487
 9244TIP3   OH227676   4.516   0.241   4.875
 9244TIP3    H127677   4.477   0.220   4.790
 9244TIP3    H227678   4.443   0.234   4.937
 9245TIP3   OH227679   7.058   2.465   3.333
 9245TIP3    H127680   7.082   2.399   3.267
 9245TIP3    H227681   7.028   2.413   3.408
 9246TIP3   OH227682   7.829   5.174   1.180
 9246TIP3    H127683   7.856   5.144   1.266
 9246TIP3    H227684   7.911   5.198   1.137
 9247TIP3   OH227685   1.726   0.219   1.077
 9247TIP3    H127686   1.732   0.254   0.988
 9247TIP3    H227687   1.677   0.138   1.067
 9248TIP3   OH227688   6.939   0.963   1.898
 9248TIP3    H127689   6.958   1.056   1.907
 9248TIP3    H227690   6.875   0.957   1.828
 9249TIP3   OH227691   4.900   1.036   6.584
 9249TIP3    H127692   4.849   1.116   6.593
 9249TIP3    H227693   4.848   0.969   6.628
 9250TIP3   OH227694   2.574   7.114   0.073
 9250TIP3    H127695   2.501   7.094   0.014
 9250TIP3    H227696   2.631   7.172   0.022
 9251TIP3   OH227697   6.526   7.779   3.885
 9251TIP3    H127698   6.460   7.713   3.860
 9251TIP3    H227699   6.575   7.794   3.804
 9252TIP3   OH227700   0.614   0.915   1.844
 9252TIP3    H127701   0.705   0.905   1.872
 9252TIP3    H227702   0.616   0.986   1.780
 9253TIP3   OH227703   1.151   4.874   1.942
 9253TIP3    H127704   1.110   4.828   2.016
 9253TIP3    H227705   1.245   4.864   1.958
 9254TIP3   OH227706   3.391   0.902   2.017
 9254TIP3    H127707   3.380   0.807   2.020
 9254TIP3    H227708   3.362   0.927   1.929
 9255TIP3   OH227709   2.601   7.441   5.382
 9255TIP3    H127710   2.530   7.389   5.342
 9255TIP3    H227711   2.672   7.437   5.318
 9256TIP3   OH227712   0.097   7.020   0.392
 9256TIP3    H127713   0.061   6.962   0.460
 9256TIP3    H227714   0.186   6.990   0.379
 9257TIP3   OH227715   4.573   4.121   3.760
 9257TIP3    H127716   4.627   4.043   3.758
 9257TIP3    H227717   4.544   4.128   3.851
 9258TIP3   OH227718   4.461   0.207   4.586
 9258TIP3    H127719   4.473   0.301   4.574
 9258TIP3    H227720   4.550   0.172   4.586
 9259TIP3   OH227721   0.942   2.336   1.587
 9259TIP3    H127722   0.851   2.332   1.616
 9259TIP3    H227723   0.960   2.250   1.549
 9260TIP3   OH227724   7.396   7.521   3.309
 9260TIP3    H127725   7.470   7.471   3.275
 9260TIP3    H227726   7.334   7.454   3.338
 9261TIP3   OH227727   2.327   5.986   0.716
 9261TIP3    H127728   2.344   6.080   0.709
 9261TIP3    H227729   2.394   5.954   0.777
 9262TIP3   OH227730   3.269   4.179   3.360
 9262TIP3    H127731   3.253   4.134   3.443
 9262TIP3    H227732   3.213   4.256   3.362
 9263TIP3   OH227733   1.053   5.612   2.932
 9263TIP3    H127734   1.147   5.596   2.924
 9263TIP3    H227735   1.024   5.550   2.999
 9264TIP3   OH227736   3.215   2.736   6.794
 9264TIP3    H127737   3.251   2.740   6.705
 9264TIP3    H227738   3.280   2.687   6.844
 9265TIP3   OH227739   1.582   5.717   3.445
 9265TIP3    H127740   1.645   5.686   3.380
 9265TIP3    H227741   1.606   5.672   3.526
 9266TIP3   OH227742   7.436   5.608   4.416
 9266TIP3    H127743   7.470   5.578   4.501
 9266TIP3    H227744   7.341   5.615   4.430
 9267TIP3   OH227745   0.245   1.306   4.444
 9267TIP3    H127746   0.261   1.231   4.502
 9267TIP3    H227747   0.154   1.296   4.416
 9268TIP3   OH227748   7.816   3.104   3.699
 9268TIP3    H127749   7.769   3.093   3.781
 9268TIP3    H227750   7.830   3.198   3.691
 9269TIP3   OH227751   5.625   4.973   5.455
 9269TIP3    H127752   5.598   4.952   5.366
 9269TIP3    H227753   5.564   5.042   5.482
 9270TIP3   OH227754   6.065   4.111   0.294
 9270TIP3    H127755   5.976   4.146   0.291
 9270TIP3    H227756   6.079   4.075   0.206
 9271TIP3   OH227757   5.733   5.911   5.947
 9271TIP3    H127758   5.681   5.938   6.023
 9271TIP3    H227759   5.721   5.816   5.942
 9272TIP3   OH227760   2.683   1.263   6.621
 9272TIP3    H127761   2.611   1.319   6.592
 9272TIP3    H227762   2.642   1.179   6.640
 9273TIP3   OH227763   1.898   2.903   0.915
 9273TIP3    H127764   1.978   2.863   0.880
 9273TIP3    H227765   1.908   2.895   1.010
 9274TIP3   OH227766   5.930   2.985   1.928
 9274TIP3    H127767   5.877   3.064   1.942
 9274TIP3    H227768   5.866   2.915   1.915
 9275TIP3   OH227769   6.281   0.766   3.198
 9275TIP3    H127770   6.189   0.761   3.172
 9275TIP3    H227771   6.303   0.858   3.188
 9276TIP3   OH227772   1.827   5.883   6.728
 9276TIP3    H127773   1.801   5.846   6.643
 9276TIP3    H227774   1.832   5.977   6.712
 9277TIP3   OH227775   6.566   4.136   4.213
 9277TIP3    H127776   6.566   4.142   4.118
 9277TIP3    H227777   6.632   4.200   4.242
 9278TIP3   OH227778   4.444   2.895   4.208
 9278TIP3    H127779   4.368   2.872   4.155
 9278TIP3    H227780   4.519   2.886   4.149
 9279TIP3   OH227781   5.986   2.825   5.306
 9279TIP3    H127782   5.895   2.811   5.332
 9279TIP3    H227783   5.982   2.902   5.249
 9280TIP3   OH227784   2.024   1.544   4.227
 9280TIP3    H127785   2.085   1.540   4.301
 9280TIP3    H227786   1.988   1.455   4.221
 9281TIP3   OH227787   3.209   2.204   5.843
 9281TIP3    H127788   3.175   2.292   5.827
 9281TIP3    H227789   3.139   2.159   5.890
 9282TIP3   OH227790   1.722   5.320   5.085
 9282TIP3    H127791   1.769   5.316   5.168
 9282TIP3    H227792   1.666   5.397   5.093
 9283TIP3   OH227793   7.595   4.633   6.315
 9283TIP3    H127794   7.674   4.649   6.264
 9283TIP3    H227795   7.582   4.538   6.310
 9284TIP3   OH227796   6.005   4.054   6.592
 9284TIP3    H127797   6.023   4.140   6.554
 9284TIP3    H227798   5.963   4.005   6.522
 9285TIP3   OH227799   1.109   5.913   4.490
 9285TIP3    H127800   1.086   5.827   4.454
 9285TIP3    H227801   1.187   5.896   4.543
 9286TIP3   OH227802   2.796   5.920   1.445
 9286TIP3    H127803   2.745   5.918   1.364
 9286TIP3    H227804   2.732   5.908   1.515
 9287TIP3   OH227805   2.723   6.676   3.552
 9287TIP3    H127806   2.784   6.707   3.485
 9287TIP3    H227807   2.768   6.603   3.594
 9288TIP3   OH227808   4.643   2.216   5.022
 9288TIP3    H127809   4.633   2.163   5.101
 9288TIP3    H227810   4.559   2.210   4.977
 9289TIP3   OH227811   2.268   4.757   2.770
 9289TIP3    H127812   2.196   4.813   2.740
 9289TIP3    H227813   2.227   4.697   2.832
 9290TIP3   OH227814   5.950   4.929   3.530
 9290TIP3    H127815   5.855   4.927   3.545
 9290TIP3    H227816   5.988   4.932   3.617
 9291TIP3   OH227817   2.916   3.531   1.540
 9291TIP3    H127818   3.005   3.555   1.515
 9291TIP3    H227819   2.899   3.448   1.495
 9292TIP3   OH227820   4.934   4.025   5.202
 9292TIP3    H127821   4.944   4.048   5.294
 9292TIP3    H227822   4.856   4.074   5.173
 9293TIP3   OH227823   4.624   6.826   2.639
 9293TIP3    H127824   4.603   6.891   2.706
 9293TIP3    H227825   4.714   6.846   2.613
 9294TIP3   OH227826   5.248   0.467   4.067
 9294TIP3    H127827   5.157   0.485   4.044
 9294TIP3    H227828   5.259   0.374   4.052
 9295TIP3   OH227829   4.462   6.621   3.480
 9295TIP3    H127830   4.543   6.614   3.430
 9295TIP3    H227831   4.392   6.617   3.414
 9296TIP3   OH227832   1.253   4.418   3.120
 9296TIP3    H127833   1.179   4.454   3.169
 9296TIP3    H227834   1.239   4.448   3.030
 9297TIP3   OH227835   1.719   2.257   3.566
 9297TIP3    H127836   1.677   2.209   3.495
 9297TIP3    H227837   1.722   2.347   3.536
 9298TIP3   OH227838   4.204   7.059   1.724
 9298TIP3    H127839   4.150   7.130   1.688
 9298TIP3    H227840   4.152   6.980   1.708
 9299TIP3   OH227841   5.745   1.601   0.197
 9299TIP3    H127842   5.827   1.564   0.163
 9299TIP3    H227843   5.772   1.663   0.264
 9300TIP3   OH227844   0.649   4.324   3.447
 9300TIP3    H127845   0.656   4.409   3.404
 9300TIP3    H227846   0.727   4.317   3.501
 9301TIP3   OH227847   5.642   2.087   0.638
 9301TIP3    H127848   5.719   2.111   0.586
 9301TIP3    H227849   5.634   2.157   0.702
 9302TIP3   OH227850   6.259   0.698   0.707
 9302TIP3    H127851   6.263   0.662   0.619
 9302TIP3    H227852   6.180   0.753   0.707
 9303TIP3   OH227853   6.295   2.648   1.667
 9303TIP3    H127854   6.336   2.665   1.582
 9303TIP3    H227855   6.213   2.604   1.645
 9304TIP3   OH227856   3.698   4.371   1.399
 9304TIP3    H127857   3.657   4.432   1.460
 9304TIP3    H227858   3.762   4.423   1.351
 9305TIP3   OH227859   4.553   0.262   1.831
 9305TIP3    H127860   4.537   0.223   1.745
 9305TIP3    H227861   4.474   0.313   1.850
 9306TIP3   OH227862   2.845   0.477   5.175
 9306TIP3    H127863   2.818   0.552   5.229
 9306TIP3    H227864   2.935   0.498   5.149
 9307TIP3   OH227865   8.017   4.785   4.961
 9307TIP3    H127866   7.991   4.783   4.869
 9307TIP3    H227867   8.009   4.694   4.990
 9308TIP3   OH227868   5.539   7.611   0.240
 9308TIP3    H127869   5.549   7.611   0.335
 9308TIP3    H227870   5.572   7.525   0.212
 9309TIP3   OH227871   1.032   6.725   2.861
 9309TIP3    H127872   0.975   6.729   2.785
 9309TIP3    H227873   0.972   6.719   2.936
 9310TIP3   OH227874   1.069   4.083   0.997
 9310TIP3    H127875   1.122   4.155   1.029
 9310TIP3    H227876   1.131   4.011   0.983
 9311TIP3   OH227877   1.126   1.305   2.992
 9311TIP3    H127878   1.059   1.305   2.924
 9311TIP3    H227879   1.130   1.215   3.022
 9312TIP3   OH227880   2.375   7.480   4.495
 9312TIP3    H127881   2.463   7.471   4.460
 9312TIP3    H227882   2.343   7.563   4.459
 9313TIP3   OH227883   7.639   5.499   4.105
 9313TIP3    H127884   7.674   5.451   4.030
 9313TIP3    H227885   7.701   5.479   4.176
 9314TIP3   OH227886   2.216   7.365   2.951
 9314TIP3    H127887   2.291   7.420   2.927
 9314TIP3    H227888   2.203   7.308   2.875
 9315TIP3   OH227889   5.566   5.674   3.191
 9315TIP3    H127890   5.475   5.688   3.166
 9315TIP3    H227891   5.565   5.670   3.286
 9316TIP3   OH227892   6.504   4.625   3.248
 9316TIP3    H127893   6.429   4.675   3.216
 9316TIP3    H227894   6.513   4.651   3.340
 9317TIP3   OH227895   1.015   2.465   0.389
 9317TIP3    H127896   0.960   2.399   0.346
 9317TIP3    H227897   1.082   2.487   0.324
 9318TIP3   OH227898   3.782   4.913   1.682
 9318TIP3    H127899   3.812   4.875   1.599
 9318TIP3    H227900   3.801   4.846   1.748
 9319TIP3   OH227901   7.331   7.320   6.223
 9319TIP3    H127902   7.412   7.268   6.222
 9319TIP3    H227903   7.321   7.350   6.133
 9320TIP3   OH227904   7.218   6.003   2.473
 9320TIP3    H127905   7.162   6.077   2.447
 9320TIP3    H227906   7.174   5.926   2.437
 9321TIP3   OH227907   1.511   7.182   5.497
 9321TIP3    H127908   1.574   7.244   5.460
 9321TIP3    H227909   1.560   7.136   5.565
 9322TIP3   OH227910   8.144   5.453   2.953
 9322TIP3    H127911   8.115   5.499   2.874
 9322TIP3    H227912   8.066   5.449   3.008
 9323TIP3   OH227913   0.803   1.637   0.722
 9323TIP3    H127914   0.745   1.710   0.702
 9323TIP3    H227915   0.765   1.562   0.676
 9324TIP3   OH227916   8.097   4.475   3.276
 9324TIP3    H127917   8.141   4.552   3.311
 9324TIP3    H227918   8.082   4.419   3.352
 9325TIP3   OH227919   0.041   1.613   0.931
 9325TIP3    H127920   0.084   1.528   0.928
 9325TIP3    H227921   0.014   1.630   0.841
 9326TIP3   OH227922   4.865   0.386   2.822
 9326TIP3    H127923   4.893   0.295   2.817
 9326TIP3    H227924   4.822   0.393   2.908
 9327TIP3   OH227925   2.634   1.157   0.165
 9327TIP3    H127926   2.668   1.126   0.249
 9327TIP3    H227927   2.624   1.252   0.177
 9328TIP3   OH227928   0.829   7.004   2.764
 9328TIP3    H127929   0.844   6.922   2.717
 9328TIP3    H227930   0.735   7.005   2.782
 9329TIP3   OH227931   6.443   5.624   0.291
 9329TIP3    H127932   6.504   5.639   0.219
 9329TIP3    H227933   6.387   5.552   0.260
 9330TIP3   OH227934   1.732   1.641   2.877
 9330TIP3    H127935   1.728   1.699   2.801
 9330TIP3    H227936   1.641   1.622   2.898
 9331TIP3   OH227937   1.510   1.827   5.071
 9331TIP3    H127938   1.542   1.774   4.998
 9331TIP3    H227939   1.574   1.815   5.140
 9332TIP3   OH227940   4.076   0.566   5.157
 9332TIP3    H127941   4.126   0.607   5.086
 9332TIP3    H227942   4.061   0.637   5.219
 9333TIP3   OH227943   8.156   0.946   1.696
 9333TIP3    H127944   8.155   1.031   1.652
 9333TIP3    H227945   8.065   0.931   1.723
 9334TIP3   OH227946   2.865   7.536   2.331
 9334TIP3    H127947   2.900   7.479   2.399
 9334TIP3    H227948   2.850   7.620   2.375
 9335TIP3   OH227949   7.162   6.683   2.106
 9335TIP3    H127950   7.183   6.711   2.195
 9335TIP3    H227951   7.129   6.762   2.063
 9336TIP3   OH227952   2.905   3.476   0.025
 9336TIP3    H127953   2.907   3.382   0.013
 9336TIP3    H227954   2.890   3.512  -0.063
 9337TIP3   OH227955   7.090   1.465   0.653
 9337TIP3    H127956   7.139   1.508   0.582
 9337TIP3    H227957   7.070   1.378   0.619
 9338TIP3   OH227958   7.149   0.073   3.038
 9338TIP3    H127959   7.119   0.041   2.953
 9338TIP3    H227960   7.200   0.152   3.018
 9339TIP3   OH227961   6.278   2.023   6.094
 9339TIP3    H127962   6.267   1.940   6.141
 9339TIP3    H227963   6.372   2.032   6.083
 9340TIP3   OH227964   0.536   1.574   3.413
 9340TIP3    H127965   0.522   1.612   3.326
 9340TIP3    H227966   0.616   1.522   3.404
 9341TIP3   OH227967   5.074   6.442   2.735
 9341TIP3    H127968   5.000   6.436   2.795
 9341TIP3    H227969   5.034   6.451   2.649
 9342TIP3   OH227970   8.105   2.860   4.382
 9342TIP3    H127971   8.031   2.874   4.442
 9342TIP3    H227972   8.110   2.765   4.372
 9343TIP3   OH227973   2.364   2.032   6.609
 9343TIP3    H127974   2.298   1.970   6.640
 9343TIP3    H227975   2.342   2.045   6.516
 9344TIP3   OH227976   2.214   0.035   5.607
 9344TIP3    H127977   2.158   0.107   5.637
 9344TIP3    H227978   2.244  -0.007   5.687
 9345TIP3   OH227979   4.497   5.579   0.890
 9345TIP3    H127980   4.580   5.627   0.891
 9345TIP3    H227981   4.431   5.645   0.911
 9346TIP3   OH227982   1.740   7.102   3.576
 9346TIP3    H127983   1.682   7.175   3.599
 9346TIP3    H227984   1.681   7.028   3.562
 9347TIP3   OH227985   7.597   5.011   5.994
 9347TIP3    H127986   7.534   5.013   6.066
 9347TIP3    H227987   7.682   4.998   6.036
 9348TIP3   OH227988   3.703   4.232   0.666
 9348TIP3    H127989   3.780   4.179   0.642
 9348TIP3    H227990   3.654   4.176   0.726
 9349TIP3   OH227991   2.848   5.706   2.861
 9349TIP3    H127992   2.762   5.720   2.902
 9349TIP3    H227993   2.827   5.676   2.772
 9350TIP3   OH227994   6.053   1.154   4.702
 9350TIP3    H127995   5.980   1.092   4.704
 9350TIP3    H227996   6.130   1.100   4.717
 9351TIP3   OH227997   5.055   6.441   4.359
 9351TIP3    H127998   5.003   6.421   4.437
 9351TIP3    H227999   5.115   6.366   4.351
 9352TIP3   OH228000   4.250   0.372   4.475
 9352TIP3    H128001   4.250   0.423   4.394
 9352TIP3    H228002   4.336   0.389   4.514
 9353TIP3   OH228003   0.359   6.901   0.301
 9353TIP3    H128004   0.321   6.848   0.230
 9353TIP3    H228005   0.392   6.836   0.364
 9354TIP3   OH228006   3.891   6.356   5.386
 9354TIP3    H128007   3.985   6.368   5.377
 9354TIP3    H228008   3.857   6.359   5.297
 9355TIP3   OH228009   0.988   2.570   4.276
 9355TIP3    H128010   0.898   2.544   4.253
 9355TIP3    H228011   1.015   2.505   4.341
 9356TIP3   OH228012   4.503   6.830   0.304
 9356TIP3    H128013   4.479   6.805   0.215
 9356TIP3    H228014   4.556   6.909   0.293
 9357TIP3   OH228015   0.179   7.551   3.953
 9357TIP3    H128016   0.158   7.617   4.019
 9357TIP3    H228017   0.266   7.575   3.921
 9358TIP3   OH228018   3.611   3.819   3.133
 9358TIP3    H128019   3.696   3.861   3.120
 9358TIP3    H228020   3.548   3.890   3.120
 9359TIP3   OH228021   0.176   4.789   2.761
 9359TIP3    H128022   0.097   4.806   2.710
 9359TIP3    H228023   0.247   4.827   2.709
 9360TIP3   OH228024   2.616   0.414   1.693
 9360TIP3    H128025   2.585   0.480   1.756
 9360TIP3    H228026   2.541   0.398   1.636
 9361TIP3   OH228027   2.318   4.831   1.661
 9361TIP3    H128028   2.364   4.822   1.577
 9361TIP3    H228029   2.383   4.807   1.727
 9362TIP3   OH228030   4.736   2.611   3.673
 9362TIP3    H128031   4.687   2.689   3.647
 9362TIP3    H228032   4.754   2.623   3.766
 9363TIP3   OH228033   6.756   0.272   4.466
 9363TIP3    H128034   6.691   0.218   4.512
 9363TIP3    H228035   6.730   0.268   4.374
 9364TIP3   OH228036   5.576   4.507   6.178
 9364TIP3    H128037   5.481   4.517   6.170
 9364TIP3    H228038   5.611   4.551   6.101
 9365TIP3   OH228039   5.596   3.606   0.813
 9365TIP3    H128040   5.636   3.520   0.801
 9365TIP3    H228041   5.663   3.668   0.783
 9366TIP3   OH228042   4.336   4.211   2.027
 9366TIP3    H128043   4.375   4.298   2.037
 9366TIP3    H228044   4.265   4.225   1.964
 9367TIP3   OH228045   6.414   5.302   1.394
 9367TIP3    H128046   6.440   5.238   1.328
 9367TIP3    H228047   6.460   5.382   1.369
 9368TIP3   OH228048   6.527   7.547   6.611
 9368TIP3    H128049   6.487   7.465   6.582
 9368TIP3    H228050   6.619   7.526   6.625
 9369TIP3   OH228051   6.543   5.590   5.579
 9369TIP3    H128052   6.618   5.621   5.629
 9369TIP3    H228053   6.478   5.567   5.645
 9370TIP3   OH228054   5.019   3.548   2.822
 9370TIP3    H128055   5.046   3.582   2.907
 9370TIP3    H228056   5.094   3.566   2.765
 9371TIP3   OH228057   2.500   3.714   5.542
 9371TIP3    H128058   2.564   3.651   5.509
 9371TIP3    H228059   2.482   3.771   5.467
 9372TIP3   OH228060   0.375   4.262   0.862
 9372TIP3    H128061   0.379   4.334   0.924
 9372TIP3    H228062   0.322   4.296   0.789
 9373TIP3   OH228063   3.136   2.590   6.149
 9373TIP3    H128064   3.063   2.551   6.101
 9373TIP3    H228065   3.214   2.549   6.112
 9374TIP3   OH228066   1.776   0.895   2.836
 9374TIP3    H128067   1.817   0.973   2.873
 9374TIP3    H228068   1.746   0.922   2.749
 9375TIP3   OH228069   7.198   5.233   5.643
 9375TIP3    H128070   7.137   5.274   5.703
 9375TIP3    H228071   7.270   5.203   5.698
 9376TIP3   OH228072   6.279   1.647   6.621
 9376TIP3    H128073   6.260   1.554   6.606
 9376TIP3    H228074   6.288   1.655   6.716
 9377TIP3   OH228075   7.858  -0.005   3.982
 9377TIP3    H128076   7.944  -0.005   4.023
 9377TIP3    H228077   7.876  -0.016   3.889
 9378TIP3   OH228078   0.669   3.810   0.737
 9378TIP3    H128079   0.673   3.735   0.797
 9378TIP3    H228080   0.586   3.852   0.757
 9379TIP3   OH228081   3.425   5.985   2.927
 9379TIP3    H128082   3.350   5.945   2.971
 9379TIP3    H228083   3.499   5.929   2.950
 9380TIP3   OH228084   2.944   2.131   6.524
 9380TIP3    H128085   2.941   2.125   6.428
 9380TIP3    H228086   2.867   2.184   6.547
 9381TIP3   OH228087   4.319   7.660   3.592
 9381TIP3    H128088   4.238   7.702   3.563
 9381TIP3    H228089   4.301   7.566   3.584
 9382TIP3   OH228090   6.670   3.626   6.565
 9382TIP3    H128091   6.604   3.677   6.517
 9382TIP3    H228092   6.640   3.535   6.555
 9383TIP3   OH228093   2.930   7.372   2.960
 9383TIP3    H128094   2.987   7.449   2.959
 9383TIP3    H228095   2.895   7.369   3.049
 9384TIP3   OH228096   2.846   6.464   3.700
 9384TIP3    H128097   2.935   6.479   3.732
 9384TIP3    H228098   2.853   6.384   3.647
 9385TIP3   OH228099   1.066   4.742   4.485
 9385TIP3    H128100   1.150   4.785   4.497
 9385TIP3    H228101   1.083   4.650   4.503
 9386TIP3   OH228102   3.844   6.238   4.468
 9386TIP3    H128103   3.924   6.187   4.459
 9386TIP3    H228104   3.823   6.267   4.379
 9387TIP3   OH228105   5.066   2.403   2.783
 9387TIP3    H128106   4.988   2.450   2.755
 9387TIP3    H228107   5.105   2.458   2.851
 9388TIP3   OH228108   6.782   0.553   5.333
 9388TIP3    H128109   6.742   0.478   5.288
 9388TIP3    H228110   6.872   0.526   5.348
 9389TIP3   OH228111   1.708   7.243   5.745
 9389TIP3    H128112   1.780   7.237   5.682
 9389TIP3    H228113   1.660   7.161   5.734
 9390TIP3   OH228114   5.161   0.777   1.445
 9390TIP3    H128115   5.117   0.719   1.382
 9390TIP3    H228116   5.099   0.787   1.516
 9391TIP3   OH228117   1.887   3.682   2.798
 9391TIP3    H128118   1.912   3.688   2.706
 9391TIP3    H228119   1.958   3.725   2.846
 9392TIP3   OH228120   7.738   2.587   3.756
 9392TIP3    H128121   7.647   2.609   3.737
 9392TIP3    H228122   7.781   2.670   3.773
 9393TIP3   OH228123   6.341   5.744   3.183
 9393TIP3    H128124   6.412   5.786   3.134
 9393TIP3    H228125   6.357   5.766   3.274
 9394TIP3   OH228126   2.344   0.796   2.319
 9394TIP3    H128127   2.370   0.710   2.353
 9394TIP3    H228128   2.286   0.777   2.246
 9395TIP3   OH228129   0.854   5.674   0.841
 9395TIP3    H128130   0.842   5.748   0.781
 9395TIP3    H228131   0.904   5.610   0.789
 9396TIP3   OH228132   1.012   2.097   6.592
 9396TIP3    H128133   0.998   2.088   6.687
 9396TIP3    H228134   1.101   2.067   6.578
 9397TIP3   OH228135   0.471   4.029   3.618
 9397TIP3    H128136   0.467   3.971   3.694
 9397TIP3    H228137   0.491   3.970   3.545
 9398TIP3   OH228138   4.534   4.305   6.615
 9398TIP3    H128139   4.571   4.357   6.686
 9398TIP3    H228140   4.598   4.313   6.544
 9399TIP3   OH228141   5.269   7.635   5.738
 9399TIP3    H128142   5.283   7.546   5.772
 9399TIP3    H228143   5.358   7.669   5.725
 9400TIP3   OH228144   1.168   0.977   1.953
 9400TIP3    H128145   1.239   0.927   1.912
 9400TIP3    H228146   1.211   1.029   2.021
 9401TIP3   OH228147   3.835   4.751   5.720
 9401TIP3    H128148   3.861   4.758   5.811
 9401TIP3    H228149   3.747   4.713   5.723
 9402TIP3   OH228150   7.128   3.860   3.957
 9402TIP3    H128151   7.095   3.852   3.867
 9402TIP3    H228152   7.194   3.930   3.951
 9403TIP3   OH228153   4.931   4.448   6.340
 9403TIP3    H128154   4.993   4.395   6.290
 9403TIP3    H228155   4.977   4.531   6.356
 9404TIP3   OH228156   2.072   4.433   5.461
 9404TIP3    H128157   1.998   4.376   5.440
 9404TIP3    H228158   2.141   4.372   5.489
 9405TIP3   OH228159   1.652   5.900   3.634
 9405TIP3    H128160   1.628   5.828   3.692
 9405TIP3    H228161   1.623   5.872   3.547
 9406TIP3   OH228162   4.604   5.187   4.283
 9406TIP3    H128163   4.673   5.121   4.289
 9406TIP3    H228164   4.546   5.167   4.356
 9407TIP3   OH228165   4.030   4.112   0.535
 9407TIP3    H128166   3.995   4.061   0.462
 9407TIP3    H228167   4.118   4.076   0.549
 9408TIP3   OH228168   0.317   4.276   5.786
 9408TIP3    H128169   0.378   4.322   5.844
 9408TIP3    H228170   0.307   4.335   5.710
 9409TIP3   OH228171   7.214   2.134   3.775
 9409TIP3    H128172   7.264   2.053   3.773
 9409TIP3    H228173   7.123   2.107   3.763
 9410TIP3   OH228174   2.576   0.849   5.312
 9410TIP3    H128175   2.526   0.930   5.306
 9410TIP3    H228176   2.656   0.866   5.261
 9411TIP3   OH228177   7.469   4.195   4.391
 9411TIP3    H128178   7.396   4.141   4.422
 9411TIP3    H228179   7.485   4.165   4.302
 9412TIP3   OH228180   0.018   2.592   2.848
 9412TIP3    H128181  -0.033   2.511   2.838
 9412TIP3    H228182   0.084   2.570   2.914
 9413TIP3   OH228183   5.606   1.323   6.022
 9413TIP3    H128184   5.611   1.285   6.109
 9413TIP3    H228185   5.617   1.248   5.963
 9414TIP3   OH228186   1.408   3.540   0.612
 9414TIP3    H128187   1.502   3.559   0.607
 9414TIP3    H228188   1.386   3.552   0.704
 9415TIP3   OH228189   5.122   2.240   1.186
 9415TIP3    H128190   5.181   2.212   1.116
 9415TIP3    H228191   5.140   2.333   1.196
 9416TIP3   OH228192   6.210   3.373   3.063
 9416TIP3    H128193   6.227   3.459   3.023
 9416TIP3    H228194   6.160   3.393   3.142
 9417TIP3   OH228195   1.718   0.289   6.708
 9417TIP3    H128196   1.757   0.268   6.623
 9417TIP3    H228197   1.789   0.331   6.757
 9418TIP3   OH228198   0.946   6.760   1.119
 9418TIP3    H128199   0.926   6.696   1.050
 9418TIP3    H228200   0.964   6.841   1.072
 9419TIP3   OH228201   6.154   5.350   1.282
 9419TIP3    H128202   6.208   5.276   1.310
 9419TIP3    H228203   6.129   5.328   1.192
 9420TIP3   OH228204   6.693   6.505   5.535
 9420TIP3    H128205   6.763   6.515   5.470
 9420TIP3    H228206   6.619   6.471   5.485
 9421TIP3   OH228207   1.688   6.364   2.388
 9421TIP3    H128208   1.753   6.419   2.432
 9421TIP3    H228209   1.629   6.335   2.457
 9422TIP3   OH228210   3.301  -0.004   0.056
 9422TIP3    H128211   3.283  -0.052  -0.025
 9422TIP3    H228212   3.372   0.055   0.034
 9423TIP3   OH228213   7.184   5.849   0.637
 9423TIP3    H128214   7.111   5.868   0.577
 9423TIP3    H228215   7.171   5.910   0.710
 9424TIP3   OH228216   2.878   3.393   1.251
 9424TIP3    H128217   2.874   3.428   1.162
 9424TIP3    H228218   2.905   3.302   1.240
 9425TIP3   OH228219   0.975   7.507   4.722
 9425TIP3    H128220   0.943   7.420   4.698
 9425TIP3    H228221   0.985   7.503   4.817
 9426TIP3   OH228222   0.717   7.110   3.837
 9426TIP3    H128223   0.788   7.163   3.802
 9426TIP3    H228224   0.687   7.056   3.763
 9427TIP3   OH228225   5.440   6.070   5.325
 9427TIP3    H128226   5.506   6.129   5.289
 9427TIP3    H228227   5.490   6.002   5.370
 9428TIP3   OH228228   0.424   0.860   5.811
 9428TIP3    H128229   0.397   0.928   5.873
 9428TIP3    H228230   0.376   0.782   5.839
 9429TIP3   OH228231   0.864   0.232   3.865
 9429TIP3    H128232   0.869   0.152   3.812
 9429TIP3    H228233   0.857   0.202   3.955
 9430TIP3   OH228234   4.912   3.060   2.107
 9430TIP3    H128235   4.827   3.029   2.137
 9430TIP3    H228236   4.893   3.107   2.026
 9431TIP3   OH228237   8.092   2.582   4.371
 9431TIP3    H128238   8.025   2.515   4.362
 9431TIP3    H228239   8.163   2.554   4.313
 9432TIP3   OH228240   4.574   5.448   0.285
 9432TIP3    H128241   4.494   5.440   0.338
 9432TIP3    H228242   4.620   5.523   0.323
 9433TIP3   OH228243   5.320   2.682   5.977
 9433TIP3    H128244   5.264   2.730   6.038
 9433TIP3    H228245   5.386   2.640   6.032
 9434TIP3   OH228246   2.575   7.530   3.473
 9434TIP3    H128247   2.618   7.452   3.507
 9434TIP3    H228248   2.487   7.501   3.449
 9435TIP3   OH228249   1.594   7.532   3.579
 9435TIP3    H128250   1.658   7.499   3.516
 9435TIP3    H228251   1.641   7.531   3.663
 9436TIP3   OH228252   1.451   4.540   5.316
 9436TIP3    H128253   1.469   4.493   5.235
 9436TIP3    H228254   1.356   4.532   5.328
 9437TIP3   OH228255   4.589   1.670   4.007
 9437TIP3    H128256   4.645   1.690   3.932
 9437TIP3    H228257   4.527   1.742   4.011
 9438TIP3   OH228258   1.965   5.761   5.332
 9438TIP3    H128259   1.935   5.791   5.418
 9438TIP3    H228260   1.951   5.836   5.274
 9439TIP3   OH228261   0.199   2.667   4.816
 9439TIP3    H128262   0.150   2.731   4.766
 9439TIP3    H228263   0.278   2.650   4.764
 9440TIP3   OH228264   7.880   4.199   2.508
 9440TIP3    H128265   7.897   4.152   2.427
 9440TIP3    H228266   7.846   4.284   2.479
 9441TIP3   OH228267   7.674   1.343   1.943
 9441TIP3    H128268   7.682   1.263   1.995
 9441TIP3    H228269   7.665   1.313   1.853
 9442TIP3   OH228270   3.829   6.748   6.098
 9442TIP3    H128271   3.778   6.750   6.017
 9442TIP3    H228272   3.918   6.728   6.069
 9443TIP3   OH228273   5.346   6.018   1.944
 9443TIP3    H128274   5.372   5.965   1.868
 9443TIP3    H228275   5.289   6.085   1.908
 9444TIP3   OH228276   6.498   5.407   6.110
 9444TIP3    H128277   6.584   5.366   6.111
 9444TIP3    H228278   6.447   5.359   6.175
 9445TIP3   OH228279   0.888   1.200   3.454
 9445TIP3    H128280   0.847   1.282   3.425
 9445TIP3    H228281   0.869   1.138   3.383
 9446TIP3   OH228282   3.554   4.703   2.530
 9446TIP3    H128283   3.572   4.679   2.439
 9446TIP3    H228284   3.639   4.704   2.572
 9447TIP3   OH228285   0.684   3.368   4.640
 9447TIP3    H128286   0.747   3.396   4.574
 9447TIP3    H228287   0.714   3.280   4.666
 9448TIP3   OH228288   1.155   5.863   2.471
 9448TIP3    H128289   1.156   5.952   2.436
 9448TIP3    H228290   1.065   5.850   2.501
 9449TIP3   OH228291   4.586   0.480   1.515
 9449TIP3    H128292   4.584   0.386   1.534
 9449TIP3    H228293   4.503   0.497   1.471
 9450TIP3   OH228294   4.826   4.907   1.474
 9450TIP3    H128295   4.823   4.811   1.475
 9450TIP3    H228296   4.787   4.932   1.558
 9451TIP3   OH228297   2.660   0.264   0.781
 9451TIP3    H128298   2.632   0.191   0.836
 9451TIP3    H228299   2.733   0.229   0.730
 9452TIP3   OH228300   7.363   3.259   0.881
 9452TIP3    H128301   7.361   3.354   0.870
 9452TIP3    H228302   7.274   3.231   0.860
 9453TIP3   OH228303   4.795   7.775   1.912
 9453TIP3    H128304   4.806   7.867   1.939
 9453TIP3    H228305   4.803   7.777   1.817
 9454TIP3   OH228306   3.809   3.650   5.589
 9454TIP3    H128307   3.760   3.722   5.549
 9454TIP3    H228308   3.766   3.635   5.673
 9455TIP3   OH228309   5.975   1.311   3.901
 9455TIP3    H128310   5.952   1.399   3.870
 9455TIP3    H228311   6.068   1.315   3.919
 9456TIP3   OH228312   1.681   6.800   6.472
 9456TIP3    H128313   1.699   6.809   6.565
 9456TIP3    H228314   1.624   6.724   6.465
 9457TIP3   OH228315   1.647   0.391   3.416
 9457TIP3    H128316   1.674   0.408   3.325
 9457TIP3    H228317   1.573   0.331   3.408
 9458TIP3   OH228318   8.243   1.381   1.683
 9458TIP3    H128319   8.302   1.306   1.691
 9458TIP3    H228320   8.262   1.419   1.597
 9459TIP3   OH228321   0.224   1.108   5.197
 9459TIP3    H128322   0.296   1.067   5.246
 9459TIP3    H228323   0.145   1.076   5.240
 9460TIP3   OH228324   6.312   4.200   5.331
 9460TIP3    H128325   6.245   4.136   5.354
 9460TIP3    H228326   6.299   4.215   5.237
 9461TIP3   OH228327   5.858   1.980   3.442
 9461TIP3    H128328   5.854   1.938   3.529
 9461TIP3    H228329   5.892   1.912   3.384
 9462TIP3   OH228330   3.907   5.511   5.277
 9462TIP3    H128331   3.961   5.494   5.200
 9462TIP3    H228332   3.918   5.433   5.332
 9463TIP3   OH228333   7.243   7.388   0.259
 9463TIP3    H128334   7.150   7.376   0.276
 9463TIP3    H228335   7.265   7.320   0.195
 9464TIP3   OH228336   5.257   1.449   6.423
 9464TIP3    H128337   5.223   1.359   6.428
 9464TIP3    H228338   5.284   1.469   6.513
 9465TIP3   OH228339   3.174   4.750   3.509
 9465TIP3    H128340   3.207   4.687   3.574
 9465TIP3    H228341   3.082   4.760   3.530
 9466TIP3   OH228342   3.469   5.030   0.432
 9466TIP3    H128343   3.533   4.999   0.368
 9466TIP3    H228344   3.388   5.039   0.381
 9467TIP3   OH228345   3.309   5.217   2.306
 9467TIP3    H128346   3.247   5.145   2.310
 9467TIP3    H228347   3.393   5.175   2.286
 9468TIP3   OH228348   0.816   7.384   3.521
 9468TIP3    H128349   0.876   7.382   3.595
 9468TIP3    H228350   0.738   7.430   3.553
 9469TIP3   OH228351   0.773   5.035   2.829
 9469TIP3    H128352   0.744   5.113   2.876
 9469TIP3    H228353   0.824   5.069   2.755
 9470TIP3   OH228354   6.165   6.258   5.367
 9470TIP3    H128355   6.233   6.229   5.306
 9470TIP3    H228356   6.150   6.183   5.424
 9471TIP3   OH228357   2.898   2.033   6.249
 9471TIP3    H128358   2.908   1.940   6.269
 9471TIP3    H228359   2.806   2.052   6.268
 9472TIP3   OH228360   2.074   4.170   5.581
 9472TIP3    H128361   2.023   4.117   5.519
 9472TIP3    H228362   2.058   4.128   5.666
 9473TIP3   OH228363   0.710   2.690   2.170
 9473TIP3    H128364   0.661   2.741   2.104
 9473TIP3    H228365   0.800   2.691   2.138
 9474TIP3   OH228366   4.584   3.138   2.932
 9474TIP3    H128367   4.572   3.203   3.000
 9474TIP3    H228368   4.591   3.188   2.851
 9475TIP3   OH228369   6.781   3.508   0.694
 9475TIP3    H128370   6.870   3.482   0.670
 9475TIP3    H228371   6.788   3.537   0.785
 9476TIP3   OH228372   3.083   0.352   6.633
 9476TIP3    H128373   3.130   0.269   6.646
 9476TIP3    H228374   3.152   0.419   6.639
 9477TIP3   OH228375   6.568   0.067   4.524
 9477TIP3    H128376   6.474   0.082   4.508
 9477TIP3    H228377   6.580   0.094   4.615
 9478TIP3   OH228378   2.812   1.504   6.503
 9478TIP3    H128379   2.779   1.532   6.418
 9478TIP3    H228380   2.883   1.443   6.483
 9479TIP3   OH228381   6.425   1.750   4.221
 9479TIP3    H128382   6.375   1.699   4.285
 9479TIP3    H228383   6.502   1.780   4.270
 9480TIP3   OH228384   4.092   4.636   1.559
 9480TIP3    H128385   4.163   4.680   1.606
 9480TIP3    H228386   4.111   4.653   1.466
 9481TIP3   OH228387   2.272   3.722   4.417
 9481TIP3    H128388   2.284   3.776   4.495
 9481TIP3    H228389   2.193   3.672   4.434
 9482TIP3   OH228390   0.982   7.843   3.629
 9482TIP3    H128391   0.969   7.914   3.691
 9482TIP3    H228392   1.010   7.769   3.682
 9483TIP3   OH228393   2.061   0.283   2.934
 9483TIP3    H128394   2.062   0.230   3.014
 9483TIP3    H228395   2.107   0.363   2.958
 9484TIP3   OH228396   5.278   1.315   4.097
 9484TIP3    H128397   5.270   1.323   4.002
 9484TIP3    H228398   5.361   1.269   4.111
 9485TIP3   OH228399   5.649   0.248   0.594
 9485TIP3    H128400   5.705   0.284   0.525
 9485TIP3    H228401   5.700   0.176   0.631
 9486TIP3   OH228402   2.087   1.220   6.312
 9486TIP3    H128403   2.159   1.157   6.308
 9486TIP3    H228404   2.024   1.189   6.247
 9487TIP3   OH228405   1.420   2.765   2.406
 9487TIP3    H128406   1.425   2.860   2.418
 9487TIP3    H228407   1.502   2.731   2.443
 9488TIP3   OH228408   6.718   0.206   1.547
 9488TIP3    H128409   6.710   0.113   1.567
 9488TIP3    H228410   6.718   0.210   1.452
 9489TIP3   OH228411   7.028   1.057   5.313
 9489TIP3    H128412   6.987   0.971   5.306
 9489TIP3    H228413   6.962   1.118   5.279
 9490TIP3   OH228414   0.289   3.800   3.947
 9490TIP3    H128415   0.337   3.778   4.027
 9490TIP3    H228416   0.297   3.895   3.939
 9491TIP3   OH228417   6.496   7.385   1.546
 9491TIP3    H128418   6.526   7.363   1.634
 9491TIP3    H228419   6.411   7.427   1.559
 9492TIP3   OH228420   1.690   1.884   2.080
 9492TIP3    H128421   1.642   1.967   2.086
 9492TIP3    H228422   1.625   1.816   2.094
 9493TIP3   OH228423   0.915   2.014   2.452
 9493TIP3    H128424   0.918   1.919   2.442
 9493TIP3    H228425   0.831   2.040   2.413
 9494TIP3   OH228426   2.644  -0.029   6.501
 9494TIP3    H128427   2.700  -0.017   6.424
 9494TIP3    H228428   2.607   0.057   6.518
 9495TIP3   OH228429   5.270   5.478   3.215
 9495TIP3    H128430   5.219   5.470   3.135
 9495TIP3    H228431   5.281   5.572   3.228
 9496TIP3   OH228432   7.770   2.686   6.316
 9496TIP3    H128433   7.754   2.777   6.341
 9496TIP3    H228434   7.857   2.687   6.277
 9497TIP3   OH228435   5.614   6.001   4.769
 9497TIP3    H128436   5.697   5.968   4.804
 9497TIP3    H228437   5.555   5.998   4.844
 9498TIP3   OH228438   0.653   3.947   4.920
 9498TIP3    H128439   0.590   3.988   4.978
 9498TIP3    H228440   0.716   3.905   4.978
 9499TIP3   OH228441   8.135   1.110   3.999
 9499TIP3    H128442   8.148   1.044   3.931
 9499TIP3    H228443   8.097   1.062   4.072
 9500TIP3   OH228444   4.030   3.779   0.626
 9500TIP3    H128445   4.044   3.750   0.716
 9500TIP3    H228446   4.117   3.808   0.597
 9501TIP3   OH228447   8.194   6.278   3.651
 9501TIP3    H128448   8.214   6.370   3.667
 9501TIP3    H228449   8.193   6.237   3.737
 9502TIP3   OH228450   6.212   3.007   6.407
 9502TIP3    H128451   6.255   2.923   6.389
 9502TIP3    H228452   6.181   2.999   6.497
 9503TIP3   OH228453   5.250   3.547   5.278
 9503TIP3    H128454   5.160   3.547   5.312
 9503TIP3    H228455   5.297   3.608   5.335
 9504TIP3   OH228456   3.974   6.236   0.789
 9504TIP3    H128457   4.058   6.227   0.833
 9504TIP3    H228458   3.996   6.261   0.699
 9505TIP3   OH228459   0.720   3.459   3.646
 9505TIP3    H128460   0.723   3.390   3.712
 9505TIP3    H228461   0.720   3.541   3.697
 9506TIP3   OH228462   5.309   0.181   4.095
 9506TIP3    H128463   5.300   0.099   4.047
 9506TIP3    H228464   5.404   0.196   4.099
 9507TIP3   OH228465   2.953   1.270   0.246
 9507TIP3    H128466   2.991   1.209   0.183
 9507TIP3    H228467   2.868   1.232   0.268
 9508TIP3   OH228468   3.276   6.953   2.750
 9508TIP3    H128469   3.300   6.951   2.843
 9508TIP3    H228470   3.348   6.907   2.706
 9509TIP3   OH228471   2.751   2.241   5.982
 9509TIP3    H128472   2.810   2.262   6.054
 9509TIP3    H228473   2.715   2.155   6.005
 9510TIP3   OH228474   3.366   3.377   2.506
 9510TIP3    H128475   3.273   3.371   2.526
 9510TIP3    H228476   3.391   3.466   2.529
 9511TIP3   OH228477   6.412   6.858   1.166
 9511TIP3    H128478   6.402   6.785   1.104
 9511TIP3    H228479   6.411   6.936   1.112
 9512TIP3   OH228480   4.111   1.822   1.025
 9512TIP3    H128481   4.118   1.728   1.042
 9512TIP3    H228482   4.159   1.863   1.097
 9513TIP3   OH228483   7.043   5.110   5.157
 9513TIP3    H128484   7.124   5.069   5.186
 9513TIP3    H228485   6.974   5.050   5.185
 9514TIP3   OH228486   0.826   3.769   6.655
 9514TIP3    H128487   0.921   3.769   6.663
 9514TIP3    H228488   0.802   3.862   6.654
 9515TIP3   OH228489   1.611   1.820   2.557
 9515TIP3    H128490   1.529   1.771   2.561
 9515TIP3    H228491   1.584   1.911   2.561
 9516TIP3   OH228492   5.973   1.963   0.810
 9516TIP3    H128493   5.997   1.876   0.777
 9516TIP3    H228494   5.877   1.962   0.811
 9517TIP3   OH228495   3.361   3.778   0.637
 9517TIP3    H128496   3.278   3.826   0.644
 9517TIP3    H228497   3.427   3.840   0.668
 9518TIP3   OH228498   7.131   6.932   4.950
 9518TIP3    H128499   7.100   6.850   4.986
 9518TIP3    H228500   7.166   6.980   5.025
 9519TIP3   OH228501   0.586   5.976   4.135
 9519TIP3    H128502   0.556   6.056   4.093
 9519TIP3    H228503   0.673   5.961   4.098
 9520TIP3   OH228504   7.115   7.067   5.610
 9520TIP3    H128505   7.128   7.117   5.691
 9520TIP3    H228506   7.098   7.133   5.543
 9521TIP3   OH228507   6.935   3.951   2.194
 9521TIP3    H128508   6.882   4.022   2.157
 9521TIP3    H228509   7.023   3.966   2.160
 9522TIP3   OH228510   3.507   5.641   2.586
 9522TIP3    H128511   3.473   5.561   2.546
 9522TIP3    H228512   3.466   5.712   2.538
 9523TIP3   OH228513   1.243   4.395   4.946
 9523TIP3    H128514   1.321   4.408   4.999
 9523TIP3    H228515   1.173   4.439   4.995
 9524TIP3   OH228516   2.696   7.359   2.216
 9524TIP3    H128517   2.734   7.347   2.129
 9524TIP3    H228518   2.765   7.401   2.267
 9525TIP3   OH228519   2.253   0.678   3.889
 9525TIP3    H128520   2.213   0.730   3.958
 9525TIP3    H228521   2.228   0.722   3.808
 9526TIP3   OH228522   6.077   4.052   2.586
 9526TIP3    H128523   6.056   4.107   2.661
 9526TIP3    H228524   6.023   3.974   2.599
 9527TIP3   OH228525   2.306   4.053   1.874
 9527TIP3    H128526   2.374   4.115   1.848
 9527TIP3    H228527   2.290   4.000   1.796
 9528TIP3   OH228528   7.985   7.533   0.867
 9528TIP3    H128529   7.966   7.451   0.911
 9528TIP3    H228530   8.075   7.554   0.893
 9529TIP3   OH228531   1.979   0.498   1.576
 9529TIP3    H128532   1.912   0.441   1.539
 9529TIP3    H228533   1.971   0.487   1.670
 9530TIP3   OH228534   0.180   1.306   6.424
 9530TIP3    H128535   0.269   1.341   6.420
 9530TIP3    H228536   0.185   1.235   6.488
 9531TIP3   OH228537   6.597   4.728   6.508
 9531TIP3    H128538   6.626   4.673   6.436
 9531TIP3    H228539   6.613   4.676   6.587
 9532TIP3   OH228540   4.534   7.511   6.254
 9532TIP3    H128541   4.615   7.528   6.301
 9532TIP3    H228542   4.536   7.570   6.179
 9533TIP3   OH228543   7.573   0.639   1.786
 9533TIP3    H128544   7.530   0.654   1.702
 9533TIP3    H228545   7.502   0.633   1.849
 9534TIP3   OH228546   7.599   0.564   2.894
 9534TIP3    H128547   7.627   0.629   2.958
 9534TIP3    H228548   7.554   0.614   2.827
 9535TIP3   OH228549   5.886   0.910   1.397
 9535TIP3    H128550   5.907   0.924   1.489
 9535TIP3    H228551   5.964   0.871   1.359
 9536TIP3   OH228552   4.440   6.174   4.092
 9536TIP3    H128553   4.498   6.171   4.016
 9536TIP3    H228554   4.446   6.264   4.124
 9537TIP3   OH228555   7.929   0.068   4.695
 9537TIP3    H128556   7.911  -0.008   4.750
 9537TIP3    H228557   8.001   0.041   4.638
 9538TIP3   OH228558   7.181   6.877   0.465
 9538TIP3    H128559   7.159   6.960   0.508
 9538TIP3    H228560   7.271   6.889   0.434
 9539TIP3   OH228561   6.941   4.407   0.208
 9539TIP3    H128562   6.884   4.345   0.253
 9539TIP3    H228563   7.022   4.406   0.258
 9540TIP3   OH228564   5.363   2.274   4.842
 9540TIP3    H128565   5.281   2.320   4.830
 9540TIP3    H228566   5.338   2.183   4.861
 9541TIP3   OH228567   6.068   4.419  -0.029
 9541TIP3    H128568   6.104   4.367   0.042
 9541TIP3    H228569   6.143   4.439  -0.084
 9542TIP3   OH228570   3.539   3.596   6.093
 9542TIP3    H128571   3.588   3.588   6.175
 9542TIP3    H228572   3.485   3.674   6.104
 9543TIP3   OH228573   3.831   6.133   1.140
 9543TIP3    H128574   3.794   6.208   1.187
 9543TIP3    H228575   3.912   6.113   1.186
 9544TIP3   OH228576   1.113   1.667   0.372
 9544TIP3    H128577   1.174   1.739   0.357
 9544TIP3    H228578   1.168   1.594   0.401
 9545TIP3   OH228579   4.115   4.972   0.804
 9545TIP3    H128580   4.072   4.888   0.819
 9545TIP3    H228581   4.176   4.981   0.878
 9546TIP3   OH228582   2.896   4.356   6.680
 9546TIP3    H128583   2.951   4.285   6.713
 9546TIP3    H228584   2.814   4.347   6.729
 9547TIP3   OH228585   1.171   6.716   3.948
 9547TIP3    H128586   1.215   6.688   3.868
 9547TIP3    H228587   1.148   6.808   3.933
 9548TIP3   OH228588   4.652   7.065   2.785
 9548TIP3    H128589   4.621   7.087   2.697
 9548TIP3    H228590   4.580   7.092   2.842
 9549TIP3   OH228591   0.730   7.334   5.997
 9549TIP3    H128592   0.735   7.249   6.040
 9549TIP3    H228593   0.643   7.336   5.958
 9550TIP3   OH228594   6.308   1.143   0.859
 9550TIP3    H128595   6.246   1.154   0.787
 9550TIP3    H228596   6.379   1.204   0.839
 9551TIP3   OH228597   1.184   1.010   3.645
 9551TIP3    H128598   1.153   0.958   3.719
 9551TIP3    H228599   1.272   0.978   3.628
 9552TIP3   OH228600   7.883   2.288   1.113
 9552TIP3    H128601   7.911   2.218   1.172
 9552TIP3    H228602   7.815   2.248   1.059
 9553TIP3   OH228603   7.748   7.480   0.293
 9553TIP3    H128604   7.708   7.473   0.206
 9553TIP3    H228605   7.673   7.486   0.353
 9554TIP3   OH228606   4.989   7.210   6.085
 9554TIP3    H128607   4.974   7.116   6.092
 9554TIP3    H228608   5.084   7.220   6.096
 9555TIP3   OH228609   0.394   7.634   1.560
 9555TIP3    H128610   0.476   7.605   1.600
 9555TIP3    H228611   0.402   7.729   1.556
 9556TIP3   OH228612   7.007   0.953   0.219
 9556TIP3    H128613   6.929   0.910   0.256
 9556TIP3    H228614   7.076   0.886   0.224
 9557TIP3   OH228615   3.780   0.559   2.502
 9557TIP3    H128616   3.863   0.607   2.495
 9557TIP3    H228617   3.779   0.502   2.425
 9558TIP3   OH228618   5.680   6.642   2.241
 9558TIP3    H128619   5.748   6.707   2.258
 9558TIP3    H228620   5.659   6.607   2.328
 9559TIP3   OH228621   1.639   3.176   1.968
 9559TIP3    H128622   1.730   3.152   1.985
 9559TIP3    H228623   1.590   3.144   2.043
 9560TIP3   OH228624   6.183   1.324   1.171
 9560TIP3    H128625   6.207   1.232   1.182
 9560TIP3    H228626   6.250   1.371   1.221
 9561TIP3   OH228627   5.761   6.254   3.860
 9561TIP3    H128628   5.821   6.244   3.933
 9561TIP3    H228629   5.817   6.273   3.785
 9562TIP3   OH228630   3.405   1.591   3.536
 9562TIP3    H128631   3.447   1.506   3.546
 9562TIP3    H228632   3.380   1.594   3.443
 9563TIP3   OH228633   7.118   4.880   3.272
 9563TIP3    H128634   7.053   4.950   3.275
 9563TIP3    H228635   7.114   4.840   3.359
 9564TIP3   OH228636   0.686   6.751   0.520
 9564TIP3    H128637   0.745   6.764   0.595
 9564TIP3    H228638   0.745   6.740   0.445
 9565TIP3   OH228639   7.112   0.834   2.562
 9565TIP3    H128640   7.067   0.765   2.514
 9565TIP3    H228641   7.154   0.887   2.495
 9566TIP3   OH228642   2.145   1.819   5.396
 9566TIP3    H128643   2.065   1.846   5.351
 9566TIP3    H228644   2.160   1.887   5.462
 9567TIP3   OH228645   3.724   4.493   6.429
 9567TIP3    H128646   3.638   4.516   6.392
 9567TIP3    H228647   3.731   4.546   6.508
 9568TIP3   OH228648   7.428   3.072   6.088
 9568TIP3    H128649   7.376   3.007   6.133
 9568TIP3    H228650   7.496   3.098   6.151
 9569TIP3   OH228651   0.756   2.617   0.080
 9569TIP3    H128652   0.718   2.569   0.154
 9569TIP3    H228653   0.798   2.549   0.027
 9570TIP3   OH228654   8.028   3.650   2.983
 9570TIP3    H128655   7.966   3.721   3.001
 9570TIP3    H228656   7.973   3.572   2.973
 9571TIP3   OH228657   5.507   2.406   6.501
 9571TIP3    H128658   5.486   2.414   6.594
 9571TIP3    H228659   5.584   2.461   6.489
 9572TIP3   OH228660   4.682   1.087   1.864
 9572TIP3    H128661   4.758   1.085   1.805
 9572TIP3    H228662   4.642   1.172   1.850
 9573TIP3   OH228663   3.255   6.385   6.511
 9573TIP3    H128664   3.232   6.445   6.583
 9573TIP3    H228665   3.211   6.422   6.434
 9574TIP3   OH228666   2.502   3.653   6.718
 9574TIP3    H128667   2.473   3.692   6.801
 9574TIP3    H228668   2.505   3.559   6.736
 9575TIP3   OH228669   1.161   0.119   4.383
 9575TIP3    H128670   1.212   0.109   4.464
 9575TIP3    H228671   1.098   0.047   4.386
 9576TIP3   OH228672   5.509   7.317   2.438
 9576TIP3    H128673   5.548   7.332   2.524
 9576TIP3    H228674   5.583   7.293   2.382
 9577TIP3   OH228675   4.005   5.683   5.477
 9577TIP3    H128676   4.081   5.710   5.425
 9577TIP3    H228677   3.951   5.632   5.415
 9578TIP3   OH228678   5.213   4.714   3.491
 9578TIP3    H128679   5.121   4.698   3.512
 9578TIP3    H228680   5.239   4.637   3.440
 9579TIP3   OH228681   2.575   1.682   2.096
 9579TIP3    H128682   2.518   1.634   2.156
 9579TIP3    H228683   2.519   1.704   2.021
 9580TIP3   OH228684   2.739   5.234   1.111
 9580TIP3    H128685   2.712   5.272   1.195
 9580TIP3    H228686   2.825   5.271   1.094
 9581TIP3   OH228687   5.600   3.431   5.991
 9581TIP3    H128688   5.653   3.505   5.962
 9581TIP3    H228689   5.664   3.365   6.017
 9582TIP3   OH228690   5.052   1.520   3.870
 9582TIP3    H128691   5.147   1.511   3.881
 9582TIP3    H228692   5.025   1.577   3.943
 9583TIP3   OH228693   0.591   7.535   1.365
 9583TIP3    H128694   0.614   7.447   1.395
 9583TIP3    H228695   0.526   7.565   1.429
 9584TIP3   OH228696   2.810   5.889   0.224
 9584TIP3    H128697   2.782   5.911   0.313
 9584TIP3    H228698   2.731   5.856   0.181
 9585TIP3   OH228699   2.265   3.086   4.300
 9585TIP3    H128700   2.273   3.139   4.221
 9585TIP3    H228701   2.186   3.034   4.287
 9586TIP3   OH228702   0.033   0.981   0.578
 9586TIP3    H128703   0.116   0.952   0.618
 9586TIP3    H228704   0.002   0.905   0.529
 9587TIP3   OH228705   3.688   7.415   0.822
 9587TIP3    H128706   3.708   7.506   0.798
 9587TIP3    H228707   3.603   7.419   0.865
 9588TIP3   OH228708   0.120   2.575   4.509
 9588TIP3    H128709   0.204   2.534   4.527
 9588TIP3    H228710   0.134   2.668   4.526
 9589TIP3   OH228711   8.288   3.776   2.936
 9589TIP3    H128712   8.203   3.745   2.966
 9589TIP3    H228713   8.343   3.698   2.936
 9590TIP3   OH228714   6.013   3.965   4.639
 9590TIP3    H128715   6.095   3.962   4.590
 9590TIP3    H228716   5.972   3.881   4.622
 9591TIP3   OH228717   4.329   4.348   0.460
 9591TIP3    H128718   4.270   4.424   0.454
 9591TIP3    H228719   4.275   4.279   0.500
 9592TIP3   OH228720   0.679   3.790   2.504
 9592TIP3    H128721   0.675   3.695   2.498
 9592TIP3    H228722   0.764   3.808   2.545
 9593TIP3   OH228723   2.468   2.532   5.694
 9593TIP3    H128724   2.492   2.501   5.781
 9593TIP3    H228725   2.512   2.472   5.634
 9594TIP3   OH228726   0.693   5.492   4.525
 9594TIP3    H128727   0.679   5.472   4.432
 9594TIP3    H228728   0.699   5.587   4.528
 9595TIP3   OH228729   3.922   7.573   2.654
 9595TIP3    H128730   3.848   7.615   2.610
 9595TIP3    H228731   3.945   7.632   2.725
 9596TIP3   OH228732   1.471   2.035   5.351
 9596TIP3    H128733   1.480   2.121   5.391
 9596TIP3    H228734   1.542   2.031   5.287
 9597TIP3   OH228735   3.028   1.019   4.959
 9597TIP3    H128736   3.056   0.999   4.869
 9597TIP3    H228737   3.098   1.075   4.993
 9598TIP3   OH228738   6.218   7.571   5.980
 9598TIP3    H128739   6.143   7.546   5.927
 9598TIP3    H228740   6.250   7.488   6.017
 9599TIP3   OH228741   2.041   0.365   0.854
 9599TIP3    H128742   2.092   0.442   0.880
 9599TIP3    H228743   1.958   0.375   0.899
 9600TIP3   OH228744   0.326   2.414   5.761
 9600TIP3    H128745   0.253   2.355   5.746
 9600TIP3    H228746   0.387   2.364   5.816
 9601TIP3   OH228747   1.977   7.533   5.305
 9601TIP3    H128748   2.016   7.584   5.235
 9601TIP3    H228749   1.928   7.464   5.261
 9602TIP3   OH228750   6.454   0.281   0.035
 9602TIP3    H128751   6.480   0.328  -0.045
 9602TIP3    H228752   6.448   0.349   0.102
 9603TIP3   OH228753   6.143   4.327   5.950
 9603TIP3    H128754   6.055   4.301   5.922
 9603TIP3    H228755   6.146   4.421   5.936
 9604TIP3   OH228756   2.418   3.647   1.166
 9604TIP3    H128757   2.508   3.650   1.134
 9604TIP3    H228758   2.391   3.556   1.153
 9605TIP3   OH228759   1.029   5.995   0.892
 9605TIP3    H128760   1.078   6.061   0.842
 9605TIP3    H228761   0.937   6.016   0.875
 9606TIP3   OH228762   6.903   7.073   5.896
 9606TIP3    H128763   6.978   7.044   5.949
 9606TIP3    H228764   6.866   6.992   5.862
 9607TIP3   OH228765   1.367   4.976   5.506
 9607TIP3    H128766   1.425   4.910   5.468
 9607TIP3    H228767   1.406   4.995   5.591
 9608TIP3   OH228768   6.212   0.651   6.103
 9608TIP3    H128769   6.223   0.746   6.106
 9608TIP3    H228770   6.295   0.618   6.070
 9609TIP3   OH228771   2.010   3.399   1.905
 9609TIP3    H128772   2.007   3.452   1.985
 9609TIP3    H228773   2.079   3.440   1.852
 9610TIP3   OH228774   5.351   1.443   2.831
 9610TIP3    H128775   5.332   1.537   2.832
 9610TIP3    H228776   5.332   1.416   2.741
 9611TIP3   OH228777   1.536   7.339   6.535
 9611TIP3    H128778   1.444   7.313   6.541
 9611TIP3    H228779   1.550   7.398   6.610
 9612TIP3   OH228780   5.382   1.661   3.049
 9612TIP3    H128781   5.386   1.690   2.958
 9612TIP3    H228782   5.330   1.728   3.093
 9613TIP3   OH228783   5.845   6.174   1.694
 9613TIP3    H128784   5.931   6.145   1.724
 9613TIP3    H228785   5.822   6.246   1.753
 9614TIP3   OH228786   4.622   2.491   2.445
 9614TIP3    H128787   4.618   2.583   2.471
 9614TIP3    H228788   4.573   2.487   2.363
 9615TIP3   OH228789   5.623   7.067   0.131
 9615TIP3    H128790   5.602   6.974   0.126
 9615TIP3    H228791   5.645   7.092   0.041
 9616TIP3   OH228792   0.275   5.980   6.421
 9616TIP3    H128793   0.294   6.074   6.426
 9616TIP3    H228794   0.347   5.944   6.370
 9617TIP3   OH228795   0.101   4.019   3.025
 9617TIP3    H128796   0.077   4.101   2.982
 9617TIP3    H228797   0.054   3.952   2.976
 9618TIP3   OH228798   6.450   3.927   1.031
 9618TIP3    H128799   6.473   3.862   0.965
 9618TIP3    H228800   6.356   3.914   1.045
 9619TIP3   OH228801   8.054   3.348   0.993
 9619TIP3    H128802   8.045   3.400   0.913
 9619TIP3    H228803   8.147   3.328   0.999
 9620TIP3   OH228804   1.452   6.686   2.670
 9620TIP3    H128805   1.405   6.633   2.735
 9620TIP3    H228806   1.476   6.624   2.601
 9621TIP3   OH228807   0.386   0.158   1.588
 9621TIP3    H128808   0.389   0.233   1.527
 9621TIP3    H228809   0.293   0.135   1.592
 9622TIP3   OH228810   2.639   0.756   1.514
 9622TIP3    H128811   2.598   0.843   1.513
 9622TIP3    H228812   2.615   0.719   1.599
 9623TIP3   OH228813   3.721   7.023   0.918
 9623TIP3    H128814   3.671   7.087   0.967
 9623TIP3    H228815   3.766   7.074   0.850
 9624TIP3   OH228816   7.339   7.543   4.149
 9624TIP3    H128817   7.304   7.486   4.080
 9624TIP3    H228818   7.287   7.521   4.226
 9625TIP3   OH228819   2.067   0.107   1.140
 9625TIP3    H128820   2.102   0.049   1.073
 9625TIP3    H228821   2.048   0.050   1.214
 9626TIP3   OH228822   1.119   2.183   0.813
 9626TIP3    H128823   1.086   2.246   0.749
 9626TIP3    H228824   1.137   2.235   0.892
 9627TIP3   OH228825   7.010   5.383   6.586
 9627TIP3    H128826   6.948   5.428   6.642
 9627TIP3    H228827   7.094   5.393   6.630
 9628TIP3   OH228828   5.635   3.673   5.206
 9628TIP3    H128829   5.579   3.616   5.259
 9628TIP3    H228830   5.676   3.614   5.143
 9629TIP3   OH228831   1.992   2.804   4.166
 9629TIP3    H128832   1.913   2.761   4.199
 9629TIP3    H228833   1.975   2.816   4.073
 9630TIP3   OH228834   6.703   3.018   1.750
 9630TIP3    H128835   6.655   3.042   1.829
 9630TIP3    H228836   6.674   3.082   1.684
 9631TIP3   OH228837   1.242   5.611   3.995
 9631TIP3    H128838   1.333   5.629   4.019
 9631TIP3    H228839   1.243   5.606   3.900
 9632TIP3   OH228840   3.347   3.130   1.178
 9632TIP3    H128841   3.275   3.073   1.205
 9632TIP3    H228842   3.340   3.206   1.237
 9633TIP3   OH228843   4.992   3.080   4.291
 9633TIP3    H128844   4.948   3.072   4.206
 9633TIP3    H228845   5.064   3.140   4.275
 9634TIP3   OH228846   0.383   3.750   4.652
 9634TIP3    H128847   0.476   3.748   4.675
 9634TIP3    H228848   0.343   3.802   4.722
 9635TIP3   OH228849   5.854   1.858   2.911
 9635TIP3    H128850   5.855   1.883   2.818
 9635TIP3    H228851   5.891   1.934   2.956
 9636TIP3   OH228852   7.286   0.870   1.165
 9636TIP3    H128853   7.327   0.924   1.233
 9636TIP3    H228854   7.283   0.926   1.088
 9637TIP3   OH228855   5.734   2.996   4.077
 9637TIP3    H128856   5.799   3.066   4.077
 9637TIP3    H228857   5.707   2.987   4.168
 9638TIP3   OH228858   5.884   6.212   1.429
 9638TIP3    H128859   5.975   6.183   1.436
 9638TIP3    H228860   5.846   6.194   1.515
 9639TIP3   OH228861   3.059   2.371   1.474
 9639TIP3    H128862   3.013   2.411   1.401
 9639TIP3    H228863   3.043   2.277   1.464
 9640TIP3   OH228864   0.633   0.501   2.205
 9640TIP3    H128865   0.575   0.426   2.191
 9640TIP3    H228866   0.610   0.532   2.292
 9641TIP3   OH228867   2.894   3.211   0.019
 9641TIP3    H128868   2.861   3.146   0.081
 9641TIP3    H228869   2.970   3.170  -0.021
 9642TIP3   OH228870   7.887   1.081   0.383
 9642TIP3    H128871   7.900   0.994   0.346
 9642TIP3    H228872   7.796   1.082   0.410
 9643TIP3   OH228873   6.322   7.051   1.834
 9643TIP3    H128874   6.412   7.037   1.807
 9643TIP3    H228875   6.286   6.962   1.842
 9644TIP3   OH228876   8.069   2.091   1.640
 9644TIP3    H128877   8.028   2.175   1.619
 9644TIP3    H228878   8.157   2.097   1.602
 9645TIP3   OH228879   0.798   6.431   0.829
 9645TIP3    H128880   0.738   6.421   0.903
 9645TIP3    H228881   0.744   6.415   0.752
 9646TIP3   OH228882   3.170   3.064   5.260
 9646TIP3    H128883   3.165   3.113   5.178
 9646TIP3    H228884   3.195   2.976   5.233
 9647TIP3   OH228885   4.090   6.244   2.681
 9647TIP3    H128886   4.154   6.272   2.746
 9647TIP3    H228887   4.075   6.321   2.626
 9648TIP3   OH228888   7.929   7.495   5.637
 9648TIP3    H128889   7.935   7.582   5.677
 9648TIP3    H228890   8.002   7.492   5.575
 9649TIP3   OH228891   3.172   0.266   0.088
 9649TIP3    H128892   3.191   0.222   0.005
 9649TIP3    H228893   3.256   0.301   0.116
 9650TIP3   OH228894   1.509   0.346   2.218
 9650TIP3    H128895   1.482   0.296   2.295
 9650TIP3    H228896   1.428   0.362   2.170
 9651TIP3   OH228897   2.856   5.829   4.278
 9651TIP3    H128898   2.873   5.865   4.365
 9651TIP3    H228899   2.934   5.777   4.257
 9652TIP3   OH228900   2.589   1.925   6.752
 9652TIP3    H128901   2.514   1.977   6.723
 9652TIP3    H228902   2.620   1.881   6.673
 9653TIP3   OH228903   4.110   4.957   2.879
 9653TIP3    H128904   4.150   4.972   2.964
 9653TIP3    H228905   4.031   4.907   2.897
 9654TIP3   OH228906   7.505   3.914   1.519
 9654TIP3    H128907   7.558   3.835   1.522
 9654TIP3    H228908   7.434   3.898   1.582
 9655TIP3   OH228909   0.759   3.948   0.317
 9655TIP3    H128910   0.695   4.005   0.359
 9655TIP3    H228911   0.716   3.862   0.313
 9656TIP3   OH228912   6.425   6.192   1.122
 9656TIP3    H128913   6.447   6.250   1.048
 9656TIP3    H228914   6.330   6.184   1.119
 9657TIP3   OH228915   5.871   4.528   0.747
 9657TIP3    H128916   5.961   4.562   0.751
 9657TIP3    H228917   5.866   4.485   0.661
 9658TIP3   OH228918   3.640   2.598   6.737
 9658TIP3    H128919   3.677   2.680   6.705
 9658TIP3    H228920   3.640   2.540   6.660
 9659TIP3   OH228921   1.216   3.669   3.203
 9659TIP3    H128922   1.219   3.734   3.133
 9659TIP3    H228923   1.203   3.585   3.158
 9660TIP3   OH228924   8.047   2.115   5.028
 9660TIP3    H128925   8.091   2.198   5.008
 9660TIP3    H228926   8.068   2.058   4.954
 9661TIP3   OH228927   0.824   0.818   5.798
 9661TIP3    H128928   0.848   0.744   5.855
 9661TIP3    H228929   0.741   0.791   5.758
 9662TIP3   OH228930   7.450   2.677   0.262
 9662TIP3    H128931   7.417   2.760   0.229
 9662TIP3    H228932   7.380   2.614   0.244
 9663TIP3   OH228933   0.956   6.570   3.784
 9663TIP3    H128934   0.956   6.662   3.811
 9663TIP3    H228935   0.865   6.553   3.758
 9664TIP3   OH228936   6.619   6.780   5.238
 9664TIP3    H128937   6.678   6.785   5.163
 9664TIP3    H228938   6.554   6.848   5.222
 9665TIP3   OH228939   6.967   4.775   4.771
 9665TIP3    H128940   7.036   4.797   4.708
 9665TIP3    H228941   6.984   4.831   4.847
 9666TIP3   OH228942   1.818   0.625   4.571
 9666TIP3    H128943   1.780   0.580   4.495
 9666TIP3    H228944   1.817   0.558   4.640
 9667TIP3   OH228945   0.890   2.995   5.859
 9667TIP3    H128946   0.970   3.047   5.864
 9667TIP3    H228947   0.873   2.986   5.766
 9668TIP3   OH228948   0.303   2.767   0.880
 9668TIP3    H128949   0.211   2.752   0.903
 9668TIP3    H228950   0.352   2.712   0.941
 9669TIP3   OH228951   6.098   5.637   3.145
 9669TIP3    H128952   6.177   5.685   3.170
 9669TIP3    H228953   6.122   5.545   3.157
 9670TIP3   OH228954   5.630   1.394   3.632
 9670TIP3    H128955   5.696   1.410   3.565
 9670TIP3    H228956   5.549   1.382   3.584
 9671TIP3   OH228957   7.548   4.540   4.940
 9671TIP3    H128958   7.480   4.570   4.879
 9671TIP3    H228959   7.613   4.497   4.884
 9672TIP3   OH228960   6.988   7.774   2.350
 9672TIP3    H128961   7.037   7.763   2.431
 9672TIP3    H228962   6.960   7.865   2.350
 9673TIP3   OH228963   3.910   1.578   6.781
 9673TIP3    H128964   3.970   1.559   6.709
 9673TIP3    H228965   3.832   1.614   6.738
 9674TIP3   OH228966   5.600   6.995   2.660
 9674TIP3    H128967   5.549   7.060   2.708
 9674TIP3    H228968   5.594   7.023   2.569
 9675TIP3   OH228969   1.599   5.831   0.522
 9675TIP3    H128970   1.652   5.773   0.467
 9675TIP3    H228971   1.663   5.883   0.570
 9676TIP3   OH228972   2.869   4.971   1.870
 9676TIP3    H128973   2.811   4.904   1.905
 9676TIP3    H228974   2.925   4.995   1.944
 9677TIP3   OH228975   2.843   5.446   1.580
 9677TIP3    H128976   2.882   5.411   1.659
 9677TIP3    H228977   2.883   5.533   1.570
 9678TIP3   OH228978   2.810   5.114   6.296
 9678TIP3    H128979   2.731   5.157   6.330
 9678TIP3    H228980   2.829   5.046   6.360
 9679TIP3   OH228981   3.401   4.687   1.624
 9679TIP3    H128982   3.488   4.686   1.586
 9679TIP3    H228983   3.414   4.665   1.716
 9680TIP3   OH228984   0.586   4.109   0.499
 9680TIP3    H128985   0.569   4.098   0.593
 9680TIP3    H228986   0.502   4.134   0.462
 9681TIP3   OH228987   7.785   6.914   5.344
 9681TIP3    H128988   7.786   6.851   5.272
 9681TIP3    H228989   7.777   6.999   5.302
 9682TIP3   OH228990   0.512   2.029   6.569
 9682TIP3    H128991   0.549   1.973   6.638
 9682TIP3    H228992   0.537   2.118   6.595
 9683TIP3   OH228993   2.580   6.127   5.039
 9683TIP3    H128994   2.501   6.091   5.080
 9683TIP3    H228995   2.620   6.051   4.995
 9684TIP3   OH228996   5.036   3.849   0.975
 9684TIP3    H128997   5.057   3.805   0.893
 9684TIP3    H228998   5.099   3.813   1.038
 9685TIP3   OH228999   5.822   2.963   3.537
 9685TIP3    H129000   5.730   2.978   3.513
 9685TIP3    H229001   5.827   2.869   3.551
 9686TIP3   OH229002   8.139   0.509   6.770
 9686TIP3    H129003   8.200   0.436   6.764
 9686TIP3    H229004   8.118   0.530   6.679
 9687TIP3   OH229005   5.766   7.179   1.294
 9687TIP3    H129006   5.751   7.095   1.252
 9687TIP3    H229007   5.803   7.158   1.380
 9688TIP3   OH229008   1.512   7.495   3.126
 9688TIP3    H129009   1.590   7.510   3.180
 9688TIP3    H229010   1.455   7.570   3.145
 9689TIP3   OH229011   1.699   3.910   0.709
 9689TIP3    H129012   1.715   3.819   0.736
 9689TIP3    H229013   1.613   3.908   0.668
 9690TIP3   OH229014   6.065   1.593   5.845
 9690TIP3    H129015   6.067   1.665   5.907
 9690TIP3    H229016   5.978   1.553   5.857
 9691TIP3   OH229017   0.173   7.692   2.869
 9691TIP3    H129018   0.114   7.619   2.885
 9691TIP3    H229019   0.259   7.659   2.894
 9692TIP3   OH229020   2.768   3.210   2.313
 9692TIP3    H129021   2.829   3.271   2.355
 9692TIP3    H229022   2.775   3.230   2.220
 9693TIP3   OH229023   6.328   3.307   2.614
 9693TIP3    H129024   6.282   3.306   2.530
 9693TIP3    H229025   6.394   3.375   2.604
 9694TIP3   OH229026   3.406   2.244   2.851
 9694TIP3    H129027   3.401   2.333   2.888
 9694TIP3    H229028   3.333   2.239   2.790
 9695TIP3   OH229029   1.235   6.165   6.519
 9695TIP3    H129030   1.143   6.176   6.543
 9695TIP3    H229031   1.273   6.253   6.530
 9696TIP3   OH229032   2.465   2.032   5.181
 9696TIP3    H129033   2.504   2.050   5.267
 9696TIP3    H229034   2.538   2.039   5.120
 9697TIP3   OH229035   4.139   4.160   3.450
 9697TIP3    H129036   4.044   4.175   3.442
 9697TIP3    H229037   4.161   4.190   3.538
 9698TIP3   OH229038   8.047   6.855   5.215
 9698TIP3    H129039   7.993   6.897   5.282
 9698TIP3    H229040   8.109   6.801   5.264
 9699TIP3   OH229041   1.650   2.063   5.107
 9699TIP3    H129042   1.607   1.986   5.070
 9699TIP3    H229043   1.738   2.062   5.071
 9700TIP3   OH229044   2.133   6.032   4.984
 9700TIP3    H129045   2.200   5.982   5.030
 9700TIP3    H229046   2.177   6.114   4.960
 9701TIP3   OH229047   1.287   6.508   0.615
 9701TIP3    H129048   1.304   6.594   0.576
 9701TIP3    H229049   1.368   6.486   0.660
 9702TIP3   OH229050   3.959   6.269   4.103
 9702TIP3    H129051   4.020   6.331   4.063
 9702TIP3    H229052   4.009   6.229   4.174
 9703TIP3   OH229053   4.634   7.002   4.719
 9703TIP3    H129054   4.543   7.012   4.747
 9703TIP3    H229055   4.638   7.048   4.635
 9704TIP3   OH229056   0.997   4.748   4.091
 9704TIP3    H129057   0.902   4.743   4.103
 9704TIP3    H229058   1.027   4.657   4.100
 9705TIP3   OH229059   0.774   4.104   6.194
 9705TIP3    H129060   0.822   4.141   6.268
 9705TIP3    H229061   0.841   4.067   6.138
 9706TIP3   OH229062   6.248   5.070   2.847
 9706TIP3    H129063   6.157   5.092   2.831
 9706TIP3    H229064   6.254   4.976   2.826
 9707TIP3   OH229065   0.438   1.700   6.486
 9707TIP3    H129066   0.426   1.606   6.471
 9707TIP3    H229067   0.406   1.715   6.575
 9708TIP3   OH229068   5.679   4.333   3.935
 9708TIP3    H129069   5.749   4.300   3.991
 9708TIP3    H229070   5.648   4.257   3.886
 9709TIP3   OH229071   7.358   2.711   1.326
 9709TIP3    H129072   7.295   2.664   1.380
 9709TIP3    H229073   7.322   2.800   1.319
 9710TIP3   OH229074   6.862   1.009   2.339
 9710TIP3    H129075   6.933   1.071   2.357
 9710TIP3    H229076   6.878   0.936   2.399
 9711TIP3   OH229077   6.031   2.484   3.924
 9711TIP3    H129078   6.081   2.450   3.999
 9711TIP3    H229079   5.945   2.505   3.960
 9712TIP3   OH229080   2.777   6.374   6.633
 9712TIP3    H129081   2.857   6.381   6.685
 9712TIP3    H229082   2.719   6.319   6.685
 9713TIP3   OH229083   5.346   1.858   6.322
 9713TIP3    H129084   5.435   1.823   6.331
 9713TIP3    H229085   5.359   1.949   6.293
 9714TIP3   OH229086   4.568   5.167   0.552
 9714TIP3    H129087   4.482   5.129   0.570
 9714TIP3    H229088   4.568   5.250   0.599
 9715TIP3   OH229089   2.625   3.748   3.048
 9715TIP3    H129090   2.627   3.839   3.020
 9715TIP3    H229091   2.637   3.697   2.968
 9716TIP3   OH229092   0.317   7.361   1.469
 9716TIP3    H129093   0.326   7.456   1.476
 9716TIP3    H229094   0.281   7.347   1.381
 9717TIP3   OH229095   2.522   3.963   0.384
 9717TIP3    H129096   2.527   4.054   0.354
 9717TIP3    H229097   2.429   3.942   0.381
 9718TIP3   OH229098   0.306   3.651   0.654
 9718TIP3    H129099   0.222   3.654   0.607
 9718TIP3    H229100   0.363   3.600   0.597
 9719TIP3   OH229101   6.587   2.598   0.872
 9719TIP3    H129102   6.601   2.688   0.900
 9719TIP3    H229103   6.633   2.545   0.938
 9720TIP3   OH229104   4.661   6.156   1.741
 9720TIP3    H129105   4.752   6.155   1.770
 9720TIP3    H229106   4.620   6.226   1.791
 9721TIP3   OH229107   6.082   6.295   4.677
 9721TIP3    H129108   6.157   6.314   4.733
 9721TIP3    H229109   6.117   6.295   4.588
 9722TIP3   OH229110   3.038   5.588   3.930
 9722TIP3    H129111   3.117   5.550   3.891
 9722TIP3    H229112   2.995   5.633   3.857
 9723TIP3   OH229113   0.689   3.328   0.803
 9723TIP3    H129114   0.780   3.358   0.803
 9723TIP3    H229115   0.664   3.329   0.711
 9724TIP3   OH229116   2.604   1.346   0.956
 9724TIP3    H129117   2.663   1.419   0.935
 9724TIP3    H229118   2.592   1.301   0.872
 9725TIP3   OH229119   4.768   2.207   4.758
 9725TIP3    H129120   4.706   2.229   4.828
 9725TIP3    H229121   4.757   2.277   4.694
 9726TIP3   OH229122   1.922   1.210   6.732
 9726TIP3    H129123   1.874   1.293   6.743
 9726TIP3    H229124   2.011   1.236   6.712
 9727TIP3   OH229125   5.003   6.426   5.202
 9727TIP3    H129126   4.950   6.492   5.245
 9727TIP3    H229127   4.944   6.351   5.192
 9728TIP3   OH229128   3.495   5.702   4.962
 9728TIP3    H129129   3.443   5.623   4.979
 9728TIP3    H229130   3.476   5.759   5.036
 9729TIP3   OH229131   0.264   6.377   3.083
 9729TIP3    H129132   0.263   6.467   3.050
 9729TIP3    H229133   0.188   6.373   3.142
 9730TIP3   OH229134   6.137   2.354   5.082
 9730TIP3    H129135   6.083   2.281   5.111
 9730TIP3    H229136   6.199   2.367   5.154
 9731TIP3   OH229137   4.545   7.253   3.705
 9731TIP3    H129138   4.465   7.201   3.714
 9731TIP3    H229139   4.548   7.276   3.612
 9732TIP3   OH229140   3.877   2.596   2.954
 9732TIP3    H129141   3.958   2.549   2.929
 9732TIP3    H229142   3.831   2.610   2.871
 9733TIP3   OH229143   0.480   0.978   5.053
 9733TIP3    H129144   0.516   0.928   4.979
 9733TIP3    H229145   0.460   0.912   5.119
 9734TIP3   OH229146   1.625   4.501   5.723
 9734TIP3    H129147   1.564   4.496   5.796
 9734TIP3    H229148   1.690   4.434   5.741
 9735TIP3   OH229149   0.250   2.637   6.731
 9735TIP3    H129150   0.211   2.687   6.660
 9735TIP3    H229151   0.256   2.700   6.803
 9736TIP3   OH229152   8.014   2.902   2.684
 9736TIP3    H129153   8.055   2.958   2.749
 9736TIP3    H229154   8.043   2.938   2.600
 9737TIP3   OH229155   0.942   7.530   4.136
 9737TIP3    H129156   0.915   7.457   4.081
 9737TIP3    H229157   1.025   7.560   4.098
 9738TIP3   OH229158   7.925   5.018   3.050
 9738TIP3    H129159   7.912   5.106   3.085
 9738TIP3    H229160   8.015   4.996   3.074
 9739TIP3   OH229161   5.987   5.177   3.440
 9739TIP3    H129162   6.026   5.214   3.519
 9739TIP3    H229163   5.995   5.082   3.452
 9740TIP3   OH229164   7.326   6.849   4.575
 9740TIP3    H129165   7.344   6.937   4.543
 9740TIP3    H229166   7.408   6.801   4.561
 9741TIP3   OH229167   2.150   4.333   1.055
 9741TIP3    H129168   2.202   4.287   0.990
 9741TIP3    H229169   2.096   4.265   1.096
 9742TIP3   OH229170   6.647   3.000   0.345
 9742TIP3    H129171   6.610   2.931   0.289
 9742TIP3    H229172   6.593   2.997   0.424
 9743TIP3   OH229173   7.464   2.204   3.267
 9743TIP3    H129174   7.407   2.131   3.243
 9743TIP3    H229175   7.404   2.277   3.285
 9744TIP3   OH229176   1.427   6.426   1.264
 9744TIP3    H129177   1.409   6.516   1.293
 9744TIP3    H229178   1.421   6.374   1.344
 9745TIP3   OH229179   7.325   5.091   5.342
 9745TIP3    H129180   7.329   5.182   5.313
 9745TIP3    H229181   7.342   5.095   5.436
 9746TIP3   OH229182   2.056   3.836   2.960
 9746TIP3    H129183   2.045   3.927   2.932
 9746TIP3    H229184   2.031   3.836   3.052
 9747TIP3   OH229185   0.801   3.591   6.328
 9747TIP3    H129186   0.745   3.668   6.340
 9747TIP3    H229187   0.845   3.606   6.244
 9748TIP3   OH229188   4.057   0.189   3.217
 9748TIP3    H129189   4.090   0.197   3.307
 9748TIP3    H229190   4.056   0.279   3.184
 9749TIP3   OH229191   2.592   4.790   1.232
 9749TIP3    H129192   2.559   4.807   1.320
 9749TIP3    H229193   2.684   4.816   1.236
 9750TIP3   OH229194   3.726   6.626   4.414
 9750TIP3    H129195   3.712   6.594   4.325
 9750TIP3    H229196   3.675   6.566   4.469
 9751TIP3   OH229197   8.027   3.481   6.189
 9751TIP3    H129198   8.099   3.519   6.239
 9751TIP3    H229199   8.050   3.389   6.179
 9752TIP3   OH229200   4.536   2.752   5.175
 9752TIP3    H129201   4.519   2.740   5.268
 9752TIP3    H229202   4.568   2.666   5.146
 9753TIP3   OH229203   7.098   3.702   6.209
 9753TIP3    H129204   7.009   3.686   6.238
 9753TIP3    H229205   7.153   3.658   6.274
 9754TIP3   OH229206   2.283   5.702   2.336
 9754TIP3    H129207   2.314   5.613   2.357
 9754TIP3    H229208   2.211   5.688   2.275
 9755TIP3   OH229209   1.438   7.521   6.102
 9755TIP3    H129210   1.425   7.532   6.008
 9755TIP3    H229211   1.533   7.527   6.114
 9756TIP3   OH229212   2.784   3.265   2.048
 9756TIP3    H129213   2.859   3.214   2.018
 9756TIP3    H229214   2.731   3.279   1.969
 9757TIP3   OH229215   3.879   6.918   4.721
 9757TIP3    H129216   3.910   6.831   4.696
 9757TIP3    H229217   3.799   6.901   4.772
 9758TIP3   OH229218   7.217   3.715   1.074
 9758TIP3    H129219   7.246   3.758   1.154
 9758TIP3    H229220   7.271   3.753   1.005
 9759TIP3   OH229221   6.238   0.289   3.138
 9759TIP3    H129222   6.160   0.343   3.146
 9759TIP3    H229223   6.207   0.200   3.154
 9760TIP3   OH229224   1.701   6.178   3.513
 9760TIP3    H129225   1.697   6.147   3.423
 9760TIP3    H229226   1.773   6.241   3.514
 9761TIP3   OH229227   2.224   0.527   2.939
 9761TIP3    H129228   2.317   0.522   2.959
 9761TIP3    H229229   2.195   0.608   2.980
 9762TIP3   OH229230   3.786   0.273   2.396
 9762TIP3    H129231   3.694   0.292   2.382
 9762TIP3    H229232   3.831   0.319   2.325
 9763TIP3   OH229233   5.838   0.975   2.319
 9763TIP3    H129234   5.755   1.019   2.341
 9763TIP3    H229235   5.822   0.883   2.339
 9764TIP3   OH229236   5.142   1.937   3.937
 9764TIP3    H129237   5.052   1.968   3.932
 9764TIP3    H229238   5.190   1.998   3.880
 9765TIP3   OH229239   7.415   2.601   3.905
 9765TIP3    H129240   7.447   2.661   3.973
 9765TIP3    H229241   7.411   2.516   3.949
 9766TIP3   OH229242   6.099   4.770   2.309
 9766TIP3    H129243   6.047   4.784   2.230
 9766TIP3    H229244   6.155   4.695   2.288
 9767TIP3   OH229245   6.202   0.267   5.006
 9767TIP3    H129246   6.180   0.328   4.935
 9767TIP3    H229247   6.134   0.281   5.072
 9768TIP3   OH229248   1.329   4.872   3.846
 9768TIP3    H129249   1.257   4.830   3.893
 9768TIP3    H229250   1.402   4.870   3.907
 9769TIP3   OH229251   5.626   3.782   1.578
 9769TIP3    H129252   5.651   3.691   1.560
 9769TIP3    H229253   5.708   3.831   1.569
 9770TIP3   OH229254   4.051   4.401   2.466
 9770TIP3    H129255   4.073   4.492   2.487
 9770TIP3    H229256   4.072   4.353   2.546
 9771TIP3   OH229257   6.009   1.442   4.598
 9771TIP3    H129258   5.957   1.465   4.522
 9771TIP3    H229259   5.982   1.353   4.620
 9772TIP3   OH229260   5.769   6.321   5.341
 9772TIP3    H129261   5.699   6.377   5.375
 9772TIP3    H229262   5.777   6.250   5.405
 9773TIP3   OH229263   6.991   3.369   6.723
 9773TIP3    H129264   6.975   3.276   6.732
 9773TIP3    H229265   7.028   3.379   6.636
 9774TIP3   OH229266   2.370   2.342   2.011
 9774TIP3    H129267   2.466   2.350   2.008
 9774TIP3    H229268   2.338   2.421   1.968
 9775TIP3   OH229269   3.303   0.457   4.724
 9775TIP3    H129270   3.366   0.468   4.652
 9775TIP3    H229271   3.334   0.380   4.771
 9776TIP3   OH229272   2.894   5.347   5.462
 9776TIP3    H129273   2.939   5.263   5.459
 9776TIP3    H229274   2.943   5.399   5.526
 9777TIP3   OH229275   1.088   2.756   4.463
 9777TIP3    H129276   1.180   2.738   4.440
 9777TIP3    H229277   1.037   2.707   4.399
 9778TIP3   OH229278   3.617   3.177   1.960
 9778TIP3    H129279   3.526   3.193   1.938
 9778TIP3    H229280   3.659   3.263   1.957
 9779TIP3   OH229281   0.061   6.525   0.930
 9779TIP3    H129282   0.113   6.604   0.914
 9779TIP3    H229283   0.111   6.476   0.995
 9780TIP3   OH229284   6.429   0.830   0.430
 9780TIP3    H129285   6.466   0.887   0.497
 9780TIP3    H229286   6.503   0.775   0.403
 9781TIP3   OH229287   5.194   4.141   5.280
 9781TIP3    H129288   5.283   4.170   5.303
 9781TIP3    H229289   5.161   4.209   5.222
 9782TIP3   OH229290   4.886   0.595   5.425
 9782TIP3    H129291   4.831   0.533   5.473
 9782TIP3    H229292   4.923   0.544   5.353
 9783TIP3   OH229293   2.260   5.250   4.296
 9783TIP3    H129294   2.300   5.188   4.357
 9783TIP3    H229295   2.192   5.201   4.252
 9784TIP3   OH229296   4.120   1.564   1.038
 9784TIP3    H129297   4.103   1.509   1.115
 9784TIP3    H229298   4.087   1.513   0.965
 9785TIP3   OH229299   1.074   5.146   6.199
 9785TIP3    H129300   1.065   5.224   6.255
 9785TIP3    H229301   1.055   5.073   6.257
 9786TIP3   OH229302   3.431   1.150   6.230
 9786TIP3    H129303   3.479   1.102   6.298
 9786TIP3    H229304   3.443   1.242   6.253
 9787TIP3   OH229305   6.264   1.418   6.460
 9787TIP3    H129306   6.199   1.408   6.390
 9787TIP3    H229307   6.335   1.468   6.420
 9788TIP3   OH229308   6.915   5.674   4.237
 9788TIP3    H129309   6.866   5.687   4.319
 9788TIP3    H229310   6.864   5.721   4.171
 9789TIP3   OH229311   5.143   3.584   3.098
 9789TIP3    H129312   5.157   3.679   3.094
 9789TIP3    H229313   5.190   3.556   3.176
 9790TIP3   OH229314   1.165   2.671   2.417
 9790TIP3    H129315   1.093   2.733   2.430
 9790TIP3    H229316   1.243   2.726   2.406
 9791TIP3   OH229317   6.476   0.543   6.635
 9791TIP3    H129318   6.481   0.526   6.541
 9791TIP3    H229319   6.497   0.459   6.676
 9792TIP3   OH229320   2.388   2.657   6.097
 9792TIP3    H129321   2.442   2.735   6.114
 9792TIP3    H229322   2.301   2.680   6.128
 9793TIP3   OH229323   1.430   3.872   0.148
 9793TIP3    H129324   1.451   3.808   0.217
 9793TIP3    H229325   1.349   3.913   0.177
 9794TIP3   OH229326   5.979   4.128   1.550
 9794TIP3    H129327   6.074   4.139   1.547
 9794TIP3    H229328   5.947   4.179   1.476
 9795TIP3   OH229329   6.138   0.033   3.126
 9795TIP3    H129330   6.122  -0.021   3.204
 9795TIP3    H229331   6.228   0.013   3.101
 9796TIP3   OH229332   5.813   6.356   0.847
 9796TIP3    H129333   5.831   6.412   0.923
 9796TIP3    H229334   5.894   6.307   0.834
 9797TIP3   OH229335   6.374   6.379   4.715
 9797TIP3    H129336   6.413   6.367   4.629
 9797TIP3    H229337   6.448   6.388   4.774
 9798TIP3   OH229338   1.012   2.862   1.514
 9798TIP3    H129339   1.004   2.770   1.539
 9798TIP3    H229340   0.933   2.879   1.462
 9799TIP3   OH229341   1.229   7.542   2.621
 9799TIP3    H129342   1.268   7.517   2.705
 9799TIP3    H229343   1.197   7.459   2.584
 9800TIP3   OH229344   3.147   6.131   2.460
 9800TIP3    H129345   3.091   6.087   2.524
 9800TIP3    H229346   3.134   6.224   2.478
 9801TIP3   OH229347   4.887   3.827   1.357
 9801TIP3    H129348   4.948   3.890   1.320
 9801TIP3    H229349   4.853   3.870   1.436
 9802TIP3   OH229350   6.502   2.536   0.443
 9802TIP3    H129351   6.441   2.548   0.370
 9802TIP3    H229352   6.468   2.593   0.512
 9803TIP3   OH229353   4.652   5.965   6.207
 9803TIP3    H129354   4.557   5.961   6.204
 9803TIP3    H229355   4.673   6.057   6.187
 9804TIP3   OH229356   4.145   3.352   1.431
 9804TIP3    H129357   4.069   3.382   1.481
 9804TIP3    H229358   4.219   3.366   1.490
 9805TIP3   OH229359   4.596   4.296   4.556
 9805TIP3    H129360   4.641   4.328   4.634
 9805TIP3    H229361   4.568   4.207   4.578
 9806TIP3   OH229362   5.938   2.216   5.263
 9806TIP3    H129363   5.900   2.194   5.349
 9806TIP3    H229364   5.885   2.167   5.201
 9807TIP3   OH229365   4.804   5.256   3.673
 9807TIP3    H129366   4.769   5.222   3.590
 9807TIP3    H229367   4.899   5.247   3.663
 9808TIP3   OH229368   4.548   1.865   3.207
 9808TIP3    H129369   4.584   1.798   3.149
 9808TIP3    H229370   4.569   1.834   3.295
 9809TIP3   OH229371   8.182   6.095   1.472
 9809TIP3    H129372   8.207   6.083   1.564
 9809TIP3    H229373   8.197   6.188   1.456
 9810TIP3   OH229374   1.908   1.806   5.241
 9810TIP3    H129375   1.867   1.893   5.233
 9810TIP3    H229376   1.861   1.764   5.312
 9811TIP3   OH229377   1.246   1.961   6.474
 9811TIP3    H129378   1.268   1.868   6.484
 9811TIP3    H229379   1.310   2.007   6.528
 9812TIP3   OH229380   6.897   2.158   1.100
 9812TIP3    H129381   6.862   2.246   1.086
 9812TIP3    H229382   6.984   2.160   1.061
 9813TIP3   OH229383   7.018   5.284   0.268
 9813TIP3    H129384   6.964   5.343   0.215
 9813TIP3    H229385   7.039   5.336   0.346
 9814TIP3   OH229386   2.232   2.600   5.130
 9814TIP3    H129387   2.304   2.574   5.072
 9814TIP3    H229388   2.204   2.684   5.096
 9815TIP3   OH229389   6.901   5.666   6.243
 9815TIP3    H129390   6.883   5.664   6.149
 9815TIP3    H229391   6.981   5.717   6.251
 9816TIP3   OH229392   3.667   1.627   6.707
 9816TIP3    H129393   3.640   1.579   6.786
 9816TIP3    H229394   3.590   1.625   6.650
 9817TIP3   OH229395   6.035   6.082   4.971
 9817TIP3    H129396   5.973   6.150   4.945
 9817TIP3    H229397   6.121   6.118   4.946
 9818TIP3   OH229398   5.218   5.082   2.518
 9818TIP3    H129399   5.291   5.122   2.471
 9818TIP3    H229400   5.149   5.072   2.452
 9819TIP3   OH229401   0.468   4.916   1.626
 9819TIP3    H129402   0.399   4.959   1.576
 9819TIP3    H229403   0.425   4.886   1.706
 9820TIP3   OH229404   2.891   2.786   3.845
 9820TIP3    H129405   2.929   2.703   3.814
 9820TIP3    H229406   2.854   2.765   3.931
 9821TIP3   OH229407   2.449   4.283   4.114
 9821TIP3    H129408   2.539   4.303   4.088
 9821TIP3    H229409   2.396   4.352   4.074
 9822TIP3   OH229410   1.264   2.617   6.021
 9822TIP3    H129411   1.331   2.609   6.089
 9822TIP3    H229412   1.215   2.535   6.025
 9823TIP3   OH229413   8.107   7.352   5.261
 9823TIP3    H129414   8.144   7.439   5.246
 9823TIP3    H229415   8.109   7.341   5.356
 9824TIP3   OH229416   6.808   1.564   5.439
 9824TIP3    H129417   6.765   1.634   5.389
 9824TIP3    H229418   6.768   1.568   5.526
 9825TIP3   OH229419   5.233   6.952   2.212
 9825TIP3    H129420   5.163   6.924   2.270
 9825TIP3    H229421   5.272   6.871   2.180
 9826TIP3   OH229422   5.632   5.616   6.245
 9826TIP3    H129423   5.643   5.677   6.318
 9826TIP3    H229424   5.644   5.530   6.284
 9827TIP3   OH229425   2.695   4.199   6.260
 9827TIP3    H129426   2.654   4.243   6.185
 9827TIP3    H229427   2.753   4.264   6.298
 9828TIP3   OH229428   2.262   6.065   0.035
 9828TIP3    H129429   2.246   5.971   0.021
 9828TIP3    H229430   2.339   6.067   0.091
 9829TIP3   OH229431   0.140   7.597   1.389
 9829TIP3    H129432   0.145   7.546   1.308
 9829TIP3    H229433   0.181   7.681   1.366
 9830TIP3   OH229434   0.561   3.076   2.114
 9830TIP3    H129435   0.543   3.020   2.190
 9830TIP3    H229436   0.645   3.046   2.081
 9831TIP3   OH229437   6.491   6.508   0.682
 9831TIP3    H129438   6.448   6.444   0.625
 9831TIP3    H229439   6.557   6.548   0.626
 9832TIP3   OH229440   4.653   6.936   1.379
 9832TIP3    H129441   4.657   6.841   1.388
 9832TIP3    H229442   4.565   6.953   1.346
 9833TIP3   OH229443   4.164   0.290   0.831
 9833TIP3    H129444   4.181   0.266   0.740
 9833TIP3    H229445   4.251   0.310   0.867
 9834TIP3   OH229446   7.633   0.820   2.021
 9834TIP3    H129447   7.639   0.889   2.088
 9834TIP3    H229448   7.565   0.761   2.054
 9835TIP3   OH229449   4.426   1.161   2.082
 9835TIP3    H129450   4.383   1.157   2.167
 9835TIP3    H229451   4.482   1.083   2.080
 9836TIP3   OH229452   8.202   7.094   1.297
 9836TIP3    H129453   8.121   7.083   1.346
 9836TIP3    H229454   8.265   7.035   1.339
 9837TIP3   OH229455   5.815   1.323   6.750
 9837TIP3    H129456   5.849   1.238   6.721
 9837TIP3    H229457   5.728   1.303   6.784
 9838TIP3   OH229458   3.539   2.313   6.319
 9838TIP3    H129459   3.533   2.217   6.322
 9838TIP3    H229460   3.449   2.343   6.321
 9839TIP3   OH229461   7.350   4.992   1.314
 9839TIP3    H129462   7.296   5.069   1.296
 9839TIP3    H229463   7.342   4.977   1.408
 9840TIP3   OH229464   7.792   5.298   0.069
 9840TIP3    H129465   7.746   5.344   0.139
 9840TIP3    H229466   7.855   5.362   0.035
 9841TIP3   OH229467   3.114   4.098   1.719
 9841TIP3    H129468   3.019   4.087   1.709
 9841TIP3    H229469   3.142   4.140   1.638
 9842TIP3   OH229470   3.265   2.694   6.495
 9842TIP3    H129471   3.341   2.651   6.455
 9842TIP3    H229472   3.250   2.771   6.441
 9843TIP3   OH229473   5.557   1.712   6.705
 9843TIP3    H129474   5.643   1.754   6.700
 9843TIP3    H229475   5.498   1.771   6.659
 9844TIP3   OH229476   0.945   2.786  -0.030
 9844TIP3    H129477   0.983   2.835   0.043
 9844TIP3    H229478   0.903   2.710   0.011
 9845TIP3   OH229479   4.819   6.706   4.965
 9845TIP3    H129480   4.803   6.617   4.995
 9845TIP3    H229481   4.732   6.744   4.955
 9846TIP3   OH229482   2.566   1.804   3.847
 9846TIP3    H129483   2.575   1.860   3.770
 9846TIP3    H229484   2.653   1.766   3.860
 9847TIP3   OH229485   3.280   4.231   5.973
 9847TIP3    H129486   3.366   4.194   5.951
 9847TIP3    H229487   3.221   4.198   5.906
 9848TIP3   OH229488   6.477   2.064   4.977
 9848TIP3    H129489   6.464   2.131   5.044
 9848TIP3    H229490   6.549   2.097   4.924
 9849TIP3   OH229491   5.720   7.476   6.151
 9849TIP3    H129492   5.661   7.401   6.142
 9849TIP3    H229493   5.740   7.502   6.061
 9850TIP3   OH229494   2.813   2.148   0.462
 9850TIP3    H129495   2.853   2.231   0.437
 9850TIP3    H229496   2.883   2.083   0.453
 9851TIP3   OH229497   6.709   4.671   5.683
 9851TIP3    H129498   6.642   4.603   5.684
 9851TIP3    H229499   6.692   4.724   5.760
 9852TIP3   OH229500   2.590   0.226   6.612
 9852TIP3    H129501   2.645   0.289   6.566
 9852TIP3    H229502   2.534   0.280   6.668
 9853TIP3   OH229503   3.121   3.909   0.678
 9853TIP3    H129504   3.141   3.879   0.767
 9853TIP3    H229505   3.040   3.959   0.687
 9854TIP3   OH229506   1.048   3.450   4.841
 9854TIP3    H129507   1.063   3.383   4.774
 9854TIP3    H229508   0.956   3.440   4.864
 9855TIP3   OH229509   5.273   2.662   2.464
 9855TIP3    H129510   5.328   2.739   2.481
 9855TIP3    H229511   5.193   2.699   2.426
 9856TIP3   OH229512   2.922   3.543   6.567
 9856TIP3    H129513   2.896   3.629   6.601
 9856TIP3    H229514   2.882   3.539   6.480
 9857TIP3   OH229515   0.956   6.260   6.109
 9857TIP3    H129516   1.012   6.296   6.178
 9857TIP3    H229517   1.013   6.203   6.058
 9858TIP3   OH229518   3.331   1.909   0.800
 9858TIP3    H129519   3.236   1.915   0.796
 9858TIP3    H229520   3.362   1.947   0.718
 9859TIP3   OH229521   1.865   4.313   0.207
 9859TIP3    H129522   1.914   4.234   0.184
 9859TIP3    H229523   1.773   4.289   0.191
 9860TIP3   OH229524   3.616   3.965   3.477
 9860TIP3    H129525   3.692   3.930   3.430
 9860TIP3    H229526   3.544   3.958   3.414
 9861TIP3   OH229527   2.652   5.525   0.259
 9861TIP3    H129528   2.615   5.438   0.270
 9861TIP3    H229529   2.647   5.541   0.164
 9862TIP3   OH229530   4.728   0.623   3.743
 9862TIP3    H129531   4.674   0.583   3.811
 9862TIP3    H229532   4.672   0.690   3.704
 9863TIP3   OH229533   3.669   3.313   0.834
 9863TIP3    H129534   3.589   3.304   0.783
 9863TIP3    H229535   3.666   3.240   0.896
 9864TIP3   OH229536   5.132   3.249   1.393
 9864TIP3    H129537   5.207   3.200   1.359
 9864TIP3    H229538   5.126   3.326   1.336
 9865TIP3   OH229539   3.186   6.004   6.314
 9865TIP3    H129540   3.146   5.918   6.325
 9865TIP3    H229541   3.184   6.043   6.402
 9866TIP3   OH229542   6.195   3.794   1.053
 9866TIP3    H129543   6.195   3.706   1.015
 9866TIP3    H229544   6.155   3.849   0.986
 9867TIP3   OH229545   3.966   4.292   2.080
 9867TIP3    H129546   3.903   4.356   2.110
 9867TIP3    H229547   3.913   4.220   2.045
 9868TIP3   OH229548   2.302   0.066   2.333
 9868TIP3    H129549   2.353   0.082   2.253
 9868TIP3    H229550   2.364   0.083   2.404
 9869TIP3   OH229551   1.286   1.820   3.050
 9869TIP3    H129552   1.220   1.758   3.019
 9869TIP3    H229553   1.236   1.890   3.092
 9870TIP3   OH229554   0.963   7.255   2.765
 9870TIP3    H129555   1.030   7.276   2.700
 9870TIP3    H229556   0.933   7.167   2.741
 9871TIP3   OH229557   3.154   2.503   4.334
 9871TIP3    H129558   3.228   2.444   4.316
 9871TIP3    H229559   3.192   2.575   4.384
 9872TIP3   OH229560   7.876   1.313   0.846
 9872TIP3    H129561   7.787   1.349   0.845
 9872TIP3    H229562   7.922   1.360   0.777
 9873TIP3   OH229563   2.647   1.125   2.897
 9873TIP3    H129564   2.627   1.041   2.855
 9873TIP3    H229565   2.564   1.153   2.934
 9874TIP3   OH229566   4.074   2.472   3.348
 9874TIP3    H129567   4.149   2.504   3.298
 9874TIP3    H229568   4.047   2.392   3.302
 9875TIP3   OH229569   4.845   3.912   3.155
 9875TIP3    H129570   4.919   3.944   3.104
 9875TIP3    H229571   4.860   3.948   3.243
 9876TIP3   OH229572   1.159   4.174   0.663
 9876TIP3    H129573   1.087   4.150   0.605
 9876TIP3    H229574   1.126   4.249   0.713
 9877TIP3   OH229575   8.174   2.712   2.479
 9877TIP3    H129576   8.087   2.697   2.441
 9877TIP3    H229577   8.185   2.807   2.478
 9878TIP3   OH229578   1.987   7.494   0.354
 9878TIP3    H129579   1.943   7.457   0.431
 9878TIP3    H229580   2.069   7.444   0.347
 9879TIP3   OH229581   0.360   1.586   5.266
 9879TIP3    H129582   0.422   1.580   5.194
 9879TIP3    H229583   0.355   1.497   5.301
 9880TIP3   OH229584   2.855   3.091   5.046
 9880TIP3    H129585   2.847   3.047   5.131
 9880TIP3    H229586   2.945   3.123   5.044
 9881TIP3   OH229587   7.013   5.377   5.779
 9881TIP3    H129588   6.946   5.383   5.711
 9881TIP3    H229589   6.988   5.299   5.830
 9882TIP3   OH229590   7.032   4.181   3.313
 9882TIP3    H129591   7.002   4.121   3.381
 9882TIP3    H229592   7.048   4.264   3.358
 9883TIP3   OH229593   0.495   4.986   2.844
 9883TIP3    H129594   0.496   4.924   2.917
 9883TIP3    H229595   0.588   5.003   2.827
 9884TIP3   OH229596   8.269   1.696   2.323
 9884TIP3    H129597   8.323   1.653   2.390
 9884TIP3    H229598   8.188   1.645   2.321
 9885TIP3   OH229599   2.050   1.311   0.992
 9885TIP3    H129600   2.022   1.333   0.903
 9885TIP3    H229601   2.145   1.300   0.986
 9886TIP3   OH229602   3.816   3.801   2.047
 9886TIP3    H129603   3.726   3.768   2.044
 9886TIP3    H229604   3.837   3.806   2.141
 9887TIP3   OH229605   7.934   1.719   5.086
 9887TIP3    H129606   8.007   1.755   5.137
 9887TIP3    H229607   7.975   1.673   5.013
 9888TIP3   OH229608   0.801   0.900   4.303
 9888TIP3    H129609   0.742   0.841   4.350
 9888TIP3    H229610   0.809   0.976   4.360
 9889TIP3   OH229611   8.014   6.353   5.373
 9889TIP3    H129612   7.977   6.280   5.423
 9889TIP3    H229613   8.062   6.312   5.301
 9890TIP3   OH229614   2.108   7.511   1.323
 9890TIP3    H129615   2.186   7.544   1.279
 9890TIP3    H229616   2.069   7.589   1.363
 9891TIP3   OH229617   0.406   4.245   0.314
 9891TIP3    H129618   0.486   4.240   0.261
 9891TIP3    H229619   0.335   4.226   0.252
 9892TIP3   OH229620   5.791   3.312   2.654
 9892TIP3    H129621   5.756   3.393   2.691
 9892TIP3    H229622   5.720   3.278   2.601
 9893TIP3   OH229623   5.198   5.179   0.647
 9893TIP3    H129624   5.107   5.198   0.669
 9893TIP3    H229625   5.236   5.263   0.624
 9894TIP3   OH229626   2.859   1.169   6.440
 9894TIP3    H129627   2.939   1.221   6.439
 9894TIP3    H229628   2.799   1.219   6.497
 9895TIP3   OH229629   3.140   1.311   1.837
 9895TIP3    H129630   3.182   1.308   1.923
 9895TIP3    H229631   3.159   1.225   1.798
 9896TIP3   OH229632   3.153   7.057   4.040
 9896TIP3    H129633   3.131   6.976   4.084
 9896TIP3    H229634   3.249   7.061   4.043
 9897TIP3   OH229635   0.275   1.081   4.619
 9897TIP3    H129636   0.222   1.112   4.693
 9897TIP3    H229637   0.364   1.074   4.654
 9898TIP3   OH229638   8.023   3.507   5.643
 9898TIP3    H129639   8.074   3.572   5.692
 9898TIP3    H229640   7.970   3.558   5.583
 9899TIP3   OH229641   0.313   6.243   6.721
 9899TIP3    H129642   0.308   6.302   6.646
 9899TIP3    H229643   0.232   6.191   6.715
 9900TIP3   OH229644   2.194   2.639   5.863
 9900TIP3    H129645   2.249   2.561   5.858
 9900TIP3    H229646   2.133   2.621   5.934
 9901TIP3   OH229647   7.498   7.419   3.000
 9901TIP3    H129648   7.429   7.484   3.002
 9901TIP3    H229649   7.534   7.424   2.912
 9902TIP3   OH229650   6.499   7.228   3.695
 9902TIP3    H129651   6.460   7.154   3.741
 9902TIP3    H229652   6.558   7.188   3.631
 9903TIP3   OH229653   4.828   7.401   5.524
 9903TIP3    H129654   4.761   7.457   5.565
 9903TIP3    H229655   4.882   7.372   5.597
 9904TIP3   OH229656   5.190   3.655   4.434
 9904TIP3    H129657   5.181   3.716   4.361
 9904TIP3    H229658   5.249   3.587   4.401
 9905TIP3   OH229659   7.059   5.252   4.066
 9905TIP3    H129660   7.026   5.269   4.154
 9905TIP3    H229661   7.078   5.339   4.031
 9906TIP3   OH229662   7.629   6.782   1.594
 9906TIP3    H129663   7.627   6.810   1.685
 9906TIP3    H229664   7.722   6.782   1.570
 9907TIP3   OH229665   0.157   5.096   2.591
 9907TIP3    H129666   0.076   5.070   2.635
 9907TIP3    H229667   0.132   5.103   2.499
 9908TIP3   OH229668   4.132   7.361   5.687
 9908TIP3    H129669   4.203   7.359   5.623
 9908TIP3    H229670   4.053   7.345   5.635
 9909TIP3   OH229671   4.218   6.065   6.663
 9909TIP3    H129672   4.132   6.022   6.661
 9909TIP3    H229673   4.274   6.008   6.610
 9910TIP3   OH229674   2.167   5.209   4.628
 9910TIP3    H129675   2.147   5.288   4.578
 9910TIP3    H229676   2.225   5.238   4.698
 9911TIP3   OH229677   8.218   3.247   6.310
 9911TIP3    H129678   8.235   3.191   6.386
 9911TIP3    H229679   8.250   3.333   6.336
 9912TIP3   OH229680   5.168   6.026   5.715
 9912TIP3    H129681   5.216   5.980   5.783
 9912TIP3    H229682   5.194   6.118   5.725
 9913TIP3   OH229683   1.294   0.582   2.519
 9913TIP3    H129684   1.302   0.603   2.426
 9913TIP3    H229685   1.300   0.667   2.563
 9914TIP3   OH229686   6.039   2.845   3.193
 9914TIP3    H129687   6.042   2.749   3.192
 9914TIP3    H229688   6.122   2.872   3.230
 9915TIP3   OH229689   8.198   5.107   5.699
 9915TIP3    H129690   8.147   5.063   5.632
 9915TIP3    H229691   8.272   5.048   5.715
 9916TIP3   OH229692   4.338   2.322   4.122
 9916TIP3    H129693   4.391   2.399   4.143
 9916TIP3    H229694   4.325   2.327   4.027
 9917TIP3   OH229695   4.827   3.339   3.711
 9917TIP3    H129696   4.831   3.350   3.806
 9917TIP3    H229697   4.869   3.417   3.676
 9918TIP3   OH229698   8.102   4.023   1.508
 9918TIP3    H129699   8.173   4.070   1.465
 9918TIP3    H229700   8.095   3.940   1.462
 9919TIP3   OH229701   1.974   1.386   6.496
 9919TIP3    H129702   2.024   1.380   6.577
 9919TIP3    H229703   2.017   1.325   6.436
 9920TIP3   OH229704   6.431   7.255   4.872
 9920TIP3    H129705   6.371   7.228   4.942
 9920TIP3    H229706   6.374   7.297   4.807
 9921TIP3   OH229707   1.997   1.038   6.078
 9921TIP3    H129708   2.049   1.058   6.000
 9921TIP3    H229709   1.967   0.948   6.064
 9922TIP3   OH229710   7.125   4.714   1.770
 9922TIP3    H129711   7.145   4.623   1.746
 9922TIP3    H229712   7.210   4.758   1.768
 9923TIP3   OH229713   0.401   5.246   2.802
 9923TIP3    H129714   0.412   5.151   2.802
 9923TIP3    H229715   0.367   5.266   2.889
 9924TIP3   OH229716   7.480   5.713   1.651
 9924TIP3    H129717   7.417   5.778   1.681
 9924TIP3    H229718   7.512   5.747   1.567
 9925TIP3   OH229719   1.660   3.267   5.059
 9925TIP3    H129720   1.750   3.255   5.092
 9925TIP3    H229721   1.672   3.288   4.966
 9926TIP3   OH229722   3.320   0.820   4.987
 9926TIP3    H129723   3.397   0.851   4.941
 9926TIP3    H229724   3.263   0.784   4.919
 9927TIP3   OH229725   4.564   6.718   1.986
 9927TIP3    H129726   4.507   6.662   2.039
 9927TIP3    H229727   4.631   6.749   2.047
 9928TIP3   OH229728   3.099   7.374   3.650
 9928TIP3    H129729   3.037   7.329   3.707
 9928TIP3    H229730   3.137   7.305   3.596
 9929TIP3   OH229731   5.309   1.791   4.750
 9929TIP3    H129732   5.265   1.737   4.685
 9929TIP3    H229733   5.238   1.820   4.808
 9930TIP3   OH229734   7.500   4.733   2.517
 9930TIP3    H129735   7.448   4.744   2.438
 9930TIP3    H229736   7.459   4.792   2.581
 9931TIP3   OH229737   7.536   6.380   5.159
 9931TIP3    H129738   7.598   6.395   5.087
 9931TIP3    H229739   7.506   6.467   5.185
 9932TIP3   OH229740   0.944   1.482   5.590
 9932TIP3    H129741   0.946   1.397   5.633
 9932TIP3    H229742   1.036   1.510   5.587
 9933TIP3   OH229743   8.225   3.182   2.078
 9933TIP3    H129744   8.248   3.160   2.169
 9933TIP3    H229745   8.246   3.275   2.070
 9934TIP3   OH229746   4.756   4.619   0.214
 9934TIP3    H129747   4.709   4.699   0.239
 9934TIP3    H229748   4.838   4.623   0.264
 9935TIP3   OH229749   3.121   5.332   0.008
 9935TIP3    H129750   3.177   5.287  -0.055
 9935TIP3    H229751   3.181   5.363   0.077
 9936TIP3   OH229752   0.246   6.336   5.108
 9936TIP3    H129753   0.252   6.412   5.050
 9936TIP3    H229754   0.333   6.297   5.107
 9937TIP3   OH229755   1.526   6.297   4.272
 9937TIP3    H129756   1.525   6.329   4.182
 9937TIP3    H229757   1.443   6.326   4.309
 9938TIP3   OH229758   3.851   2.836   4.298
 9938TIP3    H129759   3.772   2.838   4.244
 9938TIP3    H229760   3.820   2.812   4.385
 9939TIP3   OH229761   7.602   4.445   2.982
 9939TIP3    H129762   7.595   4.413   3.072
 9939TIP3    H229763   7.518   4.488   2.965
 9940TIP3   OH229764   5.065   1.452   4.817
 9940TIP3    H129765   5.066   1.524   4.753
 9940TIP3    H229766   4.994   1.396   4.788
 9941TIP3   OH229767   6.223   4.956   0.509
 9941TIP3    H129768   6.212   4.945   0.415
 9941TIP3    H229769   6.137   4.985   0.540
 9942TIP3   OH229770   5.993   6.221   1.917
 9942TIP3    H129771   6.037   6.260   1.993
 9942TIP3    H229772   5.919   6.279   1.900
 9943TIP3   OH229773   2.241   0.893   2.847
 9943TIP3    H129774   2.226   0.810   2.802
 9943TIP3    H229775   2.175   0.894   2.916
 9944TIP3   OH229776   2.532   1.780   4.941
 9944TIP3    H129777   2.568   1.704   4.986
 9944TIP3    H229778   2.487   1.743   4.865
 9945TIP3   OH229779   0.326   0.419   4.215
 9945TIP3    H129780   0.357   0.500   4.174
 9945TIP3    H229781   0.401   0.387   4.264
 9946TIP3   OH229782   6.665   1.672   4.046
 9946TIP3    H129783   6.578   1.698   4.077
 9946TIP3    H229784   6.648   1.629   3.962
 9947TIP3   OH229785   6.607   1.233   1.953
 9947TIP3    H129786   6.684   1.205   2.002
 9947TIP3    H229787   6.643   1.283   1.880
 9948TIP3   OH229788   8.189   1.820   0.045
 9948TIP3    H129789   8.137   1.797  -0.032
 9948TIP3    H229790   8.259   1.876   0.011
 9949TIP3   OH229791   2.923   4.684   3.759
 9949TIP3    H129792   3.002   4.706   3.808
 9949TIP3    H229793   2.888   4.607   3.804
 9950TIP3   OH229794   5.323   2.980   2.679
 9950TIP3    H129795   5.373   2.957   2.757
 9950TIP3    H229796   5.387   2.979   2.608
 9951TIP3   OH229797   7.483   3.922   4.705
 9951TIP3    H129798   7.528   3.838   4.712
 9951TIP3    H229799   7.523   3.976   4.773
 9952TIP3   OH229800   3.992   3.139   4.109
 9952TIP3    H129801   3.995   3.234   4.095
 9952TIP3    H229802   3.945   3.129   4.192
 9953TIP3   OH229803   7.194   1.423   6.513
 9953TIP3    H129804   7.116   1.458   6.470
 9953TIP3    H229805   7.228   1.357   6.452
 9954TIP3   OH229806   0.842   0.456   1.236
 9954TIP3    H129807   0.807   0.370   1.214
 9954TIP3    H229808   0.931   0.439   1.265
 9955TIP3   OH229809   6.386   4.635   1.003
 9955TIP3    H129810   6.458   4.579   1.031
 9955TIP3    H229811   6.423   4.691   0.935
 9956TIP3   OH229812   0.467   2.003   4.068
 9956TIP3    H129813   0.489   2.080   4.121
 9956TIP3    H229814   0.476   1.929   4.128
 9957TIP3   OH229815   1.092   0.175   6.642
 9957TIP3    H129816   1.126   0.224   6.717
 9957TIP3    H229817   1.155   0.190   6.572
 9958TIP3   OH229818   5.777   2.581   6.437
 9958TIP3    H129819   5.824   2.519   6.492
 9958TIP3    H229820   5.784   2.545   6.348
 9959TIP3   OH229821   7.874   0.694   2.592
 9959TIP3    H129822   7.925   0.687   2.673
 9959TIP3    H229823   7.935   0.728   2.527
 9960TIP3   OH229824   5.643   5.655   4.829
 9960TIP3    H129825   5.617   5.649   4.921
 9960TIP3    H229826   5.709   5.724   4.828
 9961TIP3   OH229827   7.685   2.004   6.456
 9961TIP3    H129828   7.671   2.089   6.497
 9961TIP3    H229829   7.713   1.947   6.527
 9962TIP3   OH229830   6.673   0.940   1.120
 9962TIP3    H129831   6.637   1.028   1.112
 9962TIP3    H229832   6.702   0.935   1.211
 9963TIP3   OH229833   3.092   4.224   5.764
 9963TIP3    H129834   3.135   4.240   5.680
 9963TIP3    H229835   3.078   4.130   5.767
 9964TIP3   OH229836   5.304   0.095   0.951
 9964TIP3    H129837   5.327   0.014   0.905
 9964TIP3    H229838   5.389   0.134   0.974
 9965TIP3   OH229839   5.392   1.112   6.577
 9965TIP3    H129840   5.392   1.166   6.498
 9965TIP3    H229841   5.364   1.171   6.647
 9966TIP3   OH229842   4.546   5.731   1.589
 9966TIP3    H129843   4.545   5.636   1.581
 9966TIP3    H229844   4.569   5.747   1.681
 9967TIP3   OH229845   7.365   3.145   4.437
 9967TIP3    H129846   7.309   3.100   4.501
 9967TIP3    H229847   7.355   3.094   4.357
 9968TIP3   OH229848   6.615   7.799   1.955
 9968TIP3    H129849   6.617   7.837   2.043
 9968TIP3    H229850   6.707   7.783   1.934
 9969TIP3   OH229851   5.501   7.746   4.026
 9969TIP3    H129852   5.457   7.793   3.955
 9969TIP3    H229853   5.473   7.792   4.106
 9970TIP3   OH229854   2.133   0.546   5.550
 9970TIP3    H129855   2.188   0.622   5.566
 9970TIP3    H229856   2.054   0.582   5.510
 9971TIP3   OH229857   1.541   1.881   3.197
 9971TIP3    H129858   1.593   1.809   3.233
 9971TIP3    H229859   1.466   1.838   3.156
 9972TIP3   OH229860   0.723   2.991   1.641
 9972TIP3    H129861   0.717   3.084   1.620
 9972TIP3    H229862   0.790   2.986   1.709
 9973TIP3   OH229863   6.019   6.589   2.921
 9973TIP3    H129864   5.930   6.581   2.955
 9973TIP3    H229865   6.075   6.569   2.997
 9974TIP3   OH229866   7.831   2.496   5.185
 9974TIP3    H129867   7.792   2.433   5.245
 9974TIP3    H229868   7.913   2.521   5.227
 9975TIP3   OH229869   1.927   0.692   5.801
 9975TIP3    H129870   1.953   0.633   5.731
 9975TIP3    H229871   1.832   0.680   5.808
 9976TIP3   OH229872   6.641   3.834   4.254
 9976TIP3    H129873   6.600   3.901   4.199
 9976TIP3    H229874   6.601   3.846   4.340
 9977TIP3   OH229875   2.736   4.933   3.306
 9977TIP3    H129876   2.641   4.938   3.308
 9977TIP3    H229877   2.760   4.889   3.388
 9978TIP3   OH229878   2.006   7.767   6.326
 9978TIP3    H129879   1.921   7.811   6.327
 9978TIP3    H229880   1.986   7.677   6.300
 9979TIP3   OH229881   0.590   6.013   1.924
 9979TIP3    H129882   0.641   6.011   1.843
 9979TIP3    H229883   0.500   6.029   1.896
 9980TIP3   OH229884   1.549   7.240   3.691
 9980TIP3    H129885   1.468   7.287   3.673
 9980TIP3    H229886   1.598   7.299   3.748
 9981TIP3   OH229887   1.618   0.560   5.079
 9981TIP3    H129888   1.602   0.512   4.998
 9981TIP3    H229889   1.652   0.644   5.051
 9982TIP3   OH229890   4.581   1.945   2.491
 9982TIP3    H129891   4.601   1.976   2.579
 9982TIP3    H229892   4.487   1.925   2.493
 9983TIP3   OH229893   0.737   2.771   2.562
 9983TIP3    H129894   0.762   2.684   2.593
 9983TIP3    H229895   0.807   2.798   2.503
 9984TIP3   OH229896   1.173   7.610   2.250
 9984TIP3    H129897   1.179   7.516   2.232
 9984TIP3    H229898   1.262   7.636   2.273
 9985TIP3   OH229899   0.308   6.771   0.064
 9985TIP3    H129900   0.387   6.741   0.018
 9985TIP3    H229901   0.248   6.696   0.060
 9986TIP3   OH229902   4.176   3.672   5.664
 9986TIP3    H129903   4.187   3.710   5.751
 9986TIP3    H229904   4.265   3.653   5.634
 9987TIP3   OH229905   5.055   3.266   0.675
 9987TIP3    H129906   5.102   3.329   0.620
 9987TIP3    H229907   5.033   3.315   0.754
 9988TIP3   OH229908   0.406   0.532   6.100
 9988TIP3    H129909   0.321   0.569   6.126
 9988TIP3    H229910   0.414   0.451   6.151
 9989TIP3   OH229911   5.922   2.111   1.941
 9989TIP3    H129912   5.907   2.075   1.854
 9989TIP3    H229913   5.863   2.187   1.945
 9990TIP3   OH229914   2.438   6.836   6.340
 9990TIP3    H129915   2.480   6.792   6.265
 9990TIP3    H229916   2.431   6.767   6.406
 9991TIP3   OH229917   2.897   0.747   0.759
 9991TIP3    H129918   2.987   0.776   0.746
 9991TIP3    H229919   2.904   0.653   0.774
 9992TIP3   OH229920   4.689   6.779   4.493
 9992TIP3    H129921   4.594   6.776   4.485
 9992TIP3    H229922   4.706   6.850   4.555
 9993TIP3   OH229923   7.261   3.450   3.733
 9993TIP3    H129924   7.188   3.512   3.737
 9993TIP3    H229925   7.312   3.468   3.812
 9994TIP3   OH229926   3.665   3.028   3.445
 9994TIP3    H129927   3.601   3.093   3.475
 9994TIP3    H229928   3.704   2.994   3.526
 9995TIP3   OH229929   8.250   0.802   1.256
 9995TIP3    H129930   8.292   0.726   1.217
 9995TIP3    H229931   8.191   0.765   1.322
 9996TIP3   OH229932   2.189   3.391   6.090
 9996TIP3    H129933   2.145   3.334   6.153
 9996TIP3    H229934   2.130   3.467   6.083
 9997TIP3   OH229935   5.244   3.710   2.770
 9997TIP3    H129936   5.277   3.800   2.763
 9997TIP3    H229937   5.290   3.663   2.700
 9998TIP3   OH229938   6.337   1.038   3.149
 9998TIP3    H129939   6.389   1.117   3.135
 9998TIP3    H229940   6.324   1.001   3.062
 9999TIP3   OH229941   5.196   5.650   6.473
 9999TIP3    H129942   5.211   5.597   6.395
 9999TIP3    H229943   5.225   5.595   6.545
10000TIP3   OH229944   7.133   6.400   6.680
10000TIP3    H129945   7.169   6.488   6.695
10000TIP3    H229946   7.070   6.412   6.610
10001TIP3   OH229947   2.519   0.864   2.844
10001TIP3    H129948   2.513   0.792   2.907
10001TIP3    H229949   2.429   0.892   2.831
10002TIP3   OH229950   5.326   5.603   0.187
10002TIP3    H129951   5.356   5.670   0.125
10002TIP3    H229952   5.232   5.616   0.192
10003TIP3   OH229953   3.564   2.210   4.075
10003TIP3    H129954   3.649   2.182   4.039
10003TIP3    H229955   3.523   2.261   4.006
10004TIP3   OH229956   5.788   5.793   3.629
10004TIP3    H129957   5.873   5.750   3.637
10004TIP3    H229958   5.778   5.842   3.710
10005TIP3   OH229959   6.510   1.872   1.415
10005TIP3    H129960   6.601   1.842   1.420
10005TIP3    H229961   6.513   1.964   1.440
10006TIP3   OH229962   1.483   4.192   5.535
10006TIP3    H129963   1.455   4.126   5.472
10006TIP3    H229964   1.560   4.233   5.495
10007TIP3   OH229965   3.209   0.724   0.302
10007TIP3    H129966   3.179   0.780   0.373
10007TIP3    H229967   3.208   0.635   0.338
10008TIP3   OH229968   5.083   6.492   1.755
10008TIP3    H129969   5.154   6.552   1.731
10008TIP3    H229970   5.123   6.433   1.820
10009TIP3   OH229971   6.042   1.787   4.881
10009TIP3    H129972   5.967   1.730   4.899
10009TIP3    H229973   6.042   1.850   4.953
10010TIP3   OH229974   6.501   4.377   0.741
10010TIP3    H129975   6.547   4.356   0.660
10010TIP3    H229976   6.466   4.294   0.772
10011TIP3   OH229977   3.268   6.547   0.844
10011TIP3    H129978   3.225   6.470   0.807
10011TIP3    H229979   3.356   6.516   0.866
10012TIP3   OH229980   3.827   4.750   3.364
10012TIP3    H129981   3.914   4.717   3.342
10012TIP3    H229982   3.777   4.742   3.282
10013TIP3   OH229983   7.042   6.746   3.336
10013TIP3    H129984   7.118   6.690   3.326
10013TIP3    H229985   6.989   6.731   3.258
10014TIP3   OH229986   5.646   0.285   4.772
10014TIP3    H129987   5.591   0.361   4.793
10014TIP3    H229988   5.720   0.293   4.831
10015TIP3   OH229989   0.652   3.483   4.337
10015TIP3    H129990   0.731   3.490   4.391
10015TIP3    H229991   0.679   3.432   4.261
10016TIP3   OH229992   7.290   3.748   2.032
10016TIP3    H129993   7.216   3.691   2.055
10016TIP3    H229994   7.363   3.716   2.086
10017TIP3   OH229995   5.770   4.432   2.777
10017TIP3    H129996   5.732   4.467   2.857
10017TIP3    H229997   5.716   4.356   2.756
10018TIP3   OH229998   6.775   3.603   4.855
10018TIP3    H129999   6.834   3.588   4.781
10018TIP3    H230000   6.755   3.696   4.851
10019TIP3   OH230001   1.644   7.468   3.838
10019TIP3    H130002   1.567   7.491   3.891
10019TIP3    H230003   1.719   7.487   3.895
10020TIP3   OH230004   8.166   2.996   2.425
10020TIP3    H130005   8.220   3.069   2.456
10020TIP3    H230006   8.091   3.038   2.383
10021TIP3   OH230007   6.422   6.014   1.840
10021TIP3    H130008   6.403   5.927   1.875
10021TIP3    H230009   6.516   6.027   1.857
10022TIP3   OH230010   3.659   5.203   1.969
10022TIP3    H130011   3.620   5.282   1.932
10022TIP3    H230012   3.712   5.166   1.898
10023TIP3   OH230013   7.638   6.123   4.175
10023TIP3    H130014   7.685   6.204   4.152
10023TIP3    H230015   7.554   6.154   4.210
10024TIP3   OH230016   1.997   3.031   4.289
10024TIP3    H130017   1.937   3.016   4.362
10024TIP3    H230018   2.020   2.943   4.258
10025TIP3   OH230019   6.028   1.049   2.931
10025TIP3    H130020   6.091   1.114   2.900
10025TIP3    H230021   5.954   1.101   2.961
10026TIP3   OH230022   2.661   4.900   2.936
10026TIP3    H130023   2.621   4.844   3.003
10026TIP3    H230024   2.736   4.850   2.905
10027TIP3   OH230025  -0.001   3.779   4.994
10027TIP3    H130026   0.052   3.701   4.977
10027TIP3    H230027   0.064   3.849   5.007
10028TIP3   OH230028   2.115   7.781   1.377
10028TIP3    H130029   2.210   7.768   1.382
10028TIP3    H230030   2.102   7.874   1.399
10029TIP3   OH230031   3.827   0.060   6.202
10029TIP3    H130032   3.862   0.144   6.173
10029TIP3    H230033   3.890  -0.005   6.169
10030TIP3   OH230034   8.201   6.738   1.459
10030TIP3    H130035   8.285   6.784   1.457
10030TIP3    H230036   8.204   6.679   1.384
10031TIP3   OH230037   3.579   6.514   6.146
10031TIP3    H130038   3.666   6.542   6.177
10031TIP3    H230039   3.592   6.492   6.054
10032TIP3   OH230040   4.080   7.043   4.579
10032TIP3    H130041   4.057   7.110   4.514
10032TIP3    H230042   3.999   7.027   4.627
10033TIP3   OH230043   2.921   6.767   6.008
10033TIP3    H130044   2.977   6.839   6.039
10033TIP3    H230045   2.874   6.738   6.086
10034TIP3   OH230046   2.124   6.548   0.662
10034TIP3    H130047   2.213   6.581   0.678
10034TIP3    H230048   2.072   6.584   0.733
10035TIP3   OH230049   0.931   6.957   5.934
10035TIP3    H130050   0.913   6.863   5.937
10035TIP3    H230051   1.027   6.963   5.931
10036TIP3   OH230052   1.874   0.848   6.393
10036TIP3    H130053   1.909   0.844   6.304
10036TIP3    H230054   1.790   0.802   6.387
10037TIP3   OH230055   0.725   0.012   2.353
10037TIP3    H130056   0.667  -0.062   2.366
10037TIP3    H230057   0.684   0.084   2.401
10038TIP3   OH230058   3.102   0.295   3.037
10038TIP3    H130059   3.071   0.358   2.972
10038TIP3    H230060   3.094   0.341   3.120
10039TIP3   OH230061   2.739   0.206   4.141
10039TIP3    H130062   2.656   0.199   4.187
10039TIP3    H230063   2.716   0.189   4.049
10040TIP3   OH230064   6.866   7.243   1.450
10040TIP3    H130065   6.907   7.293   1.379
10040TIP3    H230066   6.773   7.264   1.443
10041TIP3   OH230067   1.708   6.468   1.278
10041TIP3    H130068   1.617   6.450   1.252
10041TIP3    H230069   1.753   6.486   1.195
10042TIP3   OH230070   7.172  -0.016   4.965
10042TIP3    H130071   7.149   0.068   5.004
10042TIP3    H230072   7.268  -0.016   4.963
10043TIP3   OH230073   7.228   6.025   4.444
10043TIP3    H130074   7.135   6.045   4.454
10043TIP3    H230075   7.232   5.965   4.370
10044TIP3   OH230076   5.586   7.593   2.698
10044TIP3    H130077   5.672   7.577   2.737
10044TIP3    H230078   5.532   7.625   2.770
10045TIP3   OH230079   0.666   5.720   4.897
10045TIP3    H130080   0.719   5.799   4.893
10045TIP3    H230081   0.710   5.664   4.960
10046TIP3   OH230082   2.397   0.056   0.482
10046TIP3    H130083   2.391  -0.025   0.432
10046TIP3    H230084   2.407   0.027   0.573
10047TIP3   OH230085   4.952   0.792   3.732
10047TIP3    H130086   4.889   0.732   3.772
10047TIP3    H230087   4.899   0.866   3.703
10048TIP3   OH230088   2.667   6.882   6.026
10048TIP3    H130089   2.699   6.969   6.001
10048TIP3    H230090   2.742   6.824   6.013
10049TIP3   OH230091   4.537   3.661   1.136
10049TIP3    H130092   4.473   3.618   1.193
10049TIP3    H230093   4.620   3.615   1.153
10050TIP3   OH230094   1.367   3.460   4.282
10050TIP3    H130095   1.343   3.525   4.348
10050TIP3    H230096   1.305   3.473   4.211
10051TIP3   OH230097   4.748   0.391   5.547
10051TIP3    H130098   4.688   0.317   5.557
10051TIP3    H230099   4.755   0.428   5.635
10052TIP3   OH230100   5.165   0.617   2.064
10052TIP3    H130101   5.259   0.627   2.051
10052TIP3    H230102   5.143   0.537   2.016
10053TIP3   OH230103   4.976   6.394   4.619
10053TIP3    H130104   5.062   6.351   4.625
10053TIP3    H230105   4.975   6.455   4.693
10054TIP3   OH230106   2.042   2.576   6.063
10054TIP3    H130107   1.999   2.498   6.098
10054TIP3    H230108   2.076   2.621   6.141
10055TIP3   OH230109   1.431   0.938   3.523
10055TIP3    H130110   1.435   0.869   3.457
10055TIP3    H230111   1.518   0.977   3.523
10056TIP3   OH230112   6.797   7.198   4.347
10056TIP3    H130113   6.842   7.250   4.412
10056TIP3    H230114   6.745   7.135   4.398
10057TIP3   OH230115   5.553   6.424   5.111
10057TIP3    H130116   5.615   6.464   5.172
10057TIP3    H230117   5.563   6.476   5.030
10058TIP3   OH230118   5.445   5.293   1.390
10058TIP3    H130119   5.387   5.280   1.465
10058TIP3    H230120   5.526   5.249   1.415
10059TIP3   OH230121   0.593   0.027   2.727
10059TIP3    H130122   0.535  -0.008   2.659
10059TIP3    H230123   0.641   0.097   2.683
10060TIP3   OH230124   0.229   3.538   1.697
10060TIP3    H130125   0.194   3.625   1.713
10060TIP3    H230126   0.153   3.480   1.703
10061TIP3   OH230127   3.067   4.861   0.562
10061TIP3    H130128   3.031   4.877   0.475
10061TIP3    H230129   2.991   4.843   0.617
10062TIP3   OH230130   0.666   1.706   1.088
10062TIP3    H130131   0.661   1.730   1.180
10062TIP3    H230132   0.709   1.780   1.046
10063TIP3   OH230133   6.474   4.893   3.835
10063TIP3    H130134   6.413   4.963   3.857
10063TIP3    H230135   6.502   4.913   3.746
10064TIP3   OH230136   5.195   7.233   0.451
10064TIP3    H130137   5.285   7.228   0.420
10064TIP3    H230138   5.192   7.177   0.528
10065TIP3   OH230139   1.907   7.056   1.577
10065TIP3    H130140   1.845   7.115   1.619
10065TIP3    H230141   1.895   7.070   1.484
10066TIP3   OH230142   2.947   3.513   2.938
10066TIP3    H130143   2.883   3.518   2.866
10066TIP3    H230144   2.984   3.600   2.943
10067TIP3   OH230145   0.900   4.293   5.863
10067TIP3    H130146   0.849   4.343   5.800
10067TIP3    H230147   0.963   4.244   5.810
10068TIP3   OH230148   0.741   4.711   4.127
10068TIP3    H130149   0.700   4.768   4.063
10068TIP3    H230150   0.689   4.721   4.206
10069TIP3   OH230151   5.539   7.105   3.073
10069TIP3    H130152   5.525   7.199   3.064
10069TIP3    H230153   5.467   7.075   3.128
10070TIP3   OH230154   2.221   0.695   2.667
10070TIP3    H130155   2.187   0.730   2.585
10070TIP3    H230156   2.187   0.606   2.672
10071TIP3   OH230157   2.455   2.385   2.937
10071TIP3    H130158   2.472   2.445   2.864
10071TIP3    H230159   2.382   2.425   2.985
10072TIP3   OH230160   5.501   3.939   5.460
10072TIP3    H130161   5.562   3.904   5.394
10072TIP3    H230162   5.415   3.909   5.431
10073TIP3   OH230163   4.693   1.471   0.897
10073TIP3    H130164   4.626   1.467   0.965
10073TIP3    H230165   4.743   1.551   0.916
10074TIP3   OH230166   0.901   5.296   5.166
10074TIP3    H130167   0.901   5.215   5.115
10074TIP3    H230168   0.970   5.284   5.231
10075TIP3   OH230169   7.585   5.470   3.454
10075TIP3    H130170   7.577   5.478   3.549
10075TIP3    H230171   7.612   5.379   3.440
10076TIP3   OH230172   2.657   1.325   2.548
10076TIP3    H130173   2.684   1.240   2.584
10076TIP3    H230174   2.624   1.304   2.461
10077TIP3   OH230175   0.129   3.923   3.545
10077TIP3    H130176   0.102   3.908   3.454
10077TIP3    H230177   0.085   4.004   3.571
10078TIP3   OH230178   0.298   7.622   0.143
10078TIP3    H130179   0.306   7.708   0.184
10078TIP3    H230180   0.239   7.636   0.068
10079TIP3   OH230181   4.505   0.906   5.472
10079TIP3    H130182   4.474   0.995   5.491
10079TIP3    H230183   4.591   0.900   5.514
10080TIP3   OH230184   1.679   7.534   5.700
10080TIP3    H130185   1.690   7.440   5.689
10080TIP3    H230186   1.744   7.573   5.641
10081TIP3   OH230187   3.615   1.974   2.390
10081TIP3    H130188   3.571   2.049   2.351
10081TIP3    H230189   3.708   1.992   2.380
10082TIP3   OH230190   5.354   0.184   2.885
10082TIP3    H130191   5.342   0.245   2.957
10082TIP3    H230192   5.290   0.212   2.819
10083TIP3   OH230193   1.492   0.514   5.601
10083TIP3    H130194   1.543   0.562   5.537
10083TIP3    H230195   1.405   0.506   5.562
10084TIP3   OH230196   4.062   6.091   1.848
10084TIP3    H130197   4.021   6.143   1.917
10084TIP3    H230198   4.067   6.150   1.773
10085TIP3   OH230199   2.909   7.212   6.713
10085TIP3    H130200   2.865   7.200   6.630
10085TIP3    H230201   2.838   7.225   6.776
10086TIP3   OH230202   2.763   1.884   5.978
10086TIP3    H130203   2.697   1.925   6.034
10086TIP3    H230204   2.746   1.790   5.984
10087TIP3   OH230205   5.650   2.250   5.472
10087TIP3    H130206   5.555   2.241   5.474
10087TIP3    H230207   5.666   2.337   5.508
10088TIP3   OH230208   0.294   2.776   5.146
10088TIP3    H130209   0.355   2.816   5.209
10088TIP3    H230210   0.348   2.757   5.069
10089TIP3   OH230211   5.555   6.158   3.995
10089TIP3    H130212   5.628   6.191   3.942
10089TIP3    H230213   5.584   6.169   4.086
10090TIP3   OH230214   1.371   0.730   4.826
10090TIP3    H130215   1.387   0.679   4.747
10090TIP3    H230216   1.427   0.808   4.816
10091TIP3   OH230217   1.843   0.733   2.328
10091TIP3    H130218   1.755   0.767   2.313
10091TIP3    H230219   1.858   0.672   2.256
10092TIP3   OH230220   4.732   3.632   2.099
10092TIP3    H130221   4.692   3.710   2.139
10092TIP3    H230222   4.686   3.624   2.015
10093TIP3   OH230223   4.464   1.485   5.722
10093TIP3    H130224   4.450   1.393   5.701
10093TIP3    H230225   4.438   1.493   5.814
10094TIP3   OH230226   7.111   4.431   3.482
10094TIP3    H130227   7.202   4.458   3.482
10094TIP3    H230228   7.062   4.513   3.490
10095TIP3   OH230229   1.991   4.787   1.089
10095TIP3    H130230   2.007   4.694   1.075
10095TIP3    H230231   1.955   4.819   1.007
10096TIP3   OH230232   0.848   5.516   5.339
10096TIP3    H130233   0.888   5.593   5.298
10096TIP3    H230234   0.876   5.443   5.283
10097TIP3   OH230235   0.774   0.076   3.633
10097TIP3    H130236   0.861   0.072   3.593
10097TIP3    H230237   0.766  -0.005   3.683
10098TIP3   OH230238   1.234   0.775   5.072
10098TIP3    H130239   1.300   0.801   5.137
10098TIP3    H230240   1.280   0.778   4.988
10099TIP3   OH230241   6.688   1.368   1.735
10099TIP3    H130242   6.672   1.396   1.645
10099TIP3    H230243   6.773   1.404   1.757
10100TIP3   OH230244   3.071   5.447   5.206
10100TIP3    H130245   3.054   5.437   5.299
10100TIP3    H230246   2.998   5.499   5.173
10101TIP3   OH230247   5.106   5.801   1.212
10101TIP3    H130248   5.066   5.807   1.299
10101TIP3    H230249   5.191   5.843   1.222
10102TIP3   OH230250   3.002   6.451   4.280
10102TIP3    H130251   3.035   6.393   4.349
10102TIP3    H230252   3.045   6.535   4.297
10103TIP3   OH230253   6.231   3.619   2.648
10103TIP3    H130254   6.244   3.525   2.632
10103TIP3    H230255   6.149   3.639   2.603
10104TIP3   OH230256   4.935   5.368   3.305
10104TIP3    H130257   4.943   5.418   3.223
10104TIP3    H230258   4.867   5.412   3.354
10105TIP3   OH230259   3.532   6.513   0.600
10105TIP3    H130260   3.600   6.492   0.535
10105TIP3    H230261   3.467   6.444   0.590
10106TIP3   OH230262   0.243   6.852   1.160
10106TIP3    H130263   0.335   6.877   1.149
10106TIP3    H230264   0.221   6.808   1.078
10107TIP3   OH230265   7.383   2.224   6.144
10107TIP3    H130266   7.405   2.153   6.083
10107TIP3    H230267   7.464   2.239   6.193
10108TIP3   OH230268   4.249   6.277   4.410
10108TIP3    H130269   4.315   6.219   4.449
10108TIP3    H230270   4.282   6.365   4.428
10109TIP3   OH230271   2.471   5.295   4.704
10109TIP3    H130272   2.513   5.379   4.723
10109TIP3    H230273   2.463   5.253   4.790
10110TIP3   OH230274   6.964   5.128   6.170
10110TIP3    H130275   6.993   5.139   6.079
10110TIP3    H230276   7.011   5.195   6.219
10111TIP3   OH230277   0.844   0.021   1.043
10111TIP3    H130278   0.767  -0.034   1.028
10111TIP3    H230279   0.842   0.085   0.972
10112TIP3   OH230280   5.324   4.219   4.335
10112TIP3    H130281   5.360   4.144   4.381
10112TIP3    H230282   5.374   4.294   4.368
10113TIP3   OH230283   0.426   1.089   5.612
10113TIP3    H130284   0.428   1.026   5.684
10113TIP3    H230285   0.333   1.111   5.602
10114TIP3   OH230286   6.540   1.708   1.047
10114TIP3    H130287   6.528   1.801   1.028
10114TIP3    H230288   6.502   1.696   1.134
10115TIP3   OH230289   5.570   5.380   4.761
10115TIP3    H130290   5.630   5.329   4.707
10115TIP3    H230291   5.615   5.463   4.775
10116TIP3   OH230292   1.615   5.793   4.548
10116TIP3    H130293   1.648   5.767   4.634
10116TIP3    H230294   1.693   5.823   4.501
10117TIP3   OH230295   1.460   1.996   1.783
10117TIP3    H130296   1.483   2.078   1.739
10117TIP3    H230297   1.461   2.017   1.876
10118TIP3   OH230298   3.533   6.762   4.004
10118TIP3    H130299   3.512   6.825   4.073
10118TIP3    H230300   3.475   6.786   3.932
10119TIP3   OH230301   4.175   3.787   0.061
10119TIP3    H130302   4.090   3.818   0.031
10119TIP3    H230303   4.210   3.859   0.113
10120TIP3   OH230304   2.318   1.069   6.292
10120TIP3    H130305   2.314   1.016   6.371
10120TIP3    H230306   2.357   1.012   6.226
10121TIP3   OH230307   6.162   7.524   0.223
10121TIP3    H130308   6.207   7.527   0.307
10121TIP3    H230309   6.233   7.525   0.158
10122TIP3   OH230310   6.135   5.806   0.407
10122TIP3    H130311   6.057   5.847   0.370
10122TIP3    H230312   6.206   5.867   0.387
10123TIP3   OH230313   2.101   1.123   5.845
10123TIP3    H130314   2.023   1.143   5.793
10123TIP3    H230315   2.174   1.136   5.785
10124TIP3   OH230316   7.686   4.672   5.121
10124TIP3    H130317   7.615   4.689   5.183
10124TIP3    H230318   7.644   4.625   5.048
10125TIP3   OH230319   0.080   2.116   3.334
10125TIP3    H130320   0.056   2.159   3.253
10125TIP3    H230321   0.165   2.154   3.358
10126TIP3   OH230322   0.768   6.843   1.983
10126TIP3    H130323   0.676   6.816   1.978
10126TIP3    H230324   0.764   6.938   1.996
10127TIP3   OH230325   3.020   3.661   0.242
10127TIP3    H130326   2.964   3.691   0.313
10127TIP3    H230327   2.978   3.581   0.210
10128TIP3   OH230328   4.412   7.411   4.247
10128TIP3    H130329   4.484   7.468   4.220
10128TIP3    H230330   4.442   7.323   4.226
10129TIP3   OH230331   6.412   5.824   2.740
10129TIP3    H130332   6.355   5.876   2.796
10129TIP3    H230333   6.393   5.733   2.764
10130TIP3   OH230334   1.405   0.236   0.148
10130TIP3    H130335   1.421   0.154   0.103
10130TIP3    H230336   1.428   0.304   0.084
10131TIP3   OH230337   2.340   1.326   2.222
10131TIP3    H130338   2.297   1.304   2.305
10131TIP3    H230339   2.433   1.319   2.240
10132TIP3   OH230340   5.159   3.792   0.505
10132TIP3    H130341   5.167   3.813   0.412
10132TIP3    H230342   5.249   3.771   0.533
10133TIP3   OH230343   0.375   5.456   3.257
10133TIP3    H130344   0.311   5.505   3.308
10133TIP3    H230345   0.387   5.506   3.177
10134TIP3   OH230346   1.742   0.248   2.391
10134TIP3    H130347   1.648   0.254   2.376
10134TIP3    H230348   1.777   0.208   2.312
10135TIP3   OH230349   6.403   5.546   6.764
10135TIP3    H130350   6.355   5.626   6.744
10135TIP3    H230351   6.463   5.536   6.690
10136TIP3   OH230352   0.183   1.703   6.655
10136TIP3    H130353   0.219   1.724   6.741
10136TIP3    H230354   0.152   1.613   6.664
10137TIP3   OH230355   0.676   1.000   1.125
10137TIP3    H130356   0.651   1.008   1.033
10137TIP3    H230357   0.645   1.082   1.165
10138TIP3   OH230358   2.877   2.751   1.985
10138TIP3    H130359   2.883   2.762   2.079
10138TIP3    H230360   2.793   2.791   1.961
10139TIP3   OH230361   1.484   7.376   4.353
10139TIP3    H130362   1.494   7.285   4.323
10139TIP3    H230363   1.573   7.405   4.372
10140TIP3   OH230364   3.923   3.278   0.769
10140TIP3    H130365   3.831   3.275   0.795
10140TIP3    H230366   3.927   3.349   0.704
10141TIP3   OH230367   2.306   7.359   1.534
10141TIP3    H130368   2.240   7.369   1.465
10141TIP3    H230369   2.255   7.339   1.613
10142TIP3   OH230370   3.839   7.772   1.505
10142TIP3    H130371   3.767   7.746   1.563
10142TIP3    H230372   3.810   7.855   1.467
10143TIP3   OH230373   6.764   1.685   0.159
10143TIP3    H130374   6.761   1.767   0.110
10143TIP3    H230375   6.849   1.686   0.203
10144TIP3   OH230376   4.020   4.402   0.833
10144TIP3    H130377   3.974   4.356   0.904
10144TIP3    H230378   3.959   4.398   0.760
10145TIP3   OH230379   4.611   0.917   6.072
10145TIP3    H130380   4.649   1.004   6.057
10145TIP3    H230381   4.679   0.856   6.043
10146TIP3   OH230382   4.912   5.385   4.789
10146TIP3    H130383   4.877   5.472   4.773
10146TIP3    H230384   4.871   5.329   4.723
10147TIP3   OH230385   0.121   4.672   5.897
10147TIP3    H130386   0.144   4.709   5.982
10147TIP3    H230387   0.084   4.586   5.918
10148TIP3   OH230388   8.028   1.961   6.375
10148TIP3    H130389   7.980   2.036   6.341
10148TIP3    H230390   7.996   1.951   6.465
10149TIP3   OH230391   1.675   7.508   1.252
10149TIP3    H130392   1.742   7.547   1.308
10149TIP3    H230393   1.598   7.564   1.264
10150TIP3   OH230394   1.451   3.853   1.857
10150TIP3    H130395   1.389   3.798   1.809
10150TIP3    H230396   1.421   3.942   1.843
10151TIP3   OH230397   1.297   3.308   4.657
10151TIP3    H130398   1.335   3.386   4.697
10151TIP3    H230399   1.250   3.341   4.581
10152TIP3   OH230400   5.235   6.097   2.344
10152TIP3    H130401   5.269   6.059   2.425
10152TIP3    H230402   5.194   6.179   2.371
10153TIP3   OH230403   1.088   5.466   6.604
10153TIP3    H130404   1.150   5.538   6.594
10153TIP3    H230405   1.062   5.444   6.515
10154TIP3   OH230406   3.621   1.440   5.081
10154TIP3    H130407   3.571   1.384   5.142
10154TIP3    H230408   3.691   1.384   5.049
10155TIP3   OH230409   5.816   3.693   6.261
10155TIP3    H130410   5.854   3.692   6.173
10155TIP3    H230411   5.842   3.609   6.300
10156TIP3   OH230412   3.356   5.079   3.423
10156TIP3    H130413   3.370   5.172   3.437
10156TIP3    H230414   3.265   5.071   3.396
10157TIP3   OH230415   6.332   0.775   1.198
10157TIP3    H130416   6.407   0.753   1.254
10157TIP3    H230417   6.345   0.724   1.118
10158TIP3   OH230418   3.345   6.995   0.384
10158TIP3    H130419   3.259   6.960   0.362
10158TIP3    H230420   3.407   6.941   0.335
10159TIP3   OH230421   6.469   0.918   0.863
10159TIP3    H130422   6.440   1.009   0.869
10159TIP3    H230423   6.390   0.867   0.878
10160TIP3   OH230424   7.860   5.567   0.872
10160TIP3    H130425   7.948   5.528   0.880
10160TIP3    H230426   7.823   5.559   0.959
10161TIP3   OH230427   4.644   7.060   0.372
10161TIP3    H130428   4.592   7.083   0.449
10161TIP3    H230429   4.715   7.006   0.407
10162TIP3   OH230430   3.859   1.358   1.337
10162TIP3    H130431   3.935   1.413   1.353
10162TIP3    H230432   3.896   1.270   1.323
10163TIP3   OH230433   6.134   0.735   4.331
10163TIP3    H130434   6.179   0.651   4.319
10163TIP3    H230435   6.180   0.776   4.404
10164TIP3   OH230436   0.046   2.615   2.199
10164TIP3    H130437   0.010   2.576   2.119
10164TIP3    H230438   0.000   2.698   2.208
10165TIP3   OH230439   2.652   3.492   3.724
10165TIP3    H130440   2.608   3.533   3.650
10165TIP3    H230441   2.742   3.479   3.695
10166TIP3   OH230442   8.183   7.801   4.480
10166TIP3    H130443   8.154   7.713   4.455
10166TIP3    H230444   8.122   7.859   4.434
10167TIP3   OH230445   5.066   4.092   1.507
10167TIP3    H130446   5.077   4.146   1.429
10167TIP3    H230447   5.047   4.154   1.577
10168TIP3   OH230448   4.753   1.391   2.659
10168TIP3    H130449   4.713   1.304   2.653
10168TIP3    H230450   4.792   1.405   2.573
10169TIP3   OH230451   7.616   7.742   6.362
10169TIP3    H130452   7.578   7.715   6.446
10169TIP3    H230453   7.708   7.759   6.383
10170TIP3   OH230454   7.326   7.573   6.357
10170TIP3    H130455   7.416   7.604   6.351
10170TIP3    H230456   7.327   7.489   6.312
10171TIP3   OH230457   0.756   4.275   0.973
10171TIP3    H130458   0.725   4.184   0.968
10171TIP3    H230459   0.712   4.310   1.050
10172TIP3   OH230460   3.765   5.576   2.509
10172TIP3    H130461   3.687   5.624   2.537
10172TIP3    H230462   3.760   5.575   2.414
10173TIP3   OH230463   0.471   1.373   0.482
10173TIP3    H130464   0.486   1.416   0.566
10173TIP3    H230465   0.556   1.377   0.438
10174TIP3   OH230466   2.202   7.601   5.406
10174TIP3    H130467   2.120   7.568   5.369
10174TIP3    H230468   2.265   7.532   5.389
10175TIP3   OH230469   5.178   5.319   2.656
10175TIP3    H130470   5.229   5.253   2.610
10175TIP3    H230471   5.234   5.347   2.728
10176TIP3   OH230472   1.925   3.572   1.583
10176TIP3    H130473   1.888   3.580   1.495
10176TIP3    H230474   1.961   3.658   1.602
10177TIP3   OH230475   0.314   2.214   3.435
10177TIP3    H130476   0.343   2.303   3.455
10177TIP3    H230477   0.322   2.167   3.518
10178TIP3   OH230478   7.155   2.860   6.050
10178TIP3    H130479   7.185   2.935   5.998
10178TIP3    H230480   7.182   2.783   6.000
10179TIP3   OH230481   5.522   5.108   4.612
10179TIP3    H130482   5.435   5.109   4.652
10179TIP3    H230483   5.582   5.087   4.683
10180TIP3   OH230484   3.999   2.774   4.087
10180TIP3    H130485   3.974   2.783   4.179
10180TIP3    H230486   3.953   2.845   4.042
10181TIP3   OH230487   5.526   2.192   1.242
10181TIP3    H130488   5.509   2.122   1.305
10181TIP3    H230489   5.571   2.149   1.169
10182TIP3   OH230490   5.249   7.691   2.825
10182TIP3    H130491   5.168   7.732   2.857
10182TIP3    H230492   5.287   7.755   2.766
10183TIP3   OH230493   1.242   3.380   1.847
10183TIP3    H130494   1.285   3.402   1.930
10183TIP3    H230495   1.150   3.367   1.871
10184TIP3   OH230496   4.131   7.384   2.014
10184TIP3    H130497   4.065   7.411   2.079
10184TIP3    H230498   4.192   7.457   2.011
10185TIP3   OH230499   7.528   1.168   2.343
10185TIP3    H130500   7.594   1.236   2.324
10185TIP3    H230501   7.457   1.187   2.282
10186TIP3   OH230502   3.820   1.915   1.072
10186TIP3    H130503   3.777   1.893   0.989
10186TIP3    H230504   3.888   1.847   1.082
10187TIP3   OH230505   0.585   0.319   4.791
10187TIP3    H130506   0.556   0.242   4.840
10187TIP3    H230507   0.516   0.383   4.804
10188TIP3   OH230508   7.484   4.030   2.151
10188TIP3    H130509   7.512   4.113   2.189
10188TIP3    H230510   7.534   3.964   2.198
10189TIP3   OH230511   6.583   3.599   2.096
10189TIP3    H130512   6.534   3.550   2.162
10189TIP3    H230513   6.666   3.621   2.137
10190TIP3   OH230514   0.662   2.606   6.526
10190TIP3    H130515   0.612   2.540   6.478
10190TIP3    H230516   0.753   2.576   6.518
10191TIP3   OH230517   2.217   2.545   3.342
10191TIP3    H130518   2.136   2.590   3.369
10191TIP3    H230519   2.264   2.529   3.424
10192TIP3   OH230520   4.241   1.378   4.308
10192TIP3    H130521   4.304   1.362   4.378
10192TIP3    H230522   4.293   1.411   4.235
10193TIP3   OH230523   2.665   0.587   1.132
10193TIP3    H130524   2.719   0.665   1.147
10193TIP3    H230525   2.655   0.583   1.037
10194TIP3   OH230526   2.780   5.669   1.219
10194TIP3    H130527   2.754   5.760   1.202
10194TIP3    H230528   2.721   5.617   1.164
10195TIP3   OH230529   5.148   0.919   5.389
10195TIP3    H130530   5.154   1.010   5.417
10195TIP3    H230531   5.080   0.919   5.322
10196TIP3   OH230532   1.417   5.286   2.530
10196TIP3    H130533   1.504   5.278   2.569
10196TIP3    H230534   1.434   5.308   2.438
10197TIP3   OH230535   5.937   4.599   5.983
10197TIP3    H130536   5.932   4.513   6.025
10197TIP3    H230537   5.880   4.654   6.037
10198TIP3   OH230538   3.783   2.902   6.771
10198TIP3    H130539   3.795   2.995   6.791
10198TIP3    H230540   3.801   2.895   6.677
10199TIP3   OH230541   1.007   2.976   2.804
10199TIP3    H130542   1.097   2.989   2.774
10199TIP3    H230543   0.978   3.062   2.833
10200TIP3   OH230544   3.005   7.245   0.588
10200TIP3    H130545   2.998   7.195   0.507
10200TIP3    H230546   2.978   7.184   0.657
10201TIP3   OH230547   7.826   2.422   3.112
10201TIP3    H130548   7.843   2.357   3.045
10201TIP3    H230549   7.903   2.418   3.169
10202TIP3   OH230550   3.293   5.489   2.212
10202TIP3    H130551   3.319   5.397   2.218
10202TIP3    H230552   3.376   5.536   2.196
10203TIP3   OH230553   7.243   3.899   4.782
10203TIP3    H130554   7.242   3.873   4.874
10203TIP3    H230555   7.334   3.890   4.755
10204TIP3   OH230556   2.643   0.247   6.233
10204TIP3    H130557   2.711   0.302   6.272
10204TIP3    H230558   2.690   0.180   6.184
10205TIP3   OH230559   3.359   0.367   1.737
10205TIP3    H130560   3.385   0.369   1.829
10205TIP3    H230561   3.314   0.450   1.723
10206TIP3   OH230562   5.853   6.518   4.489
10206TIP3    H130563   5.907   6.460   4.543
10206TIP3    H230564   5.916   6.578   4.448
10207TIP3   OH230565   3.786   2.016   5.841
10207TIP3    H130566   3.868   2.037   5.796
10207TIP3    H230567   3.732   2.094   5.830
10208TIP3   OH230568   2.118   7.543   2.433
10208TIP3    H130569   2.090   7.622   2.478
10208TIP3    H230570   2.050   7.526   2.368
10209TIP3   OH230571   1.458   5.362   6.010
10209TIP3    H130572   1.533   5.344   5.953
10209TIP3    H230573   1.473   5.451   6.042
10210TIP3   OH230574   5.803   2.374   0.642
10210TIP3    H130575   5.836   2.310   0.580
10210TIP3    H230576   5.712   2.388   0.617
10211TIP3   OH230577   1.944   7.182   3.735
10211TIP3    H130578   1.859   7.168   3.695
10211TIP3    H230579   1.977   7.262   3.694
10212TIP3   OH230580   0.784   6.464   4.217
10212TIP3    H130581   0.859   6.483   4.160
10212TIP3    H230582   0.733   6.546   4.217
10213TIP3   OH230583   2.041   3.895   3.230
10213TIP3    H130584   2.105   3.965   3.245
10213TIP3    H230585   2.056   3.833   3.301
10214TIP3   OH230586   4.646   1.420   4.977
10214TIP3    H130587   4.698   1.478   4.922
10214TIP3    H230588   4.673   1.440   5.066
10215TIP3   OH230589   7.362   2.845   0.973
10215TIP3    H130590   7.327   2.917   1.026
10215TIP3    H230591   7.387   2.887   0.890
10216TIP3   OH230592   6.745   0.942   4.618
10216TIP3    H130593   6.781   0.984   4.540
10216TIP3    H230594   6.822   0.914   4.668
10217TIP3   OH230595   7.041   2.287   5.931
10217TIP3    H130596   7.040   2.194   5.956
10217TIP3    H230597   6.962   2.323   5.971
10218TIP3   OH230598   2.270   2.394   1.140
10218TIP3    H130599   2.318   2.359   1.215
10218TIP3    H230600   2.179   2.372   1.158
10219TIP3   OH230601   0.287   3.915   4.866
10219TIP3    H130602   0.220   3.976   4.897
10219TIP3    H230603   0.360   3.970   4.838
10220TIP3   OH230604   4.512   6.592   0.632
10220TIP3    H130605   4.526   6.517   0.574
10220TIP3    H230606   4.514   6.555   0.720
10221TIP3   OH230607   7.430   4.497   4.368
10221TIP3    H130608   7.405   4.412   4.334
10221TIP3    H230609   7.525   4.491   4.381
10222TIP3   OH230610   4.836   7.327   0.989
10222TIP3    H130611   4.778   7.294   1.058
10222TIP3    H230612   4.907   7.370   1.037
10223TIP3   OH230613   4.617   2.360   3.633
10223TIP3    H130614   4.608   2.397   3.545
10223TIP3    H230615   4.643   2.434   3.687
10224TIP3   OH230616   2.592   7.644   1.313
10224TIP3    H130617   2.662   7.594   1.356
10224TIP3    H230618   2.626   7.661   1.225
10225TIP3   OH230619   2.146   0.745   5.210
10225TIP3    H130620   2.140   0.811   5.279
10225TIP3    H230621   2.067   0.758   5.157
10226TIP3   OH230622   5.749   4.267   6.400
10226TIP3    H130623   5.696   4.247   6.477
10226TIP3    H230624   5.836   4.287   6.435
10227TIP3   OH230625   3.116   1.441   1.062
10227TIP3    H130626   3.160   1.493   1.129
10227TIP3    H230627   3.042   1.401   1.108
10228TIP3   OH230628   8.137   2.895   3.319
10228TIP3    H130629   8.205   2.877   3.384
10228TIP3    H230630   8.179   2.876   3.235
10229TIP3   OH230631   2.529   7.128   4.756
10229TIP3    H130632   2.522   7.173   4.671
10229TIP3    H230633   2.617   7.149   4.787
10230TIP3   OH230634   2.337   2.011   4.064
10230TIP3    H130635   2.432   2.016   4.052
10230TIP3    H230636   2.301   2.013   3.976
10231TIP3   OH230637   4.850   3.179   4.798
10231TIP3    H130638   4.856   3.100   4.852
10231TIP3    H230639   4.889   3.154   4.715
10232TIP3   OH230640   7.195   5.753   6.407
10232TIP3    H130641   7.158   5.822   6.463
10232TIP3    H230642   7.280   5.734   6.446
10233TIP3   OH230643   1.217   6.388   0.972
10233TIP3    H130644   1.241   6.327   0.903
10233TIP3    H230645   1.223   6.336   1.053
10234TIP3   OH230646   3.702   1.499   0.198
10234TIP3    H130647   3.680   1.544   0.117
10234TIP3    H230648   3.633   1.432   0.208
10235TIP3   OH230649   0.072   2.845   0.515
10235TIP3    H130650   0.084   2.897   0.435
10235TIP3    H230651  -0.021   2.854   0.536
10236TIP3   OH230652   6.163   7.234   2.325
10236TIP3    H130653   6.138   7.325   2.306
10236TIP3    H230654   6.173   7.194   2.238
10237TIP3   OH230655   5.548   1.679   1.220
10237TIP3    H130656   5.474   1.687   1.159
10237TIP3    H230657   5.508   1.674   1.306
10238TIP3   OH230658   5.277   6.370   3.494
10238TIP3    H130659   5.328   6.374   3.575
10238TIP3    H230660   5.326   6.310   3.438
10239TIP3   OH230661   6.099   1.678   2.874
10239TIP3    H130662   6.102   1.628   2.956
10239TIP3    H230663   6.019   1.731   2.881
10240TIP3   OH230664   6.849   6.192   5.195
10240TIP3    H130665   6.909   6.222   5.264
10240TIP3    H230666   6.792   6.267   5.178
10241TIP3   OH230667   1.503   4.809   5.357
10241TIP3    H130668   1.526   4.827   5.265
10241TIP3    H230669   1.500   4.714   5.362
10242TIP3   OH230670   6.242   1.493   0.893
10242TIP3    H130671   6.303   1.515   0.823
10242TIP3    H230672   6.299   1.475   0.969
10243TIP3   OH230673   0.936   2.271   3.993
10243TIP3    H130674   0.874   2.200   3.976
10243TIP3    H230675   0.889   2.332   4.049
10244TIP3   OH230676   6.894   6.780   0.741
10244TIP3    H130677   6.882   6.839   0.667
10244TIP3    H230678   6.882   6.835   0.818
10245TIP3   OH230679   3.329   7.717   4.915
10245TIP3    H130680   3.338   7.669   4.832
10245TIP3    H230681   3.254   7.675   4.958
10246TIP3   OH230682   8.138   1.272   3.640
10246TIP3    H130683   8.225   1.234   3.631
10246TIP3    H230684   8.083   1.222   3.580
10247TIP3   OH230685   2.962   1.449   3.260
10247TIP3    H130686   2.868   1.451   3.240
10247TIP3    H230687   2.973   1.510   3.333
10248TIP3   OH230688   0.784   5.387   2.728
10248TIP3    H130689   0.869   5.412   2.693
10248TIP3    H230690   0.768   5.447   2.800
10249TIP3   OH230691   3.164   1.464   6.708
10249TIP3    H130692   3.160   1.456   6.804
10249TIP3    H230693   3.211   1.546   6.692
10250TIP3   OH230694   2.216   2.481   4.852
10250TIP3    H130695   2.227   2.572   4.825
10250TIP3    H230696   2.302   2.455   4.886
10251TIP3   OH230697   1.636   3.440   3.922
10251TIP3    H130698   1.544   3.459   3.908
10251TIP3    H230699   1.659   3.377   3.854
10252TIP3   OH230700   3.127   7.099   5.202
10252TIP3    H130701   3.152   7.083   5.293
10252TIP3    H230702   3.210   7.100   5.154
10253TIP3   OH230703   3.919   4.124   2.420
10253TIP3    H130704   3.903   4.218   2.435
10253TIP3    H230705   4.005   4.108   2.459
10254TIP3   OH230706   3.046   0.091   1.588
10254TIP3    H130707   2.996   0.102   1.507
10254TIP3    H230708   2.994   0.138   1.654
10255TIP3   OH230709   3.166   2.985   4.888
10255TIP3    H130710   3.261   2.991   4.903
10255TIP3    H230711   3.157   2.967   4.795
10256TIP3   OH230712   7.914   4.234   6.256
10256TIP3    H130713   7.862   4.257   6.333
10256TIP3    H230714   7.862   4.266   6.182
10257TIP3   OH230715   3.898   5.881   6.141
10257TIP3    H130716   3.828   5.931   6.184
10257TIP3    H230717   3.860   5.852   6.058
10258TIP3   OH230718   0.210   6.391   5.846
10258TIP3    H130719   0.167   6.358   5.767
10258TIP3    H230720   0.276   6.453   5.814
10259TIP3   OH230721   7.413   3.140   2.479
10259TIP3    H130722   7.364   3.064   2.448
10259TIP3    H230723   7.381   3.155   2.568
10260TIP3   OH230724   5.861   6.399   2.537
10260TIP3    H130725   5.789   6.429   2.592
10260TIP3    H230726   5.826   6.320   2.494
10261TIP3   OH230727   3.819   5.218   6.322
10261TIP3    H130728   3.858   5.179   6.400
10261TIP3    H230729   3.733   5.248   6.351
10262TIP3   OH230730   4.798   4.765   4.894
10262TIP3    H130731   4.850   4.841   4.919
10262TIP3    H230732   4.862   4.695   4.883
10263TIP3   OH230733   0.049   3.433   4.327
10263TIP3    H130734   0.086   3.367   4.386
10263TIP3    H230735   0.109   3.433   4.252
10264TIP3   OH230736   4.282   5.732   0.925
10264TIP3    H130737   4.212   5.692   0.977
10264TIP3    H230738   4.297   5.817   0.965
10265TIP3   OH230739   6.988   3.152   2.569
10265TIP3    H130740   7.005   3.144   2.662
10265TIP3    H230741   6.966   3.064   2.540
10266TIP3   OH230742   5.292   5.662   2.296
10266TIP3    H130743   5.347   5.736   2.317
10266TIP3    H230744   5.249   5.686   2.214
10267TIP3   OH230745   5.207   3.418   2.654
10267TIP3    H130746   5.273   3.349   2.663
10267TIP3    H230747   5.130   3.372   2.619
10268TIP3   OH230748   6.449   3.172   5.255
10268TIP3    H130749   6.506   3.104   5.219
10268TIP3    H230750   6.366   3.127   5.274
10269TIP3   OH230751   4.991   6.591   1.268
10269TIP3    H130752   5.007   6.575   1.175
10269TIP3    H230753   5.056   6.656   1.293
10270TIP3   OH230754   6.388   2.547   5.769
10270TIP3    H130755   6.403   2.594   5.850
10270TIP3    H230756   6.308   2.585   5.733
10271TIP3   OH230757   7.206   4.688   1.435
10271TIP3    H130758   7.198   4.772   1.482
10271TIP3    H230759   7.300   4.667   1.440
10272TIP3   OH230760   8.299   3.192   3.827
10272TIP3    H130761   8.383   3.218   3.789
10272TIP3    H230762   8.241   3.179   3.751
10273TIP3   OH230763   5.735   2.406   3.232
10273TIP3    H130764   5.704   2.391   3.321
10273TIP3    H230765   5.755   2.319   3.198
10274TIP3   OH230766   6.116   1.879   0.349
10274TIP3    H130767   6.207   1.874   0.378
10274TIP3    H230768   6.092   1.971   0.360
10275TIP3   OH230769   6.369   0.956   2.902
10275TIP3    H130770   6.302   0.949   2.834
10275TIP3    H230771   6.441   1.004   2.859
10276TIP3   OH230772   3.196   6.659   4.866
10276TIP3    H130773   3.284   6.641   4.833
10276TIP3    H230774   3.196   6.754   4.882
10277TIP3   OH230775   6.581   6.933   1.639
10277TIP3    H130776   6.610   7.023   1.656
10277TIP3    H230777   6.606   6.885   1.718
10278TIP3   OH230778   6.385   1.583   4.417
10278TIP3    H130779   6.399   1.626   4.501
10278TIP3    H230780   6.293   1.599   4.396
10279TIP3   OH230781   7.617   7.144   3.570
10279TIP3    H130782   7.558   7.073   3.544
10279TIP3    H230783   7.666   7.109   3.644
10280TIP3   OH230784   3.050   2.016   1.031
10280TIP3    H130785   3.018   1.983   0.947
10280TIP3    H230786   3.064   2.109   1.016
10281TIP3   OH230787   7.131   6.971   0.926
10281TIP3    H130788   7.209   6.956   0.979
10281TIP3    H230789   7.072   6.899   0.947
10282TIP3   OH230790   0.582   0.037   1.382
10282TIP3    H130791   0.506  -0.021   1.390
10282TIP3    H230792   0.598   0.068   1.471
10283TIP3   OH230793   0.447   6.158   3.155
10283TIP3    H130794   0.379   6.203   3.106
10283TIP3    H230795   0.529   6.192   3.119
10284TIP3   OH230796   4.989   4.317   2.585
10284TIP3    H130797   5.018   4.252   2.522
10284TIP3    H230798   4.997   4.274   2.670
10285TIP3   OH230799   5.845   7.451   3.310
10285TIP3    H130800   5.856   7.366   3.267
10285TIP3    H230801   5.873   7.436   3.400
10286TIP3   OH230802   0.361   2.573   2.370
10286TIP3    H130803   0.381   2.663   2.396
10286TIP3    H230804   0.277   2.554   2.413
10287TIP3   OH230805   6.925   5.021   1.454
10287TIP3    H130806   6.954   5.053   1.539
10287TIP3    H230807   6.909   4.928   1.468
10288TIP3   OH230808   0.650   7.408   2.235
10288TIP3    H130809   0.668   7.440   2.324
10288TIP3    H230810   0.582   7.341   2.248
10289TIP3   OH230811   5.172   3.484   6.288
10289TIP3    H130812   5.174   3.543   6.363
10289TIP3    H230813   5.112   3.414   6.314
10290TIP3   OH230814   3.420   4.804   0.157
10290TIP3    H130815   3.363   4.737   0.192
10290TIP3    H230816   3.411   4.797   0.062
10291TIP3   OH230817   4.433   7.093   3.066
10291TIP3    H130818   4.465   7.183   3.067
10291TIP3    H230819   4.338   7.101   3.064
10292TIP3   OH230820   4.414   4.135   4.338
10292TIP3    H130821   4.415   4.054   4.388
10292TIP3    H230822   4.493   4.131   4.284
10293TIP3   OH230823   2.163   5.040   3.477
10293TIP3    H130824   2.219   5.089   3.417
10293TIP3    H230825   2.153   4.954   3.436
10294TIP3   OH230826   6.474   0.123   1.085
10294TIP3    H130827   6.510   0.125   0.996
10294TIP3    H230828   6.422   0.203   1.092
10295TIP3   OH230829   3.645   2.592   4.517
10295TIP3    H130830   3.561   2.551   4.539
10295TIP3    H230831   3.661   2.566   4.427
10296TIP3   OH230832   2.194   7.057   1.628
10296TIP3    H130833   2.203   7.101   1.712
10296TIP3    H230834   2.102   7.066   1.606
10297TIP3   OH230835   0.659   7.257   1.383
10297TIP3    H130836   0.712   7.197   1.331
10297TIP3    H230837   0.572   7.218   1.386
10298TIP3   OH230838   7.115   2.628   1.469
10298TIP3    H130839   7.152   2.618   1.557
10298TIP3    H230840   7.066   2.711   1.473
10299TIP3   OH230841   8.211   5.103   6.670
10299TIP3    H130842   8.240   5.045   6.741
10299TIP3    H230843   8.132   5.146   6.705
10300TIP3   OH230844   2.637   6.272   0.655
10300TIP3    H130845   2.630   6.177   0.662
10300TIP3    H230846   2.617   6.291   0.563
10301TIP3   OH230847   2.428   3.903   5.354
10301TIP3    H130848   2.496   3.961   5.320
10301TIP3    H230849   2.419   3.834   5.289
10302TIP3   OH230850   2.005   3.177   6.702
10302TIP3    H130851   1.939   3.204   6.765
10302TIP3    H230852   2.024   3.085   6.724
10303TIP3   OH230853   7.742   1.350   2.969
10303TIP3    H130854   7.735   1.367   3.063
10303TIP3    H230855   7.666   1.396   2.931
10304TIP3   OH230856   2.077   4.096   1.637
10304TIP3    H130857   2.022   4.141   1.702
10304TIP3    H230858   2.163   4.135   1.648
10305TIP3   OH230859   4.980   7.174   4.162
10305TIP3    H130860   4.926   7.252   4.151
10305TIP3    H230861   4.920   7.109   4.200
10306TIP3   OH230862   1.273   1.845   1.328
10306TIP3    H130863   1.344   1.906   1.345
10306TIP3    H230864   1.260   1.799   1.411
10307TIP3   OH230865   5.780   0.691   5.351
10307TIP3    H130866   5.763   0.766   5.295
10307TIP3    H230867   5.864   0.656   5.320
10308TIP3   OH230868   0.468   5.759   5.091
10308TIP3    H130869   0.376   5.782   5.075
10308TIP3    H230870   0.509   5.763   5.005
10309TIP3   OH230871   5.042   1.869   1.044
10309TIP3    H130872   5.071   1.903   1.128
10309TIP3    H230873   5.058   1.941   0.983
10310TIP3   OH230874   6.257   3.874   0.745
10310TIP3    H130875   6.172   3.883   0.788
10310TIP3    H230876   6.282   3.783   0.761
10311TIP3   OH230877   3.541   0.899   4.749
10311TIP3    H130878   3.586   0.844   4.813
10311TIP3    H230879   3.541   0.848   4.669
10312TIP3   OH230880   5.101   0.123   5.078
10312TIP3    H130881   5.165   0.111   5.148
10312TIP3    H230882   5.154   0.131   4.998
10313TIP3   OH230883   1.261   1.492   3.727
10313TIP3    H130884   1.248   1.570   3.674
10313TIP3    H230885   1.202   1.426   3.689
10314TIP3   OH230886   7.970   3.494   2.586
10314TIP3    H130887   7.961   3.589   2.600
10314TIP3    H230888   8.024   3.464   2.658
10315TIP3   OH230889   6.725   4.203   0.277
10315TIP3    H130890   6.687   4.209   0.189
10315TIP3    H230891   6.702   4.115   0.307
10316TIP3   OH230892   1.952   0.560   2.169
10316TIP3    H130893   1.961   0.525   2.258
10316TIP3    H230894   2.039   0.551   2.131
10317TIP3   OH230895   7.759   0.903   6.421
10317TIP3    H130896   7.723   0.824   6.461
10317TIP3    H230897   7.852   0.884   6.411
10318TIP3   OH230898   2.193   3.487   0.318
10318TIP3    H130899   2.106   3.485   0.357
10318TIP3    H230900   2.221   3.579   0.324
10319TIP3   OH230901   6.049   3.234   0.370
10319TIP3    H130902   6.131   3.197   0.404
10319TIP3    H230903   6.045   3.203   0.279
10320TIP3   OH230904   3.919   1.177   4.970
10320TIP3    H130905   3.946   1.211   5.055
10320TIP3    H230906   3.857   1.242   4.937
10321TIP3   OH230907   1.002   0.166   1.550
10321TIP3    H130908   1.004   0.106   1.625
10321TIP3    H230909   1.094   0.192   1.539
10322TIP3   OH230910   6.286   4.550   2.264
10322TIP3    H130911   6.346   4.538   2.191
10322TIP3    H230912   6.259   4.461   2.289
10323TIP3   OH230913   3.980   1.757   3.124
10323TIP3    H130914   3.916   1.788   3.060
10323TIP3    H230915   3.968   1.815   3.200
10324TIP3   OH230916   1.041   0.012   4.724
10324TIP3    H130917   0.979   0.078   4.756
10324TIP3    H230918   1.111   0.013   4.789
10325TIP3   OH230919   4.049   5.112   5.360
10325TIP3    H130920   4.139   5.139   5.341
10325TIP3    H230921   4.022   5.170   5.432
10326TIP3   OH230922   2.953   3.061   3.096
10326TIP3    H130923   2.944   3.097   3.008
10326TIP3    H230924   3.047   3.068   3.115
10327TIP3   OH230925   5.740   7.786   0.150
10327TIP3    H130926   5.665   7.728   0.166
10327TIP3    H230927   5.814   7.726   0.135
10328TIP3   OH230928   7.328   1.846   3.835
10328TIP3    H130929   7.404   1.896   3.865
10328TIP3    H230930   7.329   1.767   3.888
10329TIP3   OH230931   0.171   0.765   2.419
10329TIP3    H130932   0.157   0.849   2.376
10329TIP3    H230933   0.102   0.760   2.486
10330TIP3   OH230934   1.062   2.233   6.309
10330TIP3    H130935   1.085   2.158   6.254
10330TIP3    H230936   1.054   2.197   6.397
10331TIP3   OH230937   6.941   0.541   4.152
10331TIP3    H130938   7.027   0.516   4.183
10331TIP3    H230939   6.889   0.460   4.155
10332TIP3   OH230940   5.370   2.776   5.511
10332TIP3    H130941   5.276   2.788   5.521
10332TIP3    H230942   5.401   2.854   5.465
10333TIP3   OH230943   4.302   4.568   4.200
10333TIP3    H130944   4.351   4.649   4.207
10333TIP3    H230945   4.218   4.587   4.243
10334TIP3   OH230946   1.860   4.439   4.818
10334TIP3    H130947   1.915   4.363   4.803
10334TIP3    H230948   1.770   4.406   4.810
10335TIP3   OH230949   1.456   3.892   2.139
10335TIP3    H130950   1.431   3.886   2.047
10335TIP3    H230951   1.531   3.833   2.147
10336TIP3   OH230952   2.503   0.084   4.262
10336TIP3    H130953   2.416   0.119   4.280
10336TIP3    H230954   2.493   0.034   4.181
10337TIP3   OH230955   6.810   4.903   5.214
10337TIP3    H130956   6.775   4.845   5.281
10337TIP3    H230957   6.735   4.953   5.183
10338TIP3   OH230958   0.583   4.877   0.445
10338TIP3    H130959   0.672   4.871   0.412
10338TIP3    H230960   0.528   4.868   0.366
10339TIP3   OH230961   7.458   2.290   3.686
10339TIP3    H130962   7.436   2.382   3.671
10339TIP3    H230963   7.377   2.243   3.669
10340TIP3   OH230964   1.239   2.261   4.035
10340TIP3    H130965   1.148   2.230   4.037
10340TIP3    H230966   1.245   2.307   3.951
10341TIP3   OH230967   1.988   6.597   3.984
10341TIP3    H130968   2.005   6.510   4.022
10341TIP3    H230969   2.068   6.646   4.002
10342TIP3   OH230970   4.060   5.483   5.014
10342TIP3    H130971   4.131   5.421   5.030
10342TIP3    H230972   4.104   5.567   4.999
10343TIP3   OH230973   5.515   2.916   1.076
10343TIP3    H130974   5.516   2.889   1.168
10343TIP3    H230975   5.522   3.011   1.078
10344TIP3   OH230976   0.220   6.314   4.038
10344TIP3    H130977   0.205   6.254   3.964
10344TIP3    H230978   0.278   6.382   4.003
10345TIP3   OH230979   4.751   0.800   2.450
10345TIP3    H130980   4.815   0.793   2.521
10345TIP3    H230981   4.761   0.890   2.418
10346TIP3   OH230982   8.114   5.490   4.282
10346TIP3    H130983   8.190   5.519   4.231
10346TIP3    H230984   8.143   5.409   4.324
10347TIP3   OH230985   5.987   2.744   0.560
10347TIP3    H130986   5.898   2.730   0.592
10347TIP3    H230987   6.021   2.657   0.544
10348TIP3   OH230988   7.085   6.435   2.461
10348TIP3    H130989   7.021   6.418   2.530
10348TIP3    H230990   7.096   6.351   2.416
10349TIP3   OH230991   4.769   5.534   1.406
10349TIP3    H130992   4.731   5.456   1.447
10349TIP3    H230993   4.800   5.587   1.479
10350TIP3   OH230994   0.569   2.999   0.052
10350TIP3    H130995   0.492   3.025   0.002
10350TIP3    H230996   0.634   2.974  -0.014
10351TIP3   OH230997   2.430   4.403   0.865
10351TIP3    H130998   2.399   4.429   0.778
10351TIP3    H230999   2.412   4.309   0.869
10352TIP3   OH231000   6.960   7.680   3.514
10352TIP3    H131001   7.016   7.642   3.447
10352TIP3    H231002   7.014   7.746   3.557
10353TIP3   OH231003   2.903   1.859   3.302
10353TIP3    H131004   2.965   1.853   3.229
10353TIP3    H231005   2.818   1.873   3.259
10354TIP3   OH231006   5.453   3.102   0.714
10354TIP3    H131007   5.438   3.179   0.659
10354TIP3    H231008   5.393   3.113   0.788
10355TIP3   OH231009   4.053   3.776   6.679
10355TIP3    H131010   3.980   3.785   6.740
10355TIP3    H231011   4.125   3.824   6.721
10356TIP3   OH231012   1.164   0.833   4.263
10356TIP3    H131013   1.225   0.851   4.191
10356TIP3    H231014   1.081   0.814   4.219
10357TIP3   OH231015   5.449   2.859   5.776
10357TIP3    H131016   5.428   2.852   5.683
10357TIP3    H231017   5.396   2.792   5.819
10358TIP3   OH231018   2.624   6.854   0.699
10358TIP3    H131019   2.714   6.820   0.705
10358TIP3    H231020   2.570   6.777   0.685
10359TIP3   OH231021   0.131   3.749   2.534
10359TIP3    H131022   0.158   3.754   2.625
10359TIP3    H231023   0.148   3.836   2.499
10360TIP3   OH231024   4.221   2.741   6.287
10360TIP3    H131025   4.285   2.788   6.233
10360TIP3    H231026   4.138   2.786   6.270
10361TIP3   OH231027   3.429   0.780   1.716
10361TIP3    H131028   3.363   0.765   1.648
10361TIP3    H231029   3.419   0.872   1.739
10362TIP3   OH231030   0.983   6.274   5.655
10362TIP3    H131031   1.034   6.310   5.727
10362TIP3    H231032   0.925   6.211   5.696
10363TIP3   OH231033   4.275   7.798   4.325
10363TIP3    H131034   4.339   7.869   4.334
10363TIP3    H231035   4.279   7.751   4.407
10364TIP3   OH231036   2.523   3.407   4.692
10364TIP3    H131037   2.567   3.462   4.756
10364TIP3    H231038   2.508   3.324   4.737
10365TIP3   OH231039   3.019   4.821   5.909
10365TIP3    H131040   2.966   4.897   5.932
10365TIP3    H231041   2.960   4.764   5.860
10366TIP3   OH231042   7.576   5.199   1.949
10366TIP3    H131043   7.636   5.248   1.893
10366TIP3    H231044   7.545   5.263   2.012
10367TIP3   OH231045   7.777   4.022   3.983
10367TIP3    H131046   7.825   4.079   3.923
10367TIP3    H231047   7.844   3.967   4.023
10368TIP3   OH231048   2.648   0.236   3.225
10368TIP3    H131049   2.570   0.253   3.173
10368TIP3    H231050   2.712   0.203   3.162
10369TIP3   OH231051   0.952   6.323   5.393
10369TIP3    H131052   0.993   6.307   5.479
10369TIP3    H231053   0.859   6.327   5.411
10370TIP3   OH231054   7.215   5.911   3.333
10370TIP3    H131055   7.150   5.868   3.389
10370TIP3    H231056   7.263   5.969   3.391
10371TIP3   OH231057   1.098   1.518   6.047
10371TIP3    H131058   1.085   1.540   6.139
10371TIP3    H231059   1.155   1.588   6.014
10372TIP3   OH231060   8.236   3.081   6.524
10372TIP3    H131061   8.283   3.018   6.469
10372TIP3    H231062   8.273   3.069   6.611
10373TIP3   OH231063   0.745   6.878   1.311
10373TIP3    H131064   0.754   6.844   1.400
10373TIP3    H231065   0.817   6.839   1.263
10374TIP3   OH231066   3.831   2.243   6.697
10374TIP3    H131067   3.800   2.333   6.701
10374TIP3    H231068   3.753   2.190   6.713
10375TIP3   OH231069   2.373   7.517   4.952
10375TIP3    H131070   2.381   7.590   4.890
10375TIP3    H231071   2.460   7.478   4.954
10376TIP3   OH231072   1.045   5.226   1.488
10376TIP3    H131073   1.074   5.303   1.438
10376TIP3    H231074   1.039   5.157   1.422
10377TIP3   OH231075   0.699   2.031   3.908
10377TIP3    H131076   0.627   1.993   3.957
10377TIP3    H231077   0.657   2.082   3.839
10378TIP3   OH231078   2.529   7.684   6.024
10378TIP3    H131079   2.600   7.704   6.086
10378TIP3    H231080   2.558   7.604   5.980
10379TIP3   OH231081   3.328   2.643   0.198
10379TIP3    H131082   3.389   2.601   0.138
10379TIP3    H231083   3.316   2.579   0.269
10380TIP3   OH231084   1.134   3.229   3.425
10380TIP3    H131085   1.208   3.290   3.434
10380TIP3    H231086   1.059   3.276   3.462
10381TIP3   OH231087   5.328   5.375   5.861
10381TIP3    H131088   5.290   5.380   5.949
10381TIP3    H231089   5.422   5.380   5.874
10382TIP3   OH231090   7.947   4.716   3.089
10382TIP3    H131091   7.979   4.803   3.064
10382TIP3    H231092   8.012   4.683   3.150
10383TIP3   OH231093   4.638   3.165   4.010
10383TIP3    H131094   4.569   3.209   3.961
10383TIP3    H231095   4.634   3.205   4.097
10384TIP3   OH231096   8.009   4.228   0.666
10384TIP3    H131097   8.099   4.254   0.682
10384TIP3    H231098   7.974   4.297   0.610
10385TIP3   OH231099   8.327   1.002   5.721
10385TIP3    H131100   8.248   1.053   5.736
10385TIP3    H231101   8.346   0.962   5.806
10386TIP3   OH231102   2.197   1.815   6.670
10386TIP3    H131103   2.241   1.730   6.667
10386TIP3    H231104   2.130   1.805   6.738
10387TIP3   OH231105   2.407   1.655   4.011
10387TIP3    H131106   2.464   1.711   3.959
10387TIP3    H231107   2.466   1.593   4.054
10388TIP3   OH231108   0.205   1.569   2.920
10388TIP3    H131109   0.219   1.490   2.868
10388TIP3    H231110   0.160   1.629   2.861
10389TIP3   OH231111   2.267   6.642   3.295
10389TIP3    H131112   2.199   6.703   3.321
10389TIP3    H231113   2.257   6.568   3.356
10390TIP3   OH231114   5.349   1.903   6.643
10390TIP3    H131115   5.326   1.913   6.735
10390TIP3    H231116   5.389   1.986   6.619
10391TIP3   OH231117   5.630   4.169   5.999
10391TIP3    H131118   5.573   4.216   5.937
10391TIP3    H231119   5.612   4.209   6.084
10392TIP3   OH231120   5.292   0.570   6.079
10392TIP3    H131121   5.365   0.566   6.017
10392TIP3    H231122   5.236   0.495   6.055
10393TIP3   OH231123   4.054   7.632   4.786
10393TIP3    H131124   4.002   7.689   4.842
10393TIP3    H231125   4.104   7.578   4.848
10394TIP3   OH231126   1.863   0.320   0.537
10394TIP3    H131127   1.881   0.228   0.558
10394TIP3    H231128   1.776   0.336   0.573
10395TIP3   OH231129   4.026   0.650   2.464
10395TIP3    H131130   4.082   0.683   2.534
10395TIP3    H231131   4.072   0.674   2.384
10396TIP3   OH231132   4.674   1.221   0.318
10396TIP3    H131133   4.746   1.264   0.365
10396TIP3    H231134   4.616   1.293   0.294
10397TIP3   OH231135   6.897   3.843   5.209
10397TIP3    H131136   6.924   3.811   5.123
10397TIP3    H231137   6.873   3.935   5.194
10398TIP3   OH231138   6.463   3.107   0.571
10398TIP3    H131139   6.440   3.126   0.661
10398TIP3    H231140   6.534   3.169   0.551
10399TIP3   OH231141   1.551   5.056   4.489
10399TIP3    H131142   1.533   5.062   4.396
10399TIP3    H231143   1.540   5.145   4.522
10400TIP3   OH231144   3.467   2.974   6.268
10400TIP3    H131145   3.391   2.916   6.263
10400TIP3    H231146   3.453   3.025   6.348
10401TIP3   OH231147   0.663   0.045   5.252
10401TIP3    H131148   0.751   0.024   5.221
10401TIP3    H231149   0.666   0.030   5.347
10402TIP3   OH231150   7.163   3.340   1.748
10402TIP3    H131151   7.230   3.398   1.784
10402TIP3    H231152   7.085   3.361   1.800
10403TIP3   OH231153   6.239   2.645   3.776
10403TIP3    H131154   6.306   2.699   3.818
10403TIP3    H231155   6.174   2.628   3.845
10404TIP3   OH231156   4.723   2.402   4.569
10404TIP3    H131157   4.627   2.395   4.562
10404TIP3    H231158   4.753   2.412   4.479
10405TIP3   OH231159   3.029   5.074   2.063
10405TIP3    H131160   2.967   5.141   2.091
10405TIP3    H231161   3.064   5.037   2.144
10406TIP3   OH231162   3.550   0.021   4.698
10406TIP3    H131163   3.537  -0.018   4.785
10406TIP3    H231164   3.617   0.088   4.712
10407TIP3   OH231165   2.870   6.712   2.861
10407TIP3    H131166   2.882   6.617   2.866
10407TIP3    H231167   2.806   6.732   2.929
10408TIP3   OH231168   3.462   6.283   4.453
10408TIP3    H131169   3.527   6.352   4.464
10408TIP3    H231170   3.513   6.207   4.425
10409TIP3   OH231171   4.536   6.309   3.635
10409TIP3    H131172   4.621   6.297   3.592
10409TIP3    H231173   4.473   6.312   3.563
10410TIP3   OH231174   6.960   6.029   5.794
10410TIP3    H131175   6.961   6.111   5.844
10410TIP3    H231176   6.870   6.022   5.762
10411TIP3   OH231177   6.815   5.822   4.778
10411TIP3    H131178   6.903   5.785   4.765
10411TIP3    H231179   6.783   5.779   4.857
10412TIP3   OH231180   0.153   6.908   2.656
10412TIP3    H131181   0.166   6.871   2.743
10412TIP3    H231182   0.227   6.878   2.605
10413TIP3   OH231183   2.240   5.083   1.134
10413TIP3    H131184   2.184   5.064   1.209
10413TIP3    H231185   2.279   4.999   1.112
10414TIP3   OH231186   0.852   4.288   0.280
10414TIP3    H131187   0.857   4.377   0.317
10414TIP3    H231188   0.828   4.233   0.355
10415TIP3   OH231189   4.257   0.765   0.012
10415TIP3    H131190   4.334   0.761   0.069
10415TIP3    H231191   4.236   0.858   0.007
10416TIP3   OH231192   1.568   3.071   3.290
10416TIP3    H131193   1.616   3.152   3.309
10416TIP3    H231194   1.635   3.004   3.285
10417TIP3   OH231195   1.798   4.701   0.466
10417TIP3    H131196   1.719   4.665   0.425
10417TIP3    H231197   1.803   4.659   0.551
10418TIP3   OH231198   3.647   0.706   4.907
10418TIP3    H131199   3.742   0.720   4.905
10418TIP3    H231200   3.636   0.614   4.883
10419TIP3   OH231201   4.780   4.065   1.998
10419TIP3    H131202   4.785   4.149   2.044
10419TIP3    H231203   4.791   3.999   2.067
10420TIP3   OH231204   1.874   4.373   1.943
10420TIP3    H131205   1.942   4.438   1.960
10420TIP3    H231206   1.792   4.423   1.941
10421TIP3   OH231207   5.726   7.102   2.321
10421TIP3    H131208   5.757   7.147   2.243
10421TIP3    H231209   5.638   7.071   2.298
10422TIP3   OH231210   1.182   6.261   2.079
10422TIP3    H131211   1.128   6.199   2.129
10422TIP3    H231212   1.173   6.233   1.988
10423TIP3   OH231213   3.970   5.814   2.906
10423TIP3    H131214   4.040   5.865   2.865
10423TIP3    H231215   4.006   5.725   2.914
10424TIP3   OH231216   5.319   5.702   0.462
10424TIP3    H131217   5.352   5.710   0.372
10424TIP3    H231218   5.339   5.787   0.502
10425TIP3   OH231219   2.582   4.924   5.209
10425TIP3    H131220   2.502   4.892   5.168
10425TIP3    H231221   2.593   4.868   5.286
10426TIP3   OH231222   1.385   0.608   0.090
10426TIP3    H131223   1.438   0.548   0.038
10426TIP3    H231224   1.302   0.561   0.104
10427TIP3   OH231225   6.841   3.870   4.798
10427TIP3    H131226   6.780   3.933   4.836
10427TIP3    H231227   6.872   3.912   4.718
10428TIP3   OH231228   3.860   0.274   6.032
10428TIP3    H131229   3.899   0.339   5.973
10428TIP3    H231230   3.782   0.317   6.066
10429TIP3   OH231231   1.431   5.810   1.795
10429TIP3    H131232   1.514   5.771   1.769
10429TIP3    H231233   1.436   5.901   1.765
10430TIP3   OH231234   8.109   0.847   3.778
10430TIP3    H131235   8.205   0.850   3.775
10430TIP3    H231236   8.083   0.815   3.692
10431TIP3   OH231237   3.975   1.860   6.198
10431TIP3    H131238   3.935   1.830   6.279
10431TIP3    H231239   4.068   1.866   6.217
10432TIP3   OH231240   0.469   1.513   4.320
10432TIP3    H131241   0.454   1.607   4.314
10432TIP3    H231242   0.554   1.504   4.364
10433TIP3   OH231243   5.136   0.764   3.974
10433TIP3    H131244   5.116   0.701   3.904
10433TIP3    H231245   5.210   0.815   3.940
10434TIP3   OH231246   5.267   2.981   1.570
10434TIP3    H131247   5.185   2.931   1.567
10434TIP3    H231248   5.247   3.056   1.626
10435TIP3   OH231249   4.742   7.640   4.659
10435TIP3    H131250   4.724   7.672   4.748
10435TIP3    H231251   4.656   7.616   4.624
10436TIP3   OH231252   4.701   4.314   6.388
10436TIP3    H131253   4.776   4.372   6.377
10436TIP3    H231254   4.738   4.226   6.386
10437TIP3   OH231255   7.645   1.090   2.983
10437TIP3    H131256   7.669   1.046   3.064
10437TIP3    H231257   7.678   1.179   2.993
10438TIP3   OH231258   3.691   5.461   1.852
10438TIP3    H131259   3.751   5.518   1.804
10438TIP3    H231260   3.634   5.424   1.785
10439TIP3   OH231261   6.633   6.955   2.956
10439TIP3    H131262   6.593   7.015   2.893
10439TIP3    H231263   6.677   6.889   2.902
10440TIP3   OH231264   7.508   4.984   2.932
10440TIP3    H131265   7.575   5.037   2.890
10440TIP3    H231266   7.550   4.900   2.947
10441TIP3   OH231267   4.612   1.202   6.533
10441TIP3    H131268   4.560   1.258   6.476
10441TIP3    H231269   4.687   1.256   6.558
10442TIP3   OH231270   0.082   3.537   5.567
10442TIP3    H131271   0.008   3.599   5.567
10442TIP3    H231272   0.128   3.555   5.649
10443TIP3   OH231273   0.974   6.415   2.751
10443TIP3    H131274   0.946   6.412   2.843
10443TIP3    H231275   1.031   6.491   2.747
10444TIP3   OH231276   1.398   4.738   1.537
10444TIP3    H131277   1.326   4.800   1.550
10444TIP3    H231278   1.470   4.776   1.587
10445TIP3   OH231279   7.937   1.138   6.475
10445TIP3    H131280   7.920   1.218   6.425
10445TIP3    H231281   7.870   1.076   6.445
10446TIP3   OH231282   7.732   2.800   2.694
10446TIP3    H131283   7.729   2.731   2.759
10446TIP3    H231284   7.819   2.838   2.702
10447TIP3   OH231285   7.614   4.485   3.699
10447TIP3    H131286   7.613   4.578   3.721
10447TIP3    H231287   7.699   4.470   3.659
10448TIP3   OH231288   1.427   1.513   0.897
10448TIP3    H131289   1.379   1.590   0.929
10448TIP3    H231290   1.431   1.455   0.973
10449TIP3   OH231291   6.441   6.317   5.686
10449TIP3    H131292   6.443   6.235   5.637
10449TIP3    H231293   6.474   6.382   5.624
10450TIP3   OH231294   7.646   2.380   4.086
10450TIP3    H131295   7.551   2.372   4.078
10450TIP3    H231296   7.676   2.392   3.996
10451TIP3   OH231297   7.478   5.999   6.216
10451TIP3    H131298   7.532   6.073   6.190
10451TIP3    H231299   7.537   5.940   6.262
10452TIP3   OH231300   6.977   0.423   4.880
10452TIP3    H131301   6.886   0.448   4.863
10452TIP3    H231302   7.000   0.364   4.809
10453TIP3   OH231303   3.351   1.123   5.967
10453TIP3    H131304   3.382   1.155   6.052
10453TIP3    H231305   3.386   1.034   5.962
10454TIP3   OH231306   1.654   0.750   5.773
10454TIP3    H131307   1.609   0.760   5.857
10454TIP3    H231308   1.586   0.721   5.713
10455TIP3   OH231309   2.112   4.266   4.664
10455TIP3    H131310   2.174   4.326   4.624
10455TIP3    H231311   2.157   4.182   4.665
10456TIP3   OH231312   3.788   6.894   4.330
10456TIP3    H131313   3.778   6.810   4.375
10456TIP3    H231314   3.867   6.932   4.368
10457TIP3   OH231315   4.300   7.045   0.450
10457TIP3    H131316   4.325   6.964   0.495
10457TIP3    H231317   4.344   7.114   0.501
10458TIP3   OH231318   2.569   5.629   2.770
10458TIP3    H131319   2.582   5.537   2.747
10458TIP3    H231320   2.613   5.678   2.701
10459TIP3   OH231321   4.124   2.870   1.801
10459TIP3    H131322   4.101   2.953   1.759
10459TIP3    H231323   4.181   2.827   1.738
10460TIP3   OH231324   3.979   6.055   3.927
10460TIP3    H131325   3.968   6.118   3.998
10460TIP3    H231326   4.073   6.038   3.924
10461TIP3   OH231327   5.835   7.139   3.312
10461TIP3    H131328   5.817   7.058   3.263
10461TIP3    H231329   5.749   7.169   3.341
10462TIP3   OH231330   6.604   2.306   0.335
10462TIP3    H131331   6.563   2.386   0.368
10462TIP3    H231332   6.534   2.261   0.287
10463TIP3   OH231333   4.463   5.696   4.537
10463TIP3    H131334   4.445   5.604   4.518
10463TIP3    H231335   4.545   5.715   4.492
10464TIP3   OH231336   1.430   7.517   2.028
10464TIP3    H131337   1.443   7.533   2.121
10464TIP3    H231338   1.492   7.576   1.985
10465TIP3   OH231339   1.443   4.183   6.101
10465TIP3    H131340   1.430   4.181   6.006
10465TIP3    H231341   1.443   4.276   6.124
10466TIP3   OH231342   7.115   2.841   2.518
10466TIP3    H131343   7.060   2.790   2.459
10466TIP3    H231344   7.190   2.868   2.464
10467TIP3   OH231345   4.637   0.591   2.597
10467TIP3    H131346   4.588   0.637   2.666
10467TIP3    H231347   4.667   0.661   2.539
10468TIP3   OH231348   1.841   1.500   4.553
10468TIP3    H131349   1.911   1.559   4.582
10468TIP3    H231350   1.874   1.412   4.571
10469TIP3   OH231351   7.312   4.702   3.485
10469TIP3    H131352   7.341   4.613   3.505
10469TIP3    H231353   7.222   4.706   3.519
10470TIP3   OH231354   1.546   1.765   0.488
10470TIP3    H131355   1.510   1.694   0.541
10470TIP3    H231356   1.556   1.838   0.550
10471TIP3   OH231357   5.037   1.612   5.170
10471TIP3    H131358   5.118   1.655   5.200
10471TIP3    H231359   5.051   1.520   5.189
10472TIP3   OH231360   2.461   1.958   0.108
10472TIP3    H131361   2.460   1.874   0.155
10472TIP3    H231362   2.535   2.005   0.145
10473TIP3   OH231363   5.781   2.374   1.245
10473TIP3    H131364   5.814   2.291   1.212
10473TIP3    H231365   5.734   2.413   1.171
10474TIP3   OH231366   4.584   6.123   3.830
10474TIP3    H131367   4.592   6.188   3.761
10474TIP3    H231368   4.668   6.077   3.829
10475TIP3   OH231369   5.317   2.106   1.033
10475TIP3    H131370   5.323   2.029   1.090
10475TIP3    H231371   5.276   2.074   0.953
10476TIP3   OH231372   2.881   3.122   0.635
10476TIP3    H131373   2.950   3.159   0.690
10476TIP3    H231374   2.838   3.057   0.691
10477TIP3   OH231375   6.549   0.732   5.110
10477TIP3    H131376   6.538   0.693   5.196
10477TIP3    H231377   6.498   0.813   5.113
10478TIP3   OH231378   1.984   4.644   2.611
10478TIP3    H131379   2.046   4.643   2.539
10478TIP3    H231380   1.995   4.731   2.651
10479TIP3   OH231381   2.413   5.870   6.191
10479TIP3    H131382   2.485   5.890   6.132
10479TIP3    H231383   2.427   5.925   6.268
10480TIP3   OH231384   0.751   5.037   5.053
10480TIP3    H131385   0.744   4.942   5.056
10480TIP3    H231386   0.714   5.066   5.136
10481TIP3   OH231387   0.098   7.174   2.557
10481TIP3    H131388   0.014   7.131   2.543
10481TIP3    H231389   0.160   7.101   2.568
10482TIP3   OH231390   6.609   7.334   1.301
10482TIP3    H131391   6.570   7.335   1.388
10482TIP3    H231392   6.535   7.328   1.241
10483TIP3   OH231393   3.999   5.241   0.748
10483TIP3    H131394   4.047   5.263   0.828
10483TIP3    H231395   4.017   5.148   0.734
10484TIP3   OH231396   7.887   7.448   3.210
10484TIP3    H131397   7.845   7.381   3.264
10484TIP3    H231398   7.900   7.406   3.125
10485TIP3   OH231399   1.429   6.987   0.431
10485TIP3    H131400   1.462   7.029   0.510
10485TIP3    H231401   1.474   7.032   0.359
10486TIP3   OH231402   7.433   1.053   3.193
10486TIP3    H131403   7.519   1.016   3.210
10486TIP3    H231404   7.388   0.988   3.140
10487TIP3   OH231405   1.112   1.279   3.611
10487TIP3    H131406   1.028   1.266   3.565
10487TIP3    H231407   1.140   1.190   3.634
10488TIP3   OH231408   1.485   4.113   5.845
10488TIP3    H131409   1.488   4.141   5.753
10488TIP3    H231410   1.527   4.027   5.845
10489TIP3   OH231411   7.785   5.992   2.148
10489TIP3    H131412   7.729   5.981   2.225
10489TIP3    H231413   7.841   5.915   2.148
10490TIP3   OH231414   6.823   5.198   3.770
10490TIP3    H131415   6.841   5.160   3.856
10490TIP3    H231416   6.728   5.203   3.764
10491TIP3   OH231417   1.341   5.871   0.108
10491TIP3    H131418   1.426   5.837   0.137
10491TIP3    H231419   1.362   5.950   0.059
10492TIP3   OH231420   3.440   1.314   6.692
10492TIP3    H131421   3.428   1.289   6.783
10492TIP3    H231422   3.352   1.326   6.658
10493TIP3   OH231423   3.196   2.858   2.071
10493TIP3    H131424   3.212   2.866   2.164
10493TIP3    H231425   3.108   2.820   2.065
10494TIP3   OH231426   6.803   0.014   1.169
10494TIP3    H131427   6.737  -0.015   1.107
10494TIP3    H231428   6.764   0.090   1.212
10495TIP3   OH231429   6.656   7.232   2.544
10495TIP3    H131430   6.700   7.276   2.616
10495TIP3    H231431   6.711   7.249   2.468
10496TIP3   OH231432   7.089   0.536   2.467
10496TIP3    H131433   7.176   0.519   2.432
10496TIP3    H231434   7.030   0.522   2.393
10497TIP3   OH231435   4.788   2.040   0.488
10497TIP3    H131436   4.852   2.041   0.416
10497TIP3    H231437   4.714   2.091   0.456
10498TIP3   OH231438   3.274   0.914   6.193
10498TIP3    H131439   3.257   0.913   6.287
10498TIP3    H231440   3.368   0.932   6.186
10499TIP3   OH231441   7.897   1.749   6.564
10499TIP3    H131442   7.807   1.714   6.562
10499TIP3    H231443   7.897   1.811   6.636
10500TIP3   OH231444   4.730   3.260   5.537
10500TIP3    H131445   4.792   3.331   5.553
10500TIP3    H231446   4.657   3.278   5.595
10501TIP3   OH231447   1.193   3.791   2.595
10501TIP3    H131448   1.249   3.739   2.651
10501TIP3    H231449   1.253   3.844   2.543
10502TIP3   OH231450   6.306   2.828   6.149
10502TIP3    H131451   6.273   2.869   6.069
10502TIP3    H231452   6.230   2.785   6.187
10503TIP3   OH231453   7.945   0.262   1.387
10503TIP3    H131454   7.894   0.299   1.459
10503TIP3    H231455   7.908   0.174   1.374
10504TIP3   OH231456   0.812   6.780   5.603
10504TIP3    H131457   0.863   6.854   5.570
10504TIP3    H231458   0.813   6.716   5.532
10505TIP3   OH231459   3.392   1.482   5.648
10505TIP3    H131460   3.373   1.423   5.720
10505TIP3    H231461   3.307   1.514   5.620
10506TIP3   OH231462   6.329   2.739   2.176
10506TIP3    H131463   6.349   2.646   2.168
10506TIP3    H231464   6.365   2.779   2.097
10507TIP3   OH231465   6.237   2.704   5.279
10507TIP3    H131466   6.154   2.743   5.305
10507TIP3    H231467   6.231   2.613   5.308
10508TIP3   OH231468   1.002   7.507   6.766
10508TIP3    H131469   0.916   7.549   6.761
10508TIP3    H231470   1.058   7.573   6.807
10509TIP3   OH231471   1.067   6.993   2.042
10509TIP3    H131472   1.017   7.007   2.122
10509TIP3    H231473   1.128   6.922   2.064
10510TIP3   OH231474   5.073   2.104   1.627
10510TIP3    H131475   5.141   2.126   1.564
10510TIP3    H231476   5.120   2.091   1.709
10511TIP3   OH231477   7.850   0.640   1.936
10511TIP3    H131478   7.845   0.564   1.993
10511TIP3    H231479   7.764   0.683   1.946
10512TIP3   OH231480   0.494   7.521   0.776
10512TIP3    H131481   0.556   7.498   0.708
10512TIP3    H231482   0.532   7.598   0.819
10513TIP3   OH231483   0.919   3.733   2.604
10513TIP3    H131484   0.876   3.752   2.687
10513TIP3    H231485   1.013   3.738   2.625
10514TIP3   OH231486   4.093   2.820   2.808
10514TIP3    H131487   4.164   2.885   2.800
10514TIP3    H231488   4.125   2.757   2.872
10515TIP3   OH231489   0.202   1.551   2.509
10515TIP3    H131490   0.211   1.632   2.558
10515TIP3    H231491   0.186   1.484   2.576
10516TIP3   OH231492   5.412   7.040   1.783
10516TIP3    H131493   5.443   7.045   1.692
10516TIP3    H231494   5.329   7.088   1.782
10517TIP3   OH231495   0.119   1.079   1.348
10517TIP3    H131496   0.048   1.078   1.283
10517TIP3    H231497   0.181   1.014   1.318
10518TIP3   OH231498   2.785   6.394   6.048
10518TIP3    H131499   2.835   6.447   6.111
10518TIP3    H231500   2.852   6.348   5.997
10519TIP3   OH231501   1.649   4.140   5.215
10519TIP3    H131502   1.656   4.152   5.120
10519TIP3    H231503   1.555   4.133   5.231
10520TIP3   OH231504   6.733   1.527   6.587
10520TIP3    H131505   6.721   1.534   6.682
10520TIP3    H231506   6.813   1.577   6.570
10521TIP3   OH231507   1.660   5.575   5.130
10521TIP3    H131508   1.618   5.594   5.214
10521TIP3    H231509   1.716   5.651   5.114
10522TIP3   OH231510   6.033   6.148   3.775
10522TIP3    H131511   6.091   6.212   3.816
10522TIP3    H231512   5.988   6.105   3.848
10523TIP3   OH231513   3.744   5.904   5.431
10523TIP3    H131514   3.731   5.995   5.458
10523TIP3    H231515   3.839   5.894   5.428
10524TIP3   OH231516   4.740   7.329   4.158
10524TIP3    H131517   4.718   7.394   4.092
10524TIP3    H231518   4.715   7.245   4.120
10525TIP3   OH231519   5.578   7.380   3.063
10525TIP3    H131520   5.559   7.463   3.020
10525TIP3    H231521   5.673   7.378   3.071
10526TIP3   OH231522   5.332   5.077   3.270
10526TIP3    H131523   5.268   5.007   3.258
10526TIP3    H231524   5.358   5.103   3.181
10527TIP3   OH231525   7.196   0.378   3.929
10527TIP3    H131526   7.178   0.462   3.887
10527TIP3    H231527   7.149   0.382   4.012
10528TIP3   OH231528   3.949   1.212   3.013
10528TIP3    H131529   3.968   1.119   3.022
10528TIP3    H231530   3.986   1.251   3.093
10529TIP3   OH231531   2.875   2.443   6.713
10529TIP3    H131532   2.957   2.429   6.664
10529TIP3    H231533   2.835   2.356   6.717
10530TIP3   OH231534   1.425   1.259   6.386
10530TIP3    H131535   1.425   1.285   6.294
10530TIP3    H231536   1.471   1.175   6.387
10531TIP3   OH231537   5.006   2.554   6.580
10531TIP3    H131538   4.953   2.624   6.542
10531TIP3    H231539   4.942   2.493   6.616
10532TIP3   OH231540   7.291   7.297   4.796
10532TIP3    H131541   7.220   7.233   4.796
10532TIP3    H231542   7.356   7.261   4.856
10533TIP3   OH231543   4.634   0.578   5.109
10533TIP3    H131544   4.682   0.584   5.192
10533TIP3    H231545   4.542   0.583   5.134
10534TIP3   OH231546   7.614   0.138   4.050
10534TIP3    H131547   7.570   0.140   3.965
10534TIP3    H231548   7.695   0.088   4.034
10535TIP3   OH231549   2.766   6.509   5.265
10535TIP3    H131550   2.755   6.594   5.223
10535TIP3    H231551   2.832   6.525   5.333
10536TIP3   OH231552   7.831   5.198   4.426
10536TIP3    H131553   7.912   5.146   4.433
10536TIP3    H231554   7.767   5.149   4.478
10537TIP3   OH231555   3.394   3.638   6.497
10537TIP3    H131556   3.460   3.660   6.431
10537TIP3    H231557   3.344   3.567   6.457
10538TIP3   OH231558   3.960   4.301   1.444
10538TIP3    H131559   3.984   4.353   1.520
10538TIP3    H231560   3.867   4.321   1.429
10539TIP3   OH231561   7.857   5.299   4.898
10539TIP3    H131562   7.936   5.270   4.943
10539TIP3    H231563   7.801   5.334   4.969
10540TIP3   OH231564   5.047   3.695   0.738
10540TIP3    H131565   5.086   3.711   0.651
10540TIP3    H231566   4.953   3.711   0.725
10541TIP3   OH231567   2.141   1.619   1.976
10541TIP3    H131568   2.124   1.705   2.014
10541TIP3    H231569   2.057   1.573   1.981
10542TIP3   OH231570   0.217   4.246   1.241
10542TIP3    H131571   0.283   4.280   1.302
10542TIP3    H231572   0.189   4.323   1.191
10543TIP3   OH231573   5.964   4.556   0.281
10543TIP3    H131574   5.881   4.597   0.257
10543TIP3    H231575   5.997   4.609   0.354
10544TIP3   OH231576   3.107   4.136   1.186
10544TIP3    H131577   3.112   4.220   1.139
10544TIP3    H231578   3.198   4.117   1.211
10545TIP3   OH231579   4.057   3.689   3.536
10545TIP3    H131580   4.096   3.617   3.586
10545TIP3    H231581   4.004   3.736   3.600
10546TIP3   OH231582   0.996   6.089   5.235
10546TIP3    H131583   0.935   6.140   5.288
10546TIP3    H231584   0.947   6.011   5.211
10547TIP3   OH231585   7.057   0.172   0.847
10547TIP3    H131586   7.036   0.080   0.863
10547TIP3    H231587   7.121   0.170   0.776
10548TIP3   OH231588   5.394   5.029   5.298
10548TIP3    H131589   5.332   5.067   5.236
10548TIP3    H231590   5.442   4.964   5.247
10549TIP3   OH231591   7.124   4.600   3.137
10549TIP3    H131592   7.030   4.590   3.119
10549TIP3    H231593   7.130   4.680   3.189
10550TIP3   OH231594   6.239   1.284   3.948
10550TIP3    H131595   6.272   1.356   4.002
10550TIP3    H231596   6.277   1.205   3.988
10551TIP3   OH231597   4.535   0.885   1.584
10551TIP3    H131598   4.471   0.819   1.556
10551TIP3    H231599   4.580   0.844   1.657
10552TIP3   OH231600   6.406   1.314   5.691
10552TIP3    H131601   6.321   1.356   5.685
10552TIP3    H231602   6.447   1.330   5.606
10553TIP3   OH231603   1.693   7.657   6.303
10553TIP3    H131604   1.680   7.675   6.210
10553TIP3    H231605   1.702   7.561   6.307
10554TIP3   OH231606   5.098   5.518   2.991
10554TIP3    H131607   5.074   5.598   3.038
10554TIP3    H231608   5.052   5.524   2.908
10555TIP3   OH231609   0.736   7.529   3.849
10555TIP3    H131610   0.682   7.469   3.900
10555TIP3    H231611   0.825   7.499   3.863
10556TIP3   OH231612   0.779   0.499   0.096
10556TIP3    H131613   0.685   0.487   0.083
10556TIP3    H231614   0.818   0.478   0.011
10557TIP3   OH231615   5.637   6.356   1.523
10557TIP3    H131616   5.640   6.449   1.499
10557TIP3    H231617   5.629   6.356   1.618
10558TIP3   OH231618   4.293   2.496   2.407
10558TIP3    H131619   4.198   2.481   2.402
10558TIP3    H231620   4.317   2.528   2.321
10559TIP3   OH231621   3.822   3.451   4.573
10559TIP3    H131622   3.903   3.444   4.523
10559TIP3    H231623   3.813   3.365   4.615
10560TIP3   OH231624   1.612   4.908   1.593
10560TIP3    H131625   1.546   4.971   1.565
10560TIP3    H231626   1.684   4.920   1.532
10561TIP3   OH231627   1.173   0.494   3.022
10561TIP3    H131628   1.229   0.444   2.962
10561TIP3    H231629   1.220   0.577   3.035
10562TIP3   OH231630   3.681   4.113   3.722
10562TIP3    H131631   3.774   4.112   3.700
10562TIP3    H231632   3.639   4.066   3.649
10563TIP3   OH231633   5.658   0.876   2.845
10563TIP3    H131634   5.744   0.883   2.803
10563TIP3    H231635   5.636   0.966   2.869
10564TIP3   OH231636   6.208   0.979   0.527
10564TIP3    H131637   6.226   1.070   0.504
10564TIP3    H231638   6.287   0.932   0.504
10565TIP3   OH231639   2.756   0.511   4.062
10565TIP3    H131640   2.740   0.532   3.971
10565TIP3    H231641   2.680   0.460   4.090
10566TIP3   OH231642   5.698   2.750   2.534
10566TIP3    H131643   5.703   2.753   2.629
10566TIP3    H231644   5.704   2.657   2.512
10567TIP3   OH231645   5.829   6.503   6.319
10567TIP3    H131646   5.832   6.419   6.272
10567TIP3    H231647   5.897   6.494   6.386
10568TIP3   OH231648   1.744   5.489   4.487
10568TIP3    H131649   1.789   5.438   4.555
10568TIP3    H231650   1.784   5.576   4.492
10569TIP3   OH231651   3.137   4.635   1.709
10569TIP3    H131652   3.119   4.552   1.664
10569TIP3    H231653   3.219   4.666   1.671
10570TIP3   OH231654   6.006   5.520   1.437
10570TIP3    H131655   6.063   5.474   1.376
10570TIP3    H231656   6.059   5.533   1.515
10571TIP3   OH231657   1.061   3.660   2.125
10571TIP3    H131658   1.150   3.684   2.152
10571TIP3    H231659   1.006   3.689   2.198
10572TIP3   OH231660   0.535   6.106   3.422
10572TIP3    H131661   0.501   6.125   3.335
10572TIP3    H231662   0.484   6.031   3.452
10573TIP3   OH231663   1.785   7.397   0.489
10573TIP3    H131664   1.749   7.454   0.556
10573TIP3    H231665   1.730   7.413   0.412
10574TIP3   OH231666   3.423   6.797   2.124
10574TIP3    H131667   3.389   6.829   2.207
10574TIP3    H231668   3.347   6.795   2.066
10575TIP3   OH231669   7.380   3.447   4.956
10575TIP3    H131670   7.364   3.357   4.983
10575TIP3    H231671   7.383   3.443   4.860
10576TIP3   OH231672   4.444   1.419   4.484
10576TIP3    H131673   4.469   1.507   4.454
10576TIP3    H231674   4.528   1.375   4.500
10577TIP3   OH231675   7.298   1.494   4.971
10577TIP3    H131676   7.364   1.471   4.906
10577TIP3    H231677   7.220   1.516   4.920
10578TIP3   OH231678   4.758   2.215   2.140
10578TIP3    H131679   4.762   2.149   2.209
10578TIP3    H231680   4.831   2.195   2.082
10579TIP3   OH231681   3.936   1.251   6.046
10579TIP3    H131682   3.884   1.247   6.127
10579TIP3    H231683   3.878   1.291   5.982
10580TIP3   OH231684   0.078   0.424   1.722
10580TIP3    H131685   0.132   0.405   1.646
10580TIP3    H231686   0.000   0.468   1.686
10581TIP3   OH231687   4.498   0.085   1.199
10581TIP3    H131688   4.540   0.041   1.272
10581TIP3    H231689   4.412   0.043   1.192
10582TIP3   OH231690   6.542   2.380   5.203
10582TIP3    H131691   6.592   2.378   5.285
10582TIP3    H231692   6.564   2.465   5.164
10583TIP3   OH231693   5.300   4.575   0.483
10583TIP3    H131694   5.313   4.532   0.398
10583TIP3    H231695   5.220   4.535   0.517
10584TIP3   OH231696   4.944   7.491   6.764
10584TIP3    H131697   4.934   7.526   6.853
10584TIP3    H231698   4.906   7.558   6.708
10585TIP3   OH231699   1.652   5.074   2.332
10585TIP3    H131700   1.579   5.069   2.271
10585TIP3    H231701   1.683   5.165   2.325
10586TIP3   OH231702   5.593   1.180   5.774
10586TIP3    H131703   5.655   1.217   5.711
10586TIP3    H231704   5.590   1.087   5.752
10587TIP3   OH231705   1.996   5.620   6.347
10587TIP3    H131706   2.069   5.564   6.322
10587TIP3    H231707   1.964   5.657   6.265
10588TIP3   OH231708   2.841   0.799   1.200
10588TIP3    H131709   2.781   0.837   1.136
10588TIP3    H231710   2.858   0.870   1.262
10589TIP3   OH231711   1.346   5.694   5.071
10589TIP3    H131712   1.324   5.707   5.164
10589TIP3    H231713   1.375   5.603   5.066
10590TIP3   OH231714   6.890   4.332   1.791
10590TIP3    H131715   6.847   4.268   1.735
10590TIP3    H231716   6.977   4.296   1.806
10591TIP3   OH231717   2.569   5.578   1.068
10591TIP3    H131718   2.515   5.513   1.113
10591TIP3    H231719   2.615   5.529   1.000
10592TIP3   OH231720   0.697   2.811   0.286
10592TIP3    H131721   0.788   2.797   0.311
10592TIP3    H231722   0.692   2.780   0.196
10593TIP3   OH231723   5.964   4.637   4.633
10593TIP3    H131724   5.943   4.559   4.685
10593TIP3    H231725   5.921   4.622   4.549
10594TIP3   OH231726   6.148   5.639   1.678
10594TIP3    H131727   6.103   5.633   1.762
10594TIP3    H231728   6.143   5.731   1.654
10595TIP3   OH231729   6.242   3.272   2.347
10595TIP3    H131730   6.154   3.266   2.384
10595TIP3    H231731   6.239   3.218   2.268
10596TIP3   OH231732   3.735   6.421   5.154
10596TIP3    H131733   3.647   6.422   5.118
10596TIP3    H231734   3.782   6.356   5.103
10597TIP3   OH231735   7.842   7.335   1.237
10597TIP3    H131736   7.757   7.350   1.197
10597TIP3    H231737   7.823   7.288   1.318
10598TIP3   OH231738   3.665   6.976   2.854
10598TIP3    H131739   3.605   7.045   2.825
10598TIP3    H231740   3.740   7.022   2.890
10599TIP3   OH231741   3.990   5.251   6.008
10599TIP3    H131742   4.075   5.268   6.050
10599TIP3    H231743   3.939   5.331   6.025
10600TIP3   OH231744   4.181   1.533   3.933
10600TIP3    H131745   4.229   1.556   3.853
10600TIP3    H231746   4.138   1.450   3.912
10601TIP3   OH231747   1.511   4.032   0.867
10601TIP3    H131748   1.576   3.995   0.808
10601TIP3    H231749   1.492   4.119   0.831
10602TIP3   OH231750   0.634   5.653   3.372
10602TIP3    H131751   0.631   5.558   3.371
10602TIP3    H231752   0.683   5.676   3.292
10603TIP3   OH231753   6.036   5.703   6.594
10603TIP3    H131754   6.114   5.729   6.642
10603TIP3    H231755   6.013   5.779   6.541
10604TIP3   OH231756   1.413   0.937   5.221
10604TIP3    H131757   1.413   0.946   5.316
10604TIP3    H231758   1.506   0.933   5.198
10605TIP3   OH231759   7.244   1.939   1.728
10605TIP3    H131760   7.210   1.991   1.656
10605TIP3    H231761   7.184   1.955   1.801
10606TIP3   OH231762   0.328   6.363   3.576
10606TIP3    H131763   0.242   6.341   3.539
10606TIP3    H231764   0.381   6.385   3.500
10607TIP3   OH231765   3.938   4.445   3.018
10607TIP3    H131766   3.906   4.503   2.949
10607TIP3    H231767   3.862   4.390   3.039
10608TIP3   OH231768   7.884   6.965   3.478
10608TIP3    H131769   7.821   6.895   3.463
10608TIP3    H231770   7.860   7.002   3.563
10609TIP3   OH231771   4.589   2.080   3.574
10609TIP3    H131772   4.625   2.169   3.574
10609TIP3    H231773   4.512   2.085   3.517
10610TIP3   OH231774   4.850   1.082   0.647
10610TIP3    H131775   4.887   1.058   0.732
10610TIP3    H231776   4.780   1.144   0.668
10611TIP3   OH231777   4.558   4.638   1.137
10611TIP3    H131778   4.614   4.709   1.105
10611TIP3    H231779   4.619   4.575   1.176
10612TIP3   OH231780   1.700   7.717   6.663
10612TIP3    H131781   1.714   7.779   6.735
10612TIP3    H231782   1.728   7.765   6.585
10613TIP3   OH231783   2.351   0.340   0.094
10613TIP3    H131784   2.322   0.337   0.185
10613TIP3    H231785   2.272   0.322   0.043
10614TIP3   OH231786   6.376   6.600   2.017
10614TIP3    H131787   6.322   6.645   2.082
10614TIP3    H231788   6.425   6.670   1.973
10615TIP3   OH231789   6.038   6.273   0.228
10615TIP3    H131790   6.054   6.356   0.183
10615TIP3    H231791   6.125   6.241   0.251
10616TIP3   OH231792   7.574   0.995   0.977
10616TIP3    H131793   7.658   0.952   0.993
10616TIP3    H231794   7.596   1.088   0.971
10617TIP3   OH231795   0.120   5.707   4.586
10617TIP3    H131796   0.161   5.622   4.567
10617TIP3    H231797   0.082   5.734   4.503
10618TIP3   OH231798   1.154   3.997   1.494
10618TIP3    H131799   1.093   4.036   1.432
10618TIP3    H231800   1.225   4.062   1.503
10619TIP3   OH231801   1.712   1.577   6.330
10619TIP3    H131802   1.703   1.523   6.409
10619TIP3    H231803   1.642   1.548   6.272
10620TIP3   OH231804   6.464   5.773   0.675
10620TIP3    H131805   6.416   5.794   0.755
10620TIP3    H231806   6.410   5.808   0.604
10621TIP3   OH231807   4.322   4.525   1.167
10621TIP3    H131808   4.395   4.573   1.129
10621TIP3    H231809   4.281   4.480   1.093
10622TIP3   OH231810   2.928   7.234   4.612
10622TIP3    H131811   3.014   7.268   4.589
10622TIP3    H231812   2.887   7.214   4.528
10623TIP3   OH231813   3.038   4.186   3.012
10623TIP3    H131814   3.121   4.184   2.965
10623TIP3    H231815   3.031   4.275   3.046
10624TIP3   OH231816   5.378   2.156   6.492
10624TIP3    H131817   5.358   2.122   6.405
10624TIP3    H231818   5.382   2.251   6.480
10625TIP3   OH231819   1.283   2.106   3.671
10625TIP3    H131820   1.354   2.080   3.729
10625TIP3    H231821   1.307   2.069   3.586
10626TIP3   OH231822   4.541   3.871   3.202
10626TIP3    H131823   4.564   3.781   3.226
10626TIP3    H231824   4.616   3.902   3.152
10627TIP3   OH231825   5.688   5.766   2.064
10627TIP3    H131826   5.631   5.712   2.010
10627TIP3    H231827   5.702   5.845   2.013
10628TIP3   OH231828   7.394   6.094   4.678
10628TIP3    H131829   7.380   6.056   4.765
10628TIP3    H231830   7.313   6.077   4.631
10629TIP3   OH231831   6.172   5.750   4.154
10629TIP3    H131832   6.198   5.788   4.071
10629TIP3    H231833   6.133   5.822   4.203
10630TIP3   OH231834   0.518   1.039   4.730
10630TIP3    H131835   0.570   0.961   4.747
10630TIP3    H231836   0.577   1.112   4.751
10631TIP3   OH231837   1.834   7.680   0.220
10631TIP3    H131838   1.896   7.614   0.250
10631TIP3    H231839   1.753   7.660   0.267
10632TIP3   OH231840   1.315   3.847   4.102
10632TIP3    H131841   1.379   3.797   4.154
10632TIP3    H231842   1.290   3.920   4.158
10633TIP3   OH231843   1.933   5.722   4.496
10633TIP3    H131844   1.982   5.783   4.440
10633TIP3    H231845   1.975   5.731   4.582
10634TIP3   OH231846   0.319   6.885   5.164
10634TIP3    H131847   0.373   6.960   5.189
10634TIP3    H231848   0.368   6.842   5.094
10635TIP3   OH231849   6.553   4.056   5.304
10635TIP3    H131850   6.507   3.981   5.268
10635TIP3    H231851   6.484   4.117   5.330
10636TIP3   OH231852   3.997   2.853   0.263
10636TIP3    H131853   4.074   2.894   0.303
10636TIP3    H231854   4.030   2.810   0.184
10637TIP3   OH231855   5.067   1.300   3.485
10637TIP3    H131856   5.004   1.294   3.413
10637TIP3    H231857   5.015   1.329   3.560
10638TIP3   OH231858   0.366   0.433   4.888
10638TIP3    H131859   0.368   0.469   4.976
10638TIP3    H231860   0.280   0.391   4.881
10639TIP3   OH231861   0.270   5.048   2.166
10639TIP3    H131862   0.273   5.122   2.226
10639TIP3    H231863   0.300   4.973   2.218
10640TIP3   OH231864   5.497   0.572   2.600
10640TIP3    H131865   5.538   0.494   2.640
10640TIP3    H231866   5.480   0.546   2.510
10641TIP3   OH231867   7.140   3.063   0.708
10641TIP3    H131868   7.073   3.117   0.750
10641TIP3    H231869   7.123   2.975   0.741
10642TIP3   OH231870   1.105   6.326   6.746
10642TIP3    H131871   1.152   6.273   6.809
10642TIP3    H231872   1.172   6.358   6.686
10643TIP3   OH231873   4.753   2.966   0.567
10643TIP3    H131874   4.824   2.966   0.632
10643TIP3    H231875   4.720   3.056   0.567
10644TIP3   OH231876   3.138   7.836   0.988
10644TIP3    H131877   3.074   7.794   1.046
10644TIP3    H231878   3.112   7.809   0.900
10645TIP3   OH231879   8.150   1.967   5.827
10645TIP3    H131880   8.110   1.931   5.748
10645TIP3    H231881   8.243   1.947   5.818
10646TIP3   OH231882   3.867   6.945   3.796
10646TIP3    H131883   3.872   6.916   3.887
10646TIP3    H231884   3.883   6.865   3.745
10647TIP3   OH231885   2.923   3.751   4.307
10647TIP3    H131886   2.982   3.826   4.301
10647TIP3    H231887   2.980   3.676   4.325
10648TIP3   OH231888   6.638   1.061   3.915
10648TIP3    H131889   6.639   1.085   4.007
10648TIP3    H231890   6.730   1.060   3.890
10649TIP3   OH231891   3.696   3.729   5.832
10649TIP3    H131892   3.725   3.820   5.826
10649TIP3    H231893   3.716   3.703   5.922
10650TIP3   OH231894   0.220   3.076   5.492
10650TIP3    H131895   0.216   3.051   5.400
10650TIP3    H231896   0.172   3.158   5.497
10651TIP3   OH231897   0.560   4.453   2.679
10651TIP3    H131898   0.655   4.458   2.673
10651TIP3    H231899   0.541   4.465   2.772
10652TIP3   OH231900   1.965   6.033   5.248
10652TIP3    H131901   2.009   6.055   5.166
10652TIP3    H231902   1.875   6.065   5.235
10653TIP3   OH231903   6.016   1.904   1.442
10653TIP3    H131904   5.958   1.912   1.517
10653TIP3    H231905   5.966   1.852   1.379
10654TIP3   OH231906   0.169   1.380   0.446
10654TIP3    H131907   0.248   1.378   0.500
10654TIP3    H231908   0.190   1.442   0.376
10655TIP3   OH231909   0.659   0.448   0.895
10655TIP3    H131910   0.567   0.421   0.895
10655TIP3    H231911   0.660   0.533   0.939
10656TIP3   OH231912   5.059   7.706   1.439
10656TIP3    H131913   4.965   7.703   1.424
10656TIP3    H231914   5.096   7.733   1.355
10657TIP3   OH231915   3.815   6.142   0.223
10657TIP3    H131916   3.852   6.079   0.285
10657TIP3    H231917   3.721   6.141   0.241
10658TIP3   OH231918   1.558   3.749   6.127
10658TIP3    H131919   1.578   3.827   6.179
10658TIP3    H231920   1.488   3.705   6.175
10659TIP3   OH231921   2.975   6.976   5.474
10659TIP3    H131922   2.915   6.946   5.406
10659TIP3    H231923   3.037   6.904   5.485
10660TIP3   OH231924   6.157   6.652   0.773
10660TIP3    H131925   6.161   6.619   0.863
10660TIP3    H231926   6.179   6.576   0.718
10661TIP3   OH231927   3.181   2.827   5.130
10661TIP3    H131928   3.114   2.771   5.169
10661TIP3    H231929   3.158   2.830   5.037
10662TIP3   OH231930   4.774   2.712   1.113
10662TIP3    H131931   4.848   2.683   1.060
10662TIP3    H231932   4.713   2.638   1.111
10663TIP3   OH231933   2.027   0.661   1.335
10663TIP3    H131934   2.032   0.639   1.428
10663TIP3    H231935   1.950   0.614   1.304
10664TIP3   OH231936   2.330   4.119   5.512
10664TIP3    H131937   2.236   4.124   5.530
10664TIP3    H231938   2.348   4.025   5.506
10665TIP3   OH231939   3.760   4.450   2.166
10665TIP3    H131940   3.697   4.381   2.186
10665TIP3    H231941   3.730   4.485   2.081
10666TIP3   OH231942   7.741   0.653   0.695
10666TIP3    H131943   7.817   0.705   0.720
10666TIP3    H231944   7.715   0.689   0.610
10667TIP3   OH231945   4.358   3.678   3.374
10667TIP3    H131946   4.312   3.757   3.343
10667TIP3    H231947   4.450   3.694   3.353
10668TIP3   OH231948   3.940   4.500   3.689
10668TIP3    H131949   3.995   4.514   3.766
10668TIP3    H231950   3.941   4.584   3.644
10669TIP3   OH231951   7.459   7.117   5.243
10669TIP3    H131952   7.523   7.185   5.266
10669TIP3    H231953   7.458   7.116   5.147
10670TIP3   OH231954   2.218   6.995   5.442
10670TIP3    H131955   2.223   6.920   5.384
10670TIP3    H231956   2.242   6.960   5.528
10671TIP3   OH231957   7.666   7.693   1.355
10671TIP3    H131958   7.728   7.682   1.282
10671TIP3    H231959   7.670   7.610   1.402
10672TIP3   OH231960   3.434   7.452   0.923
10672TIP3    H131961   3.388   7.413   0.997
10672TIP3    H231962   3.408   7.544   0.925
10673TIP3   OH231963   7.807   5.491   2.608
10673TIP3    H131964   7.834   5.406   2.572
10673TIP3    H231965   7.712   5.489   2.605
10674TIP3   OH231966   4.914   0.074   4.389
10674TIP3    H131967   4.932   0.095   4.297
10674TIP3    H231968   4.970   0.133   4.439
10675TIP3   OH231969   1.232   7.606   4.026
10675TIP3    H131970   1.305   7.553   4.058
10675TIP3    H231971   1.264   7.696   4.029
10676TIP3   OH231972   4.727   7.340   2.729
10676TIP3    H131973   4.723   7.276   2.658
10676TIP3    H231974   4.807   7.319   2.777
10677TIP3   OH231975   0.402   0.027   1.089
10677TIP3    H131976   0.489   0.063   1.105
10677TIP3    H231977   0.396  -0.049   1.147
10678TIP3   OH231978   6.684   7.162   4.938
10678TIP3    H131979   6.698   7.171   5.032
10678TIP3    H231980   6.600   7.205   4.922
10679TIP3   OH231981   5.717   3.123   3.755
10679TIP3    H131982   5.686   3.050   3.809
10679TIP3    H231983   5.763   3.081   3.682
10680TIP3   OH231984   6.062   3.965   2.860
10680TIP3    H131985   6.042   3.901   2.928
10680TIP3    H231986   6.035   4.049   2.898
10681TIP3   OH231987   3.178   6.004   0.909
10681TIP3    H131988   3.096   6.011   0.861
10681TIP3    H231989   3.157   5.951   0.986
10682TIP3   OH231990   7.666   2.865   0.164
10682TIP3    H131991   7.637   2.774   0.156
10682TIP3    H231992   7.609   2.914   0.105
10683TIP3   OH231993   3.584   6.481   2.459
10683TIP3    H131994   3.562   6.427   2.384
10683TIP3    H231995   3.664   6.443   2.495
10684TIP3   OH231996   4.705   0.420   4.773
10684TIP3    H131997   4.791   0.379   4.767
10684TIP3    H231998   4.645   0.347   4.791
10685TIP3   OH231999   1.912   3.130   5.527
10685TIP3    H132000   1.986   3.071   5.547
10685TIP3    H232001   1.952   3.203   5.481
10686TIP3   OH232002   7.523   2.261   2.136
10686TIP3    H132003   7.567   2.280   2.218
10686TIP3    H232004   7.486   2.174   2.147
10687TIP3   OH232005   7.057   4.181   0.837
10687TIP3    H132006   6.989   4.164   0.902
10687TIP3    H232007   7.091   4.268   0.861
10688TIP3   OH232008   5.855   2.404   6.679
10688TIP3    H132009   5.908   2.335   6.639
10688TIP3    H232010   5.768   2.364   6.690
10689TIP3   OH232011   8.126   0.506   1.922
10689TIP3    H132012   8.184   0.576   1.948
10689TIP3    H232013   8.113   0.519   1.828
10690TIP3   OH232014   4.310   1.203   5.344
10690TIP3    H132015   4.223   1.240   5.360
10690TIP3    H232016   4.333   1.160   5.426
10691TIP3   OH232017   3.709   3.731   0.928
10691TIP3    H132018   3.744   3.661   0.983
10691TIP3    H232019   3.702   3.692   0.841
10692TIP3   OH232020   4.924   7.099   3.865
10692TIP3    H132021   4.919   7.097   3.961
10692TIP3    H232022   4.943   7.191   3.844
10693TIP3   OH232023   3.126   0.842   0.520
10693TIP3    H132024   3.030   0.836   0.518
10693TIP3    H232025   3.146   0.878   0.606
10694TIP3   OH232026   7.656   0.573   5.986
10694TIP3    H132027   7.730   0.512   5.984
10694TIP3    H232028   7.631   0.578   6.078
10695TIP3   OH232029   1.373   7.564   4.854
10695TIP3    H132030   1.454   7.603   4.886
10695TIP3    H232031   1.351   7.497   4.919
10696TIP3   OH232032   5.201   2.750   0.259
10696TIP3    H132033   5.188   2.683   0.192
10696TIP3    H232034   5.279   2.722   0.306
10697TIP3   OH232035   7.990   7.451   3.472
10697TIP3    H132036   7.976   7.435   3.378
10697TIP3    H232037   7.911   7.496   3.501
10698TIP3   OH232038   8.017   5.602   2.750
10698TIP3    H132039   7.941   5.564   2.706
10698TIP3    H232040   7.979   5.659   2.817
10699TIP3   OH232041   6.161   6.641   5.122
10699TIP3    H132042   6.092   6.588   5.163
10699TIP3    H232043   6.230   6.645   5.188
10700TIP3   OH232044   2.201   6.027   1.417
10700TIP3    H132045   2.278   5.985   1.455
10700TIP3    H232046   2.221   6.121   1.421
10701TIP3   OH232047   2.500   0.809   5.687
10701TIP3    H132048   2.591   0.812   5.659
10701TIP3    H232049   2.502   0.832   5.780
10702TIP3   OH232050   8.190   2.728   5.219
10702TIP3    H132051   8.197   2.666   5.292
10702TIP3    H232052   8.121   2.789   5.245
10703TIP3   OH232053   4.485   5.822   4.957
10703TIP3    H132054   4.562   5.766   4.952
10703TIP3    H232055   4.450   5.822   4.868
10704TIP3   OH232056   6.669   2.641   1.849
10704TIP3    H132057   6.649   2.551   1.822
10704TIP3    H232058   6.709   2.681   1.772
10705TIP3   OH232059   2.153   3.561   3.154
10705TIP3    H132060   2.247   3.565   3.168
10705TIP3    H232061   2.117   3.629   3.212
10706TIP3   OH232062   5.982   2.535   3.111
10706TIP3    H132063   6.026   2.477   3.173
10706TIP3    H232064   5.891   2.506   3.111
10707TIP3   OH232065   4.123   3.930   1.802
10707TIP3    H132066   4.095   3.873   1.730
10707TIP3    H232067   4.130   3.873   1.878
10708TIP3   OH232068   6.377   7.876   4.158
10708TIP3    H132069   6.430   7.824   4.219
10708TIP3    H232070   6.374   7.824   4.078
10709TIP3   OH232071   0.873   6.816   3.870
10709TIP3    H132072   0.912   6.902   3.886
10709TIP3    H232073   0.817   6.830   3.793
10710TIP3   OH232074   7.682   4.794   3.105
10710TIP3    H132075   7.777   4.804   3.097
10710TIP3    H232076   7.669   4.701   3.119
10711TIP3   OH232077   2.894   2.668   0.684
10711TIP3    H132078   2.948   2.641   0.758
10711TIP3    H232079   2.920   2.609   0.613
10712TIP3   OH232080   8.130   1.405   2.362
10712TIP3    H132081   8.059   1.469   2.358
10712TIP3    H232082   8.159   1.407   2.453
10713TIP3   OH232083   4.972   4.116   0.864
10713TIP3    H132084   4.965   4.033   0.912
10713TIP3    H232085   5.034   4.097   0.793
10714TIP3   OH232086   5.944   1.550   6.242
10714TIP3    H132087   5.850   1.564   6.234
10714TIP3    H232088   5.983   1.607   6.176
10715TIP3   OH232089   0.666   5.122   1.470
10715TIP3    H132090   0.689   5.186   1.538
10715TIP3    H232091   0.641   5.175   1.395
10716TIP3   OH232092   5.239   7.070   5.116
10716TIP3    H132093   5.171   7.049   5.053
10716TIP3    H232094   5.303   7.121   5.066
10717TIP3   OH232095   6.413   4.232   5.913
10717TIP3    H132096   6.435   4.298   5.980
10717TIP3    H232097   6.322   4.250   5.892
10718TIP3   OH232098   4.141   2.609   1.150
10718TIP3    H132099   4.113   2.524   1.185
10718TIP3    H232100   4.236   2.608   1.159
10719TIP3   OH232101   5.850   3.027   3.254
10719TIP3    H132102   5.908   2.957   3.223
10719TIP3    H232103   5.840   3.010   3.348
10720TIP3   OH232104   2.545   5.677   2.103
10720TIP3    H132105   2.452   5.690   2.083
10720TIP3    H232106   2.584   5.647   2.021
10721TIP3   OH232107   2.708   6.954   6.591
10721TIP3    H132108   2.746   6.951   6.503
10721TIP3    H232109   2.613   6.947   6.575
10722TIP3   OH232110   5.374   6.687   2.879
10722TIP3    H132111   5.383   6.708   2.786
10722TIP3    H232112   5.366   6.592   2.881
10723TIP3   OH232113   0.863   1.564   2.589
10723TIP3    H132114   0.913   1.632   2.545
10723TIP3    H232115   0.856   1.494   2.525
10724TIP3   OH232116   6.651   2.090   1.688
10724TIP3    H132117   6.622   1.999   1.693
10724TIP3    H232118   6.601   2.127   1.615
10725TIP3   OH232119   7.941   6.353   1.098
10725TIP3    H132120   7.879   6.286   1.126
10725TIP3    H232121   7.898   6.436   1.121
10726TIP3   OH232122   3.667   5.418   1.182
10726TIP3    H132123   3.587   5.365   1.191
10726TIP3    H232124   3.726   5.385   1.249
10727TIP3   OH232125   6.035   7.599   5.219
10727TIP3    H132126   6.073   7.582   5.132
10727TIP3    H232127   6.038   7.694   5.228
10728TIP3   OH232128   4.476   1.930   4.012
10728TIP3    H132129   4.406   1.922   4.078
10728TIP3    H232130   4.430   1.932   3.929
10729TIP3   OH232131   2.885   1.851   1.942
10729TIP3    H132132   2.852   1.763   1.956
10729TIP3    H232133   2.837   1.905   2.006
10730TIP3   OH232134   4.245   3.202   6.467
10730TIP3    H132135   4.298   3.271   6.507
10730TIP3    H232136   4.198   3.163   6.541
10731TIP3   OH232137   3.732   5.548   5.016
10731TIP3    H132138   3.778   5.572   5.096
10731TIP3    H232139   3.645   5.585   5.026
10732TIP3   OH232140   1.719   1.883   3.577
10732TIP3    H132141   1.625   1.872   3.584
10732TIP3    H232142   1.753   1.858   3.663
10733TIP3   OH232143   0.068   7.821   5.317
10733TIP3    H132144   0.154   7.841   5.355
10733TIP3    H232145   0.064   7.726   5.317
10734TIP3   OH232146   4.486   6.967   3.663
10734TIP3    H132147   4.549   6.937   3.729
10734TIP3    H232148   4.421   6.896   3.658
10735TIP3   OH232149   4.724   6.514   2.269
10735TIP3    H132150   4.750   6.601   2.239
10735TIP3    H232151   4.663   6.482   2.202
10736TIP3   OH232152   1.946   4.450   1.228
10736TIP3    H132153   2.031   4.489   1.243
10736TIP3    H232154   1.948   4.368   1.278
10737TIP3   OH232155   6.998   3.743   4.974
10737TIP3    H132156   6.990   3.785   4.888
10737TIP3    H232157   6.942   3.666   4.968
10738TIP3   OH232158   4.006   6.072   3.140
10738TIP3    H132159   3.950   6.073   3.062
10738TIP3    H232160   3.978   6.149   3.190
10739TIP3   OH232161   6.376   4.974   2.281
10739TIP3    H132162   6.317   4.910   2.241
10739TIP3    H232163   6.375   5.048   2.221
10740TIP3   OH232164   5.668   7.155   1.811
10740TIP3    H132165   5.729   7.082   1.807
10740TIP3    H232166   5.582   7.114   1.820
10741TIP3   OH232167   4.107   2.161   2.737
10741TIP3    H132168   4.102   2.133   2.646
10741TIP3    H232169   4.024   2.132   2.776
10742TIP3   OH232170   2.396   4.032   4.939
10742TIP3    H132171   2.461   4.093   4.904
10742TIP3    H232172   2.367   3.981   4.863
10743TIP3   OH232173   0.549   7.179   0.122
10743TIP3    H132174   0.629   7.185   0.069
10743TIP3    H232175   0.524   7.086   0.116
10744TIP3   OH232176   3.418   5.521   5.680
10744TIP3    H132177   3.480   5.449   5.695
10744TIP3    H232178   3.473   5.596   5.660
10745TIP3   OH232179   7.718   0.202   0.090
10745TIP3    H132180   7.717   0.118   0.042
10745TIP3    H232181   7.797   0.198   0.143
10746TIP3   OH232182   4.915   7.167   3.322
10746TIP3    H132183   4.868   7.246   3.348
10746TIP3    H232184   4.850   7.097   3.329
10747TIP3   OH232185   2.751   0.824   6.095
10747TIP3    H132186   2.761   0.917   6.072
10747TIP3    H232187   2.837   0.798   6.128
10748TIP3   OH232188   6.722   3.578   3.459
10748TIP3    H132189   6.731   3.488   3.491
10748TIP3    H232190   6.684   3.626   3.532
10749TIP3   OH232191   5.367   1.722   4.126
10749TIP3    H132192   5.454   1.726   4.084
10749TIP3    H232193   5.366   1.797   4.185
10750TIP3   OH232194   0.965   5.461   1.672
10750TIP3    H132195   0.882   5.415   1.661
10750TIP3    H232196   0.967   5.485   1.764
10751TIP3   OH232197   0.092   3.634   0.514
10751TIP3    H132198   0.077   3.644   0.420
10751TIP3    H232199   0.031   3.695   0.555
10752TIP3   OH232200   6.062   5.131   1.081
10752TIP3    H132201   6.111   5.051   1.096
10752TIP3    H232202   6.093   5.163   0.996
10753TIP3   OH232203   6.959   4.269   3.649
10753TIP3    H132204   6.976   4.195   3.591
10753TIP3    H232205   7.028   4.332   3.630
10754TIP3   OH232206   4.871   3.903   4.275
10754TIP3    H132207   4.926   3.954   4.215
10754TIP3    H232208   4.908   3.921   4.362
10755TIP3   OH232209   1.954   7.484   6.378
10755TIP3    H132210   1.885   7.438   6.329
10755TIP3    H232211   1.918   7.494   6.466
10756TIP3   OH232212   6.775   4.114   2.695
10756TIP3    H132213   6.785   4.051   2.766
10756TIP3    H232214   6.724   4.068   2.628
10757TIP3   OH232215   0.192   5.187   1.754
10757TIP3    H132216   0.118   5.215   1.807
10757TIP3    H232217   0.156   5.122   1.694
10758TIP3   OH232218   1.912   6.757   0.251
10758TIP3    H132219   1.978   6.817   0.288
10758TIP3    H232220   1.920   6.678   0.305
10759TIP3   OH232221   0.815   2.313   5.183
10759TIP3    H132222   0.898   2.281   5.217
10759TIP3    H232223   0.828   2.408   5.173
10760TIP3   OH232224   2.818   7.142   2.801
10760TIP3    H132225   2.878   7.079   2.843
10760TIP3    H232226   2.834   7.224   2.848
10761TIP3   OH232227   0.078   0.810   2.099
10761TIP3    H132228  -0.011   0.777   2.108
10761TIP3    H232229   0.080   0.889   2.153
10762TIP3   OH232230   0.827   1.662   1.685
10762TIP3    H132231   0.906   1.609   1.674
10762TIP3    H232232   0.856   1.740   1.733
10763TIP3   OH232233   7.797   1.317   0.202
10763TIP3    H132234   7.708   1.283   0.204
10763TIP3    H232235   7.851   1.244   0.233
10764TIP3   OH232236   2.715   7.404   5.152
10764TIP3    H132237   2.659   7.421   5.076
10764TIP3    H232238   2.794   7.364   5.115
10765TIP3   OH232239   0.462   0.024   5.840
10765TIP3    H132240   0.553  -0.005   5.835
10765TIP3    H232241   0.428  -0.018   5.920
10766TIP3   OH232242   6.468   2.828   0.209
10766TIP3    H132243   6.403   2.897   0.193
10766TIP3    H232244   6.416   2.747   0.215
10767TIP3   OH232245   5.183   5.053   3.777
10767TIP3    H132246   5.252   5.120   3.785
10767TIP3    H232247   5.222   4.985   3.723
10768TIP3   OH232248   4.240   5.865   3.350
10768TIP3    H132249   4.245   5.925   3.424
10768TIP3    H232250   4.268   5.918   3.275
10769TIP3   OH232251   1.249   2.988   2.698
10769TIP3    H132252   1.291   2.947   2.774
10769TIP3    H232253   1.315   2.983   2.629
10770TIP3   OH232254   5.266   6.925   3.002
10770TIP3    H132255   5.258   6.884   3.087
10770TIP3    H232256   5.308   6.860   2.947
10771TIP3   OH232257   4.170   1.870  -0.016
10771TIP3    H132258   4.192   1.795   0.040
10771TIP3    H232259   4.143   1.938   0.045
10772TIP3   OH232260   4.702   6.020   2.791
10772TIP3    H132261   4.643   5.987   2.858
10772TIP3    H232262   4.655   6.092   2.750
10773TIP3   OH232263   4.489   2.259   1.576
10773TIP3    H132264   4.516   2.207   1.500
10773TIP3    H232265   4.552   2.332   1.578
10774TIP3   OH232266   6.675   3.317   0.537
10774TIP3    H132267   6.689   3.333   0.444
10774TIP3    H232268   6.714   3.392   0.581
10775TIP3   OH232269   4.070   7.723   0.128
10775TIP3    H132270   4.161   7.732   0.157
10775TIP3    H232271   4.075   7.668   0.050
10776TIP3   OH232272   7.442   7.616   0.728
10776TIP3    H132273   7.433   7.709   0.748
10776TIP3    H232274   7.356   7.579   0.747
10777TIP3   OH232275   3.967   7.300   0.053
10777TIP3    H132276   3.887   7.251   0.070
10777TIP3    H232277   3.940   7.371  -0.005
10778TIP3   OH232278   3.983   2.988   0.712
10778TIP3    H132279   3.964   2.984   0.806
10778TIP3    H232280   3.993   3.082   0.695
10779TIP3   OH232281   4.948   7.758   2.842
10779TIP3    H132282   4.876   7.707   2.878
10779TIP3    H232283   4.908   7.842   2.817
10780TIP3   OH232284   2.269   7.667   4.349
10780TIP3    H132285   2.233   7.754   4.367
10780TIP3    H232286   2.217   7.634   4.276
10781TIP3   OH232287   6.615   6.260   4.628
10781TIP3    H132288   6.606   6.167   4.651
10781TIP3    H232289   6.703   6.283   4.658
10782TIP3   OH232290   2.996   3.701   1.755
10782TIP3    H132291   2.956   3.662   1.678
10782TIP3    H232292   3.004   3.629   1.817
10783TIP3   OH232293   1.278   2.158   1.421
10783TIP3    H132294   1.276   2.135   1.328
10783TIP3    H232295   1.349   2.221   1.429
10784TIP3   OH232296   0.605   3.016   5.859
10784TIP3    H132297   0.609   3.078   5.932
10784TIP3    H232298   0.694   3.014   5.824
10785TIP3   OH232299   4.098   6.756   6.013
10785TIP3    H132300   4.121   6.786   5.925
10785TIP3    H232301   4.155   6.806   6.071
10786TIP3   OH232302   3.688   3.117   1.485
10786TIP3    H132303   3.683   3.212   1.489
10786TIP3    H232304   3.626   3.086   1.552
10787TIP3   OH232305   0.609   0.172   3.400
10787TIP3    H132306   0.680   0.236   3.404
10787TIP3    H232307   0.591   0.162   3.307
10788TIP3   OH232308   7.100   0.345   1.083
10788TIP3    H132309   7.067   0.304   1.163
10788TIP3    H232310   7.086   0.279   1.015
10789TIP3   OH232311   5.766   1.704   1.871
10789TIP3    H132312   5.769   1.746   1.957
10789TIP3    H232313   5.801   1.616   1.885
10790TIP3   OH232314   3.334   3.682   2.867
10790TIP3    H132315   3.261   3.691   2.930
10790TIP3    H232316   3.388   3.612   2.903
10791TIP3   OH232317   4.734   5.517   1.960
10791TIP3    H132318   4.801   5.449   1.967
10791TIP3    H232319   4.685   5.512   2.043
10792TIP3   OH232320   1.870   1.125   1.230
10792TIP3    H132321   1.806   1.101   1.296
10792TIP3    H232322   1.942   1.063   1.242
10793TIP3   OH232323   0.504   5.872   3.049
10793TIP3    H132324   0.491   5.919   2.967
10793TIP3    H232325   0.455   5.922   3.114
10794TIP3   OH232326   6.667   2.172   2.512
10794TIP3    H132327   6.653   2.170   2.418
10794TIP3    H232328   6.595   2.226   2.546
10795TIP3   OH232329   5.681   6.033   6.203
10795TIP3    H132330   5.599   5.994   6.235
10795TIP3    H232331   5.726   6.063   6.281
10796TIP3   OH232332   4.778   3.152   0.012
10796TIP3    H132333   4.854   3.120  -0.037
10796TIP3    H232334   4.795   3.127   0.103
10797TIP3   OH232335   1.436   4.805   2.558
10797TIP3    H132336   1.373   4.861   2.511
10797TIP3    H232337   1.485   4.866   2.614
10798TIP3   OH232338   2.199   3.556   5.604
10798TIP3    H132339   2.112   3.596   5.612
10798TIP3    H232340   2.197   3.482   5.665
10799TIP3   OH232341   6.152   2.678   6.310
10799TIP3    H132342   6.236   2.639   6.285
10799TIP3    H232343   6.122   2.625   6.384
10800TIP3   OH232344   0.006   5.937   5.824
10800TIP3    H132345   0.052   5.916   5.905
10800TIP3    H232346   0.057   5.893   5.755
10801TIP3   OH232347   2.581   6.119   4.539
10801TIP3    H132348   2.522   6.090   4.469
10801TIP3    H232349   2.525   6.129   4.615
10802TIP3   OH232350   8.035   1.017   0.599
10802TIP3    H132351   8.119   1.045   0.563
10802TIP3    H232352   7.970   1.043   0.533
10803TIP3   OH232353   6.294   1.316   4.452
10803TIP3    H132354   6.210   1.357   4.471
10803TIP3    H232355   6.350   1.388   4.422
10804TIP3   OH232356   2.610   6.800   1.051
10804TIP3    H132357   2.592   6.833   1.139
10804TIP3    H232358   2.615   6.879   0.996
10805TIP3   OH232359   0.277   3.632   5.398
10805TIP3    H132360   0.226   3.691   5.342
10805TIP3    H232361   0.212   3.589   5.453
10806TIP3   OH232362   7.472   5.551   1.022
10806TIP3    H132363   7.417   5.561   0.944
10806TIP3    H232364   7.548   5.501   0.992
10807TIP3   OH232365   5.484   1.435   5.412
10807TIP3    H132366   5.424   1.439   5.487
10807TIP3    H232367   5.500   1.526   5.389
10808TIP3   OH232368   3.339   6.878   2.370
10808TIP3    H132369   3.370   6.969   2.364
10808TIP3    H232370   3.252   6.885   2.410
10809TIP3   OH232371   0.922   6.380   3.470
10809TIP3    H132372   0.828   6.383   3.450
10809TIP3    H232373   0.941   6.287   3.482
10810TIP3   OH232374   4.346   6.909   1.937
10810TIP3    H132375   4.412   6.865   1.991
10810TIP3    H232376   4.306   6.839   1.886
10811TIP3   OH232377   4.548   5.996   1.335
10811TIP3    H132378   4.504   6.071   1.375
10811TIP3    H232379   4.488   5.923   1.348
10812TIP3   OH232380   7.974   2.618   1.570
10812TIP3    H132381   8.035   2.691   1.582
10812TIP3    H232382   7.907   2.652   1.511
10813TIP3   OH232383   1.432   6.452   5.963
10813TIP3    H132384   1.448   6.364   5.998
10813TIP3    H232385   1.518   6.493   5.960
10814TIP3   OH232386   3.525   1.438   3.209
10814TIP3    H132387   3.541   1.491   3.131
10814TIP3    H232388   3.432   1.450   3.228
10815TIP3   OH232389   8.064   6.439   5.796
10815TIP3    H132390   8.033   6.349   5.785
10815TIP3    H232391   7.991   6.493   5.766
10816TIP3   OH232392   5.034   3.008   2.511
10816TIP3    H132393   4.962   2.971   2.563
10816TIP3    H232394   5.112   2.961   2.542
10817TIP3   OH232395   2.424   2.854   5.076
10817TIP3    H132396   2.505   2.894   5.045
10817TIP3    H232397   2.358   2.883   5.014
10818TIP3   OH232398   5.583   5.294   4.414
10818TIP3    H132399   5.492   5.321   4.425
10818TIP3    H232400   5.595   5.223   4.478
10819TIP3   OH232401   7.656   0.914   1.746
10819TIP3    H132402   7.612   0.874   1.821
10819TIP3    H232403   7.640   0.853   1.673
10820TIP3   OH232404   5.498   5.802   1.199
10820TIP3    H132405   5.493   5.831   1.290
10820TIP3    H232406   5.574   5.743   1.196
10821TIP3   OH232407   4.242   6.257   0.830
10821TIP3    H132408   4.229   6.351   0.845
10821TIP3    H232409   4.330   6.249   0.796
10822TIP3   OH232410   4.092   7.170   5.912
10822TIP3    H132411   4.171   7.182   5.966
10822TIP3    H232412   4.124   7.179   5.822
10823TIP3   OH232413   5.918   3.468   1.921
10823TIP3    H132414   5.824   3.449   1.917
10823TIP3    H232415   5.927   3.553   1.877
10824TIP3   OH232416   5.742   3.394   3.793
10824TIP3    H132417   5.792   3.423   3.870
10824TIP3    H232418   5.743   3.298   3.798
10825TIP3   OH232419   7.037   4.780   1.005
10825TIP3    H132420   6.997   4.858   1.043
10825TIP3    H232421   7.101   4.751   1.070
10826TIP3   OH232422   0.437   1.976   4.849
10826TIP3    H132423   0.368   1.913   4.826
10826TIP3    H232424   0.390   2.048   4.891
10827TIP3   OH232425   0.147   6.864   1.854
10827TIP3    H132426   0.173   6.953   1.880
10827TIP3    H232427   0.230   6.817   1.847
10828TIP3   OH232428   7.253   0.074   4.475
10828TIP3    H132429   7.305   0.018   4.417
10828TIP3    H232430   7.291   0.060   4.562
10829TIP3   OH232431   6.143   4.912   2.543
10829TIP3    H132432   6.193   4.857   2.603
10829TIP3    H232433   6.138   4.861   2.462
10830TIP3   OH232434   7.611   3.364   6.155
10830TIP3    H132435   7.647   3.431   6.214
10830TIP3    H232436   7.535   3.406   6.116
10831TIP3   OH232437   6.535   6.084   2.263
10831TIP3    H132438   6.542   6.154   2.198
10831TIP3    H232439   6.616   6.089   2.313
10832TIP3   OH232440   0.725   2.721   4.367
10832TIP3    H132441   0.677   2.793   4.409
10832TIP3    H232442   0.749   2.663   4.439
10833TIP3   OH232443   3.796   7.551   4.702
10833TIP3    H132444   3.890   7.558   4.712
10833TIP3    H232445   3.770   7.633   4.659
10834TIP3   OH232446   6.457   0.752   3.422
10834TIP3    H132447   6.496   0.839   3.424
10834TIP3    H232448   6.407   0.750   3.340
10835TIP3   OH232449   2.903   6.551   4.834
10835TIP3    H132450   2.993   6.533   4.808
10835TIP3    H232451   2.850   6.493   4.780
10836TIP3   OH232452   2.213   4.525   2.905
10836TIP3    H132453   2.153   4.492   2.838
10836TIP3    H232454   2.213   4.457   2.973
10837TIP3   OH232455   0.420  -0.019   0.535
10837TIP3    H132456   0.345  -0.055   0.582
10837TIP3    H232457   0.470   0.027   0.602
10838TIP3   OH232458   4.084   6.861   1.585
10838TIP3    H132459   4.006   6.806   1.575
10838TIP3    H232460   4.069   6.933   1.524
10839TIP3   OH232461   0.314   6.728   5.915
10839TIP3    H132462   0.341   6.647   5.871
10839TIP3    H232463   0.314   6.707   6.008
10840TIP3   OH232464   3.862   0.201   2.660
10840TIP3    H132465   3.861   0.211   2.565
10840TIP3    H232466   3.854   0.106   2.674
10841TIP3   OH232467   1.153   3.726   5.715
10841TIP3    H132468   1.222   3.676   5.672
10841TIP3    H232469   1.171   3.817   5.691
10842TIP3   OH232470   3.620   6.264   4.901
10842TIP3    H132471   3.573   6.285   4.981
10842TIP3    H232472   3.703   6.312   4.908
10843TIP3   OH232473   4.561   5.433   2.536
10843TIP3    H132474   4.648   5.410   2.569
10843TIP3    H232475   4.569   5.425   2.441
10844TIP3   OH232476   5.982   1.589   5.423
10844TIP3    H132477   6.024   1.673   5.403
10844TIP3    H232478   5.895   1.613   5.456
10845TIP3   OH232479   2.254   2.878   0.352
10845TIP3    H132480   2.296   2.882   0.266
10845TIP3    H232481   2.283   2.795   0.389
10846TIP3   OH232482   5.276   1.060   1.427
10846TIP3    H132483   5.183   1.055   1.405
10846TIP3    H232484   5.321   1.014   1.356
10847TIP3   OH232485   3.775   2.024   4.645
10847TIP3    H132486   3.765   1.979   4.729
10847TIP3    H232487   3.833   2.098   4.664
10848TIP3   OH232488   1.778   0.185   1.346
10848TIP3    H132489   1.780   0.090   1.332
10848TIP3    H232490   1.772   0.222   1.259
10849TIP3   OH232491   7.650   4.771   4.732
10849TIP3    H132492   7.578   4.717   4.701
10849TIP3    H232493   7.609   4.834   4.791
10850TIP3   OH232494   4.059   3.787   6.254
10850TIP3    H132495   4.137   3.776   6.308
10850TIP3    H232496   4.077   3.865   6.201
10851TIP3   OH232497   8.071   1.130   5.702
10851TIP3    H132498   8.056   1.214   5.744
10851TIP3    H232499   8.049   1.145   5.610
10852TIP3   OH232500   3.281   4.366   1.837
10852TIP3    H132501   3.202   4.412   1.865
10852TIP3    H232502   3.261   4.339   1.747
10853TIP3   OH232503   1.646   5.058   6.776
10853TIP3    H132504   1.663   5.117   6.849
10853TIP3    H232505   1.551   5.049   6.774
10854TIP3   OH232506   1.170   4.532   5.337
10854TIP3    H132507   1.098   4.581   5.295
10854TIP3    H232508   1.147   4.440   5.322
10855TIP3   OH232509   8.184   3.548   6.744
10855TIP3    H132510   8.245   3.491   6.697
10855TIP3    H232511   8.211   3.542   6.835
10856TIP3   OH232512   6.066   1.823   3.912
10856TIP3    H132513   6.132   1.847   3.977
10856TIP3    H232514   6.113   1.822   3.829
10857TIP3   OH232515   7.789   2.901   4.096
10857TIP3    H132516   7.809   2.861   4.180
10857TIP3    H232517   7.832   2.845   4.031
10858TIP3   OH232518   3.008   4.886   5.609
10858TIP3    H132519   3.084   4.829   5.597
10858TIP3    H232520   2.950   4.837   5.667
10859TIP3   OH232521   1.352   0.909   1.579
10859TIP3    H132522   1.342   0.972   1.507
10859TIP3    H232523   1.264   0.874   1.592
10860TIP3   OH232524   2.470   3.522   4.343
10860TIP3    H132525   2.560   3.549   4.361
10860TIP3    H232526   2.418   3.602   4.353
10861TIP3   OH232527   4.657   7.287   1.198
10861TIP3    H132528   4.631   7.210   1.148
10861TIP3    H232529   4.579   7.311   1.247
10862TIP3   OH232530   7.039   2.312   2.030
10862TIP3    H132531   6.982   2.289   1.958
10862TIP3    H232532   7.128   2.303   1.995
10863TIP3   OH232533   5.306   1.032   1.712
10863TIP3    H132534   5.214   1.007   1.705
10863TIP3    H232535   5.333   1.047   1.621
10864TIP3   OH232536   2.209   3.774   0.194
10864TIP3    H132537   2.141   3.824   0.238
10864TIP3    H232538   2.271   3.839   0.161
10865TIP3   OH232539   6.528   7.219   6.453
10865TIP3    H132540   6.439   7.253   6.447
10865TIP3    H232541   6.533   7.154   6.383
10866TIP3   OH232542   4.832   3.895   6.172
10866TIP3    H132543   4.860   3.935   6.090
10866TIP3    H232544   4.777   3.821   6.146
10867TIP3   OH232545   3.219   3.082   3.178
10867TIP3    H132546   3.280   3.090   3.251
10867TIP3    H232547   3.235   2.994   3.143
10868TIP3   OH232548   7.200   5.986   0.882
10868TIP3    H132549   7.266   6.003   0.950
10868TIP3    H232550   7.138   5.925   0.924
10869TIP3   OH232551   2.448   0.533   5.771
10869TIP3    H132552   2.389   0.550   5.844
10869TIP3    H232553   2.433   0.606   5.711
10870TIP3   OH232554   8.055   0.370   5.406
10870TIP3    H132555   8.070   0.465   5.401
10870TIP3    H232556   8.113   0.341   5.476
10871TIP3   OH232557   2.110   3.149   1.479
10871TIP3    H132558   2.042   3.213   1.457
10871TIP3    H232559   2.064   3.065   1.481
10872TIP3   OH232560   6.380   7.191   2.539
10872TIP3    H132561   6.473   7.199   2.520
10872TIP3    H232562   6.341   7.161   2.457
10873TIP3   OH232563   4.834   4.911   4.560
10873TIP3    H132564   4.759   4.850   4.552
10873TIP3    H232565   4.907   4.855   4.586
10874TIP3   OH232566   6.148   1.372   6.222
10874TIP3    H132567   6.134   1.291   6.171
10874TIP3    H232568   6.065   1.418   6.216
10875TIP3   OH232569   3.070   3.903   1.424
10875TIP3    H132570   3.157   3.934   1.399
10875TIP3    H232571   3.039   3.967   1.489
10876TIP3   OH232572   3.372   4.300   4.916
10876TIP3    H132573   3.292   4.268   4.874
10876TIP3    H232574   3.429   4.223   4.921
10877TIP3   OH232575   3.720   3.776   0.126
10877TIP3    H132576   3.642   3.766   0.181
10877TIP3    H232577   3.791   3.793   0.187
10878TIP3   OH232578   5.631   4.012   2.984
10878TIP3    H132579   5.549   4.048   3.016
10878TIP3    H232580   5.606   3.936   2.932
10879TIP3   OH232581   0.879   3.715   5.944
10879TIP3    H132582   0.876   3.623   5.917
10879TIP3    H232583   0.891   3.712   6.039
10880TIP3   OH232584   7.574   7.260   4.481
10880TIP3    H132585   7.517   7.326   4.522
10880TIP3    H232586   7.607   7.208   4.554
10881TIP3   OH232587   3.446   4.941   4.214
10881TIP3    H132588   3.499   4.876   4.169
10881TIP3    H232589   3.355   4.914   4.198
10882TIP3   OH232590   3.024   5.583   1.325
10882TIP3    H132591   2.937   5.599   1.289
10882TIP3    H232592   3.017   5.610   1.417
10883TIP3   OH232593   7.647   0.361   0.434
10883TIP3    H132594   7.583   0.355   0.363
10883TIP3    H232595   7.728   0.391   0.391
10884TIP3   OH232596   5.103   3.745   4.670
10884TIP3    H132597   5.130   3.729   4.580
10884TIP3    H232598   5.009   3.725   4.671
10885TIP3   OH232599   3.649   6.850   3.543
10885TIP3    H132600   3.666   6.892   3.628
10885TIP3    H232601   3.561   6.879   3.519
10886TIP3   OH232602   3.208   3.277   5.429
10886TIP3    H132603   3.119   3.310   5.442
10886TIP3    H232604   3.197   3.200   5.373
10887TIP3   OH232605   4.339   1.669   4.219
10887TIP3    H132606   4.302   1.622   4.144
10887TIP3    H232607   4.262   1.696   4.270
10888TIP3   OH232608   3.813   1.705   2.073
10888TIP3    H132609   3.770   1.640   2.129
10888TIP3    H232610   3.857   1.654   2.006
10889TIP3   OH232611   6.930   1.829   2.781
10889TIP3    H132612   6.902   1.869   2.863
10889TIP3    H232613   6.868   1.862   2.715
10890TIP3   OH232614   0.177   3.318   3.154
10890TIP3    H132615   0.252   3.362   3.193
10890TIP3    H232616   0.156   3.248   3.215
10891TIP3   OH232617   6.068   0.206   0.836
10891TIP3    H132618   6.028   0.139   0.892
10891TIP3    H232619   6.081   0.281   0.894
10892TIP3   OH232620   1.562   1.799   4.728
10892TIP3    H132621   1.582   1.731   4.663
10892TIP3    H232622   1.603   1.768   4.809
10893TIP3   OH232623   0.050   5.359   5.807
10893TIP3    H132624   0.050   5.427   5.740
10893TIP3    H232625   0.002   5.286   5.766
10894TIP3   OH232626   7.717   4.911   1.449
10894TIP3    H132627   7.675   4.886   1.366
10894TIP3    H232628   7.645   4.941   1.504
10895TIP3   OH232629   2.009   2.059   4.084
10895TIP3    H132630   2.081   2.014   4.128
10895TIP3    H232631   1.997   2.011   4.002
10896TIP3   OH232632   4.082   3.089   4.926
10896TIP3    H132633   4.132   3.118   5.002
10896TIP3    H232634   4.137   3.020   4.887
10897TIP3   OH232635   4.395   7.549   1.932
10897TIP3    H132636   4.471   7.494   1.914
10897TIP3    H232637   4.403   7.622   1.872
10898TIP3   OH232638   0.638   3.489   2.427
10898TIP3    H132639   0.684   3.481   2.344
10898TIP3    H232640   0.608   3.400   2.447
10899TIP3   OH232641   0.607   3.589   0.924
10899TIP3    H132642   0.512   3.602   0.920
10899TIP3    H232643   0.621   3.502   0.885
10900TIP3   OH232644   6.960   5.591   1.510
10900TIP3    H132645   7.024   5.563   1.444
10900TIP3    H232646   6.920   5.670   1.473
10901TIP3   OH232647   0.407   7.626   2.693
10901TIP3    H132648   0.478   7.592   2.639
10901TIP3    H232649   0.448   7.691   2.751
10902TIP3   OH232650   4.517   7.108   0.052
10902TIP3    H132651   4.527   7.016   0.028
10902TIP3    H232652   4.468   7.107   0.134
10903TIP3   OH232653   2.541   1.661   4.363
10903TIP3    H132654   2.636   1.666   4.354
10903TIP3    H232655   2.519   1.733   4.422
10904TIP3   OH232656   3.786   3.503   3.097
10904TIP3    H132657   3.786   3.537   3.187
10904TIP3    H232658   3.695   3.508   3.069
10905TIP3   OH232659   7.996   1.995   3.104
10905TIP3    H132660   7.959   2.068   3.055
10905TIP3    H232661   8.085   1.987   3.071
10906TIP3   OH232662   1.570   1.549   3.553
10906TIP3    H132663   1.542   1.621   3.609
10906TIP3    H232664   1.574   1.473   3.611
10907TIP3   OH232665   2.190   6.043   2.497
10907TIP3    H132666   2.104   6.084   2.507
10907TIP3    H232667   2.173   5.962   2.450
10908TIP3   OH232668   3.524   6.389   6.403
10908TIP3    H132669   3.530   6.441   6.323
10908TIP3    H232670   3.431   6.371   6.414
10909TIP3   OH232671   7.631   0.168   2.729
10909TIP3    H132672   7.699   0.223   2.690
10909TIP3    H232673   7.582   0.133   2.654
10910TIP3   OH232674   6.020   4.873   4.778
10910TIP3    H132675   6.006   4.792   4.729
10910TIP3    H232676   5.949   4.876   4.842
10911TIP3   OH232677   3.452   7.508   0.387
10911TIP3    H132678   3.377   7.486   0.442
10911TIP3    H232679   3.528   7.492   0.444
10912TIP3   OH232680   3.855   2.185   0.258
10912TIP3    H132681   3.909   2.168   0.335
10912TIP3    H232682   3.867   2.278   0.240
10913TIP3   OH232683   0.319   3.088   5.871
10913TIP3    H132684   0.411   3.074   5.846
10913TIP3    H232685   0.289   3.002   5.901
10914TIP3   OH232686   2.322   2.626   3.060
10914TIP3    H132687   2.283   2.605   3.145
10914TIP3    H232688   2.415   2.635   3.078
10915TIP3   OH232689   8.123   5.726   5.000
10915TIP3    H132690   8.141   5.632   4.990
10915TIP3    H232691   8.118   5.759   4.910
10916TIP3   OH232692   1.924   5.318   3.604
10916TIP3    H132693   1.882   5.322   3.690
10916TIP3    H232694   2.010   5.356   3.617
10917TIP3   OH232695   1.331   6.980   4.331
10917TIP3    H132696   1.272   6.995   4.405
10917TIP3    H232697   1.297   6.901   4.289
10918TIP3   OH232698   7.489   2.607   0.788
10918TIP3    H132699   7.394   2.616   0.781
10918TIP3    H232700   7.504   2.591   0.881
10919TIP3   OH232701   0.398   2.582   1.558
10919TIP3    H132702   0.484   2.622   1.572
10919TIP3    H232703   0.336   2.640   1.603
10920TIP3   OH232704   4.018   3.637   0.888
10920TIP3    H132705   4.086   3.572   0.906
10920TIP3    H232706   4.003   3.680   0.973
10921TIP3   OH232707   8.261   1.914   2.009
10921TIP3    H132708   8.167   1.928   2.013
10921TIP3    H232709   8.299   2.001   2.024
10922TIP3   OH232710   3.478   1.094   0.825
10922TIP3    H132711   3.538   1.085   0.898
10922TIP3    H232712   3.406   1.148   0.859
10923TIP3   OH232713   0.183   7.504   5.214
10923TIP3    H132714   0.274   7.525   5.236
10923TIP3    H232715   0.178   7.409   5.217
10924TIP3   OH232716   2.044   1.352   5.976
10924TIP3    H132717   2.109   1.384   6.039
10924TIP3    H232718   2.077   1.266   5.950
10925TIP3   OH232719   0.310   5.154   3.680
10925TIP3    H132720   0.364   5.232   3.694
10925TIP3    H232721   0.239   5.185   3.622
10926TIP3   OH232722   4.913   6.942   1.383
10926TIP3    H132723   4.916   6.973   1.292
10926TIP3    H232724   4.820   6.922   1.398
10927TIP3   OH232725   6.197   7.736   6.203
10927TIP3    H132726   6.206   7.693   6.118
10927TIP3    H232727   6.244   7.678   6.264
10928TIP3   OH232728   0.108   1.353   0.097
10928TIP3    H132729   0.112   1.288   0.167
10928TIP3    H232730   0.136   1.435   0.138
10929TIP3   OH232731   7.349   6.098   6.606
10929TIP3    H132732   7.287   6.026   6.618
10929TIP3    H232733   7.350   6.114   6.512
10930TIP3   OH232734   5.004   3.069   6.142
10930TIP3    H132735   5.056   3.132   6.092
10930TIP3    H232736   4.964   3.121   6.212
10931TIP3   OH232737   3.959   4.685   4.142
10931TIP3    H132738   3.889   4.620   4.138
10931TIP3    H232739   3.962   4.712   4.234
10932TIP3   OH232740   6.931   7.101   3.557
10932TIP3    H132741   6.932   7.084   3.463
10932TIP3    H232742   7.023   7.101   3.582
10933TIP3   OH232743   0.639   4.112   2.878
10933TIP3    H132744   0.635   4.094   2.784
10933TIP3    H232745   0.561   4.070   2.913
10934TIP3   OH232746   4.446   6.395   6.027
10934TIP3    H132747   4.400   6.317   6.059
10934TIP3    H232748   4.410   6.467   6.078
10935TIP3   OH232749   1.846   7.770   1.401
10935TIP3    H132750   1.817   7.693   1.451
10935TIP3    H232751   1.941   7.763   1.399
10936TIP3   OH232752   1.237   0.583   0.575
10936TIP3    H132753   1.250   0.659   0.519
10936TIP3    H232754   1.197   0.517   0.518
10937TIP3   OH232755   1.116   1.014   2.281
10937TIP3    H132756   1.208   1.034   2.267
10937TIP3    H232757   1.116   0.922   2.310
10938TIP3   OH232758   6.854   4.071   4.556
10938TIP3    H132759   6.931   4.066   4.499
10938TIP3    H232760   6.881   4.128   4.628
10939TIP3   OH232761   7.511   3.423   0.553
10939TIP3    H132762   7.432   3.389   0.512
10939TIP3    H232763   7.580   3.363   0.525
10940TIP3   OH232764   6.238   5.596   0.771
10940TIP3    H132765   6.225   5.546   0.691
10940TIP3    H232766   6.174   5.667   0.766
10941TIP3   OH232767   2.552   6.414   1.229
10941TIP3    H132768   2.479   6.366   1.268
10941TIP3    H232769   2.550   6.499   1.273
10942TIP3   OH232770   2.054   4.889   2.317
10942TIP3    H132771   1.974   4.847   2.289
10942TIP3    H232772   2.031   4.932   2.400
10943TIP3   OH232773   5.000   2.445   5.935
10943TIP3    H132774   5.081   2.450   5.884
10943TIP3    H232775   5.028   2.464   6.025
10944TIP3   OH232776   2.127   1.663   5.871
10944TIP3    H132777   2.063   1.730   5.895
10944TIP3    H232778   2.075   1.596   5.826
10945TIP3   OH232779   4.325   4.655   6.150
10945TIP3    H132780   4.283   4.642   6.236
10945TIP3    H232781   4.317   4.570   6.107
10946TIP3   OH232782   7.095   2.404   4.022
10946TIP3    H132783   7.052   2.393   4.107
10946TIP3    H232784   7.119   2.496   4.018
10947TIP3   OH232785   5.199   2.005   5.856
10947TIP3    H132786   5.163   2.051   5.932
10947TIP3    H232787   5.202   1.914   5.883
10948TIP3   OH232788   1.848   4.605   0.691
10948TIP3    H132789   1.880   4.670   0.754
10948TIP3    H232790   1.873   4.521   0.729
10949TIP3   OH232791   4.933   4.842   0.908
10949TIP3    H132792   4.920   4.933   0.935
10949TIP3    H232793   5.011   4.845   0.852
10950TIP3   OH232794   3.252   1.255   5.761
10950TIP3    H132795   3.295   1.209   5.833
10950TIP3    H232796   3.159   1.247   5.779
10951TIP3   OH232797   3.057   1.365   6.454
10951TIP3    H132798   3.121   1.374   6.384
10951TIP3    H232799   3.085   1.429   6.520
10952TIP3   OH232800   3.450   2.820   2.415
10952TIP3    H132801   3.469   2.804   2.507
10952TIP3    H232802   3.455   2.915   2.405
10953TIP3   OH232803   6.355   4.816   5.848
10953TIP3    H132804   6.342   4.734   5.799
10953TIP3    H232805   6.324   4.796   5.936
10954TIP3   OH232806   5.844   4.686   4.042
10954TIP3    H132807   5.786   4.684   4.118
10954TIP3    H232808   5.857   4.779   4.024
10955TIP3   OH232809   4.827   1.019   3.589
10955TIP3    H132810   4.904   1.017   3.532
10955TIP3    H232811   4.770   1.085   3.549
10956TIP3   OH232812   1.941   4.032   0.762
10956TIP3    H132813   1.855   4.011   0.728
10956TIP3    H232814   1.951   3.977   0.840
10957TIP3   OH232815   7.404   0.437   5.620
10957TIP3    H132816   7.379   0.439   5.713
10957TIP3    H232817   7.468   0.507   5.612
10958TIP3   OH232818   1.546   2.701   2.152
10958TIP3    H132819   1.478   2.715   2.218
10958TIP3    H232820   1.562   2.607   2.153
10959TIP3   OH232821   7.893   3.344   0.331
10959TIP3    H132822   7.970   3.290   0.351
10959TIP3    H232823   7.846   3.294   0.264
10960TIP3   OH232824   0.156   7.077   0.913
10960TIP3    H132825   0.109   7.148   0.956
10960TIP3    H232826   0.140   7.090   0.820
10961TIP3   OH232827   2.865   5.966   3.670
10961TIP3    H132828   2.792   6.015   3.706
10961TIP3    H232829   2.866   5.989   3.577
10962TIP3   OH232830   0.570   6.775   6.420
10962TIP3    H132831   0.522   6.837   6.365
10962TIP3    H232832   0.655   6.765   6.377
10963TIP3   OH232833   6.692   3.174   2.072
10963TIP3    H132834   6.646   3.208   2.149
10963TIP3    H232835   6.637   3.200   1.998
10964TIP3   OH232836   8.300   0.829   5.971
10964TIP3    H132837   8.234   0.843   6.039
10964TIP3    H232838   8.280   0.742   5.936
10965TIP3   OH232839   1.852   3.130   6.444
10965TIP3    H132840   1.897   3.173   6.517
10965TIP3    H232841   1.776   3.087   6.485
10966TIP3   OH232842   4.298   0.530   1.495
10966TIP3    H132843   4.222   0.476   1.518
10966TIP3    H232844   4.277   0.617   1.530
10967TIP3   OH232845   3.566   5.979   2.164
10967TIP3    H132846   3.572   5.920   2.089
10967TIP3    H232847   3.475   5.971   2.193
10968TIP3   OH232848   4.895   4.549   2.498
10968TIP3    H132849   4.972   4.570   2.445
10968TIP3    H232850   4.920   4.469   2.545
10969TIP3   OH232851   5.009   5.403   2.228
10969TIP3    H132852   4.977   5.493   2.241
10969TIP3    H232853   4.986   5.383   2.137
10970TIP3   OH232854   7.120   7.735   4.295
10970TIP3    H132855   7.035   7.702   4.322
10970TIP3    H232856   7.121   7.725   4.200
10971TIP3   OH232857   1.457   0.208   3.426
10971TIP3    H132858   1.448   0.176   3.515
10971TIP3    H232859   1.368   0.233   3.400
10972TIP3   OH232860   5.631   3.374   4.453
10972TIP3    H132861   5.723   3.393   4.468
10972TIP3    H232862   5.593   3.367   4.540
10973TIP3   OH232863   3.656   5.113   3.628
10973TIP3    H132864   3.698   5.109   3.541
10973TIP3    H232865   3.596   5.038   3.629
10974TIP3   OH232866   4.292   5.499   1.740
10974TIP3    H132867   4.322   5.517   1.829
10974TIP3    H232868   4.369   5.509   1.685
10975TIP3   OH232869   7.705   2.583   3.452
10975TIP3    H132870   7.787   2.622   3.422
10975TIP3    H232871   7.711   2.585   3.547
10976TIP3   OH232872   1.570   3.457   3.607
10976TIP3    H132873   1.642   3.465   3.544
10976TIP3    H232874   1.598   3.387   3.666
10977TIP3   OH232875   1.311   4.909   3.059
10977TIP3    H132876   1.297   4.922   3.153
10977TIP3    H232877   1.232   4.943   3.018
10978TIP3   OH232878   5.280   1.431   2.529
10978TIP3    H132879   5.202   1.485   2.524
10978TIP3    H232880   5.343   1.475   2.472
10979TIP3   OH232881   2.662   3.560   2.832
10979TIP3    H132882   2.661   3.614   2.753
10979TIP3    H232883   2.612   3.482   2.808
10980TIP3   OH232884   1.257   3.803   3.816
10980TIP3    H132885   1.279   3.804   3.909
10980TIP3    H232886   1.226   3.892   3.798
10981TIP3   OH232887   4.647   3.042   1.466
10981TIP3    H132888   4.710   3.111   1.488
10981TIP3    H232889   4.626   3.058   1.374
10982TIP3   OH232890  -0.034   0.503   1.060
10982TIP3    H132891  -0.015   0.432   0.999
10982TIP3    H232892   0.049   0.549   1.070
10983TIP3   OH232893   4.820   7.485   0.061
10983TIP3    H132894   4.862   7.440   0.135
10983TIP3    H232895   4.727   7.483   0.082
10984TIP3   OH232896   3.248   2.069   4.833
10984TIP3    H132897   3.241   2.157   4.868
10984TIP3    H232898   3.335   2.067   4.792
10985TIP3   OH232899   1.127   3.625   6.446
10985TIP3    H132900   1.078   3.644   6.526
10985TIP3    H232901   1.175   3.545   6.466
10986TIP3   OH232902   1.185   5.899   5.796
10986TIP3    H132903   1.150   5.826   5.846
10986TIP3    H232904   1.141   5.894   5.711
10987TIP3   OH232905   3.660   2.266   5.814
10987TIP3    H132906   3.699   2.348   5.844
10987TIP3    H232907   3.575   2.262   5.859
10988TIP3   OH232908   3.454   0.699  -0.033
10988TIP3    H132909   3.547   0.698  -0.013
10988TIP3    H232910   3.411   0.717   0.051
10989TIP3   OH232911   7.377   5.757   0.432
10989TIP3    H132912   7.353   5.823   0.366
10989TIP3    H232913   7.391   5.677   0.382
10990TIP3   OH232914   5.816   2.652   3.801
10990TIP3    H132915   5.867   2.733   3.807
10990TIP3    H232916   5.878   2.583   3.827
10991TIP3   OH232917   4.672   3.651   1.844
10991TIP3    H132918   4.609   3.720   1.821
10991TIP3    H232919   4.750   3.672   1.793
10992TIP3   OH232920   3.217   4.739   5.499
10992TIP3    H132921   3.287   4.788   5.456
10992TIP3    H232922   3.239   4.742   5.592
10993TIP3   OH232923   4.686   5.713   6.336
10993TIP3    H132924   4.717   5.703   6.246
10993TIP3    H232925   4.661   5.805   6.343
10994TIP3   OH232926   1.816   0.032   2.895
10994TIP3    H132927   1.768  -0.004   2.969
10994TIP3    H232928   1.892  -0.025   2.885
10995TIP3   OH232929   6.337   2.613   5.017
10995TIP3    H132930   6.290   2.636   5.097
10995TIP3    H232931   6.312   2.680   4.954
10996TIP3   OH232932   5.280   4.896   5.581
10996TIP3    H132933   5.272   4.915   5.674
10996TIP3    H232934   5.253   4.976   5.537
10997TIP3   OH232935   1.749   1.335   0.376
10997TIP3    H132936   1.844   1.330   0.380
10997TIP3    H232937   1.719   1.245   0.388
10998TIP3   OH232938   5.639   6.546   4.034
10998TIP3    H132939   5.548   6.574   4.041
10998TIP3    H232940   5.659   6.508   4.120
10999TIP3   OH232941   4.689   1.464   6.374
10999TIP3    H132942   4.688   1.530   6.305
10999TIP3    H232943   4.733   1.389   6.335
11000TIP3   OH232944   7.476   5.099   6.486
11000TIP3    H132945   7.380   5.098   6.483
11000TIP3    H232946   7.497   5.132   6.573
11001TIP3   OH232947   1.077   6.402   5.172
11001TIP3    H132948   1.035   6.343   5.235
11001TIP3    H232949   1.005   6.454   5.137
11002TIP3   OH232950   2.596   4.001   0.644
11002TIP3    H132951   2.512   4.044   0.629
11002TIP3    H232952   2.610   3.948   0.566
11003TIP3   OH232953   3.783   1.114   4.026
11003TIP3    H132954   3.871   1.107   3.988
11003TIP3    H232955   3.724   1.087   3.956
11004TIP3   OH232956   6.771   6.080   3.202
11004TIP3    H132957   6.727   6.078   3.117
11004TIP3    H232958   6.864   6.066   3.181
11005TIP3   OH232959   7.958   4.009   1.733
11005TIP3    H132960   7.872   4.023   1.693
11005TIP3    H232961   8.020   4.036   1.665
11006TIP3   OH232962   6.396   6.464   5.114
11006TIP3    H132963   6.396   6.526   5.187
11006TIP3    H232964   6.308   6.470   5.077
11007TIP3   OH232965   5.381   3.173   1.324
11007TIP3    H132966   5.436   3.167   1.402
11007TIP3    H232967   5.441   3.203   1.255
11008TIP3   OH232968   5.859   4.125   5.564
11008TIP3    H132969   5.807   4.105   5.486
11008TIP3    H232970   5.816   4.200   5.604
11009TIP3   OH232971   4.850   1.240   4.831
11009TIP3    H132972   4.773   1.233   4.775
11009TIP3    H232973   4.819   1.283   4.910
11010TIP3   OH232974   1.104   5.895   4.973
11010TIP3    H132975   1.150   5.954   5.033
11010TIP3    H232976   1.165   5.822   4.960
11011TIP3   OH232977   0.088   6.216   0.453
11011TIP3    H132978   0.041   6.260   0.523
11011TIP3    H232979   0.070   6.123   0.466
11012TIP3   OH232980   4.875   2.908   1.587
11012TIP3    H132981   4.822   2.975   1.544
11012TIP3    H232982   4.945   2.957   1.630
11013TIP3   OH232983   0.985   1.898   5.032
11013TIP3    H132984   1.070   1.859   5.049
11013TIP3    H232985   1.004   1.971   4.973
11014TIP3   OH232986   0.291   7.837   0.529
11014TIP3    H132987   0.296   7.865   0.437
11014TIP3    H232988   0.260   7.747   0.525
11015TIP3   OH232989   1.969   7.718   5.965
11015TIP3    H132990   2.061   7.709   5.991
11015TIP3    H232991   1.958   7.812   5.950
11016TIP3   OH232992   6.103   1.655   1.754
11016TIP3    H132993   6.170   1.668   1.687
11016TIP3    H232994   6.024   1.630   1.706
11017TIP3   OH232995   2.391   4.714   0.269
11017TIP3    H132996   2.355   4.627   0.249
11017TIP3    H232997   2.386   4.721   0.364
11018TIP3   OH232998   5.020   0.681   3.077
11018TIP3    H132999   5.019   0.599   3.127
11018TIP3    H233000   5.111   0.693   3.052
11019TIP3   OH233001   7.883   1.484  -0.010
11019TIP3    H133002   7.842   1.558   0.035
11019TIP3    H233003   7.862   1.408   0.045
11020TIP3   OH233004   7.285   7.658   3.657
11020TIP3    H133005   7.289   7.562   3.665
11020TIP3    H233006   7.321   7.690   3.740
11021TIP3   OH233007   3.725   1.469   3.396
11021TIP3    H133008   3.671   1.453   3.318
11021TIP3    H233009   3.668   1.445   3.469
11022TIP3   OH233010   0.569   4.790   0.152
11022TIP3    H133011   0.645   4.759   0.102
11022TIP3    H233012   0.546   4.874   0.111
11023TIP3   OH233013   3.980   7.704   2.877
11023TIP3    H133014   3.948   7.792   2.857
11023TIP3    H233015   3.956   7.690   2.969
11024TIP3   OH233016   0.264   5.914   5.959
11024TIP3    H133017   0.301   5.986   5.908
11024TIP3    H233018   0.339   5.860   5.982
11025TIP3   OH233019   0.072   2.438   3.706
11025TIP3    H133020   0.006   2.449   3.774
11025TIP3    H233021   0.049   2.356   3.662
11026TIP3   OH233022   6.749   2.652   4.882
11026TIP3    H133023   6.681   2.638   4.949
11026TIP3    H233024   6.809   2.578   4.893
11027TIP3   OH233025   6.829   2.195   2.944
11027TIP3    H133026   6.905   2.185   2.887
11027TIP3    H233027   6.851   2.269   3.001
11028TIP3   OH233028   3.483   0.410   4.188
11028TIP3    H133029   3.445   0.420   4.275
11028TIP3    H233030   3.409   0.421   4.128
11029TIP3   OH233031   2.272   6.626   2.797
11029TIP3    H133032   2.340   6.581   2.747
11029TIP3    H233033   2.273   6.585   2.883
11030TIP3   OH233034   2.632   1.866   2.301
11030TIP3    H133035   2.605   1.807   2.230
11030TIP3    H233036   2.712   1.827   2.336
11031TIP3   OH233037   1.686   3.759   3.403
11031TIP3    H133038   1.693   3.804   3.487
11031TIP3    H233039   1.600   3.783   3.370
11032TIP3   OH233040   0.126   7.089   5.126
11032TIP3    H133041   0.160   7.000   5.138
11032TIP3    H233042   0.191   7.146   5.167
11033TIP3   OH233043   3.107   4.650   1.356
11033TIP3    H133044   3.015   4.672   1.374
11033TIP3    H233045   3.137   4.719   1.297
11034TIP3   OH233046   5.287   4.976   6.359
11034TIP3    H133047   5.198   5.002   6.338
11034TIP3    H233048   5.336   5.058   6.365
11035TIP3   OH233049   7.064   0.466   3.137
11035TIP3    H133050   7.032   0.387   3.181
11035TIP3    H233051   6.989   0.496   3.085
11036TIP3   OH233052   5.949   0.679   5.013
11036TIP3    H133053   5.969   0.685   5.107
11036TIP3    H233054   5.962   0.587   4.992
11037TIP3   OH233055   0.813   5.752   3.188
11037TIP3    H133056   0.816   5.845   3.213
11037TIP3    H233057   0.902   5.721   3.202
11038TIP3   OH233058   1.204   7.078   5.081
11038TIP3    H133059   1.241   7.103   4.996
11038TIP3    H233060   1.236   6.989   5.096
11039TIP3   OH233061   4.154   2.288   3.580
11039TIP3    H133062   4.098   2.325   3.512
11039TIP3    H233063   4.156   2.194   3.562
11040TIP3   OH233064   7.534   7.457   5.809
11040TIP3    H133065   7.619   7.421   5.782
11040TIP3    H233066   7.537   7.548   5.781
11041TIP3   OH233067   1.227   6.931   5.889
11041TIP3    H133068   1.246   6.992   5.818
11041TIP3    H233069   1.273   6.851   5.865
11042TIP3   OH233070   2.017   5.247   1.262
11042TIP3    H133071   2.092   5.306   1.268
11042TIP3    H233072   1.954   5.293   1.207
11043TIP3   OH233073   3.050   0.460   3.291
11043TIP3    H133074   3.012   0.412   3.365
11043TIP3    H233075   3.007   0.546   3.294
11044TIP3   OH233076   6.937   6.659   1.550
11044TIP3    H133077   6.863   6.603   1.527
11044TIP3    H233078   6.961   6.702   1.468
11045TIP3   OH233079   4.894   5.674   1.626
11045TIP3    H133080   4.853   5.761   1.626
11045TIP3    H233081   4.983   5.690   1.596
11046TIP3   OH233082   4.306   1.899   1.230
11046TIP3    H133083   4.384   1.928   1.182
11046TIP3    H233084   4.328   1.812   1.263
11047TIP3   OH233085   3.871   0.571   5.450
11047TIP3    H133086   3.924   0.560   5.530
11047TIP3    H233087   3.884   0.488   5.403
11048TIP3   OH233088   3.063   1.643   2.829
11048TIP3    H133089   3.115   1.570   2.796
11048TIP3    H233090   3.023   1.682   2.751
11049TIP3   OH233091   1.000   5.682   4.412
11049TIP3    H133092   1.009   5.587   4.403
11049TIP3    H233093   0.923   5.694   4.468
11050TIP3   OH233094   2.023   2.824   3.165
11050TIP3    H133095   2.110   2.862   3.173
11050TIP3    H233096   2.002   2.833   3.072
11051TIP3   OH233097   4.152   1.408   1.264
11051TIP3    H133098   4.163   1.319   1.230
11051TIP3    H233099   4.199   1.408   1.347
11052TIP3   OH233100   1.967   1.923   2.938
11052TIP3    H133101   1.972   2.019   2.933
11052TIP3    H233102   1.933   1.897   2.853
11053TIP3   OH233103   7.630   3.380   5.150
11053TIP3    H133104   7.540   3.348   5.163
11053TIP3    H233105   7.622   3.475   5.149
11054TIP3   OH233106   0.220   6.749   0.906
11054TIP3    H133107   0.190   6.836   0.879
11054TIP3    H233108   0.273   6.718   0.832
11055TIP3   OH233109   0.640   7.558   1.681
11055TIP3    H133110   0.712   7.618   1.700
11055TIP3    H233111   0.636   7.500   1.757
11056TIP3   OH233112   8.110   0.765   2.110
11056TIP3    H133113   8.040   0.737   2.051
11056TIP3    H233114   8.079   0.848   2.146
11057TIP3   OH233115   6.809   0.914   1.359
11057TIP3    H133116   6.892   0.961   1.354
11057TIP3    H233117   6.829   0.834   1.408
11058TIP3   OH233118   4.995   7.718   0.328
11058TIP3    H133119   4.983   7.624   0.314
11058TIP3    H233120   5.068   7.742   0.272
11059TIP3   OH233121   2.779   3.878   5.690
11059TIP3    H133122   2.799   3.801   5.635
11059TIP3    H233123   2.860   3.929   5.689
11060TIP3   OH233124   3.747   0.574   6.414
11060TIP3    H133125   3.803   0.506   6.451
11060TIP3    H233126   3.763   0.570   6.320
11061TIP3   OH233127   7.412   5.490   1.924
11061TIP3    H133128   7.327   5.521   1.893
11061TIP3    H233129   7.461   5.569   1.945
11062TIP3   OH233130   4.588   2.708   2.617
11062TIP3    H133131   4.543   2.659   2.686
11062TIP3    H233132   4.518   2.758   2.575
11063TIP3   OH233133   4.185  -0.044   1.714
11063TIP3    H133134   4.168   0.038   1.668
11063TIP3    H233135   4.098  -0.078   1.735
11064TIP3   OH233136   3.285   6.021   2.257
11064TIP3    H133137   3.216   6.013   2.190
11064TIP3    H233138   3.239   6.053   2.334
11065TIP3   OH233139   5.401   6.698   3.455
11065TIP3    H133140   5.438   6.743   3.532
11065TIP3    H233141   5.440   6.611   3.457
11066TIP3   OH233142   6.487   3.162   6.461
11066TIP3    H133143   6.524   3.142   6.547
11066TIP3    H233144   6.511   3.088   6.406
11067TIP3   OH233145   2.135   5.961   6.092
11067TIP3    H133146   2.212   5.916   6.126
11067TIP3    H233147   2.170   6.040   6.051
11068TIP3   OH233148   2.285   6.941   0.639
11068TIP3    H133149   2.255   7.021   0.595
11068TIP3    H233150   2.282   6.962   0.732
11069TIP3   OH233151   2.848   7.240   6.449
11069TIP3    H133152   2.935   7.222   6.413
11069TIP3    H233153   2.824   7.325   6.413
11070TIP3   OH233154   7.017   4.796   5.984
11070TIP3    H133155   6.945   4.742   6.017
11070TIP3    H233156   6.976   4.857   5.923
11071TIP3   OH233157   0.080   2.255   2.881
11071TIP3    H133158   0.003   2.267   2.825
11071TIP3    H233159   0.152   2.240   2.820
11072TIP3   OH233160   6.838   0.906   2.874
11072TIP3    H133161   6.810   0.852   2.947
11072TIP3    H233162   6.770   0.973   2.865
11073TIP3   OH233163   2.615   4.705   2.419
11073TIP3    H133164   2.585   4.796   2.417
11073TIP3    H233165   2.537   4.655   2.444
11074TIP3   OH233166   4.385   0.308   6.730
11074TIP3    H133167   4.439   0.385   6.713
11074TIP3    H233168   4.419   0.272   6.812
11075TIP3   OH233169   8.160   7.252   3.598
11075TIP3    H133170   8.087   7.303   3.564
11075TIP3    H233171   8.234   7.276   3.542
11076TIP3   OH233172   7.980   2.783   0.973
11076TIP3    H133173   7.981   2.878   0.977
11076TIP3    H233174   8.000   2.754   1.062
11077TIP3   OH233175   5.331   5.870   6.596
11077TIP3    H133176   5.284   5.878   6.678
11077TIP3    H233177   5.298   5.789   6.556
11078TIP3   OH233178   6.776   4.351   3.848
11078TIP3    H133179   6.814   4.342   3.935
11078TIP3    H233180   6.849   4.340   3.788
11079TIP3   OH233181   1.074   4.159   2.426
11079TIP3    H133182   1.164   4.137   2.400
11079TIP3    H233183   1.084   4.229   2.490
11080TIP3   OH233184   1.622   4.128   2.182
11080TIP3    H133185   1.669   4.141   2.100
11080TIP3    H233186   1.601   4.035   2.183
11081TIP3   OH233187   7.095   2.168   3.456
11081TIP3    H133188   7.082   2.159   3.362
11081TIP3    H233189   7.079   2.081   3.492
11082TIP3   OH233190   0.761   4.767   5.076
11082TIP3    H133191   0.682   4.720   5.053
11082TIP3    H233192   0.811   4.772   4.995
11083TIP3   OH233193   5.070   4.051   0.569
11083TIP3    H133194   5.142   4.110   0.549
11083TIP3    H233195   5.104   3.964   0.550
11084TIP3   OH233196   3.531   6.781   5.523
11084TIP3    H133197   3.523   6.873   5.546
11084TIP3    H233198   3.527   6.780   5.427
11085TIP3   OH233199   0.037   7.519   6.325
11085TIP3    H133200   0.062   7.427   6.336
11085TIP3    H233201  -0.036   7.517   6.263
11086TIP3   OH233202   7.814   4.225   0.022
11086TIP3    H133203   7.873   4.165   0.067
11086TIP3    H233204   7.791   4.180  -0.059
11087TIP3   OH233205   2.055   5.456   4.158
11087TIP3    H133206   2.080   5.390   4.093
11087TIP3    H233207   2.134   5.507   4.172
11088TIP3   OH233208   7.934   6.207   2.813
11088TIP3    H133209   7.971   6.127   2.776
11088TIP3    H233210   7.978   6.216   2.898
11089TIP3   OH233211   5.319   5.411   0.576
11089TIP3    H133212   5.270   5.450   0.649
11089TIP3    H233213   5.334   5.484   0.516
11090TIP3   OH233214   7.868   3.504   2.019
11090TIP3    H133215   7.953   3.497   1.974
11090TIP3    H233216   7.884   3.568   2.089
11091TIP3   OH233217   1.065   0.621   3.619
11091TIP3    H133218   1.118   0.580   3.687
11091TIP3    H233219   0.980   0.576   3.625
11092TIP3   OH233220   0.666   2.941   6.726
11092TIP3    H133221   0.705   2.968   6.642
11092TIP3    H233222   0.631   2.854   6.708
11093TIP3   OH233223   2.909   6.439   2.796
11093TIP3    H133224   2.883   6.366   2.739
11093TIP3    H233225   2.981   6.482   2.749
11094TIP3   OH233226   6.212   4.905   4.469
11094TIP3    H133227   6.278   4.891   4.536
11094TIP3    H233228   6.141   4.951   4.513
11095TIP3   OH233229   4.131   7.409   4.325
11095TIP3    H133230   4.215   7.380   4.361
11095TIP3    H233231   4.151   7.434   4.234
11096TIP3   OH233232   3.915   3.006   3.625
11096TIP3    H133233   3.887   2.920   3.656
11096TIP3    H233234   4.002   2.991   3.588
11097TIP3   OH233235   4.404   1.876   4.966
11097TIP3    H133236   4.442   1.795   4.999
11097TIP3    H233237   4.421   1.941   5.034
11098TIP3   OH233238   6.575   3.122   5.858
11098TIP3    H133239   6.649   3.166   5.816
11098TIP3    H233240   6.550   3.180   5.930
11099TIP3   OH233241   2.341   0.284   5.854
11099TIP3    H133242   2.260   0.288   5.804
11099TIP3    H233243   2.394   0.356   5.818
11100TIP3   OH233244   4.265   6.552   2.146
11100TIP3    H133245   4.243   6.573   2.237
11100TIP3    H233246   4.200   6.599   2.094
11101TIP3   OH233247   2.255   2.751   4.795
11101TIP3    H133248   2.275   2.845   4.799
11101TIP3    H233249   2.280   2.725   4.707
11102TIP3   OH233250   2.432   7.733   4.724
11102TIP3    H133251   2.495   7.725   4.652
11102TIP3    H233252   2.473   7.793   4.786
11103TIP3   OH233253   7.301   0.667   0.996
11103TIP3    H133254   7.292   0.741   1.057
11103TIP3    H233255   7.382   0.625   1.023
11104TIP3   OH233256   1.300   6.095   2.814
11104TIP3    H133257   1.367   6.044   2.769
11104TIP3    H233258   1.232   6.111   2.748
11105TIP3   OH233259   6.910   0.553   0.679
11105TIP3    H133260   6.935   0.537   0.770
11105TIP3    H233261   6.991   0.543   0.630
11106TIP3   OH233262   3.687   4.512   1.931
11106TIP3    H133263   3.707   4.517   1.838
11106TIP3    H233264   3.627   4.439   1.939
11107TIP3   OH233265   3.907   4.866   1.379
11107TIP3    H133266   3.989   4.860   1.330
11107TIP3    H233267   3.863   4.783   1.361
11108TIP3   OH233268   1.878   4.381   5.725
11108TIP3    H133269   1.923   4.464   5.746
11108TIP3    H233270   1.949   4.318   5.713
11109TIP3   OH233271   1.944   4.524   0.945
11109TIP3    H133272   1.958   4.472   0.866
11109TIP3    H233273   1.957   4.462   1.017
11110TIP3   OH233274   2.987   7.590   0.373
11110TIP3    H133275   2.911   7.540   0.404
11110TIP3    H233276   2.953   7.639   0.297
11111TIP3   OH233277   2.070   2.919   6.701
11111TIP3    H133278   2.162   2.940   6.688
11111TIP3    H233279   2.058   2.836   6.655
11112TIP3   OH233280   3.264   2.490   2.894
11112TIP3    H133281   3.191   2.517   2.950
11112TIP3    H233282   3.226   2.486   2.806
11113TIP3   OH233283   3.229   2.018   0.228
11113TIP3    H133284   3.293   2.078   0.266
11113TIP3    H233285   3.213   2.052   0.141
11114TIP3   OH233286   7.873   0.246   6.563
11114TIP3    H133287   7.825   0.291   6.633
11114TIP3    H233288   7.947   0.304   6.544
11115TIP3   OH233289   4.185   7.211   3.044
11115TIP3    H133290   4.210   7.247   2.959
11115TIP3    H233291   4.190   7.285   3.104
11116TIP3   OH233292   5.432   0.680   5.569
11116TIP3    H133293   5.355   0.626   5.551
11116TIP3    H233294   5.491   0.624   5.618
11117TIP3   OH233295   0.400   0.954   4.239
11117TIP3    H133296   0.396   0.898   4.317
11117TIP3    H233297   0.316   0.943   4.196
11118TIP3   OH233298   4.625   0.034   0.973
11118TIP3    H133299   4.578   0.058   1.053
11118TIP3    H233300   4.697  -0.022   1.003
11119TIP3   OH233301   1.098   0.195   0.116
11119TIP3    H133302   1.175   0.252   0.110
11119TIP3    H233303   1.028   0.252   0.146
11120TIP3   OH233304   8.187   5.374   3.569
11120TIP3    H133305   8.175   5.312   3.641
11120TIP3    H233306   8.108   5.366   3.516
11121TIP3   OH233307   2.203   0.735   1.842
11121TIP3    H133308   2.239   0.703   1.925
11121TIP3    H233309   2.110   0.712   1.846
11122TIP3   OH233310   2.677   5.990   0.728
11122TIP3    H133311   2.649   5.942   0.805
11122TIP3    H233312   2.685   5.924   0.660
11123TIP3   OH233313   4.485   1.919   2.751
11123TIP3    H133314   4.539   1.842   2.771
11123TIP3    H233315   4.525   1.990   2.802
11124TIP3   OH233316   4.276   5.478   5.352
11124TIP3    H133317   4.366   5.454   5.328
11124TIP3    H233318   4.272   5.467   5.447
11125TIP3   OH233319   1.430   1.002   0.823
11125TIP3    H133320   1.404   0.954   0.901
11125TIP3    H233321   1.483   1.075   0.856
11126TIP3   OH233322   7.296   0.937   1.985
11126TIP3    H133323   7.218   0.882   1.982
11126TIP3    H233324   7.337   0.926   1.899
11127TIP3   OH233325   6.331   6.425   4.095
11127TIP3    H133326   6.400   6.440   4.030
11127TIP3    H233327   6.328   6.506   4.146
11128TIP3   OH233328   3.843   2.199   6.404
11128TIP3    H133329   3.807   2.116   6.372
11128TIP3    H233330   3.839   2.190   6.500
11129TIP3   OH233331   2.514   5.792   4.473
11129TIP3    H133332   2.500   5.879   4.434
11129TIP3    H233333   2.427   5.754   4.480
11130TIP3   OH233334   6.039   0.026   5.895
11130TIP3    H133335   5.998   0.085   5.831
11130TIP3    H233336   6.052  -0.056   5.847
11131TIP3   OH233337   5.539   4.616   5.915
11131TIP3    H133338   5.478   4.676   5.958
11131TIP3    H233339   5.559   4.658   5.831
11132TIP3   OH233340   1.523   4.730   0.581
11132TIP3    H133341   1.609   4.772   0.580
11132TIP3    H233342   1.503   4.721   0.674
11133TIP3   OH233343   4.403   6.180   2.311
11133TIP3    H133344   4.438   6.092   2.328
11133TIP3    H233345   4.364   6.174   2.224
11134TIP3   OH233346   3.521   1.526   1.935
11134TIP3    H133347   3.513   1.619   1.955
11134TIP3    H233348   3.597   1.519   1.878
11135TIP3   OH233349   6.678   2.577   3.527
11135TIP3    H133350   6.720   2.535   3.602
11135TIP3    H233351   6.705   2.523   3.452
11136TIP3   OH233352   1.827   6.583   1.049
11136TIP3    H133353   1.861   6.624   0.970
11136TIP3    H233354   1.789   6.655   1.099
11137TIP3   OH233355   1.120   6.087   1.816
11137TIP3    H133356   1.120   6.099   1.721
11137TIP3    H233357   1.192   6.025   1.833
11138TIP3   OH233358   1.470   2.549   3.113
11138TIP3    H133359   1.501   2.630   3.152
11138TIP3    H233360   1.380   2.567   3.085
11139TIP3   OH233361   1.802   3.411   0.372
11139TIP3    H133362   1.814   3.365   0.455
11139TIP3    H233363   1.852   3.492   0.383
11140TIP3   OH233364   4.443   3.840   5.859
11140TIP3    H133365   4.535   3.864   5.849
11140TIP3    H233366   4.421   3.866   5.949
11141TIP3   OH233367   1.737   2.801   1.565
11141TIP3    H133368   1.643   2.821   1.561
11141TIP3    H233369   1.762   2.823   1.655
11142TIP3   OH233370   4.220   5.000   0.131
11142TIP3    H133371   4.315   5.009   0.135
11142TIP3    H233372   4.193   5.057   0.059
11143TIP3   OH233373   1.253   1.121   3.342
11143TIP3    H133374   1.214   1.096   3.425
11143TIP3    H233375   1.328   1.062   3.332
11144TIP3   OH233376   5.632   1.777   0.792
11144TIP3    H133377   5.672   1.752   0.875
11144TIP3    H233378   5.694   1.747   0.725
11145TIP3   OH233379   4.654   2.931   4.752
11145TIP3    H133380   4.725   2.867   4.758
11145TIP3    H233381   4.671   2.978   4.670
11146TIP3   OH233382   7.528   0.883   0.062
11146TIP3    H133383   7.570   0.953   0.011
11146TIP3    H233384   7.481   0.831  -0.004
11147TIP3   OH233385   2.738   6.965   5.309
11147TIP3    H133386   2.681   6.966   5.386
11147TIP3    H233387   2.699   7.029   5.250
11148TIP3   OH233388   3.451   7.527   1.290
11148TIP3    H133389   3.526   7.586   1.298
11148TIP3    H233390   3.376   7.581   1.316
11149TIP3   OH233391   4.180   7.109   4.229
11149TIP3    H133392   4.106   7.169   4.221
11149TIP3    H233393   4.144   7.031   4.270
11150TIP3   OH233394   6.316   3.833   0.243
11150TIP3    H133395   6.260   3.824   0.166
11150TIP3    H233396   6.384   3.894   0.216
11151TIP3   OH233397   4.581   5.171   2.358
11151TIP3    H133398   4.489   5.186   2.378
11151TIP3    H233399   4.614   5.124   2.434
11152TIP3   OH233400   7.955   3.709   0.560
11152TIP3    H133401   7.949   3.664   0.476
11152TIP3    H233402   7.982   3.641   0.622
11153TIP3   OH233403   2.427   3.274   0.621
11153TIP3    H133404   2.371   3.278   0.543
11153TIP3    H233405   2.368   3.251   0.692
11154TIP3   OH233406   7.421   2.007   2.857
11154TIP3    H133407   7.336   2.050   2.865
11154TIP3    H233408   7.463   2.021   2.942
11155TIP3   OH233409   0.832   7.618   5.289
11155TIP3    H133410   0.904   7.560   5.316
11155TIP3    H233411   0.770   7.560   5.245
11156TIP3   OH233412   3.153   4.325   2.235
11156TIP3    H133413   3.123   4.288   2.152
11156TIP3    H233414   3.208   4.257   2.273
11157TIP3   OH233415   0.663   6.795   3.019
11157TIP3    H133416   0.616   6.796   3.102
11157TIP3    H233417   0.751   6.765   3.042
11158TIP3   OH233418   7.976   6.200   6.313
11158TIP3    H133419   8.012   6.274   6.264
11158TIP3    H233420   8.037   6.188   6.386
11159TIP3   OH233421   1.730   0.422   0.870
11159TIP3    H133422   1.749   0.459   0.784
11159TIP3    H233423   1.645   0.460   0.894
11160TIP3   OH233424   1.472   3.386   5.831
11160TIP3    H133425   1.431   3.448   5.771
11160TIP3    H233426   1.560   3.421   5.846
11161TIP3   OH233427   1.761   1.765   4.923
11161TIP3    H133428   1.817   1.747   4.848
11161TIP3    H233429   1.789   1.703   4.990
11162TIP3   OH233430   6.268   0.163   3.986
11162TIP3    H133431   6.318   0.099   3.936
11162TIP3    H233432   6.323   0.182   4.062
11163TIP3   OH233433   3.167   6.542   6.739
11163TIP3    H133434   3.168   6.525   6.833
11163TIP3    H233435   3.232   6.611   6.727
11164TIP3   OH233436   1.179   2.545   6.539
11164TIP3    H133437   1.094   2.584   6.518
11164TIP3    H233438   1.160   2.478   6.605
11165TIP3   OH233439   6.695   5.165   2.370
11165TIP3    H133440   6.632   5.236   2.360
11165TIP3    H233441   6.652   5.103   2.430
11166TIP3   OH233442   7.723   5.980   2.825
11166TIP3    H133443   7.750   6.071   2.837
11166TIP3    H233444   7.650   5.969   2.886
11167TIP3   OH233445   7.073   7.288   6.416
11167TIP3    H133446   7.110   7.308   6.330
11167TIP3    H233447   7.071   7.193   6.419
11168TIP3   OH233448   7.877   3.376   4.550
11168TIP3    H133449   7.953   3.421   4.513
11168TIP3    H233450   7.861   3.303   4.490
11169TIP3   OH233451   0.838   5.937   4.000
11169TIP3    H133452   0.911   5.876   4.010
11169TIP3    H233453   0.877   6.014   3.958
11170TIP3   OH233454   6.677   0.091   4.250
11170TIP3    H133455   6.664   0.053   4.337
11170TIP3    H233456   6.700   0.016   4.195
11171TIP3   OH233457   0.545   6.545   2.962
11171TIP3    H133458   0.460   6.554   2.918
11171TIP3    H233459   0.576   6.634   2.974
11172TIP3   OH233460   7.435   5.431   4.965
11172TIP3    H133461   7.501   5.489   4.928
11172TIP3    H233462   7.426   5.458   5.056
11173TIP3   OH233463   7.878   2.033   4.404
11173TIP3    H133464   7.828   2.057   4.482
11173TIP3    H233465   7.825   2.066   4.331
11174TIP3   OH233466   3.225   6.375   5.832
11174TIP3    H133467   3.217   6.326   5.750
11174TIP3    H233468   3.318   6.368   5.855
11175TIP3   OH233469   8.008   6.119   0.477
11175TIP3    H133470   7.968   6.110   0.390
11175TIP3    H233471   7.941   6.086   0.537
11176TIP3   OH233472   3.181   3.622   2.208
11176TIP3    H133473   3.225   3.680   2.271
11176TIP3    H233474   3.089   3.647   2.214
11177TIP3   OH233475   5.519   0.918   5.707
11177TIP3    H133476   5.495   0.858   5.636
11177TIP3    H233477   5.436   0.942   5.747
11178TIP3   OH233478   3.109   5.182   4.097
11178TIP3    H133479   3.179   5.246   4.101
11178TIP3    H233480   3.143   5.105   4.143
11179TIP3   OH233481   7.267   7.232   4.136
11179TIP3    H133482   7.299   7.252   4.224
11179TIP3    H233483   7.173   7.252   4.139
11180TIP3   OH233484   3.540   6.932   0.210
11180TIP3    H133485   3.580   7.018   0.206
11180TIP3    H233486   3.529   6.907   0.118
11181TIP3   OH233487   5.809   2.470   6.204
11181TIP3    H133488   5.869   2.479   6.131
11181TIP3    H233489   5.768   2.384   6.192
11182TIP3   OH233490   1.183   6.203   3.489
11182TIP3    H133491   1.206   6.259   3.414
11182TIP3    H233492   1.169   6.264   3.561
11183TIP3   OH233493   4.687   1.081   2.386
11183TIP3    H133494   4.717   1.169   2.365
11183TIP3    H233495   4.684   1.037   2.301
11184TIP3   OH233496   7.644   6.472   4.317
11184TIP3    H133497   7.639   6.408   4.387
11184TIP3    H233498   7.729   6.456   4.275
11185TIP3   OH233499   6.175   4.497   1.120
11185TIP3    H133500   6.263   4.523   1.090
11185TIP3    H233501   6.137   4.450   1.046
11186TIP3   OH233502   5.625   4.327   1.399
11186TIP3    H133503   5.638   4.342   1.493
11186TIP3    H233504   5.696   4.267   1.375
11187TIP3   OH233505   7.339   4.343   4.627
11187TIP3    H133506   7.375   4.283   4.561
11187TIP3    H233507   7.256   4.304   4.653
11188TIP3   OH233508   0.754   0.498   4.967
11188TIP3    H133509   0.741   0.591   4.947
11188TIP3    H233510   0.694   0.452   4.909
11189TIP3   OH233511   2.273   0.252   1.302
11189TIP3    H133512   2.224   0.184   1.255
11189TIP3    H233513   2.252   0.333   1.255
11190TIP3   OH233514   8.317   4.798   1.032
11190TIP3    H133515   8.236   4.800   0.982
11190TIP3    H233516   8.296   4.843   1.114
11191TIP3   OH233517   6.023   4.288   3.805
11191TIP3    H133518   5.928   4.285   3.793
11191TIP3    H233519   6.035   4.328   3.891
11192TIP3   OH233520   3.919   1.525   4.362
11192TIP3    H133521   3.888   1.491   4.278
11192TIP3    H233522   3.969   1.604   4.339
11193TIP3   OH233523   6.289   4.498   2.750
11193TIP3    H133524   6.194   4.489   2.738
11193TIP3    H233525   6.317   4.411   2.778
11194TIP3   OH233526   0.868   5.428   3.305
11194TIP3    H133527   0.779   5.403   3.330
11194TIP3    H233528   0.914   5.439   3.388
11195TIP3   OH233529   4.188   1.472   2.803
11195TIP3    H133530   4.092   1.466   2.804
11195TIP3    H233531   4.206   1.560   2.772
11196TIP3   OH233532   5.660   5.545   1.273
11196TIP3    H133533   5.737   5.515   1.322
11196TIP3    H233534   5.682   5.528   1.182
11197TIP3   OH233535   3.282   3.193   1.618
11197TIP3    H133536   3.193   3.159   1.627
11197TIP3    H233537   3.291   3.257   1.689
11198TIP3   OH233538   3.361   4.180   0.631
11198TIP3    H133539   3.405   4.106   0.673
11198TIP3    H233540   3.322   4.229   0.704
11199TIP3   OH233541   0.228   2.590   5.327
11199TIP3    H133542   0.320   2.600   5.348
11199TIP3    H233543   0.215   2.643   5.248
11200TIP3   OH233544   5.624   6.297   2.330
11200TIP3    H133545   5.587   6.343   2.406
11200TIP3    H233546   5.553   6.242   2.298
11201TIP3   OH233547   4.149   6.462   5.295
11201TIP3    H133548   4.214   6.395   5.314
11201TIP3    H233549   4.164   6.485   5.203
11202TIP3   OH233550   5.405   0.835   5.330
11202TIP3    H133551   5.436   0.794   5.410
11202TIP3    H233552   5.325   0.882   5.356
11203TIP3   OH233553   1.922   4.651   2.281
11203TIP3    H133554   1.885   4.572   2.242
11203TIP3    H233555   1.870   4.665   2.360
11204TIP3   OH233556   6.491   2.029   5.808
11204TIP3    H133557   6.461   1.941   5.787
11204TIP3    H233558   6.410   2.078   5.827
11205TIP3   OH233559   2.929   4.882   3.117
11205TIP3    H133560   2.872   4.815   3.079
11205TIP3    H233561   2.875   4.922   3.186
11206TIP3   OH233562   4.660   6.590   3.245
11206TIP3    H133563   4.694   6.577   3.157
11206TIP3    H233564   4.626   6.504   3.271
11207TIP3   OH233565   4.899   7.047   1.111
11207TIP3    H133566   4.870   7.133   1.082
11207TIP3    H233567   4.825   6.989   1.092
11208TIP3   OH233568   5.821   1.409   1.826
11208TIP3    H133569   5.834   1.379   1.916
11208TIP3    H233570   5.730   1.388   1.806
11209TIP3   OH233571   0.532   0.935   0.815
11209TIP3    H133572   0.594   0.900   0.751
11209TIP3    H233573   0.547   1.030   0.812
11210TIP3   OH233574   7.307   4.969   3.508
11210TIP3    H133575   7.386   4.987   3.559
11210TIP3    H233576   7.321   4.882   3.471
11211TIP3   OH233577   3.675   6.243   6.169
11211TIP3    H133578   3.617   6.297   6.223
11211TIP3    H233579   3.750   6.299   6.151
11212TIP3   OH233580   5.675   1.496   4.152
11212TIP3    H133581   5.660   1.577   4.104
11212TIP3    H233582   5.621   1.431   4.107
11213TIP3   OH233583   5.886   0.427   1.252
11213TIP3    H133584   5.861   0.348   1.300
11213TIP3    H233585   5.920   0.486   1.320
11214TIP3   OH233586   0.327   2.143   2.136
11214TIP3    H133587   0.309   2.186   2.220
11214TIP3    H233588   0.246   2.151   2.087
11215TIP3   OH233589   0.703   0.524   6.745
11215TIP3    H133590   0.620   0.558   6.778
11215TIP3    H233591   0.678   0.459   6.679
11216TIP3   OH233592   8.144   1.367   2.676
11216TIP3    H133593   8.106   1.348   2.762
11216TIP3    H233594   8.237   1.345   2.686
11217TIP3   OH233595   7.777   6.126   1.260
11217TIP3    H133596   7.788   6.193   1.327
11217TIP3    H233597   7.683   6.127   1.240
11218TIP3   OH233598   3.776   6.071   4.659
11218TIP3    H133599   3.799   6.131   4.588
11218TIP3    H233600   3.722   6.124   4.718
11219TIP3   OH233601   7.608   7.731   2.877
11219TIP3    H133602   7.663   7.664   2.836
11219TIP3    H233603   7.585   7.790   2.805
11220TIP3   OH233604   4.202   2.153   3.001
11220TIP3    H133605   4.223   2.060   3.002
11220TIP3    H233606   4.192   2.175   2.908
11221TIP3   OH233607   3.036   1.748   0.484
11221TIP3    H133608   2.949   1.707   0.493
11221TIP3    H233609   3.097   1.679   0.510
11222TIP3   OH233610   7.108   3.514   3.142
11222TIP3    H133611   7.176   3.460   3.183
11222TIP3    H233612   7.155   3.592   3.111
11223TIP3   OH233613   6.115   2.396   0.223
11223TIP3    H133614   6.082   2.480   0.190
11223TIP3    H233615   6.180   2.368   0.158
11224TIP3   OH233616   6.007   3.710   3.291
11224TIP3    H133617   6.073   3.646   3.318
11224TIP3    H233618   6.040   3.793   3.324
11225TIP3   OH233619   0.765   3.651   3.195
11225TIP3    H133620   0.682   3.656   3.241
11225TIP3    H233621   0.777   3.737   3.155
11226TIP3   OH233622   5.435   2.274   1.696
11226TIP3    H133623   5.468   2.361   1.676
11226TIP3    H233624   5.513   2.218   1.694
11227TIP3   OH233625   1.109   5.193   3.299
11227TIP3    H133626   1.025   5.157   3.329
11227TIP3    H233627   1.136   5.251   3.370
11228TIP3   OH233628   6.109   1.427   2.067
11228TIP3    H133629   6.039   1.419   2.131
11228TIP3    H233630   6.188   1.402   2.114
11229TIP3   OH233631   5.240   3.533   4.805
11229TIP3    H133632   5.234   3.599   4.736
11229TIP3    H233633   5.225   3.581   4.886
11230TIP3   OH233634   1.343   5.036   6.414
11230TIP3    H133635   1.248   5.021   6.420
11230TIP3    H233636   1.354   5.081   6.330
11231TIP3   OH233637   4.733   0.142   4.611
11231TIP3    H133638   4.784   0.100   4.541
11231TIP3    H233639   4.798   0.169   4.675
11232TIP3   OH233640   5.229   4.520   1.117
11232TIP3    H133641   5.206   4.586   1.183
11232TIP3    H233642   5.145   4.485   1.088
11233TIP3   OH233643   7.484   5.277   2.563
11233TIP3    H133644   7.431   5.219   2.618
11233TIP3    H233645   7.456   5.259   2.474
11234TIP3   OH233646   2.054   2.700   1.940
11234TIP3    H133647   2.091   2.663   2.020
11234TIP3    H233648   1.975   2.746   1.970
11235TIP3   OH233649   5.270   2.132   1.852
11235TIP3    H133650   5.289   2.051   1.804
11235TIP3    H233651   5.323   2.198   1.807
11236TIP3   OH233652   2.170   4.078   6.038
11236TIP3    H133653   2.182   4.012   6.106
11236TIP3    H233654   2.239   4.060   5.974
11237TIP3   OH233655   6.072   4.975   0.071
11237TIP3    H133656   6.009   5.015   0.011
11237TIP3    H233657   6.035   4.889   0.091
11238TIP3   OH233658   1.243   6.360   2.392
11238TIP3    H133659   1.282   6.378   2.306
11238TIP3    H233660   1.161   6.408   2.391
11239TIP3   OH233661   3.776   7.392   6.438
11239TIP3    H133662   3.716   7.374   6.511
11239TIP3    H233663   3.734   7.464   6.390
11240TIP3   OH233664   4.521   5.996   4.297
11240TIP3    H133665   4.491   6.031   4.213
11240TIP3    H233666   4.500   6.064   4.361
11241TIP3   OH233667   7.561   1.975   6.207
11241TIP3    H133668   7.477   1.939   6.237
11241TIP3    H233669   7.614   1.980   6.286
11242TIP3   OH233670   8.180   4.012   0.048
11242TIP3    H133671   8.088   3.999   0.072
11242TIP3    H233672   8.208   4.087   0.101
11243TIP3   OH233673   2.535   5.118   3.596
11243TIP3    H133674   2.525   5.188   3.661
11243TIP3    H233675   2.610   5.145   3.543
11244TIP3   OH233676   4.323   3.895   4.476
11244TIP3    H133677   4.259   3.843   4.524
11244TIP3    H233678   4.404   3.843   4.479
11245TIP3   OH233679   3.556   3.390   1.729
11245TIP3    H133680   3.557   3.420   1.820
11245TIP3    H233681   3.501   3.311   1.731
11246TIP3   OH233682   0.405   7.241   5.758
11246TIP3    H133683   0.463   7.299   5.808
11246TIP3    H233684   0.408   7.157   5.805
11247TIP3   OH233685   7.507   7.364   0.818
11247TIP3    H133686   7.573   7.353   0.748
11247TIP3    H233687   7.483   7.456   0.814
11248TIP3   OH233688   4.624   6.381   2.982
11248TIP3    H133689   4.603   6.331   3.061
11248TIP3    H233690   4.697   6.334   2.942
11249TIP3   OH233691   7.508   3.035   0.788
11249TIP3    H133692   7.454   3.004   0.715
11249TIP3    H233693   7.470   3.120   0.811
11250TIP3   OH233694   8.136   0.080   1.140
11250TIP3    H133695   8.162   0.063   1.231
11250TIP3    H233696   8.054   0.031   1.130
11251TIP3   OH233697   5.341   6.633   5.220
11251TIP3    H133698   5.263   6.637   5.165
11251TIP3    H233699   5.366   6.541   5.219
11252TIP3   OH233700   4.843   3.166   3.021
11252TIP3    H133701   4.807   3.157   3.110
11252TIP3    H233702   4.774   3.131   2.964
11253TIP3   OH233703   5.226   0.831   0.253
11253TIP3    H133704   5.211   0.839   0.347
11253TIP3    H233705   5.149   0.785   0.220
11254TIP3   OH233706   2.655   0.692   2.581
11254TIP3    H133707   2.705   0.636   2.640
11254TIP3    H233708   2.599   0.744   2.638
11255TIP3   OH233709   1.940   5.187   1.595
11255TIP3    H133710   2.034   5.172   1.600
11255TIP3    H233711   1.932   5.270   1.548
11256TIP3   OH233712   2.114   3.234   4.858
11256TIP3    H133713   2.174   3.278   4.797
11256TIP3    H233714   2.165   3.225   4.939
11257TIP3   OH233715   7.686   1.792   1.394
11257TIP3    H133716   7.626   1.773   1.466
11257TIP3    H233717   7.762   1.832   1.437
11258TIP3   OH233718   4.705   5.013   2.549
11258TIP3    H133719   4.764   5.082   2.582
11258TIP3    H233720   4.689   4.958   2.625
11259TIP3   OH233721   2.225   4.788   3.852
11259TIP3    H133722   2.314   4.812   3.877
11259TIP3    H233723   2.186   4.869   3.820
11260TIP3   OH233724   0.811   7.498   3.111
11260TIP3    H133725   0.789   7.588   3.136
11260TIP3    H233726   0.828   7.503   3.017
11261TIP3   OH233727   2.405   4.695   0.556
11261TIP3    H133728   2.482   4.746   0.530
11261TIP3    H233729   2.350   4.757   0.604
11262TIP3   OH233730   3.335   6.280   3.190
11262TIP3    H133731   3.351   6.186   3.189
11262TIP3    H233732   3.294   6.298   3.105
11263TIP3   OH233733   0.915   5.811   2.590
11263TIP3    H133734   0.901   5.717   2.604
11263TIP3    H233735   0.946   5.843   2.674
11264TIP3   OH233736   6.260   0.352   3.667
11264TIP3    H133737   6.256   0.410   3.744
11264TIP3    H233738   6.181   0.374   3.617
11265TIP3   OH233739   0.473   7.529   5.247
11265TIP3    H133740   0.555   7.493   5.211
11265TIP3    H233741   0.459   7.610   5.199
11266TIP3   OH233742   5.151   4.643   5.241
11266TIP3    H133743   5.088   4.687   5.299
11266TIP3    H233744   5.234   4.689   5.257
11267TIP3   OH233745   7.148   4.424   6.460
11267TIP3    H133746   7.071   4.444   6.513
11267TIP3    H233747   7.119   4.353   6.402
11268TIP3   OH233748   0.338   1.207   3.808
11268TIP3    H133749   0.248   1.216   3.777
11268TIP3    H233750   0.392   1.232   3.733
11269TIP3   OH233751   0.792   7.348   0.221
11269TIP3    H133752   0.888   7.343   0.221
11269TIP3    H233753   0.764   7.273   0.274
11270TIP3   OH233754   3.181   2.826   3.082
11270TIP3    H133755   3.166   2.798   2.992
11270TIP3    H233756   3.111   2.784   3.132
11271TIP3   OH233757   3.226   5.485   0.542
11271TIP3    H133758   3.237   5.534   0.623
11271TIP3    H233759   3.274   5.404   0.555
11272TIP3   OH233760   1.985   6.169   0.999
11272TIP3    H133761   1.917   6.228   0.965
11272TIP3    H233762   1.947   6.131   1.078
11273TIP3   OH233763   3.735   0.704   2.998
11273TIP3    H133764   3.654   0.754   3.009
11273TIP3    H233765   3.730   0.635   3.065
11274TIP3   OH233766   1.434   7.232   3.085
11274TIP3    H133767   1.492   7.180   3.139
11274TIP3    H233768   1.449   7.322   3.113
11275TIP3   OH233769   1.986   0.398   4.368
11275TIP3    H133770   1.998   0.307   4.395
11275TIP3    H233771   1.893   0.415   4.379
11276TIP3   OH233772   7.267   4.447   2.450
11276TIP3    H133773   7.355   4.412   2.442
11276TIP3    H233774   7.237   4.459   2.360
11277TIP3   OH233775   6.665   6.810   3.424
11277TIP3    H133776   6.703   6.776   3.343
11277TIP3    H233777   6.577   6.837   3.400
11278TIP3   OH233778   3.991   0.645   4.762
11278TIP3    H133779   3.914   0.667   4.710
11278TIP3    H233780   3.983   0.699   4.840
11279TIP3   OH233781   3.213   3.863   3.179
11279TIP3    H133782   3.212   3.770   3.159
11279TIP3    H233783   3.272   3.871   3.254
11280TIP3   OH233784   1.394   2.229   2.943
11280TIP3    H133785   1.336   2.286   2.892
11280TIP3    H233786   1.341   2.152   2.962
11281TIP3   OH233787   8.078   7.787   1.765
11281TIP3    H133788   7.987   7.816   1.764
11281TIP3    H233789   8.095   7.762   1.856
11282TIP3   OH233790   4.752   7.022   3.055
11282TIP3    H133791   4.730   7.054   2.968
11282TIP3    H233792   4.833   6.973   3.043
11283TIP3   OH233793   6.270   2.427   6.057
11283TIP3    H133794   6.231   2.511   6.079
11283TIP3    H233795   6.325   2.405   6.132
11284TIP3   OH233796   8.013   7.603   4.368
11284TIP3    H133797   8.096   7.569   4.336
11284TIP3    H233798   7.950   7.583   4.299
11285TIP3   OH233799   4.393   1.840   6.034
11285TIP3    H133800   4.326   1.897   5.996
11285TIP3    H233801   4.474   1.866   5.990
11286TIP3   OH233802   3.099   6.539   4.586
11286TIP3    H133803   3.151   6.560   4.664
11286TIP3    H233804   3.055   6.457   4.609
11287TIP3   OH233805   6.815   5.467   1.798
11287TIP3    H133806   6.822   5.419   1.881
11287TIP3    H233807   6.843   5.556   1.820
11288TIP3   OH233808   4.400   2.668   1.774
11288TIP3    H133809   4.350   2.705   1.701
11288TIP3    H233810   4.453   2.599   1.735
11289TIP3   OH233811   8.008   0.146   3.005
11289TIP3    H133812   7.932   0.145   3.064
11289TIP3    H233813   8.048   0.060   3.015
11290TIP3   OH233814   7.470   5.535   6.286
11290TIP3    H133815   7.506   5.447   6.296
11290TIP3    H233816   7.489   5.578   6.369
11291TIP3   OH233817   4.696   1.451   5.938
11291TIP3    H133818   4.672   1.524   5.880
11291TIP3    H233819   4.664   1.479   6.024
11292TIP3   OH233820   2.913   3.358   3.295
11292TIP3    H133821   2.849   3.294   3.328
11292TIP3    H233822   2.860   3.422   3.248
11293TIP3   OH233823   7.640   2.288   0.824
11293TIP3    H133824   7.605   2.335   0.900
11293TIP3    H233825   7.675   2.356   0.767
11294TIP3   OH233826   1.773   7.605   3.211
11294TIP3    H133827   1.824   7.575   3.136
11294TIP3    H233828   1.758   7.698   3.193
11295TIP3   OH233829   3.950   7.111   2.950
11295TIP3    H133830   3.985   7.035   2.902
11295TIP3    H233831   4.027   7.151   2.989
11296TIP3   OH233832   6.257   2.978   2.727
11296TIP3    H133833   6.306   2.930   2.793
11296TIP3    H233834   6.240   3.063   2.767
11297TIP3   OH233835   5.972   1.457   0.498
11297TIP3    H133836   5.918   1.415   0.431
11297TIP3    H233837   6.031   1.514   0.448
11298TIP3   OH233838   6.680   7.180   0.763
11298TIP3    H133839   6.663   7.133   0.681
11298TIP3    H233840   6.709   7.267   0.735
11299TIP3   OH233841   0.048   2.914   3.542
11299TIP3    H133842  -0.024   2.971   3.569
11299TIP3    H233843   0.088   2.886   3.625
11300TIP3   OH233844   6.738   7.181   3.892
11300TIP3    H133845   6.738   7.272   3.923
11300TIP3    H233846   6.681   7.182   3.815
11301TIP3   OH233847   3.807   0.671   5.722
11301TIP3    H133848   3.726   0.633   5.688
11301TIP3    H233849   3.827   0.742   5.661
11302TIP3   OH233850   0.283   2.879   2.109
11302TIP3    H133851   0.371   2.884   2.146
11302TIP3    H233852   0.225   2.877   2.185
11303TIP3   OH233853   4.330   5.304   4.708
11303TIP3    H133854   4.282   5.222   4.700
11303TIP3    H233855   4.296   5.359   4.638
11304TIP3   OH233856   5.122   7.161   1.760
11304TIP3    H133857   5.125   7.255   1.774
11304TIP3    H233858   5.060   7.149   1.688
11305TIP3   OH233859   6.801   1.539   3.290
11305TIP3    H133860   6.729   1.597   3.314
11305TIP3    H233861   6.850   1.587   3.224
11306TIP3   OH233862   2.095   7.719   1.036
11306TIP3    H133863   2.142   7.800   1.015
11306TIP3    H233864   2.160   7.664   1.079
11307TIP3   OH233865   6.207   4.764   2.793
11307TIP3    H133866   6.245   4.676   2.787
11307TIP3    H233867   6.175   4.770   2.883
11308TIP3   OH233868   8.251   4.250   0.908
11308TIP3    H133869   8.267   4.162   0.874
11308TIP3    H233870   8.325   4.302   0.878
11309TIP3   OH233871   5.676   4.454   2.175
11309TIP3    H133872   5.687   4.362   2.200
11309TIP3    H233873   5.590   4.478   2.208
11310TIP3   OH233874   2.637   4.744   6.032
11310TIP3    H133875   2.682   4.828   6.042
11310TIP3    H233876   2.708   4.679   6.028
11311TIP3   OH233877   1.762   1.528   0.565
11311TIP3    H133878   1.677   1.548   0.604
11311TIP3    H233879   1.744   1.458   0.502
11312TIP3   OH233880   1.471   4.193   1.128
11312TIP3    H133881   1.465   4.230   1.040
11312TIP3    H233882   1.565   4.183   1.144
11313TIP3   OH233883   2.870   4.956   2.417
11313TIP3    H133884   2.781   4.962   2.381
11313TIP3    H233885   2.870   4.875   2.468
11314TIP3   OH233886   0.786   3.287  -0.005
11314TIP3    H133887   0.709   3.269   0.049
11314TIP3    H233888   0.811   3.202  -0.041
11315TIP3   OH233889   2.125   7.395   6.665
11315TIP3    H133890   2.135   7.313   6.713
11315TIP3    H233891   2.033   7.418   6.677
11316TIP3   OH233892   3.750   7.698   5.429
11316TIP3    H133893   3.839   7.676   5.453
11316TIP3    H233894   3.701   7.697   5.511
11317TIP3   OH233895   5.110   6.817   5.345
11317TIP3    H133896   5.061   6.842   5.424
11317TIP3    H233897   5.085   6.881   5.279
11318TIP3   OH233898   5.626   0.476   5.244
11318TIP3    H133899   5.661   0.461   5.156
11318TIP3    H233900   5.688   0.538   5.284
11319TIP3   OH233901   1.258   3.295   5.052
11319TIP3    H133902   1.208   3.357   5.104
11319TIP3    H233903   1.194   3.230   5.023
11320TIP3   OH233904   3.396   0.239   5.798
11320TIP3    H133905   3.324   0.186   5.764
11320TIP3    H233906   3.471   0.178   5.800
11321TIP3   OH233907   5.459   4.330   5.612
11321TIP3    H133908   5.423   4.337   5.701
11321TIP3    H233909   5.438   4.414   5.571
11322TIP3   OH233910   4.147   3.361   0.958
11322TIP3    H133911   4.204   3.285   0.973
11322TIP3    H233912   4.082   3.330   0.895
11323TIP3   OH233913   2.979   5.229   2.420
11323TIP3    H133914   2.973   5.259   2.329
11323TIP3    H233915   2.999   5.136   2.413
11324TIP3   OH233916   1.599   1.080   2.432
11324TIP3    H133917   1.610   1.169   2.466
11324TIP3    H233918   1.663   1.028   2.480
11325TIP3   OH233919   4.931   2.309   5.437
11325TIP3    H133920   4.865   2.340   5.499
11325TIP3    H233921   4.991   2.257   5.490
11326TIP3   OH233922   6.065   2.683   2.206
11326TIP3    H133923   6.065   2.682   2.301
11326TIP3    H233924   6.144   2.731   2.182
11327TIP3   OH233925   5.772   3.754   6.652
11327TIP3    H133926   5.710   3.685   6.628
11327TIP3    H233927   5.858   3.718   6.630
11328TIP3   OH233928   2.810   4.568   1.702
11328TIP3    H133929   2.780   4.477   1.702
11328TIP3    H233930   2.847   4.582   1.789
11329TIP3   OH233931   6.760   5.885   6.551
11329TIP3    H133932   6.829   5.911   6.491
11329TIP3    H233933   6.779   5.931   6.632
11330TIP3   OH233934   7.365   0.465   2.386
11330TIP3    H133935   7.354   0.392   2.326
11330TIP3    H233936   7.421   0.430   2.456
11331TIP3   OH233937   3.967   0.700   3.549
11331TIP3    H133938   3.933   0.741   3.470
11331TIP3    H233939   4.062   0.694   3.534
11332TIP3   OH233940   7.429   0.441   6.573
11332TIP3    H133941   7.348   0.465   6.528
11332TIP3    H233942   7.411   0.458   6.665
11333TIP3   OH233943   6.374   3.707   5.383
11333TIP3    H133944   6.452   3.704   5.439
11333TIP3    H233945   6.307   3.662   5.435
11334TIP3   OH233946   0.111   4.870   1.384
11334TIP3    H133947   0.205   4.869   1.371
11334TIP3    H233948   0.091   4.783   1.419
11335TIP3   OH233949   0.211   6.482   1.175
11335TIP3    H133950   0.246   6.394   1.184
11335TIP3    H233951   0.168   6.500   1.258
11336TIP3   OH233952   3.641   7.709   5.995
11336TIP3    H133953   3.566   7.678   5.944
11336TIP3    H233954   3.714   7.656   5.963
11337TIP3   OH233955   4.303   7.171   3.816
11337TIP3    H133956   4.295   7.111   3.890
11337TIP3    H233957   4.214   7.177   3.780
11338TIP3   OH233958   7.566   2.696   1.492
11338TIP3    H133959   7.632   2.764   1.482
11338TIP3    H233960   7.515   2.700   1.411
11339TIP3   OH233961   4.583   7.343   0.338
11339TIP3    H133962   4.492   7.335   0.312
11339TIP3    H233963   4.621   7.257   0.321
11340TIP3   OH233964   4.677   2.886   3.419
11340TIP3    H133965   4.662   2.803   3.375
11340TIP3    H233966   4.720   2.941   3.354
11341TIP3   OH233967   0.600   4.052   2.535
11341TIP3    H133968   0.640   3.977   2.491
11341TIP3    H233969   0.673   4.111   2.554
11342TIP3   OH233970   5.513   0.912   0.019
11342TIP3    H133971   5.488   0.870  -0.064
11342TIP3    H233972   5.501   0.844   0.084
11343TIP3   OH233973   6.198   7.163   3.216
11343TIP3    H133974   6.188   7.229   3.284
11343TIP3    H233975   6.165   7.205   3.137
11344TIP3   OH233976   0.198   1.902   5.473
11344TIP3    H133977   0.271   1.944   5.518
11344TIP3    H233978   0.124   1.962   5.485
11345TIP3   OH233979   6.172   2.115   4.422
11345TIP3    H133980   6.224   2.126   4.342
11345TIP3    H233981   6.218   2.166   4.488
11346TIP3   OH233982   6.540   6.412   6.559
11346TIP3    H133983   6.478   6.344   6.533
11346TIP3    H233984   6.592   6.371   6.629
11347TIP3   OH233985   3.131   3.708   2.576
11347TIP3    H133986   3.200   3.716   2.642
11347TIP3    H233987   3.175   3.731   2.494
11348TIP3   OH233988   0.882   3.253   0.486
11348TIP3    H133989   0.951   3.198   0.449
11348TIP3    H233990   0.840   3.197   0.552
11349TIP3   OH233991   7.118   0.237   1.783
11349TIP3    H133992   7.054   0.254   1.715
11349TIP3    H233993   7.095   0.297   1.854
11350TIP3   OH233994   7.999   1.680   0.179
11350TIP3    H133995   7.932   1.703   0.115
11350TIP3    H233996   8.082   1.708   0.139
11351TIP3   OH233997   0.087   0.828   1.799
11351TIP3    H133998   0.006   0.872   1.773
11351TIP3    H233999   0.137   0.821   1.717
11352TIP3   OH234000   1.784   4.965   5.040
11352TIP3    H134001   1.785   5.004   5.127
11352TIP3    H234002   1.804   4.873   5.055
11353TIP3   OH234003   5.217   7.337   2.908
11353TIP3    H134004   5.137   7.286   2.908
11353TIP3    H234005   5.231   7.361   2.999
11354TIP3   OH234006   0.630   3.694   1.426
11354TIP3    H134007   0.720   3.706   1.457
11354TIP3    H234008   0.633   3.718   1.334
11355TIP3   OH234009   2.447   0.533   3.375
11355TIP3    H134010   2.368   0.578   3.346
11355TIP3    H234011   2.420   0.484   3.453
11356TIP3   OH234012   4.725   6.625   0.173
11356TIP3    H134013   4.693   6.560   0.235
11356TIP3    H234014   4.769   6.690   0.227
11357TIP3   OH234015   4.633   7.129   2.528
11357TIP3    H134016   4.569   7.173   2.471
11357TIP3    H234017   4.705   7.106   2.469
11358TIP3   OH234018   3.843   5.711   0.954
11358TIP3    H134019   3.754   5.680   0.938
11358TIP3    H234020   3.899   5.638   0.930
11359TIP3   OH234021   4.956   5.023   5.306
11359TIP3    H134022   4.876   4.980   5.338
11359TIP3    H234023   5.012   5.029   5.383
11360TIP3   OH234024   6.663   7.632   0.243
11360TIP3    H134025   6.707   7.617   0.160
11360TIP3    H234026   6.717   7.698   0.287
11361TIP3   OH234027   0.192   6.315   1.418
11361TIP3    H134028   0.242   6.284   1.494
11361TIP3    H234029   0.104   6.329   1.453
11362TIP3   OH234030   6.807   6.423   6.429
11362TIP3    H134031   6.719   6.419   6.466
11362TIP3    H234032   6.820   6.337   6.389
11363TIP3   OH234033   5.965   7.448   4.811
11363TIP3    H134034   6.003   7.484   4.731
11363TIP3    H234035   6.031   7.465   4.879
11364TIP3   OH234036   1.427   1.562   0.175
11364TIP3    H134037   1.491   1.569   0.104
11364TIP3    H234038   1.442   1.475   0.212
11365TIP3   OH234039   4.861   2.781   0.273
11365TIP3    H134040   4.819   2.867   0.266
11365TIP3    H234041   4.947   2.799   0.312
11366TIP3   OH234042   5.382   3.007   1.845
11366TIP3    H134043   5.357   3.050   1.763
11366TIP3    H234044   5.463   2.961   1.825
11367TIP3   OH234045   3.543   0.369   6.109
11367TIP3    H134046   3.503   0.447   6.070
11367TIP3    H234047   3.511   0.297   6.055
11368TIP3   OH234048   7.667   6.840   1.847
11368TIP3    H134049   7.675   6.748   1.873
11368TIP3    H234050   7.751   6.879   1.869
11369TIP3   OH234051   1.742   4.092   3.061
11369TIP3    H134052   1.781   4.116   3.145
11369TIP3    H234053   1.670   4.033   3.085
11370TIP3   OH234054   0.959   3.912   4.363
11370TIP3    H134055   0.931   3.989   4.414
11370TIP3    H234056   1.052   3.928   4.345
11371TIP3   OH234057   1.704   2.797   5.858
11371TIP3    H134058   1.725   2.820   5.949
11371TIP3    H234059   1.761   2.724   5.838
11372TIP3   OH234060   1.641   3.771  -0.001
11372TIP3    H134061   1.651   3.685   0.038
11372TIP3    H234062   1.573   3.813   0.051
11373TIP3   OH234063   6.809   6.061   2.299
11373TIP3    H134064   6.865   6.083   2.373
11373TIP3    H234065   6.765   5.980   2.326
11374TIP3   OH234066   5.106   5.807   2.941
11374TIP3    H134067   5.100   5.896   2.975
11374TIP3    H234068   5.101   5.817   2.846
11375TIP3   OH234069   0.252   5.484   4.782
11375TIP3    H134070   0.340   5.501   4.750
11375TIP3    H234071   0.225   5.404   4.738
11376TIP3   OH234072   0.920   3.427   0.209
11376TIP3    H134073   0.856   3.397   0.145
11376TIP3    H234074   0.976   3.351   0.225
11377TIP3   OH234075   2.955   2.074   1.277
11377TIP3    H134076   3.009   2.059   1.199
11377TIP3    H234077   2.865   2.062   1.246
11378TIP3   OH234078   1.392   7.741   2.953
11378TIP3    H134079   1.438   7.795   3.016
11378TIP3    H234080   1.313   7.712   2.999
11379TIP3   OH234081   5.524   7.383   1.155
11379TIP3    H134082   5.466   7.395   1.079
11379TIP3    H234083   5.611   7.407   1.123
11380TIP3   OH234084   6.097   3.915   3.459
11380TIP3    H134085   6.169   3.961   3.502
11380TIP3    H234086   6.020   3.968   3.477
11381TIP3   OH234087   8.203   3.837   0.610
11381TIP3    H134088   8.118   3.805   0.580
11381TIP3    H234089   8.187   3.867   0.699
11382TIP3   OH234090   4.958   1.356   3.241
11382TIP3    H134091   4.974   1.401   3.158
11382TIP3    H234092   4.894   1.411   3.287
11383TIP3   OH234093   7.130   7.805   0.985
11383TIP3    H134094   7.195   7.735   0.983
11383TIP3    H234095   7.089   7.803   0.899
11384TIP3   OH234096   1.746   5.792   5.894
11384TIP3    H134097   1.805   5.726   5.856
11384TIP3    H234098   1.660   5.771   5.859
11385TIP3   OH234099   0.129   0.494   2.502
11385TIP3    H134100   0.135   0.584   2.469
11385TIP3    H234101   0.054   0.496   2.561
11386TIP3   OH234102   8.262   2.267   4.892
11386TIP3    H134103   8.326   2.294   4.958
11386TIP3    H234104   8.266   2.336   4.826
11387TIP3   OH234105   7.454   5.856   0.744
11387TIP3    H134106   7.523   5.922   0.734
11387TIP3    H234107   7.424   5.867   0.834
11388TIP3   OH234108   5.129   1.733   3.139
11388TIP3    H134109   5.045   1.774   3.119
11388TIP3    H234110   5.109   1.672   3.210
11389TIP3   OH234111   7.948   5.328   3.416
11389TIP3    H134112   7.873   5.273   3.393
11389TIP3    H234113   7.913   5.392   3.478
11390TIP3   OH234114   0.434   1.975   3.601
11390TIP3    H134115   0.340   1.962   3.593
11390TIP3    H234116   0.445   2.026   3.681
11391TIP3   OH234117   5.905   0.877   5.514
11391TIP3    H134118   5.837   0.810   5.505
11391TIP3    H234119   5.893   0.912   5.602
11392TIP3   OH234120   8.139   2.773   2.069
11392TIP3    H134121   8.108   2.856   2.106
11392TIP3    H234122   8.059   2.730   2.037
11393TIP3   OH234123   7.424   2.564   3.650
11393TIP3    H134124   7.337   2.586   3.616
11393TIP3    H234125   7.421   2.590   3.742
11394TIP3   OH234126   1.193   3.365   3.771
11394TIP3    H134127   1.275   3.407   3.797
11394TIP3    H234128   1.130   3.437   3.766
11395TIP3   OH234129   0.064   7.738   4.142
11395TIP3    H134130  -0.003   7.685   4.185
11395TIP3    H234131   0.017   7.816   4.111
11396TIP3   OH234132   7.628   6.916   0.940
11396TIP3    H134133   7.702   6.975   0.929
11396TIP3    H234134   7.568   6.963   0.998
11397TIP3   OH234135   6.591   3.116   1.519
11397TIP3    H134136   6.625   3.056   1.453
11397TIP3    H234137   6.496   3.108   1.513
11398TIP3   OH234138   7.080   4.804   0.346
11398TIP3    H134139   7.089   4.808   0.250
11398TIP3    H234140   7.032   4.883   0.369
11399TIP3   OH234141   1.863   1.595   1.286
11399TIP3    H134142   1.783   1.619   1.332
11399TIP3    H234143   1.930   1.651   1.324
11400TIP3   OH234144   4.592  -0.028   5.046
11400TIP3    H134145   4.660  -0.015   5.113
11400TIP3    H234146   4.601   0.049   4.989
11401TIP3   OH234147   1.244   3.810   1.706
11401TIP3    H134148   1.206   3.853   1.630
11401TIP3    H234149   1.185   3.832   1.778
11402TIP3   OH234150   2.494   2.696   6.434
11402TIP3    H134151   2.569   2.638   6.417
11402TIP3    H234152   2.452   2.658   6.511
11403TIP3   OH234153   3.433   7.092   4.109
11403TIP3    H134154   3.408   7.147   4.183
11403TIP3    H234155   3.482   7.020   4.148
11404TIP3   OH234156   6.230   0.450   5.773
11404TIP3    H134157   6.280   0.373   5.748
11404TIP3    H234158   6.197   0.486   5.690
11405TIP3   OH234159   6.189   5.919   2.894
11405TIP3    H134160   6.121   5.863   2.932
11405TIP3    H234161   6.143   5.973   2.830
11406TIP3   OH234162   0.445   3.987   6.467
11406TIP3    H134163   0.426   3.963   6.558
11406TIP3    H234164   0.496   3.914   6.433
11407TIP3   OH234165   5.520   5.653   1.875
11407TIP3    H134166   5.486   5.567   1.897
11407TIP3    H234167   5.447   5.698   1.832
11408TIP3   OH234168   4.144   5.316   0.959
11408TIP3    H134169   4.120   5.404   0.988
11408TIP3    H234170   4.142   5.263   1.038
11409TIP3   OH234171   6.141   6.369   1.258
11409TIP3    H134172   6.172   6.398   1.344
11409TIP3    H234173   6.163   6.276   1.256
11410TIP3   OH234174   0.448   3.368   5.572
11410TIP3    H134175   0.537   3.397   5.595
11410TIP3    H234176   0.450   3.360   5.477
11411TIP3   OH234177   2.934   6.963   5.034
11411TIP3    H134178   2.865   7.026   5.055
11411TIP3    H234179   3.004   6.981   5.096
11412TIP3   OH234180   0.791   4.220   2.508
11412TIP3    H134181   0.801   4.283   2.436
11412TIP3    H234182   0.880   4.197   2.532
11413TIP3   OH234183   3.219   0.797   0.788
11413TIP3    H134184   3.203   0.703   0.793
11413TIP3    H234185   3.309   0.805   0.757
11414TIP3   OH234186   7.734   0.425   6.696
11414TIP3    H134187   7.745   0.478   6.617
11414TIP3    H234188   7.660   0.465   6.742
11415TIP3   OH234189   2.893   0.881   1.506
11415TIP3    H134190   2.808   0.837   1.500
11415TIP3    H234191   2.887   0.933   1.587
11416TIP3   OH234192   6.872   2.508   0.996
11416TIP3    H134193   6.879   2.526   0.902
11416TIP3    H234194   6.945   2.556   1.035
11417TIP3   OH234195   5.995   4.956   5.705
11417TIP3    H134196   6.075   4.922   5.746
11417TIP3    H234197   5.930   4.955   5.776
11418TIP3   OH234198   3.944   7.218   4.422
11418TIP3    H134199   3.855   7.206   4.390
11418TIP3    H234200   3.971   7.302   4.386
11419TIP3   OH234201   0.125   5.615   5.262
11419TIP3    H134202   0.172   5.568   5.192
11419TIP3    H234203   0.130   5.707   5.236
11420TIP3   OH234204   1.037   7.168   0.505
11420TIP3    H134205   1.036   7.090   0.560
11420TIP3    H234206   1.128   7.180   0.480
11421TIP3   OH234207   4.703   3.426   6.153
11421TIP3    H134208   4.618   3.398   6.188
11421TIP3    H234209   4.753   3.452   6.231
11422TIP3   OH234210   0.747   5.686   5.542
11422TIP3    H134211   0.770   5.638   5.462
11422TIP3    H234212   0.744   5.619   5.610
11423TIP3   OH234213   4.980   6.329   5.698
11423TIP3    H134214   4.927   6.314   5.619
11423TIP3    H234215   4.919   6.314   5.770
11424TIP3   OH234216   5.451   5.015   1.897
11424TIP3    H134217   5.380   5.079   1.901
11424TIP3    H234218   5.496   5.024   1.982
11425TIP3   OH234219   6.544   5.120   6.612
11425TIP3    H134220   6.599   5.112   6.533
11425TIP3    H234221   6.509   5.209   6.608
11426TIP3   OH234222   0.385   6.338   4.755
11426TIP3    H134223   0.429   6.383   4.826
11426TIP3    H234224   0.398   6.395   4.679
11427TIP3   OH234225   6.595   1.849   1.774
11427TIP3    H134226   6.584   1.893   1.859
11427TIP3    H234227   6.604   1.756   1.796
11428TIP3   OH234228   6.754   7.663   2.211
11428TIP3    H134229   6.847   7.663   2.235
11428TIP3    H234230   6.735   7.755   2.190
11429TIP3   OH234231   1.574   1.821   6.436
11429TIP3    H134232   1.607   1.734   6.412
11429TIP3    H234233   1.595   1.876   6.361
11430TIP3   OH234234   4.202   1.172   0.915
11430TIP3    H134235   4.151   1.160   0.995
11430TIP3    H234236   4.251   1.091   0.906
11431TIP3   OH234237   0.776   1.085   4.944
11431TIP3    H134238   0.840   1.059   5.011
11431TIP3    H234239   0.727   1.005   4.926
11432TIP3   OH234240   7.335   6.567   4.408
11432TIP3    H134241   7.364   6.629   4.474
11432TIP3    H234242   7.406   6.503   4.402
11433TIP3   OH234243   1.228   5.140   1.772
11433TIP3    H134244   1.229   5.234   1.750
11433TIP3    H234245   1.189   5.136   1.859
11434TIP3   OH234246   5.162   3.253   5.059
11434TIP3    H134247   5.098   3.313   5.020
11434TIP3    H234248   5.193   3.200   4.985
11435TIP3   OH234249   0.172   4.353   0.699
11435TIP3    H134250   0.158   4.446   0.718
11435TIP3    H234251   0.162   4.347   0.604
11436TIP3   OH234252   0.612   0.157   0.684
11436TIP3    H134253   0.571   0.164   0.770
11436TIP3    H234254   0.553   0.205   0.625
11437TIP3   OH234255   0.914   3.389   1.818
11437TIP3    H134256   0.904   3.421   1.728
11437TIP3    H234257   0.883   3.462   1.872
11438TIP3   OH234258   2.151   0.576   0.995
11438TIP3    H134259   2.117   0.544   1.079
11438TIP3    H234260   2.233   0.620   1.017
11439TIP3   OH234261   3.484   6.391   0.940
11439TIP3    H134262   3.420   6.327   0.970
11439TIP3    H234263   3.566   6.342   0.935
11440TIP3   OH234264   4.935   4.655   1.108
11440TIP3    H134265   5.015   4.685   1.150
11440TIP3    H234266   4.921   4.717   1.037
11441TIP3   OH234267   1.914   3.161   5.201
11441TIP3    H134268   1.981   3.110   5.246
11441TIP3    H234269   1.937   3.252   5.218
11442TIP3   OH234270   6.280   4.279   5.593
11442TIP3    H134271   6.278   4.279   5.497
11442TIP3    H234272   6.298   4.188   5.616
11443TIP3   OH234273   8.289   4.241   2.891
11443TIP3    H134274   8.329   4.313   2.842
11443TIP3    H234275   8.195   4.251   2.877
11444TIP3   OH234276   5.583   1.613   6.093
11444TIP3    H134277   5.574   1.521   6.067
11444TIP3    H234278   5.611   1.609   6.185
11445TIP3   OH234279   5.128   7.446   1.765
11445TIP3    H134280   5.104   7.538   1.756
11445TIP3    H234281   5.143   7.416   1.675
11446TIP3   OH234282   7.512   0.761   1.556
11446TIP3    H134283   7.425   0.743   1.521
11446TIP3    H234284   7.567   0.774   1.478
11447TIP3   OH234285   1.798   1.058   3.234
11447TIP3    H134286   1.774   1.151   3.235
11447TIP3    H234287   1.843   1.046   3.151
11448TIP3   OH234288   7.733   5.459   5.798
11448TIP3    H134289   7.666   5.397   5.826
11448TIP3    H234290   7.760   5.503   5.879
11449TIP3   OH234291   3.910   0.831   3.292
11449TIP3    H134292   3.906   0.925   3.312
11449TIP3    H234293   3.819   0.807   3.274
11450TIP3   OH234294   8.187   0.231   6.337
11450TIP3    H134295   8.153   0.300   6.394
11450TIP3    H234296   8.240   0.277   6.272
11451TIP3   OH234297   6.005   3.765   2.554
11451TIP3    H134298   5.948   3.783   2.479
11451TIP3    H234299   5.950   3.780   2.631
11452TIP3   OH234300   5.653   6.840   2.907
11452TIP3    H134301   5.656   6.854   2.813
11452TIP3    H234302   5.560   6.842   2.930
11453TIP3   OH234303   8.037   1.082   5.435
11453TIP3    H134304   7.984   1.111   5.361
11453TIP3    H234305   7.980   1.023   5.484
11454TIP3   OH234306   2.577   7.083   4.478
11454TIP3    H134307   2.540   7.029   4.408
11454TIP3    H234308   2.566   7.031   4.557
11455TIP3   OH234309   6.360   1.682   3.908
11455TIP3    H134310   6.391   1.643   3.827
11455TIP3    H234311   6.352   1.608   3.969
11456TIP3   OH234312   5.241   6.093   1.077
11456TIP3    H134313   5.239   6.125   1.167
11456TIP3    H234314   5.334   6.082   1.057
11457TIP3   OH234315   7.631   0.794   5.835
11457TIP3    H134316   7.637   0.717   5.892
11457TIP3    H234317   7.547   0.783   5.790
11458TIP3   OH234318   6.314   6.975   3.559
11458TIP3    H134319   6.259   7.035   3.509
11458TIP3    H234320   6.361   6.924   3.493
11459TIP3   OH234321   1.779   4.965   2.766
11459TIP3    H134322   1.858   4.913   2.779
11459TIP3    H234323   1.749   4.986   2.854
11460TIP3   OH234324   1.397   5.186   0.359
11460TIP3    H134325   1.465   5.251   0.347
11460TIP3    H234326   1.348   5.187   0.277
11461TIP3   OH234327   7.129   0.111   6.477
11461TIP3    H134328   7.089   0.031   6.444
11461TIP3    H234329   7.103   0.116   6.569
11462TIP3   OH234330   0.662   1.275   4.754
11462TIP3    H134331   0.744   1.225   4.753
11462TIP3    H234332   0.680   1.348   4.813
11463TIP3   OH234333   6.345   2.391   1.350
11463TIP3    H134334   6.392   2.358   1.273
11463TIP3    H234335   6.414   2.426   1.407
11464TIP3   OH234336   0.032   4.322   6.407
11464TIP3    H134337   0.075   4.393   6.454
11464TIP3    H234338   0.101   4.257   6.394
11465TIP3   OH234339   0.328   3.773   2.906
11465TIP3    H134340   0.298   3.690   2.943
11465TIP3    H234341   0.252   3.830   2.909
11466TIP3   OH234342   1.229   4.907   0.087
11466TIP3    H134343   1.318   4.921   0.118
11466TIP3    H234344   1.236   4.834   0.025
11467TIP3   OH234345   5.059   6.554   0.405
11467TIP3    H134346   5.088   6.621   0.344
11467TIP3    H234347   5.019   6.603   0.477
11468TIP3   OH234348   4.086   0.352   2.717
11468TIP3    H134349   4.006   0.300   2.727
11468TIP3    H234350   4.063   0.439   2.750
11469TIP3   OH234351   3.100   1.585   3.702
11469TIP3    H134352   3.188   1.618   3.682
11469TIP3    H234353   3.051   1.599   3.621
11470TIP3   OH234354   2.652   2.156   0.675
11470TIP3    H134355   2.584   2.132   0.612
11470TIP3    H234356   2.729   2.174   0.620
11471TIP3   OH234357   4.442   1.620   3.708
11471TIP3    H134358   4.437   1.712   3.734
11471TIP3    H234359   4.407   1.619   3.618
11472TIP3   OH234360   2.754   3.177   3.419
11472TIP3    H134361   2.746   3.204   3.510
11472TIP3    H234362   2.701   3.098   3.412
11473TIP3   OH234363   1.746   6.053   2.736
11473TIP3    H134364   1.749   5.962   2.707
11473TIP3    H234365   1.654   6.070   2.755
11474TIP3   OH234366   0.053   1.315   5.048
11474TIP3    H134367   0.077   1.320   5.141
11474TIP3    H234368   0.110   1.380   5.006
11475TIP3   OH234369   7.183   5.632   1.930
11475TIP3    H134370   7.186   5.702   1.865
11475TIP3    H234371   7.091   5.625   1.954
11476TIP3   OH234372   1.583   6.493  -0.019
11476TIP3    H134373   1.677   6.510  -0.016
11476TIP3    H234374   1.549   6.526   0.064
11477TIP3   OH234375   5.983   0.950   1.644
11477TIP3    H134376   6.051   0.886   1.621
11477TIP3    H234377   6.017   1.033   1.610
11478TIP3   OH234378   2.617   4.267   1.303
11478TIP3    H134379   2.657   4.261   1.216
11478TIP3    H234380   2.649   4.191   1.350
11479TIP3   OH234381   6.041   5.890   4.349
11479TIP3    H134382   6.002   5.812   4.390
11479TIP3    H234383   6.117   5.910   4.404
11480TIP3   OH234384   2.839   1.809   1.450
11480TIP3    H134385   2.845   1.718   1.421
11480TIP3    H234386   2.771   1.807   1.518
11481TIP3   OH234387   1.214   5.870   3.675
11481TIP3    H134388   1.171   5.791   3.643
11481TIP3    H234389   1.247   5.846   3.761
11482TIP3   OH234390   3.735   1.177   5.268
11482TIP3    H134391   3.737   1.114   5.340
11482TIP3    H234392   3.677   1.138   5.203
11483TIP3   OH234393   0.674   5.500   0.444
11483TIP3    H134394   0.754   5.493   0.392
11483TIP3    H234395   0.635   5.413   0.441
11484TIP3   OH234396   2.446   3.309   3.762
11484TIP3    H134397   2.400   3.316   3.678
11484TIP3    H234398   2.511   3.379   3.759
11485TIP3   OH234399   6.630   5.981   2.756
11485TIP3    H134400   6.555   5.929   2.728
11485TIP3    H234401   6.697   5.916   2.776
11486TIP3   OH234402   2.329   0.160   5.106
11486TIP3    H134403   2.422   0.175   5.089
11486TIP3    H234404   2.309   0.212   5.184
11487TIP3   OH234405   5.240   6.692   5.797
11487TIP3    H134406   5.158   6.645   5.786
11487TIP3    H234407   5.274   6.700   5.708
11488TIP3   OH234408   1.628   0.346   6.340
11488TIP3    H134409   1.598   0.255   6.344
11488TIP3    H234410   1.582   0.383   6.264
11489TIP3   OH234411   1.421   4.167   2.843
11489TIP3    H134412   1.414   4.227   2.769
11489TIP3    H234413   1.347   4.107   2.833
11490TIP3   OH234414   0.609   5.374   3.357
11490TIP3    H134415   0.576   5.304   3.412
11490TIP3    H234416   0.531   5.412   3.317
11491TIP3   OH234417   4.973   1.725   4.049
11491TIP3    H134418   5.036   1.786   4.010
11491TIP3    H234419   4.948   1.766   4.132
11492TIP3   OH234420   4.760   2.388   1.335
11492TIP3    H134421   4.695   2.320   1.321
11492TIP3    H234422   4.764   2.435   1.251
11493TIP3   OH234423   7.207   2.295   1.379
11493TIP3    H134424   7.259   2.304   1.300
11493TIP3    H234425   7.125   2.341   1.360
11494TIP3   OH234426   3.611   6.435   2.873
11494TIP3    H134427   3.550   6.508   2.875
11494TIP3    H234428   3.694   6.473   2.842
11495TIP3   OH234429   0.401   2.702   6.438
11495TIP3    H134430   0.491   2.671   6.430
11495TIP3    H234431   0.349   2.640   6.387
11496TIP3   OH234432   0.955   3.235   1.259
11496TIP3    H134433   0.893   3.173   1.222
11496TIP3    H234434   0.982   3.290   1.185
11497TIP3   OH234435   4.274   3.460   6.221
11497TIP3    H134436   4.313   3.498   6.300
11497TIP3    H234437   4.333   3.388   6.197
11498TIP3   OH234438   6.051   6.989   0.590
11498TIP3    H134439   5.994   7.063   0.570
11498TIP3    H234440   6.109   6.982   0.514
11499TIP3   OH234441   6.524   4.724   6.155
11499TIP3    H134442   6.573   4.650   6.193
11499TIP3    H234443   6.439   4.687   6.133
11500TIP3   OH234444   7.120   3.028   6.527
11500TIP3    H134445   7.051   3.055   6.468
11500TIP3    H234446   7.094   2.941   6.557
11501TIP3   OH234447   5.667   4.179   2.249
11501TIP3    H134448   5.704   4.125   2.319
11501TIP3    H234449   5.573   4.162   2.253
11502TIP3   OH234450   4.463   1.425   4.073
11502TIP3    H134451   4.511   1.408   4.154
11502TIP3    H234452   4.487   1.515   4.049
11503TIP3   OH234453   1.038   4.171   5.647
11503TIP3    H134454   1.053   4.112   5.573
11503TIP3    H234455   1.112   4.156   5.705
11504TIP3   OH234456   4.463   4.460   6.352
11504TIP3    H134457   4.430   4.459   6.442
11504TIP3    H234458   4.536   4.399   6.352
11505TIP3   OH234459   1.330   6.171   0.835
11505TIP3    H134460   1.249   6.162   0.784
11505TIP3    H234461   1.394   6.205   0.772
11506TIP3   OH234462   5.842   1.700   3.367
11506TIP3    H134463   5.860   1.690   3.460
11506TIP3    H234464   5.917   1.748   3.332
11507TIP3   OH234465   2.684   4.001   3.127
11507TIP3    H134466   2.769   3.959   3.139
11507TIP3    H234467   2.700   4.093   3.148
11508TIP3   OH234468   8.197   4.147   4.978
11508TIP3    H134469   8.110   4.137   5.015
11508TIP3    H234470   8.196   4.095   4.898
11509TIP3   OH234471   1.949   7.121   0.209
11509TIP3    H134472   2.031   7.077   0.233
11509TIP3    H234473   1.913   7.066   0.139
11510TIP3   OH234474   0.862   2.003   6.331
11510TIP3    H134475   0.908   1.947   6.393
11510TIP3    H234476   0.876   2.092   6.363
11511TIP3   OH234477   1.851   7.249   2.438
11511TIP3    H134478   1.867   7.295   2.521
11511TIP3    H234479   1.783   7.186   2.459
11512TIP3   OH234480   4.984   6.593   5.749
11512TIP3    H134481   5.023   6.555   5.670
11512TIP3    H234482   4.890   6.574   5.741
11513TIP3   OH234483   2.929   5.898   4.555
11513TIP3    H134484   3.019   5.868   4.564
11513TIP3    H234485   2.934   5.993   4.565
11514TIP3   OH234486   5.799   0.172   5.999
11514TIP3    H134487   5.780   0.115   5.925
11514TIP3    H234488   5.884   0.141   6.031
11515TIP3   OH234489   3.022   6.084   1.227
11515TIP3    H134490   2.961   6.157   1.231
11515TIP3    H234491   2.971   6.011   1.192
11516TIP3   OH234492   5.448   0.747   4.252
11516TIP3    H134493   5.488   0.811   4.193
11516TIP3    H234494   5.354   0.753   4.233
11517TIP3   OH234495   0.680   1.367   5.014
11517TIP3    H134496   0.687   1.370   5.110
11517TIP3    H234497   0.695   1.276   4.992
11518TIP3   OH234498   4.267   1.910   4.547
11518TIP3    H134499   4.335   1.974   4.525
11518TIP3    H234500   4.197   1.961   4.587
11519TIP3   OH234501   5.177   3.145   3.441
11519TIP3    H134502   5.086   3.131   3.470
11519TIP3    H234503   5.230   3.100   3.507
11520TIP3   OH234504   6.395   7.010   3.875
11520TIP3    H134505   6.325   6.955   3.839
11520TIP3    H234506   6.474   6.978   3.831
11521TIP3   OH234507   2.846   0.689   4.468
11521TIP3    H134508   2.873   0.709   4.558
11521TIP3    H234509   2.842   0.775   4.425
11522TIP3   OH234510   6.752   7.390   6.427
11522TIP3    H134511   6.672   7.342   6.405
11522TIP3    H234512   6.744   7.408   6.521
11523TIP3   OH234513   2.942   6.716   1.197
11523TIP3    H134514   2.936   6.699   1.291
11523TIP3    H234515   2.976   6.805   1.191
11524TIP3   OH234516   5.313   2.102   3.758
11524TIP3    H134517   5.405   2.080   3.739
11524TIP3    H234518   5.273   2.114   3.672
11525TIP3   OH234519   6.670   0.320   5.193
11525TIP3    H134520   6.597   0.351   5.140
11525TIP3    H234521   6.631   0.293   5.276
11526TIP3   OH234522   1.754   5.327   1.974
11526TIP3    H134523   1.778   5.252   1.920
11526TIP3    H234524   1.660   5.338   1.959
11527TIP3   OH234525   3.645   2.461   0.450
11527TIP3    H134526   3.703   2.480   0.376
11527TIP3    H234527   3.593   2.541   0.461
11528TIP3   OH234528   7.831   5.092   2.079
11528TIP3    H134529   7.770   5.164   2.061
11528TIP3    H234530   7.828   5.038   2.000
11529TIP3   OH234531   4.251   3.730   2.562
11529TIP3    H134532   4.307   3.787   2.509
11529TIP3    H234533   4.286   3.738   2.650
11530TIP3   OH234534   4.147   5.388   4.525
11530TIP3    H134535   4.110   5.415   4.441
11530TIP3    H234536   4.090   5.318   4.555
11531TIP3   OH234537   2.661   2.504   1.406
11531TIP3    H134538   2.728   2.505   1.337
11531TIP3    H234539   2.709   2.520   1.487
11532TIP3   OH234540   7.312   3.892   1.761
11532TIP3    H134541   7.255   3.962   1.793
11532TIP3    H234542   7.328   3.837   1.837
11533TIP3   OH234543   3.023   7.239   2.288
11533TIP3    H134544   3.070   7.237   2.372
11533TIP3    H234545   3.081   7.290   2.231
11534TIP3   OH234546   5.474   3.613   2.619
11534TIP3    H134547   5.539   3.635   2.552
11534TIP3    H234548   5.524   3.569   2.688
11535TIP3   OH234549   5.952   7.214   4.983
11535TIP3    H134550   5.906   7.134   4.957
11535TIP3    H234551   5.919   7.281   4.923
11536TIP3   OH234552   7.246   0.096   3.307
11536TIP3    H134553   7.322   0.040   3.318
11536TIP3    H234554   7.220   0.084   3.216
11537TIP3   OH234555   7.374   3.551   1.821
11537TIP3    H134556   7.445   3.596   1.866
11537TIP3    H234557   7.294   3.591   1.856
11538TIP3   OH234558   6.761   5.747   3.305
11538TIP3    H134559   6.793   5.805   3.373
11538TIP3    H234560   6.687   5.794   3.266
11539TIP3   OH234561   6.944   1.225   0.585
11539TIP3    H134562   6.901   1.232   0.500
11539TIP3    H234563   6.975   1.135   0.589
11540TIP3   OH234564   5.205   2.840   4.748
11540TIP3    H134565   5.225   2.843   4.655
11540TIP3    H234566   5.241   2.757   4.778
11541TIP3   OH234567   0.476   6.651   4.248
11541TIP3    H134568   0.470   6.728   4.192
11541TIP3    H234569   0.464   6.685   4.337
11542TIP3   OH234570   2.055   0.408   1.178
11542TIP3    H134571   1.978   0.420   1.233
11542TIP3    H234572   2.044   0.320   1.141
11543TIP3   OH234573   3.834   0.049   1.016
11543TIP3    H134574   3.831  -0.007   1.094
11543TIP3    H234575   3.743   0.060   0.991
11544TIP3   OH234576   1.717   4.341   4.067
11544TIP3    H134577   1.740   4.428   4.034
11544TIP3    H234578   1.798   4.308   4.107
11545TIP3   OH234579   5.429   0.563   6.346
11545TIP3    H134580   5.523   0.552   6.333
11545TIP3    H234581   5.391   0.551   6.259
11546TIP3   OH234582   3.306   5.949   1.594
11546TIP3    H134583   3.241   5.913   1.534
11546TIP3    H234584   3.258   5.965   1.675
11547TIP3   OH234585   4.923   2.552   2.419
11547TIP3    H134586   4.989   2.617   2.395
11547TIP3    H234587   4.850   2.603   2.453
11548TIP3   OH234588   7.222   7.297   0.583
11548TIP3    H134589   7.144   7.335   0.621
11548TIP3    H234590   7.239   7.349   0.504
11549TIP3   OH234591   5.386   3.901   2.095
11549TIP3    H134592   5.326   3.969   2.127
11549TIP3    H234593   5.328   3.836   2.055
11550TIP3   OH234594   6.921   3.746   3.399
11550TIP3    H134595   6.967   3.750   3.483
11550TIP3    H234596   6.842   3.696   3.418
11551TIP3   OH234597   1.319   2.706   1.057
11551TIP3    H134598   1.318   2.720   1.152
11551TIP3    H234599   1.405   2.667   1.039
11552TIP3   OH234600   2.713   1.854   0.236
11552TIP3    H134601   2.782   1.796   0.203
11552TIP3    H234602   2.687   1.816   0.320
11553TIP3   OH234603   7.141   3.118   5.923
11553TIP3    H134604   7.192   3.181   5.874
11553TIP3    H234605   7.087   3.074   5.857
11554TIP3   OH234606   1.676   4.795   6.733
11554TIP3    H134607   1.586   4.772   6.757
11554TIP3    H234608   1.676   4.891   6.733
11555TIP3   OH234609   5.852   4.017   3.589
11555TIP3    H134610   5.766   3.982   3.568
11555TIP3    H234611   5.861   4.002   3.683
11556TIP3   OH234612   1.852   0.217   6.470
11556TIP3    H134613   1.927   0.231   6.413
11556TIP3    H234614   1.776   0.240   6.416
11557TIP3   OH234615   5.133   2.832   1.844
11557TIP3    H134616   5.104   2.922   1.854
11557TIP3    H234617   5.103   2.807   1.756
11558TIP3   OH234618   7.549   6.851   2.735
11558TIP3    H134619   7.559   6.781   2.800
11558TIP3    H234620   7.459   6.880   2.745
11559TIP3   OH234621   0.547   0.805   6.080
11559TIP3    H134622   0.513   0.720   6.107
11559TIP3    H234623   0.528   0.810   5.986
11560TIP3   OH234624   2.483   0.988   2.161
11560TIP3    H134625   2.413   1.038   2.118
11560TIP3    H234626   2.437   0.925   2.216
11561TIP3   OH234627   3.358   0.338   1.131
11561TIP3    H134628   3.301   0.414   1.118
11561TIP3    H234629   3.444   0.375   1.151
11562TIP3   OH234630   1.568   6.535   6.384
11562TIP3    H134631   1.586   6.441   6.372
11562TIP3    H234632   1.499   6.538   6.449
11563TIP3   OH234633   7.298   6.560   1.127
11563TIP3    H134634   7.340   6.632   1.174
11563TIP3    H234635   7.343   6.556   1.043
11564TIP3   OH234636   2.937   1.786   6.361
11564TIP3    H134637   2.986   1.777   6.443
11564TIP3    H234638   2.994   1.746   6.295
11565TIP3   OH234639   5.763   0.031   5.767
11565TIP3    H134640   5.823   0.096   5.732
11565TIP3    H234641   5.702   0.013   5.696
11566TIP3   OH234642   0.273   3.183   4.872
11566TIP3    H134643   0.292   3.199   4.965
11566TIP3    H234644   0.193   3.232   4.855
11567TIP3   OH234645   0.804   0.234   4.523
11567TIP3    H134646   0.857   0.245   4.602
11567TIP3    H234647   0.797   0.139   4.512
11568TIP3   OH234648   6.281   5.349   5.768
11568TIP3    H134649   6.313   5.262   5.793
11568TIP3    H234650   6.247   5.337   5.680
11569TIP3   OH234651   8.245   5.442   1.668
11569TIP3    H134652   8.333   5.454   1.705
11569TIP3    H234653   8.261   5.406   1.580
11570TIP3   OH234654   5.903   4.433   2.384
11570TIP3    H134655   5.902   4.446   2.289
11570TIP3    H234656   5.846   4.357   2.398
11571TIP3   OH234657   1.868   7.002   6.401
11571TIP3    H134658   1.830   6.926   6.446
11571TIP3    H234659   1.863   6.980   6.308
11572TIP3   OH234660   5.801   1.652   2.598
11572TIP3    H134661   5.859   1.609   2.536
11572TIP3    H234662   5.857   1.715   2.644
11573TIP3   OH234663   5.689   0.245   2.094
11573TIP3    H134664   5.726   0.330   2.070
11573TIP3    H234665   5.595   0.255   2.079
11574TIP3   OH234666   5.485   1.660   1.508
11574TIP3    H134667   5.532   1.580   1.531
11574TIP3    H234668   5.393   1.634   1.504
11575TIP3   OH234669   0.972   6.394   2.437
11575TIP3    H134670   0.886   6.437   2.439
11575TIP3    H234671   0.984   6.360   2.525
11576TIP3   OH234672   8.040   4.545   3.600
11576TIP3    H134673   8.071   4.601   3.528
11576TIP3    H234674   8.037   4.603   3.676
11577TIP3   OH234675   0.507   2.418   3.420
11577TIP3    H134676   0.477   2.491   3.366
11577TIP3    H234677   0.539   2.459   3.501
11578TIP3   OH234678   1.614   4.475   0.891
11578TIP3    H134679   1.640   4.559   0.853
11578TIP3    H234680   1.628   4.487   0.985
11579TIP3   OH234681   2.066   0.184   5.374
11579TIP3    H134682   2.118   0.264   5.376
11579TIP3    H234683   2.128   0.114   5.395
11580TIP3   OH234684   0.747   6.147   6.236
11580TIP3    H134685   0.828   6.164   6.188
11580TIP3    H234686   0.695   6.226   6.225
11581TIP3   OH234687   4.161   0.389   0.419
11581TIP3    H134688   4.100   0.402   0.345
11581TIP3    H234689   4.229   0.454   0.405
11582TIP3   OH234690   4.191   6.034   0.273
11582TIP3    H134691   4.257   6.088   0.229
11582TIP3    H234692   4.197   6.059   0.365
11583TIP3   OH234693   6.647   3.476   2.940
11583TIP3    H134694   6.633   3.396   2.888
11583TIP3    H234695   6.576   3.534   2.913
11584TIP3   OH234696   7.285   6.292   3.294
11584TIP3    H134697   7.232   6.246   3.360
11584TIP3    H234698   7.337   6.354   3.345
11585TIP3   OH234699   8.162   5.600   5.376
11585TIP3    H134700   8.181   5.558   5.460
11585TIP3    H234701   8.247   5.605   5.331
11586TIP3   OH234702   1.398   0.584   1.594
11586TIP3    H134703   1.487   0.566   1.623
11586TIP3    H234704   1.343   0.525   1.646
11587TIP3   OH234705   3.229   5.752   4.777
11587TIP3    H134706   3.220   5.733   4.683
11587TIP3    H234707   3.323   5.748   4.793
11588TIP3   OH234708   1.444   4.923   4.735
11588TIP3    H134709   1.442   4.971   4.652
11588TIP3    H234710   1.450   4.992   4.801
11589TIP3   OH234711   8.128   7.037   3.763
11589TIP3    H134712   8.149   7.098   3.691
11589TIP3    H234713   8.040   7.063   3.790
11590TIP3   OH234714   3.548   6.089   1.492
11590TIP3    H134715   3.522   6.111   1.403
11590TIP3    H234716   3.478   6.032   1.524
11591TIP3   OH234717   6.920   3.233   5.231
11591TIP3    H134718   6.866   3.291   5.178
11591TIP3    H234719   6.924   3.276   5.317
11592TIP3   OH234720   3.346   5.665   1.767
11592TIP3    H134721   3.413   5.727   1.737
11592TIP3    H234722   3.281   5.720   1.812
11593TIP3   OH234723   6.044   0.983   0.974
11593TIP3    H134724   6.124   0.990   1.025
11593TIP3    H234725   6.013   1.073   0.965
11594TIP3   OH234726   7.680   7.620   3.887
11594TIP3    H134727   7.603   7.576   3.851
11594TIP3    H234728   7.671   7.711   3.858
11595TIP3   OH234729   0.481   7.342   2.607
11595TIP3    H134730   0.479   7.383   2.693
11595TIP3    H234731   0.519   7.408   2.549
11596TIP3   OH234732   4.640   2.299   1.884
11596TIP3    H134733   4.620   2.260   1.969
11596TIP3    H234734   4.590   2.380   1.883
11597TIP3   OH234735   4.222   4.197   5.898
11597TIP3    H134736   4.295   4.235   5.947
11597TIP3    H234737   4.220   4.248   5.817
11598TIP3   OH234738   5.976   5.514   6.371
11598TIP3    H134739   5.987   5.586   6.433
11598TIP3    H234740   6.005   5.551   6.287
11599TIP3   OH234741   0.188   2.034   0.431
11599TIP3    H134742   0.239   2.098   0.481
11599TIP3    H234743   0.250   1.962   0.416
11600TIP3   OH234744   0.491   4.998   0.690
11600TIP3    H134745   0.397   5.007   0.702
11600TIP3    H234746   0.501   4.954   0.606
11601TIP3   OH234747   7.576   3.768   2.964
11601TIP3    H134748   7.563   3.675   2.945
11601TIP3    H234749   7.524   3.785   3.042
11602TIP3   OH234750   7.245   2.372   2.606
11602TIP3    H134751   7.248   2.456   2.559
11602TIP3    H234752   7.160   2.336   2.585
11603TIP3   OH234753   5.498   7.000   4.855
11603TIP3    H134754   5.431   7.016   4.788
11603TIP3    H234755   5.483   7.068   4.921
11604TIP3   OH234756   7.877   0.601   3.288
11604TIP3    H134757   7.963   0.576   3.254
11604TIP3    H234758   7.890   0.605   3.383
11605TIP3   OH234759   7.210   2.728   6.316
11605TIP3    H134760   7.216   2.817   6.351
11605TIP3    H234761   7.246   2.734   6.228
11606TIP3   OH234762   3.636   4.425   4.670
11606TIP3    H134763   3.573   4.496   4.658
11606TIP3    H234764   3.596   4.349   4.628
11607TIP3   OH234765   7.000   5.046   1.082
11607TIP3    H134766   6.969   5.048   1.173
11607TIP3    H234767   7.080   5.099   1.083
11608TIP3   OH234768   2.197   0.109   6.049
11608TIP3    H134769   2.251   0.177   6.007
11608TIP3    H234770   2.244   0.087   6.129
11609TIP3   OH234771   0.663   7.503   1.962
11609TIP3    H134772   0.646   7.466   2.049
11609TIP3    H234773   0.639   7.595   1.970
11610TIP3   OH234774   2.472   1.731   5.247
11610TIP3    H134775   2.501   1.821   5.234
11610TIP3    H234776   2.386   1.727   5.207
11611TIP3   OH234777   1.851   7.096   1.019
11611TIP3    H134778   1.801   7.138   1.088
11611TIP3    H234779   1.824   7.141   0.939
11612TIP3   OH234780   2.965   1.638   3.453
11612TIP3    H134781   3.054   1.671   3.462
11612TIP3    H234782   2.917   1.709   3.411
11613TIP3   OH234783   5.479   0.529   4.823
11613TIP3    H134784   5.411   0.563   4.764
11613TIP3    H234785   5.552   0.590   4.814
11614TIP3   OH234786   1.987   6.344   4.120
11614TIP3    H134787   1.962   6.270   4.066
11614TIP3    H234788   1.907   6.366   4.169
11615TIP3   OH234789   6.724   5.066   1.758
11615TIP3    H134790   6.707   5.084   1.851
11615TIP3    H234791   6.656   5.114   1.711
11616TIP3   OH234792   7.299   7.359   6.576
11616TIP3    H134793   7.218   7.361   6.525
11616TIP3    H234794   7.269   7.363   6.667
11617TIP3   OH234795   2.919   7.710   5.085
11617TIP3    H134796   2.977   7.636   5.102
11617TIP3    H234797   2.842   7.672   5.044
11618TIP3   OH234798   6.846   7.756   4.871
11618TIP3    H134799   6.894   7.763   4.789
11618TIP3    H234800   6.894   7.691   4.922
11619TIP3   OH234801   3.793   1.004   2.817
11619TIP3    H134802   3.782   0.963   2.731
11619TIP3    H234803   3.875   0.970   2.851
11620TIP3   OH234804   3.527   1.517   0.478
11620TIP3    H134805   3.509   1.596   0.427
11620TIP3    H234806   3.506   1.445   0.418
11621TIP3   OH234807   5.629   5.080   0.994
11621TIP3    H134808   5.623   5.022   1.070
11621TIP3    H234809   5.571   5.040   0.929
11622TIP3   OH234810   2.794   1.869   5.621
11622TIP3    H134811   2.730   1.940   5.624
11622TIP3    H234812   2.879   1.912   5.635
11623TIP3   OH234813   4.544   5.443   5.396
11623TIP3    H134814   4.606   5.500   5.440
11623TIP3    H234815   4.575   5.439   5.305
11624TIP3   OH234816   8.297   4.725   5.397
11624TIP3    H134817   8.347   4.798   5.433
11624TIP3    H234818   8.207   4.756   5.393
11625TIP3   OH234819   0.385   7.234   3.399
11625TIP3    H134820   0.428   7.149   3.409
11625TIP3    H234821   0.453   7.293   3.366
11626TIP3   OH234822   4.750   7.747   3.357
11626TIP3    H134823   4.691   7.714   3.424
11626TIP3    H234824   4.798   7.818   3.399
11627TIP3   OH234825   2.505   3.348   3.208
11627TIP3    H134826   2.451   3.269   3.199
11627TIP3    H234827   2.576   3.335   3.144
11628TIP3   OH234828   5.488   7.806   1.383
11628TIP3    H134829   5.581   7.786   1.387
11628TIP3    H234830   5.448   7.751   1.450
11629TIP3   OH234831   0.269   1.529   4.855
11629TIP3    H134832   0.301   1.488   4.936
11629TIP3    H234833   0.306   1.474   4.786
11630TIP3   OH234834   8.098   3.157   0.371
11630TIP3    H134835   8.122   3.073   0.408
11630TIP3    H234836   8.129   3.154   0.280
11631TIP3   OH234837   6.253   4.347   3.006
11631TIP3    H134838   6.177   4.322   2.954
11631TIP3    H234839   6.221   4.352   3.096
11632TIP3   OH234840   5.630   2.899   1.719
11632TIP3    H134841   5.600   2.825   1.666
11632TIP3    H234842   5.689   2.860   1.783
11633TIP3   OH234843   6.214   7.154   5.097
11633TIP3    H134844   6.125   7.165   5.063
11633TIP3    H234845   6.206   7.171   5.191
11634TIP3   OH234846   6.544   6.784   0.883
11634TIP3    H134847   6.605   6.723   0.842
11634TIP3    H234848   6.485   6.810   0.813
11635TIP3   OH234849   8.000   3.968   6.350
11635TIP3    H134850   7.953   4.020   6.415
11635TIP3    H234851   8.023   4.031   6.282
11636TIP3   OH234852   0.077   3.811   2.147
11636TIP3    H134853  -0.005   3.860   2.144
11636TIP3    H234854   0.131   3.849   2.078
11637TIP3   OH234855   0.783   3.841   2.853
11637TIP3    H134856   0.700   3.792   2.848
11637TIP3    H234857   0.785   3.877   2.941
11638TIP3   OH234858   3.159   2.436   4.615
11638TIP3    H134859   3.167   2.519   4.568
11638TIP3    H234860   3.103   2.382   4.559
11639TIP3   OH234861   2.158   7.160   3.167
11639TIP3    H134862   2.211   7.090   3.128
11639TIP3    H234863   2.173   7.236   3.110
11640TIP3   OH234864   1.878   2.593   0.640
11640TIP3    H134865   1.842   2.657   0.579
11640TIP3    H234866   1.872   2.509   0.594
11641TIP3   OH234867   7.683   7.272   0.569
11641TIP3    H134868   7.734   7.200   0.606
11641TIP3    H234869   7.741   7.348   0.575
11642TIP3   OH234870   0.160   5.830   3.069
11642TIP3    H134871   0.097   5.758   3.075
11642TIP3    H234872   0.140   5.872   2.986
11643TIP3   OH234873   7.843   4.025   4.460
11643TIP3    H134874   7.923   4.009   4.409
11643TIP3    H234875   7.852   3.968   4.536
11644TIP3   OH234876   2.566   4.464   1.510
11644TIP3    H134877   2.594   4.412   1.435
11644TIP3    H234878   2.598   4.415   1.586
11645TIP3   OH234879   4.447   2.589   2.195
11645TIP3    H134880   4.531   2.627   2.220
11645TIP3    H234881   4.425   2.631   2.112
11646TIP3   OH234882   2.732   7.790   4.241
11646TIP3    H134883   2.811   7.742   4.268
11646TIP3    H234884   2.705   7.748   4.160
11647TIP3   OH234885   6.631   4.187   6.744
11647TIP3    H134886   6.719   4.159   6.769
11647TIP3    H234887   6.581   4.105   6.738
11648TIP3   OH234888   4.996   2.840   5.987
11648TIP3    H134889   5.051   2.793   6.050
11648TIP3    H234890   5.006   2.932   6.011
11649TIP3   OH234891   7.981   4.646   4.456
11649TIP3    H134892   7.893   4.672   4.426
11649TIP3    H234893   7.974   4.552   4.474
11650TIP3   OH234894   3.381   2.779   3.372
11650TIP3    H134895   3.353   2.702   3.420
11650TIP3    H234896   3.362   2.852   3.430
11651TIP3   OH234897   0.382   4.554   0.854
11651TIP3    H134898   0.468   4.523   0.882
11651TIP3    H234899   0.399   4.604   0.774
11652TIP3   OH234900   5.980   0.425   0.969
11652TIP3    H134901   5.950   0.498   0.915
11652TIP3    H234902   5.932   0.435   1.051
11653TIP3   OH234903   0.110   4.796   2.279
11653TIP3    H134904   0.104   4.889   2.301
11653TIP3    H234905   0.116   4.751   2.364
11654TIP3   OH234906   3.387   4.095   0.023
11654TIP3    H134907   3.348   4.030   0.080
11654TIP3    H234908   3.409   4.168   0.081
11655TIP3   OH234909   4.956   2.453   0.601
11655TIP3    H134910   5.012   2.501   0.662
11655TIP3    H234911   4.912   2.520   0.550
11656TIP3   OH234912   1.598   1.180   0.935
11656TIP3    H134913   1.684   1.143   0.954
11656TIP3    H234914   1.577   1.233   1.013
11657TIP3   OH234915   2.510   1.167   1.860
11657TIP3    H134916   2.425   1.162   1.904
11657TIP3    H234917   2.498   1.231   1.791
11658TIP3   OH234918   3.012   0.750   5.640
11658TIP3    H134919   3.032   0.663   5.605
11658TIP3    H234920   3.098   0.785   5.665
11659TIP3   OH234921   0.822   7.476   2.814
11659TIP3    H134922   0.862   7.390   2.801
11659TIP3    H234923   0.855   7.529   2.742
11660TIP3   OH234924   0.558   2.930   4.443
11660TIP3    H134925   0.617   2.985   4.392
11660TIP3    H234926   0.501   2.991   4.489
11661TIP3   OH234927   3.031   0.814   2.620
11661TIP3    H134928   2.978   0.875   2.671
11661TIP3    H234929   3.013   0.838   2.529
11662TIP3   OH234930   5.380   6.046   4.601
11662TIP3    H134931   5.474   6.055   4.617
11662TIP3    H234932   5.341   6.034   4.688
11663TIP3   OH234933   1.000   4.004   0.442
11663TIP3    H134934   0.933   4.025   0.377
11663TIP3    H234935   0.969   3.924   0.484
11664TIP3   OH234936   0.752   0.204   1.238
11664TIP3    H134937   0.689   0.138   1.266
11664TIP3    H234938   0.808   0.159   1.174
11665TIP3   OH234939   6.158   6.265   3.139
11665TIP3    H134940   6.205   6.347   3.127
11665TIP3    H234941   6.129   6.267   3.230
11666TIP3   OH234942   4.807   7.774   3.758
11666TIP3    H134943   4.749   7.762   3.683
11666TIP3    H234944   4.768   7.846   3.807
11667TIP3   OH234945   5.917   6.626   1.960
11667TIP3    H134946   5.969   6.702   1.986
11667TIP3    H234947   5.950   6.554   2.014
11668TIP3   OH234948   6.830   0.221   6.166
11668TIP3    H134949   6.739   0.216   6.135
11668TIP3    H234950   6.878   0.256   6.091
11669TIP3   OH234951   2.289   5.225   3.316
11669TIP3    H134952   2.379   5.253   3.330
11669TIP3    H234953   2.238   5.306   3.316
11670TIP3   OH234954   3.089   4.669   0.856
11670TIP3    H134955   3.047   4.589   0.825
11670TIP3    H234956   3.152   4.692   0.788
11671TIP3   OH234957   3.282   4.758   5.767
11671TIP3    H134958   3.237   4.813   5.831
11671TIP3    H234959   3.314   4.683   5.817
11672TIP3   OH234960   0.219   1.833   1.988
11672TIP3    H134961   0.161   1.908   1.995
11672TIP3    H234962   0.166   1.759   2.017
11673TIP3   OH234963   7.453   4.425   6.632
11673TIP3    H134964   7.488   4.500   6.681
11673TIP3    H234965   7.384   4.462   6.578
11674TIP3   OH234966   7.222   3.836   5.122
11674TIP3    H134967   7.237   3.755   5.171
11674TIP3    H234968   7.140   3.820   5.075
11675TIP3   OH234969   5.591   1.508   2.347
11675TIP3    H134970   5.670   1.549   2.310
11675TIP3    H234971   5.612   1.496   2.440
11676TIP3   OH234972   4.080   5.218   2.818
11676TIP3    H134973   4.111   5.131   2.844
11676TIP3    H234974   4.137   5.279   2.865
11677TIP3   OH234975   0.517   0.123   1.955
11677TIP3    H134976   0.535   0.217   1.956
11677TIP3    H234977   0.588   0.085   2.006
11678TIP3   OH234978   8.243   7.424   4.388
11678TIP3    H134979   8.324   7.460   4.424
11678TIP3    H234980   8.232   7.468   4.304
11679TIP3   OH234981   0.837   1.876   0.943
11679TIP3    H134982   0.925   1.909   0.960
11679TIP3    H234983   0.813   1.915   0.859
11680TIP3   OH234984   6.763   4.396   0.926
11680TIP3    H134985   6.843   4.390   0.977
11680TIP3    H234986   6.749   4.308   0.891
11681TIP3   OH234987   6.188   7.227   1.660
11681TIP3    H134988   6.234   7.305   1.692
11681TIP3    H234989   6.218   7.156   1.717
11682TIP3   OH234990   6.045   6.913   3.240
11682TIP3    H134991   6.068   7.005   3.252
11682TIP3    H234992   5.972   6.915   3.178
11683TIP3   OH234993   3.099   2.257   0.562
11683TIP3    H134994   3.094   2.167   0.529
11683TIP3    H234995   3.154   2.302   0.498
11684TIP3   OH234996   7.482   3.216   6.324
11684TIP3    H134997   7.535   3.231   6.402
11684TIP3    H234998   7.517   3.278   6.260
11685TIP3   OH234999   7.765   3.504   6.312
11685TIP3    H135000   7.749   3.597   6.328
11685TIP3    H235001   7.829   3.504   6.241
11686TIP3   OH235002   5.372   6.235   0.195
11686TIP3    H135003   5.341   6.312   0.243
11686TIP3    H235004   5.396   6.172   0.263
11687TIP3   OH235005   6.674   4.259   3.609
11687TIP3    H135006   6.726   4.305   3.674
11687TIP3    H235007   6.618   4.200   3.660
11688TIP3   OH235008   3.671   0.363   5.314
11688TIP3    H135009   3.659   0.353   5.408
11688TIP3    H235010   3.675   0.274   5.280
11689TIP3   OH235011   1.256   7.088   3.554
11689TIP3    H135012   1.225   7.067   3.465
11689TIP3    H235013   1.276   7.003   3.593
11690TIP3   OH235014   7.113   1.593   1.143
11690TIP3    H135015   7.053   1.637   1.082
11690TIP3    H235016   7.148   1.664   1.197
11691TIP3   OH235017   8.173   7.713   3.147
11691TIP3    H135018   8.128   7.747   3.069
11691TIP3    H235019   8.243   7.776   3.163
11692TIP3   OH235020   6.673   1.891   2.063
11692TIP3    H135021   6.738   1.832   2.025
11692TIP3    H235022   6.595   1.837   2.076
11693TIP3   OH235023   1.046   6.928   0.667
11693TIP3    H135024   1.108   6.936   0.740
11693TIP3    H235025   0.979   6.867   0.699
11694TIP3   OH235026   1.123   4.563   3.297
11694TIP3    H135027   1.107   4.530   3.386
11694TIP3    H235028   1.072   4.644   3.293
11695TIP3   OH235029   1.267   2.098   5.173
11695TIP3    H135030   1.348   2.060   5.206
11695TIP3    H235031   1.203   2.027   5.178
11696TIP3   OH235032   4.385   3.395   1.662
11696TIP3    H135033   4.404   3.483   1.630
11696TIP3    H235034   4.467   3.347   1.652
11697TIP3   OH235035   6.106   3.456   0.893
11697TIP3    H135036   6.170   3.438   0.824
11697TIP3    H235037   6.026   3.412   0.864
11698TIP3   OH235038   5.608   2.236   2.003
11698TIP3    H135039   5.667   2.309   1.985
11698TIP3    H235040   5.589   2.199   1.917
11699TIP3   OH235041   6.108   7.325   3.844
11699TIP3    H135042   6.032   7.379   3.822
11699TIP3    H235043   6.120   7.339   3.938
11700TIP3   OH235044   3.919   3.663   6.461
11700TIP3    H135045   3.924   3.741   6.516
11700TIP3    H235046   3.955   3.690   6.377
11701TIP3   OH235047   8.128   5.437   6.294
11701TIP3    H135048   8.140   5.374   6.364
11701TIP3    H235049   8.198   5.418   6.232
11702TIP3   OH235050   1.937   4.899   4.367
11702TIP3    H135051   2.006   4.954   4.402
11702TIP3    H235052   1.877   4.886   4.440
11703TIP3   OH235053   6.646   1.064   2.736
11703TIP3    H135054   6.600   1.063   2.651
11703TIP3    H235055   6.646   1.156   2.761
11704TIP3   OH235056   7.206   7.107   1.557
11704TIP3    H135057   7.280   7.045   1.558
11704TIP3    H235058   7.226   7.166   1.485
11705TIP3   OH235059   5.949   6.830   4.252
11705TIP3    H135060   5.894   6.908   4.252
11705TIP3    H235061   5.940   6.794   4.164
11706TIP3   OH235062   2.483   6.417   3.331
11706TIP3    H135063   2.458   6.370   3.252
11706TIP3    H235064   2.537   6.490   3.300
11707TIP3   OH235065   8.074   5.509   2.044
11707TIP3    H135066   8.169   5.508   2.058
11707TIP3    H235067   8.037   5.485   2.129
11708TIP3   OH235068   1.488   5.911   4.934
11708TIP3    H135069   1.451   5.826   4.956
11708TIP3    H235070   1.452   5.932   4.847
11709TIP3   OH235071   6.689   1.905   4.658
11709TIP3    H135072   6.757   1.972   4.655
11709TIP3    H235073   6.693   1.871   4.748
11710TIP3   OH235074   7.772   1.688   4.611
11710TIP3    H135075   7.740   1.760   4.666
11710TIP3    H235076   7.698   1.668   4.554
11711TIP3   OH235077   5.821   2.637   1.088
11711TIP3    H135078   5.802   2.716   1.138
11711TIP3    H235079   5.914   2.620   1.103
11712TIP3   OH235080   7.919   6.269   2.202
11712TIP3    H135081   7.971   6.242   2.126
11712TIP3    H235082   7.843   6.211   2.201
11713TIP3   OH235083   1.337   7.116   1.700
11713TIP3    H135084   1.341   7.181   1.770
11713TIP3    H235085   1.428   7.101   1.676
11714TIP3   OH235086   3.435   3.963   5.733
11714TIP3    H135087   3.344   3.956   5.705
11714TIP3    H235088   3.485   3.971   5.652
11715TIP3   OH235089   6.540   3.503   2.584
11715TIP3    H135090   6.633   3.485   2.591
11715TIP3    H235091   6.516   3.541   2.669
11716TIP3   OH235092   6.263   0.928   6.095
11716TIP3    H135093   6.292   0.969   6.013
11716TIP3    H235094   6.279   0.994   6.162
11717TIP3   OH235095   7.224   7.373   4.359
11717TIP3    H135096   7.212   7.420   4.441
11717TIP3    H235097   7.176   7.291   4.372
11718TIP3   OH235098   7.518   5.659   2.763
11718TIP3    H135099   7.487   5.599   2.696
11718TIP3    H235100   7.533   5.742   2.716
11719TIP3   OH235101   1.416   1.103   3.873
11719TIP3    H135102   1.454   1.180   3.916
11719TIP3    H235103   1.363   1.139   3.802
11720TIP3   OH235104   6.162   6.762   4.442
11720TIP3    H135105   6.086   6.807   4.406
11720TIP3    H235106   6.211   6.832   4.488
11721TIP3   OH235107   5.902   5.690   4.486
11721TIP3    H135108   5.810   5.698   4.511
11721TIP3    H235109   5.947   5.664   4.566
11722TIP3   OH235110   1.912   2.087   5.332
11722TIP3    H135111   1.950   2.158   5.280
11722TIP3    H235112   1.984   2.059   5.389
11723TIP3   OH235113   5.278   4.271   1.916
11723TIP3    H135114   5.188   4.261   1.887
11723TIP3    H235115   5.323   4.194   1.881
11724TIP3   OH235116   3.531   0.382   5.581
11724TIP3    H135117   3.514   0.476   5.576
11724TIP3    H235118   3.481   0.352   5.657
11725TIP3   OH235119   0.252   4.328   2.063
11725TIP3    H135120   0.167   4.285   2.071
11725TIP3    H235121   0.234   4.421   2.077
11726TIP3   OH235122   1.015   1.062   0.254
11726TIP3    H135123   1.090   1.006   0.273
11726TIP3    H235124   1.053   1.149   0.243
11727TIP3   OH235125   7.819   1.877   2.282
11727TIP3    H135126   7.741   1.878   2.339
11727TIP3    H235127   7.788   1.840   2.200
11728TIP3   OH235128   2.579   2.279   0.914
11728TIP3    H135129   2.604   2.238   0.832
11728TIP3    H235130   2.505   2.336   0.892
11729TIP3   OH235131   2.401   1.068   3.739
11729TIP3    H135132   2.460   1.132   3.698
11729TIP3    H235133   2.455   0.990   3.750
11730TIP3   OH235134   4.901   1.658   4.705
11730TIP3    H135135   4.815   1.647   4.664
11730TIP3    H235136   4.882   1.668   4.798
11731TIP3   OH235137   7.049   3.497   5.992
11731TIP3    H135138   7.111   3.568   6.009
11731TIP3    H235139   7.087   3.422   6.038
11732TIP3   OH235140   2.644   5.440   0.834
11732TIP3    H135141   2.550   5.434   0.821
11732TIP3    H235142   2.681   5.441   0.746
11733TIP3   OH235143   0.760   7.655   6.749
11733TIP3    H135144   0.667   7.658   6.774
11733TIP3    H235145   0.765   7.707   6.669
11734TIP3   OH235146   4.465   0.384   6.347
11734TIP3    H135147   4.428   0.448   6.407
11734TIP3    H235148   4.390   0.349   6.300
11735TIP3   OH235149   0.691   6.467   1.537
11735TIP3    H135150   0.742   6.387   1.525
11735TIP3    H235151   0.625   6.465   1.469
11736TIP3   OH235152   2.579   5.348   2.462
11736TIP3    H135153   2.671   5.372   2.470
11736TIP3    H235154   2.552   5.326   2.551
11737TIP3   OH235155   6.554   2.963   2.805
11737TIP3    H135156   6.503   2.904   2.860
11737TIP3    H235157   6.641   2.965   2.845
11738TIP3   OH235158   4.871   5.090   3.238
11738TIP3    H135159   4.812   5.083   3.313
11738TIP3    H235160   4.918   5.172   3.252
11739TIP3   OH235161   3.939   4.283   1.093
11739TIP3    H135162   3.900   4.363   1.130
11739TIP3    H235163   3.865   4.235   1.056
11740TIP3   OH235164   5.893   7.585   5.641
11740TIP3    H135165   5.938   7.502   5.627
11740TIP3    H235166   5.925   7.642   5.571
11741TIP3   OH235167   4.505   4.755   1.525
11741TIP3    H135168   4.496   4.669   1.482
11741TIP3    H235169   4.534   4.814   1.455
11742TIP3   OH235170   4.174   4.254   5.612
11742TIP3    H135171   4.194   4.301   5.532
11742TIP3    H235172   4.083   4.226   5.601
11743TIP3   OH235173   5.718   7.728   0.638
11743TIP3    H135174   5.667   7.650   0.658
11743TIP3    H235175   5.655   7.789   0.599
11744TIP3   OH235176   4.089   5.379   0.505
11744TIP3    H135177   4.110   5.375   0.599
11744TIP3    H235178   4.126   5.298   0.470
11745TIP3   OH235179   7.459   0.952   4.170
11745TIP3    H135180   7.406   0.892   4.223
11745TIP3    H235181   7.396   0.995   4.112
11746TIP3   OH235182   5.329   6.510   0.665
11746TIP3    H135183   5.395   6.446   0.692
11746TIP3    H235184   5.289   6.538   0.748
11747TIP3   OH235185   1.812   1.354   3.227
11747TIP3    H135186   1.882   1.409   3.193
11747TIP3    H235187   1.741   1.363   3.163
11748TIP3   OH235188   1.755   0.825   3.438
11748TIP3    H135189   1.742   0.901   3.495
11748TIP3    H235190   1.849   0.825   3.420
11749TIP3   OH235191   4.993   6.132   0.571
11749TIP3    H135192   5.051   6.207   0.559
11749TIP3    H235193   5.035   6.080   0.640
11750TIP3   OH235194   4.608   7.369   4.792
11750TIP3    H135195   4.583   7.390   4.882
11750TIP3    H235196   4.698   7.337   4.798
11751TIP3   OH235197   6.037   3.814   6.073
11751TIP3    H135198   5.995   3.748   6.018
11751TIP3    H235199   5.973   3.885   6.078
11752TIP3   OH235200   1.154   7.117   6.221
11752TIP3    H135201   1.202   7.034   6.220
11752TIP3    H235202   1.196   7.170   6.154
11753TIP3   OH235203   2.630   3.981   6.463
11753TIP3    H135204   2.627   4.070   6.430
11753TIP3    H235205   2.549   3.941   6.432
11754TIP3   OH235206   7.563   4.948   0.646
11754TIP3    H135207   7.568   4.876   0.583
11754TIP3    H235208   7.486   4.997   0.619
11755TIP3   OH235209   3.547   5.576   6.505
11755TIP3    H135210   3.639   5.602   6.504
11755TIP3    H235211   3.499   5.657   6.487
11756TIP3   OH235212   7.582   5.776   1.960
11756TIP3    H135213   7.665   5.820   1.946
11756TIP3    H235214   7.528   5.839   2.007
11757TIP3   OH235215   2.920   3.467   3.579
11757TIP3    H135216   2.948   3.423   3.499
11757TIP3    H235217   3.000   3.504   3.616
11758TIP3   OH235218   1.229   6.300   6.176
11758TIP3    H135219   1.308   6.263   6.216
11758TIP3    H235220   1.236   6.276   6.084
11759TIP3   OH235221   0.875   2.960   6.121
11759TIP3    H135222   0.793   2.918   6.144
11759TIP3    H235223   0.867   2.981   6.028
11760TIP3   OH235224   2.219   6.020   4.619
11760TIP3    H135225   2.167   6.095   4.590
11760TIP3    H235226   2.300   6.058   4.651
11761TIP3   OH235227   6.537   0.604   2.321
11761TIP3    H135228   6.472   0.534   2.323
11761TIP3    H235229   6.621   0.559   2.331
11762TIP3   OH235230   7.837   7.093   0.902
11762TIP3    H135231   7.885   7.160   0.952
11762TIP3    H235232   7.864   7.107   0.811
11763TIP3   OH235233   2.058   6.450   4.710
11763TIP3    H135234   1.999   6.498   4.769
11763TIP3    H235235   2.078   6.512   4.640
11764TIP3   OH235236   4.482   4.928   3.643
11764TIP3    H135237   4.540   4.996   3.677
11764TIP3    H235238   4.410   4.925   3.706
11765TIP3   OH235239   3.239   5.723   2.033
11765TIP3    H135240   3.196   5.639   2.047
11765TIP3    H235241   3.327   5.712   2.070
11766TIP3   OH235242   1.708   0.111   5.654
11766TIP3    H135243   1.773   0.052   5.617
11766TIP3    H235244   1.719   0.193   5.606
11767TIP3   OH235245   7.684   0.507   2.513
11767TIP3    H135246   7.732   0.434   2.554
11767TIP3    H235247   7.716   0.585   2.558
11768TIP3   OH235248   3.807   2.542   1.945
11768TIP3    H135249   3.848   2.579   1.866
11768TIP3    H235250   3.715   2.568   1.937
11769TIP3   OH235251   0.734   5.678   4.019
11769TIP3    H135252   0.732   5.774   4.024
11769TIP3    H235253   0.826   5.656   4.027
11770TIP3   OH235254   6.917   4.729   2.564
11770TIP3    H135255   6.942   4.667   2.632
11770TIP3    H235256   6.877   4.802   2.611
11771TIP3   OH235257   7.229   2.489   6.436
11771TIP3    H135258   7.245   2.443   6.354
11771TIP3    H235259   7.207   2.578   6.409
11772TIP3   OH235260   4.357   1.426   1.487
11772TIP3    H135261   4.443   1.413   1.526
11772TIP3    H235262   4.312   1.342   1.502
11773TIP3   OH235263   5.767   7.480   4.475
11773TIP3    H135264   5.814   7.399   4.494
11773TIP3    H235265   5.756   7.480   4.380
11774TIP3   OH235266   5.287   7.675   3.413
11774TIP3    H135267   5.340   7.596   3.415
11774TIP3    H235268   5.199   7.645   3.389
11775TIP3   OH235269   7.449   0.093   4.719
11775TIP3    H135270   7.429   0.092   4.813
11775TIP3    H235271   7.428   0.182   4.690
11776TIP3   OH235272   6.982   3.329   0.293
11776TIP3    H135273   6.939   3.378   0.364
11776TIP3    H235274   6.976   3.387   0.217
11777TIP3   OH235275   5.460   0.350   1.791
11777TIP3    H135276   5.423   0.322   1.875
11777TIP3    H235277   5.499   0.436   1.809
11778TIP3   OH235278   6.269   1.051   1.139
11778TIP3    H135279   6.274   0.963   1.175
11778TIP3    H235280   6.332   1.052   1.067
11779TIP3   OH235281   0.360   4.607   0.143
11779TIP3    H135282   0.388   4.536   0.085
11779TIP3    H235283   0.436   4.665   0.147
11780TIP3   OH235284   4.949   0.496   2.538
11780TIP3    H135285   5.037   0.527   2.561
11780TIP3    H235286   4.905   0.482   2.622
11781TIP3   OH235287   6.705   7.817   6.096
11781TIP3    H135288   6.676   7.780   6.180
11781TIP3    H235289   6.730   7.907   6.116
11782TIP3   OH235290   1.133   6.128   2.497
11782TIP3    H135291   1.168   6.216   2.480
11782TIP3    H235292   1.061   6.142   2.558
11783TIP3   OH235293   7.421   6.929   0.347
11783TIP3    H135294   7.514   6.912   0.336
11783TIP3    H235295   7.414   7.024   0.355
11784TIP3   OH235296   8.055   6.040   4.015
11784TIP3    H135297   8.046   5.954   3.973
11784TIP3    H235298   8.063   6.021   4.108
11785TIP3   OH235299   4.548   2.337   5.404
11785TIP3    H135300   4.592   2.329   5.488
11785TIP3    H235301   4.484   2.407   5.416
11786TIP3   OH235302   5.009   2.415   5.188
11786TIP3    H135303   4.997   2.352   5.259
11786TIP3    H235304   4.963   2.376   5.114
11787TIP3   OH235305   2.935   3.284   5.897
11787TIP3    H135306   2.863   3.313   5.840
11787TIP3    H235307   3.007   3.265   5.838
11788TIP3   OH235308   7.899   5.967   1.069
11788TIP3    H135309   7.854   6.009   1.142
11788TIP3    H235310   7.971   6.027   1.047
11789TIP3   OH235311   4.389   5.890   2.347
11789TIP3    H135312   4.326   5.909   2.417
11789TIP3    H235313   4.454   5.832   2.388
11790TIP3   OH235314   6.535   3.549   3.829
11790TIP3    H135315   6.588   3.469   3.831
11790TIP3    H235316   6.577   3.607   3.894
11791TIP3   OH235317   1.009   7.620   0.395
11791TIP3    H135318   1.014   7.528   0.421
11791TIP3    H235319   1.096   7.640   0.360
11792TIP3   OH235320   4.123   4.698   1.296
11792TIP3    H135321   4.046   4.641   1.291
11792TIP3    H235322   4.189   4.654   1.243
11793TIP3   OH235323   6.061   3.672   1.555
11793TIP3    H135324   6.048   3.597   1.497
11793TIP3    H235325   6.155   3.690   1.550
11794TIP3   OH235326   2.305   5.565   0.569
11794TIP3    H135327   2.255   5.512   0.506
11794TIP3    H235328   2.238   5.606   0.623
11795TIP3   OH235329   2.232   7.320   0.880
11795TIP3    H135330   2.257   7.371   0.803
11795TIP3    H235331   2.148   7.358   0.908
11796TIP3   OH235332   7.260   2.981   4.245
11796TIP3    H135333   7.206   2.912   4.283
11796TIP3    H235334   7.246   2.973   4.151
11797TIP3   OH235335   1.632   0.062   4.511
11797TIP3    H135336   1.635   0.016   4.427
11797TIP3    H235337   1.649  -0.005   4.576
11798TIP3   OH235338   4.530   5.227   5.544
11798TIP3    H135339   4.531   5.308   5.495
11798TIP3    H235340   4.616   5.222   5.585
11799TIP3   OH235341   4.588   1.149   5.018
11799TIP3    H135342   4.553   1.061   5.035
11799TIP3    H235343   4.673   1.150   5.062
11800TIP3   OH235344   2.806   5.096   2.674
11800TIP3    H135345   2.811   5.083   2.580
11800TIP3    H235346   2.884   5.051   2.708
11801TIP3   OH235347   4.891   6.215   2.831
11801TIP3    H135348   4.885   6.217   2.735
11801TIP3    H235349   4.827   6.149   2.858
11802TIP3   OH235350   4.197   5.021   1.350
11802TIP3    H135351   4.264   4.974   1.399
11802TIP3    H235352   4.244   5.062   1.277
11803TIP3   OH235353   2.658   1.949   0.881
11803TIP3    H135354   2.572   1.914   0.858
11803TIP3    H235355   2.662   2.034   0.839
11804TIP3   OH235356   6.465   4.724   3.524
11804TIP3    H135357   6.491   4.660   3.591
11804TIP3    H235358   6.518   4.801   3.543
11805TIP3   OH235359   3.118   1.050   6.442
11805TIP3    H135360   3.024   1.068   6.437
11805TIP3    H235361   3.140   1.064   6.535
11806TIP3   OH235362   1.318   1.515   2.095
11806TIP3    H135363   1.385   1.448   2.078
11806TIP3    H235364   1.243   1.466   2.129
11807TIP3   OH235365   4.288   2.692   5.863
11807TIP3    H135366   4.251   2.760   5.807
11807TIP3    H235367   4.212   2.656   5.909
11808TIP3   OH235368   2.232   4.520   3.440
11808TIP3    H135369   2.292   4.463   3.488
11808TIP3    H235370   2.147   4.503   3.481
11809TIP3   OH235371   2.894   4.224   0.403
11809TIP3    H135372   2.969   4.256   0.454
11809TIP3    H235373   2.880   4.292   0.337
11810TIP3   OH235374   0.186   2.142   6.699
11810TIP3    H135375   0.146   2.056   6.684
11810TIP3    H235376   0.238   2.131   6.779
11811TIP3   OH235377   7.977   2.208   0.592
11811TIP3    H135378   7.890   2.241   0.614
11811TIP3    H235379   7.971   2.113   0.603
11812TIP3   OH235380   5.362   0.890   4.789
11812TIP3    H135381   5.430   0.868   4.726
11812TIP3    H235382   5.356   0.813   4.846
11813TIP3   OH235383   0.138   4.978   4.978
11813TIP3    H135384   0.189   4.975   4.897
11813TIP3    H235385   0.138   5.070   5.004
11814TIP3   OH235386   4.484   1.203   5.704
11814TIP3    H135387   4.564   1.161   5.737
11814TIP3    H235388   4.420   1.132   5.700
11815TIP3   OH235389   0.975   6.571   1.315
11815TIP3    H135390   0.966   6.624   1.235
11815TIP3    H235391   0.994   6.634   1.384
11816TIP3   OH235392   2.619   6.532   5.885
11816TIP3    H135393   2.579   6.495   5.807
11816TIP3    H235394   2.666   6.459   5.925
11817TIP3   OH235395   2.505   4.301   4.900
11817TIP3    H135396   2.514   4.282   4.807
11817TIP3    H235397   2.417   4.338   4.908
11818TIP3   OH235398   0.374   0.426   4.546
11818TIP3    H135399   0.418   0.495   4.597
11818TIP3    H235400   0.446   0.376   4.507
11819TIP3   OH235401   4.364   3.243  -0.004
11819TIP3    H135402   4.341   3.245   0.089
11819TIP3    H235403   4.280   3.245  -0.050
11820TIP3   OH235404   3.749   4.294   4.334
11820TIP3    H135405   3.715   4.356   4.269
11820TIP3    H235406   3.788   4.224   4.282
11821TIP3   OH235407   6.013   6.748   3.500
11821TIP3    H135408   5.998   6.802   3.422
11821TIP3    H235409   5.928   6.709   3.519
11822TIP3   OH235410   4.755   1.946   5.106
11822TIP3    H135411   4.728   1.996   5.029
11822TIP3    H235412   4.754   2.009   5.178
11823TIP3   OH235413   3.170   3.433   4.853
11823TIP3    H135414   3.250   3.478   4.881
11823TIP3    H235415   3.109   3.504   4.833
11824TIP3   OH235416   3.781   0.777   1.478
11824TIP3    H135417   3.848   0.805   1.415
11824TIP3    H235418   3.770   0.683   1.460
11825TIP3   OH235419   6.672   6.261   5.855
11825TIP3    H135420   6.734   6.263   5.783
11825TIP3    H235421   6.597   6.311   5.824
11826TIP3   OH235422   6.680   0.223   1.282
11826TIP3    H135423   6.702   0.296   1.224
11826TIP3    H235424   6.595   0.192   1.251
11827TIP3   OH235425   3.257   1.065   2.567
11827TIP3    H135426   3.241   1.010   2.643
11827TIP3    H235427   3.350   1.053   2.547
11828TIP3   OH235428   7.476   2.737   6.189
11828TIP3    H135429   7.437   2.795   6.254
11828TIP3    H235430   7.509   2.663   6.241
11829TIP3   OH235431   4.404   7.310   4.616
11829TIP3    H135432   4.452   7.348   4.690
11829TIP3    H235433   4.375   7.225   4.649
11830TIP3   OH235434   2.221   5.527   3.073
11830TIP3    H135435   2.238   5.610   3.028
11830TIP3    H235436   2.283   5.466   3.034
11831TIP3   OH235437   5.684   4.123   5.210
11831TIP3    H135438   5.773   4.087   5.206
11831TIP3    H235439   5.661   4.138   5.118
11832TIP3   OH235440   6.183   5.257   4.165
11832TIP3    H135441   6.179   5.287   4.256
11832TIP3    H235442   6.246   5.316   4.124
11833TIP3   OH235443   7.495   6.646   5.158
11833TIP3    H135444   7.439   6.704   5.108
11833TIP3    H235445   7.584   6.669   5.132
11834TIP3   OH235446   6.848   6.948   3.801
11834TIP3    H135447   6.809   7.030   3.832
11834TIP3    H235448   6.901   6.974   3.726
11835TIP3   OH235449   6.856   5.169   4.910
11835TIP3    H135450   6.899   5.133   4.988
11835TIP3    H235451   6.923   5.164   4.842
11836TIP3   OH235452   6.111   5.344   6.028
11836TIP3    H135453   6.092   5.436   6.048
11836TIP3    H235454   6.189   5.347   5.973
11837TIP3   OH235455   8.149   2.063   6.741
11837TIP3    H135456   8.225   2.048   6.685
11837TIP3    H235457   8.133   1.979   6.785
11838TIP3   OH235458   6.694   0.932   5.442
11838TIP3    H135459   6.753   0.893   5.378
11838TIP3    H235460   6.674   1.018   5.407
11839TIP3   OH235461   2.286   7.251   6.417
11839TIP3    H135462   2.238   7.233   6.498
11839TIP3    H235463   2.257   7.339   6.391
11840TIP3   OH235464   2.491   1.236   1.205
11840TIP3    H135465   2.533   1.303   1.151
11840TIP3    H235466   2.467   1.167   1.143
11841TIP3   OH235467   3.742   1.342   2.895
11841TIP3    H135468   3.808   1.298   2.949
11841TIP3    H235469   3.725   1.280   2.824
11842TIP3   OH235470   5.500   4.697   0.045
11842TIP3    H135471   5.541   4.727  -0.036
11842TIP3    H235472   5.419   4.748   0.050
11843TIP3   OH235473   1.230   0.976   4.577
11843TIP3    H135474   1.221   1.004   4.668
11843TIP3    H235475   1.193   0.887   4.576
11844TIP3   OH235476   5.185   5.616   1.611
11844TIP3    H135477   5.188   5.584   1.701
11844TIP3    H235478   5.117   5.564   1.569
11845TIP3   OH235479   2.287   6.629   5.742
11845TIP3    H135480   2.250   6.547   5.710
11845TIP3    H235481   2.347   6.657   5.673
11846TIP3   OH235482   0.377   4.429   4.593
11846TIP3    H135483   0.333   4.463   4.515
11846TIP3    H235484   0.306   4.393   4.647
11847TIP3   OH235485   1.063   1.346   1.389
11847TIP3    H135486   1.008   1.413   1.347
11847TIP3    H235487   1.122   1.317   1.320
11848TIP3   OH235488   3.769   1.743   3.461
11848TIP3    H135489   3.811   1.658   3.445
11848TIP3    H235490   3.685   1.737   3.415
11849TIP3   OH235491   1.545   0.261   4.937
11849TIP3    H135492   1.562   0.271   4.844
11849TIP3    H235493   1.485   0.187   4.943
11850TIP3   OH235494   6.244   5.714   3.473
11850TIP3    H135495   6.266   5.622   3.457
11850TIP3    H235496   6.292   5.736   3.553
11851TIP3   OH235497   1.933   2.407   4.822
11851TIP3    H135498   2.017   2.426   4.865
11851TIP3    H235499   1.904   2.324   4.860
11852TIP3   OH235500   4.057   5.019   3.939
11852TIP3    H135501   4.090   4.985   4.022
11852TIP3    H235502   3.973   4.975   3.926
11853TIP3   OH235503   4.611   1.279   5.450
11853TIP3    H135504   4.695   1.251   5.486
11853TIP3    H235505   4.549   1.267   5.521
11854TIP3   OH235506   2.830   3.304   4.356
11854TIP3    H135507   2.925   3.316   4.348
11854TIP3    H235508   2.820   3.241   4.427
11855TIP3   OH235509   3.091   1.735   4.616
11855TIP3    H135510   3.073   1.829   4.618
11855TIP3    H235511   3.005   1.694   4.615
11856TIP3   OH235512   0.753   0.812   2.535
11856TIP3    H135513   0.771   0.796   2.443
11856TIP3    H235514   0.661   0.840   2.537
11857TIP3   OH235515   0.564   0.604   2.442
11857TIP3    H135516   0.542   0.696   2.453
11857TIP3    H235517   0.531   0.562   2.522
11858TIP3   OH235518   4.801   5.473   0.563
11858TIP3    H135519   4.851   5.546   0.600
11858TIP3    H235520   4.844   5.454   0.480
11859TIP3   OH235521   4.544   7.709   3.879
11859TIP3    H135522   4.473   7.750   3.927
11859TIP3    H235523   4.512   7.703   3.789
11860TIP3   OH235524   1.485   5.810   3.834
11860TIP3    H135525   1.529   5.753   3.898
11860TIP3    H235526   1.414   5.851   3.884
11861TIP3   OH235527   3.103   1.186   6.723
11861TIP3    H135528   3.009   1.176   6.735
11861TIP3    H235529   3.115   1.279   6.705
11862TIP3   OH235530   3.028   6.136   1.670
11862TIP3    H135531   3.043   6.061   1.612
11862TIP3    H235532   2.940   6.166   1.650
11863TIP3   OH235533   3.743   2.510   4.759
11863TIP3    H135534   3.705   2.521   4.671
11863TIP3    H235535   3.674   2.540   4.818
11864TIP3   OH235536   7.557   7.392   3.527
11864TIP3    H135537   7.464   7.396   3.504
11864TIP3    H235538   7.572   7.300   3.546
11865TIP3   OH235539   4.995   6.943   6.014
11865TIP3    H135540   5.088   6.932   5.996
11865TIP3    H235541   4.953   6.935   5.928
11866TIP3   OH235542   1.622   0.778   6.388
11866TIP3    H135543   1.560   0.767   6.315
11866TIP3    H235544   1.595   0.713   6.452
11867TIP3   OH235545   1.710   6.520   6.011
11867TIP3    H135546   1.756   6.463   5.949
11867TIP3    H235547   1.738   6.489   6.097
11868TIP3   OH235548   6.734   1.754   0.829
11868TIP3    H135549   6.802   1.773   0.893
11868TIP3    H235550   6.654   1.746   0.881
11869TIP3   OH235551   6.515   7.516   5.782
11869TIP3    H135552   6.578   7.459   5.826
11869TIP3    H235553   6.516   7.597   5.833
11870TIP3   OH235554   5.640   2.591   5.051
11870TIP3    H135555   5.620   2.528   4.982
11870TIP3    H235556   5.736   2.592   5.055
11871TIP3   OH235557   5.806   4.219   3.022
11871TIP3    H135558   5.759   4.138   3.004
11871TIP3    H235559   5.741   4.276   3.063
11872TIP3   OH235560   5.068   3.656   4.010
11872TIP3    H135561   5.089   3.725   4.073
11872TIP3    H235562   5.150   3.610   3.996
11873TIP3   OH235563   0.682   1.719   4.712
11873TIP3    H135564   0.672   1.814   4.706
11873TIP3    H235565   0.745   1.706   4.782
11874TIP3   OH235566   3.731   2.457   6.497
11874TIP3    H135567   3.822   2.457   6.469
11874TIP3    H235568   3.692   2.382   6.452
11875TIP3   OH235569   6.850   3.334   2.429
11875TIP3    H135570   6.780   3.272   2.410
11875TIP3    H235571   6.919   3.281   2.470
11876TIP3   OH235572   0.884   7.746   0.201
11876TIP3    H135573   0.797   7.723   0.232
11876TIP3    H235574   0.944   7.708   0.265
11877TIP3   OH235575   0.128   2.367   0.943
11877TIP3    H135576   0.060   2.351   0.878
11877TIP3    H235577   0.082   2.409   1.016
11878TIP3   OH235578   4.516   0.577   5.894
11878TIP3    H135579   4.508   0.485   5.871
11878TIP3    H235580   4.536   0.577   5.987
11879TIP3   OH235581   6.831   6.242   1.074
11879TIP3    H135582   6.777   6.315   1.105
11879TIP3    H235583   6.871   6.275   0.994
11880TIP3   OH235584   6.817   0.351   0.274
11880TIP3    H135585   6.820   0.291   0.200
11880TIP3    H235586   6.906   0.387   0.280
11881TIP3   OH235587   5.492   6.249   5.729
11881TIP3    H135588   5.411   6.269   5.683
11881TIP3    H235589   5.489   6.301   5.809
11882TIP3   OH235590   5.696   5.476   0.369
11882TIP3    H135591   5.602   5.466   0.353
11882TIP3    H235592   5.708   5.569   0.385
11883TIP3   OH235593   4.646   2.994   2.169
11883TIP3    H135594   4.561   3.014   2.208
11883TIP3    H235595   4.629   2.921   2.110
11884TIP3   OH235596   6.766   0.058   6.367
11884TIP3    H135597   6.801   0.105   6.291
11884TIP3    H235598   6.764  -0.033   6.339
11885TIP3   OH235599   4.099   2.255   6.574
11885TIP3    H135600   4.144   2.173   6.552
11885TIP3    H235601   4.022   2.228   6.623
11886TIP3   OH235602   4.627   7.213   5.473
11886TIP3    H135603   4.656   7.193   5.384
11886TIP3    H235604   4.692   7.276   5.505
11887TIP3   OH235605   6.111   7.190   5.356
11887TIP3    H135606   6.172   7.145   5.414
11887TIP3    H235607   6.028   7.144   5.368
11888TIP3   OH235608   3.231   0.819   5.782
11888TIP3    H135609   3.168   0.880   5.820
11888TIP3    H235610   3.315   0.846   5.819
11889TIP3   OH235611   7.850   7.356   3.764
11889TIP3    H135612   7.844   7.448   3.789
11889TIP3    H235613   7.772   7.340   3.710
11890TIP3   OH235614   5.291   4.374   1.563
11890TIP3    H135615   5.289   4.363   1.468
11890TIP3    H235616   5.270   4.467   1.577
11891TIP3   OH235617   5.284   3.913   1.592
11891TIP3    H135618   5.206   3.955   1.555
11891TIP3    H235619   5.357   3.951   1.544
11892TIP3   OH235620   1.982   5.479   5.339
11892TIP3    H135621   1.996   5.572   5.353
11892TIP3    H235622   2.025   5.461   5.255
11893TIP3   OH235623   3.972   7.020   2.648
11893TIP3    H135624   3.879   6.998   2.644
11893TIP3    H235625   3.975   7.113   2.624
11894TIP3   OH235626   2.326   3.483   5.103
11894TIP3    H135627   2.306   3.529   5.021
11894TIP3    H235628   2.301   3.545   5.172
11895TIP3   OH235629   5.800   6.285   6.151
11895TIP3    H135630   5.757   6.200   6.161
11895TIP3    H235631   5.771   6.317   6.066
11896TIP3   OH235632   4.314   4.341   0.124
11896TIP3    H135633   4.339   4.421   0.170
11896TIP3    H235634   4.383   4.327   0.060
11897TIP3   OH235635   5.572   2.290   4.303
11897TIP3    H135636   5.654   2.241   4.302
11897TIP3    H235637   5.587   2.362   4.364
11898TIP3   OH235638   2.730   7.113   3.296
11898TIP3    H135639   2.742   7.187   3.236
11898TIP3    H235640   2.638   7.089   3.286
11899TIP3   OH235641   1.228   3.470   1.292
11899TIP3    H135642   1.196   3.530   1.359
11899TIP3    H235643   1.208   3.513   1.209
11900TIP3   OH235644   3.442   2.121   5.351
11900TIP3    H135645   3.526   2.079   5.368
11900TIP3    H235646   3.398   2.122   5.435
11901TIP3   OH235647   2.566   4.655   3.559
11901TIP3    H135648   2.479   4.689   3.579
11901TIP3    H235649   2.622   4.733   3.555
11902TIP3   OH235650   8.140   6.551   6.057
11902TIP3    H135651   8.136   6.502   5.975
11902TIP3    H235652   8.049   6.554   6.088
11903TIP3   OH235653   4.563   0.946   0.661
11903TIP3    H135654   4.635   0.995   0.700
11903TIP3    H235655   4.488   1.005   0.666
11904TIP3   OH235656   1.701   5.791   5.540
11904TIP3    H135657   1.679   5.787   5.633
11904TIP3    H235658   1.692   5.701   5.509
11905TIP3   OH235659   5.754   0.618   4.773
11905TIP3    H135660   5.797   0.698   4.743
11905TIP3    H235661   5.807   0.590   4.848
11906TIP3   OH235662   1.378   2.266   6.673
11906TIP3    H135663   1.411   2.176   6.673
11906TIP3    H235664   1.415   2.305   6.594
11907TIP3   OH235665   7.230   4.943   1.560
11907TIP3    H135666   7.289   4.933   1.635
11907TIP3    H235667   7.160   5.001   1.592
11908TIP3   OH235668   4.069   1.630   6.398
11908TIP3    H135669   4.090   1.584   6.317
11908TIP3    H235670   4.154   1.648   6.438
11909TIP3   OH235671   7.150   4.429   2.189
11909TIP3    H135672   7.211   4.442   2.117
11909TIP3    H235673   7.064   4.420   2.148
11910TIP3   OH235674   5.928   4.283   1.335
11910TIP3    H135675   5.924   4.373   1.303
11910TIP3    H235676   5.961   4.232   1.261
11911TIP3   OH235677   4.297   1.868   3.038
11911TIP3    H135678   4.276   1.815   2.961
11911TIP3    H235679   4.376   1.827   3.075
11912TIP3   OH235680   3.049   4.869   1.667
11912TIP3    H135681   2.999   4.895   1.744
11912TIP3    H235682   3.072   4.778   1.683
11913TIP3   OH235683   5.312   3.679   0.149
11913TIP3    H135684   5.357   3.597   0.169
11913TIP3    H235685   5.380   3.734   0.109
11914TIP3   OH235686   7.579   4.265   3.865
11914TIP3    H135687   7.641   4.298   3.929
11914TIP3    H235688   7.554   4.342   3.814
11915TIP3   OH235689   6.715   0.223   2.565
11915TIP3    H135690   6.670   0.285   2.622
11915TIP3    H235691   6.781   0.276   2.519
11916TIP3   OH235692   2.234   6.486   5.149
11916TIP3    H135693   2.252   6.563   5.203
11916TIP3    H235694   2.315   6.436   5.150
11917TIP3   OH235695   1.041   1.736   2.138
11917TIP3    H135696   1.091   1.786   2.074
11917TIP3    H235697   1.009   1.803   2.200
11918TIP3   OH235698   7.928   5.778   2.155
11918TIP3    H135699   7.992   5.707   2.155
11918TIP3    H235700   7.850   5.741   2.195
11919TIP3   OH235701   0.890   4.719   1.818
11919TIP3    H135702   0.980   4.729   1.849
11919TIP3    H235703   0.837   4.721   1.898
11920TIP3   OH235704   7.367   3.133   1.128
11920TIP3    H135705   7.382   3.176   1.044
11920TIP3    H235706   7.455   3.108   1.158
11921TIP3   OH235707   2.456   2.326   6.249
11921TIP3    H135708   2.410   2.380   6.313
11921TIP3    H235709   2.387   2.276   6.205
11922TIP3   OH235710   3.882   4.800   1.020
11922TIP3    H135711   3.869   4.757   0.935
11922TIP3    H235712   3.891   4.728   1.082
11923TIP3   OH235713   1.666   4.385   3.066
11923TIP3    H135714   1.669   4.300   3.023
11923TIP3    H235715   1.693   4.447   2.999
11924TIP3   OH235716   4.322   1.171   0.087
11924TIP3    H135717   4.268   1.223   0.146
11924TIP3    H235718   4.295   1.197  -0.001
11925TIP3   OH235719   1.406   4.891   0.286
11925TIP3    H135720   1.474   4.832   0.255
11925TIP3    H235721   1.450   4.952   0.345
11926TIP3   OH235722   3.538   0.826   6.114
11926TIP3    H135723   3.621   0.832   6.162
11926TIP3    H235724   3.512   0.734   6.123
11927TIP3   OH235725   0.523   3.583   1.774
11927TIP3    H135726   0.428   3.581   1.763
11927TIP3    H235727   0.549   3.670   1.745
11928TIP3   OH235728   6.534   2.443   1.527
11928TIP3    H135729   6.504   2.513   1.585
11928TIP3    H235730   6.579   2.382   1.586
11929TIP3   OH235731   4.794   0.689   4.068
11929TIP3    H135732   4.824   0.775   4.099
11929TIP3    H235733   4.703   0.683   4.099
11930TIP3   OH235734   3.052   1.236   1.411
11930TIP3    H135735   3.113   1.302   1.378
11930TIP3    H235736   2.966   1.270   1.389
11931TIP3   OH235737   3.521   6.991   6.463
11931TIP3    H135738   3.517   6.904   6.423
11931TIP3    H235739   3.520   7.052   6.389
11932TIP3   OH235740   1.602   1.647   4.504
11932TIP3    H135741   1.615   1.719   4.443
11932TIP3    H235742   1.690   1.612   4.520
11933TIP3   OH235743   4.538   1.285   1.673
11933TIP3    H135744   4.502   1.198   1.691
11933TIP3    H235745   4.494   1.343   1.735
11934TIP3   OH235746   5.876   7.010   6.641
11934TIP3    H135747   5.939   6.950   6.602
11934TIP3    H235748   5.852   7.069   6.569
11935TIP3   OH235749   3.154   1.632   0.833
11935TIP3    H135750   3.220   1.601   0.771
11935TIP3    H235751   3.159   1.571   0.907
11936TIP3   OH235752   5.560   5.587   5.452
11936TIP3    H135753   5.573   5.682   5.444
11936TIP3    H235754   5.471   5.579   5.486
11937TIP3   OH235755   6.780   0.806   3.574
11937TIP3    H135756   6.691   0.840   3.584
11937TIP3    H235757   6.822   0.867   3.513
11938TIP3   OH235758   3.177   2.013   6.527
11938TIP3    H135759   3.089   2.044   6.505
11938TIP3    H235760   3.214   2.082   6.582
11939TIP3   OH235761   4.739   3.477   6.431
11939TIP3    H135762   4.715   3.515   6.515
11939TIP3    H235763   4.746   3.383   6.449
11940TIP3   OH235764   2.510   6.157   6.499
11940TIP3    H135765   2.433   6.210   6.475
11940TIP3    H235766   2.531   6.186   6.588
11941TIP3   OH235767   7.901   0.920   4.669
11941TIP3    H135768   7.834   0.947   4.606
11941TIP3    H235769   7.983   0.930   4.621
11942TIP3   OH235770   4.093   5.130   2.561
11942TIP3    H135771   4.022   5.184   2.524
11942TIP3    H235772   4.114   5.172   2.644
11943TIP3   OH235773   2.626   5.882   6.010
11943TIP3    H135774   2.629   5.923   5.924
11943TIP3    H235775   2.718   5.872   6.036
11944TIP3   OH235776   1.063   4.227   1.913
11944TIP3    H135777   0.975   4.221   1.952
11944TIP3    H235778   1.047   4.221   1.819
11945TIP3   OH235779   4.674   3.325   2.429
11945TIP3    H135780   4.597   3.336   2.373
11945TIP3    H235781   4.739   3.384   2.393
11946TIP3   OH235782   1.894   1.540   6.089
11946TIP3    H135783   1.929   1.464   6.042
11946TIP3    H235784   1.876   1.507   6.177
11947TIP3   OH235785   6.379   2.182   2.656
11947TIP3    H135786   6.458   2.197   2.709
11947TIP3    H235787   6.328   2.262   2.667
11948TIP3   OH235788   1.008   2.464   2.471
11948TIP3    H135789   1.041   2.546   2.435
11948TIP3    H235790   0.918   2.458   2.439
11949TIP3   OH235791   2.165   4.326   6.165
11949TIP3    H135792   2.251   4.345   6.202
11949TIP3    H235793   2.176   4.242   6.120
11950TIP3   OH235794   0.892   0.561   5.194
11950TIP3    H135795   0.833   0.527   5.128
11950TIP3    H235796   0.834   0.594   5.263
11951TIP3   OH235797   1.900   3.293   2.391
11951TIP3    H135798   1.954   3.220   2.360
11951TIP3    H235799   1.952   3.371   2.375
11952TIP3   OH235800   3.603   4.467   0.786
11952TIP3    H135801   3.532   4.483   0.724
11952TIP3    H235802   3.651   4.392   0.750
11953TIP3   OH235803   0.208   2.173   2.631
11953TIP3    H135804   0.293   2.148   2.667
11953TIP3    H235805   0.194   2.111   2.559
11954TIP3   OH235806   5.341   5.559   6.668
11954TIP3    H135807   5.333   5.494   6.737
11954TIP3    H235808   5.408   5.619   6.699
11955TIP3   OH235809   3.554   4.271   2.873
11955TIP3    H135810   3.585   4.316   2.795
11955TIP3    H235811   3.553   4.179   2.848
11956TIP3   OH235812   1.888   6.351   3.550
11956TIP3    H135813   1.978   6.383   3.550
11956TIP3    H235814   1.856   6.368   3.639
11957TIP3   OH235815   4.227   2.037   5.944
11957TIP3    H135816   4.244   2.101   6.013
11957TIP3    H235817   4.233   2.087   5.863
11958TIP3   OH235818   1.842   6.562   3.376
11958TIP3    H135819   1.860   6.474   3.408
11958TIP3    H235820   1.797   6.605   3.450
11959TIP3   OH235821   6.372   2.437   3.258
11959TIP3    H135822   6.447   2.378   3.262
11959TIP3    H235823   6.408   2.523   3.281
11960TIP3   OH235824   4.646   0.676   6.453
11960TIP3    H135825   4.596   0.758   6.456
11960TIP3    H235826   4.714   0.691   6.388
11961TIP3   OH235827   2.998   7.769   1.768
11961TIP3    H135828   2.920   7.738   1.724
11961TIP3    H235829   2.995   7.728   1.855
11962TIP3   OH235830   5.169   0.117   0.286
11962TIP3    H135831   5.226   0.168   0.343
11962TIP3    H235832   5.125   0.181   0.232
11963TIP3   OH235833   3.115   5.682   2.830
11963TIP3    H135834   3.140   5.773   2.813
11963TIP3    H235835   3.020   5.685   2.841
11964TIP3   OH235836   2.292   2.944   2.609
11964TIP3    H135837   2.291   3.037   2.589
11964TIP3    H235838   2.202   2.916   2.595
11965TIP3   OH235839   7.764   0.934   5.567
11965TIP3    H135840   7.684   0.950   5.617
11965TIP3    H235841   7.748   0.973   5.482
11966TIP3   OH235842   7.599   1.681   3.997
11966TIP3    H135843   7.644   1.604   3.962
11966TIP3    H235844   7.610   1.748   3.929
11967TIP3   OH235845   6.935   1.475   4.037
11967TIP3    H135846   6.974   1.395   4.073
11967TIP3    H235847   6.843   1.452   4.022
11968TIP3   OH235848   3.278   6.595   0.483
11968TIP3    H135849   3.285   6.563   0.393
11968TIP3    H235850   3.354   6.557   0.527
11969TIP3   OH235851   3.346   0.647   2.080
11969TIP3    H135852   3.371   0.663   2.171
11969TIP3    H235853   3.360   0.553   2.068
11970TIP3   OH235854   6.444   3.495   4.914
11970TIP3    H135855   6.483   3.570   4.959
11970TIP3    H235856   6.508   3.472   4.846
11971TIP3   OH235857   4.903   0.496   0.907
11971TIP3    H135858   4.955   0.486   0.828
11971TIP3    H235859   4.857   0.579   0.895
11972TIP3   OH235860   4.290   5.559   3.891
11972TIP3    H135861   4.324   5.470   3.878
11972TIP3    H235862   4.230   5.551   3.965
11973TIP3   OH235863   0.171   0.380   5.432
11973TIP3    H135864   0.213   0.297   5.410
11973TIP3    H235865   0.238   0.429   5.481
11974TIP3   OH235866   5.344   5.962   3.697
11974TIP3    H135867   5.383   5.885   3.738
11974TIP3    H235868   5.402   5.982   3.623
11975TIP3   OH235869   3.526   5.064   0.111
11975TIP3    H135870   3.576   5.119   0.171
11975TIP3    H235871   3.555   4.975   0.129
11976TIP3   OH235872   5.199   4.320   2.329
11976TIP3    H135873   5.273   4.293   2.384
11976TIP3    H235874   5.174   4.406   2.362
11977TIP3   OH235875   7.126   1.953   6.514
11977TIP3    H135876   7.113   2.018   6.445
11977TIP3    H235877   7.209   1.978   6.555
11978TIP3   OH235878   0.803   0.136   1.806
11978TIP3    H135879   0.827   0.163   1.895
11978TIP3    H235880   0.742   0.204   1.776
11979TIP3   OH235881   4.063   6.050   2.216
11979TIP3    H135882   3.984   6.032   2.165
11979TIP3    H235883   4.104   6.125   2.171
11980TIP3   OH235884   1.101   5.417   4.367
11980TIP3    H135885   1.151   5.336   4.375
11980TIP3    H235886   1.035   5.398   4.301
11981TIP3   OH235887   6.300   1.924   2.582
11981TIP3    H135888   6.322   1.996   2.640
11981TIP3    H235889   6.377   1.913   2.526
11982TIP3   OH235890   7.070   6.305   6.355
11982TIP3    H135891   7.145   6.245   6.355
11982TIP3    H235892   7.052   6.321   6.262
11983TIP3   OH235893   1.984   4.719   6.514
11983TIP3    H135894   1.906   4.677   6.479
11983TIP3    H235895   1.980   4.808   6.480
11984TIP3   OH235896   0.125   3.082   3.307
11984TIP3    H135897   0.136   3.047   3.219
11984TIP3    H235898   0.126   3.005   3.364
11985TIP3   OH235899   6.314   6.568   0.402
11985TIP3    H135900   6.359   6.647   0.433
11985TIP3    H235901   6.266   6.536   0.478
11986TIP3   OH235902   4.540   2.334   5.786
11986TIP3    H135903   4.455   2.307   5.752
11986TIP3    H235904   4.545   2.293   5.872
11987TIP3   OH235905   7.258   5.859   5.077
11987TIP3    H135906   7.337   5.911   5.066
11987TIP3    H235907   7.191   5.904   5.025
11988TIP3   OH235908   5.942   6.585   4.844
11988TIP3    H135909   6.018   6.580   4.786
11988TIP3    H235910   5.923   6.495   4.868
11989TIP3   OH235911   4.029   6.509   1.317
11989TIP3    H135912   4.025   6.579   1.253
11989TIP3    H235913   3.950   6.457   1.302
11990TIP3   OH235914   1.442   6.485   3.417
11990TIP3    H135915   1.375   6.445   3.361
11990TIP3    H235916   1.406   6.479   3.506
11991TIP3   OH235917   2.277   0.533   6.438
11991TIP3    H135918   2.214   0.603   6.423
11991TIP3    H235919   2.316   0.517   6.352
11992TIP3   OH235920   7.278   3.449   0.272
11992TIP3    H135921   7.305   3.377   0.215
11992TIP3    H235922   7.288   3.416   0.361
11993TIP3   OH235923   3.539   1.836   0.950
11993TIP3    H135924   3.599   1.803   0.883
11993TIP3    H235925   3.460   1.862   0.902
11994TIP3   OH235926   7.165   4.749   5.685
11994TIP3    H135927   7.227   4.781   5.750
11994TIP3    H235928   7.206   4.768   5.601
11995TIP3   OH235929   4.188   3.902   3.378
11995TIP3    H135930   4.127   3.854   3.434
11995TIP3    H235931   4.182   3.992   3.409
11996TIP3   OH235932   7.145   7.018   0.124
11996TIP3    H135933   7.182   6.931   0.128
11996TIP3    H235934   7.218   7.075   0.098
11997TIP3   OH235935   5.754   2.718   0.657
11997TIP3    H135936   5.706   2.756   0.731
11997TIP3    H235937   5.687   2.699   0.592
11998TIP3   OH235938   3.954   4.220   3.703
11998TIP3    H135939   4.036   4.212   3.751
11998TIP3    H235940   3.943   4.315   3.690
11999TIP3   OH235941   8.251   6.554   4.640
11999TIP3    H135942   8.157   6.541   4.658
11999TIP3    H235943   8.293   6.477   4.678
12000TIP3   OH235944   2.936   1.236   2.906
12000TIP3    H135945   2.925   1.209   2.998
12000TIP3    H235946   2.858   1.289   2.888
12001TIP3   OH235947   2.483   5.043   4.612
12001TIP3    H135948   2.467   5.119   4.668
12001TIP3    H235949   2.521   5.080   4.532
12002TIP3   OH235950   4.117   1.190   0.514
12002TIP3    H135951   4.187   1.125   0.509
12002TIP3    H235952   4.063   1.163   0.588
12003TIP3   OH235953   4.493   7.825   2.124
12003TIP3    H135954   4.510   7.746   2.073
12003TIP3    H235955   4.460   7.794   2.207
12004TIP3   OH235956   1.890   6.582   4.872
12004TIP3    H135957   1.910   6.666   4.913
12004TIP3    H235958   1.799   6.590   4.843
12005TIP3   OH235959   5.046   3.156   5.699
12005TIP3    H135960   5.042   3.217   5.625
12005TIP3    H235961   5.056   3.070   5.660
12006TIP3   OH235962   6.377   7.707   1.829
12006TIP3    H135963   6.462   7.695   1.872
12006TIP3    H235964   6.368   7.801   1.818
12007TIP3   OH235965   5.381   2.966   2.117
12007TIP3    H135966   5.386   2.998   2.027
12007TIP3    H235967   5.299   3.002   2.150
12008TIP3   OH235968   7.356   6.858   5.659
12008TIP3    H135969   7.405   6.823   5.584
12008TIP3    H235970   7.320   6.941   5.627
12009TIP3   OH235971   5.105   5.738   3.355
12009TIP3    H135972   5.011   5.722   3.345
12009TIP3    H235973   5.111   5.799   3.429
12010TIP3   OH235974   8.175   0.992   4.322
12010TIP3    H135975   8.110   0.947   4.268
12010TIP3    H235976   8.195   0.930   4.392
12011TIP3   OH235977   1.204   0.946   5.487
12011TIP3    H135978   1.117   0.909   5.475
12011TIP3    H235979   1.196   1.003   5.563
12012TIP3   OH235980   2.117   1.025   3.223
12012TIP3    H135981   2.065   1.056   3.149
12012TIP3    H235982   2.079   1.069   3.299
12013TIP3   OH235983   0.524   2.690   0.465
12013TIP3    H135984   0.595   2.716   0.406
12013TIP3    H235985   0.456   2.656   0.407
12014TIP3   OH235986   7.295   7.436   1.976
12014TIP3    H135987   7.299   7.354   1.927
12014TIP3    H235988   7.317   7.503   1.912
12015TIP3   OH235989   3.627   0.788   3.277
12015TIP3    H135990   3.615   0.787   3.372
12015TIP3    H235991   3.547   0.825   3.242
12016TIP3   OH235992   7.050   6.496   4.796
12016TIP3    H135993   7.071   6.581   4.757
12016TIP3    H235994   7.091   6.498   4.882
12017TIP3   OH235995   0.788   4.295   1.479
12017TIP3    H135996   0.720   4.229   1.461
12017TIP3    H235997   0.860   4.272   1.420
12018TIP3   OH235998   0.581   3.268   0.517
12018TIP3    H135999   0.498   3.219   0.515
12018TIP3    H236000   0.637   3.223   0.454
12019TIP3   OH236001   4.083   3.267   1.984
12019TIP3    H136002   4.056   3.213   1.910
12019TIP3    H236003   4.044   3.353   1.967
12020TIP3   OH236004   4.424   2.290   3.108
12020TIP3    H136005   4.339   2.264   3.075
12020TIP3    H236006   4.407   2.371   3.157
12021TIP3   OH236007   2.992   5.599   4.837
12021TIP3    H136008   2.983   5.590   4.932
12021TIP3    H236009   3.060   5.666   4.825
12022TIP3   OH236010   1.275   2.326   2.680
12022TIP3    H136011   1.211   2.285   2.622
12022TIP3    H236012   1.223   2.354   2.756
12023TIP3   OH236013   1.013   7.753   6.603
12023TIP3    H136014   1.027   7.738   6.697
12023TIP3    H236015   1.015   7.848   6.594
12024TIP3   OH236016   5.048   4.755   4.638
12024TIP3    H136017   5.128   4.720   4.599
12024TIP3    H236018   5.043   4.714   4.724
12025TIP3   OH236019   3.515   5.643   3.358
12025TIP3    H136020   3.442   5.677   3.307
12025TIP3    H236021   3.578   5.613   3.292
12026TIP3   OH236022   3.061   2.004   0.452
12026TIP3    H136023   3.115   1.999   0.373
12026TIP3    H236024   3.045   1.913   0.475
12027TIP3   OH236025   0.460   0.684   3.771
12027TIP3    H136026   0.439   0.759   3.715
12027TIP3    H236027   0.528   0.716   3.829
12028TIP3   OH236028  -0.008   2.508   1.947
12028TIP3    H136029  -0.031   2.597   1.973
12028TIP3    H236030  -0.024   2.506   1.853
12029TIP3   OH236031   1.717   7.353   6.306
12029TIP3    H136032   1.638   7.359   6.359
12029TIP3    H236033   1.695   7.289   6.238
12030TIP3   OH236034   7.596   3.244   1.467
12030TIP3    H136035   7.519   3.193   1.447
12030TIP3    H236036   7.578   3.284   1.552
12031TIP3   OH236037   5.071   5.061   4.067
12031TIP3    H136038   5.054   5.056   3.973
12031TIP3    H236039   4.992   5.025   4.107
12032TIP3   OH236040   7.007   4.647   0.656
12032TIP3    H136041   6.956   4.704   0.600
12032TIP3    H236042   7.044   4.706   0.722
12033TIP3   OH236043   3.959   0.841   4.185
12033TIP3    H136044   4.011   0.910   4.227
12033TIP3    H236045   3.929   0.881   4.104
12034TIP3   OH236046   1.888   1.709   3.400
12034TIP3    H136047   1.901   1.750   3.315
12034TIP3    H236048   1.816   1.757   3.440
12035TIP3   OH236049   7.080   1.995   1.940
12035TIP3    H136050   7.017   2.057   1.904
12035TIP3    H236051   7.028   1.917   1.960
12036TIP3   OH236052   4.109   1.881   6.775
12036TIP3    H136053   4.016   1.864   6.759
12036TIP3    H236054   4.144   1.903   6.689
12037TIP3   OH236055   3.769   5.282   4.723
12037TIP3    H136056   3.808   5.366   4.749
12037TIP3    H236057   3.724   5.251   4.802
12038TIP3   OH236058   3.633   7.010   4.988
12038TIP3    H136059   3.674   7.032   5.071
12038TIP3    H236060   3.647   6.916   4.978
12039TIP3   OH236061   5.467   2.097   5.767
12039TIP3    H136062   5.386   2.083   5.816
12039TIP3    H236063   5.484   2.191   5.775
12040TIP3   OH236064   7.469   6.608   2.148
12040TIP3    H136065   7.495   6.601   2.240
12040TIP3    H236066   7.415   6.686   2.144
12041TIP3   OH236067   0.501   3.597   5.033
12041TIP3    H136068   0.565   3.644   4.979
12041TIP3    H236069   0.477   3.521   4.980
12042TIP3   OH236070   4.337   5.176   5.353
12042TIP3    H136071   4.369   5.124   5.279
12042TIP3    H236072   4.402   5.163   5.422
12043TIP3   OH236073   4.866   7.431   3.528
12043TIP3    H136074   4.858   7.378   3.607
12043TIP3    H236075   4.926   7.502   3.553
12044TIP3   OH236076   8.045   0.463   3.046
12044TIP3    H136077   8.014   0.376   3.071
12044TIP3    H236078   8.104   0.489   3.117
12045TIP3   OH236079   2.997   5.361   3.469
12045TIP3    H136080   3.037   5.447   3.475
12045TIP3    H236081   3.041   5.318   3.396
12046TIP3   OH236082   6.943   1.410   3.556
12046TIP3    H136083   6.956   1.501   3.529
12046TIP3    H236084   6.940   1.361   3.474
12047TIP3   OH236085   3.727   3.483   1.062
12047TIP3    H136086   3.727   3.418   0.992
12047TIP3    H236087   3.798   3.455   1.120
12048TIP3   OH236088   6.559   4.025   1.263
12048TIP3    H136089   6.554   3.979   1.179
12048TIP3    H236090   6.644   4.002   1.299
12049TIP3   OH236091   5.403   7.629   5.067
12049TIP3    H136092   5.355   7.675   5.136
12049TIP3    H236093   5.492   7.664   5.072
12050TIP3   OH236094   2.708   5.922   2.093
12050TIP3    H136095   2.647   5.853   2.121
12050TIP3    H236096   2.763   5.938   2.169
12051TIP3   OH236097   3.634   6.390   1.959
12051TIP3    H136098   3.651   6.317   1.899
12051TIP3    H236099   3.716   6.439   1.962
12052TIP3   OH236100   3.986   3.003   0.979
12052TIP3    H136101   3.988   2.937   1.047
12052TIP3    H236102   4.070   2.994   0.933
12053TIP3   OH236103   2.433   6.154   4.750
12053TIP3    H136104   2.511   6.145   4.805
12053TIP3    H236105   2.370   6.199   4.806
12054TIP3   OH236106   1.221   3.667   4.448
12054TIP3    H136107   1.158   3.622   4.392
12054TIP3    H236108   1.221   3.757   4.416
12055TIP3   OH236109   6.186   6.425   5.583
12055TIP3    H136110   6.153   6.373   5.509
12055TIP3    H236111   6.249   6.367   5.626
12056TIP3   OH236112   4.496   6.380   6.398
12056TIP3    H136113   4.561   6.311   6.410
12056TIP3    H236114   4.548   6.460   6.392
12057TIP3   OH236115   7.516   2.984   5.325
12057TIP3    H136116   7.488   3.050   5.261
12057TIP3    H236117   7.589   2.939   5.282
12058TIP3   OH236118   8.165   3.130   0.097
12058TIP3    H136119   8.089   3.181   0.072
12058TIP3    H236120   8.190   3.083   0.017
12059TIP3   OH236121   7.767   3.075   5.737
12059TIP3    H136122   7.694   3.046   5.793
12059TIP3    H236123   7.758   3.170   5.733
12060TIP3   OH236124   3.853   5.555   0.359
12060TIP3    H136125   3.888   5.610   0.429
12060TIP3    H236126   3.900   5.472   0.369
12061TIP3   OH236127   6.346   7.386   5.446
12061TIP3    H136128   6.306   7.395   5.532
12061TIP3    H236129   6.344   7.292   5.428
12062TIP3   OH236130   7.048   6.448   0.253
12062TIP3    H136131   6.964   6.489   0.273
12062TIP3    H236132   7.087   6.430   0.338
12063TIP3   OH236133   5.827   1.185   4.438
12063TIP3    H136134   5.792   1.128   4.507
12063TIP3    H236135   5.913   1.146   4.417
12064TIP3   OH236136   0.248   4.294   4.133
12064TIP3    H136137   0.247   4.298   4.037
12064TIP3    H236138   0.338   4.316   4.157
12065TIP3   OH236139   3.534   6.725   5.217
12065TIP3    H136140   3.514   6.661   5.148
12065TIP3    H236141   3.628   6.740   5.209
12066TIP3   OH236142   1.852   6.594   0.036
12066TIP3    H136143   1.859   6.640   0.120
12066TIP3    H236144   1.939   6.601  -0.003
12067TIP3   OH236145   2.578   3.396   5.930
12067TIP3    H136146   2.579   3.492   5.921
12067TIP3    H236147   2.592   3.364   5.841
12068TIP3   OH236148   3.078   4.366   3.499
12068TIP3    H136149   2.990   4.404   3.487
12068TIP3    H236150   3.136   4.424   3.450
12069TIP3   OH236151   0.093   3.066   0.842
12069TIP3    H136152   0.039   3.135   0.881
12069TIP3    H236153   0.182   3.100   0.845
12070TIP3   OH236154   2.821   2.738   6.698
12070TIP3    H136155   2.792   2.769   6.783
12070TIP3    H236156   2.826   2.642   6.708
12071TIP3   OH236157   4.259   0.083   4.702
12071TIP3    H136158   4.313   0.145   4.653
12071TIP3    H236159   4.319   0.014   4.730
12072TIP3   OH236160   6.422   2.027   5.469
12072TIP3    H136161   6.471   2.031   5.387
12072TIP3    H236162   6.331   2.019   5.441
12073TIP3   OH236163   2.213   3.456   2.898
12073TIP3    H136164   2.163   3.464   2.979
12073TIP3    H236165   2.253   3.542   2.886
12074TIP3   OH236166   1.419   1.811   5.814
12074TIP3    H136167   1.436   1.893   5.767
12074TIP3    H236168   1.477   1.747   5.772
12075TIP3   OH236169   3.233   4.290   5.532
12075TIP3    H136170   3.195   4.351   5.469
12075TIP3    H236171   3.240   4.207   5.484
12076TIP3   OH236172   1.183   4.587   5.617
12076TIP3    H136173   1.213   4.648   5.684
12076TIP3    H236174   1.196   4.635   5.535
12077TIP3   OH236175   6.493   2.837   1.987
12077TIP3    H136176   6.449   2.876   1.912
12077TIP3    H236177   6.559   2.779   1.950
12078TIP3   OH236178   6.018   6.466   5.265
12078TIP3    H136179   5.931   6.428   5.272
12078TIP3    H236180   6.078   6.393   5.284
12079TIP3   OH236181   5.801   0.539   4.261
12079TIP3    H136182   5.819   0.445   4.260
12079TIP3    H236183   5.734   0.551   4.328
12080TIP3   OH236184   5.311   7.542   4.614
12080TIP3    H136185   5.390   7.584   4.580
12080TIP3    H236186   5.307   7.458   4.568
12081TIP3   OH236187   1.004   7.674   1.212
12081TIP3    H136188   0.967   7.602   1.161
12081TIP3    H236189   0.954   7.673   1.294
12082TIP3   OH236190   2.389   2.950   4.523
12082TIP3    H136191   2.342   2.992   4.451
12082TIP3    H236192   2.474   2.994   4.526
12083TIP3   OH236193   5.353   1.310   0.650
12083TIP3    H136194   5.270   1.272   0.682
12083TIP3    H236195   5.417   1.240   0.664
12084TIP3   OH236196   3.219   3.269   4.616
12084TIP3    H136197   3.280   3.235   4.681
12084TIP3    H236198   3.169   3.336   4.663
12085TIP3   OH236199   5.731   2.101   5.817
12085TIP3    H136200   5.773   2.015   5.817
12085TIP3    H236201   5.637   2.082   5.816
12086TIP3   OH236202   0.465   5.613   6.450
12086TIP3    H136203   0.440   5.529   6.410
12086TIP3    H236204   0.541   5.592   6.504
12087TIP3   OH236205   3.927   3.259   5.584
12087TIP3    H136206   3.995   3.294   5.641
12087TIP3    H236207   3.858   3.325   5.587
12088TIP3   OH236208   4.458   3.792   0.555
12088TIP3    H136209   4.390   3.794   0.624
12088TIP3    H236210   4.473   3.699   0.540
12089TIP3   OH236211   7.362   5.342   3.821
12089TIP3    H136212   7.277   5.346   3.776
12089TIP3    H236213   7.396   5.255   3.800
12090TIP3   OH236214   6.189   2.074   0.934
12090TIP3    H136215   6.251   2.009   0.968
12090TIP3    H236216   6.118   2.023   0.896
12091TIP3   OH236217   2.593   2.392   5.513
12091TIP3    H136218   2.611   2.446   5.436
12091TIP3    H236219   2.635   2.308   5.494
12092TIP3   OH236220   3.647   2.949   0.623
12092TIP3    H136221   3.614   2.868   0.662
12092TIP3    H236222   3.740   2.951   0.646
12093TIP3   OH236223  -0.009   2.308   3.132
12093TIP3    H136224   0.033   2.272   3.054
12093TIP3    H236225   0.052   2.375   3.164
12094TIP3   OH236226   5.387   6.632   4.044
12094TIP3    H136227   5.356   6.645   3.955
12094TIP3    H236228   5.311   6.597   4.091
12095TIP3   OH236229   7.761   7.561   3.541
12095TIP3    H136230   7.678   7.517   3.523
12095TIP3    H236231   7.739   7.654   3.542
12096TIP3   OH236232   8.168   2.267   6.514
12096TIP3    H136233   8.147   2.215   6.591
12096TIP3    H236234   8.084   2.280   6.470
12097TIP3   OH236235   3.838   7.273   2.029
12097TIP3    H136236   3.868   7.277   1.938
12097TIP3    H236237   3.839   7.180   2.051
12098TIP3   OH236238   7.635   4.118   5.853
12098TIP3    H136239   7.584   4.040   5.874
12098TIP3    H236240   7.692   4.130   5.929
12099TIP3   OH236241   1.770   0.294   0.272
12099TIP3    H136242   1.775   0.320   0.364
12099TIP3    H236243   1.693   0.237   0.267
12100TIP3   OH236244   7.248   5.621   5.723
12100TIP3    H136245   7.226   5.705   5.764
12100TIP3    H236246   7.239   5.557   5.794
12101TIP3   OH236247   5.054   6.868   4.590
12101TIP3    H136248   4.977   6.923   4.575
12101TIP3    H236249   5.025   6.801   4.652
12102TIP3   OH236250   1.888   0.122   4.162
12102TIP3    H136251   1.894   0.053   4.228
12102TIP3    H236252   1.800   0.159   4.175
12103TIP3   OH236253   0.549   5.276   2.314
12103TIP3    H136254   0.579   5.235   2.396
12103TIP3    H236255   0.601   5.235   2.246
12104TIP3   OH236256   7.666   1.536   1.287
12104TIP3    H136257   7.581   1.569   1.258
12104TIP3    H236258   7.710   1.613   1.323
12105TIP3   OH236259   6.545   2.204   1.151
12105TIP3    H136260   6.581   2.115   1.158
12105TIP3    H236261   6.617   2.261   1.179
12106TIP3   OH236262   7.111   6.375   4.558
12106TIP3    H136263   7.081   6.395   4.646
12106TIP3    H236264   7.196   6.418   4.550
12107TIP3   OH236265   2.326   1.613   2.211
12107TIP3    H136266   2.294   1.634   2.123
12107TIP3    H236267   2.329   1.518   2.213
12108TIP3   OH236268   3.334   4.942   4.502
12108TIP3    H136269   3.345   4.921   4.409
12108TIP3    H236270   3.250   4.989   4.505
12109TIP3   OH236271   6.018   0.805   3.047
12109TIP3    H136272   5.953   0.808   3.117
12109TIP3    H236273   6.011   0.889   3.003
12110TIP3   OH236274   1.542   4.657   4.754
12110TIP3    H136275   1.474   4.605   4.711
12110TIP3    H236276   1.519   4.748   4.735
12111TIP3   OH236277   4.511   6.481   6.697
12111TIP3    H136278   4.486   6.392   6.721
12111TIP3    H236279   4.575   6.506   6.764
12112TIP3   OH236280   4.050   6.505   2.564
12112TIP3    H136281   4.078   6.556   2.488
12112TIP3    H236282   3.984   6.560   2.607
12113TIP3   OH236283   6.365   6.276   2.715
12113TIP3    H136284   6.363   6.350   2.776
12113TIP3    H236285   6.300   6.215   2.750
12114TIP3   OH236286   1.766   7.497   2.555
12114TIP3    H136287   1.777   7.509   2.461
12114TIP3    H236288   1.818   7.566   2.596
12115TIP3   OH236289   0.028   2.347   2.335
12115TIP3    H136290   0.028   2.434   2.296
12115TIP3    H236291   0.069   2.358   2.420
12116TIP3   OH236292   1.505   5.350   1.876
12116TIP3    H136293   1.434   5.383   1.821
12116TIP3    H236294   1.513   5.258   1.852
12117TIP3   OH236295   6.411   1.303   3.073
12117TIP3    H136296   6.353   1.374   3.101
12117TIP3    H236297   6.500   1.337   3.089
12118TIP3   OH236298   4.501   0.203   1.556
12118TIP3    H136299   4.521   0.127   1.501
12118TIP3    H236300   4.406   0.200   1.567
12119TIP3   OH236301   7.381   7.743   1.317
12119TIP3    H136302   7.331   7.670   1.353
12119TIP3    H236303   7.462   7.744   1.368
12120TIP3   OH236304   5.608   1.425   1.570
12120TIP3    H136305   5.603   1.374   1.651
12120TIP3    H236306   5.612   1.360   1.501
12121TIP3   OH236307   5.635   2.883   4.450
12121TIP3    H136308   5.559   2.929   4.414
12121TIP3    H236309   5.710   2.934   4.419
12122TIP3   OH236310   2.371   7.298   3.925
12122TIP3    H136311   2.300   7.300   3.989
12122TIP3    H236312   2.397   7.390   3.915
12123TIP3   OH236313   1.297   2.342   3.790
12123TIP3    H136314   1.288   2.269   3.728
12123TIP3    H236315   1.381   2.381   3.768
12124TIP3   OH236316   7.570   3.324   1.746
12124TIP3    H136317   7.503   3.391   1.734
12124TIP3    H236318   7.573   3.308   1.840
12125TIP3   OH236319   2.483   6.545   4.584
12125TIP3    H136320   2.410   6.593   4.622
12125TIP3    H236321   2.474   6.560   4.490
12126TIP3   OH236322   4.454   2.152   6.399
12126TIP3    H136323   4.470   2.239   6.435
12126TIP3    H236324   4.542   2.117   6.381
12127TIP3   OH236325   2.519   5.538   6.581
12127TIP3    H136326   2.464   5.567   6.508
12127TIP3    H236327   2.457   5.501   6.644
12128TIP3   OH236328   2.561   0.774   4.615
12128TIP3    H136329   2.553   0.742   4.705
12128TIP3    H236330   2.647   0.815   4.611
12129TIP3   OH236331   6.035   7.099   5.862
12129TIP3    H136332   6.008   7.048   5.785
12129TIP3    H236333   5.953   7.131   5.900
12130TIP3   OH236334   4.874   4.782   3.896
12130TIP3    H136335   4.943   4.796   3.961
12130TIP3    H236336   4.871   4.686   3.886
12131TIP3   OH236337   5.766   3.530   2.189
12131TIP3    H136338   5.685   3.560   2.148
12131TIP3    H236339   5.820   3.500   2.116
12132TIP3   OH236340   2.643   3.067   1.126
12132TIP3    H136341   2.603   3.133   1.182
12132TIP3    H236342   2.574   3.003   1.110
12133TIP3   OH236343   2.341   4.215   1.628
12133TIP3    H136344   2.345   4.252   1.540
12133TIP3    H236345   2.432   4.200   1.652
12134TIP3   OH236346   2.854   3.643   5.557
12134TIP3    H136347   2.777   3.595   5.527
12134TIP3    H236348   2.906   3.657   5.477
12135TIP3   OH236349   3.356   6.195   6.087
12135TIP3    H136350   3.319   6.268   6.138
12135TIP3    H236351   3.393   6.236   6.009
12136TIP3   OH236352   0.331   4.723   5.468
12136TIP3    H136353   0.280   4.646   5.492
12136TIP3    H236354   0.274   4.797   5.486
12137TIP3   OH236355   1.044   1.854   5.793
12137TIP3    H136356   1.121   1.841   5.848
12137TIP3    H236357   1.032   1.949   5.790
12138TIP3   OH236358   8.079   6.426   2.380
12138TIP3    H136359   8.016   6.369   2.336
12138TIP3    H236360   8.159   6.418   2.328
12139TIP3   OH236361   1.238   3.919   5.534
12139TIP3    H136362   1.328   3.885   5.544
12139TIP3    H236363   1.204   3.874   5.457
12140TIP3   OH236364   0.839   7.420   1.554
12140TIP3    H136365   0.744   7.423   1.565
12140TIP3    H236366   0.866   7.338   1.594
12141TIP3   OH236367   0.988   4.065   4.829
12141TIP3    H136368   0.916   4.117   4.794
12141TIP3    H236369   1.012   4.005   4.758
12142TIP3   OH236370   2.503   6.446   0.929
12142TIP3    H136371   2.548   6.472   1.010
12142TIP3    H236372   2.434   6.511   0.919
12143TIP3   OH236373   5.348   4.859   1.432
12143TIP3    H136374   5.367   4.912   1.509
12143TIP3    H236375   5.333   4.923   1.362
12144TIP3   OH236376   2.776   3.000   0.139
12144TIP3    H136377   2.743   2.933   0.079
12144TIP3    H236378   2.699   3.053   0.160
12145TIP3   OH236379   5.250   3.124   4.130
12145TIP3    H136380   5.291   3.074   4.059
12145TIP3    H236381   5.181   3.174   4.088
12146TIP3   OH236382   2.488   1.746   1.551
12146TIP3    H136383   2.448   1.665   1.517
12146TIP3    H236384   2.491   1.804   1.475
12147TIP3   OH236385   3.305   2.203   3.377
12147TIP3    H136386   3.342   2.241   3.457
12147TIP3    H236387   3.304   2.275   3.314
12148TIP3   OH236388   7.712   3.738   1.322
12148TIP3    H136389   7.715   3.833   1.335
12148TIP3    H236390   7.619   3.717   1.321
12149TIP3   OH236391   5.922   4.538   1.241
12149TIP3    H136392   5.905   4.567   1.330
12149TIP3    H236393   6.017   4.545   1.231
12150TIP3   OH236394   0.999   3.858   0.172
12150TIP3    H136395   0.950   3.813   0.102
12150TIP3    H236396   0.933   3.913   0.215
12151TIP3   OH236397   4.172   1.738   4.913
12151TIP3    H136398   4.238   1.779   4.969
12151TIP3    H236399   4.223   1.683   4.853
12152TIP3   OH236400   1.141   4.870   6.270
12152TIP3    H136401   1.222   4.819   6.269
12152TIP3    H236402   1.089   4.832   6.199
12153TIP3   OH236403   7.006   7.023   1.265
12153TIP3    H136404   7.032   6.940   1.305
12153TIP3    H236405   6.984   7.080   1.339
12154TIP3   OH236406   3.915   0.388   4.786
12154TIP3    H136407   3.929   0.483   4.785
12154TIP3    H236408   3.989   0.354   4.836
12155TIP3   OH236409   7.186   7.209   3.038
12155TIP3    H136410   7.116   7.213   3.103
12155TIP3    H236411   7.196   7.299   3.007
12156TIP3   OH236412   3.686   5.904   0.090
12156TIP3    H136413   3.739   5.824   0.082
12156TIP3    H236414   3.637   5.892   0.171
12157TIP3   OH236415   5.983   3.753   0.343
12157TIP3    H136416   6.074   3.757   0.372
12157TIP3    H236417   5.931   3.770   0.422
12158TIP3   OH236418   5.976   5.280   6.625
12158TIP3    H136419   5.991   5.318   6.711
12158TIP3    H236420   5.899   5.224   6.636
12159TIP3   OH236421   2.381   5.026   5.883
12159TIP3    H136422   2.425   4.942   5.875
12159TIP3    H236423   2.452   5.091   5.880
12160TIP3   OH236424   2.328   5.283   2.902
12160TIP3    H136425   2.279   5.207   2.934
12160TIP3    H236426   2.398   5.295   2.967
12161TIP3   OH236427   6.456   4.714   1.788
12161TIP3    H136428   6.551   4.714   1.775
12161TIP3    H236429   6.422   4.757   1.709
12162TIP3   OH236430   1.077   1.920   0.791
12162TIP3    H136431   1.082   2.011   0.819
12162TIP3    H236432   1.046   1.924   0.701
12163TIP3   OH236433   6.316   7.038   0.972
12163TIP3    H136434   6.341   7.077   0.889
12163TIP3    H236435   6.234   6.992   0.954
12164TIP3   OH236436   5.447   3.387   6.671
12164TIP3    H136437   5.518   3.331   6.702
12164TIP3    H236438   5.449   3.378   6.576
12165TIP3   OH236439   7.261   5.600   2.863
12165TIP3    H136440   7.348   5.637   2.849
12165TIP3    H236441   7.218   5.660   2.924
12166TIP3   OH236442   3.916   3.207   0.297
12166TIP3    H136443   3.916   3.152   0.219
12166TIP3    H236444   3.828   3.196   0.334
12167TIP3   OH236445   3.526   1.790   2.003
12167TIP3    H136446   3.574   1.871   2.021
12167TIP3    H236447   3.451   1.819   1.950
12168TIP3   OH236448   2.298   4.124   5.204
12168TIP3    H136449   2.363   4.112   5.134
12168TIP3    H236450   2.305   4.044   5.257
12169TIP3   OH236451   1.382   6.309   0.243
12169TIP3    H136452   1.293   6.340   0.226
12169TIP3    H236453   1.378   6.275   0.333
12170TIP3   OH236454   6.059   0.419   0.603
12170TIP3    H136455   6.008   0.346   0.569
12170TIP3    H236456   6.014   0.446   0.683
12171TIP3   OH236457   5.011   6.459   3.655
12171TIP3    H136458   5.041   6.397   3.721
12171TIP3    H236459   5.085   6.468   3.595
12172TIP3   OH236460   3.812   1.690   2.561
12172TIP3    H136461   3.881   1.673   2.498
12172TIP3    H236462   3.843   1.766   2.610
12173TIP3   OH236463   2.934   5.582   6.683
12173TIP3    H136464   2.914   5.493   6.653
12173TIP3    H236465   2.886   5.639   6.623
12174TIP3   OH236466   6.200   4.569   1.864
12174TIP3    H136467   6.197   4.567   1.959
12174TIP3    H236468   6.279   4.619   1.844
12175TIP3   OH236469   6.209   5.082   5.267
12175TIP3    H136470   6.268   5.157   5.255
12175TIP3    H236471   6.142   5.093   5.200
12176TIP3   OH236472   4.502   3.551   5.436
12176TIP3    H136473   4.467   3.623   5.489
12176TIP3    H236474   4.457   3.558   5.352
12177TIP3   OH236475   3.751   7.772   2.597
12177TIP3    H136476   3.802   7.842   2.639
12177TIP3    H236477   3.734   7.804   2.508
12178TIP3   OH236478   5.325   4.427   5.142
12178TIP3    H136479   5.273   4.504   5.164
12178TIP3    H236480   5.379   4.411   5.220
12179TIP3   OH236481   7.580   2.000   4.929
12179TIP3    H136482   7.560   1.936   4.860
12179TIP3    H236483   7.570   1.950   5.010
12180TIP3   OH236484   3.726   7.263   3.018
12180TIP3    H136485   3.798   7.224   2.969
12180TIP3    H236486   3.727   7.355   2.993
12181TIP3   OH236487   2.078   6.229   4.558
12181TIP3    H136488   2.098   6.263   4.470
12181TIP3    H236489   2.065   6.307   4.612
12182TIP3   OH236490   6.325   5.248   0.369
12182TIP3    H136491   6.301   5.157   0.387
12182TIP3    H236492   6.286   5.267   0.283
12183TIP3   OH236493   2.719   7.483   0.225
12183TIP3    H136494   2.729   7.395   0.259
12183TIP3    H236495   2.656   7.525   0.283
12184TIP3   OH236496   7.965   7.127   5.817
12184TIP3    H136497   8.059   7.126   5.799
12184TIP3    H236498   7.958   7.095   5.907
12185TIP3   OH236499   1.472   5.706   4.336
12185TIP3    H136500   1.526   5.729   4.412
12185TIP3    H236501   1.420   5.785   4.320
12186TIP3   OH236502   7.398   3.520   3.998
12186TIP3    H136503   7.420   3.439   4.044
12186TIP3    H236504   7.480   3.546   3.956
12187TIP3   OH236505   1.634   5.089   3.853
12187TIP3    H136506   1.552   5.133   3.877
12187TIP3    H236507   1.668   5.058   3.937
12188TIP3   OH236508   5.490   5.859   1.485
12188TIP3    H136509   5.554   5.800   1.526
12188TIP3    H236510   5.530   5.946   1.491
12189TIP3   OH236511   5.979   5.214   3.969
12189TIP3    H136512   6.029   5.218   4.050
12189TIP3    H236513   5.961   5.120   3.957
12190TIP3   OH236514   4.318   3.263   0.261
12190TIP3    H136515   4.270   3.346   0.265
12190TIP3    H236516   4.269   3.203   0.316
12191TIP3   OH236517   5.452   0.388   3.810
12191TIP3    H136518   5.542   0.362   3.828
12191TIP3    H236519   5.455   0.483   3.802
12192TIP3   OH236520   4.045   1.667   4.126
12192TIP3    H136521   4.104   1.635   4.058
12192TIP3    H236522   4.001   1.742   4.087
12193TIP3   OH236523   5.496   3.454   4.898
12193TIP3    H136524   5.487   3.422   4.987
12193TIP3    H236525   5.406   3.466   4.867
12194TIP3   OH236526   2.151   3.043   5.309
12194TIP3    H136527   2.229   3.070   5.262
12194TIP3    H236528   2.178   3.039   5.401
12195TIP3   OH236529   3.533   3.076   2.372
12195TIP3    H136530   3.536   3.152   2.314
12195TIP3    H236531   3.625   3.053   2.387
12196TIP3   OH236532   4.655   7.068   1.035
12196TIP3    H136533   4.614   6.983   1.054
12196TIP3    H236534   4.631   7.086   0.945
12197TIP3   OH236535   5.567   3.971   4.797
12197TIP3    H136536   5.558   3.900   4.860
12197TIP3    H236537   5.477   3.995   4.774
12198TIP3   OH236538   6.413   3.763   5.722
12198TIP3    H136539   6.491   3.719   5.689
12198TIP3    H236540   6.341   3.723   5.674
12199TIP3   OH236541   4.772   5.418   1.135
12199TIP3    H136542   4.778   5.462   1.220
12199TIP3    H236543   4.863   5.401   1.110
12200TIP3   OH236544   3.153   5.706   6.384
12200TIP3    H136545   3.064   5.691   6.354
12200TIP3    H236546   3.208   5.669   6.315
12201TIP3   OH236547   5.497   3.208   1.076
12201TIP3    H136548   5.460   3.252   0.999
12201TIP3    H236549   5.577   3.256   1.095
12202TIP3   OH236550   5.149   2.105   3.485
12202TIP3    H136551   5.068   2.098   3.435
12202TIP3    H236552   5.201   2.029   3.459
12203TIP3   OH236553   7.681   3.961   1.914
12203TIP3    H136554   7.720   4.003   1.838
12203TIP3    H236555   7.613   4.022   1.943
12204TIP3   OH236556   6.606   5.486   1.446
12204TIP3    H136557   6.660   5.553   1.405
12204TIP3    H236558   6.669   5.424   1.484
12205TIP3   OH236559   7.921   4.138   5.067
12205TIP3    H136560   7.858   4.206   5.089
12205TIP3    H236561   7.896   4.064   5.122
12206TIP3   OH236562   4.689   0.486   0.612
12206TIP3    H136563   4.672   0.417   0.676
12206TIP3    H236564   4.609   0.539   0.612
12207TIP3   OH236565   7.407   7.736   3.873
12207TIP3    H136566   7.367   7.726   3.960
12207TIP3    H236567   7.436   7.827   3.870
12208TIP3   OH236568   1.985   0.853   1.131
12208TIP3    H136569   1.955   0.804   1.207
12208TIP3    H236570   2.073   0.883   1.154
12209TIP3   OH236571   6.273   3.469   0.240
12209TIP3    H136572   6.276   3.382   0.200
12209TIP3    H236573   6.304   3.528   0.171
12210TIP3   OH236574   8.068   2.804   1.812
12210TIP3    H136575   8.111   2.805   1.898
12210TIP3    H236576   8.138   2.825   1.750
12211TIP3   OH236577   3.768   3.109   6.036
12211TIP3    H136578   3.807   3.189   6.068
12211TIP3    H236579   3.833   3.041   6.053
12212TIP3   OH236580   1.267   1.693   6.539
12212TIP3    H136581   1.352   1.650   6.534
12212TIP3    H236582   1.213   1.633   6.591
12213TIP3   OH236583   5.806   0.842   4.452
12213TIP3    H136584   5.867   0.889   4.509
12213TIP3    H236585   5.858   0.771   4.415
12214TIP3   OH236586   6.837   4.532   3.070
12214TIP3    H136587   6.851   4.442   3.099
12214TIP3    H236588   6.776   4.525   2.996
12215TIP3   OH236589   5.024   5.932   2.293
12215TIP3    H136590   5.103   5.985   2.291
12215TIP3    H236591   4.989   5.942   2.381
12216TIP3   OH236592   1.340   3.573   1.614
12216TIP3    H136593   1.270   3.632   1.641
12216TIP3    H236594   1.400   3.629   1.565
12217TIP3   OH236595  -0.021   6.882   2.105
12217TIP3    H136596   0.045   6.876   2.036
12217TIP3    H236597   0.015   6.831   2.177
12218TIP3   OH236598   4.272   2.956   5.748
12218TIP3    H136599   4.328   2.971   5.671
12218TIP3    H236600   4.334   2.934   5.818
12219TIP3   OH236601   0.425   1.779   3.054
12219TIP3    H136602   0.369   1.811   3.124
12219TIP3    H236603   0.514   1.800   3.083
12220TIP3   OH236604   8.081   3.757   3.771
12220TIP3    H136605   8.138   3.703   3.717
12220TIP3    H236606   8.020   3.695   3.811
12221TIP3   OH236607   4.718   7.415   3.304
12221TIP3    H136608   4.770   7.425   3.384
12221TIP3    H236609   4.641   7.470   3.318
12222TIP3   OH236610   3.475   4.073   3.199
12222TIP3    H136611   3.433   4.064   3.113
12222TIP3    H236612   3.402   4.086   3.259
12223TIP3   OH236613   2.190   1.832   4.240
12223TIP3    H136614   2.261   1.885   4.204
12223TIP3    H236615   2.230   1.746   4.256
12224TIP3   OH236616   2.118   2.847   5.071
12224TIP3    H136617   2.066   2.884   5.000
12224TIP3    H236618   2.088   2.893   5.149
12225TIP3   OH236619   6.650   3.015   3.315
12225TIP3    H136620   6.622   3.056   3.234
12225TIP3    H236621   6.705   2.941   3.287
12226TIP3   OH236622   5.499   0.641   0.263
12226TIP3    H136623   5.511   0.721   0.315
12226TIP3    H236624   5.404   0.627   0.263
12227TIP3   OH236625   4.765   4.450   2.098
12227TIP3    H136626   4.731   4.428   2.011
12227TIP3    H236627   4.840   4.392   2.110
12228TIP3   OH236628   0.885   0.632   4.231
12228TIP3    H136629   0.904   0.640   4.325
12228TIP3    H236630   0.886   0.538   4.214
12229TIP3   OH236631   5.608   6.551   6.470
12229TIP3    H136632   5.702   6.540   6.458
12229TIP3    H236633   5.568   6.491   6.407
12230TIP3   OH236634   4.005   1.464   2.498
12230TIP3    H136635   4.068   1.404   2.538
12230TIP3    H236636   3.969   1.416   2.423
12231TIP3   OH236637   1.256   6.109   5.119
12231TIP3    H136638   1.192   6.135   5.185
12231TIP3    H236639   1.234   6.161   5.042
12232TIP3   OH236640   1.508   6.197   6.037
12232TIP3    H136641   1.510   6.123   5.976
12232TIP3    H236642   1.563   6.169   6.110
12233TIP3   OH236643   2.757   5.185   3.423
12233TIP3    H136644   2.781   5.105   3.376
12233TIP3    H236645   2.840   5.217   3.458
12234TIP3   OH236646   5.074   4.880   5.826
12234TIP3    H136647   5.075   4.973   5.801
12234TIP3    H236648   5.017   4.839   5.761
12235TIP3   OH236649   6.071   6.239   6.157
12235TIP3    H136650   6.058   6.146   6.176
12235TIP3    H236651   5.983   6.273   6.142
12236TIP3   OH236652   5.534   3.834   2.794
12236TIP3    H136653   5.549   3.803   2.705
12236TIP3    H236654   5.515   3.755   2.844
12237TIP3   OH236655   7.349   1.171   3.421
12237TIP3    H136656   7.370   1.108   3.352
12237TIP3    H236657   7.433   1.213   3.442
12238TIP3   OH236658   5.424   3.098   3.907
12238TIP3    H136659   5.464   3.013   3.888
12238TIP3    H236660   5.360   3.111   3.837
12239TIP3   OH236661   7.909   5.951   5.755
12239TIP3    H136662   7.974   5.899   5.802
12239TIP3    H236663   7.886   5.897   5.679
12240TIP3   OH236664   2.048   1.612   0.041
12240TIP3    H136665   2.037   1.657  -0.043
12240TIP3    H236666   1.985   1.539   0.037
12241TIP3   OH236667   4.956   6.612   6.213
12241TIP3    H136668   4.902   6.686   6.242
12241TIP3    H236669   4.915   6.584   6.131
12242TIP3   OH236670   3.853   3.515   1.871
12242TIP3    H136671   3.876   3.517   1.964
12242TIP3    H236672   3.760   3.536   1.869
12243TIP3   OH236673   7.859   5.950   6.376
12243TIP3    H136674   7.907   6.032   6.364
12243TIP3    H236675   7.831   5.926   6.288
12244TIP3   OH236676   6.539   5.512   3.750
12244TIP3    H136677   6.564   5.535   3.839
12244TIP3    H236678   6.620   5.519   3.699
12245TIP3   OH236679   6.457   5.135   1.660
12245TIP3    H136680   6.375   5.137   1.708
12245TIP3    H236681   6.442   5.190   1.583
12246TIP3   OH236682   7.465   3.588   3.580
12246TIP3    H136683   7.485   3.620   3.668
12246TIP3    H236684   7.388   3.532   3.592
12247TIP3   OH236685   5.038   0.128   2.327
12247TIP3    H136686   5.004   0.135   2.416
12247TIP3    H236687   5.075   0.040   2.321
12248TIP3   OH236688   3.918   5.966   0.411
12248TIP3    H136689   3.892   5.928   0.495
12248TIP3    H236690   3.981   5.904   0.375
12249TIP3   OH236691   0.043   0.155   0.021
12249TIP3    H136692   0.113   0.120   0.077
12249TIP3    H236693   0.005   0.077  -0.020
12250TIP3   OH236694   7.887   5.563   6.401
12250TIP3    H136695   7.982   5.569   6.390
12250TIP3    H236696   7.873   5.575   6.495
12251TIP3   OH236697   1.687   7.583   0.671
12251TIP3    H136698   1.600   7.620   0.655
12251TIP3    H236699   1.737   7.656   0.707
12252TIP3   OH236700   4.563   1.797   2.082
12252TIP3    H136701   4.475   1.770   2.108
12252TIP3    H236702   4.554   1.828   1.992
12253TIP3   OH236703   0.919   6.266   1.723
12253TIP3    H136704   0.959   6.224   1.799
12253TIP3    H236705   0.968   6.348   1.713
12254TIP3   OH236706   6.992   1.880   3.111
12254TIP3    H136707   7.030   1.855   3.195
12254TIP3    H236708   6.930   1.810   3.090
12255TIP3   OH236709   4.259   5.012   4.309
12255TIP3    H136710   4.301   5.063   4.378
12255TIP3    H236711   4.220   5.077   4.251
12256TIP3   OH236712   1.967   2.064   5.963
12256TIP3    H136713   1.967   1.988   6.021
12256TIP3    H236714   1.922   2.035   5.884
12257TIP3   OH236715   1.325   0.214   5.755
12257TIP3    H136716   1.329   0.121   5.732
12257TIP3    H236717   1.267   0.253   5.689
12258TIP3   OH236718   4.687   5.954   2.442
12258TIP3    H136719   4.757   5.980   2.501
12258TIP3    H236720   4.724   5.966   2.354
12259TIP3   OH236721   6.920   0.814   4.796
12259TIP3    H136722   6.989   0.754   4.765
12259TIP3    H236723   6.906   0.788   4.887
12260TIP3   OH236724   7.456   0.124   1.050
12260TIP3    H136725   7.417   0.054   0.998
12260TIP3    H236726   7.519   0.166   0.991
12261TIP3   OH236727   0.933   1.478   6.658
12261TIP3    H136728   0.988   1.532   6.714
12261TIP3    H236729   0.844   1.512   6.672
12262TIP3   OH236730   3.589   1.194   1.244
12262TIP3    H136731   3.634   1.138   1.180
12262TIP3    H236732   3.608   1.153   1.329
12263TIP3   OH236733   6.328   0.354   1.105
12263TIP3    H136734   6.287   0.379   1.188
12263TIP3    H236735   6.335   0.436   1.056
12264TIP3   OH236736   3.690   4.320   6.112
12264TIP3    H136737   3.672   4.410   6.139
12264TIP3    H236738   3.659   4.315   6.022
12265TIP3   OH236739   5.893   5.274   2.205
12265TIP3    H136740   5.981   5.310   2.214
12265TIP3    H236741   5.859   5.311   2.124
12266TIP3   OH236742   2.927   4.040   4.464
12266TIP3    H136743   2.969   4.051   4.379
12266TIP3    H236744   2.908   4.129   4.493
12267TIP3   OH236745   2.878   4.002   0.229
12267TIP3    H136746   2.875   3.938   0.301
12267TIP3    H236747   2.855   4.085   0.270
12268TIP3   OH236748   0.959   5.840   2.849
12268TIP3    H136749   0.984   5.755   2.886
12268TIP3    H236750   0.970   5.902   2.922
12269TIP3   OH236751   6.467   3.455   4.554
12269TIP3    H136752   6.530   3.524   4.531
12269TIP3    H236753   6.475   3.391   4.483
12270TIP3   OH236754   8.088   6.624   0.868
12270TIP3    H136755   8.140   6.667   0.936
12270TIP3    H236756   8.032   6.694   0.833
12271TIP3   OH236757   6.877   4.069   3.839
12271TIP3    H136758   6.791   4.058   3.800
12271TIP3    H236759   6.922   4.133   3.783
12272TIP3   OH236760   0.862   0.576   2.981
12272TIP3    H136761   0.919   0.652   2.997
12272TIP3    H236762   0.899   0.506   3.035
12273TIP3   OH236763   0.038   0.852   0.941
12273TIP3    H136764   0.087   0.789   0.994
12273TIP3    H236765  -0.049   0.813   0.932
12274TIP3   OH236766   7.716   3.810   0.810
12274TIP3    H136767   7.796   3.811   0.756
12274TIP3    H236768   7.668   3.733   0.779
12275TIP3   OH236769   4.978   0.643   4.858
12275TIP3    H136770   4.977   0.738   4.872
12275TIP3    H236771   4.892   0.614   4.888
12276TIP3   OH236772   2.399   5.672   4.910
12276TIP3    H136773   2.374   5.654   4.820
12276TIP3    H236774   2.461   5.745   4.903
12277TIP3   OH236775   6.993   0.179   0.454
12277TIP3    H136776   7.013   0.270   0.434
12277TIP3    H236777   6.897   0.176   0.462
12278TIP3   OH236778   5.280   5.560   2.557
12278TIP3    H136779   5.350   5.495   2.559
12278TIP3    H236780   5.280   5.592   2.466
12279TIP3   OH236781   4.165   7.110   0.039
12279TIP3    H136782   4.113   7.183   0.072
12279TIP3    H236783   4.246   7.114   0.089
12280TIP3   OH236784   7.569   4.911   6.263
12280TIP3    H136785   7.567   4.815   6.266
12280TIP3    H236786   7.529   4.938   6.345
12281TIP3   OH236787   5.898   7.420   1.459
12281TIP3    H136788   5.896   7.331   1.425
12281TIP3    H236789   5.916   7.409   1.553
12282TIP3   OH236790   5.638   4.600   1.719
12282TIP3    H136791   5.569   4.569   1.778
12282TIP3    H236792   5.655   4.527   1.660
12283TIP3   OH236793   4.527   2.756   1.485
12283TIP3    H136794   4.442   2.754   1.440
12283TIP3    H236795   4.564   2.842   1.463
12284TIP3   OH236796   5.828   1.774   4.512
12284TIP3    H136797   5.860   1.689   4.482
12284TIP3    H236798   5.746   1.787   4.464
12285TIP3   OH236799   6.206   5.070   4.744
12285TIP3    H136800   6.167   4.985   4.762
12285TIP3    H236801   6.241   5.098   4.828
12286TIP3   OH236802   7.974   4.965   2.633
12286TIP3    H136803   8.012   4.928   2.553
12286TIP3    H236804   7.912   4.899   2.663
12287TIP3   OH236805   2.138   2.796   1.695
12287TIP3    H136806   2.107   2.771   1.782
12287TIP3    H236807   2.077   2.865   1.667
12288TIP3   OH236808   3.801   2.418   2.179
12288TIP3    H136809   3.801   2.472   2.100
12288TIP3    H236810   3.721   2.441   2.225
12289TIP3   OH236811   3.285   4.061   1.925
12289TIP3    H136812   3.231   4.054   1.846
12289TIP3    H236813   3.355   3.998   1.911
12290TIP3   OH236814   1.640   4.758   1.821
12290TIP3    H136815   1.631   4.816   1.746
12290TIP3    H236816   1.552   4.751   1.858
12291TIP3   OH236817   5.673   4.683   1.393
12291TIP3    H136818   5.625   4.693   1.475
12291TIP3    H236819   5.644   4.599   1.359
12292TIP3   OH236820   4.096   7.007   6.709
12292TIP3    H136821   4.078   6.917   6.682
12292TIP3    H236822   4.180   7.028   6.669
12293TIP3   OH236823   5.508   5.371   2.546
12293TIP3    H136824   5.483   5.292   2.594
12293TIP3    H236825   5.603   5.375   2.553
12294TIP3   OH236826   2.092   0.140   2.711
12294TIP3    H136827   2.187   0.144   2.724
12294TIP3    H236828   2.056   0.196   2.780
12295TIP3   OH236829   4.072   3.376   0.158
12295TIP3    H136830   4.105   3.450   0.209
12295TIP3    H236831   4.007   3.336   0.214
12296TIP3   OH236832   1.880   7.123   4.000
12296TIP3    H136833   1.961   7.139   4.049
12296TIP3    H236834   1.906   7.134   3.908
12297TIP3   OH236835   4.784   3.880   4.853
12297TIP3    H136836   4.806   3.799   4.899
12297TIP3    H236837   4.766   3.852   4.763
12298TIP3   OH236838   4.072   3.283   5.968
12298TIP3    H136839   4.056   3.336   5.891
12298TIP3    H236840   4.065   3.192   5.936
12299TIP3   OH236841   2.611   7.679   0.839
12299TIP3    H136842   2.648   7.657   0.753
12299TIP3    H236843   2.677   7.647   0.902
12300TIP3   OH236844   3.954   6.930   5.011
12300TIP3    H136845   3.958   6.968   4.923
12300TIP3    H236846   4.044   6.932   5.043
12301TIP3   OH236847   3.495   0.894   6.681
12301TIP3    H136848   3.429   0.911   6.748
12301TIP3    H236849   3.560   0.839   6.725
12302TIP3   OH236850   2.666   4.534   0.300
12302TIP3    H136851   2.726   4.591   0.347
12302TIP3    H236852   2.722   4.485   0.240
12303TIP3   OH236853   3.130   5.585   3.511
12303TIP3    H136854   3.153   5.670   3.473
12303TIP3    H236855   3.214   5.540   3.522
12304TIP3   OH236856   6.900   2.566   6.060
12304TIP3    H136857   6.880   2.652   6.096
12304TIP3    H236858   6.996   2.564   6.056
12305TIP3   OH236859   2.629   1.288   2.277
12305TIP3    H136860   2.648   1.380   2.294
12305TIP3    H236861   2.666   1.272   2.190
12306TIP3   OH236862   4.406   3.917   1.157
12306TIP3    H136863   4.385   3.911   1.250
12306TIP3    H236864   4.469   3.847   1.142
12307TIP3   OH236865   1.070   5.224   2.354
12307TIP3    H136866   0.987   5.189   2.384
12307TIP3    H236867   1.090   5.295   2.415
12308TIP3   OH236868   0.843   5.153   4.820
12308TIP3    H136869   0.797   5.111   4.748
12308TIP3    H236870   0.808   5.112   4.899
12309TIP3   OH236871   5.697   1.333   1.124
12309TIP3    H136872   5.769   1.272   1.139
12309TIP3    H236873   5.629   1.280   1.081
12310TIP3   OH236874   5.687   5.914   3.869
12310TIP3    H136875   5.719   5.868   3.947
12310TIP3    H236876   5.634   5.986   3.904
12311TIP3   OH236877   1.266   4.864   6.644
12311TIP3    H136878   1.264   4.926   6.716
12311TIP3    H236879   1.313   4.910   6.574
12312TIP3   OH236880   2.733   4.709   0.937
12312TIP3    H136881   2.644   4.738   0.917
12312TIP3    H236882   2.765   4.772   1.002
12313TIP3   OH236883   4.170   0.691   2.772
12313TIP3    H136884   4.110   0.637   2.823
12313TIP3    H236885   4.150   0.781   2.797
12314TIP3   OH236886   0.900   7.683   4.517
12314TIP3    H136887   0.942   7.632   4.587
12314TIP3    H236888   0.855   7.754   4.563
12315TIP3   OH236889   2.855   7.535   2.726
12315TIP3    H136890   2.881   7.505   2.814
12315TIP3    H236891   2.791   7.604   2.743
12316TIP3   OH236892   6.557   6.340   2.126
12316TIP3    H136893   6.622   6.398   2.166
12316TIP3    H236894   6.494   6.399   2.085
12317TIP3   OH236895   1.461   7.778   1.175
12317TIP3    H136896   1.381   7.748   1.220
12317TIP3    H236897   1.434   7.858   1.130
12318TIP3   OH236898   2.318   5.731   1.977
12318TIP3    H136899   2.350   5.821   1.969
12318TIP3    H236900   2.330   5.694   1.889
12319TIP3   OH236901   4.151   2.373   0.163
12319TIP3    H136902   4.217   2.442   0.171
12319TIP3    H236903   4.069   2.421   0.153
12320TIP3   OH236904   3.984   6.623   4.170
12320TIP3    H136905   3.891   6.604   4.156
12320TIP3    H236906   4.016   6.648   4.083
12321TIP3   OH236907   3.190   0.145   4.176
12321TIP3    H136908   3.140   0.226   4.188
12321TIP3    H236909   3.275   0.163   4.218
12322TIP3   OH236910   4.486   6.840   1.681
12322TIP3    H136911   4.530   6.860   1.764
12322TIP3    H236912   4.453   6.924   1.650
12323TIP3   OH236913   0.475   7.451   0.267
12323TIP3    H136914   0.418   7.501   0.209
12323TIP3    H236915   0.503   7.375   0.216
12324TIP3   OH236916   3.336   0.680   4.329
12324TIP3    H136917   3.377   0.685   4.243
12324TIP3    H236918   3.243   0.698   4.313
12325TIP3   OH236919   2.660   0.272   3.501
12325TIP3    H136920   2.631   0.260   3.410
12325TIP3    H236921   2.682   0.184   3.530
12326TIP3   OH236922   4.840   2.549   2.733
12326TIP3    H136923   4.816   2.531   2.824
12326TIP3    H236924   4.762   2.589   2.695
12327TIP3   OH236925   0.571   3.711   3.488
12327TIP3    H136926   0.648   3.755   3.524
12327TIP3    H236927   0.538   3.656   3.558
12328TIP3   OH236928   6.130   0.164   0.104
12328TIP3    H136929   6.146   0.091   0.164
12328TIP3    H236930   6.217   0.200   0.086
12329TIP3   OH236931   5.168   2.845   4.437
12329TIP3    H136932   5.109   2.898   4.385
12329TIP3    H236933   5.159   2.757   4.401
12330TIP3   OH236934   0.900   7.709   1.483
12330TIP3    H136935   0.896   7.666   1.568
12330TIP3    H236936   0.808   7.731   1.463
12331TIP3   OH236937   7.315   1.184   2.139
12331TIP3    H136938   7.337   1.101   2.096
12331TIP3    H236939   7.317   1.249   2.069
12332TIP3   OH236940   5.836   3.738   2.321
12332TIP3    H136941   5.837   3.797   2.246
12332TIP3    H236942   5.826   3.651   2.284
12333TIP3   OH236943   5.475   7.437   4.861
12333TIP3    H136944   5.559   7.431   4.816
12333TIP3    H236945   5.469   7.529   4.889
12334TIP3   OH236946   2.826   4.831   0.715
12334TIP3    H136947   2.798   4.915   0.751
12334TIP3    H236948   2.851   4.778   0.791
12335TIP3   OH236949   4.463   1.904   1.533
12335TIP3    H136950   4.528   1.924   1.466
12335TIP3    H236951   4.457   1.809   1.534
12336TIP3   OH236952   7.721   5.064   0.177
12336TIP3    H136953   7.782   5.003   0.135
12336TIP3    H236954   7.731   5.146   0.128
12337TIP3   OH236955   6.790   3.536   6.059
12337TIP3    H136956   6.883   3.521   6.041
12337TIP3    H236957   6.789   3.601   6.128
12338TIP3   OH236958   7.501   7.754   3.248
12338TIP3    H136959   7.456   7.672   3.269
12338TIP3    H236960   7.588   7.727   3.219
12339TIP3   OH236961   3.582   7.067   4.728
12339TIP3    H136962   3.656   7.126   4.713
12339TIP3    H236963   3.588   7.045   4.821
12340TIP3   OH236964   2.066   6.882   2.049
12340TIP3    H136965   2.001   6.933   2.097
12340TIP3    H236966   2.091   6.812   2.108
12341TIP3   OH236967   7.940   2.888   0.030
12341TIP3    H136968   7.856   2.879   0.075
12341TIP3    H236969   8.005   2.858   0.093
12342TIP3   OH236970   5.759   3.210   6.311
12342TIP3    H136971   5.730   3.121   6.330
12342TIP3    H236972   5.813   3.201   6.232
12343TIP3   OH236973   6.806   2.790   1.663
12343TIP3    H136974   6.765   2.872   1.692
12343TIP3    H236975   6.853   2.815   1.583
12344TIP3   OH236976   3.951   5.947   6.683
12344TIP3    H136977   3.938   5.995   6.765
12344TIP3    H236978   3.959   5.855   6.710
12345TIP3   OH236979   3.453   6.312   0.067
12345TIP3    H136980   3.541   6.314   0.029
12345TIP3    H236981   3.398   6.274  -0.002
12346TIP3   OH236982   5.833   1.779   6.648
12346TIP3    H136983   5.889   1.836   6.699
12346TIP3    H236984   5.838   1.813   6.559
12347TIP3   OH236985   4.249   2.101   3.846
12347TIP3    H136986   4.227   2.049   3.923
12347TIP3    H236987   4.240   2.040   3.773
12348TIP3   OH236988   4.277   6.904   0.764
12348TIP3    H136989   4.294   6.855   0.684
12348TIP3    H236990   4.184   6.927   0.758
12349TIP3   OH236991   7.924   4.304   3.164
12349TIP3    H136992   7.910   4.261   3.249
12349TIP3    H236993   8.007   4.351   3.175
12350TIP3   OH236994   2.693   2.257   6.535
12350TIP3    H136995   2.696   2.346   6.499
12350TIP3    H236996   2.656   2.204   6.465
12351TIP3   OH236997   3.433   1.941   3.390
12351TIP3    H136998   3.456   1.930   3.482
12351TIP3    H236999   3.402   2.031   3.384
12352TIP3   OH237000   3.138   6.350   3.812
12352TIP3    H137001   3.229   6.366   3.786
12352TIP3    H237002   3.099   6.306   3.737
12353TIP3   OH237003   1.149   3.178   0.930
12353TIP3    H137004   1.113   3.195   0.843
12353TIP3    H237005   1.234   3.138   0.913
12354TIP3   OH237006   0.047   3.781   4.126
12354TIP3    H137007   0.026   3.871   4.101
12354TIP3    H237008   0.100   3.749   4.053
12355TIP3   OH237009   7.809   1.568   0.645
12355TIP3    H137010   7.861   1.640   0.680
12355TIP3    H237011   7.869   1.519   0.589
12356TIP3   OH237012   1.367   0.646   3.146
12356TIP3    H137013   1.338   0.647   3.237
12356TIP3    H237014   1.453   0.686   3.147
12357TIP3   OH237015   7.265   6.649   3.727
12357TIP3    H137016   7.228   6.569   3.764
12357TIP3    H237017   7.190   6.697   3.692
12358TIP3   OH237018   1.517   3.626   5.080
12358TIP3    H137019   1.509   3.589   4.992
12358TIP3    H237020   1.611   3.632   5.095
12359TIP3   OH237021   0.786   7.788   3.924
12359TIP3    H137022   0.853   7.747   3.977
12359TIP3    H237023   0.753   7.718   3.868
12360TIP3   OH237024   4.807   0.459   5.814
12360TIP3    H137025   4.775   0.454   5.904
12360TIP3    H237026   4.891   0.505   5.821
12361TIP3   OH237027   1.217   1.874   3.884
12361TIP3    H137028   1.252   1.844   3.967
12361TIP3    H237029   1.123   1.886   3.900
12362TIP3   OH237030   4.495   0.683   0.607
12362TIP3    H137031   4.515   0.776   0.620
12362TIP3    H237032   4.449   0.680   0.523
12363TIP3   OH237033   3.122   3.646   3.348
12363TIP3    H137034   3.203   3.664   3.397
12363TIP3    H237035   3.153   3.621   3.261
12364TIP3   OH237036   3.681   7.496   0.520
12364TIP3    H137037   3.670   7.509   0.614
12364TIP3    H237038   3.741   7.422   0.512
12365TIP3   OH237039   1.027   1.888   2.713
12365TIP3    H137040   1.048   1.857   2.625
12365TIP3    H237041   0.977   1.817   2.753
12366TIP3   OH237042   7.415   4.558   3.975
12366TIP3    H137043   7.502   4.597   3.985
12366TIP3    H237044   7.362   4.628   3.936
12367TIP3   OH237045   3.400   6.625   3.636
12367TIP3    H137046   3.470   6.616   3.571
12367TIP3    H237047   3.320   6.606   3.587
12368TIP3   OH237048   6.160   0.580   2.923
12368TIP3    H137049   6.120   0.656   2.965
12368TIP3    H237050   6.254   0.592   2.936
12369TIP3   OH237051   3.815   5.372   4.062
12369TIP3    H137052   3.820   5.422   3.980
12369TIP3    H237053   3.801   5.282   4.034
12370TIP3   OH237054   2.332   5.770   5.808
12370TIP3    H137055   2.346   5.805   5.896
12370TIP3    H237056   2.404   5.708   5.795
12371TIP3   OH237057   4.663   4.718   5.740
12371TIP3    H137058   4.605   4.710   5.816
12371TIP3    H237059   4.729   4.649   5.753
12372TIP3   OH237060   5.211   5.915   5.460
12372TIP3    H137061   5.273   5.978   5.421
12372TIP3    H237062   5.201   5.945   5.550
12373TIP3   OH237063   4.837   4.633   1.486
12373TIP3    H137064   4.907   4.590   1.535
12373TIP3    H237065   4.830   4.582   1.405
12374TIP3   OH237066   1.736   5.221   0.481
12374TIP3    H137067   1.713   5.284   0.412
12374TIP3    H237068   1.755   5.275   0.557
12375TIP3   OH237069   5.380   1.415   4.854
12375TIP3    H137070   5.287   1.410   4.876
12375TIP3    H237071   5.396   1.338   4.801
12376TIP3   OH237072   6.409   0.160   1.430
12376TIP3    H137073   6.324   0.136   1.467
12376TIP3    H237074   6.391   0.236   1.374
12377TIP3   OH237075   5.209   1.076   5.039
12377TIP3    H137076   5.259   1.127   5.103
12377TIP3    H237077   5.251   0.990   5.040
12378TIP3   OH237078   3.515   5.633   2.085
12378TIP3    H137079   3.498   5.548   2.044
12378TIP3    H237080   3.541   5.690   2.012
12379TIP3   OH237081   2.359   6.698   4.115
12379TIP3    H137082   2.369   6.640   4.039
12379TIP3    H237083   2.370   6.640   4.191
12380TIP3   OH237084   3.572   7.325   3.996
12380TIP3    H137085   3.541   7.235   4.008
12380TIP3    H237086   3.655   7.316   3.950
12381TIP3   OH237087   1.311   3.229   2.323
12381TIP3    H137088   1.245   3.288   2.360
12381TIP3    H237089   1.261   3.169   2.268
12382TIP3   OH237090   3.179   3.525   3.672
12382TIP3    H137091   3.263   3.534   3.626
12382TIP3    H237092   3.204   3.523   3.765
12383TIP3   OH237093   2.482   0.388   3.950
12383TIP3    H137094   2.537   0.387   3.872
12383TIP3    H237095   2.468   0.296   3.971
12384TIP3   OH237096   1.587   7.674   0.346
12384TIP3    H137097   1.514   7.621   0.315
12384TIP3    H237098   1.572   7.682   0.441
12385TIP3   OH237099   6.501   2.206   6.706
12385TIP3    H137100   6.543   2.135   6.659
12385TIP3    H237101   6.554   2.283   6.687
12386TIP3   OH237102   6.909   5.225   2.009
12386TIP3    H137103   6.964   5.150   1.985
12386TIP3    H237104   6.825   5.186   2.032
12387TIP3   OH237105   0.033   0.787   3.411
12387TIP3    H137106   0.051   0.838   3.333
12387TIP3    H237107   0.104   0.724   3.416
12388TIP3   OH237108   7.545   5.485   4.643
12388TIP3    H137109   7.593   5.402   4.637
12388TIP3    H237110   7.585   5.530   4.718
12389TIP3   OH237111   4.833   5.962   3.900
12389TIP3    H137112   4.784   5.881   3.905
12389TIP3    H237113   4.923   5.935   3.877
12390TIP3   OH237114   3.757   7.569   4.303
12390TIP3    H137115   3.689   7.546   4.366
12390TIP3    H237116   3.820   7.620   4.353
12391TIP3   OH237117   6.857   1.088   4.410
12391TIP3    H137118   6.808   1.120   4.335
12391TIP3    H237119   6.945   1.074   4.377
12392TIP3   OH237120   4.639   7.545   5.717
12392TIP3    H137121   4.593   7.469   5.752
12392TIP3    H237122   4.578   7.618   5.729
12393TIP3   OH237123   6.018   5.615   4.760
12393TIP3    H137124   5.987   5.593   4.848
12393TIP3    H237125   6.036   5.709   4.764
12394TIP3   OH237126   3.379   7.736   0.209
12394TIP3    H137127   3.411   7.658   0.163
12394TIP3    H237128   3.410   7.725   0.299
12395TIP3   OH237129   6.463   6.006   5.054
12395TIP3    H137130   6.460   5.913   5.074
12395TIP3    H237131   6.534   6.014   4.990
12396TIP3   OH237132   6.456   3.126   3.853
12396TIP3    H137133   6.477   3.074   3.775
12396TIP3    H237134   6.398   3.195   3.821
12397TIP3   OH237135   0.959   1.899   0.522
12397TIP3    H137136   1.012   1.822   0.542
12397TIP3    H237137   0.957   1.903   0.427
12398TIP3   OH237138   3.240   1.822   1.086
12398TIP3    H137139   3.169   1.884   1.069
12398TIP3    H237140   3.232   1.757   1.017
12399TIP3   OH237141   2.939   0.896   2.054
12399TIP3    H137142   2.862   0.950   2.039
12399TIP3    H237143   2.999   0.953   2.102
12400TIP3   OH237144   2.986   0.541   2.201
12400TIP3    H137145   2.985   0.463   2.146
12400TIP3    H237146   3.009   0.613   2.141
12401TIP3   OH237147   5.906   6.741   2.701
12401TIP3    H137148   5.954   6.709   2.777
12401TIP3    H237149   5.930   6.833   2.695
12402TIP3   OH237150   7.065   6.795   6.206
12402TIP3    H137151   7.127   6.725   6.186
12402TIP3    H237152   6.979   6.752   6.205
12403TIP3   OH237153   1.112   5.165   0.159
12403TIP3    H137154   1.149   5.087   0.118
12403TIP3    H237155   1.018   5.162   0.138
12404TIP3   OH237156   7.316   4.065   2.406
12404TIP3    H137157   7.251   4.000   2.431
12404TIP3    H237158   7.325   4.056   2.311
12405TIP3   OH237159   4.669   2.997   6.616
12405TIP3    H137160   4.587   2.978   6.569
12405TIP3    H237161   4.665   2.944   6.695
12406TIP3   OH237162   7.371   4.411   0.160
12406TIP3    H137163   7.357   4.487   0.216
12406TIP3    H237164   7.322   4.340   0.202
12407TIP3   OH237165   3.458   6.038   3.242
12407TIP3    H137166   3.430   5.947   3.231
12407TIP3    H237167   3.553   6.035   3.235
12408TIP3   OH237168   2.752   2.606   1.658
12408TIP3    H137169   2.717   2.661   1.728
12408TIP3    H237170   2.843   2.632   1.649
12409TIP3   OH237171   4.102   6.322   0.138
12409TIP3    H137172   4.053   6.256   0.186
12409TIP3    H237173   4.121   6.281   0.053
12410TIP3   OH237174   1.639   6.705   1.915
12410TIP3    H137175   1.629   6.617   1.950
12410TIP3    H237176   1.667   6.757   1.991
12411TIP3   OH237177   4.911   5.083   1.055
12411TIP3    H137178   4.842   5.093   1.120
12411TIP3    H237179   4.948   5.171   1.045
12412TIP3   OH237180   1.712   1.363   6.529
12412TIP3    H137181   1.713   1.293   6.464
12412TIP3    H237182   1.796   1.356   6.574
12413TIP3   OH237183   8.318   7.353   4.837
12413TIP3    H137184   8.302   7.265   4.804
12413TIP3    H237185   8.242   7.372   4.892
12414TIP3   OH237186   4.801   3.475   5.166
12414TIP3    H137187   4.740   3.410   5.200
12414TIP3    H237188   4.760   3.505   5.085
12415TIP3   OH237189   5.378   0.284   5.077
12415TIP3    H137190   5.470   0.268   5.096
12415TIP3    H237191   5.345   0.332   5.153
12416TIP3   OH237192   0.112   2.769   1.913
12416TIP3    H137193   0.173   2.774   1.987
12416TIP3    H237194   0.080   2.858   1.902
12417TIP3   OH237195   8.104   7.239   4.997
12417TIP3    H137196   8.099   7.250   5.092
12417TIP3    H237197   8.057   7.158   4.979
12418TIP3   OH237198   0.772   1.836   3.440
12418TIP3    H137199   0.773   1.775   3.367
12418TIP3    H237200   0.704   1.900   3.418
12419TIP3   OH237201   2.095   1.487   4.870
12419TIP3    H137202   2.102   1.393   4.888
12419TIP3    H237203   2.066   1.525   4.954
12420TIP3   OH237204   3.711   2.347   6.092
12420TIP3    H137205   3.756   2.264   6.107
12420TIP3    H237206   3.635   2.344   6.150
12421TIP3   OH237207   1.223   4.933   3.329
12421TIP3    H137208   1.194   5.022   3.308
12421TIP3    H237209   1.231   4.931   3.424
12422TIP3   OH237210   2.503   4.187   0.252
12422TIP3    H137211   2.466   4.270   0.221
12422TIP3    H237212   2.569   4.165   0.187
12423TIP3   OH237213   7.901   4.141   2.225
12423TIP3    H137214   7.884   4.144   2.131
12423TIP3    H237215   7.943   4.224   2.245
12424TIP3   OH237216   4.029   1.559   5.079
12424TIP3    H137217   3.980   1.592   5.154
12424TIP3    H237218   4.077   1.635   5.047
12425TIP3   OH237219   5.679   0.248   2.969
12425TIP3    H137220   5.770   0.223   2.981
12425TIP3    H237221   5.676   0.341   2.989
12426TIP3   OH237222   1.083   5.939   5.512
12426TIP3    H137223   1.098   5.989   5.432
12426TIP3    H237224   0.990   5.952   5.531
12427TIP3   OH237225   4.236   4.958   6.289
12427TIP3    H137226   4.326   4.926   6.292
12427TIP3    H237227   4.183   4.881   6.311
12428TIP3   OH237228   0.097   4.865   1.810
12428TIP3    H137229   0.075   4.905   1.725
12428TIP3    H237230   0.037   4.906   1.872
12429TIP3   OH237231   1.078   5.956   0.490
12429TIP3    H137232   1.059   6.050   0.486
12429TIP3    H237233   1.174   5.952   0.491
12430TIP3   OH237234   1.570   0.579   1.367
12430TIP3    H137235   1.512   0.655   1.371
12430TIP3    H237236   1.515   0.505   1.393
12431TIP3   OH237237   7.204   3.671   4.634
12431TIP3    H137238   7.257   3.600   4.671
12431TIP3    H237239   7.232   3.748   4.683
12432TIP3   OH237240   2.742   4.044   1.383
12432TIP3    H137241   2.757   3.977   1.317
12432TIP3    H237242   2.817   4.102   1.376
12433TIP3   OH237243   2.177   7.637   1.893
12433TIP3    H137244   2.230   7.707   1.853
12433TIP3    H237245   2.127   7.682   1.961
12434TIP3   OH237246   2.400   7.088   5.153
12434TIP3    H137247   2.449   7.063   5.231
12434TIP3    H237248   2.439   7.036   5.083
12435TIP3   OH237249   0.083   4.620   0.474
12435TIP3    H137250   0.058   4.530   0.493
12435TIP3    H237251   0.143   4.644   0.545
12436TIP3   OH237252   6.468   6.134   1.552
12436TIP3    H137253   6.422   6.156   1.633
12436TIP3    H237254   6.504   6.047   1.568
12437TIP3   OH237255   4.095   2.580   0.720
12437TIP3    H137256   4.058   2.496   0.749
12437TIP3    H237257   4.044   2.604   0.643
12438TIP3   OH237258   0.406   2.602   2.072
12438TIP3    H137259   0.373   2.688   2.048
12438TIP3    H237260   0.347   2.572   2.141
12439TIP3   OH237261   8.030   1.405   3.379
12439TIP3    H137262   8.124   1.390   3.385
12439TIP3    H237263   7.991   1.323   3.407
12440TIP3   OH237264   8.008   0.330   4.580
12440TIP3    H137265   8.021   0.337   4.486
12440TIP3    H237266   7.969   0.244   4.593
12441TIP3   OH237267   0.713   2.939   5.014
12441TIP3    H137268   0.707   2.915   4.922
12441TIP3    H237269   0.662   3.019   5.022
12442TIP3   OH237270   8.031   4.527   0.193
12442TIP3    H137271   8.121   4.515   0.223
12442TIP3    H237272   8.023   4.469   0.117
12443TIP3   OH237273   0.720   2.388   4.078
12443TIP3    H137274   0.714   2.478   4.110
12443TIP3    H237275   0.655   2.340   4.130
12444TIP3   OH237276   0.175   5.643   1.143
12444TIP3    H137277   0.154   5.736   1.137
12444TIP3    H237278   0.211   5.620   1.057
12445TIP3   OH237279   6.573   3.137   3.529
12445TIP3    H137280   6.624   3.218   3.535
12445TIP3    H237281   6.594   3.101   3.443
12446TIP3   OH237282   6.027   1.485   2.521
12446TIP3    H137283   6.107   1.539   2.517
12446TIP3    H237284   6.024   1.453   2.611
12447TIP3   OH237285   1.343   7.469   2.843
12447TIP3    H137286   1.359   7.375   2.857
12447TIP3    H237287   1.404   7.513   2.902
12448TIP3   OH237288   2.913   0.132   0.747
12448TIP3    H137289   2.969   0.118   0.670
12448TIP3    H237290   2.964   0.189   0.804
12449TIP3   OH237291   5.820   3.923   3.847
12449TIP3    H137292   5.900   3.875   3.868
12449TIP3    H237293   5.750   3.874   3.890
12450TIP3   OH237294   2.427   6.450   6.368
12450TIP3    H137295   2.480   6.495   6.303
12450TIP3    H237296   2.436   6.502   6.448
12451TIP3   OH237297   6.712   5.072   6.285
12451TIP3    H137298   6.799   5.090   6.250
12451TIP3    H237299   6.693   5.148   6.341
12452TIP3   OH237300   8.080   1.894   0.348
12452TIP3    H137301   8.051   1.813   0.307
12452TIP3    H237302   8.101   1.952   0.275
12453TIP3   OH237303   4.983   1.600   4.381
12453TIP3    H137304   5.048   1.581   4.314
12453TIP3    H237305   4.904   1.624   4.331
12454TIP3   OH237306   5.463   3.688   6.530
12454TIP3    H137307   5.370   3.668   6.528
12454TIP3    H237308   5.478   3.724   6.618
12455TIP3   OH237309   1.414   3.791   3.348
12455TIP3    H137310   1.383   3.759   3.433
12455TIP3    H237311   1.346   3.764   3.286
12456TIP3   OH237312   0.054   6.758   5.795
12456TIP3    H137313   0.126   6.704   5.828
12456TIP3    H237314   0.022   6.806   5.871
12457TIP3   OH237315   2.775   4.348   4.856
12457TIP3    H137316   2.694   4.399   4.863
12457TIP3    H237317   2.843   4.414   4.844
12458TIP3   OH237318   7.708   0.554   5.159
12458TIP3    H137319   7.664   0.597   5.232
12458TIP3    H237320   7.760   0.485   5.199
12459TIP3   OH237321   0.811   6.695   6.056
12459TIP3    H137322   0.889   6.723   6.104
12459TIP3    H237323   0.803   6.602   6.077
12460TIP3   OH237324   8.280   3.796   5.564
12460TIP3    H137325   8.192   3.833   5.558
12460TIP3    H237326   8.322   3.819   5.481
12461TIP3   OH237327   7.195   5.595   0.947
12461TIP3    H137328   7.130   5.531   0.976
12461TIP3    H237329   7.169   5.677   0.990
12462TIP3   OH237330   4.645   1.259   0.671
12462TIP3    H137331   4.587   1.307   0.612
12462TIP3    H237332   4.662   1.320   0.743
12463TIP3   OH237333   2.532   4.299   2.972
12463TIP3    H137334   2.466   4.259   3.028
12463TIP3    H237335   2.609   4.243   2.982
12464TIP3   OH237336   7.406   5.405   1.243
12464TIP3    H137337   7.483   5.428   1.294
12464TIP3    H237338   7.391   5.481   1.187
12465TIP3   OH237339   7.201   5.014   2.952
12465TIP3    H137340   7.159   4.929   2.939
12465TIP3    H237341   7.144   5.076   2.907
12466TIP3   OH237342   0.556   6.373   5.106
12466TIP3    H137343   0.622   6.412   5.048
12466TIP3    H237344   0.528   6.446   5.162
12467TIP3   OH237345   1.433   2.682   0.319
12467TIP3    H137346   1.365   2.725   0.370
12467TIP3    H237347   1.428   2.589   0.344
12468TIP3   OH237348   0.831   3.894   1.866
12468TIP3    H137349   0.822   3.799   1.854
12468TIP3    H237350   0.749   3.921   1.906
12469TIP3   OH237351   7.809   5.668   5.060
12469TIP3    H137352   7.838   5.695   4.973
12469TIP3    H237353   7.869   5.713   5.120
12470TIP3   OH237354   8.266   3.530   6.381
12470TIP3    H137355   8.260   3.624   6.400
12470TIP3    H237356   8.236   3.488   6.461
12471TIP3   OH237357   6.332   4.015   5.612
12471TIP3    H137358   6.244   3.994   5.580
12471TIP3    H237359   6.354   3.943   5.671
12472TIP3   OH237360   3.628   2.760   1.649
12472TIP3    H137361   3.583   2.841   1.624
12472TIP3    H237362   3.694   2.789   1.713
12473TIP3   OH237363   3.987   3.589   5.377
12473TIP3    H137364   3.908   3.613   5.424
12473TIP3    H237365   4.058   3.606   5.439
12474TIP3   OH237366   0.809   0.671   3.326
12474TIP3    H137367   0.749   0.600   3.350
12474TIP3    H237368   0.796   0.683   3.232
12475TIP3   OH237369   5.494   7.233   2.769
12475TIP3    H137370   5.421   7.269   2.820
12475TIP3    H237371   5.560   7.302   2.770
12476TIP3   OH237372   7.009   3.209   0.918
12476TIP3    H137373   6.972   3.210   0.830
12476TIP3    H237374   7.018   3.302   0.941
12477TIP3   OH237375   4.217   4.181   4.934
12477TIP3    H137376   4.295   4.224   4.899
12477TIP3    H237377   4.144   4.226   4.891
12478TIP3   OH237378   6.409   0.397   1.804
12478TIP3    H137379   6.495   0.438   1.795
12478TIP3    H237380   6.423   0.305   1.783
12479TIP3   OH237381   2.153   4.885   0.384
12479TIP3    H137382   2.210   4.943   0.333
12479TIP3    H237383   2.142   4.931   0.468
12480TIP3   OH237384   4.777   4.447   1.241
12480TIP3    H137385   4.819   4.360   1.237
12480TIP3    H237386   4.823   4.499   1.175
12481TIP3   OH237387   2.548   6.595   2.215
12481TIP3    H137388   2.460   6.587   2.178
12481TIP3    H237389   2.605   6.605   2.138
12482TIP3   OH237390   4.608   6.229   6.139
12482TIP3    H137391   4.592   6.265   6.052
12482TIP3    H237392   4.567   6.292   6.199
12483TIP3   OH237393   1.834   0.934   2.520
12483TIP3    H137394   1.836   0.853   2.468
12483TIP3    H237395   1.925   0.964   2.520
12484TIP3   OH237396   8.058   0.301   4.303
12484TIP3    H137397   8.011   0.287   4.220
12484TIP3    H237398   8.104   0.384   4.291
12485TIP3   OH237399   3.008   1.987   5.078
12485TIP3    H137400   3.019   1.907   5.028
12485TIP3    H237401   3.096   2.015   5.101
12486TIP3   OH237402   1.539   1.396   1.141
12486TIP3    H137403   1.573   1.368   1.226
12486TIP3    H237404   1.616   1.424   1.092
12487TIP3   OH237405   1.350   5.019   0.827
12487TIP3    H137406   1.264   4.994   0.792
12487TIP3    H237407   1.359   4.967   0.907
12488TIP3   OH237408   7.253   0.443   2.051
12488TIP3    H137409   7.170   0.485   2.074
12488TIP3    H237410   7.260   0.369   2.111
12489TIP3   OH237411   3.532   2.954   5.776
12489TIP3    H137412   3.531   2.991   5.864
12489TIP3    H237413   3.614   2.984   5.738
12490TIP3   OH237414   5.820   1.069   0.457
12490TIP3    H137415   5.767   1.137   0.500
12490TIP3    H237416   5.770   1.048   0.378
12491TIP3   OH237417   7.385   0.282   3.467
12491TIP3    H137418   7.301   0.317   3.497
12491TIP3    H237419   7.363   0.233   3.387
12492TIP3   OH237420   7.801   5.344   1.870
12492TIP3    H137421   7.844   5.370   1.951
12492TIP3    H237422   7.780   5.427   1.827
12493TIP3   OH237423   5.598   0.301   1.293
12493TIP3    H137424   5.671   0.275   1.348
12493TIP3    H237425   5.557   0.373   1.340
12494TIP3   OH237426   3.512   3.757   0.360
12494TIP3    H137427   3.471   3.766   0.446
12494TIP3    H237428   3.451   3.703   0.309
12495TIP3   OH237429   3.687   1.301   3.829
12495TIP3    H137430   3.687   1.325   3.922
12495TIP3    H237431   3.677   1.206   3.828
12496TIP3   OH237432   2.291   2.925   2.881
12496TIP3    H137433   2.280   2.831   2.897
12496TIP3    H237434   2.275   2.935   2.788
12497TIP3   OH237435   7.222   7.695   4.718
12497TIP3    H137436   7.307   7.737   4.726
12497TIP3    H237437   7.183   7.703   4.805
12498TIP3   OH237438   1.189   0.531   6.168
12498TIP3    H137439   1.274   0.561   6.200
12498TIP3    H237440   1.150   0.486   6.243
12499TIP3   OH237441   3.688   5.866   4.237
12499TIP3    H137442   3.686   5.959   4.260
12499TIP3    H237443   3.729   5.824   4.312
12500TIP3   OH237444   4.943   6.090   5.278
12500TIP3    H137445   4.934   6.006   5.322
12500TIP3    H237446   5.032   6.089   5.241
12501TIP3   OH237447   7.345   4.554   2.934
12501TIP3    H137448   7.306   4.505   2.861
12501TIP3    H237449   7.289   4.534   3.009
12502TIP3   OH237450   6.651   6.294   4.234
12502TIP3    H137451   6.718   6.346   4.278
12502TIP3    H237452   6.582   6.357   4.213
12503TIP3   OH237453   5.645   4.694   0.871
12503TIP3    H137454   5.672   4.742   0.949
12503TIP3    H237455   5.725   4.652   0.839
12504TIP3   OH237456   5.718   4.600   5.021
12504TIP3    H137457   5.749   4.530   4.964
12504TIP3    H237458   5.727   4.564   5.110
12505TIP3   OH237459   0.782   7.162   0.407
12505TIP3    H137460   0.748   7.175   0.496
12505TIP3    H237461   0.877   7.169   0.417
12506TIP3   OH237462   2.863   3.795   0.436
12506TIP3    H137463   2.780   3.747   0.432
12506TIP3    H237464   2.906   3.761   0.514
12507TIP3   OH237465   1.669   1.558   1.705
12507TIP3    H137466   1.663   1.623   1.775
12507TIP3    H237467   1.578   1.542   1.680
12508TIP3   OH237468   7.427   0.142   5.434
12508TIP3    H137469   7.410   0.110   5.523
12508TIP3    H237470   7.363   0.212   5.421
12509TIP3   OH237471   0.179   0.249   6.214
12509TIP3    H137472   0.234   0.279   6.141
12509TIP3    H237473   0.102   0.305   6.211
12510TIP3   OH237474   5.699   2.450   4.023
12510TIP3    H137475   5.629   2.509   3.995
12510TIP3    H237476   5.653   2.375   4.061
12511TIP3   OH237477   7.725   5.719   3.421
12511TIP3    H137478   7.680   5.636   3.409
12511TIP3    H237479   7.655   5.782   3.439
12512TIP3   OH237480   3.938   0.051   0.690
12512TIP3    H137481   3.961   0.069   0.599
12512TIP3    H237482   3.917   0.137   0.727
12513TIP3   OH237483   4.000   3.459   1.173
12513TIP3    H137484   4.018   3.391   1.238
12513TIP3    H237485   4.052   3.434   1.097
12514TIP3   OH237486   2.840   4.026   6.013
12514TIP3    H137487   2.867   4.117   6.022
12514TIP3    H237488   2.797   4.006   6.096
12515TIP3   OH237489   5.656   5.806   6.452
12515TIP3    H137490   5.679   5.747   6.524
12515TIP3    H237491   5.659   5.893   6.491
12516TIP3   OH237492   6.094   0.531   1.720
12516TIP3    H137493   6.100   0.626   1.731
12516TIP3    H237494   6.120   0.495   1.805
12517TIP3   OH237495   1.393   3.944   2.511
12517TIP3    H137496   1.357   4.028   2.483
12517TIP3    H237497   1.473   3.966   2.558
12518TIP3   OH237498   3.955   4.727   5.174
12518TIP3    H137499   3.887   4.707   5.110
12518TIP3    H237500   3.936   4.817   5.202
12519TIP3   OH237501   4.537   0.152   6.525
12519TIP3    H137502   4.521   0.217   6.457
12519TIP3    H237503   4.495   0.188   6.603
12520TIP3   OH237504   6.263   3.579   3.423
12520TIP3    H137505   6.293   3.640   3.355
12520TIP3    H237506   6.313   3.603   3.501
12521TIP3   OH237507   4.122   5.485   2.335
12521TIP3    H137508   4.114   5.510   2.427
12521TIP3    H237509   4.075   5.554   2.288
12522TIP3   OH237510   3.441   3.611   2.642
12522TIP3    H137511   3.392   3.647   2.715
12522TIP3    H237512   3.521   3.577   2.681
12523TIP3   OH237513   0.210   7.113   1.493
12523TIP3    H137514   0.302   7.112   1.466
12523TIP3    H237515   0.194   7.202   1.525
12524TIP3   OH237516   2.666   4.580   5.154
12524TIP3    H137517   2.629   4.493   5.165
12524TIP3    H237518   2.671   4.593   5.059
12525TIP3   OH237519   4.239   4.677   4.648
12525TIP3    H137520   4.168   4.722   4.693
12525TIP3    H237521   4.200   4.647   4.566
12526TIP3   OH237522   7.265   2.660   5.916
12526TIP3    H137523   7.355   2.688   5.899
12526TIP3    H237524   7.274   2.572   5.954
12527TIP3   OH237525   5.367   5.185   3.527
12527TIP3    H137526   5.435   5.132   3.570
12527TIP3    H237527   5.365   5.153   3.437
12528TIP3   OH237528   6.246   0.553   0.463
12528TIP3    H137529   6.186   0.609   0.413
12528TIP3    H237530   6.188   0.490   0.507
12529TIP3   OH237531   1.323   4.209   1.565
12529TIP3    H137532   1.365   4.187   1.648
12529TIP3    H237533   1.351   4.299   1.547
12530TIP3   OH237534   7.447   4.445   0.775
12530TIP3    H137535   7.391   4.520   0.753
12530TIP3    H237536   7.448   4.445   0.871
12531TIP3   OH237537   4.343   5.983   1.002
12531TIP3    H137538   4.422   6.017   1.045
12531TIP3    H237539   4.302   6.060   0.964
12532TIP3   OH237540   6.162   4.364   4.726
12532TIP3    H137541   6.136   4.281   4.768
12532TIP3    H237542   6.198   4.338   4.641
12533TIP3   OH237543   3.337   3.565   0.883
12533TIP3    H137544   3.349   3.470   0.885
12533TIP3    H237545   3.329   3.587   0.790
12534TIP3   OH237546   0.194   4.850   0.081
12534TIP3    H137547   0.169   4.873  -0.008
12534TIP3    H237548   0.251   4.774   0.071
12535TIP3   OH237549   7.392   4.790   2.263
12535TIP3    H137550   7.394   4.715   2.203
12535TIP3    H237551   7.310   4.778   2.312
12536TIP3   OH237552   2.138   7.345   1.747
12536TIP3    H137553   2.159   7.398   1.824
12536TIP3    H237554   2.051   7.310   1.765
12537TIP3   OH237555   3.592   4.134   1.262
12537TIP3    H137556   3.539   4.174   1.193
12537TIP3    H237557   3.616   4.206   1.319
12538TIP3   OH237558   1.583   4.758   3.081
12538TIP3    H137559   1.523   4.831   3.071
12538TIP3    H237560   1.531   4.690   3.124
12539TIP3   OH237561   1.526   2.295   3.235
12539TIP3    H137562   1.545   2.212   3.278
12539TIP3    H237563   1.519   2.358   3.307
12540TIP3   OH237564   4.085   4.807   4.351
12540TIP3    H137565   4.159   4.866   4.335
12540TIP3    H237566   4.126   4.727   4.385
12541TIP3   OH237567   7.668   2.412   1.502
12541TIP3    H137568   7.651   2.471   1.429
12541TIP3    H237569   7.582   2.377   1.525
12542TIP3   OH237570   6.750   5.367   5.100
12542TIP3    H137571   6.656   5.352   5.111
12542TIP3    H237572   6.776   5.306   5.031
12543TIP3   OH237573   0.871   3.971   5.844
12543TIP3    H137574   0.902   4.017   5.922
12543TIP3    H237575   0.880   3.879   5.865
12544TIP3   OH237576   1.137   6.594   0.344
12544TIP3    H137577   1.168   6.672   0.390
12544TIP3    H237578   1.175   6.521   0.392
12545TIP3   OH237579   1.860   3.164   6.010
12545TIP3    H137580   1.903   3.079   6.014
12545TIP3    H237581   1.897   3.206   5.933
12546TIP3   OH237582   5.664   0.877   5.186
12546TIP3    H137583   5.672   0.967   5.218
12546TIP3    H237584   5.581   0.846   5.222
12547TIP3   OH237585   7.529   1.251  -0.063
12547TIP3    H137586   7.462   1.267   0.004
12547TIP3    H237587   7.594   1.196  -0.020
12548TIP3   OH237588   4.249   0.813   3.671
12548TIP3    H137589   4.213   0.901   3.680
12548TIP3    H237590   4.301   0.800   3.750
12549TIP3   OH237591   1.573   2.386   6.515
12549TIP3    H137592   1.522   2.451   6.468
12549TIP3    H237593   1.645   2.435   6.553
12550TIP3   OH237594   3.133   6.285   0.390
12550TIP3    H137595   3.062   6.241   0.437
12550TIP3    H237596   3.095   6.368   0.361
12551TIP3   OH237597   7.705   6.215   5.287
12551TIP3    H137598   7.653   6.275   5.234
12551TIP3    H237599   7.739   6.268   5.359
12552TIP3   OH237600   5.542   4.937   3.862
12552TIP3    H137601   5.481   4.868   3.836
12552TIP3    H237602   5.491   4.992   3.921
12553TIP3   OH237603   1.920   2.320   6.105
12553TIP3    H137604   1.842   2.312   6.160
12553TIP3    H237605   1.950   2.230   6.093
12554TIP3   OH237606   0.792   6.050   3.294
12554TIP3    H137607   0.867   6.064   3.352
12554TIP3    H237608   0.717   6.041   3.354
12555TIP3   OH237609   3.998   1.056   6.464
12555TIP3    H137610   3.974   1.136   6.418
12555TIP3    H237611   3.936   0.990   6.431
12556TIP3   OH237612   5.080   3.014   0.624
12556TIP3    H137613   5.122   2.966   0.695
12556TIP3    H237614   5.106   3.105   0.639
12557TIP3   OH237615   6.345   5.462   1.917
12557TIP3    H137616   6.291   5.386   1.896
12557TIP3    H237617   6.432   5.440   1.884
12558TIP3   OH237618   1.866   2.221   3.285
12558TIP3    H137619   1.834   2.308   3.309
12558TIP3    H237620   1.791   2.163   3.301
12559TIP3   OH237621   5.545   4.302   4.494
12559TIP3    H137622   5.638   4.284   4.507
12559TIP3    H237623   5.500   4.226   4.531
12560TIP3   OH237624   2.007   4.082   1.111
12560TIP3    H137625   2.060   4.051   1.185
12560TIP3    H237626   1.952   4.008   1.088
12561TIP3   OH237627   0.418   4.713   2.086
12561TIP3    H137628   0.425   4.786   2.148
12561TIP3    H237629   0.436   4.635   2.138
12562TIP3   OH237630   2.844   0.911   6.579
12562TIP3    H137631   2.898   0.851   6.528
12562TIP3    H237632   2.817   0.978   6.517
12563TIP3   OH237633   2.865   1.204   3.167
12563TIP3    H137634   2.907   1.290   3.168
12563TIP3    H237635   2.774   1.222   3.190
12564TIP3   OH237636   4.894   7.026   6.656
12564TIP3    H137637   4.945   6.955   6.618
12564TIP3    H237638   4.954   7.100   6.660
12565TIP3   OH237639   1.303   1.483   0.444
12565TIP3    H137640   1.375   1.468   0.382
12565TIP3    H237641   1.344   1.526   0.519
12566TIP3   OH237642   0.653   3.349   2.100
12566TIP3    H137643   0.742   3.314   2.106
12566TIP3    H237644   0.664   3.444   2.099
12567TIP3   OH237645   0.231   4.701   5.002
12567TIP3    H137646   0.221   4.794   5.020
12567TIP3    H237647   0.141   4.667   4.999
12568TIP3   OH237648   3.104   0.158   6.329
12568TIP3    H137649   3.169   0.116   6.386
12568TIP3    H237650   3.140   0.244   6.309
12569TIP3   OH237651   3.166   2.983   4.602
12569TIP3    H137652   3.148   3.073   4.575
12569TIP3    H237653   3.240   2.956   4.547
12570TIP3   OH237654   7.315   1.329   1.925
12570TIP3    H137655   7.250   1.398   1.938
12570TIP3    H237656   7.351   1.345   1.838
12571TIP3   OH237657   5.098   5.775   4.653
12571TIP3    H137658   5.165   5.778   4.722
12571TIP3    H237659   5.059   5.863   4.655
12572TIP3   OH237660   1.535   2.307   5.179
12572TIP3    H137661   1.466   2.317   5.113
12572TIP3    H237662   1.578   2.225   5.155
12573TIP3   OH237663   1.112   1.248   1.947
12573TIP3    H137664   1.064   1.174   1.983
12573TIP3    H237665   1.058   1.325   1.967
12574TIP3   OH237666   6.760   2.681   5.542
12574TIP3    H137667   6.746   2.636   5.625
12574TIP3    H237668   6.725   2.769   5.555
12575TIP3   OH237669   1.751   7.243   0.821
12575TIP3    H137670   1.727   7.323   0.867
12575TIP3    H237671   1.812   7.272   0.754
12576TIP3   OH237672   6.435   3.468   0.704
12576TIP3    H137673   6.461   3.522   0.630
12576TIP3    H237674   6.490   3.390   0.698
12577TIP3   OH237675   2.710   6.523   1.502
12577TIP3    H137676   2.640   6.543   1.439
12577TIP3    H237677   2.716   6.428   1.503
12578TIP3   OH237678   5.191   4.160   4.648
12578TIP3    H137679   5.208   4.081   4.700
12578TIP3    H237680   5.151   4.221   4.710
12579TIP3   OH237681   6.342   5.754   2.487
12579TIP3    H137682   6.248   5.772   2.491
12579TIP3    H237683   6.377   5.799   2.564
12580TIP3   OH237684   6.410   5.714   1.805
12580TIP3    H137685   6.422   5.622   1.779
12580TIP3    H237686   6.329   5.714   1.856
12581TIP3   OH237687   7.487   6.417   6.389
12581TIP3    H137688   7.505   6.503   6.427
12581TIP3    H237689   7.513   6.354   6.457
12582TIP3   OH237690   3.649   1.308   5.921
12582TIP3    H137691   3.638   1.219   5.889
12582TIP3    H237692   3.671   1.359   5.842
12583TIP3   OH237693   2.641   3.157   2.581
12583TIP3    H137694   2.589   3.200   2.649
12583TIP3    H237695   2.675   3.230   2.529
12584TIP3   OH237696   2.147   1.455   1.570
12584TIP3    H137697   2.121   1.428   1.482
12584TIP3    H237698   2.064   1.468   1.616
12585TIP3   OH237699   0.184   6.022   1.334
12585TIP3    H137700   0.201   6.115   1.321
12585TIP3    H237701   0.217   6.004   1.422
12586TIP3   OH237702   7.041   1.210   4.217
12586TIP3    H137703   7.120   1.249   4.179
12586TIP3    H237704   7.008   1.151   4.149
12587TIP3   OH237705   1.471   5.054   4.225
12587TIP3    H137706   1.560   5.064   4.193
12587TIP3    H237707   1.439   4.973   4.184
12588TIP3   OH237708   6.748   0.604   3.925
12588TIP3    H137709   6.768   0.528   3.870
12588TIP3    H237710   6.826   0.617   3.978
12589TIP3   OH237711   7.893   3.775   4.614
12589TIP3    H137712   7.899   3.823   4.696
12589TIP3    H237713   7.808   3.731   4.618
12590TIP3   OH237714   7.891   2.403   6.474
12590TIP3    H137715   7.880   2.497   6.480
12590TIP3    H237716   7.868   2.370   6.561
12591TIP3   OH237717   0.473   2.974   1.774
12591TIP3    H137718   0.529   3.006   1.704
12591TIP3    H237719   0.398   3.034   1.775
12592TIP3   OH237720   4.827   2.290   3.315
12592TIP3    H137721   4.765   2.225   3.284
12592TIP3    H237722   4.899   2.239   3.351
12593TIP3   OH237723   0.695   0.480   4.591
12593TIP3    H137724   0.730   0.398   4.556
12593TIP3    H237725   0.656   0.455   4.675
12594TIP3   OH237726   1.077   5.397   6.343
12594TIP3    H137727   1.171   5.402   6.362
12594TIP3    H237728   1.062   5.466   6.278
12595TIP3   OH237729   3.302   2.307   0.250
12595TIP3    H137730   3.267   2.326   0.163
12595TIP3    H237731   3.294   2.390   0.298
12596TIP3   OH237732   0.602   2.214   3.212
12596TIP3    H137733   0.586   2.157   3.288
12596TIP3    H237734   0.627   2.298   3.250
12597TIP3   OH237735   5.129   1.676   0.066
12597TIP3    H137736   5.207   1.642   0.023
12597TIP3    H237737   5.119   1.622   0.145
12598TIP3   OH237738   3.854   7.293   5.524
12598TIP3    H137739   3.822   7.383   5.527
12598TIP3    H237740   3.792   7.245   5.580
12599TIP3   OH237741   7.179   6.087   4.888
12599TIP3    H137742   7.231   6.145   4.945
12599TIP3    H237743   7.093   6.083   4.930
12600TIP3   OH237744   5.445   3.809   1.012
12600TIP3    H137745   5.427   3.718   0.986
12600TIP3    H237746   5.366   3.836   1.061
12601TIP3   OH237747   3.929   2.322   4.799
12601TIP3    H137748   3.966   2.353   4.717
12601TIP3    H237749   3.853   2.378   4.815
12602TIP3   OH237750   1.365   3.385   2.087
12602TIP3    H137751   1.459   3.403   2.082
12602TIP3    H237752   1.350   3.361   2.178
12603TIP3   OH237753   4.436   2.342   2.665
12603TIP3    H137754   4.419   2.362   2.573
12603TIP3    H237755   4.433   2.427   2.709
12604TIP3   OH237756   0.564   3.423   1.534
12604TIP3    H137757   0.571   3.519   1.539
12604TIP3    H237758   0.518   3.408   1.451
12605TIP3   OH237759   3.442   5.603   4.287
12605TIP3    H137760   3.490   5.686   4.288
12605TIP3    H237761   3.438   5.577   4.379
12606TIP3   OH237762   4.192   3.933   3.769
12606TIP3    H137763   4.211   4.022   3.740
12606TIP3    H237764   4.226   3.929   3.858
12607TIP3   OH237765   0.327   4.768   6.442
12607TIP3    H137766   0.276   4.693   6.473
12607TIP3    H237767   0.328   4.828   6.517
12608TIP3   OH237768   0.996   7.267   1.910
12608TIP3    H137769   1.011   7.186   1.959
12608TIP3    H237770   1.084   7.295   1.883
12609TIP3   OH237771   3.455   2.415   4.617
12609TIP3    H137772   3.483   2.428   4.707
12609TIP3    H237773   3.360   2.407   4.623
12610TIP3   OH237774   6.342   6.365   6.102
12610TIP3    H137775   6.401   6.325   6.166
12610TIP3    H237776   6.265   6.309   6.102
12611TIP3   OH237777   7.633   0.160   5.903
12611TIP3    H137778   7.718   0.147   5.945
12611TIP3    H237779   7.653   0.215   5.827
12612TIP3   OH237780   1.820   6.494   6.619
12612TIP3    H137781   1.761   6.563   6.650
12612TIP3    H237782   1.885   6.485   6.688
12613TIP3   OH237783   4.732   6.973   3.360
12613TIP3    H137784   4.736   6.878   3.357
12613TIP3    H237785   4.744   6.995   3.453
12614TIP3   OH237786   7.238   7.159   1.269
12614TIP3    H137787   7.175   7.096   1.236
12614TIP3    H237788   7.227   7.236   1.212
12615TIP3   OH237789   3.590   6.707   6.471
12615TIP3    H137790   3.641   6.649   6.528
12615TIP3    H237791   3.596   6.668   6.384
12616TIP3   OH237792   7.125   6.137   1.146
12616TIP3    H137793   7.094   6.172   1.229
12616TIP3    H237794   7.064   6.066   1.126
12617TIP3   OH237795   1.524   3.342   1.760
12617TIP3    H137796   1.615   3.370   1.753
12617TIP3    H237797   1.523   3.279   1.832
12618TIP3   OH237798   6.492   6.835   0.370
12618TIP3    H137799   6.516   6.757   0.320
12618TIP3    H237800   6.416   6.871   0.325
12619TIP3   OH237801   5.939   6.770   5.359
12619TIP3    H137802   5.892   6.718   5.295
12619TIP3    H237803   5.918   6.730   5.443
12620TIP3   OH237804   4.781   4.325   0.811
12620TIP3    H137805   4.725   4.286   0.878
12620TIP3    H237806   4.864   4.277   0.818
12621TIP3   OH237807   2.888   1.512   0.346
12621TIP3    H137808   2.924   1.430   0.310
12621TIP3    H237809   2.906   1.507   0.440
12622TIP3   OH237810   2.316   5.095   1.982
12622TIP3    H137811   2.348   5.024   2.037
12622TIP3    H237812   2.394   5.127   1.937
12623TIP3   OH237813   2.967   7.274   5.053
12623TIP3    H137814   3.010   7.221   5.120
12623TIP3    H237815   3.031   7.280   4.982
12624TIP3   OH237816   8.043   3.235   5.539
12624TIP3    H137817   7.981   3.254   5.469
12624TIP3    H237818   8.031   3.305   5.602
12625TIP3   OH237819   3.851   4.149   5.835
12625TIP3    H137820   3.865   4.204   5.758
12625TIP3    H237821   3.883   4.063   5.809
12626TIP3   OH237822   3.674   5.679   6.142
12626TIP3    H137823   3.622   5.739   6.195
12626TIP3    H237824   3.703   5.731   6.067
12627TIP3   OH237825   6.432   3.511   2.303
12627TIP3    H137826   6.353   3.457   2.314
12627TIP3    H237827   6.459   3.533   2.392
12628TIP3   OH237828   7.585   6.713   4.430
12628TIP3    H137829   7.647   6.774   4.390
12628TIP3    H237830   7.607   6.628   4.391
12629TIP3   OH237831   4.810   6.816   6.328
12629TIP3    H137832   4.732   6.851   6.285
12629TIP3    H237833   4.874   6.887   6.320
12630TIP3   OH237834   8.171   2.622   6.662
12630TIP3    H137835   8.248   2.621   6.605
12630TIP3    H237836   8.122   2.544   6.636
12631TIP3   OH237837   0.810   4.236   2.030
12631TIP3    H137838   0.719   4.259   2.011
12631TIP3    H237839   0.820   4.255   2.124
12632TIP3   OH237840   2.277   4.572   5.121
12632TIP3    H137841   2.304   4.516   5.194
12632TIP3    H237842   2.266   4.512   5.047
12633TIP3   OH237843   7.407   3.937   6.376
12633TIP3    H137844   7.403   3.856   6.427
12633TIP3    H237845   7.482   3.985   6.413
12634TIP3   OH237846   4.170   3.174   0.470
12634TIP3    H137847   4.080   3.206   0.467
12634TIP3    H237848   4.166   3.094   0.523
12635TIP3   OH237849   3.824   1.128   2.509
12635TIP3    H137850   3.908   1.174   2.517
12635TIP3    H237851   3.846   1.045   2.469
12636TIP3   OH237852   5.634   3.855   3.522
12636TIP3    H137853   5.635   3.770   3.565
12636TIP3    H237854   5.589   3.839   3.439
12637TIP3   OH237855   5.175   6.958   0.298
12637TIP3    H137856   5.117   6.980   0.371
12637TIP3    H237857   5.154   6.866   0.278
12638TIP3   OH237858   4.943   7.438   2.354
12638TIP3    H137859   5.038   7.433   2.358
12638TIP3    H237860   4.919   7.495   2.427
12639TIP3   OH237861   1.342   7.453   1.263
12639TIP3    H137862   1.363   7.416   1.349
12639TIP3    H237863   1.317   7.543   1.282
12640TIP3   OH237864   4.808   3.987   2.657
12640TIP3    H137865   4.813   4.065   2.601
12640TIP3    H237866   4.794   3.914   2.597
12641TIP3   OH237867   0.535   3.307   6.334
12641TIP3    H137868   0.588   3.254   6.275
12641TIP3    H237869   0.599   3.353   6.389
12642TIP3   OH237870   2.963   0.571   1.119
12642TIP3    H137871   3.058   0.574   1.135
12642TIP3    H237872   2.928   0.641   1.173
12643TIP3   OH237873   3.504   0.252   6.393
12643TIP3    H137874   3.475   0.296   6.313
12643TIP3    H237875   3.456   0.169   6.393
12644TIP3   OH237876   0.547   1.447   0.745
12644TIP3    H137877   0.544   1.411   0.833
12644TIP3    H237878   0.533   1.541   0.757
12645TIP3   OH237879   7.579   1.525   2.806
12645TIP3    H137880   7.559   1.615   2.778
12645TIP3    H237881   7.555   1.471   2.731
12646TIP3   OH237882   0.383   7.309   5.493
12646TIP3    H137883   0.478   7.323   5.495
12646TIP3    H237884   0.364   7.268   5.577
12647TIP3   OH237885   3.093   5.794   6.685
12647TIP3    H137886   3.178   5.750   6.684
12647TIP3    H237887   3.030   5.724   6.697
12648TIP3   OH237888   1.998   5.403   2.031
12648TIP3    H137889   1.905   5.403   2.008
12648TIP3    H237890   2.006   5.335   2.098
12649TIP3   OH237891   7.142   0.449   1.351
12649TIP3    H137892   7.103   0.391   1.416
12649TIP3    H237893   7.223   0.479   1.391
12650TIP3   OH237894   7.016   1.871   3.473
12650TIP3    H137895   7.076   1.827   3.533
12650TIP3    H237896   7.004   1.809   3.401
12651TIP3   OH237897   2.203   3.198   3.772
12651TIP3    H137898   2.204   3.110   3.736
12651TIP3    H237899   2.295   3.217   3.792
12652TIP3   OH237900   0.828   1.926   0.274
12652TIP3    H137901   0.752   1.868   0.284
12652TIP3    H237902   0.817   1.967   0.189
12653TIP3   OH237903   0.451   6.997   5.895
12653TIP3    H137904   0.470   7.009   5.988
12653TIP3    H237905   0.421   6.906   5.888
12654TIP3   OH237906   4.291   7.233   1.009
12654TIP3    H137907   4.213   7.281   1.036
12654TIP3    H237908   4.270   7.141   1.026
12655TIP3   OH237909   4.560   5.529   6.493
12655TIP3    H137910   4.535   5.595   6.558
12655TIP3    H237911   4.592   5.580   6.419
12656TIP3   OH237912   1.238   6.643   4.807
12656TIP3    H137913   1.308   6.637   4.742
12656TIP3    H237914   1.262   6.579   4.874
12657TIP3   OH237915   5.671   6.609   0.485
12657TIP3    H137916   5.600   6.666   0.456
12657TIP3    H237917   5.707   6.653   0.563
12658TIP3   OH237918   3.208   5.053   0.775
12658TIP3    H137919   3.181   4.994   0.846
12658TIP3    H237920   3.150   5.031   0.702
12659TIP3   OH237921   2.411   0.717   1.036
12659TIP3    H137922   2.381   0.688   1.123
12659TIP3    H237923   2.506   0.726   1.046
12660TIP3   OH237924   5.850   1.707   1.294
12660TIP3    H137925   5.760   1.703   1.262
12660TIP3    H237926   5.895   1.635   1.250
12661TIP3   OH237927   7.826   4.552   2.884
12661TIP3    H137928   7.847   4.599   2.965
12661TIP3    H237929   7.741   4.512   2.901
12662TIP3   OH237930   6.832   6.012   0.172
12662TIP3    H137931   6.876   6.057   0.099
12662TIP3    H237932   6.817   5.923   0.140
12663TIP3   OH237933   7.028   1.707   4.121
12663TIP3    H137934   6.993   1.621   4.097
12663TIP3    H237935   7.122   1.693   4.133
12664TIP3   OH237936   1.134   2.995   4.100
12664TIP3    H137937   1.166   2.906   4.113
12664TIP3    H237938   1.081   3.013   4.178
12665TIP3   OH237939   3.187   1.096   4.240
12665TIP3    H137940   3.228   1.079   4.155
12665TIP3    H237941   3.103   1.136   4.218
12666TIP3   OH237942   7.136   2.186   0.968
12666TIP3    H137943   7.113   2.205   0.877
12666TIP3    H237944   7.189   2.107   0.963
12667TIP3   OH237945   1.267   5.917   3.983
12667TIP3    H137946   1.242   5.884   4.069
12667TIP3    H237947   1.237   6.008   3.982
12668TIP3   OH237948   4.178   7.488   5.930
12668TIP3    H137949   4.161   7.578   5.904
12668TIP3    H237950   4.153   7.436   5.854
12669TIP3   OH237951   3.539   7.742   4.213
12669TIP3    H137952   3.522   7.649   4.227
12669TIP3    H237953   3.608   7.745   4.147
12670TIP3   OH237954   4.437   7.118   4.208
12670TIP3    H137955   4.448   7.065   4.129
12670TIP3    H237956   4.342   7.118   4.223
12671TIP3   OH237957   0.569   2.250   2.618
12671TIP3    H137958   0.617   2.170   2.640
12671TIP3    H237959   0.534   2.281   2.702
12672TIP3   OH237960   2.706   3.886   0.063
12672TIP3    H137961   2.775   3.923   0.118
12672TIP3    H237962   2.709   3.792   0.080
12673TIP3   OH237963   7.464   4.571   2.113
12673TIP3    H137964   7.396   4.513   2.076
12673TIP3    H237965   7.507   4.517   2.179
12674TIP3   OH237966   5.744   6.859   1.223
12674TIP3    H137967   5.746   6.819   1.137
12674TIP3    H237968   5.651   6.869   1.243
12675TIP3   OH237969   4.419   2.523   0.747
12675TIP3    H137970   4.456   2.435   0.759
12675TIP3    H237971   4.330   2.516   0.782
12676TIP3   OH237972   2.158   1.913   6.400
12676TIP3    H137973   2.147   1.896   6.493
12676TIP3    H237974   2.120   1.836   6.357
12677TIP3   OH237975   1.503   5.645   4.079
12677TIP3    H137976   1.513   5.649   4.174
12677TIP3    H237977   1.592   5.636   4.046
12678TIP3   OH237978   5.021   0.082   4.133
12678TIP3    H137979   4.990   0.051   4.047
12678TIP3    H237980   5.083   0.152   4.112
12679TIP3   OH237981   3.336   6.733   6.609
12679TIP3    H137982   3.325   6.781   6.527
12679TIP3    H237983   3.409   6.673   6.592
12680TIP3   OH237984   0.712   6.018   0.814
12680TIP3    H137985   0.711   6.095   0.758
12680TIP3    H237986   0.641   5.963   0.780
12681TIP3   OH237987   1.405   2.772   2.857
12681TIP3    H137988   1.496   2.800   2.852
12681TIP3    H237989   1.362   2.841   2.907
12682TIP3   OH237990   0.551   5.393   6.676
12682TIP3    H137991   0.617   5.358   6.616
12682TIP3    H237992   0.468   5.363   6.639
12683TIP3   OH237993   1.744   6.079   1.786
12683TIP3    H137994   1.725   6.046   1.874
12683TIP3    H237995   1.822   6.134   1.798
12684TIP3   OH237996   2.544   5.319   3.378
12684TIP3    H137997   2.627   5.272   3.388
12684TIP3    H237998   2.566   5.411   3.394
12685TIP3   OH237999   8.119   0.560   4.777
12685TIP3    H138000   8.211   0.541   4.760
12685TIP3    H238001   8.118   0.609   4.859
12686TIP3   OH238002   3.039   2.031   4.636
12686TIP3    H138003   3.066   2.098   4.574
12686TIP3    H238004   3.101   2.039   4.709
12687TIP3   OH238005   6.372   4.286   1.880
12687TIP3    H138006   6.364   4.237   1.798
12687TIP3    H238007   6.365   4.378   1.855
12688TIP3   OH238008   6.526   2.467   2.600
12688TIP3    H138009   6.611   2.470   2.643
12688TIP3    H238010   6.529   2.536   2.534
12689TIP3   OH238011   4.497   0.004   3.658
12689TIP3    H138012   4.456   0.009   3.572
12689TIP3    H238013   4.430   0.039   3.718
12690TIP3   OH238014   5.235   4.252   0.499
12690TIP3    H138015   5.329   4.234   0.498
12690TIP3    H238016   5.214   4.279   0.410
12691TIP3   OH238017   3.280   7.388   1.666
12691TIP3    H138018   3.226   7.465   1.645
12691TIP3    H238019   3.369   7.423   1.676
12692TIP3   OH238020   7.841   3.176   4.367
12692TIP3    H138021   7.823   3.090   4.404
12692TIP3    H238022   7.925   3.167   4.323
12693TIP3   OH238023   7.466   3.518   4.331
12693TIP3    H138024   7.449   3.516   4.237
12693TIP3    H238025   7.415   3.593   4.363
12694TIP3   OH238026   2.507   3.339   2.035
12694TIP3    H138027   2.452   3.349   1.958
12694TIP3    H238028   2.544   3.251   2.028
12695TIP3   OH238029   6.059   3.148   3.531
12695TIP3    H138030   5.987   3.209   3.516
12695TIP3    H238031   6.132   3.185   3.480
12696TIP3   OH238032   4.530   3.586   0.801
12696TIP3    H138033   4.444   3.590   0.841
12696TIP3    H238034   4.588   3.554   0.870
12697TIP3   OH238035   7.898   1.684   5.585
12697TIP3    H138036   7.851   1.652   5.662
12697TIP3    H238037   7.982   1.638   5.588
12698TIP3   OH238038   5.314   6.082   0.420
12698TIP3    H138039   5.243   6.138   0.452
12698TIP3    H238040   5.336   6.027   0.495
12699TIP3   OH238041   7.698   2.253   3.405
12699TIP3    H138042   7.614   2.238   3.364
12699TIP3    H238043   7.701   2.348   3.421
12700TIP3   OH238044   7.686   3.293   2.002
12700TIP3    H138045   7.683   3.232   2.076
12700TIP3    H238046   7.752   3.357   2.026
12701TIP3   OH238047   8.193   6.508   1.257
12701TIP3    H138048   8.176   6.557   1.176
12701TIP3    H238049   8.185   6.416   1.231
12702TIP3   OH238050   2.204   7.152   4.476
12702TIP3    H138051   2.241   7.189   4.396
12702TIP3    H238052   2.268   7.172   4.544
12703TIP3   OH238053   1.353   4.640   6.332
12703TIP3    H138054   1.404   4.719   6.314
12703TIP3    H238055   1.370   4.583   6.257
12704TIP3   OH238056   7.096   0.958   2.814
12704TIP3    H138057   7.110   0.931   2.723
12704TIP3    H238058   7.002   0.948   2.829
12705TIP3   OH238059   1.353   1.670   2.591
12705TIP3    H138060   1.262   1.688   2.566
12705TIP3    H238061   1.375   1.589   2.545
12706TIP3   OH238062   6.747   0.994   0.865
12706TIP3    H138063   6.830   1.037   0.885
12706TIP3    H238064   6.708   0.976   0.951
12707TIP3   OH238065   5.576   0.267   4.092
12707TIP3    H138066   5.602   0.243   4.181
12707TIP3    H238067   5.565   0.362   4.096
12708TIP3   OH238068   5.050   2.217   6.532
12708TIP3    H138069   4.975   2.212   6.591
12708TIP3    H238070   5.082   2.127   6.527
12709TIP3   OH238071   2.702   6.393   4.702
12709TIP3    H138072   2.609   6.415   4.697
12709TIP3    H238073   2.724   6.367   4.612
12710TIP3   OH238074   3.990   5.707   2.240
12710TIP3    H138075   4.006   5.772   2.171
12710TIP3    H238076   3.896   5.689   2.234
12711TIP3   OH238077   2.678   5.809   5.370
12711TIP3    H138078   2.637   5.874   5.427
12711TIP3    H238079   2.650   5.725   5.406
12712TIP3   OH238080   0.996   1.226   4.710
12712TIP3    H138081   1.050   1.160   4.753
12712TIP3    H238082   0.982   1.292   4.778
12713TIP3   OH238083   7.992   4.767   1.153
12713TIP3    H138084   8.027   4.841   1.104
12713TIP3    H238085   7.916   4.801   1.199
12714TIP3   OH238086   0.553   2.389   2.024
12714TIP3    H138087   0.519   2.477   2.040
12714TIP3    H238088   0.489   2.330   2.065
12715TIP3   OH238089   4.932   2.848   1.319
12715TIP3    H138090   4.856   2.804   1.281
12715TIP3    H238091   4.914   2.850   1.413
12716TIP3   OH238092   2.047   3.175   0.905
12716TIP3    H138093   2.001   3.106   0.953
12716TIP3    H238094   2.010   3.172   0.817
12717TIP3   OH238095   5.694   4.206   6.677
12717TIP3    H138096   5.758   4.218   6.747
12717TIP3    H238097   5.666   4.115   6.684
12718TIP3   OH238098   4.496   3.508   3.616
12718TIP3    H138099   4.491   3.563   3.538
12718TIP3    H238100   4.425   3.445   3.605
12719TIP3   OH238101   1.527   6.997   2.292
12719TIP3    H138102   1.582   6.976   2.216
12719TIP3    H238103   1.450   6.941   2.282
12720TIP3   OH238104   1.862   3.282   0.143
12720TIP3    H138105   1.893   3.348   0.081
12720TIP3    H238106   1.851   3.331   0.225
12721TIP3   OH238107   4.325   6.276   3.446
12721TIP3    H138108   4.377   6.199   3.426
12721TIP3    H238109   4.304   6.314   3.361
12722TIP3   OH238110   2.492   6.724   3.833
12722TIP3    H138111   2.441   6.744   3.755
12722TIP3    H238112   2.566   6.785   3.830
12723TIP3   OH238113   7.649   0.084   0.542
12723TIP3    H138114   7.706   0.046   0.476
12723TIP3    H238115   7.660   0.179   0.531
12724TIP3   OH238116   0.927   3.077   1.807
12724TIP3    H138117   0.907   3.167   1.834
12724TIP3    H238118   0.996   3.087   1.741
12725TIP3   OH238119   2.713   2.849   4.561
12725TIP3    H138120   2.657   2.791   4.613
12725TIP3    H238121   2.687   2.937   4.587
12726TIP3   OH238122   5.158   6.365   5.939
12726TIP3    H138123   5.093   6.392   5.875
12726TIP3    H238124   5.139   6.272   5.956
12727TIP3   OH238125   0.645   4.566   3.668
12727TIP3    H138126   0.629   4.491   3.610
12727TIP3    H238127   0.699   4.626   3.616
12728TIP3   OH238128   3.341   7.700   6.458
12728TIP3    H138129   3.323   7.793   6.468
12728TIP3    H238130   3.294   7.674   6.379
12729TIP3   OH238131   1.815   3.962   3.907
12729TIP3    H138132   1.868   4.034   3.873
12729TIP3    H238133   1.783   3.993   3.991
12730TIP3   OH238134   6.269   4.019   3.693
12730TIP3    H138135   6.329   4.032   3.619
12730TIP3    H238136   6.292   4.087   3.755
12731TIP3   OH238137   7.893   7.194   6.649
12731TIP3    H138138   7.846   7.257   6.594
12731TIP3    H238139   7.861   7.211   6.738
12732TIP3   OH238140   0.009   1.813   6.282
12732TIP3    H138141   0.085   1.836   6.335
12732TIP3    H238142   0.002   1.718   6.290
12733TIP3   OH238143   5.614   0.932   4.049
12733TIP3    H138144   5.693   0.879   4.061
12733TIP3    H238145   5.629   0.978   3.966
12734TIP3   OH238146   5.019   0.104   0.941
12734TIP3    H138147   5.111   0.089   0.961
12734TIP3    H238148   5.018   0.128   0.848
12735TIP3   OH238149   3.353   7.075   0.636
12735TIP3    H138150   3.445   7.049   0.644
12735TIP3    H238151   3.329   7.051   0.547
12736TIP3   OH238152   3.819   7.509   5.891
12736TIP3    H138153   3.893   7.552   5.848
12736TIP3    H238154   3.837   7.415   5.881
12737TIP3   OH238155   7.142   1.852   6.155
12737TIP3    H138156   7.116   1.940   6.184
12737TIP3    H238157   7.132   1.855   6.060
12738TIP3   OH238158   7.072   7.621   6.188
12738TIP3    H138159   7.050   7.620   6.281
12738TIP3    H238160   7.167   7.612   6.185
12739TIP3   OH238161   5.483   2.667   6.712
12739TIP3    H138162   5.494   2.736   6.646
12739TIP3    H238163   5.391   2.674   6.738
12740TIP3   OH238164   1.518   1.482   6.155
12740TIP3    H138165   1.547   1.506   6.067
12740TIP3    H238166   1.438   1.532   6.169
12741TIP3   OH238167   1.540   2.018   0.191
12741TIP3    H138168   1.582   1.940   0.228
12741TIP3    H238169   1.508   1.989   0.105
12742TIP3   OH238170   6.018   2.793   2.638
12742TIP3    H138171   5.963   2.762   2.710
12742TIP3    H238172   6.028   2.716   2.581
12743TIP3   OH238173   8.051   1.576   1.993
12743TIP3    H138174   7.981   1.589   2.058
12743TIP3    H238175   8.044   1.484   1.969
12744TIP3   OH238176   0.656   1.418   4.481
12744TIP3    H138177   0.749   1.433   4.469
12744TIP3    H238178   0.650   1.364   4.559
12745TIP3   OH238179   2.208   1.498   6.157
12745TIP3    H138180   2.134   1.559   6.159
12745TIP3    H238181   2.247   1.504   6.244
12746TIP3   OH238182   0.095   1.438   6.708
12746TIP3    H138183   0.179   1.418   6.749
12746TIP3    H238184   0.048   1.355   6.707
12747TIP3   OH238185   3.432   6.312   2.261
12747TIP3    H138186   3.496   6.295   2.193
12747TIP3    H238187   3.394   6.226   2.281
12748TIP3   OH238188   3.940   2.529   0.177
12748TIP3    H138189   3.845   2.518   0.166
12748TIP3    H238190   3.960   2.609   0.129
12749TIP3   OH238191   3.208   6.976   0.092
12749TIP3    H138192   3.298   6.953   0.071
12749TIP3    H238193   3.158   6.897   0.071
12750TIP3   OH238194   6.926   3.841   3.135
12750TIP3    H138195   6.857   3.904   3.153
12750TIP3    H238196   6.958   3.814   3.221
12751TIP3   OH238197   1.942   5.653   5.782
12751TIP3    H138198   2.020   5.678   5.733
12751TIP3    H238199   1.932   5.559   5.765
12752TIP3   OH238200   6.550   6.931   4.267
12752TIP3    H138201   6.617   6.950   4.332
12752TIP3    H238202   6.501   6.857   4.303
12753TIP3   OH238203   7.718   3.339   5.676
12753TIP3    H138204   7.699   3.432   5.693
12753TIP3    H238205   7.777   3.340   5.600
12754TIP3   OH238206   4.864   1.629   2.448
12754TIP3    H138207   4.780   1.629   2.403
12754TIP3    H238208   4.926   1.664   2.385
12755TIP3   OH238209   0.088   5.819   6.300
12755TIP3    H138210   0.108   5.895   6.354
12755TIP3    H238211   0.173   5.780   6.281
12756TIP3   OH238212   5.561   2.093   4.558
12756TIP3    H138213   5.485   2.150   4.566
12756TIP3    H238214   5.555   2.057   4.470
12757TIP3   OH238215   7.348   3.679   2.635
12757TIP3    H138216   7.303   3.710   2.556
12757TIP3    H238217   7.439   3.668   2.607
12758TIP3   OH238218   1.911   1.369   0.095
12758TIP3    H138219   1.961   1.341   0.171
12758TIP3    H238220   1.826   1.325   0.104
12759TIP3   OH238221   8.004   6.987   6.089
12759TIP3    H138222   8.049   7.058   6.136
12759TIP3    H238223   7.931   6.963   6.147
12760TIP3   OH238224   2.680   3.626   1.074
12760TIP3    H138225   2.745   3.670   1.129
12760TIP3    H238226   2.713   3.537   1.064
12761TIP3   OH238227   4.592   6.057   5.155
12761TIP3    H138228   4.523   6.055   5.089
12761TIP3    H238229   4.564   5.995   5.222
12762TIP3   OH238230   5.169   3.977   3.597
12762TIP3    H138231   5.179   3.929   3.679
12762TIP3    H238232   5.259   3.994   3.568
12763TIP3   OH238233   4.941   1.391   4.558
12763TIP3    H138234   4.942   1.485   4.537
12763TIP3    H238235   4.851   1.364   4.540
12764TIP3   OH238236   4.640   0.309   1.234
12764TIP3    H138237   4.571   0.375   1.241
12764TIP3    H238238   4.593   0.228   1.213
12765TIP3   OH238239   5.184   0.732   4.241
12765TIP3    H138240   5.175   0.710   4.148
12765TIP3    H238241   5.200   0.647   4.283
12766TIP3   OH238242   4.260   7.769   0.590
12766TIP3    H138243   4.237   7.844   0.535
12766TIP3    H238244   4.213   7.695   0.550
12767TIP3   OH238245   0.759   7.634   5.570
12767TIP3    H138246   0.743   7.620   5.476
12767TIP3    H238247   0.848   7.670   5.573
12768TIP3   OH238248   0.822   4.525   3.093
12768TIP3    H138249   0.812   4.434   3.064
12768TIP3    H238250   0.840   4.574   3.013
12769TIP3   OH238251   6.110   5.896   3.316
12769TIP3    H138252   6.028   5.872   3.273
12769TIP3    H238253   6.135   5.819   3.366
12770TIP3   OH238254   2.564   5.362   2.752
12770TIP3    H138255   2.633   5.371   2.818
12770TIP3    H238256   2.488   5.334   2.802
12771TIP3   OH238257   5.627   1.893   6.297
12771TIP3    H138258   5.618   1.867   6.205
12771TIP3    H238259   5.722   1.889   6.314
12772TIP3   OH238260   6.970   2.164   3.216
12772TIP3    H138261   7.027   2.221   3.164
12772TIP3    H238262   6.989   2.076   3.185
12773TIP3   OH238263   7.807   2.759   1.223
12773TIP3    H138264   7.845   2.758   1.310
12773TIP3    H238265   7.793   2.852   1.203
12774TIP3   OH238266   5.815   7.542   6.434
12774TIP3    H138267   5.763   7.564   6.356
12774TIP3    H238268   5.884   7.485   6.401
12775TIP3   OH238269   3.094   5.010   3.351
12775TIP3    H138270   3.142   5.020   3.269
12775TIP3    H238271   3.058   4.921   3.347
12776TIP3   OH238272   5.169   5.785   2.662
12776TIP3    H138273   5.221   5.866   2.658
12776TIP3    H238274   5.226   5.718   2.624
12777TIP3   OH238275   8.071   4.049   6.094
12777TIP3    H138276   8.109   4.132   6.120
12777TIP3    H238277   8.078   4.048   5.998
12778TIP3   OH238278   2.268   3.105   1.228
12778TIP3    H138279   2.191   3.124   1.281
12778TIP3    H238280   2.337   3.086   1.292
12779TIP3   OH238281   2.476   6.378   5.113
12779TIP3    H138282   2.535   6.448   5.084
12779TIP3    H238283   2.506   6.300   5.065
12780TIP3   OH238284   7.735   3.284   6.448
12780TIP3    H138285   7.752   3.371   6.412
12780TIP3    H238286   7.784   3.224   6.391
12781TIP3   OH238287   0.036   2.963   0.248
12781TIP3    H138288   0.064   2.947   0.158
12781TIP3    H238289  -0.033   3.030   0.240
12782TIP3   OH238290   1.606   2.040   4.537
12782TIP3    H138291   1.670   2.048   4.466
12782TIP3    H238292   1.647   1.981   4.600
12783TIP3   OH238293   4.531   0.583   5.429
12783TIP3    H138294   4.551   0.675   5.446
12783TIP3    H238295   4.483   0.553   5.506
12784TIP3   OH238296   2.740   7.802   1.702
12784TIP3    H138297   2.703   7.716   1.683
12784TIP3    H238298   2.720   7.817   1.795
12785TIP3   OH238299   2.204   5.367   3.617
12785TIP3    H138300   2.212   5.271   3.614
12785TIP3    H238301   2.221   5.395   3.527
12786TIP3   OH238302   1.311   3.033   0.560
12786TIP3    H138303   1.224   3.034   0.521
12786TIP3    H238304   1.338   3.125   0.560
12787TIP3   OH238305   6.708   2.340   2.030
12787TIP3    H138306   6.743   2.416   2.078
12787TIP3    H238307   6.683   2.279   2.099
12788TIP3   OH238308   7.397   6.178   5.443
12788TIP3    H138309   7.408   6.189   5.537
12788TIP3    H238310   7.423   6.262   5.406
12789TIP3   OH238311   0.562   5.693   0.628
12789TIP3    H138312   0.577   5.768   0.571
12789TIP3    H238313   0.595   5.618   0.577
12790TIP3   OH238314   1.430   1.542   5.278
12790TIP3    H138315   1.339   1.532   5.250
12790TIP3    H238316   1.431   1.623   5.329
12791TIP3   OH238317   5.037   1.963   6.214
12791TIP3    H138318   5.073   1.894   6.159
12791TIP3    H238319   5.026   2.038   6.155
12792TIP3   OH238320   3.608   5.120   3.187
12792TIP3    H138321   3.602   5.104   3.282
12792TIP3    H238322   3.637   5.037   3.151
12793TIP3   OH238323   4.867   6.251   2.569
12793TIP3    H138324   4.841   6.158   2.567
12793TIP3    H238325   4.785   6.299   2.568
12794TIP3   OH238326   6.574   2.043   6.076
12794TIP3    H138327   6.626   1.963   6.087
12794TIP3    H238328   6.578   2.061   5.983
12795TIP3   OH238329   7.571   1.316   0.378
12795TIP3    H138330   7.563   1.304   0.473
12795TIP3    H238331   7.515   1.248   0.341
12796TIP3   OH238332   6.380   1.604   2.311
12796TIP3    H138333   6.432   1.595   2.391
12796TIP3    H238334   6.312   1.668   2.335
12797TIP3   OH238335   0.235   0.222   2.808
12797TIP3    H138336   0.228   0.139   2.853
12797TIP3    H238337   0.170   0.278   2.851
12798TIP3   OH238338   5.202   6.034   5.187
12798TIP3    H138339   5.193   5.995   5.100
12798TIP3    H238340   5.284   5.998   5.220
12799TIP3   OH238341   5.371   7.483   3.586
12799TIP3    H138342   5.316   7.405   3.572
12799TIP3    H238343   5.395   7.478   3.679
12800TIP3   OH238344   1.405   2.710   4.702
12800TIP3    H138345   1.450   2.681   4.781
12800TIP3    H238346   1.357   2.788   4.730
12801TIP3   OH238347   7.904   4.369   0.470
12801TIP3    H138348   7.813   4.395   0.454
12801TIP3    H238349   7.956   4.439   0.432
12802TIP3   OH238350   1.616   6.981   4.736
12802TIP3    H138351   1.659   6.945   4.814
12802TIP3    H238352   1.631   6.915   4.669
12803TIP3   OH238353   2.626   2.033   4.950
12803TIP3    H138354   2.565   1.961   4.931
12803TIP3    H238355   2.709   2.004   4.912
12804TIP3   OH238356   6.460   3.781   6.215
12804TIP3    H138357   6.495   3.812   6.132
12804TIP3    H238358   6.465   3.857   6.273
12805TIP3   OH238359   7.467   1.739   5.601
12805TIP3    H138360   7.485   1.708   5.512
12805TIP3    H238361   7.400   1.807   5.590
12806TIP3   OH238362   4.544   5.801   5.934
12806TIP3    H138363   4.480   5.775   6.000
12806TIP3    H238364   4.620   5.831   5.983
12807TIP3   OH238365   0.532   4.643   1.194
12807TIP3    H138366   0.563   4.675   1.110
12807TIP3    H238367   0.551   4.549   1.192
12808TIP3   OH238368   1.209   5.927   2.100
12808TIP3    H138369   1.129   5.975   2.122
12808TIP3    H238370   1.182   5.835   2.100
12809TIP3   OH238371   4.366   5.923   6.477
12809TIP3    H138372   4.457   5.922   6.508
12809TIP3    H238373   4.373   5.945   6.384
12810TIP3   OH238374   7.226   1.825   1.307
12810TIP3    H138375   7.203   1.902   1.359
12810TIP3    H238376   7.299   1.784   1.355
12811TIP3   OH238377   5.019   3.389   0.124
12811TIP3    H138378   5.039   3.470   0.171
12811TIP3    H238379   4.936   3.360   0.162
12812TIP3   OH238380   0.634   2.013   4.457
12812TIP3    H138381   0.547   1.978   4.476
12812TIP3    H238382   0.671   2.032   4.543
12813TIP3   OH238383   7.020   2.796   6.639
12813TIP3    H138384   6.977   2.827   6.719
12813TIP3    H238385   7.059   2.712   6.663
12814TIP3   OH238386   2.011   7.486   0.932
12814TIP3    H138387   1.916   7.478   0.947
12814TIP3    H238388   2.034   7.571   0.969
12815TIP3   OH238389   7.182   4.417   0.562
12815TIP3    H138390   7.184   4.487   0.627
12815TIP3    H238391   7.091   4.385   0.564
12816TIP3   OH238392   5.992   5.632   6.085
12816TIP3    H138393   6.023   5.675   6.005
12816TIP3    H238394   5.900   5.614   6.067
12817TIP3   OH238395   6.225   6.698   4.029
12817TIP3    H138396   6.270   6.736   3.954
12817TIP3    H238397   6.295   6.683   4.093
12818TIP3   OH238398   8.180   7.861   4.797
12818TIP3    H138399   8.170   7.822   4.710
12818TIP3    H238400   8.132   7.801   4.855
12819TIP3   OH238401   8.168   6.772   1.073
12819TIP3    H138402   8.229   6.838   1.109
12819TIP3    H238403   8.081   6.808   1.091
12820TIP3   OH238404   2.639   2.602   1.003
12820TIP3    H138405   2.608   2.512   1.017
12820TIP3    H238406   2.638   2.614   0.908
12821TIP3   OH238407   5.054   4.132   3.093
12821TIP3    H138408   4.986   4.171   3.149
12821TIP3    H238409   5.088   4.059   3.145
12822TIP3   OH238410   1.818   3.249   3.314
12822TIP3    H138411   1.792   3.329   3.360
12822TIP3    H238412   1.908   3.267   3.285
12823TIP3   OH238413   7.760   7.563   4.655
12823TIP3    H138414   7.794   7.645   4.691
12823TIP3    H238415   7.829   7.500   4.672
12824TIP3   OH238416   0.133   7.768   0.986
12824TIP3    H138417   0.145   7.824   0.909
12824TIP3    H238418   0.175   7.817   1.057
12825TIP3   OH238419   3.636   2.702   2.219
12825TIP3    H138420   3.582   2.771   2.256
12825TIP3    H238421   3.604   2.692   2.129
12826TIP3   OH238422   0.221   1.364   4.140
12826TIP3    H138423   0.128   1.364   4.164
12826TIP3    H238424   0.221   1.349   4.045
12827TIP3   OH238425   6.726   6.697   3.171
12827TIP3    H138426   6.737   6.603   3.156
12827TIP3    H238427   6.751   6.737   3.087
12828TIP3   OH238428   0.387   0.690   4.149
12828TIP3    H138429   0.431   0.736   4.077
12828TIP3    H238430   0.448   0.696   4.223
12829TIP3   OH238431   1.039   4.669   0.603
12829TIP3    H138432   1.127   4.694   0.573
12829TIP3    H238433   0.993   4.752   0.615
12830TIP3   OH238434   7.688   2.737   2.433
12830TIP3    H138435   7.672   2.750   2.526
12830TIP3    H238436   7.624   2.672   2.406
12831TIP3   OH238437   6.082   5.907   2.457
12831TIP3    H138438   6.108   5.991   2.419
12831TIP3    H238439   6.001   5.926   2.504
12832TIP3   OH238440   5.483   2.647   4.019
12832TIP3    H138441   5.441   2.574   4.064
12832TIP3    H238442   5.453   2.725   4.066
12833TIP3   OH238443   0.663   4.394   1.185
12833TIP3    H138444   0.630   4.324   1.242
12833TIP3    H238445   0.721   4.445   1.241
12834TIP3   OH238446   5.772   3.204   6.018
12834TIP3    H138447   5.847   3.146   6.006
12834TIP3    H238448   5.697   3.146   6.023
12835TIP3   OH238449   1.355   0.282   3.874
12835TIP3    H138450   1.405   0.216   3.825
12835TIP3    H238451   1.333   0.239   3.957
12836TIP3   OH238452   3.469   4.251   1.064
12836TIP3    H138453   3.411   4.203   1.005
12836TIP3    H238454   3.414   4.320   1.102
12837TIP3   OH238455   3.731   1.801   1.531
12837TIP3    H138456   3.808   1.778   1.583
12837TIP3    H238457   3.659   1.752   1.571
12838TIP3   OH238458   7.019   0.824   6.404
12838TIP3    H138459   7.036   0.859   6.491
12838TIP3    H238460   6.927   0.800   6.404
12839TIP3   OH238461   1.040   4.774   6.506
12839TIP3    H138462   1.110   4.802   6.565
12839TIP3    H238463   1.060   4.816   6.422
12840TIP3   OH238464   6.988   1.745   0.343
12840TIP3    H138465   7.029   1.813   0.289
12840TIP3    H238466   7.062   1.693   0.374
12841TIP3   OH238467   5.710   0.601   5.628
12841TIP3    H138468   5.786   0.620   5.684
12841TIP3    H238469   5.732   0.639   5.543
12842TIP3   OH238470   1.445   2.144   0.928
12842TIP3    H138471   1.527   2.117   0.886
12842TIP3    H238472   1.410   2.211   0.870
12843TIP3   OH238473   3.690   5.027   0.644
12843TIP3    H138474   3.636   5.018   0.565
12843TIP3    H238475   3.664   4.953   0.700
12844TIP3   OH238476   5.415   4.202   2.445
12844TIP3    H138477   5.454   4.208   2.533
12844TIP3    H238478   5.410   4.108   2.428
12845TIP3   OH238479   5.438   4.239   5.349
12845TIP3    H138480   5.522   4.195   5.361
12845TIP3    H238481   5.414   4.270   5.436
12846TIP3   OH238482   6.625   5.514   3.259
12846TIP3    H138483   6.662   5.599   3.283
12846TIP3    H238484   6.597   5.524   3.168
12847TIP3   OH238485   1.978   4.985   6.483
12847TIP3    H138486   1.992   5.039   6.561
12847TIP3    H238487   2.028   5.029   6.414
12848TIP3   OH238488   4.107   5.582   3.658
12848TIP3    H138489   4.158   5.596   3.737
12848TIP3    H238490   4.046   5.656   3.655
12849TIP3   OH238491   1.164   2.375   6.091
12849TIP3    H138492   1.250   2.337   6.109
12849TIP3    H238493   1.108   2.345   6.162
12850TIP3   OH238494   2.425   2.224   1.572
12850TIP3    H138495   2.473   2.226   1.489
12850TIP3    H238496   2.408   2.132   1.589
12851TIP3   OH238497   0.505   3.794   3.225
12851TIP3    H138498   0.413   3.766   3.223
12851TIP3    H238499   0.533   3.776   3.315
12852TIP3   OH238500   3.952   1.357   0.950
12852TIP3    H138501   3.983   1.283   1.003
12852TIP3    H238502   3.869   1.383   0.990
12853TIP3   OH238503   6.607   6.487   4.840
12853TIP3    H138504   6.670   6.441   4.784
12853TIP3    H238505   6.567   6.552   4.782
12854TIP3   OH238506   4.824   3.375   0.326
12854TIP3    H138507   4.766   3.437   0.283
12854TIP3    H238508   4.774   3.344   0.401
12855TIP3   OH238509   6.180   2.030   5.336
12855TIP3    H138510   6.176   2.125   5.326
12855TIP3    H238511   6.129   1.996   5.263
12856TIP3   OH238512   1.533   3.122   6.332
12856TIP3    H138513   1.477   3.126   6.410
12856TIP3    H238514   1.551   3.214   6.312
12857TIP3   OH238515   0.639   4.965   2.282
12857TIP3    H138516   0.562   4.910   2.298
12857TIP3    H238517   0.641   4.977   2.187
12858TIP3   OH238518   7.010   2.665   0.332
12858TIP3    H138519   6.917   2.662   0.356
12858TIP3    H238520   7.015   2.622   0.248
12859TIP3   OH238521   0.147   1.120   5.508
12859TIP3    H138522   0.122   1.110   5.600
12859TIP3    H238523   0.099   1.051   5.462
12860TIP3   OH238524   3.084   1.505   0.084
12860TIP3    H138525   3.042   1.476   0.165
12860TIP3    H238526   3.128   1.587   0.108
12861TIP3   OH238527   0.680   7.471   0.575
12861TIP3    H138528   0.721   7.475   0.488
12861TIP3    H238529   0.706   7.552   0.617
12862TIP3   OH238530   2.084   0.238   2.265
12862TIP3    H138531   2.148   0.177   2.302
12862TIP3    H238532   2.018   0.182   2.224
12863TIP3   OH238533   7.187   3.378   2.787
12863TIP3    H138534   7.134   3.443   2.740
12863TIP3    H238535   7.242   3.431   2.846
12864TIP3   OH238536   7.218   7.176   3.854
12864TIP3    H138537   7.197   7.088   3.884
12864TIP3    H238538   7.275   7.212   3.922
12865TIP3   OH238539   6.260   1.019   4.035
12865TIP3    H138540   6.279   0.952   3.969
12865TIP3    H238541   6.322   1.002   4.105
12866TIP3   OH238542   4.698   3.913   3.581
12866TIP3    H138543   4.677   4.005   3.567
12866TIP3    H238544   4.613   3.872   3.600
12867TIP3   OH238545   5.634   5.075   4.239
12867TIP3    H138546   5.562   5.013   4.248
12867TIP3    H238547   5.605   5.153   4.286
12868TIP3   OH238548   7.156   3.246   4.134
12868TIP3    H138549   7.247   3.276   4.132
12868TIP3    H238550   7.154   3.178   4.202
12869TIP3   OH238551   1.610   1.329   4.283
12869TIP3    H138552   1.537   1.388   4.267
12869TIP3    H238553   1.656   1.367   4.358
12870TIP3   OH238554   8.054   4.981   5.528
12870TIP3    H138555   8.044   4.888   5.512
12870TIP3    H238556   7.967   5.018   5.513
12871TIP3   OH238557   2.460   1.656   3.315
12871TIP3    H138558   2.424   1.702   3.240
12871TIP3    H238559   2.414   1.692   3.391
12872TIP3   OH238560   6.652   3.666   5.640
12872TIP3    H138561   6.651   3.751   5.595
12872TIP3    H238562   6.736   3.663   5.685
12873TIP3   OH238563   8.161   4.874   4.466
12873TIP3    H138564   8.091   4.809   4.464
12873TIP3    H238565   8.241   4.824   4.447
12874TIP3   OH238566   6.848   6.809   0.320
12874TIP3    H138567   6.854   6.872   0.391
12874TIP3    H238568   6.926   6.826   0.266
12875TIP3   OH238569   5.491   1.658   2.013
12875TIP3    H138570   5.563   1.702   2.059
12875TIP3    H238571   5.535   1.609   1.944
12876TIP3   OH238572   5.394   6.995   6.283
12876TIP3    H138573   5.474   7.047   6.292
12876TIP3    H238574   5.409   6.919   6.340
12877TIP3   OH238575   4.940   2.069   2.947
12877TIP3    H138576   5.031   2.095   2.933
12877TIP3    H238577   4.908   2.049   2.859
12878TIP3   OH238578   5.306  -0.019   2.403
12878TIP3    H138579   5.374   0.041   2.431
12878TIP3    H238580   5.277   0.016   2.318
12879TIP3   OH238581   1.158   6.609   0.850
12879TIP3    H138582   1.151   6.534   0.909
12879TIP3    H238583   1.200   6.575   0.772
12880TIP3   OH238584   6.092   4.110   4.851
12880TIP3    H138585   6.028   4.050   4.813
12880TIP3    H238586   6.175   4.088   4.809
12881TIP3   OH238587   2.707   5.863   2.566
12881TIP3    H138588   2.745   5.904   2.488
12881TIP3    H238589   2.617   5.843   2.542
12882TIP3   OH238590   8.158   5.206   3.790
12882TIP3    H138591   8.202   5.130   3.827
12882TIP3    H238592   8.068   5.201   3.824
12883TIP3   OH238593   7.455   0.022   5.688
12883TIP3    H138594   7.537   0.008   5.735
12883TIP3    H238595   7.400   0.072   5.749
12884TIP3   OH238596   8.212   0.098   3.381
12884TIP3    H138597   8.180   0.164   3.442
12884TIP3    H238598   8.157   0.021   3.397
12885TIP3   OH238599   6.942   6.133   6.543
12885TIP3    H138600   6.947   6.193   6.468
12885TIP3    H238601   7.002   6.171   6.608
12886TIP3   OH238602   3.086   6.246   3.091
12886TIP3    H138603   3.022   6.189   3.048
12886TIP3    H238604   3.044   6.270   3.174
12887TIP3   OH238605   3.543   4.307   0.453
12887TIP3    H138606   3.612   4.269   0.507
12887TIP3    H238607   3.462   4.272   0.489
12888TIP3   OH238608   0.525   6.749   4.995
12888TIP3    H138609   0.600   6.781   5.045
12888TIP3    H238610   0.538   6.786   4.908
12889TIP3   OH238611   2.803   6.271   4.467
12889TIP3    H138612   2.874   6.239   4.522
12889TIP3    H238613   2.736   6.203   4.472
12890TIP3   OH238614   6.597   0.582   3.608
12890TIP3    H138615   6.532   0.612   3.544
12890TIP3    H238616   6.673   0.637   3.593
12891TIP3   OH238617   5.837   6.802   0.613
12891TIP3    H138618   5.823   6.858   0.537
12891TIP3    H238619   5.924   6.764   0.598
12892TIP3   OH238620   6.854   0.296   4.169
12892TIP3    H138621   6.908   0.232   4.214
12892TIP3    H238622   6.791   0.245   4.119
12893TIP3   OH238623   1.585   0.773   0.826
12893TIP3    H138624   1.547   0.860   0.838
12893TIP3    H238625   1.623   0.752   0.911
12894TIP3   OH238626   6.238   4.276   2.254
12894TIP3    H138627   6.189   4.199   2.281
12894TIP3    H238628   6.326   4.243   2.235
12895TIP3   OH238629   0.389   4.369   6.591
12895TIP3    H138630   0.324   4.438   6.583
12895TIP3    H238631   0.405   4.341   6.501
12896TIP3   OH238632   1.926   2.127   3.701
12896TIP3    H138633   1.883   2.208   3.673
12896TIP3    H238634   1.858   2.079   3.748
12897TIP3   OH238635   7.055   0.733   3.475
12897TIP3    H138636   7.003   0.812   3.461
12897TIP3    H238637   6.992   0.665   3.495
12898TIP3   OH238638   4.897   6.913   2.675
12898TIP3    H138639   4.851   6.983   2.722
12898TIP3    H238640   4.973   6.894   2.730
12899TIP3   OH238641   5.547   0.373   0.132
12899TIP3    H138642   5.633   0.363   0.171
12899TIP3    H238643   5.556   0.446   0.071
12900TIP3   OH238644   2.826   4.445   3.471
12900TIP3    H138645   2.761   4.511   3.447
12900TIP3    H238646   2.785   4.394   3.541
12901TIP3   OH238647   1.196   7.077   4.070
12901TIP3    H138648   1.132   7.064   4.140
12901TIP3    H238649   1.268   7.018   4.092
12902TIP3   OH238650   0.119   3.010   5.202
12902TIP3    H138651   0.172   3.069   5.150
12902TIP3    H238652   0.142   2.922   5.171
12903TIP3   OH238653   4.317   6.104   1.991
12903TIP3    H138654   4.248   6.040   1.971
12903TIP3    H238655   4.396   6.051   1.998
12904TIP3   OH238656   6.625   1.677   6.198
12904TIP3    H138657   6.579   1.705   6.119
12904TIP3    H238658   6.574   1.712   6.270
12905TIP3   OH238659   1.114   5.967   3.340
12905TIP3    H138660   1.093   5.874   3.334
12905TIP3    H238661   1.196   5.971   3.389
12906TIP3   OH238662   6.291   3.537   3.930
12906TIP3    H138663   6.273   3.616   3.878
12906TIP3    H238664   6.382   3.516   3.911
12907TIP3   OH238665   4.866   6.712   3.376
12907TIP3    H138666   4.950   6.668   3.376
12907TIP3    H238667   4.815   6.668   3.308
12908TIP3   OH238668   5.601   3.772   4.616
12908TIP3    H138669   5.587   3.832   4.689
12908TIP3    H238670   5.631   3.690   4.656
12909TIP3   OH238671   3.277   3.559   3.923
12909TIP3    H138672   3.236   3.642   3.949
12909TIP3    H238673   3.290   3.512   4.005
12910TIP3   OH238674   0.213   7.645   3.573
12910TIP3    H138675   0.240   7.592   3.648
12910TIP3    H238676   0.242   7.734   3.594
12911TIP3   OH238677   7.509   3.588   0.134
12911TIP3    H138678   7.436   3.558   0.189
12911TIP3    H238679   7.510   3.683   0.145
12912TIP3   OH238680   3.853   1.808   6.439
12912TIP3    H138681   3.904   1.730   6.463
12912TIP3    H238682   3.815   1.838   6.522
12913TIP3   OH238683   5.945   1.478   1.174
12913TIP3    H138684   5.863   1.428   1.169
12913TIP3    H238685   6.014   1.411   1.170
12914TIP3   OH238686   1.416   1.529   4.248
12914TIP3    H138687   1.456   1.616   4.241
12914TIP3    H238688   1.374   1.515   4.163
12915TIP3   OH238689   3.389   5.801   6.531
12915TIP3    H138690   3.396   5.887   6.491
12915TIP3    H238691   3.320   5.757   6.481
12916TIP3   OH238692   6.716   3.361   4.250
12916TIP3    H138693   6.795   3.340   4.201
12916TIP3    H238694   6.714   3.298   4.322
12917TIP3   OH238695   1.953   1.160   4.339
12917TIP3    H138696   1.924   1.197   4.256
12917TIP3    H238697   2.038   1.201   4.355
12918TIP3   OH238698   1.653   4.397   5.435
12918TIP3    H138699   1.622   4.470   5.381
12918TIP3    H238700   1.656   4.432   5.524
12919TIP3   OH238701   6.746   5.374   4.056
12919TIP3    H138702   6.779   5.327   4.133
12919TIP3    H238703   6.811   5.357   3.988
12920TIP3   OH238704   0.132   4.059   5.044
12920TIP3    H138705   0.050   4.097   5.015
12920TIP3    H238706   0.189   4.134   5.063
12921TIP3   OH238707   0.318   4.065   3.264
12921TIP3    H138708   0.341   4.026   3.180
12921TIP3    H238709   0.229   4.035   3.280
12922TIP3   OH238710   0.231   5.788   4.910
12922TIP3    H138711   0.182   5.773   4.990
12922TIP3    H238712   0.203   5.719   4.850
12923TIP3   OH238713   5.299   6.253   2.686
12923TIP3    H138714   5.315   6.168   2.728
12923TIP3    H238715   5.206   6.271   2.702
12924TIP3   OH238716   6.410   2.422   2.191
12924TIP3    H138717   6.367   2.338   2.208
12924TIP3    H238718   6.439   2.417   2.100
12925TIP3   OH238719   7.816   5.761   1.238
12925TIP3    H138720   7.897   5.709   1.238
12925TIP3    H238721   7.827   5.821   1.164
12926TIP3   OH238722   0.174   7.130   5.654
12926TIP3    H138723   0.222   7.180   5.720
12926TIP3    H238724   0.224   7.049   5.645
12927TIP3   OH238725   2.664   5.432   5.898
12927TIP3    H138726   2.633   5.500   5.838
12927TIP3    H238727   2.746   5.467   5.933
12928TIP3   OH238728   2.013   0.103   5.877
12928TIP3    H138729   2.077   0.117   5.946
12928TIP3    H238730   1.932   0.141   5.911
12929TIP3   OH238731   5.038   2.889   5.502
12929TIP3    H138732   5.053   2.835   5.580
12929TIP3    H238733   4.976   2.839   5.450
12930TIP3   OH238734   5.805   4.441   5.242
12930TIP3    H138735   5.896   4.460   5.263
12930TIP3    H238736   5.800   4.346   5.238
12931TIP3   OH238737   5.464   0.949   0.309
12931TIP3    H138738   5.379   0.916   0.282
12931TIP3    H238739   5.457   0.959   0.404
12932TIP3   OH238740   4.396   2.339   3.848
12932TIP3    H138741   4.472   2.320   3.792
12932TIP3    H238742   4.327   2.281   3.815
12933TIP3   OH238743   3.056   1.820   3.052
12933TIP3    H138744   3.077   1.755   2.985
12933TIP3    H238745   3.015   1.892   3.004
12934TIP3   OH238746   3.989   4.548   6.250
12934TIP3    H138747   3.957   4.544   6.160
12934TIP3    H238748   3.962   4.464   6.288
12935TIP3   OH238749   2.856   0.242   2.157
12935TIP3    H138750   2.944   0.245   2.119
12935TIP3    H238751   2.850   0.155   2.197
12936TIP3   OH238752   4.246   2.161   1.249
12936TIP3    H138753   4.278   2.073   1.268
12936TIP3    H238754   4.160   2.166   1.291
12937TIP3   OH238755   8.071   0.870   3.434
12937TIP3    H138756   8.027   0.786   3.448
12937TIP3    H238757   8.165   0.849   3.439
12938TIP3   OH238758   0.672   2.570   5.926
12938TIP3    H138759   0.756   2.616   5.920
12938TIP3    H238760   0.681   2.498   5.864
12939TIP3   OH238761   5.577   3.878   5.964
12939TIP3    H138762   5.546   3.929   6.039
12939TIP3    H238763   5.560   3.934   5.888
12940TIP3   OH238764   6.000   1.585   3.137
12940TIP3    H138765   5.974   1.530   3.211
12940TIP3    H238766   5.919   1.601   3.089
12941TIP3   OH238767   4.473   4.528   4.763
12941TIP3    H138768   4.439   4.511   4.675
12941TIP3    H238769   4.422   4.603   4.795
12942TIP3   OH238770   7.623   0.575   6.273
12942TIP3    H138771   7.623   0.589   6.368
12942TIP3    H238772   7.715   0.582   6.248
12943TIP3   OH238773   7.912   0.700   1.187
12943TIP3    H138774   7.975   0.652   1.242
12943TIP3    H238775   7.838   0.640   1.178
12944TIP3   OH238776   3.725   2.886   6.196
12944TIP3    H138777   3.705   2.802   6.154
12944TIP3    H238778   3.641   2.915   6.232
12945TIP3   OH238779   2.608   5.896   5.620
12945TIP3    H138780   2.701   5.917   5.629
12945TIP3    H238781   2.569   5.926   5.702
12946TIP3   OH238782   3.632   1.518   6.093
12946TIP3    H138783   3.723   1.545   6.087
12946TIP3    H238784   3.629   1.433   6.049
12947TIP3   OH238785   6.705   0.431   4.874
12947TIP3    H138786   6.677   0.353   4.827
12947TIP3    H238787   6.629   0.456   4.926
12948TIP3   OH238788   7.388   1.648   6.088
12948TIP3    H138789   7.422   1.676   6.003
12948TIP3    H238790   7.296   1.677   6.087
12949TIP3   OH238791   3.923   5.491   3.083
12949TIP3    H138792   3.853   5.540   3.126
12949TIP3    H238793   3.878   5.416   3.043
12950TIP3   OH238794   7.611   0.753   1.292
12950TIP3    H138795   7.604   0.704   1.210
12950TIP3    H238796   7.642   0.839   1.266
12951TIP3   OH238797   2.326   7.196   4.218
12951TIP3    H138798   2.394   7.258   4.192
12951TIP3    H238799   2.371   7.111   4.223
12952TIP3   OH238800   6.884   7.348   2.410
12952TIP3    H138801   6.872   7.434   2.450
12952TIP3    H238802   6.929   7.296   2.477
12953TIP3   OH238803   2.480   3.162   4.828
12953TIP3    H138804   2.528   3.086   4.861
12953TIP3    H238805   2.414   3.180   4.895
12954TIP3   OH238806   4.472   6.220   1.517
12954TIP3    H138807   4.382   6.187   1.528
12954TIP3    H238808   4.513   6.206   1.602
12955TIP3   OH238809   4.601   2.982   1.155
12955TIP3    H138810   4.689   2.967   1.121
12955TIP3    H238811   4.549   2.910   1.120
12956TIP3   OH238812   2.461   5.736   5.198
12956TIP3    H138813   2.552   5.752   5.223
12956TIP3    H238814   2.465   5.658   5.143
12957TIP3   OH238815   5.055   7.274   6.637
12957TIP3    H138816   5.136   7.253   6.684
12957TIP3    H238817   5.034   7.363   6.664
12958TIP3   OH238818   2.135   0.512   0.252
12958TIP3    H138819   2.143   0.425   0.292
12958TIP3    H238820   2.101   0.567   0.322
12959TIP3   OH238821   0.848   0.332   4.267
12959TIP3    H138822   0.837   0.337   4.362
12959TIP3    H238823   0.857   0.239   4.249
12960TIP3   OH238824   1.688   5.377   1.016
12960TIP3    H138825   1.723   5.304   0.964
12960TIP3    H238826   1.763   5.433   1.031
12961TIP3   OH238827   4.261   6.323   2.895
12961TIP3    H138828   4.286   6.302   2.985
12961TIP3    H238829   4.296   6.411   2.880
12962TIP3   OH238830   6.367   5.807   4.766
12962TIP3    H138831   6.453   5.843   4.745
12962TIP3    H238832   6.376   5.775   4.856
12963TIP3   OH238833   4.558   7.191   3.291
12963TIP3    H138834   4.497   7.188   3.365
12963TIP3    H238835   4.600   7.277   3.297
12964TIP3   OH238836   0.632   3.090   3.520
12964TIP3    H138837   0.606   3.176   3.486
12964TIP3    H238838   0.556   3.034   3.505
12965TIP3   OH238839   5.470   5.047   6.672
12965TIP3    H138840   5.431   5.073   6.756
12965TIP3    H238841   5.407   5.077   6.606
12966TIP3   OH238842   6.128   7.179   3.627
12966TIP3    H138843   6.142   7.228   3.708
12966TIP3    H238844   6.148   7.088   3.650
12967TIP3   OH238845   1.133   5.077   4.629
12967TIP3    H138846   1.138   5.018   4.704
12967TIP3    H238847   1.150   5.164   4.665
12968TIP3   OH238848   5.137   3.646   6.050
12968TIP3    H138849   5.142   3.572   6.110
12968TIP3    H238850   5.228   3.673   6.038
12969TIP3   OH238851   0.855   2.411   3.310
12969TIP3    H138852   0.928   2.429   3.251
12969TIP3    H238853   0.890   2.351   3.376
12970TIP3   OH238854   6.023   0.826   4.715
12970TIP3    H138855   6.070   0.785   4.642
12970TIP3    H238856   6.086   0.886   4.754
12971TIP3   OH238857   3.648   6.386   1.540
12971TIP3    H138858   3.633   6.305   1.589
12971TIP3    H238859   3.562   6.407   1.503
12972TIP3   OH238860   8.127   0.543   1.640
12972TIP3    H138861   8.040   0.573   1.667
12972TIP3    H238862   8.125   0.546   1.544
12973TIP3   OH238863   1.605   2.956   1.020
12973TIP3    H138864   1.641   2.899   0.953
12973TIP3    H238865   1.628   3.045   0.992
12974TIP3   OH238866   8.062   3.414   5.008
12974TIP3    H138867   8.017   3.361   4.942
12974TIP3    H238868   8.051   3.504   4.977
12975TIP3   OH238869   4.788   3.456   0.624
12975TIP3    H138870   4.752   3.464   0.712
12975TIP3    H238871   4.842   3.534   0.612
12976TIP3   OH238872   1.075   5.665   5.487
12976TIP3    H138873   1.039   5.654   5.399
12976TIP3    H238874   1.084   5.760   5.497
12977TIP3   OH238875   4.497   0.296   3.135
12977TIP3    H138876   4.476   0.318   3.225
12977TIP3    H238877   4.426   0.336   3.084
12978TIP3   OH238878   8.259   1.951   2.971
12978TIP3    H138879   8.263   2.045   2.959
12978TIP3    H238880   8.273   1.915   2.883
12979TIP3   OH238881   0.580   5.343   6.227
12979TIP3    H138882   0.606   5.253   6.205
12979TIP3    H238883   0.523   5.370   6.155
12980TIP3   OH238884   5.575   0.226   6.447
12980TIP3    H138885   5.531   0.306   6.477
12980TIP3    H238886   5.558   0.223   6.353
12981TIP3   OH238887   5.778   7.252   0.515
12981TIP3    H138888   5.685   7.272   0.506
12981TIP3    H238889   5.809   7.313   0.582
12982TIP3   OH238890   5.275   2.181   1.445
12982TIP3    H138891   5.312   2.243   1.507
12982TIP3    H238892   5.220   2.234   1.387
12983TIP3   OH238893   4.615   0.062   3.275
12983TIP3    H138894   4.706   0.078   3.302
12983TIP3    H238895   4.589   0.142   3.230
12984TIP3   OH238896   5.345   6.002   2.811
12984TIP3    H138897   5.286   6.018   2.885
12984TIP3    H238898   5.432   5.998   2.850
12985TIP3   OH238899   5.479   3.194   0.336
12985TIP3    H138900   5.562   3.214   0.293
12985TIP3    H238901   5.412   3.232   0.279
12986TIP3   OH238902   4.665   1.192   3.487
12986TIP3    H138903   4.691   1.283   3.504
12986TIP3    H238904   4.586   1.180   3.539
12987TIP3   OH238905   8.049   2.650   5.979
12987TIP3    H138906   8.117   2.700   5.935
12987TIP3    H238907   8.095   2.597   6.044
12988TIP3   OH238908   0.288   2.599   3.771
12988TIP3    H138909   0.355   2.579   3.706
12988TIP3    H238910   0.219   2.534   3.755
12989TIP3   OH238911   2.410   7.185   6.762
12989TIP3    H138912   2.323   7.173   6.799
12989TIP3    H238913   2.413   7.126   6.687
12990TIP3   OH238914   2.022   4.639   4.402
12990TIP3    H138915   1.943   4.607   4.446
12990TIP3    H238916   2.013   4.735   4.403
12991TIP3   OH238917   6.102   1.313   1.808
12991TIP3    H138918   6.148   1.374   1.864
12991TIP3    H238919   6.029   1.363   1.772
12992TIP3   OH238920   0.204   1.975   3.100
12992TIP3    H138921   0.171   1.935   3.180
12992TIP3    H238922   0.136   1.959   3.035
12993TIP3   OH238923   1.725   3.517   5.806
12993TIP3    H138924   1.788   3.566   5.753
12993TIP3    H238925   1.736   3.551   5.895
12994TIP3   OH238926   0.491   0.281   3.676
12994TIP3    H138927   0.528   0.367   3.655
12994TIP3    H238928   0.399   0.300   3.696
12995TIP3   OH238929   1.198   4.882   1.684
12995TIP3    H138930   1.219   4.975   1.690
12995TIP3    H238931   1.179   4.856   1.775
12996TIP3   OH238932   0.021   0.390   2.956
12996TIP3    H138933  -0.001   0.332   3.029
12996TIP3    H238934  -0.036   0.361   2.885
12997TIP3   OH238935   4.227   4.400   5.396
12997TIP3    H138936   4.203   4.481   5.352
12997TIP3    H238937   4.209   4.331   5.332
12998TIP3   OH238938   1.074   5.093   4.955
12998TIP3    H138939   0.996   5.103   4.901
12998TIP3    H238940   1.100   5.182   4.977
12999TIP3   OH238941   5.864   2.289   3.598
12999TIP3    H138942   5.804   2.266   3.527
12999TIP3    H238943   5.810   2.286   3.677
13000TIP3   OH238944   7.715   3.130   3.981
13000TIP3    H138945   7.750   3.058   4.035
13000TIP3    H238946   7.776   3.202   3.996
13001TIP3   OH238947   7.870   4.483   0.895
13001TIP3    H138948   7.794   4.506   0.949
13001TIP3    H238949   7.839   4.411   0.840
13002TIP3   OH238950   5.320   7.838   0.427
13002TIP3    H138951   5.312   7.815   0.520
13002TIP3    H238952   5.298   7.758   0.380
13003TIP3   OH238953   6.572   2.264   2.828
13003TIP3    H138954   6.659   2.240   2.860
13003TIP3    H238955   6.556   2.351   2.866
13004TIP3   OH238956   5.894   6.411   5.670
13004TIP3    H138957   5.987   6.389   5.661
13004TIP3    H238958   5.848   6.339   5.627
13005TIP3   OH238959   3.973   7.314   0.484
13005TIP3    H138960   4.055   7.356   0.510
13005TIP3    H238961   4.000   7.226   0.455
13006TIP3   OH238962   0.625   2.278   6.575
13006TIP3    H138963   0.708   2.292   6.528
13006TIP3    H238964   0.562   2.334   6.531
13007TIP3   OH238965   6.801   7.555   1.296
13007TIP3    H138966   6.794   7.572   1.202
13007TIP3    H238967   6.725   7.501   1.316
13008TIP3   OH238968   5.983   7.499   2.910
13008TIP3    H138969   6.025   7.568   2.961
13008TIP3    H238970   5.939   7.545   2.839
13009TIP3   OH238971   0.093   0.486   1.335
13009TIP3    H138972   0.002   0.458   1.336
13009TIP3    H238973   0.141   0.412   1.298
13010TIP3   OH238974   7.814   6.849   0.021
13010TIP3    H138975   7.808   6.903   0.100
13010TIP3    H238976   7.726   6.815   0.008
13011TIP3   OH238977   6.060   7.687   4.136
13011TIP3    H138978   6.058   7.781   4.122
13011TIP3    H238979   6.153   7.665   4.136
13012TIP3   OH238980   6.320   0.095   3.512
13012TIP3    H138981   6.380   0.144   3.455
13012TIP3    H238982   6.324   0.141   3.596
13013TIP3   OH238983   4.924   5.357   6.150
13013TIP3    H138984   4.942   5.400   6.066
13013TIP3    H238985   4.829   5.361   6.159
13014TIP3   OH238986   7.226   3.928   0.715
13014TIP3    H138987   7.181   4.008   0.743
13014TIP3    H238988   7.315   3.957   0.696
13015TIP3   OH238989   0.224   5.157   3.000
13015TIP3    H138990   0.137   5.197   2.994
13015TIP3    H238991   0.207   5.063   2.992
13016TIP3   OH238992   2.588   1.238   6.298
13016TIP3    H138993   2.587   1.220   6.204
13016TIP3    H238994   2.604   1.153   6.339
13017TIP3   OH238995   7.280   5.249   4.817
13017TIP3    H138996   7.326   5.296   4.887
13017TIP3    H238997   7.349   5.221   4.758
13018TIP3   OH238998   1.212   7.583   3.125
13018TIP3    H138999   1.169   7.572   3.209
13018TIP3    H239000   1.208   7.496   3.084
13019TIP3   OH239001   2.563   6.737   2.465
13019TIP3    H139002   2.647   6.715   2.505
13019TIP3    H239003   2.568   6.701   2.377
13020TIP3   OH239004   8.175   4.269   6.188
13020TIP3    H139005   8.235   4.298   6.256
13020TIP3    H239006   8.090   4.264   6.231
13021TIP3   OH239007   2.899   5.938   1.900
13021TIP3    H139008   2.865   5.988   1.826
13021TIP3    H239009   2.821   5.916   1.951
13022TIP3   OH239010   2.703   4.605   5.512
13022TIP3    H139011   2.718   4.513   5.493
13022TIP3    H239012   2.768   4.651   5.458
13023TIP3   OH239013   3.559   4.185   5.844
13023TIP3    H139014   3.652   4.165   5.828
13023TIP3    H239015   3.512   4.111   5.808
13024TIP3   OH239016   6.341   4.295   3.790
13024TIP3    H139017   6.399   4.368   3.772
13024TIP3    H239018   6.301   4.316   3.875
13025TIP3   OH239019   5.526   2.948   0.418
13025TIP3    H139020   5.509   2.983   0.506
13025TIP3    H239021   5.493   3.015   0.359
13026TIP3   OH239022   1.933   4.742   2.930
13026TIP3    H139023   2.018   4.699   2.939
13026TIP3    H239024   1.919   4.786   3.014
13027TIP3   OH239025   5.473   2.656   0.836
13027TIP3    H139026   5.411   2.666   0.909
13027TIP3    H239027   5.420   2.671   0.758
13028TIP3   OH239028   1.434   3.561   0.887
13028TIP3    H139029   1.424   3.467   0.900
13028TIP3    H239030   1.407   3.599   0.971
13029TIP3   OH239031   5.654   4.534   4.353
13029TIP3    H139032   5.620   4.468   4.414
13029TIP3    H239033   5.748   4.535   4.369
13030TIP3   OH239034   7.380   2.628   1.675
13030TIP3    H139035   7.438   2.665   1.609
13030TIP3    H239036   7.417   2.656   1.759
13031TIP3   OH239037   5.136   6.995   3.411
13031TIP3    H139038   5.168   6.905   3.408
13031TIP3    H239039   5.077   6.997   3.486
13032TIP3   OH239040   0.310   7.230   5.243
13032TIP3    H139041   0.324   7.241   5.337
13032TIP3    H239042   0.391   7.258   5.202
13033TIP3   OH239043   2.800   1.671   2.975
13033TIP3    H139044   2.789   1.764   2.957
13033TIP3    H239045   2.889   1.650   2.945
13034TIP3   OH239046   6.905   2.831   6.165
13034TIP3    H139047   6.992   2.852   6.130
13034TIP3    H239048   6.845   2.884   6.114
13035TIP3   OH239049   2.657   7.175   5.670
13035TIP3    H139050   2.729   7.162   5.732
13035TIP3    H239051   2.578   7.169   5.724
13036TIP3   OH239052   2.054   7.589   4.185
13036TIP3    H139053   2.003   7.606   4.106
13036TIP3    H239054   2.036   7.498   4.206
13037TIP3   OH239055   1.279   7.413   5.090
13037TIP3    H139056   1.272   7.318   5.082
13037TIP3    H239057   1.283   7.430   5.184
13038TIP3   OH239058   1.242   4.564   6.556
13038TIP3    H139059   1.297   4.584   6.481
13038TIP3    H239060   1.153   4.576   6.525
13039TIP3   OH239061   6.388   0.538   1.524
13039TIP3    H139062   6.451   0.505   1.588
13039TIP3    H239063   6.426   0.621   1.494
13040TIP3   OH239064   2.690   4.530   3.110
13040TIP3    H139065   2.604   4.554   3.144
13040TIP3    H239066   2.672   4.489   3.026
13041TIP3   OH239067   4.195   2.171   4.885
13041TIP3    H139068   4.195   2.258   4.844
13041TIP3    H239069   4.163   2.187   4.973
13042TIP3   OH239070   6.656   5.226   0.013
13042TIP3    H139071   6.643   5.319  -0.004
13042TIP3    H239072   6.677   5.221   0.107
13043TIP3   OH239073   7.717   3.793   6.072
13043TIP3    H139074   7.757   3.771   6.156
13043TIP3    H239075   7.626   3.766   6.081
13044TIP3   OH239076   5.052   4.602   1.635
13044TIP3    H139077   5.068   4.690   1.669
13044TIP3    H239078   5.062   4.545   1.711
13045TIP3   OH239079   6.778   1.821   1.432
13045TIP3    H139080   6.842   1.889   1.411
13045TIP3    H239081   6.830   1.753   1.476
13046TIP3   OH239082   0.126   5.254   3.511
13046TIP3    H139083   0.066   5.180   3.503
13046TIP3    H239084   0.070   5.331   3.519
13047TIP3   OH239085   2.813   3.725   3.388
13047TIP3    H139086   2.869   3.680   3.325
13047TIP3    H239087   2.741   3.663   3.403
13048TIP3   OH239088   6.710   2.153   0.517
13048TIP3    H139089   6.683   2.194   0.435
13048TIP3    H239090   6.728   2.062   0.493
13049TIP3   OH239091   2.262   3.169   0.408
13049TIP3    H139092   2.275   3.232   0.337
13049TIP3    H239093   2.207   3.101   0.369
13050TIP3   OH239094   3.618   7.808   3.846
13050TIP3    H139095   3.578   7.723   3.829
13050TIP3    H239096   3.692   7.789   3.904
13051TIP3   OH239097   6.768   2.600   2.117
13051TIP3    H139098   6.719   2.639   2.045
13051TIP3    H239099   6.850   2.648   2.120
13052TIP3   OH239100   1.658   1.069   3.526
13052TIP3    H139101   1.704   1.094   3.446
13052TIP3    H239102   1.631   1.152   3.565
13053TIP3   OH239103   4.449   4.574   2.752
13053TIP3    H139104   4.501   4.566   2.672
13053TIP3    H239105   4.454   4.667   2.774
13054TIP3   OH239106   6.863   4.822   6.572
13054TIP3    H139107   6.774   4.798   6.546
13054TIP3    H239108   6.905   4.851   6.491
13055TIP3   OH239109   0.193   1.990   2.434
13055TIP3    H139110   0.196   1.927   2.506
13055TIP3    H239111   0.273   1.975   2.385
13056TIP3   OH239112   7.066   2.668   1.134
13056TIP3    H139113   7.139   2.611   1.157
13056TIP3    H239114   7.080   2.747   1.186
13057TIP3   OH239115   1.487   0.302   1.385
13057TIP3    H139116   1.481   0.213   1.351
13057TIP3    H239117   1.565   0.300   1.441
13058TIP3   OH239118   1.854   4.221   2.827
13058TIP3    H139119   1.912   4.159   2.782
13058TIP3    H239120   1.815   4.171   2.898
13059TIP3   OH239121   1.131   3.146   0.393
13059TIP3    H139122   1.059   3.141   0.331
13059TIP3    H239123   1.207   3.174   0.341
13060TIP3   OH239124   3.733   0.361   1.137
13060TIP3    H139125   3.808   0.351   1.078
13060TIP3    H239126   3.721   0.455   1.145
13061TIP3   OH239127   2.146   2.286   3.846
13061TIP3    H139128   2.092   2.335   3.784
13061TIP3    H239129   2.090   2.213   3.873
13062TIP3   OH239130   8.207   4.894   0.112
13062TIP3    H139131   8.246   4.812   0.143
13062TIP3    H239132   8.276   4.937   0.063
13063TIP3   OH239133   7.492   7.715   4.322
13063TIP3    H139134   7.443   7.667   4.256
13063TIP3    H239135   7.437   7.712   4.400
13064TIP3   OH239136   1.099   2.615   5.417
13064TIP3    H139137   1.026   2.594   5.358
13064TIP3    H239138   1.171   2.640   5.358
13065TIP3   OH239139   8.172   4.824   0.484
13065TIP3    H139140   8.106   4.814   0.415
13065TIP3    H239141   8.248   4.777   0.450
13066TIP3   OH239142   3.512   4.391   5.604
13066TIP3    H139143   3.423   4.390   5.569
13066TIP3    H239144   3.502   4.365   5.696
13067TIP3   OH239145   4.632   5.086   6.267
13067TIP3    H139146   4.675   5.073   6.351
13067TIP3    H239147   4.569   5.014   6.260
13068TIP3   OH239148   4.758   0.810   1.719
13068TIP3    H139149   4.794   0.848   1.799
13068TIP3    H239150   4.777   0.716   1.727
13069TIP3   OH239151   3.507   1.319   1.706
13069TIP3    H139152   3.536   1.347   1.619
13069TIP3    H239153   3.494   1.400   1.755
13070TIP3   OH239154   8.344   5.977   3.626
13070TIP3    H139155   8.248   5.966   3.630
13070TIP3    H239156   8.357   6.059   3.578
13071TIP3   OH239157   6.989   2.206   5.658
13071TIP3    H139158   6.894   2.208   5.669
13071TIP3    H239159   7.022   2.263   5.727
13072TIP3   OH239160   2.329   5.526   1.433
13072TIP3    H139161   2.420   5.549   1.450
13072TIP3    H239162   2.278   5.593   1.479
13073TIP3   OH239163   0.317   0.924   6.615
13073TIP3    H139164   0.264   1.001   6.595
13073TIP3    H239165   0.379   0.953   6.682
13074TIP3   OH239166   5.299   7.289  -0.030
13074TIP3    H139167   5.216   7.241  -0.027
13074TIP3    H239168   5.349   7.255   0.044
13075TIP3   OH239169   2.322   0.088   6.487
13075TIP3    H139170   2.305   0.163   6.544
13075TIP3    H239171   2.342   0.017   6.547
13076TIP3   OH239172   8.081   6.408   3.251
13076TIP3    H139173   8.030   6.489   3.250
13076TIP3    H239174   8.043   6.357   3.322
13077TIP3   OH239175   2.592   2.686   3.094
13077TIP3    H139176   2.611   2.616   3.157
13077TIP3    H239177   2.627   2.765   3.135
13078TIP3   OH239178   1.582   0.102   0.341
13078TIP3    H139179   1.561   0.022   0.388
13078TIP3    H239180   1.507   0.116   0.282
13079TIP3   OH239181   6.306   0.442   5.235
13079TIP3    H139182   6.218   0.404   5.243
13079TIP3    H239183   6.296   0.532   5.266
13080TIP3   OH239184   7.864   6.398   0.465
13080TIP3    H139185   7.857   6.308   0.432
13080TIP3    H239186   7.785   6.410   0.517
13081TIP3   OH239187   5.472   0.847   0.574
13081TIP3    H139188   5.441   0.761   0.602
13081TIP3    H239189   5.527   0.877   0.646
13082TIP3   OH239190   4.873   5.936   5.754
13082TIP3    H139191   4.884   5.967   5.843
13082TIP3    H239192   4.961   5.932   5.718
13083TIP3   OH239193   5.489   3.624   3.037
13083TIP3    H139194   5.551   3.606   3.108
13083TIP3    H239195   5.447   3.706   3.062
13084TIP3   OH239196   1.491   7.567   0.958
13084TIP3    H139197   1.481   7.486   1.007
13084TIP3    H239198   1.460   7.635   1.017
13085TIP3   OH239199   1.498   2.476   2.593
13085TIP3    H139200   1.419   2.468   2.539
13085TIP3    H239201   1.517   2.387   2.622
13086TIP3   OH239202   3.384   6.573   4.477
13086TIP3    H139203   3.368   6.483   4.450
13086TIP3    H239204   3.397   6.568   4.572
13087TIP3   OH239205   2.441   7.022   1.499
13087TIP3    H139206   2.367   7.024   1.560
13087TIP3    H239207   2.463   7.114   1.485
13088TIP3   OH239208   3.750   2.203   0.673
13088TIP3    H139209   3.808   2.127   0.681
13088TIP3    H239210   3.736   2.212   0.579
13089TIP3   OH239211   2.849   6.094   5.357
13089TIP3    H139212   2.911   6.142   5.301
13089TIP3    H239213   2.806   6.161   5.408
13090TIP3   OH239214   2.119   7.600   5.067
13090TIP3    H139215   2.119   7.694   5.050
13090TIP3    H239216   2.186   7.565   5.009
13091TIP3   OH239217   5.192   2.444   3.588
13091TIP3    H139218   5.106   2.405   3.571
13091TIP3    H239219   5.220   2.405   3.671
13092TIP3   OH239220   0.994   5.739   1.679
13092TIP3    H139221   1.017   5.775   1.594
13092TIP3    H239222   0.989   5.644   1.665
13093TIP3   OH239223   4.919   5.909   1.045
13093TIP3    H139224   4.848   5.865   1.091
13093TIP3    H239225   4.996   5.894   1.099
13094TIP3   OH239226   1.535   0.085   6.334
13094TIP3    H139227   1.452   0.063   6.376
13094TIP3    H239228   1.527   0.051   6.245
13095TIP3   OH239229   3.420   2.754   2.712
13095TIP3    H139230   3.485   2.684   2.708
13095TIP3    H239231   3.460   2.821   2.767
13096TIP3   OH239232   1.257   1.452   6.701
13096TIP3    H139233   1.187   1.406   6.655
13096TIP3    H239234   1.314   1.382   6.733
13097TIP3   OH239235   2.783   4.518   6.063
13097TIP3    H139236   2.702   4.471   6.046
13097TIP3    H239237   2.852   4.452   6.053
13098TIP3   OH239238   3.588   5.785   3.843
13098TIP3    H139239   3.520   5.779   3.776
13098TIP3    H239240   3.560   5.724   3.912
13099TIP3   OH239241   6.309   7.085   5.511
13099TIP3    H139242   6.343   7.065   5.598
13099TIP3    H239243   6.263   7.006   5.485
13100TIP3   OH239244   5.623   5.645   4.541
13100TIP3    H139245   5.538   5.689   4.536
13100TIP3    H239246   5.625   5.609   4.630
13101TIP3   OH239247   6.676   1.369   3.900
13101TIP3    H139248   6.613   1.297   3.913
13101TIP3    H239249   6.683   1.377   3.805
13102TIP3   OH239250   8.288   5.238   1.920
13102TIP3    H139251   8.295   5.281   2.005
13102TIP3    H239252   8.231   5.296   1.869
13103TIP3   OH239253   5.854   7.320   3.064
13103TIP3    H139254   5.863   7.226   3.048
13103TIP3    H239255   5.899   7.361   2.991
13104TIP3   OH239256   0.566   1.620   1.625
13104TIP3    H139257   0.654   1.642   1.657
13104TIP3    H239258   0.507   1.666   1.684
13105TIP3   OH239259   4.143   5.195   6.669
13105TIP3    H139260   4.167   5.131   6.736
13105TIP3    H239261   4.054   5.222   6.693
13106TIP3   OH239262   4.973   0.902   1.882
13106TIP3    H139263   5.005   0.824   1.835
13106TIP3    H239264   4.998   0.975   1.826
13107TIP3   OH239265   2.994   1.278   4.250
13107TIP3    H139266   2.903   1.285   4.222
13107TIP3    H239267   3.037   1.354   4.209
13108TIP3   OH239268   6.121   2.150   0.377
13108TIP3    H139269   6.112   2.236   0.336
13108TIP3    H239270   6.202   2.156   0.428
13109TIP3   OH239271   1.427   2.026   4.822
13109TIP3    H139272   1.508   1.979   4.805
13109TIP3    H239273   1.365   1.959   4.851
13110TIP3   OH239274   0.898   0.253   2.786
13110TIP3    H139275   0.934   0.271   2.872
13110TIP3    H239276   0.930   0.324   2.731
13111TIP3   OH239277   0.545   2.554   3.641
13111TIP3    H139278   0.605   2.518   3.707
13111TIP3    H239279   0.572   2.646   3.633
13112TIP3   OH239280   1.741   6.163   5.172
13112TIP3    H139281   1.811   6.224   5.152
13112TIP3    H239282   1.676   6.176   5.103
13113TIP3   OH239283   6.734   5.355   0.482
13113TIP3    H139284   6.808   5.379   0.539
13113TIP3    H239285   6.689   5.286   0.530
13114TIP3   OH239286   0.034   7.000   6.435
13114TIP3    H139287   0.087   7.001   6.515
13114TIP3    H239288   0.093   7.030   6.367
13115TIP3   OH239289   4.317   0.400   1.922
13115TIP3    H139290   4.231   0.441   1.931
13115TIP3    H239291   4.374   0.452   1.979
13116TIP3   OH239292   4.140   4.097   4.365
13116TIP3    H139293   4.201   4.028   4.391
13116TIP3    H239294   4.189   4.178   4.378
13117TIP3   OH239295   6.322   7.649   4.768
13117TIP3    H139296   6.408   7.637   4.809
13117TIP3    H239297   6.338   7.710   4.697
13118TIP3   OH239298   7.580   1.135   5.872
13118TIP3    H139299   7.497   1.107   5.911
13118TIP3    H239300   7.574   1.104   5.781
13119TIP3   OH239301   1.234   2.476   0.211
13119TIP3    H139302   1.271   2.475   0.122
13119TIP3    H239303   1.277   2.403   0.255
13120TIP3   OH239304   6.525   3.861   5.956
13120TIP3    H139305   6.601   3.806   5.935
13120TIP3    H239306   6.453   3.823   5.907
13121TIP3   OH239307   5.767   0.975   0.178
13121TIP3    H139308   5.827   0.902   0.167
13121TIP3    H239309   5.692   0.953   0.122
13122TIP3   OH239310   4.249   7.602   2.578
13122TIP3    H139311   4.159   7.576   2.556
13122TIP3    H239312   4.239   7.676   2.638
13123TIP3   OH239313   6.637   6.741   2.399
13123TIP3    H139314   6.600   6.799   2.465
13123TIP3    H239315   6.593   6.657   2.413
13124TIP3   OH239316   2.654   2.514   3.301
13124TIP3    H139317   2.670   2.426   3.337
13124TIP3    H239318   2.604   2.559   3.369
13125TIP3   OH239319   3.139   0.573   3.662
13125TIP3    H139320   3.085   0.648   3.639
13125TIP3    H239321   3.196   0.605   3.732
13126TIP3   OH239322   3.010   4.122   4.198
13126TIP3    H139323   3.052   4.208   4.205
13126TIP3    H239324   3.017   4.099   4.106
13127TIP3   OH239325   6.452   5.078   5.606
13127TIP3    H139326   6.360   5.105   5.597
13127TIP3    H239327   6.452   5.017   5.679
13128TIP3   OH239328   8.257   1.515   1.346
13128TIP3    H139329   8.285   1.606   1.338
13128TIP3    H239330   8.309   1.469   1.280
13129TIP3   OH239331   8.075   0.208   3.607
13129TIP3    H139332   8.122   0.195   3.690
13129TIP3    H239333   7.983   0.205   3.632
13130TIP3   OH239334   7.779   4.550   5.806
13130TIP3    H139335   7.806   4.512   5.722
13130TIP3    H239336   7.777   4.645   5.789
13131TIP3   OH239337   4.241   2.951   0.630
13131TIP3    H139338   4.297   2.938   0.706
13131TIP3    H239339   4.152   2.942   0.664
13132TIP3   OH239340   0.956   2.657   2.093
13132TIP3    H139341   0.949   2.562   2.105
13132TIP3    H239342   1.005   2.667   2.011
13133TIP3   OH239343   7.154   6.028   3.057
13133TIP3    H139344   7.238   6.021   3.012
13133TIP3    H239345   7.173   5.999   3.147
13134TIP3   OH239346   0.124   6.097   2.992
13134TIP3    H139347   0.041   6.119   2.950
13134TIP3    H239348   0.191   6.126   2.930
13135TIP3   OH239349   4.263   3.968   4.055
13135TIP3    H139350   4.168   3.979   4.062
13135TIP3    H239351   4.289   3.932   4.140
13136TIP3   OH239352   4.558   5.724   1.867
13136TIP3    H139353   4.610   5.651   1.900
13136TIP3    H239354   4.566   5.791   1.935
13137TIP3   OH239355   7.649   3.346   3.516
13137TIP3    H139356   7.590   3.416   3.543
13137TIP3    H239357   7.694   3.381   3.439
13138TIP3   OH239358   2.332   6.034   5.662
13138TIP3    H139359   2.332   5.938   5.665
13138TIP3    H239360   2.395   6.056   5.594
13139TIP3   OH239361   3.375   4.524   0.598
13139TIP3    H139362   3.331   4.451   0.643
13139TIP3    H239363   3.345   4.602   0.645
13140TIP3   OH239364   2.292   3.210   2.560
13140TIP3    H139365   2.355   3.282   2.550
13140TIP3    H239366   2.215   3.251   2.600
13141TIP3   OH239367   6.575   5.811   3.068
13141TIP3    H139368   6.580   5.905   3.051
13141TIP3    H239369   6.640   5.772   3.008
13142TIP3   OH239370   7.116   7.733   2.588
13142TIP3    H139371   7.041   7.751   2.644
13142TIP3    H239372   7.180   7.801   2.612
13143TIP3   OH239373   2.670   1.833   6.340
13143TIP3    H139374   2.765   1.820   6.347
13143TIP3    H239375   2.633   1.782   6.413
13144TIP3   OH239376   0.417   4.697   3.802
13144TIP3    H139377   0.358   4.655   3.740
13144TIP3    H239378   0.497   4.645   3.800
13145TIP3   OH239379   6.201   6.806   1.756
13145TIP3    H139380   6.248   6.771   1.681
13145TIP3    H239381   6.110   6.784   1.740
13146TIP3   OH239382   7.379   6.230   0.328
13146TIP3    H139383   7.383   6.164   0.259
13146TIP3    H239384   7.385   6.180   0.410
13147TIP3   OH239385   1.100   1.339   2.274
13147TIP3    H139386   1.122   1.260   2.225
13147TIP3    H239387   1.029   1.380   2.224
13148TIP3   OH239388   0.968   5.399   3.555
13148TIP3    H139389   0.882   5.410   3.596
13148TIP3    H239390   1.020   5.352   3.620
13149TIP3   OH239391   5.121   7.145   1.406
13149TIP3    H139392   5.093   7.225   1.361
13149TIP3    H239393   5.045   7.088   1.405
13150TIP3   OH239394   6.467   0.217   5.786
13150TIP3    H139395   6.421   0.169   5.717
13150TIP3    H239396   6.403   0.226   5.856
13151TIP3   OH239397   2.073   3.513   2.297
13151TIP3    H139398   2.164   3.488   2.279
13151TIP3    H239399   2.042   3.552   2.215
13152TIP3   OH239400   2.677   4.002   5.156
13152TIP3    H139401   2.635   4.056   5.222
13152TIP3    H239402   2.679   4.057   5.077
13153TIP3   OH239403   2.470   3.761   1.921
13153TIP3    H139404   2.446   3.779   2.012
13153TIP3    H239405   2.387   3.748   1.876
13154TIP3   OH239406   8.175   1.129   1.470
13154TIP3    H139407   8.141   1.111   1.382
13154TIP3    H239408   8.269   1.138   1.457
13155TIP3   OH239409   4.596   5.748   0.072
13155TIP3    H139410   4.618   5.764   0.164
13155TIP3    H239411   4.652   5.674   0.047
13156TIP3   OH239412   5.315   3.196   5.711
13156TIP3    H139413   5.333   3.150   5.629
13156TIP3    H239414   5.222   3.178   5.729
13157TIP3   OH239415   6.655   7.407   6.098
13157TIP3    H139416   6.707   7.485   6.081
13157TIP3    H239417   6.690   7.341   6.039
13158TIP3   OH239418   7.023   1.371   1.445
13158TIP3    H139419   6.959   1.340   1.381
13158TIP3    H239420   7.107   1.367   1.399
13159TIP3   OH239421   1.783   2.749   4.318
13159TIP3    H139422   1.720   2.684   4.349
13159TIP3    H239423   1.767   2.826   4.372
13160TIP3   OH239424   4.232   5.718   6.758
13160TIP3    H139425   4.191   5.720   6.671
13160TIP3    H239426   4.172   5.669   6.813
13161TIP3   OH239427   1.919   3.828   0.955
13161TIP3    H139428   1.864   3.773   0.898
13161TIP3    H239429   1.918   3.783   1.039
13162TIP3   OH239430   4.975   4.457   3.423
13162TIP3    H139431   4.916   4.522   3.384
13162TIP3    H239432   4.978   4.480   3.516
13163TIP3   OH239433   6.240   1.143   5.494
13163TIP3    H139434   6.147   1.139   5.469
13163TIP3    H239435   6.251   1.068   5.551
13164TIP3   OH239436   1.849   1.251   2.448
13164TIP3    H139437   1.940   1.228   2.430
13164TIP3    H239438   1.844   1.254   2.544
13165TIP3   OH239439   6.047   2.919   4.262
13165TIP3    H139440   6.107   2.908   4.336
13165TIP3    H239441   6.082   2.861   4.194
13166TIP3   OH239442   8.043   0.780   6.569
13166TIP3    H139443   8.026   0.705   6.512
13166TIP3    H239444   8.043   0.856   6.510
13167TIP3   OH239445   5.802   7.643   3.702
13167TIP3    H139446   5.767   7.590   3.629
13167TIP3    H239447   5.724   7.677   3.746
13168TIP3   OH239448   4.354   6.769   0.529
13168TIP3    H139449   4.415   6.791   0.459
13168TIP3    H239450   4.401   6.704   0.582
13169TIP3   OH239451   0.245   4.506   1.107
13169TIP3    H139452   0.299   4.571   1.151
13169TIP3    H239453   0.268   4.514   1.014
13170TIP3   OH239454   2.798   6.932   6.332
13170TIP3    H139455   2.736   6.997   6.301
13170TIP3    H239456   2.884   6.973   6.321
13171TIP3   OH239457   7.870   5.232   2.487
13171TIP3    H139458   7.937   5.220   2.554
13171TIP3    H239459   7.852   5.143   2.455
13172TIP3   OH239460   5.933   2.535   5.473
13172TIP3    H139461   5.841   2.535   5.496
13172TIP3    H239462   5.952   2.625   5.447
13173TIP3   OH239463   7.708   1.482   1.024
13173TIP3    H139464   7.722   1.575   1.007
13173TIP3    H239465   7.697   1.476   1.119
13174TIP3   OH239466   5.043   3.566   2.109
13174TIP3    H139467   4.959   3.598   2.142
13174TIP3    H239468   5.080   3.640   2.060
13175TIP3   OH239469   2.556   6.355   5.699
13175TIP3    H139470   2.485   6.384   5.642
13175TIP3    H239471   2.631   6.344   5.641
13176TIP3   OH239472   6.992   4.784   1.995
13176TIP3    H139473   7.019   4.875   2.009
13176TIP3    H239474   7.055   4.750   1.931
13177TIP3   OH239475   1.222   0.664   4.471
13177TIP3    H139476   1.211   0.729   4.402
13177TIP3    H239477   1.134   0.652   4.508
13178TIP3   OH239478   8.292   7.778   0.592
13178TIP3    H139479   8.334   7.842   0.649
13178TIP3    H239480   8.200   7.779   0.619
13179TIP3   OH239481   6.741   5.374   2.644
13179TIP3    H139482   6.731   5.279   2.634
13179TIP3    H239483   6.775   5.385   2.733
13180TIP3   OH239484   5.484   1.416   4.453
13180TIP3    H139485   5.499   1.321   4.453
13180TIP3    H239486   5.394   1.426   4.483
13181TIP3   OH239487   4.941   7.053   6.362
13181TIP3    H139488   4.885   7.118   6.404
13181TIP3    H239489   5.021   7.053   6.415
13182TIP3   OH239490   5.831   1.918   4.094
13182TIP3    H139491   5.891   1.906   4.167
13182TIP3    H239492   5.885   1.903   4.016
13183TIP3   OH239493   0.177   6.672   5.250
13183TIP3    H139494   0.125   6.650   5.173
13183TIP3    H239495   0.200   6.764   5.238
13184TIP3   OH239496   2.684   4.588   3.955
13184TIP3    H139497   2.620   4.579   4.026
13184TIP3    H239498   2.723   4.674   3.970
13185TIP3   OH239499   0.184   7.342   2.170
13185TIP3    H139500   0.191   7.433   2.199
13185TIP3    H239501   0.094   7.334   2.136
13186TIP3   OH239502   6.504   4.638  -0.010
13186TIP3    H139503   6.518   4.592   0.073
13186TIP3    H239504   6.590   4.640  -0.052
13187TIP3   OH239505   0.073   5.859   5.132
13187TIP3    H139506   0.103   5.941   5.092
13187TIP3    H239507  -0.002   5.832   5.078
13188TIP3   OH239508   7.663   2.237   6.595
13188TIP3    H139509   7.630   2.326   6.612
13188TIP3    H239510   7.708   2.213   6.675
13189TIP3   OH239511   2.046   3.616   6.060
13189TIP3    H139512   1.958   3.615   6.099
13189TIP3    H239513   2.033   3.650   5.972
13190TIP3   OH239514   2.335   5.728   3.809
13190TIP3    H139515   2.312   5.773   3.890
13190TIP3    H239516   2.377   5.796   3.755
13191TIP3   OH239517   7.525   5.082   3.629
13191TIP3    H139518   7.577   5.161   3.619
13191TIP3    H239519   7.546   5.049   3.716
13192TIP3   OH239520   1.659   2.005   2.926
13192TIP3    H139521   1.606   1.936   2.887
13192TIP3    H239522   1.638   2.003   3.019
13193TIP3   OH239523   4.610   4.028   0.514
13193TIP3    H139524   4.560   3.946   0.510
13193TIP3    H239525   4.694   4.008   0.473
13194TIP3   OH239526   4.540   5.455   1.583
13194TIP3    H139527   4.502   5.369   1.598
13194TIP3    H239528   4.628   5.449   1.618
13195TIP3   OH239529   4.639   1.502   1.539
13195TIP3    H139530   4.635   1.566   1.610
13195TIP3    H239531   4.612   1.420   1.579
13196TIP3   OH239532   2.464   5.269   0.030
13196TIP3    H139533   2.471   5.351  -0.019
13196TIP3    H239534   2.376   5.237   0.010
13197TIP3   OH239535   7.775   6.497   5.382
13197TIP3    H139536   7.763   6.558   5.309
13197TIP3    H239537   7.870   6.482   5.385
13198TIP3   OH239538   5.716   3.292   5.252
13198TIP3    H139539   5.692   3.336   5.333
13198TIP3    H239540   5.742   3.362   5.192
13199TIP3   OH239541   0.276   3.355   5.819
13199TIP3    H139542   0.294   3.261   5.817
13199TIP3    H239543   0.316   3.388   5.739
13200TIP3   OH239544   6.005   6.882   1.960
13200TIP3    H139545   6.095   6.854   1.974
13200TIP3    H239546   5.973   6.904   2.048
13201TIP3   OH239547   0.875   0.230   4.790
13201TIP3    H139548   0.904   0.226   4.881
13201TIP3    H239549   0.780   0.238   4.795
13202TIP3   OH239550   7.577   3.652   1.640
13202TIP3    H139551   7.622   3.669   1.723
13202TIP3    H239552   7.486   3.636   1.665
13203TIP3   OH239553   4.218   1.301   3.124
13203TIP3    H139554   4.168   1.376   3.092
13203TIP3    H239555   4.174   1.225   3.086
13204TIP3   OH239556   2.410   3.995   2.852
13204TIP3    H139557   2.359   4.064   2.810
13204TIP3    H239558   2.438   4.034   2.935
13205TIP3   OH239559   7.261   3.861   1.291
13205TIP3    H139560   7.224   3.823   1.371
13205TIP3    H239561   7.356   3.852   1.302
13206TIP3   OH239562   3.540   0.797   4.484
13206TIP3    H139563   3.608   0.790   4.417
13206TIP3    H239564   3.462   0.759   4.443
13207TIP3   OH239565   4.386   5.490   3.239
13207TIP3    H139566   4.428   5.414   3.279
13207TIP3    H239567   4.362   5.546   3.313
13208TIP3   OH239568   8.265   0.726   2.562
13208TIP3    H139569   8.192   0.780   2.532
13208TIP3    H239570   8.224   0.659   2.617
13209TIP3   OH239571   2.080   0.292   4.694
13209TIP3    H139572   2.033   0.235   4.755
13209TIP3    H239573   2.078   0.245   4.610
13210TIP3   OH239574   1.116   5.696   2.240
13210TIP3    H139575   1.176   5.750   2.292
13210TIP3    H239576   1.030   5.713   2.278
13211TIP3   OH239577   0.595   1.261   3.339
13211TIP3    H139578   0.519   1.319   3.346
13211TIP3    H239579   0.558   1.174   3.322
13212TIP3   OH239580   6.364   0.695   2.109
13212TIP3    H139581   6.385   0.788   2.100
13212TIP3    H239582   6.447   0.654   2.133
13213TIP3   OH239583   0.037   3.265   5.521
13213TIP3    H139584  -0.050   3.245   5.555
13213TIP3    H239585   0.041   3.360   5.521
13214TIP3   OH239586   3.915   4.483   1.653
13214TIP3    H139587   3.953   4.460   1.738
13214TIP3    H239588   3.972   4.552   1.619
13215TIP3   OH239589   1.966   3.765   4.386
13215TIP3    H139590   1.904   3.698   4.414
13215TIP3    H239591   1.936   3.790   4.299
13216TIP3   OH239592   5.447   7.249   6.468
13216TIP3    H139593   5.418   7.184   6.532
13216TIP3    H239594   5.367   7.275   6.422
13217TIP3   OH239595   1.279   6.668   3.697
13217TIP3    H139596   1.333   6.596   3.729
13217TIP3    H239597   1.204   6.626   3.656
13218TIP3   OH239598   6.229   6.840   5.393
13218TIP3    H139599   6.282   6.777   5.441
13218TIP3    H239600   6.141   6.802   5.394
13219TIP3   OH239601   5.146   0.682   2.424
13219TIP3    H139602   5.202   0.623   2.475
13219TIP3    H239603   5.206   0.727   2.364
13220TIP3   OH239604   1.080   4.456   3.541
13220TIP3    H139605   1.144   4.490   3.604
13220TIP3    H239606   1.036   4.385   3.588
13221TIP3   OH239607   2.501   5.184   1.525
13221TIP3    H139608   2.514   5.175   1.431
13221TIP3    H239609   2.550   5.112   1.564
13222TIP3   OH239610   7.493   2.527   4.269
13222TIP3    H139611   7.558   2.458   4.254
13222TIP3    H239612   7.535   2.606   4.235
13223TIP3   OH239613   7.295   7.193   1.834
13223TIP3    H139614   7.272   7.138   1.760
13223TIP3    H239615   7.314   7.132   1.905
13224TIP3   OH239616   6.973   0.822   3.826
13224TIP3    H139617   6.907   0.787   3.766
13224TIP3    H239618   7.032   0.749   3.842
13225TIP3   OH239619   5.109   0.549   6.727
13225TIP3    H139620   5.087   0.463   6.764
13225TIP3    H239621   5.114   0.534   6.633
13226TIP3   OH239622   4.003   5.869   5.107
13226TIP3    H139623   4.009   5.798   5.171
13226TIP3    H239624   4.062   5.842   5.036
13227TIP3   OH239625   4.521   2.393   6.525
13227TIP3    H139626   4.556   2.456   6.589
13227TIP3    H239627   4.431   2.424   6.508
13228TIP3   OH239628   0.163   7.158   0.640
13228TIP3    H139629   0.195   7.187   0.554
13228TIP3    H239630   0.076   7.198   0.648
13229TIP3   OH239631   2.304   6.298   1.363
13229TIP3    H139632   2.235   6.362   1.345
13229TIP3    H239633   2.326   6.312   1.455
13230TIP3   OH239634   3.162   6.836   1.999
13230TIP3    H139635   3.103   6.763   1.981
13230TIP3    H239636   3.110   6.914   1.981
13231TIP3   OH239637   0.569   1.240   0.044
13231TIP3    H139638   0.509   1.209   0.112
13231TIP3    H239639   0.643   1.180   0.048
13232TIP3   OH239640   3.573   0.520   6.684
13232TIP3    H139641   3.634   0.590   6.705
13232TIP3    H239642   3.605   0.485   6.601
13233TIP3   OH239643   5.951   7.772   4.405
13233TIP3    H139644   5.959   7.743   4.314
13233TIP3    H239645   5.935   7.692   4.455
13234TIP3   OH239646   2.148   6.493   3.492
13234TIP3    H139647   2.188   6.406   3.497
13234TIP3    H239648   2.159   6.530   3.579
13235TIP3   OH239649   2.305   0.671   0.126
13235TIP3    H139650   2.250   0.618   0.182
13235TIP3    H239651   2.382   0.692   0.180
13236TIP3   OH239652   4.445   2.989   6.481
13236TIP3    H139653   4.397   2.908   6.499
13236TIP3    H239654   4.377   3.053   6.458
13237TIP3   OH239655   6.663   5.976   0.881
13237TIP3    H139656   6.626   5.895   0.916
13237TIP3    H239657   6.660   6.037   0.955
13238TIP3   OH239658   1.919   3.828   0.000
13238TIP3    H139659   1.825   3.819  -0.018
13238TIP3    H239660   1.924   3.828   0.096
13239TIP3   OH239661   1.934   4.707   4.761
13239TIP3    H139662   1.899   4.620   4.780
13239TIP3    H239663   1.856   4.761   4.747
13240TIP3   OH239664   7.621   2.761   5.183
13240TIP3    H139665   7.636   2.667   5.189
13240TIP3    H239666   7.649   2.784   5.094
13241TIP3   OH239667   3.551   3.425   5.235
13241TIP3    H139668   3.575   3.512   5.204
13241TIP3    H239669   3.591   3.418   5.322
13242TIP3   OH239670   0.478   7.421   5.952
13242TIP3    H139671   0.409   7.426   6.018
13242TIP3    H239672   0.460   7.495   5.894
13243TIP3   OH239673   7.959   2.191   3.418
13243TIP3    H139674   7.869   2.215   3.442
13243TIP3    H239675   7.951   2.149   3.333
13244TIP3   OH239676   5.238   2.499   5.789
13244TIP3    H139677   5.311   2.477   5.731
13244TIP3    H239678   5.273   2.568   5.846
13245TIP3   OH239679   3.308   6.674   5.789
13245TIP3    H139680   3.215   6.694   5.780
13245TIP3    H239681   3.311   6.579   5.800
13246TIP3   OH239682   4.885   3.454   2.338
13246TIP3    H139683   4.936   3.426   2.261
13246TIP3    H239684   4.933   3.419   2.413
13247TIP3   OH239685   7.108   6.099   1.688
13247TIP3    H139686   7.021   6.062   1.703
13247TIP3    H239687   7.092   6.191   1.668
13248TIP3   OH239688   6.810   3.758   6.747
13248TIP3    H139689   6.889   3.788   6.702
13248TIP3    H239690   6.756   3.720   6.677
13249TIP3   OH239691   5.234   7.384   1.254
13249TIP3    H139692   5.293   7.314   1.280
13249TIP3    H239693   5.264   7.409   1.166
13250TIP3   OH239694   6.837   6.287   5.638
13250TIP3    H139695   6.830   6.382   5.633
13250TIP3    H239696   6.931   6.269   5.631
13251TIP3   OH239697   7.938   0.814   4.950
13251TIP3    H139698   7.935   0.872   4.874
13251TIP3    H239699   7.846   0.790   4.965
13252TIP3   OH239700   6.517   1.424   4.789
13252TIP3    H139701   6.568   1.415   4.708
13252TIP3    H239702   6.427   1.404   4.763
13253TIP3   OH239703   2.920   0.353   3.537
13253TIP3    H139704   2.832   0.366   3.500
13253TIP3    H239705   2.914   0.386   3.626
13254TIP3   OH239706   1.529   1.204   1.807
13254TIP3    H139707   1.477   1.127   1.829
13254TIP3    H239708   1.466   1.266   1.770
13255TIP3   OH239709   2.315   4.447   0.607
13255TIP3    H139710   2.256   4.427   0.534
13255TIP3    H239711   2.348   4.535   0.588
13256TIP3   OH239712   7.504   3.853   1.012
13256TIP3    H139713   7.548   3.825   1.092
13256TIP3    H239714   7.547   3.804   0.942
13257TIP3   OH239715   2.517   6.490   5.404
13257TIP3    H139716   2.483   6.401   5.394
13257TIP3    H239717   2.588   6.496   5.339
13258TIP3   OH239718   4.070   5.725   0.512
13258TIP3    H139719   4.097   5.790   0.577
13258TIP3    H239720   4.139   5.727   0.446
13259TIP3   OH239721   8.120   7.462   6.154
13259TIP3    H139722   8.026   7.446   6.152
13259TIP3    H239723   8.153   7.426   6.072
13260TIP3   OH239724   8.192   7.000   2.568
13260TIP3    H139725   8.154   6.928   2.517
13260TIP3    H239726   8.273   6.964   2.604
13261TIP3   OH239727   8.205   5.185   4.151
13261TIP3    H139728   8.274   5.236   4.110
13261TIP3    H239729   8.229   5.181   4.244
13262TIP3   OH239730   1.612   4.697   3.814
13262TIP3    H139731   1.554   4.722   3.886
13262TIP3    H239732   1.591   4.759   3.744
13263TIP3   OH239733   7.621   6.457   2.598
13263TIP3    H139734   7.530   6.481   2.615
13263TIP3    H239735   7.659   6.441   2.684
13264TIP3   OH239736   1.878   7.380   0.107
13264TIP3    H139737   1.909   7.297   0.144
13264TIP3    H239738   1.930   7.447   0.151
13265TIP3   OH239739   5.695   0.810   6.279
13265TIP3    H139740   5.690   0.838   6.371
13265TIP3    H239741   5.693   0.714   6.283
13266TIP3   OH239742   4.574   0.483   6.658
13266TIP3    H139743   4.566   0.511   6.749
13266TIP3    H239744   4.560   0.563   6.607
13267TIP3   OH239745   6.615   4.242   5.762
13267TIP3    H139746   6.561   4.312   5.724
13267TIP3    H239747   6.555   4.194   5.818
13268TIP3   OH239748   0.653   5.599   2.600
13268TIP3    H139749   0.717   5.532   2.624
13268TIP3    H239750   0.657   5.663   2.671
13269TIP3   OH239751   7.102   4.519   5.880
13269TIP3    H139752   7.020   4.537   5.925
13269TIP3    H239753   7.106   4.584   5.810
13270TIP3   OH239754   4.852   1.536   5.484
13270TIP3    H139755   4.946   1.516   5.489
13270TIP3    H239756   4.814   1.491   5.560
13271TIP3   OH239757   3.168   7.022   6.483
13271TIP3    H139758   3.141   7.002   6.573
13271TIP3    H239759   3.200   6.939   6.448
13272TIP3   OH239760   3.846   5.167   1.029
13272TIP3    H139761   3.789   5.223   0.977
13272TIP3    H239762   3.811   5.079   1.016
13273TIP3   OH239763   6.308   7.471   2.080
13273TIP3    H139764   6.357   7.499   2.158
13273TIP3    H239765   6.369   7.485   2.007
13274TIP3   OH239766   3.206   3.648   6.105
13274TIP3    H139767   3.120   3.607   6.108
13274TIP3    H239768   3.238   3.646   6.195
13275TIP3   OH239769   8.172   4.516   5.273
13275TIP3    H139770   8.247   4.571   5.298
13275TIP3    H239771   8.211   4.429   5.257
13276TIP3   OH239772   5.702   6.585   2.718
13276TIP3    H139773   5.684   6.582   2.812
13276TIP3    H239774   5.785   6.630   2.711
13277TIP3   OH239775   6.408   2.174   3.539
13277TIP3    H139776   6.316   2.197   3.532
13277TIP3    H239777   6.448   2.250   3.582
13278TIP3   OH239778   1.843   3.358   6.206
13278TIP3    H139779   1.819   3.286   6.147
13278TIP3    H239780   1.922   3.326   6.251
13279TIP3   OH239781   7.278   6.080   1.471
13279TIP3    H139782   7.215   6.147   1.444
13279TIP3    H239783   7.257   6.063   1.562
13280TIP3   OH239784   6.448   4.966   1.038
13280TIP3    H139785   6.523   4.910   1.020
13280TIP3    H239786   6.378   4.906   1.064
13281TIP3   OH239787   4.487   7.134   1.822
13281TIP3    H139788   4.498   7.161   1.730
13281TIP3    H239789   4.576   7.125   1.855
13282TIP3   OH239790   4.551   4.845   3.391
13282TIP3    H139791   4.480   4.855   3.328
13282TIP3    H239792   4.508   4.851   3.477
13283TIP3   OH239793   1.947   0.542   4.993
13283TIP3    H139794   1.900   0.624   5.003
13283TIP3    H239795   2.021   0.563   4.936
13284TIP3   OH239796   6.919   5.625   1.174
13284TIP3    H139797   6.887   5.545   1.215
13284TIP3    H239798   6.894   5.617   1.082
13285TIP3   OH239799   1.986   4.480   0.037
13285TIP3    H139800   1.920   4.550   0.035
13285TIP3    H239801   1.954   4.420   0.104
13286TIP3   OH239802   8.080   5.161   2.235
13286TIP3    H139803   8.034   5.231   2.281
13286TIP3    H239804   8.022   5.139   2.161
13287TIP3   OH239805   6.771   5.401   6.104
13287TIP3    H139806   6.770   5.420   6.198
13287TIP3    H239807   6.831   5.466   6.067
13288TIP3   OH239808   4.744   3.797   0.406
13288TIP3    H139809   4.670   3.739   0.389
13288TIP3    H239810   4.791   3.800   0.322
13289TIP3   OH239811   0.821   5.296   0.651
13289TIP3    H139812   0.766   5.339   0.716
13289TIP3    H239813   0.896   5.355   0.641
13290TIP3   OH239814   1.321   5.355   3.506
13290TIP3    H139815   1.373   5.387   3.432
13290TIP3    H239816   1.365   5.275   3.533
13291TIP3   OH239817   5.805   0.267   6.620
13291TIP3    H139818   5.876   0.212   6.588
13291TIP3    H239819   5.741   0.269   6.549
13292TIP3   OH239820   2.673   4.080   4.902
13292TIP3    H139821   2.665   4.176   4.903
13292TIP3    H239822   2.722   4.061   4.822
13293TIP3   OH239823   1.325   0.226   4.164
13293TIP3    H139824   1.300   0.318   4.157
13293TIP3    H239825   1.265   0.191   4.230
13294TIP3   OH239826   7.349   6.688   0.808
13294TIP3    H139827   7.396   6.767   0.780
13294TIP3    H239828   7.258   6.704   0.784
13295TIP3   OH239829   5.000   7.484   2.015
13295TIP3    H139830   5.043   7.417   2.067
13295TIP3    H239831   5.033   7.470   1.926
13296TIP3   OH239832   6.802   0.171   2.187
13296TIP3    H139833   6.830   0.253   2.227
13296TIP3    H239834   6.742   0.196   2.117
13297TIP3   OH239835   7.879   3.955   4.834
13297TIP3    H139836   7.791   3.924   4.855
13297TIP3    H239837   7.893   4.030   4.892
13298TIP3   OH239838   4.568   5.605   4.186
13298TIP3    H139839   4.580   5.627   4.278
13298TIP3    H239840   4.638   5.542   4.167
13299TIP3   OH239841   0.219   2.484   2.999
13299TIP3    H139842   0.256   2.396   3.007
13299TIP3    H239843   0.295   2.543   3.002
13300TIP3   OH239844   6.700   6.620   0.555
13300TIP3    H139845   6.764   6.667   0.610
13300TIP3    H239846   6.744   6.609   0.471
13301TIP3   OH239847   0.648   7.636   3.611
13301TIP3    H139848   0.583   7.701   3.638
13301TIP3    H239849   0.688   7.607   3.693
13302TIP3   OH239850   4.768   5.811   2.140
13302TIP3    H139851   4.859   5.839   2.152
13302TIP3    H239852   4.775   5.717   2.121
13303TIP3   OH239853   2.361   6.352   1.628
13303TIP3    H139854   2.328   6.338   1.716
13303TIP3    H239855   2.453   6.376   1.639
13304TIP3   OH239856   6.910   0.784   6.707
13304TIP3    H139857   6.987   0.832   6.678
13304TIP3    H239858   6.905   0.709   6.647
13305TIP3   OH239859   4.530   0.824   2.264
13305TIP3    H139860   4.556   0.734   2.283
13305TIP3    H239861   4.592   0.854   2.197
13306TIP3   OH239862   5.813   4.293   0.894
13306TIP3    H139863   5.800   4.377   0.850
13306TIP3    H239864   5.749   4.294   0.966
13307TIP3   OH239865   1.556   5.036   1.248
13307TIP3    H139866   1.621   5.078   1.305
13307TIP3    H239867   1.481   5.095   1.250
13308TIP3   OH239868   5.388   6.717   6.123
13308TIP3    H139869   5.327   6.649   6.152
13308TIP3    H239870   5.471   6.672   6.113
13309TIP3   OH239871   6.202   5.294   6.806
13309TIP3    H139872   6.275   5.345   6.769
13309TIP3    H239873   6.209   5.209   6.763
13310TIP3   OH239874   3.550   2.907   3.208
13310TIP3    H139875   3.579   2.969   3.275
13310TIP3    H239876   3.503   2.839   3.257
13311TIP3   OH239877   2.035   0.757   4.450
13311TIP3    H139878   1.969   0.699   4.488
13311TIP3    H239879   2.076   0.705   4.381
13312TIP3   OH239880   8.170   0.156   3.870
13312TIP3    H139881   8.092   0.199   3.905
13312TIP3    H239882   8.244   0.205   3.908
13313TIP3   OH239883   2.377   4.823   5.050
13313TIP3    H139884   2.370   4.739   5.096
13313TIP3    H239885   2.297   4.829   4.998
13314TIP3   OH239886   4.635   0.947   3.271
13314TIP3    H139887   4.622   0.986   3.185
13314TIP3    H239888   4.613   1.017   3.333
13315TIP3   OH239889   6.098   6.010   0.089
13315TIP3    H139890   6.013   6.053   0.097
13315TIP3    H239891   6.159   6.070   0.132
13316TIP3   OH239892   6.435   6.476   2.905
13316TIP3    H139893   6.527   6.450   2.919
13316TIP3    H239894   6.440   6.548   2.842
13317TIP3   OH239895   2.587   3.541   3.461
13317TIP3    H139896   2.496   3.557   3.434
13317TIP3    H239897   2.618   3.473   3.400
13318TIP3   OH239898   6.386   7.798   0.163
13318TIP3    H139899   6.438   7.814   0.085
13318TIP3    H239900   6.298   7.777   0.130
13319TIP3   OH239901   4.977   0.975   4.907
13319TIP3    H139902   5.061   1.009   4.938
13319TIP3    H239903   4.949   1.038   4.841
13320TIP3   OH239904   4.173   1.726   1.888
13320TIP3    H139905   4.182   1.744   1.981
13320TIP3    H239906   4.117   1.797   1.855
13321TIP3   OH239907   5.514   6.504   0.191
13321TIP3    H139908   5.522   6.410   0.175
13321TIP3    H239909   5.601   6.531   0.219
13322TIP3   OH239910   7.162   0.373   3.520
13322TIP3    H139911   7.076   0.411   3.503
13322TIP3    H239912   7.149   0.320   3.599
13323TIP3   OH239913   1.330   1.807   1.003
13323TIP3    H139914   1.410   1.813   1.054
13323TIP3    H239915   1.276   1.879   1.034
13324TIP3   OH239916   0.228   0.095   6.429
13324TIP3    H139917   0.219   0.143   6.347
13324TIP3    H239918   0.196   0.007   6.410
13325TIP3   OH239919   5.618   5.423   3.687
13325TIP3    H139920   5.666   5.377   3.618
13325TIP3    H239921   5.655   5.390   3.768
13326TIP3   OH239922   6.465   0.308   2.978
13326TIP3    H139923   6.393   0.321   3.040
13326TIP3    H239924   6.543   0.333   3.027
13327TIP3   OH239925   0.893   0.981   0.467
13327TIP3    H139926   0.966   0.928   0.497
13327TIP3    H239927   0.921   1.018   0.384
13328TIP3   OH239928   2.730   2.122   1.099
13328TIP3    H139929   2.720   2.041   1.048
13328TIP3    H239930   2.678   2.187   1.052
13329TIP3   OH239931   2.688   0.498   5.663
13329TIP3    H139932   2.676   0.456   5.578
13329TIP3    H239933   2.599   0.518   5.692
13330TIP3   OH239934   5.739   5.075   2.344
13330TIP3    H139935   5.782   5.056   2.427
13330TIP3    H239936   5.796   5.140   2.302
13331TIP3   OH239937   3.841   0.380   4.455
13331TIP3    H139938   3.909   0.313   4.447
13331TIP3    H239939   3.861   0.424   4.538
13332TIP3   OH239940   3.999   4.299   6.328
13332TIP3    H139941   4.034   4.303   6.239
13332TIP3    H239942   3.951   4.216   6.331
13333TIP3   OH239943   0.036   7.446   3.763
13333TIP3    H139944  -0.013   7.381   3.814
13333TIP3    H239945   0.067   7.509   3.827
13334TIP3   OH239946   3.210   7.452   6.040
13334TIP3    H139947   3.158   7.529   6.015
13334TIP3    H239948   3.152   7.402   6.098
13335TIP3   OH239949   1.458   1.831   3.555
13335TIP3    H139950   1.376   1.787   3.576
13335TIP3    H239951   1.437   1.886   3.480
13336TIP3   OH239952   0.449   2.696   3.340
13336TIP3    H139953   0.431   2.691   3.247
13336TIP3    H239954   0.517   2.763   3.348
13337TIP3   OH239955   0.649   1.461   6.172
13337TIP3    H139956   0.703   1.384   6.152
13337TIP3    H239957   0.702   1.511   6.234
13338TIP3   OH239958   4.316   1.336   2.496
13338TIP3    H139959   4.368   1.393   2.440
13338TIP3    H239960   4.325   1.373   2.584
13339TIP3   OH239961   4.870   4.141   0.401
13339TIP3    H139962   4.927   4.125   0.326
13339TIP3    H239963   4.925   4.121   0.477
13340TIP3   OH239964   4.108   0.976   5.845
13340TIP3    H139965   4.142   1.065   5.854
13340TIP3    H239966   4.184   0.920   5.860
13341TIP3   OH239967   3.604   6.789   3.043
13341TIP3    H139968   3.530   6.746   3.000
13341TIP3    H239969   3.639   6.848   2.976
13342TIP3   OH239970   7.173   7.522   0.761
13342TIP3    H139971   7.171   7.447   0.820
13342TIP3    H239972   7.087   7.563   0.771
13343TIP3   OH239973   2.336   7.571   1.204
13343TIP3    H139974   2.350   7.602   1.114
13343TIP3    H239975   2.415   7.598   1.251
13344TIP3   OH239976   8.115   5.540   0.454
13344TIP3    H139977   8.170   5.477   0.407
13344TIP3    H239978   8.061   5.487   0.512
13345TIP3   OH239979   0.288   2.314   4.585
13345TIP3    H139980   0.307   2.330   4.677
13345TIP3    H239981   0.234   2.234   4.584
13346TIP3   OH239982   3.535   5.773   5.638
13346TIP3    H139983   3.590   5.771   5.716
13346TIP3    H239984   3.595   5.798   5.567
13347TIP3   OH239985   8.108   3.730   3.387
13347TIP3    H139986   8.021   3.758   3.359
13347TIP3    H239987   8.165   3.804   3.364
13348TIP3   OH239988   3.916   6.703   3.657
13348TIP3    H139989   3.847   6.638   3.648
13348TIP3    H239990   3.984   6.675   3.596
13349TIP3   OH239991   1.042   4.817   1.470
13349TIP3    H139992   1.110   4.819   1.538
13349TIP3    H239993   0.964   4.853   1.513
13350TIP3   OH239994   2.359   6.683   0.649
13350TIP3    H139995   2.331   6.772   0.629
13350TIP3    H239996   2.361   6.679   0.745
13351TIP3   OH239997   4.578   6.149   1.096
13351TIP3    H139998   4.603   6.091   1.168
13351TIP3    H239999   4.508   6.203   1.132
13352TIP3   OH240000   2.874   6.340   1.149
13352TIP3    H140001   2.795   6.392   1.157
13352TIP3    H240002   2.902   6.351   1.058
13353TIP3   OH240003   3.855   7.396   4.120
13353TIP3    H140004   3.812   7.427   4.040
13353TIP3    H240005   3.824   7.456   4.188
13354TIP3   OH240006   7.634   5.961   5.876
13354TIP3    H140007   7.730   5.961   5.886
13354TIP3    H240008   7.603   6.021   5.943
13355TIP3   OH240009   7.829   7.196   2.138
13355TIP3    H140010   7.834   7.253   2.214
13355TIP3    H240011   7.913   7.150   2.137
13356TIP3   OH240012   6.427   2.426   3.692
13356TIP3    H140013   6.509   2.471   3.709
13356TIP3    H240014   6.415   2.368   3.767
13357TIP3   OH240015   1.341   1.172   2.489
13357TIP3    H140016   1.390   1.101   2.448
13357TIP3    H240017   1.408   1.227   2.530
13358TIP3   OH240018   6.772   3.222   4.946
13358TIP3    H140019   6.741   3.287   5.009
13358TIP3    H240020   6.753   3.137   4.987
13359TIP3   OH240021   2.010   2.301   5.196
13359TIP3    H140022   1.960   2.360   5.140
13359TIP3    H240023   2.015   2.346   5.281
13360TIP3   OH240024   1.923   3.675   5.536
13360TIP3    H140025   1.961   3.718   5.459
13360TIP3    H240026   1.872   3.603   5.500
13361TIP3   OH240027   3.632   1.626   3.881
13361TIP3    H140028   3.634   1.720   3.898
13361TIP3    H240029   3.541   1.601   3.894
13362TIP3   OH240030   5.771   2.728   1.899
13362TIP3    H140031   5.696   2.692   1.946
13362TIP3    H240032   5.846   2.679   1.932
13363TIP3   OH240033   7.131   2.983   1.200
13363TIP3    H140034   7.156   2.980   1.293
13363TIP3    H240035   7.177   3.059   1.166
13364TIP3   OH240036   6.136   0.849   1.379
13364TIP3    H140037   6.187   0.904   1.439
13364TIP3    H240038   6.200   0.822   1.312
13365TIP3   OH240039   0.358   3.040   3.466
13365TIP3    H140040   0.301   2.965   3.449
13365TIP3    H240041   0.314   3.114   3.425
13366TIP3   OH240042   7.178   7.490   2.972
13366TIP3    H140043   7.114   7.557   2.948
13366TIP3    H240044   7.182   7.432   2.896
13367TIP3   OH240045   1.570   1.334   2.590
13367TIP3    H140046   1.504   1.328   2.659
13367TIP3    H240047   1.644   1.379   2.631
13368TIP3   OH240048   1.159   3.063   4.686
13368TIP3    H140049   1.210   3.144   4.685
13368TIP3    H240050   1.194   3.014   4.760
13369TIP3   OH240051   1.846   4.242   4.516
13369TIP3    H140052   1.832   4.148   4.509
13369TIP3    H240053   1.935   4.251   4.549
13370TIP3   OH240054   2.097   2.538   0.117
13370TIP3    H140055   2.045   2.473   0.164
13370TIP3    H240056   2.053   2.621   0.134
13371TIP3   OH240057   7.777   4.726   0.547
13371TIP3    H140058   7.695   4.733   0.498
13371TIP3    H240059   7.767   4.645   0.597
13372TIP3   OH240060   4.843   3.569   4.281
13372TIP3    H140061   4.900   3.535   4.350
13372TIP3    H240062   4.872   3.658   4.266
13373TIP3   OH240063   8.164   0.008   6.481
13373TIP3    H140064   8.122   0.030   6.564
13373TIP3    H240065   8.166   0.091   6.433
13374TIP3   OH240066   2.092   0.165   4.947
13374TIP3    H140067   2.160   0.221   4.986
13374TIP3    H240068   2.090   0.087   5.003
13375TIP3   OH240069   4.513   5.684   6.741
13375TIP3    H140070   4.417   5.687   6.741
13375TIP3    H240071   4.535   5.657   6.831
13376TIP3   OH240072   4.032   1.352   1.611
13376TIP3    H140073   4.095   1.383   1.677
13376TIP3    H240074   4.027   1.424   1.548
13377TIP3   OH240075   1.588   3.186   1.301
13377TIP3    H140076   1.547   3.121   1.244
13377TIP3    H240077   1.579   3.150   1.389
13378TIP3   OH240078   3.042   4.548   5.418
13378TIP3    H140079   3.120   4.588   5.457
13378TIP3    H240080   2.991   4.622   5.386
13379TIP3   OH240081   1.997   6.001   4.440
13379TIP3    H140082   2.065   5.945   4.401
13379TIP3    H240083   2.044   6.056   4.503
13380TIP3   OH240084   3.679   3.498   4.097
13380TIP3    H140085   3.593   3.503   4.139
13380TIP3    H240086   3.725   3.577   4.128
13381TIP3   OH240087   0.404   2.010   1.494
13381TIP3    H140088   0.357   1.978   1.417
13381TIP3    H240089   0.386   2.104   1.495
13382TIP3   OH240090   1.805   4.884   0.826
13382TIP3    H140091   1.722   4.915   0.790
13382TIP3    H240092   1.810   4.923   0.913
13383TIP3   OH240093   2.443   3.110   5.289
13383TIP3    H140094   2.414   3.155   5.368
13383TIP3    H240095   2.471   3.023   5.319
13384TIP3   OH240096   3.504   6.242   5.169
13384TIP3    H140097   3.538   6.239   5.259
13384TIP3    H240098   3.416   6.206   5.176
13385TIP3   OH240099   0.948   3.685   1.512
13385TIP3    H140100   0.961   3.590   1.520
13385TIP3    H240101   0.952   3.701   1.417
13386TIP3   OH240102   5.431   6.393   2.894
13386TIP3    H140103   5.450   6.312   2.942
13386TIP3    H240104   5.382   6.364   2.817
13387TIP3   OH240105   0.967   0.243   6.212
13387TIP3    H140106   0.984   0.294   6.291
13387TIP3    H240107   0.957   0.153   6.244
13388TIP3   OH240108   1.108   0.803   6.114
13388TIP3    H140109   1.063   0.730   6.158
13388TIP3    H240110   1.200   0.793   6.139
13389TIP3   OH240111   0.288   1.885   5.170
13389TIP3    H140112   0.293   1.790   5.177
13389TIP3    H240113   0.234   1.912   5.245
13390TIP3   OH240114   1.677   2.984   3.705
13390TIP3    H140115   1.670   2.978   3.800
13390TIP3    H240116   1.608   2.925   3.672
13391TIP3   OH240117   3.549   0.147   1.932
13391TIP3    H140118   3.519   0.235   1.955
13391TIP3    H240119   3.644   0.150   1.944
13392TIP3   OH240120   4.535   5.008   4.812
13392TIP3    H140121   4.458   5.050   4.775
13392TIP3    H240122   4.541   4.924   4.767
13393TIP3   OH240123   0.483   6.617   6.646
13393TIP3    H140124   0.418   6.684   6.666
13393TIP3    H240125   0.512   6.638   6.557
13394TIP3   OH240126   4.421   1.574   6.017
13394TIP3    H140127   4.377   1.657   6.001
13394TIP3    H240128   4.373   1.534   6.089
13395TIP3   OH240129   1.219   0.131   0.914
13395TIP3    H140130   1.311   0.141   0.888
13395TIP3    H240131   1.182   0.219   0.904
13396TIP3   OH240132   6.822   4.141   0.654
13396TIP3    H140133   6.917   4.140   0.669
13396TIP3    H240134   6.785   4.127   0.741
13397TIP3   OH240135   5.786   0.459   2.655
13397TIP3    H140136   5.845   0.390   2.623
13397TIP3    H240137   5.714   0.412   2.696
13398TIP3   OH240138   1.569   7.456   1.685
13398TIP3    H140139   1.557   7.515   1.611
13398TIP3    H240140   1.485   7.411   1.694
13399TIP3   OH240141   6.712   0.336   3.086
13399TIP3    H140142   6.716   0.335   2.990
13399TIP3    H240143   6.804   0.326   3.113
13400TIP3   OH240144   6.019   4.275   2.865
13400TIP3    H140145   5.975   4.321   2.793
13400TIP3    H240146   5.956   4.276   2.936
13401TIP3   OH240147   7.313   2.100   2.134
13401TIP3    H140148   7.288   2.054   2.214
13401TIP3    H240149   7.230   2.125   2.093
13402TIP3   OH240150   0.361   6.144   1.869
13402TIP3    H140151   0.325   6.140   1.781
13402TIP3    H240152   0.302   6.203   1.916
13403TIP3   OH240153   8.126   1.644   2.661
13403TIP3    H140154   8.208   1.691   2.677
13403TIP3    H240155   8.152   1.552   2.658
13404TIP3   OH240156   3.676   5.802   4.776
13404TIP3    H140157   3.644   5.771   4.691
13404TIP3    H240158   3.610   5.772   4.838
13405TIP3   OH240159   7.785   7.395   6.480
13405TIP3    H140160   7.855   7.456   6.502
13405TIP3    H240161   7.704   7.441   6.503
13406TIP3   OH240162   3.884   6.673   2.206
13406TIP3    H140163   3.915   6.727   2.134
13406TIP3    H240164   3.954   6.676   2.271
13407TIP3   OH240165   6.181   1.636   1.217
13407TIP3    H140166   6.169   1.731   1.208
13407TIP3    H240167   6.145   1.599   1.137
13408TIP3   OH240168   2.901   5.947   2.296
13408TIP3    H140169   2.953   5.997   2.233
13408TIP3    H240170   2.964   5.893   2.343
13409TIP3   OH240171   3.230   5.251   1.765
13409TIP3    H140172   3.260   5.164   1.738
13409TIP3    H240173   3.239   5.305   1.687
13410TIP3   OH240174   8.062   0.637   5.652
13410TIP3    H140175   8.018   0.701   5.708
13410TIP3    H240176   7.993   0.575   5.627
13411TIP3   OH240177   5.471   0.825   1.011
13411TIP3    H140178   5.439   0.857   1.096
13411TIP3    H240179   5.474   0.730   1.021
13412TIP3   OH240180   4.961   5.981   2.005
13412TIP3    H140181   4.987   6.072   1.993
13412TIP3    H240182   4.882   5.985   2.059
13413TIP3   OH240183   4.213   2.727   1.570
13413TIP3    H140184   4.164   2.647   1.550
13413TIP3    H240185   4.204   2.781   1.491
13414TIP3   OH240186   2.563   5.182   1.875
13414TIP3    H140187   2.655   5.208   1.886
13414TIP3    H240188   2.566   5.106   1.818
13415TIP3   OH240189   4.475   2.609   2.829
13415TIP3    H140190   4.390   2.618   2.873
13415TIP3    H240191   4.525   2.549   2.884
13416TIP3   OH240192   6.310   1.155   3.586
13416TIP3    H140193   6.393   1.109   3.576
13416TIP3    H240194   6.269   1.113   3.662
13417TIP3   OH240195   6.582   4.042   3.733
13417TIP3    H140196   6.493   4.007   3.736
13417TIP3    H240197   6.638   3.965   3.748
13418TIP3   OH240198   3.703   1.212   3.191
13418TIP3    H140199   3.633   1.276   3.182
13418TIP3    H240200   3.686   1.148   3.122
13419TIP3   OH240201   6.271   5.793   6.728
13419TIP3    H140202   6.318   5.845   6.662
13419TIP3    H240203   6.272   5.848   6.807
13420TIP3   OH240204   1.884   7.329   2.865
13420TIP3    H140205   1.966   7.281   2.874
13420TIP3    H240206   1.904   7.417   2.896
13421TIP3   OH240207   6.705   1.610   1.886
13421TIP3    H140208   6.646   1.556   1.939
13421TIP3    H240209   6.784   1.557   1.878
13422TIP3   OH240210   3.384   6.984   0.944
13422TIP3    H140211   3.374   7.045   1.017
13422TIP3    H240212   3.420   7.037   0.873
13423TIP3   OH240213   6.960   6.636   5.675
13423TIP3    H140214   7.028   6.689   5.718
13423TIP3    H240215   6.933   6.688   5.600
13424TIP3   OH240216   6.516   2.766   5.373
13424TIP3    H140217   6.423   2.761   5.351
13424TIP3    H240218   6.518   2.786   5.466
13425TIP3   OH240219   2.531   3.071   2.073
13425TIP3    H140220   2.445   3.082   2.033
13425TIP3    H240221   2.514   3.062   2.167
13426TIP3   OH240222   0.228   3.904   5.689
13426TIP3    H140223   0.147   3.852   5.691
13426TIP3    H240224   0.235   3.933   5.597
13427TIP3   OH240225   1.333   2.667   4.377
13427TIP3    H140226   1.402   2.644   4.315
13427TIP3    H240227   1.369   2.645   4.463
13428TIP3   OH240228   5.297   6.603   0.052
13428TIP3    H140229   5.305   6.587  -0.042
13428TIP3    H240230   5.373   6.560   0.090
13429TIP3   OH240231   1.748   4.854   3.478
13429TIP3    H140232   1.808   4.781   3.461
13429TIP3    H240233   1.661   4.819   3.459
13430TIP3   OH240234   6.718   2.911   6.473
13430TIP3    H140235   6.742   2.917   6.381
13430TIP3    H240236   6.723   3.002   6.504
13431TIP3   OH240237   1.121   7.629   0.827
13431TIP3    H140238   1.151   7.698   0.768
13431TIP3    H240239   1.101   7.674   0.909
13432TIP3   OH240240   3.560   6.029   4.486
13432TIP3    H140241   3.544   5.935   4.492
13432TIP3    H240242   3.639   6.044   4.537
13433TIP3   OH240243   0.423   6.577   1.049
13433TIP3    H140244   0.451   6.662   1.083
13433TIP3    H240245   0.339   6.561   1.091
13434TIP3   OH240246   6.783   2.749   2.547
13434TIP3    H140247   6.698   2.731   2.507
13434TIP3    H240248   6.816   2.662   2.573
13435TIP3   OH240249   8.205   7.441   5.539
13435TIP3    H140250   8.251   7.371   5.493
13435TIP3    H240251   8.271   7.509   5.553
13436TIP3   OH240252   7.063   1.207   1.668
13436TIP3    H140253   7.049   1.112   1.665
13436TIP3    H240254   7.038   1.238   1.581
13437TIP3   OH240255   1.210   1.384   4.371
13437TIP3    H140256   1.263   1.434   4.310
13437TIP3    H240257   1.236   1.293   4.357
13438TIP3   OH240258   6.246   5.057   6.714
13438TIP3    H140259   6.310   5.032   6.647
13438TIP3    H240260   6.174   4.995   6.702
13439TIP3   OH240261   0.485   7.639   3.003
13439TIP3    H140262   0.571   7.678   2.985
13439TIP3    H240263   0.464   7.668   3.091
13440TIP3   OH240264   7.896   6.781   5.924
13440TIP3    H140265   7.975   6.727   5.921
13440TIP3    H240266   7.922   6.859   5.974
13441TIP3   OH240267   3.925   6.897   5.327
13441TIP3    H140268   4.017   6.887   5.301
13441TIP3    H240269   3.879   6.827   5.280
13442TIP3   OH240270   6.507   4.128   2.306
13442TIP3    H140271   6.445   4.083   2.364
13442TIP3    H240272   6.545   4.059   2.252
13443TIP3   OH240273   8.070   3.533   0.765
13443TIP3    H140274   8.133   3.597   0.797
13443TIP3    H240275   8.121   3.475   0.709
13444TIP3   OH240276   7.496   1.289   4.205
13444TIP3    H140277   7.414   1.334   4.182
13444TIP3    H240278   7.468   1.203   4.237
13445TIP3   OH240279   2.120   4.822   0.059
13445TIP3    H140280   2.070   4.786   0.132
13445TIP3    H240281   2.182   4.753   0.036
13446TIP3   OH240282   7.618   4.950   4.933
13446TIP3    H140283   7.596   5.018   4.996
13446TIP3    H240284   7.634   4.872   4.987
13447TIP3   OH240285   6.470   5.838   6.550
13447TIP3    H140286   6.473   5.882   6.464
13447TIP3    H240287   6.561   5.839   6.580
13448TIP3   OH240288   3.401   7.728   0.986
13448TIP3    H140289   3.443   7.773   1.060
13448TIP3    H240290   3.311   7.759   0.988
13449TIP3   OH240291   0.193   0.562   1.933
13449TIP3    H140292   0.216   0.493   1.996
13449TIP3    H240293   0.183   0.516   1.850
13450TIP3   OH240294   4.825   0.279   0.143
13450TIP3    H140295   4.885   0.350   0.119
13450TIP3    H240296   4.774   0.315   0.215
13451TIP3   OH240297   5.930   7.782   2.191
13451TIP3    H140298   5.847   7.795   2.145
13451TIP3    H240299   5.995   7.776   2.120
13452TIP3   OH240300   0.468   5.359   3.753
13452TIP3    H140301   0.506   5.389   3.836
13452TIP3    H240302   0.439   5.440   3.710
13453TIP3   OH240303   5.269   7.319   0.751
13453TIP3    H140304   5.196   7.368   0.714
13453TIP3    H240305   5.247   7.227   0.734
13454TIP3   OH240306   0.058   0.605   3.686
13454TIP3    H140307   0.063   0.549   3.608
13454TIP3    H240308  -0.022   0.577   3.730
13455TIP3   OH240309   2.437   1.602   5.979
13455TIP3    H140310   2.377   1.592   6.053
13455TIP3    H240311   2.384   1.643   5.911
13456TIP3   OH240312   2.671   1.212   0.676
13456TIP3    H140313   2.612   1.138   0.660
13456TIP3    H240314   2.744   1.174   0.725
13457TIP3   OH240315   0.495   5.627   4.706
13457TIP3    H140316   0.541   5.675   4.774
13457TIP3    H240317   0.562   5.569   4.669
13458TIP3   OH240318   2.076   1.464   5.330
13458TIP3    H140319   2.103   1.528   5.264
13458TIP3    H240320   1.999   1.503   5.371
13459TIP3   OH240321   0.967   2.545   0.821
13459TIP3    H140322   0.975   2.631   0.779
13459TIP3    H240323   0.977   2.563   0.914
13460TIP3   OH240324   5.639   1.902   4.308
13460TIP3    H140325   5.587   1.836   4.355
13460TIP3    H240326   5.666   1.857   4.228
13461TIP3   OH240327   4.174   2.675   4.844
13461TIP3    H140328   4.251   2.709   4.799
13461TIP3    H240329   4.187   2.702   4.935
13462TIP3   OH240330   6.779   2.493   2.378
13462TIP3    H140331   6.776   2.514   2.284
13462TIP3    H240332   6.769   2.398   2.381
13463TIP3   OH240333   4.043   0.697   6.046
13463TIP3    H140334   4.016   0.789   6.039
13463TIP3    H240335   4.115   0.698   6.109
13464TIP3   OH240336   6.770   5.600   3.596
13464TIP3    H140337   6.803   5.675   3.645
13464TIP3    H240338   6.814   5.606   3.511
13465TIP3   OH240339   4.042   3.970   3.163
13465TIP3    H140340   4.104   3.920   3.217
13465TIP3    H240341   4.093   3.998   3.087
13466TIP3   OH240342   4.742   2.136   1.061
13466TIP3    H140343   4.779   2.096   0.983
13466TIP3    H240344   4.746   2.230   1.045
13467TIP3   OH240345   1.675   2.959   2.672
13467TIP3    H140346   1.661   3.040   2.623
13467TIP3    H240347   1.700   2.988   2.760
13468TIP3   OH240348   2.757   0.869   5.628
13468TIP3    H140349   2.833   0.822   5.660
13468TIP3    H240350   2.779   0.893   5.538
13469TIP3   OH240351   7.781   4.457   2.371
13469TIP3    H140352   7.759   4.506   2.450
13469TIP3    H240353   7.844   4.512   2.325
13470TIP3   OH240354   7.104   0.695   5.803
13470TIP3    H140355   7.098   0.669   5.895
13470TIP3    H240356   7.013   0.716   5.779
13471TIP3   OH240357   2.898   6.815   6.750
13471TIP3    H140358   2.841   6.875   6.702
13471TIP3    H240359   2.852   6.731   6.746
13472TIP3   OH240360   3.105   3.117   1.968
13472TIP3    H140361   3.125   3.155   2.054
13472TIP3    H240362   3.113   3.022   1.982
13473TIP3   OH240363   7.936   5.810   3.935
13473TIP3    H140364   7.945   5.719   3.964
13473TIP3    H240365   7.849   5.836   3.965
13474TIP3   OH240366   3.410   1.433   4.860
13474TIP3    H140367   3.487   1.420   4.915
13474TIP3    H240368   3.441   1.419   4.771
13475TIP3   OH240369   8.284   6.709   0.286
13475TIP3    H140370   8.236   6.632   0.316
13475TIP3    H240371   8.232   6.783   0.316
13476TIP3   OH240372   2.063   0.855   5.458
13476TIP3    H140373   1.985   0.838   5.510
13476TIP3    H240374   2.135   0.823   5.512
13477TIP3   OH240375   7.863   6.338   4.157
13477TIP3    H140376   7.878   6.428   4.127
13477TIP3    H240377   7.933   6.322   4.220
13478TIP3   OH240378   3.022   0.370   4.146
13478TIP3    H140379   3.006   0.456   4.184
13478TIP3    H240380   2.971   0.310   4.200
13479TIP3   OH240381   4.440   4.808   4.167
13479TIP3    H140382   4.419   4.880   4.226
13479TIP3    H240383   4.492   4.849   4.097
13480TIP3   OH240384   8.211   5.279   3.272
13480TIP3    H140385   8.248   5.212   3.329
13480TIP3    H240386   8.120   5.287   3.301
13481TIP3   OH240387   6.077   3.006   1.448
13481TIP3    H140388   6.073   2.940   1.517
13481TIP3    H240389   6.162   3.048   1.458
13482TIP3   OH240390   7.592   6.414   6.656
13482TIP3    H140391   7.637   6.497   6.666
13482TIP3    H240392   7.528   6.412   6.727
13483TIP3   OH240393   5.802   1.481   5.882
13483TIP3    H140394   5.852   1.401   5.867
13483TIP3    H240395   5.748   1.461   5.959
13484TIP3   OH240396   0.505   5.310   5.059
13484TIP3    H140397   0.437   5.367   5.096
13484TIP3    H240398   0.533   5.255   5.133
13485TIP3   OH240399   0.187   4.090   6.357
13485TIP3    H140400   0.281   4.074   6.349
13485TIP3    H240401   0.145   4.010   6.327
13486TIP3   OH240402   2.701   7.136   5.110
13486TIP3    H140403   2.645   7.154   5.035
13486TIP3    H240404   2.761   7.210   5.114
13487TIP3   OH240405   6.581   3.659   1.725
13487TIP3    H140406   6.517   3.594   1.757
13487TIP3    H240407   6.664   3.633   1.765
13488TIP3   OH240408   4.357   1.678   6.469
13488TIP3    H140409   4.442   1.715   6.497
13488TIP3    H240410   4.358   1.589   6.502
13489TIP3   OH240411   2.131   0.684   6.244
13489TIP3    H140412   2.059   0.717   6.190
13489TIP3    H240413   2.134   0.590   6.226
13490TIP3   OH240414   1.861   1.297   5.289
13490TIP3    H140415   1.778   1.319   5.332
13490TIP3    H240416   1.838   1.292   5.196
13491TIP3   OH240417   4.559   3.194   5.744
13491TIP3    H140418   4.477   3.196   5.793
13491TIP3    H240419   4.626   3.220   5.808
13492TIP3   OH240420   6.662   4.546   2.779
13492TIP3    H140421   6.712   4.491   2.719
13492TIP3    H240422   6.588   4.492   2.806
13493TIP3   OH240423   5.215   0.289   6.170
13493TIP3    H140424   5.279   0.239   6.120
13493TIP3    H240425   5.132   0.275   6.124
13494TIP3   OH240426   1.090   4.901   0.777
13494TIP3    H140427   1.010   4.928   0.732
13494TIP3    H240428   1.059   4.868   0.862
13495TIP3   OH240429   2.774   1.529   1.403
13495TIP3    H140430   2.703   1.541   1.340
13495TIP3    H240431   2.736   1.477   1.473
13496TIP3   OH240432   1.117   4.225   5.353
13496TIP3    H140433   1.069   4.190   5.278
13496TIP3    H240434   1.195   4.171   5.360
13497TIP3   OH240435   4.938   0.248   6.083
13497TIP3    H140436   4.880   0.233   6.008
13497TIP3    H240437   4.879   0.261   6.157
13498TIP3   OH240438   1.471   5.285   1.165
13498TIP3    H140439   1.409   5.310   1.096
13498TIP3    H240440   1.555   5.321   1.136
13499TIP3   OH240441   0.848   5.671   3.557
13499TIP3    H140442   0.770   5.699   3.509
13499TIP3    H240443   0.826   5.584   3.589
13500TIP3   OH240444   7.571   1.290   3.487
13500TIP3    H140445   7.588   1.223   3.554
13500TIP3    H240446   7.591   1.373   3.531
13501TIP3   OH240447   4.059   1.847   0.353
13501TIP3    H140448   4.138   1.801   0.384
13501TIP3    H240449   3.993   1.778   0.347
13502TIP3   OH240450   6.463   3.929   3.476
13502TIP3    H140451   6.489   3.839   3.495
13502TIP3    H240452   6.545   3.977   3.466
13503TIP3   OH240453   3.940   4.772   3.615
13503TIP3    H140454   3.875   4.788   3.546
13503TIP3    H240455   4.024   4.777   3.571
13504TIP3   OH240456   2.391   1.429   5.189
13504TIP3    H140457   2.350   1.371   5.125
13504TIP3    H240458   2.345   1.512   5.179
13505TIP3   OH240459   2.817   6.864   0.434
13505TIP3    H140460   2.774   6.780   0.443
13505TIP3    H240461   2.910   6.846   0.452
13506TIP3   OH240462   1.591   6.204   3.813
13506TIP3    H140463   1.665   6.202   3.874
13506TIP3    H240464   1.521   6.245   3.863
13507TIP3   OH240465   5.243   7.118   4.172
13507TIP3    H140466   5.236   7.061   4.249
13507TIP3    H240467   5.155   7.153   4.160
13508TIP3   OH240468   0.595   1.182   5.213
13508TIP3    H140469   0.678   1.135   5.221
13508TIP3    H240470   0.541   1.127   5.156
13509TIP3   OH240471   6.169   3.329   1.104
13509TIP3    H140472   6.133   3.241   1.100
13509TIP3    H240473   6.139   3.371   1.024
13510TIP3   OH240474   2.095   2.261   2.396
13510TIP3    H140475   2.029   2.296   2.336
13510TIP3    H240476   2.132   2.338   2.438
13511TIP3   OH240477   3.485   5.644   3.631
13511TIP3    H140478   3.562   5.594   3.656
13511TIP3    H240479   3.497   5.662   3.538
13512TIP3   OH240480   0.545   4.265   3.130
13512TIP3    H140481   0.632   4.267   3.089
13512TIP3    H240482   0.520   4.173   3.126
13513TIP3   OH240483   5.838   3.829   5.294
13513TIP3    H140484   5.793   3.787   5.220
13513TIP3    H240485   5.797   3.791   5.372
13514TIP3   OH240486   3.266   6.224   6.752
13514TIP3    H140487   3.286   6.287   6.821
13514TIP3    H240488   3.263   6.276   6.672
13515TIP3   OH240489   0.387   4.843   2.348
13515TIP3    H140490   0.306   4.794   2.360
13515TIP3    H240491   0.407   4.877   2.436
13516TIP3   OH240492   5.467   4.351   5.912
13516TIP3    H140493   5.384   4.349   5.958
13516TIP3    H240494   5.489   4.444   5.905
13517TIP3   OH240495   5.234   6.312   1.908
13517TIP3    H140496   5.280   6.350   1.983
13517TIP3    H240497   5.178   6.244   1.946
13518TIP3   OH240498   0.759   3.022   5.593
13518TIP3    H140499   0.664   3.023   5.602
13518TIP3    H240500   0.786   3.112   5.611
13519TIP3   OH240501   2.307   1.089   0.819
13519TIP3    H140502   2.330   1.002   0.785
13519TIP3    H240503   2.231   1.115   0.766
13520TIP3   OH240504   1.721   0.280   1.594
13520TIP3    H140505   1.764   0.228   1.526
13520TIP3    H240506   1.755   0.245   1.676
13521TIP3   OH240507   5.502   4.619   3.732
13521TIP3    H140508   5.491   4.526   3.714
13521TIP3    H240509   5.595   4.630   3.750
13522TIP3   OH240510   1.034   6.745   1.526
13522TIP3    H140511   0.995   6.832   1.515
13522TIP3    H240512   1.121   6.762   1.563
13523TIP3   OH240513   6.776   7.452   3.426
13523TIP3    H140514   6.816   7.538   3.438
13523TIP3    H240515   6.696   7.455   3.479
13524TIP3   OH240516   0.236   3.615   2.224
13524TIP3    H140517   0.305   3.646   2.283
13524TIP3    H240518   0.183   3.693   2.205
13525TIP3   OH240519   2.327   0.300   5.348
13525TIP3    H140520   2.390   0.297   5.420
13525TIP3    H240521   2.324   0.393   5.323
13526TIP3   OH240522   8.263   5.736   0.600
13526TIP3    H140523   8.169   5.746   0.617
13526TIP3    H240524   8.268   5.667   0.534
13527TIP3   OH240525   0.716   5.783   2.092
13527TIP3    H140526   0.758   5.838   2.026
13527TIP3    H240527   0.633   5.826   2.109
13528TIP3   OH240528   7.079   4.230   4.961
13528TIP3    H140529   7.114   4.184   5.038
13528TIP3    H240530   7.095   4.323   4.981
13529TIP3   OH240531   2.719   1.009   2.336
13529TIP3    H140532   2.645   0.952   2.315
13529TIP3    H240533   2.679   1.094   2.355
13530TIP3   OH240534   5.548   3.367   2.440
13530TIP3    H140535   5.522   3.325   2.522
13530TIP3    H240536   5.465   3.392   2.399
13531TIP3   OH240537   1.484   0.975   4.512
13531TIP3    H140538   1.520   1.013   4.592
13531TIP3    H240539   1.391   0.964   4.529
13532TIP3   OH240540   7.920   2.426   2.224
13532TIP3    H140541   7.958   2.504   2.264
13532TIP3    H240542   7.874   2.458   2.146
13533TIP3   OH240543   2.366   0.940   2.573
13533TIP3    H140544   2.317   0.865   2.607
13533TIP3    H240545   2.363   0.929   2.478
13534TIP3   OH240546   2.449   5.385   5.309
13534TIP3    H140547   2.377   5.382   5.372
13534TIP3    H240548   2.492   5.300   5.318
13535TIP3   OH240549   2.374   1.270   6.083
13535TIP3    H140550   2.368   1.223   6.166
13535TIP3    H240551   2.313   1.343   6.091
13536TIP3   OH240552   3.450   2.371   5.002
13536TIP3    H140553   3.488   2.458   5.012
13536TIP3    H240554   3.358   2.387   4.982
13537TIP3   OH240555   5.569   1.954   4.824
13537TIP3    H140556   5.523   1.980   4.745
13537TIP3    H240557   5.635   2.021   4.838
13538TIP3   OH240558   5.696   1.962   2.428
13538TIP3    H140559   5.756   1.987   2.357
13538TIP3    H240560   5.637   2.036   2.437
13539TIP3   OH240561   3.528   3.252   5.036
13539TIP3    H140562   3.539   3.316   5.106
13539TIP3    H240563   3.552   3.168   5.077
13540TIP3   OH240564   6.719   4.092   1.590
13540TIP3    H140565   6.802   4.045   1.585
13540TIP3    H240566   6.661   4.033   1.639
13541TIP3   OH240567   0.434   3.451   4.808
13541TIP3    H140568   0.505   3.419   4.752
13541TIP3    H240569   0.359   3.459   4.750
13542TIP3   OH240570   4.772   1.951   2.256
13542TIP3    H140571   4.713   1.948   2.332
13542TIP3    H240572   4.714   1.938   2.181
13543TIP3   OH240573   6.876   2.991   4.378
13543TIP3    H140574   6.846   2.948   4.458
13543TIP3    H240575   6.809   2.969   4.313
13544TIP3   OH240576   7.422   6.185   4.356
13544TIP3    H140577   7.461   6.244   4.420
13544TIP3    H240578   7.379   6.117   4.408
13545TIP3   OH240579   7.985   3.860   4.133
13545TIP3    H140580   8.071   3.902   4.146
13545TIP3    H240581   7.962   3.826   4.219
13546TIP3   OH240582   6.842   5.368   2.914
13546TIP3    H140583   6.788   5.298   2.952
13546TIP3    H240584   6.922   5.367   2.966
13547TIP3   OH240585   0.801   3.010   3.743
13547TIP3    H140586   0.885   3.055   3.733
13547TIP3    H240587   0.755   3.027   3.661
13548TIP3   OH240588   7.629   3.152   4.632
13548TIP3    H140589   7.564   3.221   4.629
13548TIP3    H240590   7.633   3.119   4.542
13549TIP3   OH240591   8.240   5.892   2.200
13549TIP3    H140592   8.297   5.816   2.187
13549TIP3    H240593   8.192   5.871   2.281
13550TIP3   OH240594   4.238   6.126   4.656
13550TIP3    H140595   4.230   6.082   4.571
13550TIP3    H240596   4.179   6.202   4.650
13551TIP3   OH240597   0.276   3.164   3.738
13551TIP3    H140598   0.285   3.129   3.649
13551TIP3    H240599   0.238   3.251   3.726
13552TIP3   OH240600   2.643   3.483   5.469
13552TIP3    H140601   2.602   3.443   5.392
13552TIP3    H240602   2.628   3.421   5.540
13553TIP3   OH240603   0.095   7.111   3.422
13553TIP3    H140604   0.085   7.027   3.466
13553TIP3    H240605   0.173   7.101   3.368
13554TIP3   OH240606   0.237   4.314   5.121
13554TIP3    H140607   0.167   4.378   5.136
13554TIP3    H240608   0.289   4.317   5.201
13555TIP3   OH240609   3.779   0.615   6.139
13555TIP3    H140610   3.766   0.568   6.057
13555TIP3    H240611   3.864   0.657   6.129
13556TIP3   OH240612   1.813   3.966   4.550
13556TIP3    H140613   1.853   3.883   4.523
13556TIP3    H240614   1.721   3.945   4.566
13557TIP3   OH240615   7.071   5.379   1.652
13557TIP3    H140616   7.157   5.422   1.654
13557TIP3    H240617   7.010   5.450   1.632
13558TIP3   OH240618   3.404   1.058   1.732
13558TIP3    H140619   3.336   1.079   1.668
13558TIP3    H240620   3.452   1.139   1.744
13559TIP3   OH240621   3.733   3.957   4.610
13559TIP3    H140622   3.750   3.977   4.702
13559TIP3    H240623   3.714   3.863   4.609
13560TIP3   OH240624   7.083   6.910   1.945
13560TIP3    H140625   7.051   6.997   1.922
13560TIP3    H240626   7.027   6.850   1.896
13561TIP3   OH240627   8.011   1.648   2.390
13561TIP3    H140628   8.060   1.683   2.465
13561TIP3    H240629   7.944   1.714   2.373
13562TIP3   OH240630   1.790   1.851   1.026
13562TIP3    H140631   1.790   1.779   0.963
13562TIP3    H240632   1.715   1.834   1.083
13563TIP3   OH240633   6.657   1.800   2.945
13563TIP3    H140634   6.597   1.731   2.974
13563TIP3    H240635   6.618   1.834   2.865
13564TIP3   OH240636   3.095   5.337   3.228
13564TIP3    H140637   3.022   5.332   3.167
13564TIP3    H240638   3.154   5.267   3.201
13565TIP3   OH240639   1.259   3.240   4.071
13565TIP3    H140640   1.334   3.239   4.131
13565TIP3    H240641   1.232   3.149   4.065
13566TIP3   OH240642   2.856   1.012   5.405
13566TIP3    H140643   2.841   1.007   5.310
13566TIP3    H240644   2.789   1.073   5.436
13567TIP3   OH240645   0.425   0.611   1.677
13567TIP3    H140646   0.454   0.651   1.595
13567TIP3    H240647   0.359   0.547   1.651
13568TIP3   OH240648   6.660   4.832   5.901
13568TIP3    H140649   6.703   4.773   5.963
13568TIP3    H240650   6.570   4.838   5.932
13569TIP3   OH240651   0.526   3.133   0.885
13569TIP3    H140652   0.436   3.161   0.868
13569TIP3    H240653   0.579   3.210   0.866
13570TIP3   OH240654   3.431   4.013   6.602
13570TIP3    H140655   3.424   3.947   6.670
13570TIP3    H240656   3.346   4.012   6.558
13571TIP3   OH240657   0.416   3.228   2.967
13571TIP3    H140658   0.324   3.217   2.994
13571TIP3    H240659   0.458   3.146   2.994
13572TIP3   OH240660   8.031   3.027   5.838
13572TIP3    H140661   8.075   3.109   5.816
13572TIP3    H240662   7.940   3.040   5.811
13573TIP3   OH240663   2.242   1.848   4.681
13573TIP3    H140664   2.254   1.933   4.723
13573TIP3    H240665   2.303   1.849   4.607
13574TIP3   OH240666   8.234   4.628   6.542
13574TIP3    H140667   8.149   4.621   6.585
13574TIP3    H240668   8.214   4.660   6.454
13575TIP3   OH240669   1.741   0.522   5.952
13575TIP3    H140670   1.670   0.472   5.911
13575TIP3    H240671   1.702   0.559   6.031
13576TIP3   OH240672   7.082   1.066   5.825
13576TIP3    H140673   7.162   1.112   5.849
13576TIP3    H240674   7.052   1.026   5.906
13577TIP3   OH240675   3.711   6.921   2.526
13577TIP3    H140676   3.646   6.876   2.581
13577TIP3    H240677   3.704   6.878   2.441
13578TIP3   OH240678   4.463   0.202   2.591
13578TIP3    H140679   4.449   0.187   2.497
13578TIP3    H240680   4.490   0.116   2.625
13579TIP3   OH240681   1.007   3.410   1.030
13579TIP3    H140682   1.051   3.329   1.006
13579TIP3    H240683   0.969   3.442   0.947
13580TIP3   OH240684   1.346   4.554   2.562
13580TIP3    H140685   1.392   4.637   2.566
13580TIP3    H240686   1.383   4.503   2.635
13581TIP3   OH240687   5.160   1.772   6.034
13581TIP3    H140688   5.202   1.707   6.090
13581TIP3    H240689   5.089   1.724   5.992
13582TIP3   OH240690   3.658   2.667   5.622
13582TIP3    H140691   3.652   2.729   5.549
13582TIP3    H240692   3.684   2.584   5.582
13583TIP3   OH240693   0.976   7.440   2.404
13583TIP3    H140694   0.988   7.477   2.317
13583TIP3    H240695   0.995   7.347   2.394
13584TIP3   OH240696   6.897   2.107   1.798
13584TIP3    H140697   6.916   2.187   1.749
13584TIP3    H240698   6.805   2.090   1.779
13585TIP3   OH240699   6.190   4.129   1.176
13585TIP3    H140700   6.222   4.161   1.091
13585TIP3    H240701   6.096   4.119   1.164
13586TIP3   OH240702   1.736   6.808   1.172
13586TIP3    H140703   1.793   6.883   1.160
13586TIP3    H240704   1.708   6.812   1.263
13587TIP3   OH240705   4.374   0.506   5.640
13587TIP3    H140706   4.281   0.504   5.659
13587TIP3    H240707   4.415   0.454   5.709
13588TIP3   OH240708   2.544   3.294   2.803
13588TIP3    H140709   2.450   3.299   2.818
13588TIP3    H240710   2.579   3.254   2.883
13589TIP3   OH240711   7.150   7.126   4.443
13589TIP3    H140712   7.146   7.121   4.538
13589TIP3    H240713   7.114   7.043   4.413
13590TIP3   OH240714   5.767   6.396   1.876
13590TIP3    H140715   5.792   6.485   1.903
13590TIP3    H240716   5.677   6.405   1.846
13591TIP3   OH240717   6.531   3.237   1.835
13591TIP3    H140718   6.479   3.314   1.859
13591TIP3    H240719   6.466   3.168   1.818
13592TIP3   OH240720   1.830   0.860   1.808
13592TIP3    H140721   1.774   0.849   1.885
13592TIP3    H240722   1.770   0.858   1.734
13593TIP3   OH240723   3.528   1.317   4.604
13593TIP3    H140724   3.444   1.270   4.600
13593TIP3    H240725   3.576   1.288   4.527
13594TIP3   OH240726   7.992   0.986   0.106
13594TIP3    H140727   7.983   0.917   0.040
13594TIP3    H240728   8.064   1.041   0.073
13595TIP3   OH240729   1.547   1.956   1.394
13595TIP3    H140730   1.574   2.044   1.367
13595TIP3    H240731   1.589   1.943   1.479
13596TIP3   OH240732   0.581   4.108   0.772
13596TIP3    H140733   0.517   4.172   0.802
13596TIP3    H240734   0.534   4.024   0.775
13597TIP3   OH240735   0.401   6.558   5.698
13597TIP3    H140736   0.489   6.521   5.694
13597TIP3    H240737   0.368   6.554   5.608
13598TIP3   OH240738   7.902   2.830   4.722
13598TIP3    H140739   7.934   2.891   4.788
13598TIP3    H240740   7.948   2.748   4.741
13599TIP3   OH240741   6.776   7.371   2.165
13599TIP3    H140742   6.823   7.352   2.246
13599TIP3    H240743   6.751   7.463   2.173
13600TIP3   OH240744   3.508   3.058   6.009
13600TIP3    H140745   3.472   3.028   6.093
13600TIP3    H240746   3.594   3.093   6.032
13601TIP3   OH240747   3.118   4.992   2.313
13601TIP3    H140748   3.186   4.930   2.340
13601TIP3    H240749   3.037   4.956   2.349
13602TIP3   OH240750   4.075   7.331   1.132
13602TIP3    H140751   4.115   7.283   1.204
13602TIP3    H240752   4.078   7.422   1.160
13603TIP3   OH240753   5.894   6.895   0.174
13603TIP3    H140754   5.896   6.859   0.263
13603TIP3    H240755   5.954   6.839   0.125
13604TIP3   OH240756   6.215   6.581   1.075
13604TIP3    H140757   6.156   6.517   1.114
13604TIP3    H240758   6.289   6.585   1.136
13605TIP3   OH240759   4.504   1.079   4.290
13605TIP3    H140760   4.505   0.994   4.334
13605TIP3    H240761   4.579   1.126   4.327
13606TIP3   OH240762   2.844   7.357   3.498
13606TIP3    H140763   2.888   7.424   3.550
13606TIP3    H240764   2.863   7.381   3.407
13607TIP3   OH240765   5.695   0.885   3.555
13607TIP3    H140766   5.706   0.829   3.478
13607TIP3    H240767   5.704   0.825   3.629
13608TIP3   OH240768   0.531   0.667   0.120
13608TIP3    H140769   0.476   0.613   0.063
13608TIP3    H240770   0.470   0.706   0.182
13609TIP3   OH240771   6.917   5.942   0.744
13609TIP3    H140772   6.848   5.996   0.781
13609TIP3    H240773   6.871   5.866   0.707
13610TIP3   OH240774   3.431   6.749   1.702
13610TIP3    H140775   3.417   6.670   1.754
13610TIP3    H240776   3.513   6.786   1.736
13611TIP3   OH240777   2.850   4.693   2.897
13611TIP3    H140778   2.944   4.694   2.876
13611TIP3    H240779   2.821   4.605   2.874
13612TIP3   OH240780   7.917   4.717   4.712
13612TIP3    H140781   7.948   4.690   4.625
13612TIP3    H240782   7.823   4.726   4.702
13613TIP3   OH240783   2.547   0.686   6.375
13613TIP3    H140784   2.626   0.638   6.403
13613TIP3    H240785   2.506   0.629   6.311
13614TIP3   OH240786   1.653   6.390   3.279
13614TIP3    H140787   1.699   6.467   3.311
13614TIP3    H240788   1.569   6.391   3.325
13615TIP3   OH240789   5.076   6.537   5.468
13615TIP3    H140790   5.130   6.579   5.402
13615TIP3    H240791   5.029   6.469   5.420
13616TIP3   OH240792   4.532   3.703   4.131
13616TIP3    H140793   4.555   3.623   4.084
13616TIP3    H240794   4.442   3.689   4.161
13617TIP3   OH240795   2.209   1.754   2.640
13617TIP3    H140796   2.131   1.725   2.688
13617TIP3    H240797   2.178   1.770   2.551
13618TIP3   OH240798   3.955   2.978   5.286
13618TIP3    H140799   3.911   3.057   5.253
13618TIP3    H240800   4.024   3.012   5.344
13619TIP3   OH240801   1.819   7.506   1.493
13619TIP3    H140802   1.851   7.421   1.463
13619TIP3    H240803   1.888   7.540   1.549
13620TIP3   OH240804   7.399   4.980   5.580
13620TIP3    H140805   7.492   4.992   5.563
13620TIP3    H240806   7.389   4.997   5.674
13621TIP3   OH240807   7.381   3.507   6.087
13621TIP3    H140808   7.389   3.593   6.127
13621TIP3    H240809   7.373   3.524   5.994
13622TIP3   OH240810   6.996   3.924   1.171
13622TIP3    H140811   6.941   3.865   1.222
13622TIP3    H240812   7.086   3.898   1.194
13623TIP3   OH240813   4.780   2.708   5.611
13623TIP3    H140814   4.788   2.803   5.603
13623TIP3    H240815   4.801   2.689   5.702
13624TIP3   OH240816   2.268   0.816   3.629
13624TIP3    H140817   2.326   0.824   3.552
13624TIP3    H240818   2.285   0.896   3.679
13625TIP3   OH240819   4.023   1.083   1.642
13625TIP3    H140820   3.951   1.031   1.677
13625TIP3    H240821   3.992   1.173   1.646
13626TIP3   OH240822   1.563   0.041   3.648
13626TIP3    H140823   1.587   0.091   3.726
13626TIP3    H240824   1.632  -0.025   3.640
13627TIP3   OH240825   5.975   1.153   5.479
13627TIP3    H140826   5.929   1.237   5.487
13627TIP3    H240827   5.905   1.088   5.469
13628TIP3   OH240828   7.286   7.483   1.405
13628TIP3    H140829   7.359   7.434   1.445
13628TIP3    H240830   7.259   7.428   1.331
13629TIP3   OH240831   4.616   7.575   2.597
13629TIP3    H140832   4.676   7.509   2.633
13629TIP3    H240833   4.594   7.541   2.510
13630TIP3   OH240834   2.773   0.064   6.070
13630TIP3    H140835   2.744  -0.011   6.018
13630TIP3    H240836   2.824   0.117   6.009
13631TIP3   OH240837   0.520   7.301   5.054
13631TIP3    H140838   0.452   7.307   4.987
13631TIP3    H240839   0.544   7.208   5.056
13632TIP3   OH240840   3.371   2.068   3.862
13632TIP3    H140841   3.436   2.134   3.886
13632TIP3    H240842   3.314   2.063   3.939
13633TIP3   OH240843   4.405   6.824   4.401
13633TIP3    H140844   4.357   6.839   4.320
13633TIP3    H240845   4.353   6.758   4.447
13634TIP3   OH240846   0.717   1.156   4.411
13634TIP3    H140847   0.635   1.178   4.366
13634TIP3    H240848   0.743   1.238   4.454
13635TIP3   OH240849   0.984   0.521   1.542
13635TIP3    H140850   0.889   0.526   1.531
13635TIP3    H240851   1.014   0.474   1.464
13636TIP3   OH240852   7.395   4.443   3.508
13636TIP3    H140853   7.413   4.372   3.446
13636TIP3    H240854   7.460   4.432   3.577
13637TIP3   OH240855   1.664   2.205   1.702
13637TIP3    H140856   1.726   2.227   1.633
13637TIP3    H240857   1.620   2.288   1.722
13638TIP3   OH240858   2.920   5.314   2.163
13638TIP3    H140859   2.971   5.369   2.104
13638TIP3    H240860   2.835   5.358   2.168
13639TIP3   OH240861   4.576   4.813   5.063
13639TIP3    H140862   4.642   4.787   4.998
13639TIP3    H240863   4.495   4.772   5.032
13640TIP3   OH240864   1.498   1.548   0.656
13640TIP3    H140865   1.523   1.457   0.639
13640TIP3    H240866   1.470   1.548   0.748
13641TIP3   OH240867   6.917   6.103   2.546
13641TIP3    H140868   6.962   6.181   2.579
13641TIP3    H240869   6.910   6.045   2.621
13642TIP3   OH240870   7.154   6.389   0.487
13642TIP3    H140871   7.173   6.467   0.539
13642TIP3    H240872   7.132   6.322   0.552
13643TIP3   OH240873   6.539   4.767   0.765
13643TIP3    H140874   6.587   4.850   0.761
13643TIP3    H240875   6.608   4.700   0.759
13644TIP3   OH240876   6.802   4.135   2.069
13644TIP3    H140877   6.715   4.131   2.030
13644TIP3    H240878   6.814   4.227   2.092
13645TIP3   OH240879   7.111   2.823   0.855
13645TIP3    H140880   7.186   2.810   0.913
13645TIP3    H240881   7.084   2.734   0.830
13646TIP3   OH240882   8.093   6.022   0.839
13646TIP3    H140883   8.049   5.992   0.760
13646TIP3    H240884   8.118   5.942   0.886
13647TIP3   OH240885   7.890   0.387   6.000
13647TIP3    H140886   7.956   0.323   6.026
13647TIP3    H240887   7.851   0.350   5.921
13648TIP3   OH240888   4.136   7.084   2.364
13648TIP3    H140889   4.073   7.144   2.326
13648TIP3    H240890   4.184   7.137   2.429
13649TIP3   OH240891   6.914   7.643   0.807
13649TIP3    H140892   6.835   7.626   0.859
13649TIP3    H240893   6.881   7.675   0.724
13650TIP3   OH240894   0.499   2.340   2.375
13650TIP3    H140895   0.465   2.430   2.377
13650TIP3    H240896   0.511   2.317   2.467
13651TIP3   OH240897   4.155   0.220   5.746
13651TIP3    H140898   4.135   0.129   5.724
13651TIP3    H240899   4.144   0.226   5.841
13652TIP3   OH240900   3.627   6.172   2.871
13652TIP3    H140901   3.544   6.145   2.911
13652TIP3    H240902   3.634   6.265   2.893
13653TIP3   OH240903   2.031   4.056   5.294
13653TIP3    H140904   2.100   4.094   5.239
13653TIP3    H240905   1.962   4.123   5.294
13654TIP3   OH240906   7.642   4.779   3.705
13654TIP3    H140907   7.635   4.769   3.610
13654TIP3    H240908   7.585   4.854   3.725
13655TIP3   OH240909   2.168   7.776   4.822
13655TIP3    H140910   2.249   7.763   4.773
13655TIP3    H240911   2.106   7.715   4.783
13656TIP3   OH240912   7.352   5.258   3.062
13656TIP3    H140913   7.416   5.327   3.078
13656TIP3    H240914   7.267   5.302   3.069
13657TIP3   OH240915   6.706   5.309   5.728
13657TIP3    H140916   6.719   5.225   5.684
13657TIP3    H240917   6.659   5.286   5.809
13658TIP3   OH240918   5.643   1.832   1.655
13658TIP3    H140919   5.568   1.789   1.614
13658TIP3    H240920   5.673   1.771   1.723
13659TIP3   OH240921   1.164   7.651   1.819
13659TIP3    H140922   1.126   7.632   1.905
13659TIP3    H240923   1.148   7.744   1.806
13660TIP3   OH240924   3.189   3.943   0.374
13660TIP3    H140925   3.097   3.916   0.366
13660TIP3    H240926   3.195   3.982   0.461
13661TIP3   OH240927   8.027   4.500   1.139
13661TIP3    H140928   7.988   4.475   1.056
13661TIP3    H240929   8.009   4.594   1.147
13662TIP3   OH240930   6.286   3.642   1.288
13662TIP3    H140931   6.302   3.697   1.365
13662TIP3    H240932   6.286   3.704   1.215
13663TIP3   OH240933   5.075   4.742   4.077
13663TIP3    H140934   5.170   4.745   4.078
13663TIP3    H240935   5.052   4.689   4.153
13664TIP3   OH240936   7.340   6.852   1.274
13664TIP3    H140937   7.419   6.905   1.261
13664TIP3    H240938   7.293   6.896   1.345
13665TIP3   OH240939   5.702   4.295   1.934
13665TIP3    H140940   5.698   4.380   1.978
13665TIP3    H240941   5.727   4.233   2.003
13666TIP3   OH240942   5.851   4.861   4.286
13666TIP3    H140943   5.782   4.926   4.295
13666TIP3    H240944   5.927   4.910   4.255
13667TIP3   OH240945   7.480   0.906   6.047
13667TIP3    H140946   7.480   0.814   6.072
13667TIP3    H240947   7.549   0.913   5.981
13668TIP3   OH240948   7.423   6.412   4.136
13668TIP3    H140949   7.462   6.377   4.056
13668TIP3    H240950   7.492   6.463   4.177
13669TIP3   OH240951   2.955   6.672   5.068
13669TIP3    H140952   2.947   6.764   5.043
13669TIP3    H240953   2.937   6.624   4.987
13670TIP3   OH240954   6.784   2.502   2.677
13670TIP3    H140955   6.829   2.451   2.745
13670TIP3    H240956   6.810   2.460   2.595
13671TIP3   OH240957   0.966   2.884   6.625
13671TIP3    H140958   0.960   2.806   6.680
13671TIP3    H240959   0.901   2.870   6.556
13672TIP3   OH240960   3.382   3.772   6.744
13672TIP3    H140961   3.400   3.732   6.659
13672TIP3    H240962   3.296   3.737   6.769
13673TIP3   OH240963   4.004   2.134   1.423
13673TIP3    H140964   3.915   2.100   1.423
13673TIP3    H240965   4.015   2.173   1.510
13674TIP3   OH240966   6.070   5.014   4.247
13674TIP3    H140967   6.131   5.084   4.224
13674TIP3    H240968   6.115   4.964   4.314
13675TIP3   OH240969   3.621   7.795   1.688
13675TIP3    H140970   3.580   7.738   1.753
13675TIP3    H240971   3.549   7.846   1.651
13676TIP3   OH240972   5.545   3.289   3.341
13676TIP3    H140973   5.613   3.338   3.296
13676TIP3    H240974   5.506   3.233   3.273
13677TIP3   OH240975   2.262   6.253   1.036
13677TIP3    H140976   2.265   6.341   1.073
13677TIP3    H240977   2.173   6.246   1.001
13678TIP3   OH240978   5.131   7.004   5.607
13678TIP3    H140979   5.081   7.063   5.551
13678TIP3    H240980   5.194   7.060   5.652
13679TIP3   OH240981   2.869   7.037   2.127
13679TIP3    H140982   2.935   7.082   2.180
13679TIP3    H240983   2.903   7.040   2.038
13680TIP3   OH240984   3.622   5.059   5.441
13680TIP3    H140985   3.659   5.146   5.453
13680TIP3    H240986   3.698   5.001   5.436
13681TIP3   OH240987   2.088   0.907   0.638
13681TIP3    H140988   2.047   0.991   0.622
13681TIP3    H240989   2.039   0.869   0.711
13682TIP3   OH240990   1.475   6.020   2.618
13682TIP3    H140991   1.529   5.958   2.570
13682TIP3    H240992   1.489   6.104   2.573
13683TIP3   OH240993   3.691   5.126   4.065
13683TIP3    H140994   3.634   5.155   4.137
13683TIP3    H240995   3.633   5.116   3.990
13684TIP3   OH240996   0.747   3.718   3.714
13684TIP3    H140997   0.683   3.732   3.784
13684TIP3    H240998   0.818   3.779   3.734
13685TIP3   OH240999   3.452   4.514   3.785
13685TIP3    H141000   3.491   4.439   3.830
13685TIP3    H241001   3.484   4.590   3.833
13686TIP3   OH241002   6.312   2.222   4.626
13686TIP3    H141003   6.309   2.141   4.677
13686TIP3    H241004   6.361   2.283   4.681
13687TIP3   OH241005   3.192   0.972   2.212
13687TIP3    H141006   3.246   0.929   2.146
13687TIP3    H241007   3.230   1.060   2.220
13688TIP3   OH241008   1.505   5.725   5.774
13688TIP3    H141009   1.424   5.701   5.729
13688TIP3    H241010   1.494   5.694   5.864
13689TIP3   OH241011   4.494   2.785   4.463
13689TIP3    H141012   4.466   2.849   4.397
13689TIP3    H241013   4.587   2.770   4.444
13690TIP3   OH241014   7.919   0.261   0.551
13690TIP3    H141015   7.887   0.335   0.500
13690TIP3    H241016   7.981   0.217   0.492
13691TIP3   OH241017   2.937   2.647   2.448
13691TIP3    H141018   3.027   2.674   2.429
13691TIP3    H241019   2.885   2.687   2.378
13692TIP3   OH241020   0.539   5.126   4.879
13692TIP3    H141021   0.607   5.103   4.943
13692TIP3    H241022   0.511   5.214   4.904
13693TIP3   OH241023   5.265   5.350   6.144
13693TIP3    H141024   5.183   5.358   6.193
13693TIP3    H241025   5.327   5.313   6.207
13694TIP3   OH241026   3.842   2.133   2.869
13694TIP3    H141027   3.792   2.173   2.798
13694TIP3    H241028   3.797   2.159   2.949
13695TIP3   OH241029   7.914   4.197   3.791
13695TIP3    H141030   7.939   4.253   3.864
13695TIP3    H241031   7.856   4.251   3.737
13696TIP3   OH241032   3.687   1.953   4.891
13696TIP3    H141033   3.646   2.016   4.950
13696TIP3    H241034   3.619   1.887   4.876
13697TIP3   OH241035   5.957   5.085   2.932
13697TIP3    H141036   5.959   4.991   2.950
13697TIP3    H241037   5.997   5.125   3.009
13698TIP3   OH241038   5.888   0.589   0.761
13698TIP3    H141039   5.949   0.663   0.752
13698TIP3    H241040   5.809   0.628   0.800
13699TIP3   OH241041   7.011   2.960   2.779
13699TIP3    H141042   7.089   2.940   2.831
13699TIP3    H241043   7.003   2.888   2.717
13700TIP3   OH241044   1.106   5.116   0.477
13700TIP3    H141045   1.087   5.105   0.384
13700TIP3    H241046   1.202   5.119   0.482
13701TIP3   OH241047   4.628   1.101   2.645
13701TIP3    H141048   4.631   1.075   2.553
13701TIP3    H241049   4.537   1.124   2.661
13702TIP3   OH241050   0.315   5.914   3.249
13702TIP3    H141051   0.257   5.881   3.180
13702TIP3    H241052   0.299   6.009   3.251
13703TIP3   OH241053   4.802   3.213   1.759
13703TIP3    H141054   4.738   3.204   1.829
13703TIP3    H241055   4.789   3.303   1.727
13704TIP3   OH241056   3.428   5.932   6.142
13704TIP3    H141057   3.498   5.935   6.208
13704TIP3    H241058   3.388   6.019   6.145
13705TIP3   OH241059   5.773   6.282   3.566
13705TIP3    H141060   5.757   6.190   3.544
13705TIP3    H241061   5.865   6.296   3.543
13706TIP3   OH241062   6.185   7.474   4.982
13706TIP3    H141063   6.241   7.550   4.965
13706TIP3    H241064   6.216   7.439   5.066
13707TIP3   OH241065   0.592   0.304   1.707
13707TIP3    H141066   0.645   0.336   1.635
13707TIP3    H241067   0.505   0.291   1.669
13708TIP3   OH241068   1.981   1.035   1.929
13708TIP3    H141069   1.937   0.971   1.874
13708TIP3    H241070   1.923   1.111   1.929
13709TIP3   OH241071   0.959   4.160   5.135
13709TIP3    H141072   0.958   4.152   5.040
13709TIP3    H241073   0.871   4.132   5.163
13710TIP3   OH241074   7.808   6.739   6.356
13710TIP3    H141075   7.854   6.822   6.370
13710TIP3    H241076   7.735   6.761   6.299
13711TIP3   OH241077   5.754   6.989   0.409
13711TIP3    H141078   5.753   6.977   0.314
13711TIP3    H241079   5.772   7.082   0.421
13712TIP3   OH241080   1.805   5.946   6.206
13712TIP3    H141081   1.803   6.029   6.158
13712TIP3    H241082   1.877   5.897   6.165
13713TIP3   OH241083   1.488   0.647   0.337
13713TIP3    H141084   1.454   0.563   0.368
13713TIP3    H241085   1.438   0.665   0.258
13714TIP3   OH241086   5.362   5.065   5.799
13714TIP3    H141087   5.290   5.127   5.813
13714TIP3    H241088   5.414   5.070   5.880
13715TIP3   OH241089   2.999   7.181   3.802
13715TIP3    H141090   3.001   7.125   3.880
13715TIP3    H241091   2.976   7.122   3.730
13716TIP3   OH241092   6.447   6.334   3.186
13716TIP3    H141093   6.516   6.394   3.157
13716TIP3    H241094   6.424   6.286   3.106
13717TIP3   OH241095   0.106   6.102   3.266
13717TIP3    H141096   0.103   6.093   3.171
13717TIP3    H241097   0.050   6.031   3.298
13718TIP3   OH241098   8.043   5.237   5.890
13718TIP3    H141099   7.960   5.233   5.843
13718TIP3    H241100   8.107   5.202   5.828
13719TIP3   OH241101   0.819   7.094   4.589
13719TIP3    H141102   0.852   7.004   4.592
13719TIP3    H241103   0.756   7.094   4.517
13720TIP3   OH241104   3.472   2.697   0.483
13720TIP3    H141105   3.406   2.756   0.518
13720TIP3    H241106   3.531   2.754   0.433
13721TIP3   OH241107   7.450   0.691   0.248
13721TIP3    H141108   7.472   0.611   0.200
13721TIP3    H241109   7.463   0.762   0.186
13722TIP3   OH241110   7.037   7.208   2.610
13722TIP3    H141111   7.103   7.202   2.541
13722TIP3    H241112   7.061   7.139   2.672
13723TIP3   OH241113   2.273   3.686   0.718
13723TIP3    H141114   2.198   3.697   0.659
13723TIP3    H241115   2.258   3.750   0.788
13724TIP3   OH241116   1.040   1.109   1.708
13724TIP3    H141117   0.962   1.054   1.715
13724TIP3    H241118   1.077   1.108   1.796
13725TIP3   OH241119   4.794   3.235   6.569
13725TIP3    H141120   4.733   3.164   6.588
13725TIP3    H241121   4.854   3.236   6.644
13726TIP3   OH241122   2.879   4.282   4.567
13726TIP3    H141123   2.873   4.312   4.476
13726TIP3    H241124   2.877   4.362   4.619
13727TIP3   OH241125   0.162   7.502   4.502
13727TIP3    H141126   0.193   7.590   4.482
13727TIP3    H241127   0.167   7.496   4.598
13728TIP3   OH241128   4.017   2.526   6.600
13728TIP3    H141129   4.095   2.563   6.641
13728TIP3    H241130   4.040   2.435   6.581
13729TIP3   OH241131   3.916   0.393   2.217
13729TIP3    H141132   3.938   0.486   2.215
13729TIP3    H241133   3.997   0.348   2.191
13730TIP3   OH241134   0.805   4.273   3.000
13730TIP3    H141135   0.748   4.218   2.946
13730TIP3    H241136   0.881   4.218   3.018
13731TIP3   OH241137   3.548   7.712   5.615
13731TIP3    H141138   3.495   7.703   5.695
13731TIP3    H241139   3.485   7.737   5.548
13732TIP3   OH241140   0.500   5.048   4.146
13732TIP3    H141141   0.537   5.021   4.230
13732TIP3    H241142   0.541   4.990   4.082
13733TIP3   OH241143   7.782   0.325   5.305
13733TIP3    H141144   7.778   0.242   5.352
13733TIP3    H241145   7.865   0.364   5.332
13734TIP3   OH241146   4.577   2.135   2.914
13734TIP3    H141147   4.591   2.216   2.865
13734TIP3    H241148   4.524   2.163   2.990
13735TIP3   OH241149   4.318   7.295   2.457
13735TIP3    H141150   4.341   7.379   2.417
13735TIP3    H241151   4.298   7.317   2.548
13736TIP3   OH241152   1.777   2.970   5.054
13736TIP3    H141153   1.816   3.041   5.105
13736TIP3    H241154   1.835   2.960   4.978
13737TIP3   OH241155   6.358   0.306   0.647
13737TIP3    H141156   6.281   0.262   0.613
13737TIP3    H241157   6.398   0.348   0.571
13738TIP3   OH241158   0.676   0.820   6.663
13738TIP3    H141159   0.611   0.807   6.594
13738TIP3    H241160   0.703   0.732   6.687
13739TIP3   OH241161   5.682   5.198   1.490
13739TIP3    H141162   5.754   5.155   1.443
13739TIP3    H241163   5.713   5.288   1.502
13740TIP3   OH241164   5.665   2.076   0.210
13740TIP3    H141165   5.719   2.106   0.138
13740TIP3    H241166   5.618   2.000   0.175
13741TIP3   OH241167   1.774   1.445   1.012
13741TIP3    H141168   1.820   1.488   1.085
13741TIP3    H241169   1.837   1.381   0.979
13742TIP3   OH241170   0.767   3.239   5.366
13742TIP3    H141171   0.794   3.280   5.449
13742TIP3    H241172   0.781   3.307   5.300
13743TIP3   OH241173   6.952   3.568   4.638
13743TIP3    H141174   7.044   3.591   4.645
13743TIP3    H241175   6.919   3.622   4.566
13744TIP3   OH241176   3.948   6.040   5.518
13744TIP3    H141177   4.035   6.026   5.481
13744TIP3    H241178   3.913   6.114   5.468
13745TIP3   OH241179   3.955   7.252   4.903
13745TIP3    H141180   3.892   7.247   4.832
13745TIP3    H241181   3.905   7.227   4.981
13746TIP3   OH241182   5.812   0.382   4.980
13746TIP3    H141183   5.802   0.288   4.968
13746TIP3    H241184   5.863   0.390   5.061
13747TIP3   OH241185   4.053   0.600   0.049
13747TIP3    H141186   4.103   0.518   0.049
13747TIP3    H241187   4.120   0.668   0.057
13748TIP3   OH241188   7.124   0.591   3.756
13748TIP3    H141189   7.211   0.596   3.716
13748TIP3    H241190   7.065   0.574   3.682
13749TIP3   OH241191   0.878   6.679   0.282
13749TIP3    H141192   0.969   6.671   0.311
13749TIP3    H241193   0.873   6.765   0.242
13750TIP3   OH241194   4.575   6.783   4.929
13750TIP3    H141195   4.509   6.715   4.922
13750TIP3    H241196   4.558   6.841   4.854
13751TIP3   OH241197   3.841   4.470   0.311
13751TIP3    H141198   3.756   4.509   0.333
13751TIP3    H241199   3.849   4.483   0.216
13752TIP3   OH241200   4.264   1.759   2.143
13752TIP3    H141201   4.284   1.847   2.173
13752TIP3    H241202   4.271   1.704   2.221
13753TIP3   OH241203   0.864   2.076   3.216
13753TIP3    H141204   0.902   2.100   3.301
13753TIP3    H241205   0.771   2.095   3.225
13754TIP3   OH241206   1.508   5.126   4.949
13754TIP3    H141207   1.598   5.147   4.975
13754TIP3    H241208   1.501   5.158   4.859
13755TIP3   OH241209   6.595   3.305   6.721
13755TIP3    H141210   6.546   3.244   6.777
13755TIP3    H241211   6.632   3.369   6.782
13756TIP3   OH241212   7.913   3.187   6.645
13756TIP3    H141213   7.900   3.254   6.578
13756TIP3    H241214   7.826   3.150   6.659
13757TIP3   OH241215   6.453   7.096   0.019
13757TIP3    H141216   6.409   7.143  -0.052
13757TIP3    H241217   6.409   7.126   0.098
13758TIP3   OH241218   4.058   1.621   1.500
13758TIP3    H141219   4.045   1.696   1.559
13758TIP3    H241220   4.115   1.654   1.431
13759TIP3   OH241221   2.341   1.125   3.393
13759TIP3    H141222   2.247   1.133   3.405
13759TIP3    H241223   2.379   1.192   3.450
13760TIP3   OH241224   4.796   6.773   1.687
13760TIP3    H141225   4.706   6.799   1.667
13760TIP3    H241226   4.787   6.693   1.739
13761TIP3   OH241227   7.118   3.909   6.023
13761TIP3    H141228   7.132   3.855   5.945
13761TIP3    H241229   7.105   3.846   6.094
13762TIP3   OH241230   3.533   2.703   5.866
13762TIP3    H141231   3.535   2.797   5.852
13762TIP3    H241232   3.561   2.666   5.782
13763TIP3   OH241233   7.332   4.801   3.851
13763TIP3    H141234   7.358   4.887   3.817
13763TIP3    H241235   7.241   4.813   3.878
13764TIP3   OH241236   1.515   6.510   3.779
13764TIP3    H141237   1.568   6.542   3.852
13764TIP3    H241238   1.579   6.479   3.714
13765TIP3   OH241239   5.024   4.064   4.109
13765TIP3    H141240   5.048   4.024   4.025
13765TIP3    H241241   4.977   4.143   4.085
13766TIP3   OH241242   8.181   6.335   2.622
13766TIP3    H141243   8.123   6.263   2.645
13766TIP3    H241244   8.151   6.363   2.535
13767TIP3   OH241245   0.973   2.594   2.775
13767TIP3    H141246   0.879   2.580   2.763
13767TIP3    H241247   1.008   2.593   2.686
13768TIP3   OH241248   1.469   3.688   5.333
13768TIP3    H141249   1.495   3.661   5.245
13768TIP3    H241250   1.384   3.646   5.347
13769TIP3   OH241251   4.983   6.013   4.669
13769TIP3    H141252   4.992   6.098   4.712
13769TIP3    H241253   4.953   6.033   4.580
13770TIP3   OH241254   6.031   0.423   3.552
13770TIP3    H141255   6.053   0.434   3.459
13770TIP3    H241256   5.975   0.498   3.571
13771TIP3   OH241257   6.995   4.881   3.813
13771TIP3    H141258   6.948   4.941   3.871
13771TIP3    H241259   6.937   4.805   3.805
13772TIP3   OH241260   5.139   4.910   3.202
13772TIP3    H141261   5.090   4.859   3.267
13772TIP3    H241262   5.072   4.941   3.141
13773TIP3   OH241263   2.088   6.660   2.211
13773TIP3    H141264   2.102   6.586   2.270
13773TIP3    H241265   2.122   6.631   2.127
13774TIP3   OH241266   0.430   7.197   2.269
13774TIP3    H141267   0.369   7.243   2.211
13774TIP3    H241268   0.395   7.212   2.357
13775TIP3   OH241269   1.324   6.922   3.769
13775TIP3    H141270   1.362   6.917   3.856
13775TIP3    H241271   1.306   6.831   3.745
13776TIP3   OH241272   0.308   0.731   3.215
13776TIP3    H141273   0.251   0.729   3.138
13776TIP3    H241274   0.378   0.791   3.191
13777TIP3   OH241275   1.726   6.687   3.592
13777TIP3    H141276   1.804   6.739   3.613
13777TIP3    H241277   1.652   6.742   3.618
13778TIP3   OH241278   6.782   6.159   6.296
13778TIP3    H141279   6.760   6.080   6.247
13778TIP3    H241280   6.776   6.133   6.388
13779TIP3   OH241281   0.921   2.703   5.903
13779TIP3    H141282   0.936   2.797   5.899
13779TIP3    H241283   0.991   2.664   5.851
13780TIP3   OH241284   2.666   0.880   1.011
13780TIP3    H141285   2.738   0.903   0.953
13780TIP3    H241286   2.603   0.952   1.001
13781TIP3   OH241287   0.043   3.877   1.248
13781TIP3    H141288  -0.034   3.846   1.200
13781TIP3    H241289   0.038   3.973   1.242
13782TIP3   OH241290   6.934   3.948   4.147
13782TIP3    H141291   6.893   4.027   4.110
13782TIP3    H241292   6.987   3.913   4.075
13783TIP3   OH241293   4.768   1.072   1.545
13783TIP3    H141294   4.716   0.992   1.554
13783TIP3    H241295   4.705   1.143   1.557
13784TIP3   OH241296   4.538   2.870   3.001
13784TIP3    H141297   4.560   2.959   3.027
13784TIP3    H241298   4.553   2.868   2.906
13785TIP3   OH241299   8.176   2.995   5.349
13785TIP3    H141300   8.254   2.998   5.293
13785TIP3    H241301   8.172   3.082   5.389
13786TIP3   OH241302   1.832   2.376   0.491
13786TIP3    H141303   1.763   2.318   0.524
13786TIP3    H241304   1.835   2.359   0.397
13787TIP3   OH241305   1.643   0.048   3.152
13787TIP3    H141306   1.635   0.040   3.247
13787TIP3    H241307   1.567   0.101   3.126
13788TIP3   OH241308   3.813   6.349   2.481
13788TIP3    H141309   3.902   6.382   2.468
13788TIP3    H241310   3.825   6.263   2.521
13789TIP3   OH241311   2.982   6.498   0.308
13789TIP3    H141312   2.906   6.556   0.301
13789TIP3    H241313   2.966   6.430   0.243
13790TIP3   OH241314   1.116   1.310   2.542
13790TIP3    H141315   1.203   1.275   2.522
13790TIP3    H241316   1.077   1.328   2.457
13791TIP3   OH241317   8.231   0.762   0.440
13791TIP3    H141318   8.141   0.787   0.459
13791TIP3    H241319   8.224   0.700   0.367
13792TIP3   OH241320   3.972   1.111   3.288
13792TIP3    H141321   4.004   1.127   3.376
13792TIP3    H241322   3.887   1.155   3.285
13793TIP3   OH241323   6.974   2.388   6.567
13793TIP3    H141324   6.969   2.438   6.485
13793TIP3    H241325   7.038   2.435   6.620
13794TIP3   OH241326   6.754   0.763   6.468
13794TIP3    H141327   6.704   0.682   6.453
13794TIP3    H241328   6.735   0.785   6.559
13795TIP3   OH241329   5.336   3.000   3.639
13795TIP3    H141330   5.417   3.048   3.622
13795TIP3    H241331   5.364   2.910   3.651
13796TIP3   OH241332   6.167   7.283   2.683
13796TIP3    H141333   6.233   7.240   2.628
13796TIP3    H241334   6.092   7.224   2.681
13797TIP3   OH241335   1.446   3.310   0.980
13797TIP3    H141336   1.414   3.234   0.933
13797TIP3    H241337   1.540   3.296   0.989
13798TIP3   OH241338   6.845   0.618   5.607
13798TIP3    H141339   6.893   0.700   5.597
13798TIP3    H241340   6.836   0.584   5.518
13799TIP3   OH241341   2.691   6.248   1.475
13799TIP3    H141342   2.620   6.196   1.437
13799TIP3    H241343   2.710   6.206   1.558
13800TIP3   OH241344   5.459   3.439   0.172
13800TIP3    H141345   5.509   3.450   0.091
13800TIP3    H241346   5.408   3.359   0.158
13801TIP3   OH241347   8.156   3.882   1.888
13801TIP3    H141348   8.083   3.926   1.844
13801TIP3    H241349   8.115   3.830   1.957
13802TIP3   OH241350   0.504   0.668   0.632
13802TIP3    H141351   0.571   0.736   0.638
13802TIP3    H241352   0.550   0.594   0.591
13803TIP3   OH241353   3.241   4.472   2.641
13803TIP3    H141354   3.312   4.420   2.604
13803TIP3    H241355   3.198   4.511   2.565
13804TIP3   OH241356   1.863   6.846   4.632
13804TIP3    H141357   1.875   6.873   4.723
13804TIP3    H241358   1.942   6.876   4.587
13805TIP3   OH241359   6.802   1.893   0.472
13805TIP3    H141360   6.841   1.820   0.425
13805TIP3    H241361   6.739   1.852   0.532
13806TIP3   OH241362   7.109   1.063   4.737
13806TIP3    H141363   7.179   1.038   4.797
13806TIP3    H241364   7.044   0.993   4.745
13807TIP3   OH241365   0.900   6.178   4.860
13807TIP3    H141366   0.847   6.195   4.783
13807TIP3    H241367   0.837   6.172   4.932
13808TIP3   OH241368   4.304   3.583   0.943
13808TIP3    H141369   4.348   3.605   1.025
13808TIP3    H241370   4.263   3.498   0.960
13809TIP3   OH241371   8.064   0.559   5.072
13809TIP3    H141372   8.039   0.642   5.032
13809TIP3    H241373   8.078   0.580   5.164
13810TIP3   OH241374   6.690   4.803   1.040
13810TIP3    H141375   6.734   4.799   1.125
13810TIP3    H241376   6.707   4.718   0.999
13811TIP3   OH241377   2.030   1.375   0.392
13811TIP3    H141378   2.057   1.447   0.450
13811TIP3    H241379   2.112   1.344   0.353
13812TIP3   OH241380   3.847   0.859   3.925
13812TIP3    H141381   3.885   0.894   3.844
13812TIP3    H241382   3.755   0.843   3.903
13813TIP3   OH241383   2.563   4.983   2.138
13813TIP3    H141384   2.571   5.078   2.142
13813TIP3    H241385   2.503   4.960   2.210
13814TIP3   OH241386   4.941   3.892   3.428
13814TIP3    H141387   4.873   3.922   3.489
13814TIP3    H241388   5.024   3.915   3.470
13815TIP3   OH241389   7.692   2.964   2.276
13815TIP3    H141390   7.666   2.922   2.194
13815TIP3    H241391   7.713   2.892   2.335
13816TIP3   OH241392   3.072   3.492   5.649
13816TIP3    H141393   3.047   3.402   5.625
13816TIP3    H241394   3.000   3.546   5.616
13817TIP3   OH241395   0.117   4.328   0.187
13817TIP3    H141396   0.057   4.357   0.119
13817TIP3    H241397   0.162   4.253   0.150
13818TIP3   OH241398   4.425   7.575   2.837
13818TIP3    H141399   4.464   7.557   2.752
13818TIP3    H241400   4.395   7.666   2.831
13819TIP3   OH241401   2.257   2.552   1.853
13819TIP3    H141402   2.174   2.597   1.866
13819TIP3    H241403   2.258   2.531   1.759
13820TIP3   OH241404   1.376   5.950   1.452
13820TIP3    H141405   1.448   5.914   1.400
13820TIP3    H241406   1.420   5.995   1.525
13821TIP3   OH241407   6.348   0.739   4.865
13821TIP3    H141408   6.414   0.736   4.796
13821TIP3    H241409   6.381   0.682   4.933
13822TIP3   OH241410   4.005   5.471   1.932
13822TIP3    H141411   3.976   5.433   1.849
13822TIP3    H241412   3.933   5.454   1.993
13823TIP3   OH241413   2.931   7.461   3.263
13823TIP3    H141414   3.001   7.526   3.256
13823TIP3    H241415   2.851   7.508   3.240
13824TIP3   OH241416   2.404   7.428   1.921
13824TIP3    H141417   2.403   7.495   1.852
13824TIP3    H241418   2.322   7.442   1.969
13825TIP3   OH241419   3.907   0.390   0.214
13825TIP3    H141420   3.865   0.308   0.186
13825TIP3    H241421   3.948   0.425   0.135
13826TIP3   OH241422   2.337  -0.012   1.493
13826TIP3    H141423   2.307  -0.025   1.583
13826TIP3    H241424   2.278   0.054   1.457
13827TIP3   OH241425   3.176   0.233   0.702
13827TIP3    H141426   3.147   0.207   0.615
13827TIP3    H241427   3.271   0.244   0.694
13828TIP3   OH241428   4.957   6.363   4.111
13828TIP3    H141429   4.916   6.282   4.142
13828TIP3    H241430   4.999   6.400   4.188
13829TIP3   OH241431   1.659   0.133   0.688
13829TIP3    H141432   1.724   0.109   0.754
13829TIP3    H241433   1.698   0.105   0.605
13830TIP3   OH241434   1.633   0.209   4.236
13830TIP3    H141435   1.544   0.211   4.201
13830TIP3    H241436   1.622   0.192   4.329
13831TIP3   OH241437   1.695   5.878   5.095
13831TIP3    H141438   1.745   5.915   5.022
13831TIP3    H241439   1.604   5.881   5.065
13832TIP3   OH241440   0.115   3.393   3.702
13832TIP3    H141441   0.020   3.409   3.708
13832TIP3    H241442   0.155   3.477   3.723
13833TIP3   OH241443   2.807   7.178   1.606
13833TIP3    H141444   2.752   7.117   1.656
13833TIP3    H241445   2.745   7.234   1.560
13834TIP3   OH241446   5.742   3.391   1.056
13834TIP3    H141447   5.805   3.459   1.079
13834TIP3    H241448   5.763   3.368   0.966
13835TIP3   OH241449   1.409   1.540   1.584
13835TIP3    H141450   1.371   1.628   1.590
13835TIP3    H241451   1.341   1.482   1.619
13836TIP3   OH241452   0.139   0.830   4.200
13836TIP3    H141453   0.119   0.857   4.110
13836TIP3    H241454   0.214   0.771   4.190
13837TIP3   OH241455   3.439   3.802   4.414
13837TIP3    H141456   3.520   3.769   4.454
13837TIP3    H241457   3.397   3.853   4.483
13838TIP3   OH241458   1.549   1.218   5.983
13838TIP3    H141459   1.496   1.287   5.943
13838TIP3    H241460   1.487   1.170   6.038
13839TIP3   OH241461   2.821   0.861   3.539
13839TIP3    H141462   2.798   0.951   3.516
13839TIP3    H241463   2.762   0.807   3.486
13840TIP3   OH241464   8.271   0.406   6.160
13840TIP3    H141465   8.219   0.482   6.188
13840TIP3    H241466   8.256   0.401   6.066
13841TIP3   OH241467   7.394   3.766   3.819
13841TIP3    H141468   7.304   3.735   3.824
13841TIP3    H241469   7.385   3.861   3.809
13842TIP3   OH241470   1.219   3.742   5.974
13842TIP3    H141471   1.136   3.769   6.014
13842TIP3    H241472   1.194   3.710   5.887
13843TIP3   OH241473   0.958   1.882   3.636
13843TIP3    H141474   0.892   1.851   3.574
13843TIP3    H241475   0.906   1.916   3.709
13844TIP3   OH241476   5.594   5.433   5.834
13844TIP3    H141477   5.638   5.365   5.886
13844TIP3    H241478   5.603   5.403   5.743
13845TIP3   OH241479   0.889   1.944   1.246
13845TIP3    H141480   0.826   1.917   1.180
13845TIP3    H241481   0.965   1.886   1.233
13846TIP3   OH241482   1.153   1.329   0.220
13846TIP3    H141483   1.239   1.361   0.248
13846TIP3    H241484   1.137   1.373   0.137
13847TIP3   OH241485   2.309   3.831   2.177
13847TIP3    H141486   2.229   3.840   2.125
13847TIP3    H241487   2.318   3.915   2.223
13848TIP3   OH241488   6.315   0.809   3.788
13848TIP3    H141489   6.307   0.716   3.810
13848TIP3    H241490   6.225   0.839   3.774
13849TIP3   OH241491   0.797   2.060   2.076
13849TIP3    H141492   0.765   2.086   2.162
13849TIP3    H241493   0.881   2.105   2.067
13850TIP3   OH241494   4.271   3.666   1.621
13850TIP3    H141495   4.323   3.719   1.560
13850TIP3    H241496   4.181   3.695   1.607
13851TIP3   OH241497   2.545   7.304   6.466
13851TIP3    H141498   2.452   7.295   6.448
13851TIP3    H241499   2.581   7.217   6.451
13852TIP3   OH241500   4.474   4.166   5.575
13852TIP3    H141501   4.380   4.173   5.589
13852TIP3    H241502   4.484   4.096   5.510
13853TIP3   OH241503   5.841   1.819   0.331
13853TIP3    H141504   5.936   1.829   0.329
13853TIP3    H241505   5.807   1.908   0.318
13854TIP3   OH241506   5.462   3.339   5.127
13854TIP3    H141507   5.380   3.362   5.170
13854TIP3    H241508   5.509   3.286   5.192
13855TIP3   OH241509   8.272   5.670   5.783
13855TIP3    H141510   8.260   5.618   5.862
13855TIP3    H241511   8.251   5.759   5.809
13856TIP3   OH241512   3.912   4.786   6.007
13856TIP3    H141513   3.922   4.877   6.036
13856TIP3    H241514   3.999   4.763   5.972
13857TIP3   OH241515   2.136   4.786   2.042
13857TIP3    H141516   2.056   4.755   2.000
13857TIP3    H241517   2.109   4.807   2.132
13858TIP3   OH241518   3.867   2.588   5.144
13858TIP3    H141519   3.802   2.659   5.142
13858TIP3    H241520   3.938   2.623   5.197
13859TIP3   OH241521   4.728   6.552   6.083
13859TIP3    H141522   4.684   6.636   6.066
13859TIP3    H241523   4.680   6.489   6.030
13860TIP3   OH241524   5.841   5.133   0.823
13860TIP3    H141525   5.760   5.126   0.874
13860TIP3    H241526   5.911   5.125   0.888
13861TIP3   OH241527   6.760   5.262   3.353
13861TIP3    H141528   6.702   5.188   3.368
13861TIP3    H241529   6.701   5.332   3.322
13862TIP3   OH241530   1.837   5.685   4.203
13862TIP3    H141531   1.907   5.621   4.217
13862TIP3    H241532   1.811   5.711   4.291
13863TIP3   OH241533   6.243   4.484   6.470
13863TIP3    H141534   6.290   4.414   6.515
13863TIP3    H241535   6.260   4.562   6.523
13864TIP3   OH241536   2.587   5.382   6.148
13864TIP3    H141537   2.622   5.437   6.078
13864TIP3    H241538   2.544   5.309   6.102
13865TIP3   OH241539   0.027   6.860   0.038
13865TIP3    H141540   0.089   6.815   0.096
13865TIP3    H241541   0.043   6.953   0.054
13866TIP3   OH241542   5.295   6.161   3.894
13866TIP3    H141543   5.330   6.122   3.815
13866TIP3    H241544   5.371   6.176   3.950
13867TIP3   OH241545   1.611   3.895   1.134
13867TIP3    H141546   1.628   3.874   1.042
13867TIP3    H241547   1.588   3.988   1.134
13868TIP3   OH241548   0.094   5.759   2.783
13868TIP3    H141549   0.067   5.688   2.843
13868TIP3    H241550   0.188   5.749   2.775
13869TIP3   OH241551   1.314   0.926   6.546
13869TIP3    H141552   1.314   0.832   6.565
13869TIP3    H241553   1.398   0.942   6.504
13870TIP3   OH241554   3.799   3.841   5.065
13870TIP3    H141555   3.814   3.902   4.993
13870TIP3    H241556   3.875   3.851   5.121
13871TIP3   OH241557   5.128   4.877   1.703
13871TIP3    H141558   5.213   4.844   1.676
13871TIP3    H241559   5.099   4.933   1.631
13872TIP3   OH241560   4.642   1.084   3.976
13872TIP3    H141561   4.641   1.149   4.047
13872TIP3    H241562   4.734   1.075   3.954
13873TIP3   OH241563   2.804   6.673   6.241
13873TIP3    H141564   2.852   6.635   6.315
13873TIP3    H241565   2.771   6.756   6.273
13874TIP3   OH241566   4.297   3.825   0.776
13874TIP3    H141567   4.299   3.795   0.866
13874TIP3    H241568   4.262   3.914   0.780
13875TIP3   OH241569   4.164   6.913   3.153
13875TIP3    H141570   4.085   6.867   3.184
13875TIP3    H241571   4.176   6.984   3.216
13876TIP3   OH241572   8.304   7.107   0.158
13876TIP3    H141573   8.232   7.167   0.179
13876TIP3    H241574   8.335   7.077   0.244
13877TIP3   OH241575   5.221   7.672   2.223
13877TIP3    H141576   5.239   7.747   2.165
13877TIP3    H241577   5.257   7.597   2.177
13878TIP3   OH241578   6.901   5.445   0.786
13878TIP3    H141579   6.848   5.496   0.846
13878TIP3    H241580   6.910   5.501   0.709
13879TIP3   OH241581   6.452   4.590   5.394
13879TIP3    H141582   6.382   4.655   5.401
13879TIP3    H241583   6.429   4.538   5.317
13880TIP3   OH241584   5.560   0.626   1.790
13880TIP3    H141585   5.522   0.687   1.727
13880TIP3    H241586   5.651   0.653   1.798
13881TIP3   OH241587   7.976   1.724   3.121
13881TIP3    H141588   7.962   1.719   3.027
13881TIP3    H241589   7.983   1.818   3.140
13882TIP3   OH241590   7.292   4.059   3.085
13882TIP3    H141591   7.325   4.116   3.016
13882TIP3    H241592   7.197   4.073   3.085
13883TIP3   OH241593   0.301   3.048   2.536
13883TIP3    H141594   0.216   3.073   2.572
13883TIP3    H241595   0.279   2.993   2.460
13884TIP3   OH241596   0.671   4.354   5.274
13884TIP3    H141597   0.610   4.426   5.261
13884TIP3    H241598   0.748   4.393   5.314
13885TIP3   OH241599   0.307   1.347   1.529
13885TIP3    H141600   0.337   1.305   1.448
13885TIP3    H241601   0.237   1.290   1.561
13886TIP3   OH241602   3.585   7.456   4.906
13886TIP3    H141603   3.641   7.427   4.978
13886TIP3    H241604   3.646   7.483   4.838
13887TIP3   OH241605   2.095   0.419   6.168
13887TIP3    H141606   2.086   0.407   6.073
13887TIP3    H241607   2.029   0.361   6.206
13888TIP3   OH241608   3.844   4.776   0.239
13888TIP3    H141609   3.871   4.868   0.242
13888TIP3    H241610   3.879   4.738   0.320
13889TIP3   OH241611   1.934   3.887   0.278
13889TIP3    H141612   1.928   3.811   0.336
13889TIP3    H241613   1.867   3.947   0.311
13890TIP3   OH241614   3.622   2.828   4.108
13890TIP3    H141615   3.559   2.869   4.049
13890TIP3    H241616   3.669   2.766   4.053
13891TIP3   OH241617   7.184   4.351   3.925
13891TIP3    H141618   7.253   4.315   3.981
13891TIP3    H241619   7.186   4.445   3.944
13892TIP3   OH241620   1.614   0.813   1.599
13892TIP3    H141621   1.631   0.720   1.616
13892TIP3    H241622   1.519   0.818   1.589
13893TIP3   OH241623   0.576   3.001   4.000
13893TIP3    H141624   0.629   2.999   3.921
13893TIP3    H241625   0.520   2.924   3.993
13894TIP3   OH241626   5.630   1.725   4.011
13894TIP3    H141627   5.698   1.793   4.016
13894TIP3    H241628   5.605   1.724   3.918
13895TIP3   OH241629   1.678   2.845   4.703
13895TIP3    H141630   1.734   2.785   4.751
13895TIP3    H241631   1.599   2.794   4.682
13896TIP3   OH241632   0.510   5.272   4.586
13896TIP3    H141633   0.559   5.355   4.594
13896TIP3    H241634   0.498   5.243   4.676
13897TIP3   OH241635   3.203   7.802  -0.034
13897TIP3    H141636   3.253   7.730   0.006
13897TIP3    H241637   3.225   7.878   0.019
13898TIP3   OH241638   5.468   4.034   5.733
13898TIP3    H141639   5.506   4.060   5.649
13898TIP3    H241640   5.423   3.952   5.715
13899TIP3   OH241641   3.453   4.185   1.692
13899TIP3    H141642   3.546   4.204   1.703
13899TIP3    H241643   3.414   4.206   1.777
13900TIP3   OH241644   1.227   5.437   5.811
13900TIP3    H141645   1.256   5.448   5.902
13900TIP3    H241646   1.283   5.367   5.776
13901TIP3   OH241647   2.497   4.336   4.381
13901TIP3    H141648   2.591   4.353   4.383
13901TIP3    H241649   2.480   4.306   4.292
13902TIP3   OH241650   0.664   3.719   1.162
13902TIP3    H141651   0.661   3.667   1.082
13902TIP3    H241652   0.754   3.750   1.167
13903TIP3   OH241653   7.545   7.507   6.605
13903TIP3    H141654   7.528   7.587   6.655
13903TIP3    H241655   7.458   7.469   6.590
13904TIP3   OH241656   0.575   7.375   4.440
13904TIP3    H141657   0.558   7.427   4.518
13904TIP3    H241658   0.618   7.436   4.380
13905TIP3   OH241659   2.019   5.738   6.053
13905TIP3    H141660   1.973   5.716   5.972
13905TIP3    H241661   2.079   5.808   6.028
13906TIP3   OH241662   0.592   6.239   2.321
13906TIP3    H141663   0.628   6.196   2.398
13906TIP3    H241664   0.657   6.221   2.252
13907TIP3   OH241665   0.332   5.950   3.532
13907TIP3    H141666   0.309   5.902   3.611
13907TIP3    H241667   0.314   5.889   3.460
13908TIP3   OH241668   4.871   6.462   2.018
13908TIP3    H141669   4.932   6.535   2.029
13908TIP3    H241670   4.810   6.492   1.950
13909TIP3   OH241671   3.301   7.173   3.562
13909TIP3    H141672   3.323   7.256   3.521
13909TIP3    H241673   3.334   7.107   3.501
13910TIP3   OH241674   7.246   6.134   4.148
13910TIP3    H141675   7.310   6.159   4.215
13910TIP3    H241676   7.162   6.143   4.192
13911TIP3   OH241677   1.691   0.838   4.722
13911TIP3    H141678   1.704   0.762   4.664
13911TIP3    H241679   1.752   0.904   4.689
13912TIP3   OH241680   3.847   1.608   3.704
13912TIP3    H141681   3.807   1.673   3.647
13912TIP3    H241682   3.779   1.587   3.768
13913TIP3   OH241683   0.499   4.579   5.289
13913TIP3    H141684   0.554   4.599   5.365
13913TIP3    H241685   0.412   4.608   5.315
13914TIP3   OH241686   0.092   3.121   1.288
13914TIP3    H141687   0.117   3.030   1.273
13914TIP3    H241688  -0.004   3.119   1.290
13915TIP3   OH241689   1.903   1.205   1.556
13915TIP3    H141690   1.880   1.271   1.622
13915TIP3    H241691   1.996   1.222   1.537
13916TIP3   OH241692   2.575   3.829   6.028
13916TIP3    H141693   2.542   3.759   5.972
13916TIP3    H241694   2.579   3.906   5.971
13917TIP3   OH241695   7.955   1.174   5.180
13917TIP3    H141696   7.974   1.118   5.104
13917TIP3    H241697   7.995   1.258   5.158
13918TIP3   OH241698   1.377   0.148   4.575
13918TIP3    H141699   1.394   0.224   4.631
13918TIP3    H241700   1.464   0.113   4.555
13919TIP3   OH241701   0.099   2.519   2.565
13919TIP3    H141702   0.031   2.519   2.633
13919TIP3    H241703   0.076   2.594   2.509
13920TIP3   OH241704   2.379   7.405   6.038
13920TIP3    H141705   2.345   7.400   6.127
13920TIP3    H241706   2.372   7.316   6.005
13921TIP3   OH241707   2.857   3.679   2.641
13921TIP3    H141708   2.941   3.710   2.608
13921TIP3    H241709   2.855   3.706   2.733
13922TIP3   OH241710   3.267   5.519   5.021
13922TIP3    H141711   3.183   5.492   5.057
13922TIP3    H241712   3.287   5.456   4.953
13923TIP3   OH241713   8.009   2.168   3.734
13923TIP3    H141714   8.063   2.107   3.784
13923TIP3    H241715   8.066   2.198   3.663
13924TIP3   OH241716   2.007   0.475   2.711
13924TIP3    H141717   2.073   0.442   2.772
13924TIP3    H241718   1.990   0.564   2.741
13925TIP3   OH241719   0.891   6.613   6.671
13925TIP3    H141720   0.883   6.521   6.695
13925TIP3    H241721   0.985   6.625   6.658
13926TIP3   OH241722   0.394   4.989   5.964
13926TIP3    H141723   0.419   5.000   5.872
13926TIP3    H241724   0.302   5.016   5.967
13927TIP3   OH241725   4.526   1.121   3.726
13927TIP3    H141726   4.472   1.195   3.752
13927TIP3    H241727   4.570   1.094   3.807
13928TIP3   OH241728   1.807   0.362   5.466
13928TIP3    H141729   1.826   0.342   5.374
13928TIP3    H241730   1.810   0.457   5.471
13929TIP3   OH241731   1.392   5.496   3.734
13929TIP3    H141732   1.482   5.521   3.714
13929TIP3    H241733   1.360   5.454   3.654
13930TIP3   OH241734   7.688   6.899   3.904
13930TIP3    H141735   7.629   6.827   3.883
13930TIP3    H241736   7.734   6.871   3.983
13931TIP3   OH241737   4.102   0.280   3.474
13931TIP3    H141738   4.029   0.313   3.422
13931TIP3    H241739   4.062   0.247   3.554
13932TIP3   OH241740   6.539   0.328   3.720
13932TIP3    H141741   6.447   0.312   3.699
13932TIP3    H241742   6.560   0.410   3.675
13933TIP3   OH241743   1.234   1.761   1.588
13933TIP3    H141744   1.154   1.711   1.597
13933TIP3    H241745   1.227   1.831   1.654
13934TIP3   OH241746   4.658   7.154   3.979
13934TIP3    H141747   4.697   7.069   3.958
13934TIP3    H241748   4.580   7.159   3.924
13935TIP3   OH241749   6.956   5.149   2.365
13935TIP3    H141750   6.994   5.231   2.395
13935TIP3    H241751   6.868   5.173   2.336
13936TIP3   OH241752   3.574   1.777   6.000
13936TIP3    H141753   3.647   1.828   6.035
13936TIP3    H241754   3.593   1.687   6.026
13937TIP3   OH241755   3.561   2.490   5.300
13937TIP3    H141756   3.566   2.473   5.394
13937TIP3    H241757   3.629   2.436   5.261
13938TIP3   OH241758   4.509   6.473   2.085
13938TIP3    H141759   4.485   6.426   2.005
13938TIP3    H241760   4.428   6.481   2.134
13939TIP3   OH241761   0.977   3.549   3.584
13939TIP3    H141762   0.983   3.509   3.497
13939TIP3    H241763   0.885   3.536   3.609
13940TIP3   OH241764   5.973   5.252   5.804
13940TIP3    H141765   6.014   5.268   5.889
13940TIP3    H241766   6.006   5.166   5.778
13941TIP3   OH241767   1.085   5.719   3.229
13941TIP3    H141768   1.164   5.686   3.270
13941TIP3    H241769   1.112   5.744   3.140
13942TIP3   OH241770   3.202   0.530   0.689
13942TIP3    H141771   3.134   0.497   0.748
13942TIP3    H241772   3.188   0.483   0.607
13943TIP3   OH241773   4.054   6.501   5.743
13943TIP3    H141774   4.062   6.590   5.778
13943TIP3    H241775   4.143   6.466   5.748
13944TIP3   OH241776   4.272   5.707   5.948
13944TIP3    H141777   4.313   5.779   5.901
13944TIP3    H241778   4.187   5.696   5.907
13945TIP3   OH241779   4.394   5.770   3.764
13945TIP3    H141780   4.344   5.691   3.783
13945TIP3    H241781   4.456   5.777   3.837
13946TIP3   OH241782   4.013   5.592   3.946
13946TIP3    H141783   3.944   5.552   3.893
13946TIP3    H241784   3.969   5.660   3.996
13947TIP3   OH241785   7.640   1.128   4.716
13947TIP3    H141786   7.644   1.091   4.805
13947TIP3    H241787   7.730   1.152   4.696
13948TIP3   OH241788   7.345   0.549   4.405
13948TIP3    H141789   7.433   0.548   4.442
13948TIP3    H241790   7.335   0.637   4.368
13949TIP3   OH241791   4.740   3.667   6.046
13949TIP3    H141792   4.711   3.577   6.060
13949TIP3    H241793   4.785   3.665   5.961
13950TIP3   OH241794   2.363   2.534   6.624
13950TIP3    H141795   2.386   2.445   6.650
13950TIP3    H241796   2.287   2.556   6.678
13951TIP3   OH241797   3.522   7.661   5.093
13951TIP3    H141798   3.450   7.684   5.034
13951TIP3    H241799   3.552   7.576   5.061
13952TIP3   OH241800   1.155   6.144   5.941
13952TIP3    H141801   1.154   6.229   5.897
13952TIP3    H241802   1.171   6.080   5.871
13953TIP3   OH241803   6.607   3.755   3.986
13953TIP3    H141804   6.526   3.794   4.018
13953TIP3    H241805   6.671   3.771   4.055
13954TIP3   OH241806   5.056   6.300   3.860
13954TIP3    H141807   5.144   6.262   3.867
13954TIP3    H241808   5.038   6.335   3.947
13955TIP3   OH241809   5.098   3.267   3.957
13955TIP3    H141810   5.163   3.305   3.897
13955TIP3    H241811   5.024   3.326   3.953
13956TIP3   OH241812   3.728   4.075   2.090
13956TIP3    H141813   3.684   3.992   2.106
13956TIP3    H241814   3.813   4.051   2.051
13957TIP3   OH241815   6.630   0.637   0.336
13957TIP3    H141816   6.568   0.578   0.294
13957TIP3    H241817   6.694   0.657   0.267
13958TIP3   OH241818   0.939   1.399   5.194
13958TIP3    H141819   0.935   1.347   5.274
13958TIP3    H241820   0.877   1.471   5.208
13959TIP3   OH241821   5.847   1.716   5.176
13959TIP3    H141822   5.886   1.635   5.143
13959TIP3    H241823   5.784   1.687   5.241
13960TIP3   OH241824   5.966   2.577   4.725
13960TIP3    H141825   5.928   2.491   4.711
13960TIP3    H241826   6.050   2.560   4.767
13961TIP3   OH241827   0.078   7.071   3.003
13961TIP3    H141828   0.131   7.094   3.080
13961TIP3    H241829   0.098   7.140   2.939
13962TIP3   OH241830   5.226   1.615   6.237
13962TIP3    H141831   5.246   1.697   6.283
13962TIP3    H241832   5.260   1.546   6.294
13963TIP3   OH241833   4.856   6.285   1.155
13963TIP3    H141834   4.891   6.324   1.235
13963TIP3    H241835   4.817   6.203   1.184
13964TIP3   OH241836   6.335   6.129   0.798
13964TIP3    H141837   6.423   6.120   0.762
13964TIP3    H241838   6.341   6.205   0.856
13965TIP3   OH241839   1.118   3.393   4.463
13965TIP3    H141840   1.124   3.307   4.422
13965TIP3    H241841   1.028   3.421   4.447
13966TIP3   OH241842   7.656   0.154   1.235
13966TIP3    H141843   7.576   0.149   1.183
13966TIP3    H241844   7.697   0.236   1.208
13967TIP3   OH241845   7.777   2.152   2.073
13967TIP3    H141846   7.720   2.223   2.105
13967TIP3    H241847   7.725   2.109   2.005
13968TIP3   OH241848   1.916   6.895   2.563
13968TIP3    H141849   1.905   6.883   2.657
13968TIP3    H241850   2.011   6.895   2.550
13969TIP3   OH241851   2.362   1.543   1.862
13969TIP3    H141852   2.361   1.447   1.864
13969TIP3    H241853   2.291   1.569   1.920
13970TIP3   OH241854   0.142   3.233   4.519
13970TIP3    H141855   0.115   3.216   4.610
13970TIP3    H241856   0.125   3.151   4.473
13971TIP3   OH241857   5.723   5.280   6.030
13971TIP3    H141858   5.748   5.321   6.113
13971TIP3    H241859   5.794   5.218   6.012
13972TIP3   OH241860   1.022   7.095   4.278
13972TIP3    H141861   0.928   7.113   4.277
13972TIP3    H241862   1.041   7.072   4.370
13973TIP3   OH241863   8.214   6.992   0.635
13973TIP3    H141864   8.265   7.022   0.711
13973TIP3    H241865   8.193   7.073   0.587
13974TIP3   OH241866   0.386   2.734   5.647
13974TIP3    H141867   0.407   2.682   5.570
13974TIP3    H241868   0.314   2.687   5.689
13975TIP3   OH241869   5.715   5.251   3.499
13975TIP3    H141870   5.654   5.267   3.427
13975TIP3    H241871   5.799   5.235   3.455
13976TIP3   OH241872   3.725   3.912   3.901
13976TIP3    H141873   3.719   3.992   3.849
13976TIP3    H241874   3.643   3.866   3.884
13977TIP3   OH241875   2.817   7.745   6.674
13977TIP3    H141876   2.776   7.817   6.722
13977TIP3    H241877   2.745   7.701   6.629
13978TIP3   OH241878   6.521   7.500   2.967
13978TIP3    H141879   6.613   7.486   2.987
13978TIP3    H241880   6.474   7.450   3.034
13979TIP3   OH241881   0.570   3.088   1.283
13979TIP3    H141882   0.494   3.102   1.340
13979TIP3    H241883   0.544   3.015   1.227
13980TIP3   OH241884   4.634   3.635   0.147
13980TIP3    H141885   4.629   3.541   0.161
13980TIP3    H241886   4.553   3.656   0.101
13981TIP3   OH241887   8.047   7.573   2.329
13981TIP3    H141888   8.109   7.500   2.336
13981TIP3    H241889   8.075   7.634   2.397
13982TIP3   OH241890   7.047   5.008   5.522
13982TIP3    H141891   7.110   5.079   5.534
13982TIP3    H241892   7.098   4.934   5.489
13983TIP3   OH241893   0.219   7.494   0.886
13983TIP3    H141894   0.228   7.494   0.791
13983TIP3    H241895   0.221   7.586   0.910
13984TIP3   OH241896   0.741   6.843   6.649
13984TIP3    H141897   0.799   6.769   6.668
13984TIP3    H241898   0.692   6.815   6.572
13985TIP3   OH241899   1.458   7.521   2.305
13985TIP3    H141900   1.448   7.446   2.363
13985TIP3    H241901   1.525   7.575   2.348
13986TIP3   OH241902   0.230   4.545   3.657
13986TIP3    H141903   0.226   4.626   3.606
13986TIP3    H241904   0.283   4.486   3.605
13987TIP3   OH241905   7.255   3.571   6.417
13987TIP3    H141906   7.315   3.544   6.487
13987TIP3    H241907   7.181   3.512   6.425
13988TIP3   OH241908   0.993   1.393   1.684
13988TIP3    H141909   0.989   1.298   1.694
13988TIP3    H241910   1.003   1.407   1.590
13989TIP3   OH241911   7.699   5.374   1.026
13989TIP3    H141912   7.671   5.319   0.952
13989TIP3    H241913   7.715   5.312   1.097
13990TIP3   OH241914   4.330   6.632   5.692
13990TIP3    H141915   4.385   6.623   5.614
13990TIP3    H241916   4.317   6.542   5.722
13991TIP3   OH241917   7.941   2.958   5.491
13991TIP3    H141918   7.940   3.043   5.535
13991TIP3    H241919   8.030   2.952   5.454
13992TIP3   OH241920   7.640   2.237   2.405
13992TIP3    H141921   7.729   2.224   2.437
13992TIP3    H241922   7.584   2.196   2.471
13993TIP3   OH241923   0.441   6.178   3.733
13993TIP3    H141924   0.443   6.110   3.666
13993TIP3    H241925   0.405   6.254   3.688
13994TIP3   OH241926   2.965   6.815   1.716
13994TIP3    H141927   3.045   6.763   1.709
13994TIP3    H241928   2.895   6.753   1.694
13995TIP3   OH241929   3.170   7.581   5.093
13995TIP3    H141930   3.219   7.503   5.119
13995TIP3    H241931   3.187   7.645   5.162
13996TIP3   OH241932   3.896   5.869   1.310
13996TIP3    H141933   3.834   5.845   1.242
13996TIP3    H241934   3.948   5.789   1.323
13997TIP3   OH241935   5.315   4.892   0.134
13997TIP3    H141936   5.386   4.925   0.189
13997TIP3    H241937   5.318   4.946   0.055
13998TIP3   OH241938   0.830   1.294   3.188
13998TIP3    H141939   0.751   1.270   3.235
13998TIP3    H241940   0.860   1.211   3.149
13999TIP3   OH241941   4.710   5.073   5.926
13999TIP3    H141942   4.721   4.979   5.916
13999TIP3    H241943   4.768   5.096   5.998
14000TIP3   OH241944   2.750   7.467   4.406
14000TIP3    H141945   2.682   7.430   4.350
14000TIP3    H241946   2.828   7.471   4.350
14001TIP3   OH241947   2.022   7.599   1.635
14001TIP3    H141948   2.072   7.526   1.672
14001TIP3    H241949   2.073   7.677   1.660
14002TIP3   OH241950   0.757   1.101   2.491
14002TIP3    H141951   0.815   1.039   2.536
14002TIP3    H241952   0.759   1.075   2.400
14003TIP3   OH241953   2.267   0.945   4.300
14003TIP3    H141954   2.223   0.892   4.233
14003TIP3    H241955   2.360   0.936   4.280
14004TIP3   OH241956   2.804   0.658   3.792
14004TIP3    H141957   2.868   0.659   3.864
14004TIP3    H241958   2.828   0.732   3.737
14005TIP3   OH241959   7.401   2.280   0.681
14005TIP3    H141960   7.402   2.353   0.620
14005TIP3    H241961   7.308   2.269   0.703
14006TIP3   OH241962   0.028   7.130   4.376
14006TIP3    H141963  -0.041   7.088   4.324
14006TIP3    H241964  -0.001   7.221   4.385
14007TIP3   OH241965   4.556   6.934   5.457
14007TIP3    H141966   4.469   6.969   5.437
14007TIP3    H241967   4.616   7.002   5.429
14008TIP3   OH241968   0.706   4.355   5.675
14008TIP3    H141969   0.689   4.262   5.657
14008TIP3    H241970   0.788   4.373   5.629
14009TIP3   OH241971   5.136   2.407   1.555
14009TIP3    H141972   5.053   2.454   1.555
14009TIP3    H241973   5.166   2.410   1.646
14010TIP3   OH241974   6.312   6.149   6.780
14010TIP3    H141975   6.219   6.169   6.775
14010TIP3    H241976   6.348   6.182   6.697
14011TIP3   OH241977   3.745   0.352   1.783
14011TIP3    H141978   3.711   0.441   1.791
14011TIP3    H241979   3.681   0.307   1.728
14012TIP3   OH241980   5.114   0.814   1.084
14012TIP3    H141981   5.049   0.744   1.077
14012TIP3    H241982   5.130   0.841   0.994
14013TIP3   OH241983   1.795   3.911   5.971
14013TIP3    H141984   1.757   3.827   5.995
14013TIP3    H241985   1.771   3.970   6.042
14014TIP3   OH241986   0.855   7.656   2.583
14014TIP3    H141987   0.931   7.706   2.613
14014TIP3    H241988   0.886   7.612   2.503
14015TIP3   OH241989   2.474   0.608   5.441
14015TIP3    H141990   2.514   0.686   5.402
14015TIP3    H241991   2.400   0.588   5.385
14016TIP3   OH241992   2.391   3.156   5.754
14016TIP3    H141993   2.380   3.091   5.824
14016TIP3    H241994   2.314   3.212   5.761
14017TIP3   OH241995   0.216   6.658   4.723
14017TIP3    H141996   0.132   6.627   4.690
14017TIP3    H241997   0.243   6.727   4.662
14018TIP3   OH241998   5.623   4.209   2.766
14018TIP3    H141999   5.629   4.147   2.838
14018TIP3    H242000   5.530   4.224   2.754
14019TIP3   OH242001   4.491   6.459   0.866
14019TIP3    H142002   4.506   6.497   0.952
14019TIP3    H242003   4.551   6.384   0.863
14020TIP3   OH242004   2.450   0.180   4.623
14020TIP3    H142005   2.479   0.270   4.639
14020TIP3    H242006   2.530   0.131   4.610
14021TIP3   OH242007   5.054   4.104   2.430
14021TIP3    H142008   5.030   4.012   2.417
14021TIP3    H242009   5.126   4.119   2.369
14022TIP3   OH242010   2.633   6.352   1.844
14022TIP3    H142011   2.661   6.438   1.877
14022TIP3    H242012   2.558   6.329   1.899
14023TIP3   OH242013   1.489   6.483   5.536
14023TIP3    H142014   1.406   6.441   5.558
14023TIP3    H242015   1.549   6.411   5.517
14024TIP3   OH242016   6.537   2.666   3.181
14024TIP3    H142017   6.614   2.709   3.218
14024TIP3    H242018   6.466   2.728   3.198
14025TIP3   OH242019   5.555   3.751   6.266
14025TIP3    H142020   5.539   3.725   6.356
14025TIP3    H242021   5.650   3.749   6.256
14026TIP3   OH242022   4.345   0.924   0.873
14026TIP3    H142023   4.433   0.912   0.838
14026TIP3    H242024   4.355   0.915   0.967
14027TIP3   OH242025   7.344   0.229   2.244
14027TIP3    H142026   7.424   0.182   2.270
14027TIP3    H242027   7.290   0.162   2.203
14028TIP3   OH242028   4.342   0.337   2.816
14028TIP3    H142029   4.393   0.275   2.765
14028TIP3    H242030   4.253   0.328   2.783
14029TIP3   OH242031   3.019   5.271   0.346
14029TIP3    H142032   3.005   5.358   0.310
14029TIP3    H242033   3.010   5.282   0.440
14030TIP3   OH242034   6.388   5.248   3.048
14030TIP3    H142035   6.316   5.188   3.066
14030TIP3    H242036   6.395   5.247   2.952
14031TIP3   OH242037   7.819   3.600   1.509
14031TIP3    H142038   7.739   3.609   1.561
14031TIP3    H242039   7.804   3.653   1.431
14032TIP3   OH242040   1.373   1.697   6.249
14032TIP3    H142041   1.363   1.693   6.344
14032TIP3    H242042   1.433   1.771   6.234
14033TIP3   OH242043   3.081   6.867   2.495
14033TIP3    H142044   3.035   6.909   2.567
14033TIP3    H242045   3.107   6.781   2.530
14034TIP3   OH242046   1.951   1.805   6.059
14034TIP3    H142047   1.941   1.709   6.062
14034TIP3    H242048   1.889   1.837   6.124
14035TIP3   OH242049   2.306   5.158   2.656
14035TIP3    H142050   2.262   5.190   2.735
14035TIP3    H242051   2.369   5.094   2.689
14036TIP3   OH242052   7.292   3.767   2.354
14036TIP3    H142053   7.227   3.784   2.287
14036TIP3    H242054   7.307   3.672   2.350
14037TIP3   OH242055   6.206   4.848   5.002
14037TIP3    H142056   6.110   4.848   5.008
14037TIP3    H242057   6.227   4.763   4.964
14038TIP3   OH242058   7.427   3.821   3.190
14038TIP3    H142059   7.368   3.786   3.257
14038TIP3    H242060   7.391   3.908   3.169
14039TIP3   OH242061   7.552   5.546   2.501
14039TIP3    H142062   7.495   5.601   2.447
14039TIP3    H242063   7.510   5.460   2.501
14040TIP3   OH242064   5.644   5.361   6.685
14040TIP3    H142065   5.737   5.371   6.706
14040TIP3    H242066   5.599   5.413   6.751
14041TIP3   OH242067   1.363   6.745   0.092
14041TIP3    H142068   1.298   6.677   0.075
14041TIP3    H242069   1.391   6.730   0.182
14042TIP3   OH242070   7.559   0.217   5.180
14042TIP3    H142071   7.514   0.175   5.253
14042TIP3    H242072   7.637   0.257   5.219
14043TIP3   OH242073   7.396   1.575   1.233
14043TIP3    H142074   7.316   1.555   1.183
14043TIP3    H242075   7.419   1.664   1.207
14044TIP3   OH242076   7.399   5.969   1.066
14044TIP3    H142077   7.457   5.894   1.078
14044TIP3    H242078   7.420   6.027   1.139
14045TIP3   OH242079   5.100   7.711   5.510
14045TIP3    H142080   5.114   7.722   5.604
14045TIP3    H242081   5.133   7.623   5.491
14046TIP3   OH242082   6.259   4.221   3.364
14046TIP3    H142083   6.164   4.205   3.370
14046TIP3    H242084   6.296   4.135   3.344
14047TIP3   OH242085   4.027   1.802   4.425
14047TIP3    H142086   4.116   1.824   4.452
14047TIP3    H242087   3.981   1.785   4.508
14048TIP3   OH242088   2.434   5.846   2.518
14048TIP3    H142089   2.356   5.893   2.550
14048TIP3    H242090   2.401   5.789   2.449
14049TIP3   OH242091   6.008   1.921   4.636
14049TIP3    H142092   5.932   1.871   4.604
14049TIP3    H242093   6.027   1.883   4.722
14050TIP3   OH242094   4.022   3.963   2.195
14050TIP3    H142095   3.985   4.021   2.261
14050TIP3    H242096   3.985   3.994   2.112
14051TIP3   OH242097   4.968   1.543   2.708
14051TIP3    H142098   4.944   1.584   2.625
14051TIP3    H242099   4.912   1.465   2.714
14052TIP3   OH242100   0.015   0.335   0.866
14052TIP3    H142101   0.086   0.299   0.814
14052TIP3    H242102  -0.038   0.385   0.804
14053TIP3   OH242103   7.935   4.663   6.511
14053TIP3    H142104   7.885   4.610   6.573
14053TIP3    H242105   7.937   4.611   6.431
14054TIP3   OH242106   4.818   7.414   4.449
14054TIP3    H142107   4.734   7.376   4.476
14054TIP3    H242108   4.813   7.417   4.353
14055TIP3   OH242109   7.478   6.504   3.270
14055TIP3    H142110   7.501   6.447   3.197
14055TIP3    H242111   7.547   6.490   3.335
14056TIP3   OH242112   1.885   6.598   1.449
14056TIP3    H142113   1.815   6.563   1.393
14056TIP3    H242114   1.849   6.594   1.538
14057TIP3   OH242115   7.010   4.847   0.075
14057TIP3    H142116   6.928   4.892   0.054
14057TIP3    H242117   7.078   4.904   0.041
14058TIP3   OH242118   3.831   3.231   5.269
14058TIP3    H142119   3.853   3.315   5.230
14058TIP3    H242120   3.790   3.253   5.353
14059TIP3   OH242121   7.204   2.035   5.276
14059TIP3    H142122   7.140   1.979   5.319
14059TIP3    H242123   7.238   2.091   5.345
14060TIP3   OH242124   0.169   5.477   2.472
14060TIP3    H142125   0.091   5.459   2.524
14060TIP3    H242126   0.234   5.510   2.535
14061TIP3   OH242127   2.312   0.759   1.516
14061TIP3    H142128   2.252   0.731   1.586
14061TIP3    H242129   2.391   0.786   1.563
14062TIP3   OH242130   3.483   0.535   2.495
14062TIP3    H142131   3.576   0.540   2.475
14062TIP3    H242132   3.440   0.572   2.418
14063TIP3   OH242133   5.170   7.478   3.174
14063TIP3    H142134   5.102   7.545   3.170
14063TIP3    H242135   5.123   7.396   3.190
14064TIP3   OH242136   5.905   1.920   2.640
14064TIP3    H142137   5.951   2.004   2.641
14064TIP3    H242138   5.833   1.932   2.578
14065TIP3   OH242139   0.611   6.369   6.015
14065TIP3    H142140   0.664   6.433   5.968
14065TIP3    H242141   0.577   6.311   5.947
14066TIP3   OH242142   2.647   7.445   5.920
14066TIP3    H142143   2.579   7.386   5.954
14066TIP3    H242144   2.669   7.408   5.835
14067TIP3   OH242145   1.730   5.509   6.070
14067TIP3    H142146   1.725   5.475   5.981
14067TIP3    H242147   1.762   5.435   6.122
14068TIP3   OH242148   0.862   5.071   6.446
14068TIP3    H142149   0.828   4.989   6.411
14068TIP3    H242150   0.787   5.113   6.487
14069TIP3   OH242151   0.473   3.544   6.219
14069TIP3    H142152   0.515   3.583   6.295
14069TIP3    H242153   0.457   3.617   6.159
14070TIP3   OH242154   4.888   1.670   6.038
14070TIP3    H142155   4.832   1.627   5.972
14070TIP3    H242156   4.831   1.736   6.077
14071TIP3   OH242157   1.369   6.402   4.500
14071TIP3    H142158   1.382   6.431   4.590
14071TIP3    H242159   1.276   6.416   4.483
14072TIP3   OH242160   4.857   4.380   6.756
14072TIP3    H142161   4.876   4.392   6.849
14072TIP3    H242162   4.800   4.454   6.733
14073TIP3   OH242163   8.180   3.977   0.842
14073TIP3    H142164   8.198   3.922   0.918
14073TIP3    H242165   8.110   4.035   0.870
14074TIP3   OH242166   2.028   4.059   2.709
14074TIP3    H142167   2.016   3.985   2.650
14074TIP3    H242168   2.120   4.084   2.698
14075TIP3   OH242169   4.398   0.341   0.975
14075TIP3    H142170   4.427   0.395   1.048
14075TIP3    H242171   4.474   0.337   0.917
14076TIP3   OH242172   3.756   3.644   3.585
14076TIP3    H142173   3.666   3.677   3.585
14076TIP3    H242174   3.808   3.715   3.621
14077TIP3   OH242175   0.922   4.826   5.460
14077TIP3    H142176   0.988   4.892   5.438
14077TIP3    H242177   0.850   4.876   5.497
14078TIP3   OH242178   2.852   6.134   3.025
14078TIP3    H142179   2.772   6.180   3.052
14078TIP3    H242180   2.822   6.067   2.964
14079TIP3   OH242181   4.537   5.142   6.528
14079TIP3    H142182   4.476   5.113   6.596
14079TIP3    H242183   4.482   5.188   6.465
14080TIP3   OH242184   5.271   3.677   5.033
14080TIP3    H142185   5.263   3.620   5.108
14080TIP3    H242186   5.232   3.760   5.061
14081TIP3   OH242187   2.535   6.025   3.458
14081TIP3    H142188   2.588   6.068   3.525
14081TIP3    H242189   2.589   6.027   3.380
14082TIP3   OH242190   6.945   2.850   0.053
14082TIP3    H142191   6.888   2.787   0.097
14082TIP3    H242192   6.932   2.932   0.100
14083TIP3   OH242193   1.787   1.576   5.383
14083TIP3    H142194   1.748   1.615   5.461
14083TIP3    H242195   1.723   1.512   5.353
14084TIP3   OH242196   3.558   4.877   0.887
14084TIP3    H142197   3.610   4.804   0.920
14084TIP3    H242198   3.504   4.903   0.962
14085TIP3   OH242199   3.439   1.942   5.826
14085TIP3    H142200   3.431   2.007   5.895
14085TIP3    H242201   3.497   1.875   5.862
14086TIP3   OH242202   4.385   2.354   4.540
14086TIP3    H142203   4.335   2.372   4.620
14086TIP3    H242204   4.429   2.271   4.557
14087TIP3   OH242205   3.084   3.905   6.365
14087TIP3    H142206   3.168   3.891   6.322
14087TIP3    H242207   3.107   3.932   6.454
14088TIP3   OH242208   0.681   7.195   0.671
14088TIP3    H142209   0.589   7.183   0.696
14088TIP3    H242210   0.690   7.289   0.658
14089TIP3   OH242211   6.467   1.628   1.310
14089TIP3    H142212   6.480   1.720   1.333
14089TIP3    H242213   6.373   1.614   1.318
14090TIP3   OH242214   6.154   1.436   5.648
14090TIP3    H142215   6.102   1.482   5.715
14090TIP3    H242216   6.147   1.491   5.570
14091TIP3   OH242217   0.709   3.172   2.477
14091TIP3    H142218   0.784   3.144   2.424
14091TIP3    H242219   0.745   3.237   2.537
14092TIP3   OH242220   2.728   3.929   4.279
14092TIP3    H142221   2.744   3.952   4.371
14092TIP3    H242222   2.800   3.871   4.256
14093TIP3   OH242223   7.764   5.111   4.723
14093TIP3    H142224   7.823   5.169   4.772
14093TIP3    H242225   7.720   5.059   4.790
14094TIP3   OH242226   4.619   2.124   3.242
14094TIP3    H142227   4.610   2.031   3.223
14094TIP3    H242228   4.536   2.163   3.216
14095TIP3   OH242229   5.591   3.228   5.756
14095TIP3    H142230   5.576   3.288   5.829
14095TIP3    H242231   5.503   3.205   5.725
14096TIP3   OH242232   1.830   1.319   4.144
14096TIP3    H142233   1.816   1.380   4.072
14096TIP3    H242234   1.744   1.311   4.186
14097TIP3   OH242235   8.244   0.848   6.773
14097TIP3    H142236   8.198   0.919   6.818
14097TIP3    H242237   8.179   0.814   6.711
14098TIP3   OH242238   6.064   6.987   2.416
14098TIP3    H142239   6.056   6.997   2.511
14098TIP3    H242240   6.096   7.073   2.386
14099TIP3   OH242241   7.931   2.405   6.749
14099TIP3    H142242   8.006   2.373   6.799
14099TIP3    H242243   7.859   2.409   6.813
14100TIP3   OH242244   5.379   0.402   5.356
14100TIP3    H142245   5.413   0.332   5.412
14100TIP3    H242246   5.457   0.439   5.313
14101TIP3   OH242247   2.875   4.045   0.645
14101TIP3    H142248   2.862   4.122   0.589
14101TIP3    H242249   2.788   4.021   0.675
14102TIP3   OH242250   5.280   2.189   6.741
14102TIP3    H142251   5.302   2.194   6.648
14102TIP3    H242252   5.252   2.278   6.763
14103TIP3   OH242253   4.352   1.179   4.073
14103TIP3    H142254   4.380   1.270   4.067
14103TIP3    H242255   4.411   1.140   4.138
14104TIP3   OH242256   1.136   4.494   4.110
14104TIP3    H142257   1.195   4.438   4.160
14104TIP3    H242258   1.054   4.444   4.104
14105TIP3   OH242259   0.690   2.232   0.527
14105TIP3    H142260   0.719   2.288   0.598
14105TIP3    H242261   0.595   2.227   0.537
14106TIP3   OH242262   0.711   6.292   4.409
14106TIP3    H142263   0.624   6.263   4.382
14106TIP3    H242264   0.730   6.368   4.353
14107TIP3   OH242265   5.933   6.473   1.470
14107TIP3    H142266   5.967   6.504   1.386
14107TIP3    H242267   5.912   6.381   1.455
14108TIP3   OH242268   3.669   6.934   3.265
14108TIP3    H142269   3.655   6.916   3.358
14108TIP3    H242270   3.636   6.856   3.221
14109TIP3   OH242271   5.315   4.096   5.966
14109TIP3    H142272   5.363   4.090   5.883
14109TIP3    H242273   5.376   4.061   6.031
14110TIP3   OH242274   2.872   4.372   1.955
14110TIP3    H142275   2.914   4.457   1.950
14110TIP3    H242276   2.943   4.310   1.970
14111TIP3   OH242277   1.027   6.049   3.767
14111TIP3    H142278   1.089   5.986   3.729
14111TIP3    H242279   1.082   6.114   3.810
14112TIP3   OH242280   4.749   0.471   6.084
14112TIP3    H142281   4.681   0.538   6.093
14112TIP3    H242282   4.809   0.490   6.157
14113TIP3   OH242283   0.818   0.237   0.854
14113TIP3    H142284   0.765   0.316   0.860
14113TIP3    H242285   0.772   0.182   0.790
14114TIP3   OH242286   3.307   1.672   3.028
14114TIP3    H142287   3.388   1.686   3.077
14114TIP3    H242288   3.262   1.756   3.032
14115TIP3   OH242289   8.058   6.696   3.113
14115TIP3    H142290   8.091   6.786   3.114
14115TIP3    H242291   8.102   6.655   3.040
14116TIP3   OH242292   7.060   3.177   3.447
14116TIP3    H142293   7.011   3.130   3.379
14116TIP3    H242294   7.006   3.254   3.465
14117TIP3   OH242295   2.069   3.712   3.899
14117TIP3    H142296   2.034   3.693   3.812
14117TIP3    H242297   2.008   3.775   3.936
14118TIP3   OH242298   1.590   6.251   2.158
14118TIP3    H142299   1.630   6.313   2.218
14118TIP3    H242300   1.539   6.193   2.214
14119TIP3   OH242301   2.195   2.017   0.947
14119TIP3    H142302   2.135   1.991   1.017
14119TIP3    H242303   2.274   2.046   0.993
14120TIP3   OH242304   4.441   7.117   0.840
14120TIP3    H142305   4.395   7.175   0.900
14120TIP3    H242306   4.371   7.072   0.792
14121TIP3   OH242307   2.413   5.320   5.653
14121TIP3    H142308   2.388   5.256   5.720
14121TIP3    H242309   2.501   5.293   5.626
14122TIP3   OH242310   5.440   1.949   0.070
14122TIP3    H142311   5.387   2.026   0.089
14122TIP3    H242312   5.411   1.920  -0.016
14123TIP3   OH242313   2.268   1.798   1.709
14123TIP3    H142314   2.250   1.719   1.761
14123TIP3    H242315   2.360   1.790   1.684
14124TIP3   OH242316   0.846   1.108   1.938
14124TIP3    H142317   0.892   1.029   1.911
14124TIP3    H242318   0.792   1.132   1.863
14125TIP3   OH242319   4.606   1.400   1.192
14125TIP3    H142320   4.651   1.316   1.186
14125TIP3    H242321   4.518   1.378   1.222
14126TIP3   OH242322   0.311   0.609   5.870
14126TIP3    H142323   0.360   0.583   5.947
14126TIP3    H242324   0.220   0.615   5.900
14127TIP3   OH242325   5.392   3.486   4.353
14127TIP3    H142326   5.476   3.471   4.397
14127TIP3    H242327   5.369   3.400   4.318
14128TIP3   OH242328   6.187   6.963   2.679
14128TIP3    H142329   6.201   6.970   2.773
14128TIP3    H242330   6.244   6.891   2.651
14129TIP3   OH242331   8.267   5.469   1.162
14129TIP3    H142332   8.332   5.538   1.147
14129TIP3    H242333   8.319   5.389   1.168
14130TIP3   OH242334   6.416   5.562   5.882
14130TIP3    H142335   6.359   5.497   5.840
14130TIP3    H242336   6.465   5.513   5.948
14131TIP3   OH242337   2.121   1.938   0.433
14131TIP3    H142338   2.079   1.940   0.519
14131TIP3    H242339   2.108   2.027   0.399
14132TIP3   OH242340   2.032   4.364   6.651
14132TIP3    H142341   1.990   4.447   6.673
14132TIP3    H242342   2.111   4.389   6.603
14133TIP3   OH242343   4.320   3.169   1.774
14133TIP3    H142344   4.404   3.125   1.759
14133TIP3    H242345   4.340   3.263   1.770
14134TIP3   OH242346   2.864   1.391   1.821
14134TIP3    H142347   2.958   1.380   1.833
14134TIP3    H242348   2.835   1.441   1.897
14135TIP3   OH242349   5.848   6.164   2.376
14135TIP3    H142350   5.859   6.100   2.305
14135TIP3    H242351   5.776   6.220   2.345
14136TIP3   OH242352   6.756   6.303   0.153
14136TIP3    H142353   6.813   6.239   0.111
14136TIP3    H242354   6.814   6.375   0.178
14137TIP3   OH242355   4.727   5.532   2.244
14137TIP3    H142356   4.632   5.536   2.249
14137TIP3    H242357   4.757   5.567   2.327
14138TIP3   OH242358   3.260   6.796   6.333
14138TIP3    H142359   3.188   6.767   6.278
14138TIP3    H242360   3.338   6.783   6.280
14139TIP3   OH242361   0.601   1.187   5.868
14139TIP3    H142362   0.546   1.181   5.790
14139TIP3    H242363   0.570   1.265   5.914
14140TIP3   OH242364   1.314   1.873   0.394
14140TIP3    H142365   1.395   1.823   0.394
14140TIP3    H242366   1.312   1.918   0.478
14141TIP3   OH242367   7.279   1.072   0.496
14141TIP3    H142368   7.323   1.086   0.412
14141TIP3    H242369   7.344   1.095   0.562
14142TIP3   OH242370   5.281   3.930   4.792
14142TIP3    H142371   5.283   3.934   4.888
14142TIP3    H242372   5.207   3.873   4.772
14143TIP3   OH242373   0.802   0.449   2.435
14143TIP3    H142374   0.826   0.499   2.513
14143TIP3    H242375   0.735   0.502   2.391
14144TIP3   OH242376   8.228   7.428   2.762
14144TIP3    H142377   8.302   7.454   2.707
14144TIP3    H242378   8.261   7.434   2.852
14145TIP3   OH242379   7.787   5.355   2.216
14145TIP3    H142380   7.696   5.345   2.191
14145TIP3    H242381   7.789   5.331   2.309
14146TIP3   OH242382   4.794   2.056   0.746
14146TIP3    H142383   4.801   2.054   0.650
14146TIP3    H242384   4.848   2.130   0.772
14147TIP3   OH242385   4.907   0.742   3.399
14147TIP3    H142386   4.905   0.837   3.414
14147TIP3    H242387   4.997   0.724   3.372
14148TIP3   OH242388   7.489   1.213   5.176
14148TIP3    H142389   7.518   1.230   5.265
14148TIP3    H242390   7.393   1.218   5.181
14149TIP3   OH242391   1.728   3.248   0.955
14149TIP3    H142392   1.788   3.209   1.018
14149TIP3    H242393   1.784   3.280   0.884
14150TIP3   OH242394   7.709   3.388   3.222
14150TIP3    H142395   7.753   3.425   3.146
14150TIP3    H242396   7.624   3.433   3.224
14151TIP3   OH242397   2.554   5.991   3.154
14151TIP3    H142398   2.511   6.023   3.074
14151TIP3    H242399   2.496   5.921   3.185
14152TIP3   OH242400   2.170   6.222   6.522
14152TIP3    H142401   2.234   6.235   6.452
14152TIP3    H242402   2.087   6.251   6.484
14153TIP3   OH242403   3.269   2.770   0.872
14153TIP3    H142404   3.339   2.705   0.870
14153TIP3    H242405   3.282   2.816   0.955
14154TIP3   OH242406   3.651   4.864   3.102
14154TIP3    H142407   3.599   4.814   3.164
14154TIP3    H242408   3.635   4.822   3.017
14155TIP3   OH242409   0.752   7.214   4.288
14155TIP3    H142410   0.708   7.284   4.337
14155TIP3    H242411   0.681   7.161   4.252
14156TIP3   OH242412   5.812   0.827   2.043
14156TIP3    H142413   5.902   0.815   2.074
14156TIP3    H242414   5.757   0.796   2.115
14157TIP3   OH242415   0.439   7.608   3.858
14157TIP3    H142416   0.431   7.699   3.885
14157TIP3    H242417   0.528   7.583   3.885
14158TIP3   OH242418   0.486   6.001   6.617
14158TIP3    H142419   0.405   5.955   6.594
14158TIP3    H242420   0.513   6.043   6.536
14159TIP3   OH242421   6.661   6.237   2.607
14159TIP3    H142422   6.724   6.173   2.573
14159TIP3    H242423   6.625   6.195   2.686
14160TIP3   OH242424   0.388   2.668   0.236
14160TIP3    H142425   0.294   2.661   0.222
14160TIP3    H242426   0.404   2.762   0.245
14161TIP3   OH242427   5.677   3.452   0.337
14161TIP3    H142428   5.708   3.540   0.318
14161TIP3    H242429   5.601   3.440   0.280
14162TIP3   OH242430   4.095   6.625   3.471
14162TIP3    H142431   4.103   6.637   3.376
14162TIP3    H242432   4.117   6.534   3.486
14163TIP3   OH242433   3.157   0.553   5.171
14163TIP3    H142434   3.230   0.526   5.115
14163TIP3    H242435   3.197   0.607   5.238
14164TIP3   OH242436   1.928   6.687   0.816
14164TIP3    H142437   1.891   6.720   0.734
14164TIP3    H242438   1.962   6.765   0.860
14165TIP3   OH242439   3.853   3.896   3.373
14165TIP3    H142440   3.920   3.950   3.331
14165TIP3    H242441   3.881   3.806   3.355
14166TIP3   OH242442   0.499   5.758   0.046
14166TIP3    H142443   0.591   5.765   0.072
14166TIP3    H242444   0.470   5.675   0.082
14167TIP3   OH242445   2.185   7.486   6.234
14167TIP3    H142446   2.178   7.571   6.191
14167TIP3    H242447   2.101   7.473   6.277
14168TIP3   OH242448   5.463   3.633   3.383
14168TIP3    H142449   5.386   3.582   3.408
14168TIP3    H242450   5.428   3.718   3.355
14169TIP3   OH242451   6.083   6.545   4.232
14169TIP3    H142452   6.089   6.604   4.307
14169TIP3    H242453   6.133   6.589   4.163
14170TIP3   OH242454   5.055   2.535   2.118
14170TIP3    H142455   4.980   2.595   2.118
14170TIP3    H242456   5.131   2.592   2.123
14171TIP3   OH242457   4.298   6.223   5.122
14171TIP3    H142458   4.309   6.150   5.061
14171TIP3    H242459   4.241   6.284   5.076
14172TIP3   OH242460   6.926   7.710   5.745
14172TIP3    H142461   6.885   7.745   5.666
14172TIP3    H242462   7.020   7.711   5.726
14173TIP3   OH242463   0.457   6.272   4.256
14173TIP3    H142464   0.495   6.273   4.168
14173TIP3    H242465   0.394   6.200   4.253
14174TIP3   OH242466   3.794   0.912   0.492
14174TIP3    H142467   3.803   0.894   0.398
14174TIP3    H242468   3.878   0.949   0.518
14175TIP3   OH242469   2.083   3.841   1.489
14175TIP3    H142470   2.130   3.886   1.418
14175TIP3    H242471   2.045   3.912   1.541
14176TIP3   OH242472   7.006   3.116   6.309
14176TIP3    H142473   6.959   3.185   6.262
14176TIP3    H242474   7.026   3.051   6.242
14177TIP3   OH242475   6.402   6.068   4.030
14177TIP3    H142476   6.342   6.029   3.966
14177TIP3    H242477   6.485   6.075   3.984
14178TIP3   OH242478   3.952   4.864   2.541
14178TIP3    H142479   3.993   4.950   2.531
14178TIP3    H242480   3.897   4.856   2.463
14179TIP3   OH242481   4.685   3.380   4.590
14179TIP3    H142482   4.674   3.286   4.599
14179TIP3    H242483   4.731   3.406   4.669
14180TIP3   OH242484   0.048   6.474   3.231
14180TIP3    H142485   0.074   6.442   3.318
14180TIP3    H242486  -0.046   6.461   3.228
14181TIP3   OH242487   6.683   3.847   2.489
14181TIP3    H142488   6.744   3.919   2.472
14181TIP3    H242489   6.729   3.768   2.461
14182TIP3   OH242490   0.306   0.937   0.345
14182TIP3    H142491   0.328   0.919   0.254
14182TIP3    H242492   0.220   0.980   0.341
14183TIP3   OH242493   3.698   0.661   1.158
14183TIP3    H142494   3.758   0.691   1.089
14183TIP3    H242495   3.621   0.718   1.150
14184TIP3   OH242496   2.418   7.578   1.672
14184TIP3    H142497   2.505   7.539   1.665
14184TIP3    H242498   2.373   7.552   1.592
14185TIP3   OH242499   4.154   6.429   6.753
14185TIP3    H142500   4.190   6.413   6.666
14185TIP3    H242501   4.226   6.408   6.813
14186TIP3   OH242502   2.604   2.313   3.876
14186TIP3    H142503   2.637   2.382   3.818
14186TIP3    H242504   2.559   2.252   3.818
14187TIP3   OH242505   1.191   1.169   0.432
14187TIP3    H142506   1.171   1.262   0.421
14187TIP3    H242507   1.216   1.160   0.524
14188TIP3   OH242508   3.457   5.239   1.226
14188TIP3    H142509   3.385   5.272   1.279
14188TIP3    H242510   3.417   5.211   1.144
14189TIP3   OH242511   0.886   3.975   3.465
14189TIP3    H142512   0.793   3.972   3.442
14189TIP3    H242513   0.923   3.896   3.426
14190TIP3   OH242514   6.911   3.849   0.886
14190TIP3    H142515   6.817   3.864   0.871
14190TIP3    H242516   6.926   3.878   0.976
14191TIP3   OH242517   2.288   0.899   6.494
14191TIP3    H142518   2.349   0.832   6.526
14191TIP3    H242519   2.205   0.878   6.536
14192TIP3   OH242520   7.233   6.703   1.611
14192TIP3    H142521   7.148   6.662   1.594
14192TIP3    H242522   7.290   6.669   1.543
14193TIP3   OH242523   3.192   7.018   4.476
14193TIP3    H142524   3.255   6.945   4.474
14193TIP3    H242525   3.237   7.090   4.433
14194TIP3   OH242526   2.093   7.177   2.775
14194TIP3    H142527   2.135   7.098   2.810
14194TIP3    H242528   2.070   7.153   2.685
14195TIP3   OH242529   4.183   6.129   5.852
14195TIP3    H142530   4.218   6.047   5.816
14195TIP3    H242531   4.089   6.125   5.835
14196TIP3   OH242532   3.089   7.661   2.930
14196TIP3    H142533   3.080   7.690   3.021
14196TIP3    H242534   3.099   7.742   2.881
14197TIP3   OH242535   5.868   1.569   2.327
14197TIP3    H142536   5.933   1.548   2.394
14197TIP3    H242537   5.855   1.486   2.280
14198TIP3   OH242538   3.689   3.062   0.374
14198TIP3    H142539   3.721   3.006   0.303
14198TIP3    H242540   3.678   3.002   0.448
14199TIP3   OH242541   6.058   1.080   1.956
14199TIP3    H142542   6.011   1.029   1.891
14199TIP3    H242543   6.072   1.165   1.914
14200TIP3   OH242544   3.495   3.118   4.196
14200TIP3    H142545   3.568   3.088   4.142
14200TIP3    H242546   3.518   3.091   4.285
14201TIP3   OH242547   1.430   4.680   6.734
14201TIP3    H142548   1.391   4.629   6.663
14201TIP3    H242549   1.374   4.758   6.741
14202TIP3   OH242550   3.334   4.330   6.655
14202TIP3    H142551   3.274   4.401   6.631
14202TIP3    H242552   3.277   4.260   6.687
14203TIP3   OH242553   3.865   3.269   3.720
14203TIP3    H142554   3.785   3.249   3.767
14203TIP3    H242555   3.916   3.188   3.723
14204TIP3   OH242556   6.983   2.982   5.736
14204TIP3    H142557   7.002   3.017   5.649
14204TIP3    H242558   7.014   2.891   5.732
14205TIP3   OH242559   3.574   5.303   5.040
14205TIP3    H142560   3.544   5.300   5.131
14205TIP3    H242561   3.651   5.360   5.041
14206TIP3   OH242562   0.402   6.049   0.468
14206TIP3    H142563   0.459   5.973   0.455
14206TIP3    H242564   0.371   6.071   0.380
14207TIP3   OH242565   2.356   3.332   1.117
14207TIP3    H142566   2.317   3.250   1.148
14207TIP3    H242567   2.443   3.333   1.157
14208TIP3   OH242568   7.551   4.130   0.199
14208TIP3    H142569   7.511   4.210   0.166
14208TIP3    H242570   7.599   4.158   0.277
14209TIP3   OH242571   8.156   3.267   0.632
14209TIP3    H142572   8.175   3.249   0.540
14209TIP3    H242573   8.228   3.324   0.660
14210TIP3   OH242574   6.488   7.156   4.119
14210TIP3    H142575   6.513   7.103   4.195
14210TIP3    H242576   6.447   7.094   4.059
14211TIP3   OH242577   3.333   3.847   3.428
14211TIP3    H142578   3.266   3.914   3.445
14211TIP3    H242579   3.369   3.827   3.514
14212TIP3   OH242580   0.707   4.314   4.438
14212TIP3    H142581   0.637   4.249   4.431
14212TIP3    H242582   0.682   4.369   4.512
14213TIP3   OH242583   5.056   7.602   4.639
14213TIP3    H142584   5.053   7.622   4.732
14213TIP3    H242585   5.149   7.588   4.620
14214TIP3   OH242586   0.683   4.610   0.602
14214TIP3    H142587   0.707   4.656   0.522
14214TIP3    H242588   0.590   4.627   0.613
14215TIP3   OH242589   6.659   1.664   0.577
14215TIP3    H142590   6.579   1.620   0.605
14215TIP3    H242591   6.700   1.692   0.659
14216TIP3   OH242592   2.436   1.031   1.052
14216TIP3    H142593   2.378   0.972   1.101
14216TIP3    H242594   2.388   1.051   0.972
14217TIP3   OH242595   0.854   7.161   0.893
14217TIP3    H142596   0.809   7.162   0.809
14217TIP3    H242597   0.790   7.122   0.954
14218TIP3   OH242598   7.995   4.517   5.041
14218TIP3    H142599   7.915   4.471   5.067
14218TIP3    H242600   8.060   4.492   5.107
14219TIP3   OH242601   5.964   0.754   0.212
14219TIP3    H142602   5.922   0.720   0.291
14219TIP3    H242603   5.998   0.676   0.168
14220TIP3   OH242604   3.567   0.711   4.079
14220TIP3    H142605   3.601   0.623   4.101
14220TIP3    H242606   3.603   0.729   3.993
14221TIP3   OH242607   1.417   7.373   0.744
14221TIP3    H142608   1.343   7.353   0.801
14221TIP3    H242609   1.482   7.414   0.801
14222TIP3   OH242610   3.183   6.256   4.377
14222TIP3    H142611   3.173   6.211   4.294
14222TIP3    H242612   3.278   6.268   4.386
14223TIP3   OH242613   4.956   0.928   5.191
14223TIP3    H142614   4.895   0.992   5.154
14223TIP3    H242615   4.991   0.881   5.116
14224TIP3   OH242616   2.860   0.263   6.501
14224TIP3    H142617   2.845   0.172   6.475
14224TIP3    H242618   2.955   0.274   6.494
14225TIP3   OH242619   5.201   1.920   1.270
14225TIP3    H142620   5.176   1.996   1.322
14225TIP3    H242621   5.192   1.846   1.330
14226TIP3   OH242622   5.950   0.670   5.751
14226TIP3    H142623   5.947   0.601   5.817
14226TIP3    H242624   5.969   0.750   5.800
14227TIP3   OH242625   2.087   5.972   3.801
14227TIP3    H142626   2.033   5.920   3.741
14227TIP3    H242627   2.164   5.996   3.750
14228TIP3   OH242628   3.718   6.962   6.226
14228TIP3    H142629   3.773   7.037   6.249
14228TIP3    H242630   3.774   6.906   6.174
14229TIP3   OH242631   6.282   5.619   1.311
14229TIP3    H142632   6.283   5.526   1.290
14229TIP3    H242633   6.204   5.653   1.266
14230TIP3   OH242634   3.320   7.621   4.457
14230TIP3    H142635   3.297   7.670   4.378
14230TIP3    H242636   3.343   7.688   4.521
14231TIP3   OH242637   1.223   1.200   5.371
14231TIP3    H142638   1.128   1.211   5.383
14231TIP3    H242639   1.240   1.109   5.395
14232TIP3   OH242640   4.893   3.440   4.002
14232TIP3    H142641   4.816   3.497   4.004
14232TIP3    H242642   4.964   3.495   4.036
14233TIP3   OH242643   5.792   3.308   5.536
14233TIP3    H142644   5.725   3.279   5.598
14233TIP3    H242645   5.861   3.243   5.543
14234TIP3   OH242646   6.687   5.178   0.286
14234TIP3    H142647   6.691   5.238   0.360
14234TIP3    H242648   6.648   5.098   0.322
14235TIP3   OH242649   3.354   3.916   3.761
14235TIP3    H142650   3.278   3.867   3.793
14235TIP3    H242651   3.348   4.001   3.805
14236TIP3   OH242652   0.894   5.190   4.481
14236TIP3    H142653   0.877   5.152   4.567
14236TIP3    H242654   0.978   5.153   4.454
14237TIP3   OH242655   6.093   6.994   6.129
14237TIP3    H142656   6.092   6.980   6.034
14237TIP3    H242657   6.002   6.980   6.156
14238TIP3   OH242658   0.808   7.704   3.312
14238TIP3    H142659   0.901   7.691   3.331
14238TIP3    H242660   0.764   7.631   3.356
14239TIP3   OH242661   7.939   5.413   3.104
14239TIP3    H142662   7.867   5.387   3.047
14239TIP3    H242663   7.920   5.373   3.188
14240TIP3   OH242664   6.220   2.509   4.407
14240TIP3    H142665   6.296   2.456   4.433
14240TIP3    H242666   6.170   2.520   4.487
14241TIP3   OH242667   8.171   5.924   1.935
14241TIP3    H142668   8.129   5.844   1.904
14241TIP3    H242669   8.198   5.903   2.025
14242TIP3   OH242670   8.143   6.768   3.602
14242TIP3    H142671   8.098   6.752   3.519
14242TIP3    H242672   8.110   6.853   3.630
14243TIP3   OH242673   1.330   0.887   1.051
14243TIP3    H142674   1.293   0.800   1.036
14243TIP3    H242675   1.370   0.880   1.137
14244TIP3   OH242676   5.804   2.129   3.222
14244TIP3    H142677   5.717   2.089   3.214
14244TIP3    H242678   5.834   2.102   3.309
14245TIP3   OH242679   5.696   0.256   4.343
14245TIP3    H142680   5.789   0.231   4.345
14245TIP3    H242681   5.685   0.312   4.420
14246TIP3   OH242682   7.285   5.842   2.105
14246TIP3    H142683   7.213   5.904   2.117
14246TIP3    H242684   7.261   5.793   2.026
14247TIP3   OH242685   2.057   2.538   5.329
14247TIP3    H142686   2.102   2.563   5.410
14247TIP3    H242687   2.113   2.572   5.259
14248TIP3   OH242688   5.296   7.219   6.169
14248TIP3    H142689   5.299   7.135   6.214
14248TIP3    H242690   5.255   7.278   6.231
14249TIP3   OH242691   4.668   4.860   1.981
14249TIP3    H142692   4.720   4.800   2.034
14249TIP3    H242693   4.599   4.891   2.039
14250TIP3   OH242694   1.805   2.974   4.471
14250TIP3    H142695   1.725   2.999   4.517
14250TIP3    H242696   1.851   2.916   4.531
14251TIP3   OH242697   2.440   1.310   0.500
14251TIP3    H142698   2.383   1.277   0.430
14251TIP3    H242699   2.468   1.231   0.547
14252TIP3   OH242700   6.469   6.936   2.247
14252TIP3    H142701   6.510   7.022   2.243
14252TIP3    H242702   6.529   6.884   2.302
14253TIP3   OH242703   4.859   1.360   6.591
14253TIP3    H142704   4.948   1.332   6.571
14253TIP3    H242705   4.842   1.431   6.530
14254TIP3   OH242706   2.774   0.101   5.593
14254TIP3    H142707   2.746   0.159   5.523
14254TIP3    H242708   2.711   0.116   5.663
14255TIP3   OH242709   6.467   4.963   6.256
14255TIP3    H142710   6.556   4.991   6.238
14255TIP3    H242711   6.466   4.869   6.234
14256TIP3   OH242712   6.028   3.796   0.080
14256TIP3    H142713   5.970   3.726   0.049
14256TIP3    H242714   6.006   3.806   0.172
14257TIP3   OH242715   1.414   5.084   1.574
14257TIP3    H142716   1.333   5.099   1.622
14257TIP3    H242717   1.429   5.165   1.526
14258TIP3   OH242718   1.303   5.667   3.359
14258TIP3    H142719   1.277   5.640   3.447
14258TIP3    H242720   1.365   5.739   3.374
14259TIP3   OH242721   1.322   3.709   4.695
14259TIP3    H142722   1.301   3.694   4.603
14259TIP3    H242723   1.363   3.628   4.724
14260TIP3   OH242724   5.397   5.396   3.986
14260TIP3    H142725   5.320   5.447   4.012
14260TIP3    H242726   5.399   5.403   3.891
14261TIP3   OH242727   4.630   3.209   0.962
14261TIP3    H142728   4.722   3.223   0.941
14261TIP3    H242729   4.628   3.205   1.058
14262TIP3   OH242730   4.333   1.006   0.338
14262TIP3    H142731   4.426   0.985   0.334
14262TIP3    H242732   4.307   1.016   0.246
14263TIP3   OH242733   4.529   2.262   0.909
14263TIP3    H142734   4.441   2.227   0.925
14263TIP3    H242735   4.551   2.234   0.820
14264TIP3   OH242736   2.543   1.961   1.908
14264TIP3    H142737   2.459   1.983   1.948
14264TIP3    H242738   2.608   2.004   1.964
14265TIP3   OH242739   5.550   6.852   4.232
14265TIP3    H142740   5.455   6.863   4.226
14265TIP3    H242741   5.562   6.791   4.305
14266TIP3   OH242742   7.864   0.370   2.030
14266TIP3    H142743   7.852   0.347   1.938
14266TIP3    H242744   7.916   0.298   2.066
14267TIP3   OH242745   7.672   7.105   4.224
14267TIP3    H142746   7.632   7.180   4.269
14267TIP3    H242747   7.708   7.141   4.144
14268TIP3   OH242748   6.543   3.584   4.313
14268TIP3    H142749   6.604   3.516   4.284
14268TIP3    H242750   6.579   3.666   4.279
14269TIP3   OH242751   5.302   7.632   1.970
14269TIP3    H142752   5.363   7.559   1.978
14269TIP3    H242753   5.226   7.596   1.925
14270TIP3   OH242754   6.304   3.312   3.709
14270TIP3    H142755   6.288   3.404   3.728
14270TIP3    H242756   6.291   3.305   3.614
14271TIP3   OH242757   2.057   3.445   4.048
14271TIP3    H142758   1.977   3.442   4.100
14271TIP3    H242759   2.087   3.536   4.055
14272TIP3   OH242760   7.772   3.853   5.823
14272TIP3    H142761   7.794   3.946   5.822
14272TIP3    H242762   7.730   3.838   5.908
14273TIP3   OH242763   5.366   5.390   2.853
14273TIP3    H142764   5.442   5.443   2.829
14273TIP3    H242765   5.318   5.444   2.915
14274TIP3   OH242766   3.798   3.227   2.218
14274TIP3    H142767   3.725   3.247   2.161
14274TIP3    H242768   3.872   3.277   2.182
14275TIP3   OH242769   5.853   4.289   0.355
14275TIP3    H142770   5.772   4.301   0.305
14275TIP3    H242771   5.889   4.377   0.365
14276TIP3   OH242772   5.649   7.045   5.654
14276TIP3    H142773   5.653   7.030   5.560
14276TIP3    H242774   5.665   6.959   5.693
14277TIP3   OH242775   2.166   2.079   5.128
14277TIP3    H142776   2.260   2.087   5.144
14277TIP3    H242777   2.128   2.159   5.165
14278TIP3   OH242778   4.540   7.214   1.567
14278TIP3    H142779   4.613   7.263   1.530
14278TIP3    H242780   4.495   7.177   1.491
14279TIP3   OH242781   5.445   3.960   0.425
14279TIP3    H142782   5.447   3.869   0.454
14279TIP3    H242783   5.464   4.011   0.503
14280TIP3   OH242784   5.978   5.127   0.566
14280TIP3    H142785   5.958   5.219   0.554
14280TIP3    H242786   5.936   5.104   0.649
14281TIP3   OH242787   0.555   1.327   1.633
14281TIP3    H142788   0.566   1.408   1.684
14281TIP3    H242789   0.469   1.337   1.593
14282TIP3   OH242790   3.140   1.120   1.644
14282TIP3    H142791   3.123   1.159   1.558
14282TIP3    H242792   3.054   1.091   1.675
14283TIP3   OH242793   6.046   7.347   1.194
14283TIP3    H142794   6.110   7.336   1.265
14283TIP3    H242795   6.024   7.257   1.168
14284TIP3   OH242796   3.143   1.236   0.454
14284TIP3    H142797   3.072   1.232   0.391
14284TIP3    H242798   3.216   1.192   0.411
14285TIP3   OH242799   0.375   7.136   1.117
14285TIP3    H142800   0.392   7.220   1.075
14285TIP3    H242801   0.319   7.089   1.055
14286TIP3   OH242802   0.545   2.654   5.429
14286TIP3    H142803   0.598   2.676   5.505
14286TIP3    H242804   0.542   2.735   5.378
14287TIP3   OH242805   1.159   7.359   3.592
14287TIP3    H142806   1.181   7.268   3.571
14287TIP3    H242807   1.214   7.411   3.534
14288TIP3   OH242808   2.815   3.103   5.646
14288TIP3    H142809   2.907   3.127   5.648
14288TIP3    H242810   2.814   3.015   5.607
14289TIP3   OH242811   3.702   5.775   6.708
14289TIP3    H142812   3.668   5.863   6.724
14289TIP3    H242813   3.745   5.781   6.622
14290TIP3   OH242814   2.542   4.841   5.489
14290TIP3    H142815   2.504   4.854   5.576
14290TIP3    H242816   2.587   4.756   5.495
14291TIP3   OH242817   4.744   1.556   3.447
14291TIP3    H142818   4.680   1.618   3.480
14291TIP3    H242819   4.701   1.515   3.372
14292TIP3   OH242820   5.699   0.586   1.112
14292TIP3    H142821   5.777   0.628   1.148
14292TIP3    H242822   5.699   0.499   1.151
14293TIP3   OH242823   6.587   4.365   2.214
14293TIP3    H142824   6.670   4.352   2.168
14293TIP3    H242825   6.562   4.277   2.243
14294TIP3   OH242826   3.062   5.976   3.856
14294TIP3    H142827   3.015   6.009   3.933
14294TIP3    H242828   2.996   5.973   3.787
14295TIP3   OH242829   0.706   3.202   3.207
14295TIP3    H142830   0.673   3.235   3.291
14295TIP3    H242831   0.797   3.180   3.225
14296TIP3   OH242832   8.199   2.839   0.775
14296TIP3    H142833   8.269   2.893   0.811
14296TIP3    H242834   8.132   2.837   0.843
14297TIP3   OH242835   1.284   5.822   3.051
14297TIP3    H142836   1.355   5.771   3.011
14297TIP3    H242837   1.265   5.891   2.987
14298TIP3   OH242838   7.319   0.768   6.761
14298TIP3    H142839   7.304   0.862   6.760
14298TIP3    H242840   7.349   0.747   6.673
14299TIP3   OH242841   6.192   6.721   2.474
14299TIP3    H142842   6.120   6.663   2.449
14299TIP3    H242843   6.161   6.808   2.448
14300TIP3   OH242844   0.970   1.426   4.091
14300TIP3    H142845   0.889   1.473   4.111
14300TIP3    H242846   0.964   1.346   4.143
14301TIP3   OH242847   2.253   5.363   2.274
14301TIP3    H142848   2.314   5.407   2.215
14301TIP3    H242849   2.250   5.418   2.352
14302TIP3   OH242850   3.373   0.363   2.684
14302TIP3    H142851   3.395   0.429   2.619
14302TIP3    H242852   3.443   0.298   2.675
14303TIP3   OH242853   4.923   1.802   3.529
14303TIP3    H142854   4.927   1.715   3.489
14303TIP3    H242855   4.833   1.831   3.514
14304TIP3   OH242856   4.781   1.114   2.859
14304TIP3    H142857   4.842   1.042   2.842
14304TIP3    H242858   4.725   1.116   2.781
14305TIP3   OH242859   6.140   2.331   5.532
14305TIP3    H142860   6.101   2.244   5.537
14305TIP3    H242861   6.065   2.390   5.524
14306TIP3   OH242862   2.086   4.026   4.906
14306TIP3    H142863   2.158   4.072   4.949
14306TIP3    H242864   2.118   3.937   4.893
14307TIP3   OH242865   6.779   2.057   3.359
14307TIP3    H142866   6.826   2.141   3.355
14307TIP3    H242867   6.736   2.049   3.273
14308TIP3   OH242868   7.103   3.592   4.066
14308TIP3    H142869   7.073   3.683   4.062
14308TIP3    H242870   7.189   3.593   4.024
14309TIP3   OH242871   7.139   6.517   3.510
14309TIP3    H142872   7.067   6.578   3.524
14309TIP3    H242873   7.097   6.432   3.495
14310TIP3   OH242874   3.229   0.572   1.182
14310TIP3    H142875   3.247   0.550   1.274
14310TIP3    H242876   3.228   0.668   1.180
14311TIP3   OH242877   7.096   5.631   5.497
14311TIP3    H142878   7.033   5.561   5.512
14311TIP3    H242879   7.151   5.630   5.575
14312TIP3   OH242880   7.313   5.566   0.709
14312TIP3    H142881   7.326   5.473   0.693
14312TIP3    H242882   7.275   5.571   0.796
14313TIP3   OH242883   1.745   6.788   1.687
14313TIP3    H142884   1.686   6.746   1.750
14313TIP3    H242885   1.826   6.803   1.736
14314TIP3   OH242886   0.468   3.283   0.079
14314TIP3    H142887   0.417   3.205   0.058
14314TIP3    H242888   0.514   3.260   0.160
14315TIP3   OH242889   1.459   7.634   4.455
14315TIP3    H142890   1.465   7.712   4.509
14315TIP3    H242891   1.543   7.590   4.466
14316TIP3   OH242892   5.699   7.612   1.409
14316TIP3    H142893   5.748   7.615   1.490
14316TIP3    H242894   5.661   7.524   1.406
14317TIP3   OH242895   3.509   3.974   2.881
14317TIP3    H142896   3.498   3.888   2.840
14317TIP3    H242897   3.603   3.979   2.901
14318TIP3   OH242898   7.655   7.208   6.329
14318TIP3    H142899   7.733   7.260   6.348
14318TIP3    H242900   7.614   7.195   6.414
14319TIP3   OH242901   1.669   6.717   6.729
14319TIP3    H142902   1.726   6.713   6.806
14319TIP3    H242903   1.581   6.722   6.764
14320TIP3   OH242904   1.200   5.468   2.114
14320TIP3    H142905   1.240   5.505   2.036
14320TIP3    H242906   1.165   5.543   2.161
14321TIP3   OH242907   2.629   2.519   2.447
14321TIP3    H142908   2.599   2.592   2.500
14321TIP3    H242909   2.633   2.445   2.508
14322TIP3   OH242910   8.114   1.068   2.613
14322TIP3    H142911   8.153   1.130   2.552
14322TIP3    H242912   8.172   1.070   2.690
14323TIP3   OH242913   7.489   5.623   6.028
14323TIP3    H142914   7.496   5.603   6.121
14323TIP3    H242915   7.421   5.689   6.023
14324TIP3   OH242916   5.025   3.913   3.850
14324TIP3    H142917   4.963   3.840   3.843
14324TIP3    H242918   5.110   3.871   3.854
14325TIP3   OH242919   6.545   5.748   0.993
14325TIP3    H142920   6.553   5.813   1.063
14325TIP3    H242921   6.467   5.774   0.944
14326TIP3   OH242922   6.411   2.920   4.991
14326TIP3    H142923   6.384   3.007   5.020
14326TIP3    H242924   6.337   2.887   4.940
14327TIP3   OH242925   5.567   6.026   6.591
14327TIP3    H142926   5.569   6.018   6.686
14327TIP3    H242927   5.486   5.984   6.565
14328TIP3   OH242928   2.704   6.023   2.808
14328TIP3    H142929   2.652   6.100   2.786
14328TIP3    H242930   2.673   5.955   2.748
14329TIP3   OH242931   3.591   5.653   0.359
14329TIP3    H142932   3.591   5.640   0.454
14329TIP3    H242933   3.682   5.638   0.333
14330TIP3   OH242934   3.814   0.555   3.706
14330TIP3    H142935   3.847   0.574   3.794
14330TIP3    H242936   3.863   0.614   3.648
14331TIP3   OH242937   5.350   3.480   1.526
14331TIP3    H142938   5.357   3.449   1.436
14331TIP3    H242939   5.270   3.532   1.528
14332TIP3   OH242940   3.919   1.538   1.868
14332TIP3    H142941   4.005   1.498   1.853
14332TIP3    H242942   3.865   1.465   1.898
14333TIP3   OH242943   3.119   5.684   0.102
14333TIP3    H142944   3.115   5.779   0.096
14333TIP3    H242945   3.192   5.667   0.162
14334TIP3   OH242946   5.821   3.458   0.029
14334TIP3    H142947   5.739   3.424  -0.008
14334TIP3    H242948   5.802   3.470   0.122
14335TIP3   OH242949   7.068   0.749   1.801
14335TIP3    H142950   7.005   0.682   1.776
14335TIP3    H242951   7.015   0.821   1.835
14336TIP3   OH242952   3.097   0.812   3.851
14336TIP3    H142953   3.050   0.883   3.894
14336TIP3    H242954   3.107   0.841   3.760
14337TIP3   OH242955   1.456   2.002   6.624
14337TIP3    H142956   1.516   2.005   6.699
14337TIP3    H242957   1.491   1.931   6.569
14338TIP3   OH242958   4.772   0.985   5.634
14338TIP3    H142959   4.837   1.034   5.583
14338TIP3    H242960   4.824   0.941   5.701
14339TIP3   OH242961   0.222   1.813   4.793
14339TIP3    H142962   0.145   1.825   4.849
14339TIP3    H242963   0.239   1.719   4.794
14340TIP3   OH242964   7.837   7.703   5.390
14340TIP3    H142965   7.851   7.719   5.484
14340TIP3    H242966   7.746   7.675   5.384
14341TIP3   OH242967   4.562   1.830   4.711
14341TIP3    H142968   4.598   1.742   4.703
14341TIP3    H242969   4.477   1.817   4.753
14342TIP3   OH242970   7.434   5.447   5.237
14342TIP3    H142971   7.466   5.501   5.309
14342TIP3    H242972   7.343   5.428   5.262
14343TIP3   OH242973   1.974   2.768   0.054
14343TIP3    H142974   2.020   2.838   0.101
14343TIP3    H242975   1.914   2.813  -0.005
14344TIP3   OH242976   5.045   0.312   4.479
14344TIP3    H142977   4.971   0.373   4.484
14344TIP3    H242978   5.107   0.354   4.419
14345TIP3   OH242979   4.785   4.554   2.816
14345TIP3    H142980   4.727   4.567   2.741
14345TIP3    H242981   4.806   4.461   2.814
14346TIP3   OH242982   2.026   6.784   1.334
14346TIP3    H142983   1.951   6.843   1.335
14346TIP3    H242984   1.992   6.701   1.368
14347TIP3   OH242985   7.853   6.161   0.687
14347TIP3    H142986   7.852   6.255   0.704
14347TIP3    H242987   7.835   6.121   0.772
14348TIP3   OH242988   5.180   1.725   5.617
14348TIP3    H142989   5.103   1.759   5.571
14348TIP3    H242990   5.244   1.796   5.613
14349TIP3   OH242991   3.281   4.960   3.156
14349TIP3    H142992   3.354   4.953   3.217
14349TIP3    H242993   3.246   4.871   3.150
14350TIP3   OH242994   8.036   6.838   4.238
14350TIP3    H142995   8.095   6.844   4.162
14350TIP3    H242996   8.059   6.754   4.279
14351TIP3   OH242997   0.610   2.069   1.140
14351TIP3    H142998   0.611   2.139   1.205
14351TIP3    H242999   0.621   1.989   1.190
14352TIP3   OH243000   1.968   2.319   6.685
14352TIP3    H143001   1.974   2.328   6.590
14352TIP3    H243002   1.950   2.407   6.717
14353TIP3   OH243003   7.165   5.637   4.929
14353TIP3    H143004   7.091   5.626   4.989
14353TIP3    H243005   7.223   5.698   4.974
14354TIP3   OH243006   2.950   1.390   6.114
14354TIP3    H143007   2.950   1.385   6.018
14354TIP3    H243008   3.022   1.334   6.142
14355TIP3   OH243009   4.442   5.529   4.875
14355TIP3    H143010   4.395   5.508   4.955
14355TIP3    H243011   4.397   5.477   4.807
14356TIP3   OH243012   1.761   5.706   4.771
14356TIP3    H143013   1.819   5.769   4.813
14356TIP3    H243014   1.749   5.637   4.835
14357TIP3   OH243015   1.079   1.214   3.888
14357TIP3    H143016   1.105   1.248   3.974
14357TIP3    H243017   1.084   1.290   3.830
14358TIP3   OH243018   1.662   2.697   5.366
14358TIP3    H143019   1.661   2.791   5.384
14358TIP3    H243020   1.582   2.663   5.406
14359TIP3   OH243021   7.624   7.396   2.742
14359TIP3    H143022   7.654   7.438   2.661
14359TIP3    H243023   7.547   7.346   2.717
14360TIP3   OH243024   0.960   4.248   0.016
14360TIP3    H143025   0.956   4.279   0.106
14360TIP3    H243026   1.034   4.188   0.013
14361TIP3   OH243027   3.170   6.674   6.078
14361TIP3    H143028   3.080   6.648   6.057
14361TIP3    H243029   3.168   6.770   6.075
14362TIP3   OH243030   7.741   0.753   4.406
14362TIP3    H143031   7.712   0.743   4.315
14362TIP3    H243032   7.757   0.846   4.417
14363TIP3   OH243033   1.117   7.607   3.784
14363TIP3    H143034   1.157   7.534   3.737
14363TIP3    H243035   1.166   7.612   3.866
14364TIP3   OH243036   7.643   2.460   1.229
14364TIP3    H143037   7.596   2.526   1.178
14364TIP3    H243038   7.629   2.378   1.181
14365TIP3   OH243039   0.893   4.511   4.354
14365TIP3    H143040   0.856   4.596   4.377
14365TIP3    H243041   0.830   4.448   4.388
14366TIP3   OH243042   0.914   5.424   1.096
14366TIP3    H143043   0.987   5.477   1.062
14366TIP3    H243044   0.957   5.355   1.146
14367TIP3   OH243045   5.602   1.039   3.787
14367TIP3    H143046   5.608   1.134   3.777
14367TIP3    H243047   5.682   1.005   3.746
14368TIP3   OH243048   0.292   3.382   2.704
14368TIP3    H143049   0.381   3.385   2.668
14368TIP3    H243050   0.237   3.419   2.636
14369TIP3   OH243051   0.987   5.565   2.673
14369TIP3    H143052   1.012   5.580   2.764
14369TIP3    H243053   1.042   5.492   2.644
14370TIP3   OH243054   4.676   7.064   2.171
14370TIP3    H143055   4.673   7.159   2.176
14370TIP3    H243056   4.602   7.034   2.224
14371TIP3   OH243057   7.876   7.327   2.348
14371TIP3    H143058   7.931   7.400   2.375
14371TIP3    H243059   7.915   7.250   2.391
14372TIP3   OH243060   4.337   0.851   5.284
14372TIP3    H143061   4.372   0.903   5.212
14372TIP3    H243062   4.394   0.871   5.358
14373TIP3   OH243063   3.617   7.767   1.258
14373TIP3    H143064   3.569   7.829   1.314
14373TIP3    H243065   3.656   7.822   1.190
14374TIP3   OH243066   2.386   6.712   0.920
14374TIP3    H143067   2.313   6.761   0.959
14374TIP3    H243068   2.464   6.748   0.961
14375TIP3   OH243069   4.520   3.364   3.087
14375TIP3    H143070   4.469   3.401   3.014
14375TIP3    H243071   4.455   3.317   3.139
14376TIP3   OH243072   3.282   6.271   1.095
14376TIP3    H143073   3.231   6.352   1.100
14376TIP3    H243074   3.220   6.205   1.063
14377TIP3   OH243075   6.646   0.412   2.758
14377TIP3    H143076   6.551   0.403   2.754
14377TIP3    H243077   6.663   0.498   2.719
14378TIP3   OH243078   4.610   3.218   4.886
14378TIP3    H143079   4.695   3.196   4.847
14378TIP3    H243080   4.617   3.310   4.910
14379TIP3   OH243081   2.330   0.113   3.245
14379TIP3    H143082   2.304   0.027   3.211
14379TIP3    H243083   2.340   0.167   3.167
14380TIP3   OH243084   3.966   6.813   0.919
14380TIP3    H143085   3.963   6.904   0.890
14380TIP3    H243086   3.893   6.770   0.875
14381TIP3   OH243087   0.333   2.889   2.838
14381TIP3    H143088   0.385   2.947   2.783
14381TIP3    H243089   0.391   2.815   2.857
14382TIP3   OH243090   2.265   5.612   4.149
14382TIP3    H143091   2.242   5.700   4.121
14382TIP3    H243092   2.350   5.596   4.108
14383TIP3   OH243093   7.829   3.340   5.364
14383TIP3    H143094   7.738   3.340   5.336
14383TIP3    H243095   7.878   3.310   5.287
14384TIP3   OH243096   0.797   4.895   1.627
14384TIP3    H143097   0.821   4.833   1.695
14384TIP3    H243098   0.823   4.980   1.661
14385TIP3   OH243099   7.734   5.528   0.624
14385TIP3    H143100   7.788   5.532   0.703
14385TIP3    H243101   7.726   5.620   0.597
14386TIP3   OH243102   6.232   1.752   5.400
14386TIP3    H143103   6.256   1.771   5.309
14386TIP3    H243104   6.202   1.837   5.435
14387TIP3   OH243105   4.829   3.671   4.643
14387TIP3    H143106   4.870   3.604   4.588
14387TIP3    H243107   4.735   3.656   4.632
14388TIP3   OH243108   4.357   5.809   1.390
14388TIP3    H143109   4.405   5.786   1.469
14388TIP3    H243110   4.377   5.738   1.328
14389TIP3   OH243111   3.621   3.964   1.542
14389TIP3    H143112   3.626   3.963   1.637
14389TIP3    H243113   3.560   4.035   1.522
14390TIP3   OH243114   7.112   1.426   5.895
14390TIP3    H143115   7.035   1.421   5.950
14390TIP3    H243116   7.086   1.483   5.822
14391TIP3   OH243117   1.422   4.280   0.878
14391TIP3    H143118   1.338   4.310   0.843
14391TIP3    H243119   1.481   4.355   0.867
14392TIP3   OH243120   4.525   6.020   0.529
14392TIP3    H143121   4.489   5.945   0.576
14392TIP3    H243122   4.478   6.021   0.445
14393TIP3   OH243123   3.003   7.681   1.275
14393TIP3    H143124   2.925   7.715   1.318
14393TIP3    H243125   2.974   7.602   1.230
14394TIP3   OH243126   0.416   7.120   4.649
14394TIP3    H143127   0.379   7.166   4.724
14394TIP3    H243128   0.429   7.188   4.583
14395TIP3   OH243129   0.632   4.170   4.133
14395TIP3    H143130   0.576   4.130   4.199
14395TIP3    H243131   0.720   4.136   4.152
14396TIP3   OH243132   1.708   6.911   4.102
14396TIP3    H143133   1.756   6.847   4.050
14396TIP3    H243134   1.763   6.989   4.102
14397TIP3   OH243135   8.009   3.355   4.099
14397TIP3    H143136   7.933   3.409   4.120
14397TIP3    H243137   8.042   3.326   4.183
14398TIP3   OH243138   6.916   1.003   3.406
14398TIP3    H143139   6.983   1.064   3.436
14398TIP3    H243140   6.837   1.056   3.399
14399TIP3   OH243141   0.370   0.305   2.585
14399TIP3    H143142   0.333   0.289   2.671
14399TIP3    H243143   0.310   0.368   2.544
14400TIP3   OH243144   5.157   4.643   0.163
14400TIP3    H143145   5.237   4.696   0.158
14400TIP3    H243146   5.109   4.679   0.238
14401TIP3   OH243147   4.528   0.854   1.943
14401TIP3    H143148   4.598   0.790   1.958
14401TIP3    H243149   4.575   0.934   1.920
14402TIP3   OH243150   0.379   1.377   5.446
14402TIP3    H143151   0.389   1.283   5.428
14402TIP3    H243152   0.455   1.399   5.498
14403TIP3   OH243153   0.834   7.269   5.311
14403TIP3    H143154   0.831   7.295   5.219
14403TIP3    H243155   0.928   7.260   5.330
14404TIP3   OH243156   1.088   6.280   0.154
14404TIP3    H143157   0.992   6.279   0.144
14404TIP3    H243158   1.121   6.266   0.065
14405TIP3   OH243159   2.146   0.398   3.775
14405TIP3    H143160   2.133   0.318   3.825
14405TIP3    H243161   2.061   0.415   3.734
14406TIP3   OH243162   1.376   0.156   3.052
14406TIP3    H143163   1.303   0.202   3.093
14406TIP3    H243164   1.375   0.187   2.962
14407TIP3   OH243165   3.498   7.183   2.808
14407TIP3    H143166   3.559   7.198   2.735
14407TIP3    H243167   3.498   7.266   2.856
14408TIP3   OH243168   1.951   5.510   3.033
14408TIP3    H143169   1.945   5.428   3.083
14408TIP3    H243170   2.037   5.545   3.055
14409TIP3   OH243171   6.482   1.573   3.706
14409TIP3    H143172   6.539   1.511   3.661
14409TIP3    H243173   6.396   1.532   3.703
14410TIP3   OH243174   2.410   0.399   0.978
14410TIP3    H143175   2.451   0.332   1.033
14410TIP3    H243176   2.370   0.459   1.040
14411TIP3   OH243177   5.491   5.221   5.589
14411TIP3    H143178   5.580   5.199   5.616
14411TIP3    H243179   5.435   5.174   5.652
14412TIP3   OH243180   2.095   0.394   4.083
14412TIP3    H143181   2.065   0.453   4.014
14412TIP3    H243182   2.016   0.350   4.114
14413TIP3   OH243183   7.985   7.005   4.954
14413TIP3    H143184   7.990   6.953   5.034
14413TIP3    H243185   8.026   6.949   4.888
14414TIP3   OH243186   0.724   4.725   2.055
14414TIP3    H143187   0.696   4.814   2.036
14414TIP3    H243188   0.643   4.674   2.058
14415TIP3   OH243189   7.970   1.187   1.651
14415TIP3    H143190   8.046   1.171   1.595
14415TIP3    H243191   7.991   1.268   1.698
14416TIP3   OH243192   3.167   6.613   1.724
14416TIP3    H143193   3.240   6.667   1.696
14416TIP3    H243194   3.205   6.527   1.740
14417TIP3   OH243195   5.435   3.705   0.525
14417TIP3    H143196   5.492   3.712   0.602
14417TIP3    H243197   5.451   3.617   0.491
14418TIP3   OH243198   0.478   7.098   4.253
14418TIP3    H143199   0.420   7.068   4.184
14418TIP3    H243200   0.434   7.174   4.290
14419TIP3   OH243201   8.028   2.615   2.737
14419TIP3    H143202   8.030   2.643   2.828
14419TIP3    H243203   8.005   2.694   2.688
14420TIP3   OH243204   6.733   5.732   4.447
14420TIP3    H143205   6.658   5.718   4.505
14420TIP3    H243206   6.794   5.783   4.500
14421TIP3   OH243207   6.630   0.199   3.979
14421TIP3    H143208   6.572   0.202   3.903
14421TIP3    H243209   6.575   0.226   4.052
14422TIP3   OH243210   0.388   2.498   4.381
14422TIP3    H143211   0.474   2.475   4.416
14422TIP3    H243212   0.336   2.418   4.390
14423TIP3   OH243213   4.918   4.747   5.356
14423TIP3    H143214   4.885   4.666   5.396
14423TIP3    H243215   4.843   4.783   5.309
14424TIP3   OH243216   4.950   4.343   4.124
14424TIP3    H143217   5.031   4.387   4.150
14424TIP3    H243218   4.899   4.336   4.204
14425TIP3   OH243219   5.719   5.133   2.807
14425TIP3    H143220   5.723   5.226   2.830
14425TIP3    H243221   5.798   5.095   2.846
14426TIP3   OH243222   6.687   6.226   6.732
14426TIP3    H143223   6.654   6.139   6.755
14426TIP3    H243224   6.781   6.221   6.745
14427TIP3   OH243225   0.310   7.584   1.985
14427TIP3    H143226   0.369   7.660   1.990
14427TIP3    H243227   0.349   7.528   1.919
14428TIP3   OH243228   5.806   7.439   2.400
14428TIP3    H143229   5.858   7.404   2.328
14428TIP3    H243230   5.735   7.487   2.357
14429TIP3   OH243231   7.051   0.263   4.599
14429TIP3    H143232   7.127   0.205   4.597
14429TIP3    H243233   6.990   0.225   4.537
14430TIP3   OH243234   6.033   3.217   0.709
14430TIP3    H143235   6.049   3.125   0.687
14430TIP3    H243236   5.975   3.249   0.640
14431TIP3   OH243237   4.158   0.926   2.163
14431TIP3    H143238   4.110   1.003   2.134
14431TIP3    H243239   4.226   0.960   2.222
14432TIP3   OH243240   2.328   0.194   4.076
14432TIP3    H143241   2.258   0.258   4.088
14432TIP3    H243242   2.291   0.111   4.107
14433TIP3   OH243243   5.016   4.191   6.208
14433TIP3    H143244   5.102   4.168   6.242
14433TIP3    H243245   4.955   4.137   6.257
14434TIP3   OH243246   3.091   0.255   1.985
14434TIP3    H143247   3.079   0.303   1.903
14434TIP3    H243248   3.084   0.163   1.961
14435TIP3   OH243249   0.497   0.772   1.465
14435TIP3    H143250   0.512   0.860   1.431
14435TIP3    H243251   0.576   0.723   1.443
14436TIP3   OH243252   4.181   3.350   5.384
14436TIP3    H143253   4.219   3.383   5.465
14436TIP3    H243254   4.100   3.399   5.374
14437TIP3   OH243255   0.675   6.529   5.719
14437TIP3    H143256   0.684   6.621   5.696
14437TIP3    H243257   0.749   6.511   5.777
14438TIP3   OH243258   5.407   2.464   6.239
14438TIP3    H143259   5.482   2.454   6.297
14438TIP3    H243260   5.337   2.498   6.295
14439TIP3   OH243261   4.095   3.654   3.939
14439TIP3    H143262   4.031   3.611   3.883
14439TIP3    H243263   4.175   3.656   3.886
14440TIP3   OH243264   6.319   7.726   3.154
14440TIP3    H143265   6.310   7.730   3.058
14440TIP3    H243266   6.236   7.687   3.183
14441TIP3   OH243267   1.018   6.546   4.716
14441TIP3    H143268   0.944   6.558   4.775
14441TIP3    H243269   1.093   6.582   4.764
14442TIP3   OH243270   3.404   4.690   4.571
14442TIP3    H143271   3.488   4.681   4.525
14442TIP3    H243272   3.362   4.765   4.528
14443TIP3   OH243273   5.532   0.466   1.496
14443TIP3    H143274   5.480   0.507   1.564
14443TIP3    H243275   5.622   0.497   1.512
14444TIP3   OH243276   7.660   4.545   1.043
14444TIP3    H143277   7.699   4.547   1.130
14444TIP3    H243278   7.630   4.634   1.027
14445TIP3   OH243279   8.198   5.129   5.313
14445TIP3    H143280   8.155   5.086   5.388
14445TIP3    H243281   8.205   5.060   5.247
14446TIP3   OH243282   1.967   0.166   3.891
14446TIP3    H143283   1.892   0.222   3.871
14446TIP3    H243284   1.965   0.157   3.986
14447TIP3   OH243285   6.495   1.220   6.286
14447TIP3    H143286   6.439   1.157   6.331
14447TIP3    H243287   6.476   1.304   6.330
14448TIP3   OH243288   1.103   1.620   2.994
14448TIP3    H143289   1.031   1.628   2.931
14448TIP3    H243290   1.155   1.547   2.961
14449TIP3   OH243291   5.835   5.852   4.872
14449TIP3    H143292   5.867   5.793   4.941
14449TIP3    H243293   5.912   5.900   4.843
14450TIP3   OH243294   4.673   4.872   1.026
14450TIP3    H143295   4.628   4.943   0.981
14450TIP3    H243296   4.757   4.864   0.981
14451TIP3   OH243297   6.691   5.944   5.334
14451TIP3    H143298   6.607   5.900   5.321
14451TIP3    H243299   6.678   6.031   5.297
14452TIP3   OH243300   4.374   3.496   1.246
14452TIP3    H143301   4.401   3.406   1.230
14452TIP3    H243302   4.291   3.488   1.293
14453TIP3   OH243303   2.232   6.341   4.916
14453TIP3    H143304   2.182   6.370   4.839
14453TIP3    H243305   2.254   6.422   4.962
14454TIP3   OH243306   5.242   0.426   5.621
14454TIP3    H143307   5.168   0.484   5.639
14454TIP3    H243308   5.248   0.423   5.525
14455TIP3   OH243309   4.612   2.882   4.018
14455TIP3    H143310   4.645   2.971   4.005
14455TIP3    H243311   4.690   2.826   4.012
14456TIP3   OH243312   4.610   1.795   3.477
14456TIP3    H143313   4.526   1.754   3.495
14456TIP3    H243314   4.602   1.883   3.515
14457TIP3   OH243315   5.624   4.830   6.777
14457TIP3    H143316   5.570   4.756   6.804
14457TIP3    H243317   5.561   4.895   6.746
14458TIP3   OH243318   0.663   1.586   6.613
14458TIP3    H143319   0.627   1.669   6.643
14458TIP3    H243320   0.685   1.601   6.521
14459TIP3   OH243321   1.477   6.678   4.185
14459TIP3    H143322   1.511   6.693   4.273
14459TIP3    H243323   1.555   6.655   4.133
14460TIP3   OH243324   0.375   0.808   1.956
14460TIP3    H143325   0.450   0.846   1.910
14460TIP3    H243326   0.413   0.762   2.031
14461TIP3   OH243327   3.924   2.572   3.938
14461TIP3    H143328   3.968   2.626   4.004
14461TIP3    H243329   3.986   2.502   3.919
14462TIP3   OH243330   3.102   1.373   4.835
14462TIP3    H143331   3.099   1.342   4.745
14462TIP3    H243332   3.154   1.453   4.831
14463TIP3   OH243333   6.485   5.845   5.990
14463TIP3    H143334   6.472   5.778   6.057
14463TIP3    H243335   6.409   5.903   5.998
14464TIP3   OH243336   3.680   5.532   4.531
14464TIP3    H143337   3.659   5.444   4.502
14464TIP3    H243338   3.695   5.523   4.625
14465TIP3   OH243339   1.799   6.496   1.686
14465TIP3    H143340   1.846   6.427   1.732
14465TIP3    H243341   1.818   6.576   1.735
14466TIP3   OH243342   5.488   6.207   3.087
14466TIP3    H143343   5.576   6.191   3.120
14466TIP3    H243344   5.430   6.185   3.161
14467TIP3   OH243345   1.159   2.397   3.171
14467TIP3    H143346   1.179   2.374   3.262
14467TIP3    H243347   1.184   2.489   3.163
14468TIP3   OH243348   6.735   7.302   5.853
14468TIP3    H143349   6.803   7.237   5.870
14468TIP3    H243350   6.767   7.352   5.778
14469TIP3   OH243351   5.509   3.311   6.403
14469TIP3    H143352   5.454   3.328   6.327
14469TIP3    H243353   5.597   3.299   6.366
14470TIP3   OH243354   5.126   1.844   6.469
14470TIP3    H143355   5.147   1.872   6.380
14470TIP3    H243356   5.209   1.852   6.516
14471TIP3   OH243357   4.561   7.465   2.358
14471TIP3    H143358   4.534   7.552   2.328
14471TIP3    H243359   4.613   7.431   2.285
14472TIP3   OH243360   0.701   3.630   2.194
14472TIP3    H143361   0.620   3.681   2.197
14472TIP3    H243362   0.762   3.676   2.251
14473TIP3   OH243363   7.513   1.004   0.712
14473TIP3    H143364   7.554   1.026   0.795
14473TIP3    H243365   7.469   0.921   0.728
14474TIP3   OH243366   4.859   0.700   6.298
14474TIP3    H143367   4.910   0.620   6.287
14474TIP3    H243368   4.921   0.770   6.278
14475TIP3   OH243369   3.892   7.695   3.143
14475TIP3    H143370   3.964   7.744   3.183
14475TIP3    H243371   3.824   7.695   3.210
14476TIP3   OH243372   0.857   5.086   4.096
14476TIP3    H143373   0.913   5.020   4.139
14476TIP3    H243374   0.864   5.066   4.003
14477TIP3   OH243375   7.829   6.097   6.107
14477TIP3    H143376   7.769   6.127   6.175
14477TIP3    H243377   7.916   6.102   6.148
14478TIP3   OH243378   7.436   3.738   4.922
14478TIP3    H143379   7.481   3.753   5.005
14478TIP3    H243380   7.376   3.666   4.939
14479TIP3   OH243381   8.017   2.194   4.202
14479TIP3    H143382   7.939   2.141   4.182
14479TIP3    H243383   7.997   2.280   4.166
14480TIP3   OH243384   0.231   7.539   3.268
14480TIP3    H143385   0.306   7.592   3.243
14480TIP3    H243386   0.232   7.465   3.207
14481TIP3   OH243387   7.105   6.725   0.208
14481TIP3    H143388   7.098   6.630   0.218
14481TIP3    H243389   7.185   6.748   0.256
14482TIP3   OH243390   7.505   4.090   4.130
14482TIP3    H143391   7.585   4.047   4.099
14482TIP3    H243392   7.449   4.018   4.159
14483TIP3   OH243393   6.443   5.930   4.280
14483TIP3    H143394   6.406   5.954   4.365
14483TIP3    H243395   6.413   5.998   4.220
14484TIP3   OH243396   6.287   1.216   2.445
14484TIP3    H143397   6.212   1.162   2.472
14484TIP3    H243398   6.271   1.235   2.353
14485TIP3   OH243399   3.251   2.603   3.532
14485TIP3    H143400   3.245   2.595   3.627
14485TIP3    H243401   3.207   2.525   3.498
14486TIP3   OH243402   2.785   7.731   1.098
14486TIP3    H143403   2.832   7.699   1.021
14486TIP3    H243404   2.799   7.826   1.096
14487TIP3   OH243405   0.100   5.294   5.375
14487TIP3    H143406   0.069   5.379   5.406
14487TIP3    H243407   0.021   5.243   5.361
14488TIP3   OH243408   7.294   2.347   1.976
14488TIP3    H143409   7.322   2.424   1.927
14488TIP3    H243410   7.370   2.321   2.027
14489TIP3   OH243411   4.340   2.983   2.723
14489TIP3    H143412   4.359   2.916   2.658
14489TIP3    H243413   4.343   3.066   2.674
14490TIP3   OH243414   1.598   1.046   6.405
14490TIP3    H143415   1.630   0.956   6.412
14490TIP3    H243416   1.640   1.080   6.326
14491TIP3   OH243417   3.451   4.304   0.191
14491TIP3    H143418   3.496   4.306   0.276
14491TIP3    H243419   3.466   4.391   0.154
14492TIP3   OH243420   0.059   2.869   2.798
14492TIP3    H143421   0.032   2.779   2.784
14492TIP3    H243422   0.154   2.866   2.795
14493TIP3   OH243423   2.776   0.670   5.364
14493TIP3    H143424   2.826   0.649   5.443
14493TIP3    H243425   2.708   0.731   5.394
14494TIP3   OH243426   6.792   2.922   2.309
14494TIP3    H143427   6.825   2.868   2.381
14494TIP3    H243428   6.700   2.936   2.329
14495TIP3   OH243429   6.188   6.572   4.701
14495TIP3    H143430   6.262   6.514   4.683
14495TIP3    H243431   6.188   6.634   4.628
14496TIP3   OH243432   6.615   2.968   2.516
14496TIP3    H143433   6.581   2.989   2.603
14496TIP3    H243434   6.693   2.915   2.532
14497TIP3   OH243435   7.089   4.603   3.981
14497TIP3    H143436   7.083   4.639   4.070
14497TIP3    H243437   7.000   4.606   3.948
14498TIP3   OH243438   8.146   4.026   3.823
14498TIP3    H143439   8.131   3.933   3.809
14498TIP3    H243440   8.063   4.068   3.799
14499TIP3   OH243441   5.965   0.122   2.938
14499TIP3    H143442   6.017   0.086   3.010
14499TIP3    H243443   5.982   0.216   2.940
14500TIP3   OH243444   7.465   1.398   6.588
14500TIP3    H143445   7.503   1.472   6.541
14500TIP3    H243446   7.428   1.342   6.520
14501TIP3   OH243447   7.487   6.677   6.498
14501TIP3    H143448   7.399   6.686   6.535
14501TIP3    H243449   7.545   6.699   6.571
14502TIP3   OH243450   7.698   1.826   3.569
14502TIP3    H143451   7.669   1.913   3.596
14502TIP3    H243452   7.621   1.787   3.527
14503TIP3   OH243453   7.658   6.228   4.814
14503TIP3    H143454   7.747   6.199   4.795
14503TIP3    H243455   7.607   6.197   4.739
14504TIP3   OH243456  -0.003   4.606   0.150
14504TIP3    H143457   0.083   4.607   0.192
14504TIP3    H243458   0.013   4.575   0.061
14505TIP3   OH243459   7.030   5.149   2.752
14505TIP3    H143460   6.937   5.160   2.773
14505TIP3    H243461   7.058   5.236   2.723
14506TIP3   OH243462   7.173   5.678   2.579
14506TIP3    H143463   7.128   5.624   2.644
14506TIP3    H243464   7.104   5.729   2.538
14507TIP3   OH243465   0.899   0.318   0.258
14507TIP3    H143466   0.840   0.246   0.239
14507TIP3    H243467   0.851   0.396   0.231
14508TIP3   OH243468   8.251   7.379   2.406
14508TIP3    H143469   8.247   7.363   2.500
14508TIP3    H243470   8.336   7.343   2.380
14509TIP3   OH243471   0.135   0.243   5.130
14509TIP3    H143472   0.171   0.318   5.178
14509TIP3    H243473   0.097   0.282   5.051
14510TIP3   OH243474   1.894   5.974   0.639
14510TIP3    H143475   1.832   6.041   0.670
14510TIP3    H243476   1.962   5.972   0.706
14511TIP3   OH243477   1.713   5.143   4.139
14511TIP3    H143478   1.709   5.225   4.188
14511TIP3    H243479   1.806   5.123   4.132
14512TIP3   OH243480   6.870   6.532   5.924
14512TIP3    H143481   6.784   6.511   5.888
14512TIP3    H243482   6.924   6.554   5.848
14513TIP3   OH243483   4.730   4.293   5.580
14513TIP3    H143484   4.804   4.235   5.562
14513TIP3    H243485   4.653   4.235   5.577
14514TIP3   OH243486   5.227   2.588   6.399
14514TIP3    H143487   5.156   2.597   6.463
14514TIP3    H243488   5.294   2.650   6.428
14515TIP3   OH243489   8.102   0.259   2.426
14515TIP3    H143490   8.104   0.311   2.346
14515TIP3    H243491   8.118   0.322   2.496
14516TIP3   OH243492   1.992   1.859   3.898
14516TIP3    H143493   1.898   1.860   3.880
14516TIP3    H243494   2.012   1.768   3.920
14517TIP3   OH243495   1.764   2.601   1.327
14517TIP3    H143496   1.773   2.673   1.390
14517TIP3    H243497   1.683   2.621   1.280
14518TIP3   OH243498   6.072   1.150   6.091
14518TIP3    H143499   6.116   1.076   6.049
14518TIP3    H243500   6.036   1.114   6.172
14519TIP3   OH243501   2.689   1.634   6.012
14519TIP3    H143502   2.713   1.587   6.092
14519TIP3    H243503   2.596   1.616   6.001
14520TIP3   OH243504   2.701   6.567   3.220
14520TIP3    H143505   2.705   6.526   3.133
14520TIP3    H243506   2.789   6.556   3.256
14521TIP3   OH243507   5.680   6.081   0.508
14521TIP3    H143508   5.685   6.176   0.521
14521TIP3    H243509   5.643   6.048   0.591
14522TIP3   OH243510   4.259   2.763   5.088
14522TIP3    H143511   4.353   2.765   5.107
14522TIP3    H243512   4.218   2.805   5.164
14523TIP3   OH243513   4.971   3.929   2.865
14523TIP3    H143514   4.900   3.934   2.802
14523TIP3    H243515   5.048   3.908   2.813
14524TIP3   OH243516   3.860   0.590   0.565
14524TIP3    H143517   3.822   0.675   0.542
14524TIP3    H243518   3.952   0.597   0.542
14525TIP3   OH243519   7.829   0.951   3.803
14525TIP3    H143520   7.856   0.859   3.802
14525TIP3    H243521   7.905   0.999   3.771
14526TIP3   OH243522   7.573   7.632   5.354
14526TIP3    H143523   7.560   7.668   5.266
14526TIP3    H243524   7.530   7.695   5.412
14527TIP3   OH243525   7.150   3.143   4.983
14527TIP3    H143526   7.125   3.053   5.004
14527TIP3    H243527   7.147   3.147   4.887
14528TIP3   OH243528   4.089   7.223   5.380
14528TIP3    H143529   4.001   7.241   5.414
14528TIP3    H243530   4.102   7.288   5.311
14529TIP3   OH243531   2.714   3.515   4.508
14529TIP3    H143532   2.653   3.475   4.569
14529TIP3    H243533   2.741   3.443   4.450
14530TIP3   OH243534   4.550   4.603   3.542
14530TIP3    H143535   4.634   4.621   3.501
14530TIP3    H243536   4.549   4.657   3.621
14531TIP3   OH243537   2.320   4.060   4.437
14531TIP3    H143538   2.401   4.034   4.394
14531TIP3    H243539   2.297   3.987   4.494
14532TIP3   OH243540   8.048   4.420   3.951
14532TIP3    H143541   8.086   4.497   3.908
14532TIP3    H243542   7.956   4.442   3.962
14533TIP3   OH243543   3.444   7.737   5.350
14533TIP3    H143544   3.437   7.832   5.359
14533TIP3    H243545   3.492   7.724   5.268
14534TIP3   OH243546   3.778   0.215   2.019
14534TIP3    H143547   3.850   0.190   2.077
14534TIP3    H243548   3.821   0.258   1.945
14535TIP3   OH243549   0.111   7.310   4.117
14535TIP3    H143550   0.130   7.389   4.067
14535TIP3    H243551   0.175   7.311   4.188
14536TIP3   OH243552   7.483   7.480   0.406
14536TIP3    H143553   7.429   7.481   0.485
14536TIP3    H243554   7.420   7.481   0.334
14537TIP3   OH243555   2.373   5.840   5.459
14537TIP3    H143556   2.391   5.783   5.385
14537TIP3    H243557   2.449   5.898   5.463
14538TIP3   OH243558   1.314   2.987   2.986
14538TIP3    H143559   1.283   2.978   3.076
14538TIP3    H243560   1.310   3.081   2.968
14539TIP3   OH243561   6.754   4.220   6.258
14539TIP3    H143562   6.681   4.245   6.315
14539TIP3    H243563   6.712   4.179   6.182
14540TIP3   OH243564   6.728   0.304   5.529
14540TIP3    H143565   6.819   0.275   5.523
14540TIP3    H243566   6.719   0.338   5.618
14541TIP3   OH243567   8.049   6.909   6.421
14541TIP3    H143568   8.136   6.942   6.443
14541TIP3    H243569   7.993   6.986   6.426
14542TIP3   OH243570   2.448   4.247   2.320
14542TIP3    H143571   2.470   4.329   2.365
14542TIP3    H243572   2.508   4.245   2.245
14543TIP3   OH243573   3.213   2.449   5.553
14543TIP3    H143574   3.232   2.536   5.589
14543TIP3    H243575   3.231   2.457   5.460
14544TIP3   OH243576   5.368   3.887   3.262
14544TIP3    H143577   5.290   3.877   3.207
14544TIP3    H243578   5.366   3.979   3.290
14545TIP3   OH243579   3.881   6.731   3.004
14545TIP3    H143580   3.792   6.757   3.026
14545TIP3    H243581   3.873   6.644   2.967
14546TIP3   OH243582   2.753   5.460   0.575
14546TIP3    H143583   2.716   5.413   0.500
14546TIP3    H243584   2.845   5.474   0.551
14547TIP3   OH243585   6.881   7.020   3.074
14547TIP3    H143586   6.876   7.108   3.113
14547TIP3    H243587   6.791   7.003   3.045
14548TIP3   OH243588   7.825   2.921   1.914
14548TIP3    H143589   7.870   2.979   1.975
14548TIP3    H243590   7.893   2.894   1.852
14549TIP3   OH243591   6.585   6.668   4.626
14549TIP3    H143592   6.655   6.727   4.654
14549TIP3    H243593   6.520   6.725   4.585
14550TIP3   OH243594   6.273   6.801   3.112
14550TIP3    H143595   6.291   6.858   3.037
14550TIP3    H243596   6.187   6.830   3.143
14551TIP3   OH243597   6.236   4.822   6.082
14551TIP3    H143598   6.291   4.892   6.116
14551TIP3    H243599   6.160   4.820   6.141
14552TIP3   OH243600   4.476   2.525   4.338
14552TIP3    H143601   4.439   2.613   4.336
14552TIP3    H243602   4.470   2.498   4.430
14553TIP3   OH243603   2.830   4.685   5.747
14553TIP3    H143604   2.746   4.691   5.701
14553TIP3    H243605   2.857   4.594   5.734
14554TIP3   OH243606   7.465   6.808   0.093
14554TIP3    H143607   7.521   6.735   0.121
14554TIP3    H243608   7.430   6.844   0.174
14555TIP3   OH243609   6.761   2.452   5.362
14555TIP3    H143610   6.744   2.500   5.443
14555TIP3    H243611   6.820   2.508   5.313
14556TIP3   OH243612   5.189   0.551   0.485
14556TIP3    H143613   5.201   0.518   0.396
14556TIP3    H243614   5.200   0.646   0.476
14557TIP3   OH243615   5.308   4.060   1.199
14557TIP3    H143616   5.337   4.134   1.146
14557TIP3    H243617   5.389   4.026   1.237
14558TIP3   OH243618   6.851   5.575   0.249
14558TIP3    H143619   6.814   5.539   0.168
14558TIP3    H243620   6.806   5.527   0.319
14559TIP3   OH243621   0.540   4.887   5.715
14559TIP3    H143622   0.487   4.808   5.707
14559TIP3    H243623   0.617   4.860   5.765
14560TIP3   OH243624   2.431   6.058   3.787
14560TIP3    H143625   2.395   6.083   3.872
14560TIP3    H243626   2.505   6.001   3.808
14561TIP3   OH243627   6.625   6.501   2.612
14561TIP3    H143628   6.648   6.408   2.600
14561TIP3    H243629   6.530   6.500   2.621
14562TIP3   OH243630   2.821   5.773   0.922
14562TIP3    H143631   2.814   5.776   0.827
14562TIP3    H243632   2.740   5.814   0.953
14563TIP3   OH243633   7.826   4.990   2.351
14563TIP3    H143634   7.845   5.041   2.272
14563TIP3    H243635   7.805   4.903   2.319
14564TIP3   OH243636   5.171   2.529   4.830
14564TIP3    H143637   5.136   2.553   4.916
14564TIP3    H243638   5.109   2.465   4.796
14565TIP3   OH243639   4.406   6.227   6.784
14565TIP3    H143640   4.440   6.165   6.848
14565TIP3    H243641   4.346   6.176   6.730
14566TIP3   OH243642   4.066   3.715   2.000
14566TIP3    H143643   3.976   3.745   1.984
14566TIP3    H243644   4.086   3.745   2.089
14567TIP3   OH243645   6.837   1.287   6.037
14567TIP3    H143646   6.741   1.281   6.029
14567TIP3    H243647   6.867   1.298   5.946
14568TIP3   OH243648   7.212   2.550   0.818
14568TIP3    H143649   7.218   2.520   0.728
14568TIP3    H243650   7.118   2.551   0.837
14569TIP3   OH243651   1.753   4.655   4.498
14569TIP3    H143652   1.706   4.585   4.544
14569TIP3    H243653   1.740   4.733   4.553
14570TIP3   OH243654   7.583   5.829   1.439
14570TIP3    H143655   7.654   5.800   1.383
14570TIP3    H243656   7.576   5.923   1.423
14571TIP3   OH243657   1.491   4.877   5.076
14571TIP3    H143658   1.399   4.858   5.055
14571TIP3    H243659   1.499   4.971   5.064
14572TIP3   OH243660   0.590   5.422   3.993
14572TIP3    H143661   0.551   5.435   4.080
14572TIP3    H243662   0.664   5.482   3.991
14573TIP3   OH243663   5.374   3.056   6.286
14573TIP3    H143664   5.401   3.114   6.214
14573TIP3    H243665   5.360   3.115   6.360
14574TIP3   OH243666   0.601   1.836   2.510
14574TIP3    H143667   0.515   1.860   2.476
14574TIP3    H243668   0.645   1.794   2.436
14575TIP3   OH243669   7.128   1.810   4.802
14575TIP3    H143670   7.207   1.782   4.755
14575TIP3    H243671   7.059   1.754   4.767
14576TIP3   OH243672   5.100   3.592   1.440
14576TIP3    H143673   5.110   3.550   1.355
14576TIP3    H243674   5.035   3.662   1.424
14577TIP3   OH243675   1.123   5.770   0.215
14577TIP3    H143676   1.122   5.848   0.270
14577TIP3    H243677   1.204   5.778   0.164
14578TIP3   OH243678   0.656   1.451   0.255
14578TIP3    H143679   0.739   1.494   0.234
14578TIP3    H243680   0.651   1.378   0.194
14579TIP3   OH243681   6.695   2.457   4.674
14579TIP3    H143682   6.759   2.527   4.662
14579TIP3    H243683   6.704   2.403   4.595
14580TIP3   OH243684   5.878   2.312   5.766
14580TIP3    H143685   5.905   2.277   5.681
14580TIP3    H243686   5.830   2.241   5.808
14581TIP3   OH243687   0.544   1.663   4.010
14581TIP3    H143688   0.545   1.728   3.940
14581TIP3    H243689   0.524   1.580   3.966
14582TIP3   OH243690   0.900   2.565   6.137
14582TIP3    H143691   0.860   2.482   6.112
14582TIP3    H243692   0.900   2.616   6.056
14583TIP3   OH243693   4.760   7.346   5.210
14583TIP3    H143694   4.800   7.407   5.272
14583TIP3    H243695   4.833   7.293   5.179
14584TIP3   OH243696   6.806   6.636   6.802
14584TIP3    H143697   6.894   6.647   6.767
14584TIP3    H243698   6.748   6.664   6.732
14585TIP3   OH243699   6.253   4.270   5.045
14585TIP3    H143700   6.330   4.297   4.995
14585TIP3    H243701   6.201   4.219   4.983
14586TIP3   OH243702   5.247   6.287   5.633
14586TIP3    H143703   5.248   6.264   5.540
14586TIP3    H243704   5.158   6.318   5.649
14587TIP3   OH243705   7.609   4.976   4.506
14587TIP3    H143706   7.678   4.980   4.572
14587TIP3    H243707   7.599   4.883   4.488
14588TIP3   OH243708   2.334   4.055   5.817
14588TIP3    H143709   2.307   3.970   5.781
14588TIP3    H243710   2.428   4.046   5.831
14589TIP3   OH243711   4.052   2.459   5.468
14589TIP3    H143712   4.034   2.535   5.413
14589TIP3    H243713   4.145   2.441   5.453
14590TIP3   OH243714   6.453   2.764   2.448
14590TIP3    H143715   6.505   2.844   2.462
14590TIP3    H243716   6.424   2.770   2.357
14591TIP3   OH243717   7.747   6.954   2.582
14591TIP3    H143718   7.746   6.880   2.520
14591TIP3    H243719   7.685   6.929   2.650
14592TIP3   OH243720   3.029   5.893   0.521
14592TIP3    H143721   3.057   5.802   0.512
14592TIP3    H243722   2.941   5.888   0.559
14593TIP3   OH243723   6.521   3.376   5.445
14593TIP3    H143724   6.511   3.452   5.387
14593TIP3    H243725   6.534   3.302   5.386
14594TIP3   OH243726   0.511   6.839   1.124
14594TIP3    H143727   0.581   6.832   1.190
14594TIP3    H243728   0.552   6.887   1.052
14595TIP3   OH243729   1.257   2.439   2.266
14595TIP3    H143730   1.191   2.372   2.279
14595TIP3    H243731   1.215   2.521   2.293
14596TIP3   OH243732   6.120   0.952   0.271
14596TIP3    H143733   6.132   0.961   0.365
14596TIP3    H243734   6.042   0.898   0.261
14597TIP3   OH243735   8.233   1.680   1.845
14597TIP3    H143736   8.248   1.765   1.885
14597TIP3    H243737   8.157   1.644   1.892
14598TIP3   OH243738   6.419   6.932   5.721
14598TIP3    H143739   6.459   6.847   5.701
14598TIP3    H243740   6.329   6.912   5.747
14599TIP3   OH243741   5.447   4.184   3.276
14599TIP3    H143742   5.419   4.151   3.361
14599TIP3    H243743   5.525   4.235   3.294
14600TIP3   OH243744   1.728   3.829   4.928
14600TIP3    H143745   1.765   3.848   5.014
14600TIP3    H243746   1.742   3.909   4.878
14601TIP3   OH243747   0.697   3.059   4.238
14601TIP3    H143748   0.693   3.152   4.213
14601TIP3    H243749   0.652   3.014   4.166
14602TIP3   OH243750   3.036   7.748   4.188
14602TIP3    H143751   3.125   7.781   4.173
14602TIP3    H243752   3.045   7.693   4.266
14603TIP3   OH243753   2.571   4.126   5.387
14603TIP3    H143754   2.490   4.146   5.434
14603TIP3    H243755   2.641   4.153   5.447
14604TIP3   OH243756   0.557   1.174   6.343
14604TIP3    H143757   0.592   1.136   6.262
14604TIP3    H243758   0.618   1.146   6.411
14605TIP3   OH243759   5.199   1.049   4.113
14605TIP3    H143760   5.210   1.144   4.114
14605TIP3    H243761   5.276   1.017   4.065
14606TIP3   OH243762   1.332   5.121   6.144
14606TIP3    H143763   1.350   5.213   6.127
14606TIP3    H243764   1.238   5.112   6.130
14607TIP3   OH243765   5.578   6.701   1.558
14607TIP3    H143766   5.644   6.762   1.591
14607TIP3    H243767   5.576   6.717   1.464
14608TIP3   OH243768   6.956   4.576   5.569
14608TIP3    H143769   7.032   4.622   5.603
14608TIP3    H243770   6.881   4.620   5.610
14609TIP3   OH243771   2.837   0.294   5.932
14609TIP3    H143772   2.921   0.281   5.886
14609TIP3    H243773   2.826   0.389   5.934
14610TIP3   OH243774   7.779   1.734   1.020
14610TIP3    H143775   7.799   1.800   0.954
14610TIP3    H243776   7.831   1.760   1.096
14611TIP3   OH243777   5.782   6.904   1.780
14611TIP3    H143778   5.785   6.911   1.685
14611TIP3    H243779   5.872   6.885   1.806
14612TIP3   OH243780   7.628   5.445   1.403
14612TIP3    H143781   7.706   5.492   1.375
14612TIP3    H243782   7.661   5.361   1.436
14613TIP3   OH243783   6.953   7.380   3.643
14613TIP3    H143784   6.904   7.409   3.567
14613TIP3    H243785   6.941   7.285   3.645
14614TIP3   OH243786   7.240   1.760   2.032
14614TIP3    H143787   7.247   1.847   1.993
14614TIP3    H243788   7.280   1.770   2.119
14615TIP3   OH243789   1.754   5.585   3.956
14615TIP3    H143790   1.796   5.608   4.038
14615TIP3    H243791   1.763   5.490   3.950
14616TIP3   OH243792   4.182   3.120   4.535
14616TIP3    H143793   4.163   3.066   4.459
14616TIP3    H243794   4.250   3.181   4.505
14617TIP3   OH243795   3.471   2.109   1.461
14617TIP3    H143796   3.437   2.198   1.454
14617TIP3    H243797   3.403   2.054   1.421
14618TIP3   OH243798   7.989   4.840   1.433
14618TIP3    H143799   7.896   4.866   1.431
14618TIP3    H243800   7.987   4.744   1.437
14619TIP3   OH243801   8.096   7.763   2.521
14619TIP3    H143802   8.169   7.815   2.486
14619TIP3    H243803   8.118   7.751   2.613
14620TIP3   OH243804   1.045   4.878   3.040
14620TIP3    H143805   1.012   4.847   3.125
14620TIP3    H243806   0.974   4.860   2.979
14621TIP3   OH243807   4.529   5.295   1.062
14621TIP3    H143808   4.614   5.316   1.102
14621TIP3    H243809   4.516   5.363   0.996
14622TIP3   OH243810   0.094   6.094   5.006
14622TIP3    H143811   0.129   6.168   5.055
14622TIP3    H243812   0.015   6.128   4.964
14623TIP3   OH243813   6.751   6.003   0.435
14623TIP3    H143814   6.729   6.030   0.345
14623TIP3    H243815   6.828   5.947   0.425
14624TIP3   OH243816   0.052   5.490   2.071
14624TIP3    H143817   0.051   5.554   2.143
14624TIP3    H243818   0.145   5.475   2.054
14625TIP3   OH243819   2.079   3.333   2.676
14625TIP3    H143820   1.995   3.372   2.651
14625TIP3    H243821   2.113   3.391   2.744
14626TIP3   OH243822   1.215   1.735   3.636
14626TIP3    H143823   1.155   1.775   3.574
14626TIP3    H243824   1.191   1.772   3.721
14627TIP3   OH243825   0.065   5.324   0.865
14627TIP3    H143826   0.007   5.277   0.805
14627TIP3    H243827   0.140   5.349   0.811
14628TIP3   OH243828   5.134   6.966   2.781
14628TIP3    H143829   5.174   7.009   2.857
14628TIP3    H243830   5.200   6.904   2.751
14629TIP3   OH243831   5.411   4.545   2.219
14629TIP3    H143832   5.402   4.631   2.177
14629TIP3    H243833   5.334   4.539   2.276
14630TIP3   OH243834   4.265   6.209   6.104
14630TIP3    H143835   4.208   6.283   6.125
14630TIP3    H243836   4.229   6.174   6.022
14631TIP3   OH243837   7.413   2.035   5.952
14631TIP3    H143838   7.499   2.003   5.980
14631TIP3    H243839   7.358   1.956   5.948
14632TIP3   OH243840   0.036   2.948   6.331
14632TIP3    H143841   0.112   2.978   6.282
14632TIP3    H243842  -0.003   2.880   6.276
14633TIP3   OH243843   3.806   7.498   3.524
14633TIP3    H143844   3.780   7.561   3.457
14633TIP3    H243845   3.724   7.459   3.554
14634TIP3   OH243846   6.426   0.472   4.985
14634TIP3    H143847   6.394   0.446   5.071
14634TIP3    H243848   6.347   0.485   4.933
14635TIP3   OH243849   4.106   4.765   0.157
14635TIP3    H143850   4.142   4.853   0.165
14635TIP3    H243851   4.015   4.778   0.130
14636TIP3   OH243852   3.893   5.545   0.656
14636TIP3    H143853   3.962   5.605   0.628
14636TIP3    H243854   3.919   5.460   0.619
14637TIP3   OH243855   1.015   4.382   4.714
14637TIP3    H143856   1.075   4.318   4.753
14637TIP3    H243857   1.064   4.419   4.641
14638TIP3   OH243858   1.700   7.595   6.025
14638TIP3    H143859   1.719   7.501   6.030
14638TIP3    H243860   1.781   7.635   5.995
14639TIP3   OH243861   0.189   1.714   4.089
14639TIP3    H143862   0.248   1.641   4.066
14639TIP3    H243863   0.107   1.694   4.044
14640TIP3   OH243864   6.857   4.743   1.274
14640TIP3    H143865   6.918   4.670   1.265
14640TIP3    H243866   6.864   4.769   1.366
14641TIP3   OH243867   6.598   2.353   5.904
14641TIP3    H143868   6.658   2.422   5.876
14641TIP3    H243869   6.512   2.395   5.906
14642TIP3   OH243870   8.053   1.411   0.652
14642TIP3    H143871   8.121   1.350   0.623
14642TIP3    H243872   8.101   1.491   0.674
14643TIP3   OH243873   6.905   4.687   1.551
14643TIP3    H143874   6.860   4.675   1.634
14643TIP3    H243875   6.997   4.698   1.575
14644TIP3   OH243876   0.879   5.217   6.030
14644TIP3    H143877   0.793   5.182   6.052
14644TIP3    H243878   0.939   5.175   6.091
14645TIP3   OH243879   6.338   5.770   5.449
14645TIP3    H143880   6.401   5.701   5.469
14645TIP3    H243881   6.335   5.823   5.528
14646TIP3   OH243882   0.807   1.648   4.140
14646TIP3    H143883   0.725   1.660   4.092
14646TIP3    H243884   0.779   1.636   4.231
14647TIP3   OH243885   3.090   6.815   0.443
14647TIP3    H143886   3.147   6.739   0.457
14647TIP3    H243887   3.097   6.865   0.524
14648TIP3   OH243888   1.549   2.120   3.746
14648TIP3    H143889   1.606   2.154   3.678
14648TIP3    H243890   1.581   2.159   3.827
14649TIP3   OH243891   7.369   0.197   4.214
14649TIP3    H143892   7.377   0.147   4.294
14649TIP3    H243893   7.440   0.166   4.158
14650TIP3   OH243894   2.969   5.386   6.096
14650TIP3    H143895   3.041   5.447   6.114
14650TIP3    H243896   2.910   5.395   6.171
14651TIP3   OH243897   4.169   4.158   1.174
14651TIP3    H143898   4.177   4.202   1.259
14651TIP3    H243899   4.087   4.191   1.138
14652TIP3   OH243900   2.481   5.284   3.813
14652TIP3    H143901   2.499   5.271   3.906
14652TIP3    H243902   2.386   5.292   3.807
14653TIP3   OH243903   1.900   4.466   5.084
14653TIP3    H143904   1.830   4.531   5.074
14653TIP3    H243905   1.922   4.441   4.995
14654TIP3   OH243906   7.137   5.193   1.390
14654TIP3    H143907   7.064   5.138   1.418
14654TIP3    H243908   7.119   5.278   1.430
14655TIP3   OH243909   3.290   3.771   1.221
14655TIP3    H143910   3.209   3.723   1.204
14655TIP3    H243911   3.360   3.712   1.195
14656TIP3   OH243912   7.035   2.102   2.800
14656TIP3    H143913   7.058   2.155   2.723
14656TIP3    H243914   7.030   2.013   2.766
14657TIP3   OH243915   5.209   2.687   6.761
14657TIP3    H143916   5.156   2.654   6.688
14657TIP3    H243917   5.201   2.782   6.756
14658TIP3   OH243918   2.477   1.382   0.024
14658TIP3    H143919   2.393   1.406  -0.014
14658TIP3    H243920   2.459   1.302   0.075
14659TIP3   OH243921   1.518   3.050   1.532
14659TIP3    H143922   1.426   3.074   1.531
14659TIP3    H243923   1.519   2.955   1.522
14660TIP3   OH243924   0.427   5.434   6.017
14660TIP3    H143925   0.458   5.524   6.012
14660TIP3    H243926   0.428   5.403   5.926
14661TIP3   OH243927   7.503   5.404   0.035
14661TIP3    H143928   7.490   5.334   0.099
14661TIP3    H243929   7.561   5.366  -0.030
14662TIP3   OH243930   6.231   6.203   1.738
14662TIP3    H143931   6.207   6.284   1.784
14662TIP3    H243932   6.299   6.164   1.792
14663TIP3   OH243933   0.161   4.018   2.526
14663TIP3    H143934   0.219   4.089   2.498
14663TIP3    H243935   0.181   4.006   2.619
14664TIP3   OH243936   5.806   4.144   0.587
14664TIP3    H143937   5.827   4.190   0.506
14664TIP3    H243938   5.853   4.192   0.655
14665TIP3   OH243939   3.007   4.380   3.832
14665TIP3    H143940   3.082   4.409   3.781
14665TIP3    H243941   2.970   4.307   3.783
14666TIP3   OH243942   8.288   4.650   1.570
14666TIP3    H143943   8.196   4.640   1.543
14666TIP3    H243944   8.338   4.625   1.493
14667TIP3   OH243945   2.548   1.272   3.636
14667TIP3    H143946   2.496   1.327   3.577
14667TIP3    H243947   2.589   1.333   3.697
14668TIP3   OH243948   7.096   7.111   4.743
14668TIP3    H143949   7.116   7.045   4.810
14668TIP3    H243950   7.001   7.114   4.740
14669TIP3   OH243951   7.700   6.628   2.001
14669TIP3    H143952   7.768   6.578   2.045
14669TIP3    H243953   7.624   6.620   2.058
14670TIP3   OH243954   2.992   6.542   1.438
14670TIP3    H143955   2.901   6.516   1.423
14670TIP3    H243956   3.041   6.460   1.435
14671TIP3   OH243957   7.539   6.886   5.888
14671TIP3    H143958   7.617   6.924   5.849
14671TIP3    H243959   7.476   6.881   5.816
14672TIP3   OH243960   6.842   1.548   5.063
14672TIP3    H143961   6.758   1.567   5.106
14672TIP3    H243962   6.906   1.552   5.134
14673TIP3   OH243963   1.478   0.837   5.496
14673TIP3    H143964   1.465   0.753   5.453
14673TIP3    H243965   1.389   0.866   5.520
14674TIP3   OH243966   5.377   7.647   1.583
14674TIP3    H143967   5.442   7.585   1.615
14674TIP3    H243968   5.294   7.600   1.586
14675TIP3   OH243969   5.427   4.064   4.534
14675TIP3    H143970   5.343   4.046   4.576
14675TIP3    H243971   5.467   3.978   4.522
14676TIP3   OH243972   3.630   1.419   1.486
14676TIP3    H143973   3.566   1.401   1.417
14676TIP3    H243974   3.715   1.409   1.444
14677TIP3   OH243975   5.386   3.317   6.159
14677TIP3    H143976   5.299   3.346   6.130
14677TIP3    H243977   5.446   3.360   6.099
14678TIP3   OH243978   1.288   0.235   6.109
14678TIP3    H143979   1.370   0.283   6.124
14678TIP3    H243980   1.224   0.304   6.089
14679TIP3   OH243981   2.172   1.743   3.017
14679TIP3    H143982   2.146   1.695   2.938
14679TIP3    H243983   2.120   1.823   3.015
14680TIP3   OH243984   1.083   0.778   2.492
14680TIP3    H143985   1.174   0.797   2.515
14680TIP3    H243986   1.039   0.863   2.500
14681TIP3   OH243987   4.129   1.855   0.741
14681TIP3    H143988   4.174   1.784   0.697
14681TIP3    H243989   4.106   1.820   0.827
14682TIP3   OH243990   2.122   0.904   2.171
14682TIP3    H143991   2.063   0.919   2.097
14682TIP3    H243992   2.148   0.992   2.199
14683TIP3   OH243993   6.516   7.782   5.893
14683TIP3    H143994   6.453   7.768   5.963
14683TIP3    H243995   6.601   7.789   5.937
14684TIP3   OH243996   0.410   5.108   5.553
14684TIP3    H143997   0.377   5.135   5.638
14684TIP3    H243998   0.452   5.024   5.569
14685TIP3   OH243999   5.227   7.415   5.132
14685TIP3    H144000   5.270   7.500   5.135
14685TIP3    H244001   5.245   7.376   5.217
14686TIP3   OH244002   0.974   6.543   4.074
14686TIP3    H144003   0.944   6.506   3.991
14686TIP3    H244004   1.041   6.607   4.048
14687TIP3   OH244005   6.556   0.339   6.136
14687TIP3    H144006   6.562   0.276   6.064
14687TIP3    H244007   6.503   0.411   6.100
14688TIP3   OH244008   0.886   3.802   0.564
14688TIP3    H144009   0.808   3.823   0.616
14688TIP3    H244010   0.877   3.708   0.545
14689TIP3   OH244011   0.941   0.214   5.039
14689TIP3    H144012   0.988   0.262   5.108
14689TIP3    H244013   0.936   0.124   5.072
14690TIP3   OH244014   6.673   5.087   2.074
14690TIP3    H144015   6.605   5.154   2.083
14690TIP3    H244016   6.649   5.020   2.138
14691TIP3   OH244017   4.199   2.626   4.473
14691TIP3    H144018   4.155   2.579   4.403
14691TIP3    H244019   4.241   2.558   4.526
14692TIP3   OH244020   1.938   4.908   1.470
14692TIP3    H144021   1.928   4.969   1.543
14692TIP3    H244022   1.984   4.833   1.508
14693TIP3   OH244023   7.030   0.669   1.266
14693TIP3    H144024   7.074   0.599   1.313
14693TIP3    H244025   7.100   0.715   1.220
14694TIP3   OH244026   5.025   2.271   0.207
14694TIP3    H144027   4.974   2.203   0.163
14694TIP3    H244028   4.981   2.352   0.185
14695TIP3   OH244029   5.204   2.352   2.259
14695TIP3    H144030   5.147   2.371   2.333
14695TIP3    H244031   5.166   2.401   2.186
14696TIP3   OH244032   4.287   2.293   1.775
14696TIP3    H144033   4.314   2.221   1.833
14696TIP3    H244034   4.363   2.309   1.720
14697TIP3   OH244035   0.996   6.769   1.842
14697TIP3    H144036   0.927   6.813   1.892
14697TIP3    H244037   1.044   6.840   1.800
14698TIP3   OH244038   1.348   7.253   6.098
14698TIP3    H144039   1.349   7.335   6.146
14698TIP3    H244040   1.432   7.212   6.119
14699TIP3   OH244041   4.851   5.965   6.578
14699TIP3    H144042   4.869   5.937   6.668
14699TIP3    H244043   4.914   6.036   6.562
14700TIP3   OH244044   0.912   5.407   2.156
14700TIP3    H144045   0.876   5.478   2.209
14700TIP3    H244046   0.994   5.383   2.200
14701TIP3   OH244047   6.237   4.470   0.748
14701TIP3    H144048   6.317   4.464   0.800
14701TIP3    H244049   6.216   4.563   0.747
14702TIP3   OH244050   1.288   1.063   1.316
14702TIP3    H144051   1.221   1.074   1.249
14702TIP3    H244052   1.347   1.137   1.303
14703TIP3   OH244053   2.854   0.011   6.312
14703TIP3    H144054   2.941   0.051   6.314
14703TIP3    H244055   2.822   0.029   6.224
14704TIP3   OH244056   2.308   7.440   0.632
14704TIP3    H144057   2.299   7.420   0.539
14704TIP3    H244058   2.397   7.414   0.654
14705TIP3   OH244059   1.075   4.640   6.077
14705TIP3    H144060   1.083   4.545   6.083
14705TIP3    H244061   1.145   4.666   6.017
14706TIP3   OH244062   3.720   7.396   5.151
14706TIP3    H144063   3.812   7.412   5.171
14706TIP3    H244064   3.675   7.407   5.235
14707TIP3   OH244065   1.088   5.265   5.388
14707TIP3    H144066   1.130   5.178   5.381
14707TIP3    H244067   1.084   5.282   5.482
14708TIP3   OH244068   7.513   2.483   4.916
14708TIP3    H144069   7.440   2.523   4.869
14708TIP3    H244070   7.505   2.516   5.006
14709TIP3   OH244071   2.060   1.423   3.808
14709TIP3    H144072   2.100   1.340   3.835
14709TIP3    H244073   2.091   1.486   3.873
14710TIP3   OH244074   5.945   2.278   0.950
14710TIP3    H144075   6.031   2.257   0.984
14710TIP3    H244076   5.885   2.219   0.996
14711TIP3   OH244077   4.487   6.849   2.321
14711TIP3    H144078   4.513   6.840   2.412
14711TIP3    H244079   4.559   6.811   2.270
14712TIP3   OH244080   6.076   0.992   2.463
14712TIP3    H144081   6.099   0.980   2.371
14712TIP3    H244082   5.983   1.015   2.462
14713TIP3   OH244083   7.931   0.958   2.204
14713TIP3    H144084   7.925   1.051   2.226
14713TIP3    H244085   7.841   0.932   2.183
14714TIP3   OH244086   6.567   5.895   1.621
14714TIP3    H144087   6.542   5.822   1.565
14714TIP3    H244088   6.516   5.882   1.701
14715TIP3   OH244089   2.231   5.973   2.796
14715TIP3    H144090   2.243   6.034   2.723
14715TIP3    H244091   2.145   5.996   2.832
14716TIP3   OH244092   1.697   7.479   4.490
14716TIP3    H144093   1.724   7.434   4.570
14716TIP3    H244094   1.774   7.530   4.464
14717TIP3   OH244095   4.148   6.084   0.586
14717TIP3    H144096   4.146   6.006   0.641
14717TIP3    H244097   4.077   6.139   0.619
14718TIP3   OH244098   4.077   5.358   1.657
14718TIP3    H144099   4.166   5.390   1.662
14718TIP3    H244100   4.072   5.315   1.571
14719TIP3   OH244101   4.394   7.734   2.376
14719TIP3    H144102   4.390   7.697   2.464
14719TIP3    H244103   4.321   7.796   2.372
14720TIP3   OH244104   8.090   3.685   0.089
14720TIP3    H144105   8.110   3.778   0.077
14720TIP3    H244106   7.996   3.678   0.071
14721TIP3   OH244107   8.029   3.142   1.597
14721TIP3    H144108   7.955   3.195   1.626
14721TIP3    H244109   8.105   3.199   1.609
14722TIP3   OH244110   1.062   1.811   4.154
14722TIP3    H144111   1.008   1.737   4.180
14722TIP3    H244112   1.005   1.888   4.167
14723TIP3   OH244113   1.288   1.334   1.725
14723TIP3    H144114   1.237   1.333   1.805
14723TIP3    H244115   1.241   1.275   1.666
14724TIP3   OH244116   7.093   2.661   3.916
14724TIP3    H144117   7.059   2.665   3.827
14724TIP3    H244118   7.156   2.733   3.922
14725TIP3   OH244119   3.405   2.445   4.162
14725TIP3    H144120   3.426   2.520   4.218
14725TIP3    H244121   3.463   2.454   4.087
14726TIP3   OH244122   0.529   7.657   4.619
14726TIP3    H144123   0.598   7.722   4.605
14726TIP3    H244124   0.448   7.707   4.612
14727TIP3   OH244125   7.669   4.220   1.390
14727TIP3    H144126   7.737   4.154   1.372
14727TIP3    H244127   7.587   4.173   1.382
14728TIP3   OH244128   1.201   1.121   5.104
14728TIP3    H144129   1.236   1.045   5.149
14728TIP3    H244130   1.215   1.194   5.165
14729TIP3   OH244131   3.677   5.481   0.915
14729TIP3    H144132   3.682   5.426   0.993
14729TIP3    H244133   3.711   5.427   0.844
14730TIP3   OH244134   4.739   1.743   0.297
14730TIP3    H144135   4.646   1.764   0.306
14730TIP3    H244136   4.769   1.727   0.386
14731TIP3   OH244137   4.760   4.969   4.294
14731TIP3    H144138   4.784   4.953   4.385
14731TIP3    H244139   4.739   4.883   4.259
14732TIP3   OH244140   8.090   0.638   5.332
14732TIP3    H144141   8.063   0.726   5.359
14732TIP3    H244142   8.186   0.640   5.339
14733TIP3   OH244143   3.386   3.975   5.221
14733TIP3    H144144   3.404   3.942   5.133
14733TIP3    H244145   3.319   4.042   5.209
14734TIP3   OH244146   6.633   6.284   0.878
14734TIP3    H144147   6.611   6.352   0.813
14734TIP3    H244148   6.647   6.332   0.959
14735TIP3   OH244149   3.596   6.182   1.760
14735TIP3    H144150   3.501   6.184   1.751
14735TIP3    H244151   3.625   6.114   1.699
14736TIP3   OH244152   0.006   2.083   1.479
14736TIP3    H144153  -0.011   2.036   1.397
14736TIP3    H244154   0.085   2.041   1.514
14737TIP3   OH244155   1.436   5.363   2.277
14737TIP3    H144156   1.473   5.292   2.224
14737TIP3    H244157   1.362   5.396   2.226
14738TIP3   OH244158   5.590   0.030   1.454
14738TIP3    H144159   5.511   0.053   1.405
14738TIP3    H244160   5.562   0.030   1.546
14739TIP3   OH244161   5.805   0.658   0.472
14739TIP3    H144162   5.843   0.647   0.560
14739TIP3    H244163   5.737   0.725   0.484
14740TIP3   OH244164   0.252   6.199   2.733
14740TIP3    H144165   0.260   6.279   2.681
14740TIP3    H244166   0.341   6.180   2.762
14741TIP3   OH244167   3.926   0.122   0.315
14741TIP3    H144168   3.956   0.205   0.352
14741TIP3    H244169   3.830   0.130   0.314
14742TIP3   OH244170   7.969   3.366   3.468
14742TIP3    H144171   8.018   3.382   3.387
14742TIP3    H244172   7.954   3.271   3.469
14743TIP3   OH244173   4.701   5.067   3.448
14743TIP3    H144174   4.636   5.002   3.421
14743TIP3    H244175   4.755   5.023   3.514
14744TIP3   OH244176   2.175   5.731   6.552
14744TIP3    H144177   2.087   5.723   6.513
14744TIP3    H244178   2.232   5.683   6.491
14745TIP3   OH244179   0.822   3.952   3.132
14745TIP3    H144180   0.894   4.013   3.148
14745TIP3    H244181   0.751   3.981   3.189
14746TIP3   OH244182   7.176   2.175   4.263
14746TIP3    H144183   7.100   2.163   4.319
14746TIP3    H244184   7.184   2.092   4.215
14747TIP3   OH244185   0.662   6.136   6.772
14747TIP3    H144186   0.710   6.148   6.690
14747TIP3    H244187   0.582   6.091   6.747
14748TIP3   OH244188   3.025   6.155   4.581
14748TIP3    H144189   3.076   6.173   4.502
14748TIP3    H244190   3.086   6.170   4.653
14749TIP3   OH244191   3.612   4.895   5.193
14749TIP3    H144192   3.535   4.950   5.206
14749TIP3    H244193   3.613   4.837   5.270
14750TIP3   OH244194   8.255   3.530   4.653
14750TIP3    H144195   8.240   3.455   4.711
14750TIP3    H244196   8.349   3.531   4.637
14751TIP3   OH244197   5.327   6.334   4.176
14751TIP3    H144198   5.310   6.245   4.209
14751TIP3    H244199   5.412   6.328   4.134
14752TIP3   OH244200   4.817   6.773   0.974
14752TIP3    H144201   4.725   6.789   0.951
14752TIP3    H244202   4.814   6.706   1.042
14753TIP3   OH244203   1.358   4.586   4.321
14753TIP3    H144204   1.420   4.520   4.290
14753TIP3    H244205   1.284   4.535   4.355
14754TIP3   OH244206   4.155   1.425   6.171
14754TIP3    H144207   4.096   1.363   6.128
14754TIP3    H244208   4.230   1.372   6.198
14755TIP3   OH244209   1.177   5.869   1.161
14755TIP3    H144210   1.208   5.894   1.074
14755TIP3    H244211   1.083   5.857   1.151
14756TIP3   OH244212   8.062   0.481   1.226
14756TIP3    H144213   8.039   0.394   1.259
14756TIP3    H244214   8.133   0.465   1.164
14757TIP3   OH244215   7.648   5.979   4.502
14757TIP3    H144216   7.644   5.915   4.573
14757TIP3    H244217   7.598   5.939   4.431
14758TIP3   OH244218   7.250   6.590   6.257
14758TIP3    H144219   7.282   6.627   6.339
14758TIP3    H244220   7.217   6.504   6.280
14759TIP3   OH244221   4.265   2.798   6.559
14759TIP3    H144222   4.239   2.783   6.468
14759TIP3    H244223   4.241   2.716   6.604
14760TIP3   OH244224   1.231   0.290   6.438
14760TIP3    H144225   1.222   0.385   6.449
14760TIP3    H244226   1.319   0.271   6.470
14761TIP3   OH244227   7.049   7.017   3.322
14761TIP3    H144228   7.056   6.927   3.354
14761TIP3    H244229   7.021   7.008   3.231
14762TIP3   OH244230   0.709   7.499   5.089
14762TIP3    H144231   0.735   7.553   5.015
14762TIP3    H244232   0.658   7.427   5.050
14763TIP3   OH244233   7.226   5.315   2.082
14763TIP3    H144234   7.178   5.398   2.081
14763TIP3    H244235   7.301   5.329   2.025
14764TIP3   OH244236   4.286   5.772   2.859
14764TIP3    H144237   4.234   5.695   2.836
14764TIP3    H244238   4.254   5.840   2.800
14765TIP3   OH244239   0.643   1.989   1.629
14765TIP3    H144240   0.627   1.971   1.722
14765TIP3    H244241   0.557   2.009   1.593
14766TIP3   OH244242   0.591   6.274   4.012
14766TIP3    H144243   0.684   6.297   4.017
14766TIP3    H244244   0.579   6.243   3.923
14767TIP3   OH244245   3.799   6.357   1.308
14767TIP3    H144246   3.732   6.395   1.250
14767TIP3    H244247   3.757   6.355   1.394
14768TIP3   OH244248   5.220   0.489   1.639
14768TIP3    H144249   5.280   0.440   1.695
14768TIP3    H244250   5.252   0.473   1.550
14769TIP3   OH244251   4.902   3.084   4.031
14769TIP3    H144252   4.976   3.132   3.994
14769TIP3    H244253   4.825   3.134   4.004
14770TIP3   OH244254   1.689   4.164   1.595
14770TIP3    H144255   1.709   4.088   1.541
14770TIP3    H244256   1.647   4.226   1.536
14771TIP3   OH244257   5.091   1.192   4.470
14771TIP3    H144258   5.077   1.284   4.449
14771TIP3    H244259   5.027   1.172   4.539
14772TIP3   OH244260   1.706   1.443   2.248
14772TIP3    H144261   1.727   1.389   2.324
14772TIP3    H244262   1.738   1.530   2.270
14773TIP3   OH244263   0.615   4.983   6.632
14773TIP3    H144264   0.637   4.892   6.610
14773TIP3    H244265   0.616   4.985   6.728
14774TIP3   OH244266   3.727   7.101   1.503
14774TIP3    H144267   3.663   7.041   1.541
14774TIP3    H244268   3.812   7.061   1.523
14775TIP3   OH244269   0.382   5.820   2.746
14775TIP3    H144270   0.417   5.908   2.733
14775TIP3    H244271   0.452   5.773   2.792
14776TIP3   OH244272   0.155   0.218   6.674
14776TIP3    H144273   0.128   0.186   6.587
14776TIP3    H244274   0.208   0.147   6.710
14777TIP3   OH244275   5.232   7.307   4.886
14777TIP3    H144276   5.217   7.357   4.967
14777TIP3    H244277   5.320   7.332   4.858
14778TIP3   OH244278   0.960   4.663   0.966
14778TIP3    H144279   0.969   4.619   0.882
14778TIP3    H244280   0.980   4.595   1.031
14779TIP3   OH244281   6.695   2.675   4.069
14779TIP3    H144282   6.626   2.609   4.075
14779TIP3    H244283   6.650   2.758   4.078
14780TIP3   OH244284   1.329   0.861   2.590
14780TIP3    H144285   1.306   0.902   2.673
14780TIP3    H244286   1.420   0.833   2.602
14781TIP3   OH244287   0.092   7.652   5.570
14781TIP3    H144288   0.179   7.674   5.537
14781TIP3    H244289   0.045   7.735   5.568
14782TIP3   OH244290   5.914   2.128   2.977
14782TIP3    H144291   5.882   2.123   3.068
14782TIP3    H244292   5.855   2.191   2.935
14783TIP3   OH244293   4.626   1.640   2.334
14783TIP3    H144294   4.592   1.729   2.327
14783TIP3    H244295   4.595   1.596   2.254
14784TIP3   OH244296   0.047   6.006   0.199
14784TIP3    H144297   0.019   6.092   0.167
14784TIP3    H244298   0.020   6.005   0.290
14785TIP3   OH244299   6.739   7.406   0.578
14785TIP3    H144300   6.711   7.436   0.665
14785TIP3    H244301   6.680   7.451   0.517
14786TIP3   OH244302   4.211   6.726   4.559
14786TIP3    H144303   4.118   6.717   4.577
14786TIP3    H244304   4.252   6.657   4.610
14787TIP3   OH244305   4.366   0.266   3.401
14787TIP3    H144306   4.419   0.271   3.481
14787TIP3    H244307   4.276   0.271   3.432
14788TIP3   OH244308   1.602   0.785   2.007
14788TIP3    H144309   1.524   0.746   2.047
14788TIP3    H244310   1.627   0.855   2.068
14789TIP3   OH244311   8.187   0.258   1.476
14789TIP3    H144312   8.213   0.170   1.449
14789TIP3    H244313   8.094   0.263   1.454
14790TIP3   OH244314   5.509   7.026   0.572
14790TIP3    H144315   5.533   6.957   0.635
14790TIP3    H244316   5.571   7.014   0.500
14791TIP3   OH244317   5.197   3.357   4.598
14791TIP3    H144318   5.286   3.322   4.590
14791TIP3    H244319   5.202   3.422   4.668
14792TIP3   OH244320   7.226   6.266   0.069
14792TIP3    H144321   7.309   6.243   0.028
14792TIP3    H244322   7.249   6.331   0.136
14793TIP3   OH244323   6.054   3.993   4.222
14793TIP3    H144324   5.959   3.986   4.234
14793TIP3    H244325   6.091   3.953   4.301
14794TIP3   OH244326   0.596   3.796   5.936
14794TIP3    H144327   0.690   3.800   5.918
14794TIP3    H244328   0.557   3.854   5.871
14795TIP3   OH244329   2.070   3.494   0.753
14795TIP3    H144330   2.166   3.488   0.753
14795TIP3    H244331   2.046   3.496   0.846
14796TIP3   OH244332   1.142   6.182   4.345
14796TIP3    H144333   1.139   6.277   4.358
14796TIP3    H244334   1.144   6.171   4.250
14797TIP3   OH244335   1.899   1.126   5.656
14797TIP3    H144336   1.847   1.205   5.666
14797TIP3    H244337   1.835   1.055   5.656
14798TIP3   OH244338   5.894   4.378   4.761
14798TIP3    H144339   5.869   4.319   4.690
14798TIP3    H244340   5.990   4.381   4.757
14799TIP3   OH244341   7.381   7.661   1.063
14799TIP3    H144342   7.378   7.684   1.156
14799TIP3    H244343   7.475   7.663   1.042
14800TIP3   OH244344   4.361   4.475   1.823
14800TIP3    H144345   4.396   4.406   1.766
14800TIP3    H244346   4.344   4.548   1.764
14801TIP3   OH244347   0.484   3.527   0.459
14801TIP3    H144348   0.456   3.513   0.369
14801TIP3    H244349   0.528   3.446   0.483
14802TIP3   OH244350   2.255   4.058   2.351
14802TIP3    H144351   2.332   4.110   2.373
14802TIP3    H244352   2.202   4.116   2.296
14803TIP3   OH244353   5.238   3.927   0.281
14803TIP3    H144354   5.306   3.974   0.330
14803TIP3    H244355   5.282   3.894   0.203
14804TIP3   OH244356   6.359   6.226   6.508
14804TIP3    H144357   6.287   6.281   6.478
14804TIP3    H244358   6.326   6.137   6.500
14805TIP3   OH244359   2.797   6.630   0.126
14805TIP3    H144360   2.772   6.722   0.126
14805TIP3    H244361   2.767   6.596   0.042
14806TIP3   OH244362   8.269   5.047   3.536
14806TIP3    H144363   8.182   5.049   3.576
14806TIP3    H244364   8.272   4.964   3.488
14807TIP3   OH244365   1.498   2.335   1.449
14807TIP3    H144366   1.554   2.330   1.371
14807TIP3    H244367   1.556   2.367   1.518
14808TIP3   OH244368   4.615   5.875   3.570
14808TIP3    H144369   4.571   5.823   3.638
14808TIP3    H244370   4.707   5.875   3.596
14809TIP3   OH244371   5.287   4.690   4.533
14809TIP3    H144372   5.314   4.605   4.567
14809TIP3    H244373   5.369   4.730   4.503
14810TIP3   OH244374   0.503   1.284   2.002
14810TIP3    H144375   0.595   1.297   1.981
14810TIP3    H244376   0.477   1.208   1.950
14811TIP3   OH244377   4.595   0.965   0.368
14811TIP3    H144378   4.585   0.979   0.462
14811TIP3    H244379   4.618   1.051   0.332
14812TIP3   OH244380   0.669   0.285   3.031
14812TIP3    H144381   0.758   0.303   3.062
14812TIP3    H244382   0.680   0.263   2.939
14813TIP3   OH244383   7.226   1.005   5.500
14813TIP3    H144384   7.159   1.019   5.433
14813TIP3    H244385   7.274   1.088   5.503
14814TIP3   OH244386   2.919   3.038   4.016
14814TIP3    H144387   2.870   2.972   4.065
14814TIP3    H244388   3.007   3.035   4.053
14815TIP3   OH244389   7.147   2.562   1.810
14815TIP3    H144390   7.241   2.563   1.793
14815TIP3    H244391   7.129   2.644   1.855
14816TIP3   OH244392   1.125   3.136   5.938
14816TIP3    H144393   1.191   3.147   5.870
14816TIP3    H244394   1.175   3.109   6.016
14817TIP3   OH244395   1.096   0.707   0.798
14817TIP3    H144396   1.155   0.652   0.746
14817TIP3    H244397   1.074   0.780   0.740
14818TIP3   OH244398   3.042  -0.017   1.227
14818TIP3    H144399   2.969   0.034   1.264
14818TIP3    H244400   3.119   0.038   1.242
14819TIP3   OH244401   1.540   2.489   1.721
14819TIP3    H144402   1.506   2.445   1.799
14819TIP3    H244403   1.572   2.573   1.752
14820TIP3   OH244404   5.512   1.039   3.428
14820TIP3    H144405   5.567   0.970   3.465
14820TIP3    H244406   5.575   1.104   3.395
14821TIP3   OH244407   0.104   6.837   3.937
14821TIP3    H144408   0.014   6.828   3.968
14821TIP3    H244409   0.120   6.931   3.937
14822TIP3   OH244410   1.345   2.940   1.918
14822TIP3    H144411   1.254   2.920   1.940
14822TIP3    H244412   1.346   2.944   1.822
14823TIP3   OH244413   4.127   3.070   5.492
14823TIP3    H144414   4.063   3.128   5.534
14823TIP3    H244415   4.212   3.106   5.518
14824TIP3   OH244416   4.867   6.584   3.038
14824TIP3    H144417   4.923   6.662   3.047
14824TIP3    H244418   4.830   6.592   2.950
14825TIP3   OH244419   6.746   4.349   4.423
14825TIP3    H144420   6.662   4.367   4.465
14825TIP3    H244421   6.788   4.286   4.481
14826TIP3   OH244422   3.493   2.880   1.144
14826TIP3    H144423   3.570   2.868   1.200
14826TIP3    H244424   3.432   2.931   1.198
14827TIP3   OH244425   7.484   0.155   2.977
14827TIP3    H144426   7.500   0.185   2.888
14827TIP3    H244427   7.568   0.166   3.022
14828TIP3   OH244428   3.895   4.088   1.852
14828TIP3    H144429   3.974   4.073   1.801
14828TIP3    H244430   3.847   4.005   1.849
14829TIP3   OH244431   2.984   2.044   5.925
14829TIP3    H144432   2.909   2.103   5.934
14829TIP3    H244433   2.950   1.959   5.953
14830TIP3   OH244434   3.946   6.266   0.517
14830TIP3    H144435   3.857   6.232   0.523
14830TIP3    H244436   3.987   6.214   0.447
14831TIP3   OH244437   0.527   4.528   1.809
14831TIP3    H144438   0.582   4.544   1.733
14831TIP3    H244439   0.473   4.607   1.817
14832TIP3   OH244440   3.429   6.836   4.480
14832TIP3    H144441   3.458   6.849   4.571
14832TIP3    H244442   3.402   6.745   4.476
14833TIP3   OH244443   5.389   2.059   5.181
14833TIP3    H144444   5.467   2.114   5.186
14833TIP3    H244445   5.359   2.069   5.090
14834TIP3   OH244446   1.203   5.462   0.383
14834TIP3    H144447   1.276   5.519   0.404
14834TIP3    H244448   1.180   5.420   0.466
14835TIP3   OH244449   0.161   5.254   4.625
14835TIP3    H144450   0.146   5.191   4.554
14835TIP3    H244451   0.099   5.229   4.693
14836TIP3   OH244452   2.121   1.400   2.923
14836TIP3    H144453   2.213   1.389   2.946
14836TIP3    H244454   2.078   1.323   2.959
14837TIP3   OH244455   2.659   6.217   0.127
14837TIP3    H144456   2.665   6.133   0.080
14837TIP3    H244457   2.732   6.268   0.094
14838TIP3   OH244458   8.001   6.147   1.983
14838TIP3    H144459   7.920   6.096   1.985
14838TIP3    H244460   8.068   6.084   1.956
14839TIP3   OH244461   0.354   5.564   0.953
14839TIP3    H144462   0.438   5.610   0.948
14839TIP3    H244463   0.351   5.511   0.873
   8.30193   7.82714   6.77849   0.00000   0.00000  -2.76731   0.00000  -2.76731  -3.91357
