Title
29212
    1ASP      N    1   3.263   3.129   1.766 -0.0387 -0.5244  0.3289
    1ASP    HT1    2   3.215   3.173   1.847 -2.4624 -1.1850 -0.6453
    1ASP    HT2    3   3.272   3.202   1.692 -1.9013  0.8525  1.3850
    1ASP    HT3    4   3.355   3.088   1.791 -0.2438 -2.4956 -1.7513
    1ASP     CA    5   3.202   2.998   1.713  0.1783 -0.8925  0.2371
    1ASP     HA    6   3.109   3.026   1.665 -0.1511  0.0687  1.3769
    1ASP     CB    7   3.300   2.929   1.611 -0.4925  0.4906  0.1252
    1ASP    HB1    8   3.240   2.851   1.560 -0.2172  1.5492 -1.9038
    1ASP    HB2    9   3.399   2.898   1.650  0.5932  2.8427 -0.5641
    1ASP     CG   10   3.331   3.016   1.493 -0.0473 -0.3130  0.2953
    1ASP    OD1   11   3.271   3.127   1.476 -0.0296 -0.2786  0.3993
    1ASP    OD2   12   3.409   2.976   1.406  0.2977  0.0204  0.0120
    1ASP      C   13   3.157   2.907   1.822  0.1257 -0.1695  0.3863
    1ASP      O   14   3.144   2.940   1.940 -0.8851  0.2072  0.0801
    2GLY      N   15   3.120   2.782   1.774  0.4286  0.5870 -0.3301
    2GLY     HN   16   3.121   2.760   1.677  0.6994  0.0387 -0.2084
    2GLY     CA   17   3.083   2.676   1.873 -0.1362 -0.0707  0.1777
    2GLY    HA1   18   3.091   2.585   1.814  1.3301  0.8533 -1.1343
    2GLY    HA2   19   2.985   2.691   1.915  0.1895  0.0548  0.8953
    2GLY      C   20   3.175   2.649   1.991 -0.5566  0.6262  0.2899
    2GLY      O   21   3.285   2.706   1.999  0.0744 -0.7382  1.2448
    3ASP      N   22   3.131   2.573   2.083 -0.6059  0.5972  0.2818
    3ASP     HN   23   3.038   2.539   2.074 -0.5985  0.9266 -1.2266
    3ASP     CA   24   3.206   2.521   2.194  0.7587 -1.1066  0.0385
    3ASP     HA   25   3.244   2.605   2.250  1.2859 -1.2198 -0.1446
    3ASP     CB   26   3.130   2.431   2.298  0.7734  0.1709 -0.0989
    3ASP    HB1   27   3.197   2.388   2.375  0.7116  2.5626  1.3712
    3ASP    HB2   28   3.076   2.349   2.245  2.9850 -2.1807  1.0743
    3ASP     CG   29   3.021   2.510   2.366  0.2239 -0.2770 -0.7363
    3ASP    OD1   30   3.026   2.631   2.376  0.0552 -0.2535  0.4615
    3ASP    OD2   31   2.938   2.447   2.438 -0.1926 -0.6441 -0.2448
    3ASP      C   32   3.324   2.431   2.150  0.3076 -0.0499 -0.1663
    3ASP      O   33   3.304   2.345   2.060 -0.4176 -0.7670  0.0221
    4GLY      N   34   3.440   2.441   2.215 -0.2270  0.2298  0.0864
    4GLY     HN   35   3.441   2.508   2.289 -0.2123  0.4949 -0.1522
    4GLY     CA   36   3.556   2.354   2.214 -0.4898 -0.0350 -0.3014
    4GLY    HA1   37   3.619   2.394   2.293 -0.4551  0.9173 -0.8026
    4GLY    HA2   38   3.600   2.359   2.116  0.4730 -1.9293 -0.0044
    4GLY      C   39   3.544   2.208   2.251  0.0826 -0.3150 -0.3925
    4GLY      O   40   3.435   2.165   2.288  0.2233 -0.0411 -0.3752
    5PRO      N   41   3.656   2.140   2.260  0.1510  0.1658 -0.3094
    5PRO     CD   42   3.791   2.191   2.235  0.2175  0.5738  0.0814
    5PRO    HD1   43   3.813   2.278   2.300 -0.8742  1.3341 -0.5275
    5PRO    HD2   44   3.802   2.229   2.131 -0.2709  0.2774 -0.0830
    5PRO     CA   45   3.660   1.992   2.253  0.4419  0.1699 -0.3437
    5PRO     HA   46   3.573   1.965   2.195 -0.3478  0.1904  0.7931
    5PRO     CB   47   3.798   1.951   2.212 -0.2634  0.1282  0.1524
    5PRO    HB1   48   3.811   1.946   2.102  0.9842  2.1533  0.1393
    5PRO    HB2   49   3.829   1.854   2.256 -1.8765 -0.6577 -0.3641
    5PRO     CG   50   3.885   2.073   2.260  0.6211  0.0704 -0.2728
    5PRO    HG1   51   3.892   2.062   2.370  1.0052 -0.7926 -0.3799
    5PRO    HG2   52   3.989   2.067   2.220  1.1246 -1.3583  1.1313
    5PRO      C   53   3.634   1.929   2.390 -0.0479 -0.3381  0.7915
    5PRO      O   54   3.624   1.804   2.400 -0.3083  0.0903 -0.3974
    6GLY      N   55   3.638   2.006   2.502  0.5894  0.2592  0.1773
    6GLY     HN   56   3.665   2.100   2.484  1.2107 -0.0508 -0.6034
    6GLY     CA   57   3.617   1.960   2.638 -0.7560 -0.4368  0.3114
    6GLY    HA1   58   3.645   2.047   2.695  1.6466 -0.1893 -1.1054
    6GLY    HA2   59   3.680   1.875   2.659 -1.4815 -0.8649  0.8033
    6GLY      C   60   3.480   1.920   2.671  0.8747 -0.6502  0.4176
    6GLY      O   61   3.394   1.889   2.587 -0.4149 -0.2872 -0.0565
    7ASP      N   62   3.453   1.907   2.800 -0.3825  0.6426  0.5894
    7ASP     HN   63   3.527   1.924   2.864  1.0419  1.1532 -1.1118
    7ASP     CA   64   3.327   1.868   2.851  0.7980  0.0732  0.1611
    7ASP     HA   65   3.284   1.805   2.775 -0.1171 -0.4483  1.0803
    7ASP     CB   66   3.363   1.790   2.988  0.3009 -0.5284 -0.1801
    7ASP    HB1   67   3.278   1.775   3.058 -0.7222  0.5068 -1.1502
    7ASP    HB2   68   3.446   1.842   3.040  1.3694 -1.3571 -1.0115
    7ASP     CG   69   3.404   1.646   2.965 -0.3285 -0.1720 -0.1255
    7ASP    OD1   70   3.479   1.595   3.047 -0.4072  0.4018  0.2091
    7ASP    OD2   71   3.345   1.585   2.874 -0.1642  0.3813  0.0241
    7ASP      C   72   3.227   1.979   2.881  0.1677  0.1148  0.2858
    7ASP      O   73   3.267   2.096   2.879  0.3622  0.1583 -0.3552
    8PRO      N   74   3.091   1.952   2.899 -0.5829 -0.7977  0.2961
    8PRO     CD   75   3.037   1.817   2.900 -0.1166  0.6108  0.1508
    8PRO    HD1   76   3.073   1.760   2.988 -0.2433  0.7719  0.3059
    8PRO    HD2   77   3.071   1.760   2.810  0.8480  0.4494  0.5976
    8PRO     CA   78   2.998   2.047   2.968 -0.0933 -0.5552  0.5122
    8PRO     HA   79   2.983   2.121   2.891  1.0812  2.9325  3.3297
    8PRO     CB   80   2.875   1.957   3.005 -0.8673 -0.2364  0.4745
    8PRO    HB1   81   2.782   2.018   2.998 -0.2644  0.9448  2.2068
    8PRO    HB2   82   2.877   1.917   3.109  0.4836 -1.8242 -0.1164
    8PRO     CG   83   2.889   1.840   2.896  0.7164 -0.1918 -0.3155
    8PRO    HG1   84   2.830   1.748   2.915  1.0854 -0.1243  1.3087
    8PRO    HG2   85   2.865   1.871   2.792  0.4195 -1.1065 -0.5363
    8PRO      C   86   3.044   2.139   3.077 -0.1469 -0.6487 -1.0441
    8PRO      O   87   3.123   2.099   3.167  0.1429 -0.5375  0.5003
    9GLY      N   88   2.993   2.268   3.078  0.3916  0.0586  0.1868
    9GLY     HN   89   2.929   2.292   3.006  0.0306  2.5138  1.2521
    9GLY     CA   90   3.035   2.371   3.168  0.0478  0.7675  0.6660
    9GLY    HA1   91   2.975   2.455   3.136 -1.4524 -0.4353  0.1775
    9GLY    HA2   92   3.141   2.387   3.164  0.3927 -1.4397 -1.8410
    9GLY      C   93   2.995   2.349   3.315  0.2204 -0.0878  0.3502
    9GLY      O   94   2.949   2.244   3.359  1.2844  0.1551  0.3917
   10ASP      N   95   3.002   2.456   3.402 -0.3734 -0.0895 -0.0074
   10ASP     HN   96   3.027   2.548   3.374 -3.1867  0.5440 -0.7516
   10ASP     CA   97   2.968   2.448   3.543  0.2791  0.1229  0.7745
   10ASP     HA   98   2.992   2.351   3.583  0.6438 -0.2189 -0.2245
   10ASP     CB   99   3.023   2.565   3.622 -0.2395  0.5074  0.1668
   10ASP    HB1  100   2.973   2.583   3.720 -1.9101  1.0352 -0.7341
   10ASP    HB2  101   3.017   2.657   3.561 -0.0718  0.1620 -0.3692
   10ASP     CG  102   3.168   2.541   3.648 -0.0979  0.1101 -0.6560
   10ASP    OD1  103   3.214   2.426   3.649 -0.1038  0.1260 -0.7161
   10ASP    OD2  104   3.241   2.640   3.673 -0.6067  0.8916  0.1883
   10ASP      C  105   2.816   2.451   3.560 -0.5435 -1.3581 -0.7037
   10ASP      O  106   2.743   2.510   3.470 -0.2022 -0.4712 -0.1904
   11GLY      N  107   2.765   2.387   3.663 -0.3366 -0.2000 -0.1918
   11GLY     HN  108   2.819   2.320   3.714 -1.4476 -1.0254 -0.0661
   11GLY     CA  109   2.620   2.374   3.690  0.7969  0.2463  0.7280
   11GLY    HA1  110   2.580   2.281   3.651  0.1712  0.1417  1.5838
   11GLY    HA2  111   2.572   2.464   3.654  1.3697  0.5349  0.6861
   11GLY      C  112   2.603   2.353   3.837  0.2048 -0.6136  0.6323
   11GLY    OT1  113   2.699   2.311   3.899 -0.1551  0.3832  0.0533
   11GLY    OT2  114   2.492   2.393   3.887 -0.2656 -0.2549 -0.2910
   12SOD    SOD  115   4.917   0.628   2.250  0.5207  0.4709  0.1108
   13SOD    SOD  116   4.809   3.113   5.546  0.0635  0.0303 -0.0990
   14SOD    SOD  117   3.513   5.135   4.616 -0.1793  0.1430  0.2301
   15SOD    SOD  118   1.450   0.883   2.888 -0.5317 -0.0257 -0.1090
   16SOD    SOD  119   6.079   2.442   1.541 -0.0553 -0.1043 -0.3635
   17SOD    SOD  120   5.093   5.529   5.293  0.1895  0.4577  0.1242
   18SOD    SOD  121   2.236   4.925   4.357 -0.3209  0.1488  0.0197
   19SOD    SOD  122   3.901   0.704   1.597 -0.0398  0.4178  0.1087
   20SOD    SOD  123   1.069   1.024   4.389  0.2249  0.0694 -0.2420
   21SOD    SOD  124   4.263   2.479   3.850 -0.2592  0.6563 -0.1535
   22SOD    SOD  125   4.267   6.373   1.053 -0.3552  0.2456 -0.0409
   23SOD    SOD  126   4.569   3.603   4.053 -0.4547 -0.1769 -0.4744
   24SOD    SOD  127   3.242   4.214   2.425 -0.1322 -0.6512  0.1152
   25SOD    SOD  128   1.531   1.132   1.728 -0.2953 -0.3225 -0.1298
   26SOD    SOD  129   3.595   1.117   3.114 -0.6502  0.3824 -0.2006
   27SOD    SOD  130   1.387   5.596   1.747 -0.6021 -0.0465  0.4529
   28SOD    SOD  131   5.112   0.759   0.449 -0.6070 -0.7063 -0.2022
   29SOD    SOD  132   0.116   6.427   1.337 -0.0427  0.2499  0.1737
   30SOD    SOD  133   1.055   4.917   3.837 -0.0913  0.3115 -0.0621
   31SOD    SOD  134   0.509   3.506   0.478 -0.1896 -0.2158 -0.0663
   32SOD    SOD  135   3.190   1.119   5.715 -0.2271 -0.0695  0.4797
   33SOD    SOD  136   7.165   3.204   3.528 -0.3134 -0.3218 -0.4998
   34SOD    SOD  137   3.294   3.781   0.756  0.3519  0.4275  0.0879
   35SOD    SOD  138   2.423   3.013   5.490  0.0902 -0.2709 -0.4623
   36SOD    SOD  139   1.325   0.697   1.942  0.1275 -0.2269  0.1361
   37SOD    SOD  140   3.425   2.565   4.790  0.5531  0.1167  0.1804
   38SOD    SOD  141   0.438   1.735   5.878 -0.0352 -0.4508 -0.2068
   39SOD    SOD  142   7.067   5.973   2.301 -0.0211 -0.1256 -0.1831
   40SOD    SOD  143   1.331   3.586   2.935  0.0700  0.0220 -0.3530
   41SOD    SOD  144   3.838   5.781   4.296  0.4678 -0.1486 -0.1883
   42SOD    SOD  145   5.179   0.754   5.567 -0.0424  0.0383  0.0271
   43CLA    CLA  146   0.624   3.511   2.817 -0.2371  0.0907 -0.0412
   44CLA    CLA  147   4.670   5.142   1.068 -0.2654  0.3894 -0.1592
   45CLA    CLA  148   0.857   5.979   3.489  0.3400  0.3137  0.3008
   46CLA    CLA  149   1.094   1.301   1.961  0.1284  0.2004 -0.0974
   47CLA    CLA  150   6.835   4.155   4.134  0.1348 -0.2208 -0.2913
   48CLA    CLA  151   0.971   1.267   4.399  0.0210 -0.0023  0.2981
   49CLA    CLA  152   5.780   6.420   2.529  0.3519  0.0684  0.0787
   50CLA    CLA  153   6.949   6.289   1.916 -0.2797  0.3804  0.0883
   51CLA    CLA  154   3.930   0.772   2.238  0.4432 -0.3236 -0.2235
   52CLA    CLA  155   6.369   1.891   3.304  0.2954 -0.0835  0.2220
   53CLA    CLA  156   6.261   0.967   2.185  0.5369  0.1962 -0.1096
   54CLA    CLA  157   2.206   5.172   0.707  0.0983 -0.0116 -0.0165
   55CLA    CLA  158   1.099   2.532   2.004  0.0609  0.0000 -0.5577
   56CLA    CLA  159   3.440   6.006   4.299  0.1243  0.4061 -0.4363
   57CLA    CLA  160   3.256   4.302   4.454  0.2257 -0.2430  0.1132
   58CLA    CLA  161   0.452   2.615   4.149  0.1254 -0.4574  0.0591
   59CLA    CLA  162   1.432   0.971   3.397 -0.2263 -0.1794  0.2750
   60CLA    CLA  163   6.073   0.948   3.875  0.2725 -0.0639 -0.0200
   61CLA    CLA  164   6.117   2.395   5.344  0.5042  0.0201 -0.0198
   62CLA    CLA  165   0.648   3.296   0.941  0.4238  0.2480  0.2538
   63CLA    CLA  166   5.466   3.060   3.829 -0.1095  0.3139 -0.0951
   64CLA    CLA  167   4.491   3.938   1.750  0.3298 -0.1057 -0.2730
   65CLA    CLA  168   3.808   5.904   1.510  0.2427  0.3724  0.4558
   66CLA    CLA  169   6.657   3.130   4.110 -0.1860  0.6085  0.2617
   67CLA    CLA  170   4.458   2.119   0.151  0.2783 -0.3421  0.1536
   68CLA    CLA  171   0.871   4.064   4.087 -0.1719 -0.1313  0.4963
   69CLA    CLA  172   5.033   3.755   4.158 -0.5276 -0.1511 -0.2111
   70TIP3   OH2  173   4.320   5.565   1.221  0.1400 -0.2460 -0.0811
   70TIP3    H1  174   4.342   5.605   1.306 -1.4595 -0.1539  0.3289
   70TIP3    H2  175   4.347   5.630   1.156 -2.8511  1.9096  0.5848
   71TIP3   OH2  176   5.607   6.350   0.715  0.0503  0.0430 -0.3215
   71TIP3    H1  177   5.547   6.305   0.773 -1.6127  3.1499  0.5810
   71TIP3    H2  178   5.597   6.306   0.630 -0.5422 -1.9432  0.7371
   72TIP3   OH2  179   0.768   0.756   4.319  0.5342 -0.0835  0.2742
   72TIP3    H1  180   0.724   0.682   4.362 -0.0913 -0.0334 -0.2564
   72TIP3    H2  181   0.818   0.798   4.389  1.9738 -1.7718  0.3175
   73TIP3   OH2  182   1.911   5.127   2.729  0.2099 -0.0217 -0.0187
   73TIP3    H1  183   1.875   5.151   2.643 -0.9468 -0.9326  0.1780
   73TIP3    H2  184   1.901   5.032   2.733 -0.7956  0.1074  1.5627
   74TIP3   OH2  185   5.029   2.670   0.720  0.1986 -0.9106 -0.7558
   74TIP3    H1  186   5.073   2.586   0.707 -0.8798 -1.3746 -1.5563
   74TIP3    H2  187   5.097   2.727   0.756  1.1937 -1.8690 -1.0472
   75TIP3   OH2  188   2.944   5.050   2.691 -0.4459 -0.2709 -0.2263
   75TIP3    H1  189   3.015   4.990   2.709 -0.8356 -1.1323 -1.3975
   75TIP3    H2  190   2.932   5.046   2.596 -2.4421 -0.6188 -0.0147
   76TIP3   OH2  191   2.637   2.092   0.762 -0.6395  0.0816  0.5565
   76TIP3    H1  192   2.569   2.062   0.701  0.0684 -0.2710 -0.0798
   76TIP3    H2  193   2.719   2.062   0.723 -0.2432 -1.4564  2.4476
   77TIP3   OH2  194   4.801   5.402   1.165  0.6611  0.3820 -0.1409
   77TIP3    H1  195   4.857   5.371   1.236 -0.9047 -0.2906  0.8682
   77TIP3    H2  196   4.755   5.324   1.136 -0.0731  0.9842 -0.6291
   78TIP3   OH2  197   3.214   6.617   1.471 -0.1733  0.4706  0.5864
   78TIP3    H1  198   3.269   6.625   1.393  0.0783  3.3257  0.9834
   78TIP3    H2  199   3.126   6.639   1.440 -0.6178 -1.0915  0.6071
   79TIP3   OH2  200   3.729   1.537   5.705 -0.6203 -1.1036  0.1656
   79TIP3    H1  201   3.798   1.601   5.722 -0.6839 -1.3004  1.2335
   79TIP3    H2  202   3.707   1.550   5.612  0.6262 -0.8369 -0.1166
   80TIP3   OH2  203   5.187   1.592   3.042 -0.1537  0.2574 -0.1394
   80TIP3    H1  204   5.208   1.676   3.001  2.3579  0.2351  0.9693
   80TIP3    H2  205   5.270   1.545   3.046 -1.1005 -1.4166  1.2407
   81TIP3   OH2  206   2.209   4.509   4.308  0.5517 -0.4568  0.2440
   81TIP3    H1  207   2.149   4.435   4.297  1.2940 -1.5800  2.8087
   81TIP3    H2  208   2.287   4.483   4.260 -0.5265  0.5083 -2.1617
   82TIP3   OH2  209   0.088   3.191   1.020  0.0275 -0.1361  0.2812
   82TIP3    H1  210   0.069   3.249   1.093  0.4862  0.2029  0.1368
   82TIP3    H2  211   0.166   3.229   0.979 -1.0094  0.4853 -1.2173
   83TIP3   OH2  212   5.991   2.340   1.362 -0.3648  0.4517 -0.0370
   83TIP3    H1  213   5.914   2.329   1.307  0.0293  1.1194 -0.7404
   83TIP3    H2  214   6.063   2.307   1.308  0.3949  3.3020 -0.9626
   84TIP3   OH2  215   2.542   4.538   4.003 -0.1425 -0.4774  0.0003
   84TIP3    H1  216   2.523   4.502   4.089  2.7134  1.1313  1.4369
   84TIP3    H2  217   2.531   4.632   4.013  2.4226 -0.0231 -0.6556
   85TIP3   OH2  218   2.972   4.810   3.649  0.1259 -0.1790 -0.0739
   85TIP3    H1  219   3.066   4.815   3.630  0.0959 -1.0175 -0.4722
   85TIP3    H2  220   2.930   4.861   3.579  0.1752 -1.2504 -0.8984
   86TIP3   OH2  221   6.748   3.295   2.108 -0.0178 -0.4797 -0.8545
   86TIP3    H1  222   6.676   3.237   2.131 -0.6193 -0.9552 -3.5760
   86TIP3    H2  223   6.826   3.240   2.118 -0.4014 -1.1561 -1.4625
   87TIP3   OH2  224   2.840   1.097   1.996 -0.2279  0.6176 -0.5356
   87TIP3    H1  225   2.820   1.049   1.915 -0.3319 -2.7278  1.2802
   87TIP3    H2  226   2.769   1.074   2.056  1.4098  0.4355  1.4566
   88TIP3   OH2  227   6.753   6.307   1.381  0.3344 -0.2223 -0.3711
   88TIP3    H1  228   6.674   6.353   1.353  1.1841  0.8382 -1.0787
   88TIP3    H2  229   6.822   6.373   1.379  1.1325 -0.9752  0.8514
   89TIP3   OH2  230   2.411   2.087   5.578  0.8248 -1.0851 -0.5633
   89TIP3    H1  231   2.323   2.051   5.564  0.3037  0.1336 -0.5163
   89TIP3    H2  232   2.445   2.035   5.651 -0.6820 -0.2209  0.8292
   90TIP3   OH2  233   3.935   0.147   0.485  0.3691  0.1588  0.0510
   90TIP3    H1  234   3.948   0.239   0.460 -2.2936  0.9929  1.2603
   90TIP3    H2  235   4.000   0.131   0.554  1.4379  0.8228 -0.7712
   91TIP3   OH2  236   0.927   0.542   1.974  0.1098 -0.2083  0.0232
   91TIP3    H1  237   0.975   0.624   1.967  1.7313 -0.8869  2.0746
   91TIP3    H2  238   0.977   0.480   1.920 -1.4334  0.2200 -1.9916
   92TIP3   OH2  239   5.485   0.695   4.020  0.2088 -0.2151  0.0475
   92TIP3    H1  240   5.560   0.649   4.058  0.1755 -0.2007  0.1292
   92TIP3    H2  241   5.525   0.763   3.965  0.2556 -0.0920  0.2314
   93TIP3   OH2  242   3.820   3.308   0.222  0.2397 -0.1574  0.1177
   93TIP3    H1  243   3.840   3.218   0.248 -0.9248 -0.5060 -0.1289
   93TIP3    H2  244   3.752   3.298   0.155 -0.7054  0.9492  0.8952
   94TIP3   OH2  245   5.183   4.076   5.834 -0.7994 -0.5739 -0.5646
   94TIP3    H1  246   5.133   4.157   5.827  0.4790  0.2192 -0.7912
   94TIP3    H2  247   5.269   4.103   5.865 -0.7815 -2.0183  0.8015
   95TIP3   OH2  248   2.450   5.144   3.471  0.1188  0.3195 -0.7121
   95TIP3    H1  249   2.415   5.220   3.518 -1.9559 -0.5861 -0.6990
   95TIP3    H2  250   2.539   5.134   3.505 -0.7013  0.7637  1.7682
   96TIP3   OH2  251   6.886   5.833   2.315  0.1706  0.0899 -0.1423
   96TIP3    H1  252   6.877   5.768   2.385  0.1731 -0.0445 -0.2663
   96TIP3    H2  253   6.797   5.848   2.284  0.2767 -0.6608 -0.8435
   97TIP3   OH2  254   0.113   1.255   2.800 -0.3706  0.2826  0.4289
   97TIP3    H1  255   0.052   1.214   2.862  0.6697  0.0170  1.3030
   97TIP3    H2  256   0.197   1.215   2.820 -0.3087 -1.3980 -2.5575
   98TIP3   OH2  257   3.639   5.149   5.852 -0.4578  0.4179 -0.5133
   98TIP3    H1  258   3.603   5.204   5.921  0.4193  1.5381 -0.9191
   98TIP3    H2  259   3.586   5.069   5.855  0.0332  0.0817  1.9552
   99TIP3   OH2  260   5.694   3.093   4.814  0.4619  0.0288 -0.5100
   99TIP3    H1  261   5.616   3.044   4.789  0.2505  0.9371 -1.7162
   99TIP3    H2  262   5.673   3.185   4.793  1.5385  0.3909 -0.0811
  100TIP3   OH2  263   0.538   2.439   2.849  0.3032 -0.0050  0.2168
  100TIP3    H1  264   0.597   2.509   2.821  1.7564 -1.5461 -0.7920
  100TIP3    H2  265   0.588   2.391   2.915  0.6227 -1.9121 -1.3433
  101TIP3   OH2  266   2.391   6.125   5.829  0.2114  0.1051  0.0459
  101TIP3    H1  267   2.402   6.159   5.741 -1.1633  2.4340  0.6947
  101TIP3    H2  268   2.479   6.101   5.857  0.7904  0.2122 -1.5862
  102TIP3   OH2  269   4.493   3.582   2.822 -0.5889 -0.3276 -0.1599
  102TIP3    H1  270   4.526   3.617   2.905 -1.5357  1.8677 -0.6435
  102TIP3    H2  271   4.419   3.527   2.847 -0.6172 -0.0057  0.4813
  103TIP3   OH2  272   2.604   4.832   5.800 -0.4108 -0.7118 -0.9028
  103TIP3    H1  273   2.635   4.746   5.828 -1.3463 -0.8499 -0.2255
  103TIP3    H2  274   2.526   4.813   5.748 -1.9045 -0.2375  1.0105
  104TIP3   OH2  275   6.451   2.451   3.240  0.0162  0.1085 -0.0997
  104TIP3    H1  276   6.428   2.363   3.210 -0.5371  0.2059  0.0208
  104TIP3    H2  277   6.524   2.477   3.185 -1.0222  0.3064 -1.4250
  105TIP3   OH2  278   2.444   0.862   4.375  0.0772 -0.0203 -0.1055
  105TIP3    H1  279   2.401   0.826   4.452  0.6866  0.7637  0.6156
  105TIP3    H2  280   2.494   0.937   4.407 -3.0273  3.1279 -1.9033
  106TIP3   OH2  281   4.329   3.944   4.871 -0.2429  0.0105  0.0006
  106TIP3    H1  282   4.421   3.945   4.898  0.1877 -2.5550 -1.0245
  106TIP3    H2  283   4.280   3.919   4.949 -0.2079  2.1607  0.7520
  107TIP3   OH2  284   6.655   2.368   5.234  0.8589  0.6731  0.1407
  107TIP3    H1  285   6.584   2.396   5.291  1.8161  1.7251  0.8297
  107TIP3    H2  286   6.666   2.440   5.172  2.3082  1.2152  0.9765
  108TIP3   OH2  287   3.320   2.608   0.845 -0.1431  0.2307  0.2697
  108TIP3    H1  288   3.371   2.655   0.779  0.4097  0.1723  0.6484
  108TIP3    H2  289   3.371   2.616   0.926 -0.6706  0.0608  0.6287
  109TIP3   OH2  290   3.899   1.324   3.695 -0.0592 -0.2830 -0.2096
  109TIP3    H1  291   3.838   1.267   3.742  1.4888  0.9003  3.6152
  109TIP3    H2  292   3.856   1.410   3.695  0.9434  0.2431  1.2370
  110TIP3   OH2  293   3.687   3.622   4.935  0.2807 -0.3773  0.4010
  110TIP3    H1  294   3.600   3.590   4.911  0.2905  0.2381 -0.5350
  110TIP3    H2  295   3.698   3.702   4.883  0.8664  0.2952  1.5174
  111TIP3   OH2  296   5.790   2.943   0.003  0.1627 -0.1956  0.5840
  111TIP3    H1  297   5.800   2.851   0.025 -0.9446 -0.5998 -0.4781
  111TIP3    H2  298   5.698   2.962   0.021  0.5855  0.9776  1.6948
  112TIP3   OH2  299   1.599   4.626   0.530  0.4877 -0.0209  0.2766
  112TIP3    H1  300   1.613   4.532   0.541  0.7225  0.1025  1.0350
  112TIP3    H2  301   1.677   4.656   0.483  0.2593 -0.2575 -0.2609
  113TIP3   OH2  302   1.882   5.539   3.038 -0.6403  0.4022 -0.1867
  113TIP3    H1  303   1.823   5.570   3.106 -0.4412 -0.2668  0.3118
  113TIP3    H2  304   1.846   5.453   3.013 -0.5607  0.5263 -0.7350
  114TIP3   OH2  305   1.792   1.860   4.212 -0.3485 -0.3334  0.0163
  114TIP3    H1  306   1.844   1.782   4.190  1.4826  0.5587  0.9776
  114TIP3    H2  307   1.712   1.825   4.250  0.2653 -1.7668  0.0565
  115TIP3   OH2  308   4.500   4.645   0.809 -0.4279  0.4940 -0.8474
  115TIP3    H1  309   4.433   4.655   0.876  1.5864  0.8614  1.2565
  115TIP3    H2  310   4.519   4.551   0.807  0.5992  0.6457  0.3217
  116TIP3   OH2  311   6.861   4.098   1.422 -0.2025  0.4626 -0.4265
  116TIP3    H1  312   6.838   4.063   1.336  1.6609 -0.8890 -0.4483
  116TIP3    H2  313   6.914   4.029   1.462 -0.7089  1.2327  1.6576
  117TIP3   OH2  314   1.723   2.709   1.880  0.1047  0.6232  0.3080
  117TIP3    H1  315   1.715   2.704   1.785 -1.0573  2.2523  0.2819
  117TIP3    H2  316   1.634   2.724   1.911  0.6629  1.5394  1.5411
  118TIP3   OH2  317   6.070   2.933   4.193  0.0285  0.4651  0.5768
  118TIP3    H1  318   6.148   2.943   4.247  0.3904 -0.3303  0.2151
  118TIP3    H2  319   6.098   2.879   4.119 -0.1061  2.5829 -1.1255
  119TIP3   OH2  320   0.496   4.133   2.734  0.2151 -0.4060 -0.3736
  119TIP3    H1  321   0.581   4.168   2.705 -0.0610  1.5473  0.9915
  119TIP3    H2  322   0.433   4.200   2.709 -0.8119 -1.3803 -0.4619
  120TIP3   OH2  323   6.909   6.154   0.732  0.5467  0.4620 -0.0172
  120TIP3    H1  324   6.966   6.230   0.744 -0.1784  1.0508 -0.2649
  120TIP3    H2  325   6.968   6.084   0.706  1.0379  1.3234 -1.2934
  121TIP3   OH2  326   3.647   3.063   0.285  0.5452  0.2403 -0.1291
  121TIP3    H1  327   3.672   3.026   0.200  0.3993 -2.0813  0.7518
  121TIP3    H2  328   3.569   3.114   0.267 -1.0469 -2.3365 -1.0612
  122TIP3   OH2  329   2.759   1.381   5.202 -0.0800 -0.6822  0.4768
  122TIP3    H1  330   2.775   1.476   5.203  1.2584 -0.8913  0.8622
  122TIP3    H2  331   2.735   1.360   5.292 -1.7226 -0.5121  0.0936
  123TIP3   OH2  332   5.643   2.549   0.964  0.1520  0.5817 -0.3710
  123TIP3    H1  333   5.567   2.567   1.019  0.2351  0.4207 -0.2039
  123TIP3    H2  334   5.703   2.622   0.980  0.1751  0.5360 -0.2513
  124TIP3   OH2  335   4.075   1.003   1.282  0.2301  0.2340 -0.4348
  124TIP3    H1  336   4.030   1.055   1.349 -1.8062 -0.8470 -0.9104
  124TIP3    H2  337   4.029   1.024   1.200  2.0438  0.7808 -1.3732
  125TIP3   OH2  338   1.944   0.474   1.403 -0.1414 -0.1819  0.3075
  125TIP3    H1  339   1.866   0.527   1.421 -0.2844  0.5877 -2.1286
  125TIP3    H2  340   1.914   0.383   1.413 -0.5443  0.1194  2.1624
  126TIP3   OH2  341   1.619   0.712   2.360 -0.2574 -0.3857  0.2352
  126TIP3    H1  342   1.592   0.803   2.373  0.1175 -0.0811 -0.9526
  126TIP3    H2  343   1.711   0.710   2.385 -0.1084 -0.2900 -0.2833
  127TIP3   OH2  344   4.416   1.057   1.722  0.6589 -0.0941  0.2256
  127TIP3    H1  345   4.343   1.113   1.693  0.3602  0.7400  2.3960
  127TIP3    H2  346   4.441   1.093   1.807  1.0080 -2.7866  1.3579
  128TIP3   OH2  347   5.681   0.095   3.652  0.1995 -0.1479  0.0695
  128TIP3    H1  348   5.603   0.041   3.638 -0.8992  1.3091  0.4010
  128TIP3    H2  349   5.726   0.096   3.567 -0.1589 -0.9303 -0.1395
  129TIP3   OH2  350   4.801   4.572   2.238 -0.4723 -0.5008  0.3039
  129TIP3    H1  351   4.729   4.607   2.289 -1.9617 -0.0394 -1.9459
  129TIP3    H2  352   4.761   4.545   2.155  2.0610  0.6449 -1.4373
  130TIP3   OH2  353   5.630   0.665   2.892  0.6779  0.6376 -0.4713
  130TIP3    H1  354   5.712   0.703   2.862 -0.0833  1.9595 -0.9602
  130TIP3    H2  355   5.562   0.718   2.849 -0.4989 -2.4485 -2.7996
  131TIP3   OH2  356   4.157   0.612   5.189 -0.1618  0.1228 -0.2886
  131TIP3    H1  357   4.192   0.636   5.103 -0.4174  0.2202 -0.3655
  131TIP3    H2  358   4.191   0.524   5.205  0.0561  0.1859 -0.3958
  132TIP3   OH2  359   1.239   5.116   1.236  0.1709  0.4079 -0.4839
  132TIP3    H1  360   1.149   5.085   1.222  0.0300  0.0541  1.0337
  132TIP3    H2  361   1.229   5.209   1.259  0.3476  0.8031 -1.8890
  133TIP3   OH2  362   5.962   0.297   4.963 -0.0211 -0.0891  0.4191
  133TIP3    H1  363   6.001   0.253   4.888 -0.2140  0.6596 -0.1297
  133TIP3    H2  364   6.035   0.337   5.009 -0.0255  0.4962 -0.0689
  134TIP3   OH2  365   7.024   4.339   3.115  0.1111  0.6687  0.0746
  134TIP3    H1  366   7.060   4.250   3.118 -0.9136  0.2580  0.9055
  134TIP3    H2  367   7.101   4.395   3.103  1.0793 -0.1676  1.9379
  135TIP3   OH2  368   4.978   5.929   5.138  0.6576  0.0028  0.8174
  135TIP3    H1  369   4.922   6.001   5.110  1.2559  1.0708  2.2139
  135TIP3    H2  370   5.067   5.964   5.134  1.1839 -1.3791 -0.5330
  136TIP3   OH2  371   2.223   4.784   2.519  0.3695 -0.2104 -0.4589
  136TIP3    H1  372   2.183   4.870   2.508 -1.5153 -1.1777 -1.7313
  136TIP3    H2  373   2.233   4.774   2.614 -0.8518  0.7749 -0.1996
  137TIP3   OH2  374   5.782   4.803   2.654 -0.3558 -0.1963 -0.3706
  137TIP3    H1  375   5.861   4.749   2.652 -0.1213  0.1085 -2.8478
  137TIP3    H2  376   5.735   4.779   2.575 -0.6196  2.6256 -1.1915
  138TIP3   OH2  377   1.043   6.568   1.399  0.0331  0.8540  0.0954
  138TIP3    H1  378   1.010   6.494   1.451 -0.0385  0.2329 -0.8126
  138TIP3    H2  379   1.138   6.561   1.406  0.1213 -0.6151 -1.6647
  139TIP3   OH2  380   4.659   3.751   5.907  0.3389 -0.1872 -0.2669
  139TIP3    H1  381   4.618   3.774   5.824 -0.7436 -1.2127 -0.0489
  139TIP3    H2  382   4.729   3.816   5.919  0.5446 -0.0555 -1.9799
  140TIP3   OH2  383   5.888   2.612   4.198 -0.0237  0.3120  0.2893
  140TIP3    H1  384   5.888   2.672   4.123 -2.1403  1.1159  0.8457
  140TIP3    H2  385   5.854   2.530   4.163 -0.3334  0.4747  0.2020
  141TIP3   OH2  386   4.522   0.293   3.239  0.0862  0.0877 -0.1424
  141TIP3    H1  387   4.602   0.340   3.217  0.7478 -1.8267 -2.1918
  141TIP3    H2  388   4.455   0.329   3.180 -0.0538  0.2135  0.0889
  142TIP3   OH2  389   4.035   2.184   0.978  0.3037 -0.1291 -0.7531
  142TIP3    H1  390   4.066   2.271   1.003 -2.4267  0.8308 -0.4540
  142TIP3    H2  391   3.981   2.156   1.051  0.1752 -1.5819 -1.3795
  143TIP3   OH2  392   5.160   3.086   0.690 -0.5494 -0.3591  0.3596
  143TIP3    H1  393   5.119   3.029   0.624  0.2646  0.2153 -0.6840
  143TIP3    H2  394   5.088   3.141   0.721 -0.8489 -0.2447 -0.4886
  144TIP3   OH2  395   2.603   6.288   2.851 -0.6009  0.0103 -0.0317
  144TIP3    H1  396   2.628   6.213   2.904  0.1402 -1.4759 -2.3258
  144TIP3    H2  397   2.683   6.340   2.844 -0.5562 -0.0738 -0.1396
  145TIP3   OH2  398   7.122   5.198   5.446  0.1471 -0.6596  0.2774
  145TIP3    H1  399   7.098   5.129   5.507 -1.1552 -0.4479  0.0413
  145TIP3    H2  400   7.210   5.225   5.472 -0.2244 -0.8472  1.8017
  146TIP3   OH2  401   6.469   6.522   5.230  0.0789 -0.1189 -0.2975
  146TIP3    H1  402   6.513   6.578   5.166  0.1790 -1.4826 -1.4688
  146TIP3    H2  403   6.452   6.580   5.304 -0.0716  1.5340 -1.5476
  147TIP3   OH2  404   1.163   4.503   1.930 -0.4848  0.2608 -0.0614
  147TIP3    H1  405   1.207   4.566   1.988 -0.5195 -0.1853  0.4584
  147TIP3    H2  406   1.072   4.504   1.959 -0.1852 -1.2236  1.0562
  148TIP3   OH2  407   1.273   3.431   3.766 -0.9123  0.0057  0.7562
  148TIP3    H1  408   1.255   3.512   3.814 -0.2320  0.5477  0.1191
  148TIP3    H2  409   1.341   3.387   3.818 -0.1998  0.5757  0.3256
  149TIP3   OH2  410   5.334   4.874   3.106 -0.3063  0.4588 -0.5590
  149TIP3    H1  411   5.260   4.888   3.047 -0.5426 -0.9503 -0.6511
  149TIP3    H2  412   5.366   4.786   3.084 -1.0445 -0.5744  2.0478
  150TIP3   OH2  413   0.863   0.277   3.389  0.0191  0.4899  0.5518
  150TIP3    H1  414   0.799   0.206   3.380 -1.0180  1.4779 -0.1627
  150TIP3    H2  415   0.926   0.261   3.319  1.1483 -1.0210  1.8288
  151TIP3   OH2  416   2.069   4.002   4.292  0.2575 -0.0026  0.4986
  151TIP3    H1  417   1.982   3.964   4.307 -0.0114  0.5806  0.4673
  151TIP3    H2  418   2.101   3.958   4.214  0.3785 -0.8779  1.0309
  152TIP3   OH2  419   4.417   0.718   4.513 -0.1223 -0.7426  0.0671
  152TIP3    H1  420   4.365   0.641   4.538  0.6994 -1.6086 -0.7893
  152TIP3    H2  421   4.373   0.753   4.436  0.5316 -1.4799 -0.6620
  153TIP3   OH2  422   4.787   1.572   3.887 -0.5841 -0.3065  0.6445
  153TIP3    H1  423   4.816   1.487   3.853  0.0912 -0.0358  0.5166
  153TIP3    H2  424   4.857   1.598   3.948  0.3344  1.1419 -0.9234
  154TIP3   OH2  425   2.324   6.177   0.207 -0.2249  0.3081  0.3853
  154TIP3    H1  426   2.354   6.158   0.119  1.8565 -1.2743  1.3438
  154TIP3    H2  427   2.364   6.262   0.228  0.7647 -0.1324  0.3764
  155TIP3   OH2  428   5.949   2.925   4.928  0.3049  0.1538 -0.0162
  155TIP3    H1  429   5.942   2.846   4.875  0.6273  0.3139 -0.3008
  155TIP3    H2  430   5.874   2.978   4.901 -0.3433 -0.3718  0.7182
  156TIP3   OH2  431   6.921   0.576   2.583  0.0924 -0.8803  0.1805
  156TIP3    H1  432   6.841   0.597   2.630 -0.3101 -0.9235 -0.4622
  156TIP3    H2  433   6.957   0.661   2.558  0.4629 -0.8484  0.8151
  157TIP3   OH2  434   4.272   1.566   4.350  0.1841  0.0088 -0.7323
  157TIP3    H1  435   4.195   1.619   4.331 -0.4520 -0.0890  1.3080
  157TIP3    H2  436   4.322   1.618   4.412 -0.8931 -2.0112  2.0378
  158TIP3   OH2  437   2.902   1.310   4.635 -0.2309  0.1488  0.1761
  158TIP3    H1  438   2.966   1.281   4.569 -0.8555 -2.4373  0.5835
  158TIP3    H2  439   2.953   1.317   4.715  0.4016  2.6913 -0.3515
  159TIP3   OH2  440   4.057   4.765   2.932 -0.0330  0.2311 -0.2750
  159TIP3    H1  441   4.080   4.771   3.025 -1.2021 -1.7194  0.1820
  159TIP3    H2  442   4.086   4.849   2.895  1.3432  0.6571  1.6308
  160TIP3   OH2  443   6.517   5.005   4.838  0.6524  0.0187  0.2749
  160TIP3    H1  444   6.595   5.037   4.883  0.0518  0.0919  1.3125
  160TIP3    H2  445   6.447   5.014   4.903 -0.1822 -0.2242 -0.5663
  161TIP3   OH2  446   6.972   5.528   1.516 -0.4281 -0.0388  0.0277
  161TIP3    H1  447   6.927   5.610   1.537  0.8337  0.5717  0.4419
  161TIP3    H2  448   7.033   5.515   1.589  1.5732  0.2773 -1.5140
  162TIP3   OH2  449   0.988   3.705   1.758 -0.0955 -0.1132  0.2853
  162TIP3    H1  450   0.919   3.748   1.708 -1.4894 -1.6774  0.7497
  162TIP3    H2  451   1.061   3.698   1.697 -0.5831  0.9505 -0.4535
  163TIP3   OH2  452   4.114   0.643   0.493 -0.1961 -0.3086 -0.6046
  163TIP3    H1  453   4.084   0.625   0.403  0.6282 -1.4071 -0.6817
  163TIP3    H2  454   4.205   0.613   0.494 -0.7865 -2.2447  1.1375
  164TIP3   OH2  455   1.040   2.041   1.271 -0.6707  0.1674 -0.3066
  164TIP3    H1  456   0.975   2.086   1.325 -0.3890 -0.4300  0.5456
  164TIP3    H2  457   1.031   2.082   1.185 -2.9984 -0.6855 -0.5358
  165TIP3   OH2  458   6.140   5.405   5.408  0.1191 -0.1449  0.1478
  165TIP3    H1  459   6.190   5.342   5.356  0.4170  0.6230 -0.5088
  165TIP3    H2  460   6.195   5.483   5.411 -0.4587  0.2542  0.5515
  166TIP3   OH2  461   4.937   4.622   2.757  0.5729 -0.0219  0.0144
  166TIP3    H1  462   4.966   4.655   2.841 -1.6512 -1.3468  1.4009
  166TIP3    H2  463   4.958   4.692   2.695  2.2959  0.9720  1.6265
  167TIP3   OH2  464   4.488   2.005   5.664  0.1152 -0.5624 -0.1346
  167TIP3    H1  465   4.438   1.925   5.679 -1.0274 -0.0277 -0.9235
  167TIP3    H2  466   4.507   2.037   5.753 -0.4268 -1.0959  0.1866
  168TIP3   OH2  467   6.795   2.447   0.528  0.2662  0.3100  0.0539
  168TIP3    H1  468   6.730   2.379   0.513  0.9693  0.0066 -2.1151
  168TIP3    H2  469   6.790   2.467   0.621 -2.2622 -0.3368  0.1045
  169TIP3   OH2  470   0.766   1.037   5.052  0.6143 -0.3164 -0.3792
  169TIP3    H1  471   0.798   1.075   5.134 -0.3654 -0.6385  0.1644
  169TIP3    H2  472   0.713   1.105   5.013 -2.1837 -1.4258  1.2011
  170TIP3   OH2  473   3.879   2.658   3.955 -0.4103 -0.2201  0.3414
  170TIP3    H1  474   3.835   2.670   3.872  0.8547 -1.5243 -0.5631
  170TIP3    H2  475   3.864   2.740   4.002 -1.0642  0.5829 -1.2000
  171TIP3   OH2  476   1.123   5.348   3.485  0.3222  0.4184 -0.3619
  171TIP3    H1  477   1.040   5.314   3.517 -0.2182  1.4491 -0.5941
  171TIP3    H2  478   1.129   5.315   3.395 -0.2427  0.9809 -0.6189
  172TIP3   OH2  479   2.681   3.815   3.461 -0.2886  0.1564  0.2672
  172TIP3    H1  480   2.659   3.722   3.448  1.3394 -0.0564 -1.2847
  172TIP3    H2  481   2.613   3.847   3.520 -1.8347 -1.6323 -0.4223
  173TIP3   OH2  482   6.058   0.894   3.467 -0.1171 -0.2394 -0.3525
  173TIP3    H1  483   6.140   0.847   3.483 -0.1241  0.0188  0.4640
  173TIP3    H2  484   6.086   0.982   3.442 -0.1077 -0.6217 -1.7692
  174TIP3   OH2  485   2.087   5.571   0.078  0.0199 -0.3763 -0.2188
  174TIP3    H1  486   2.058   5.662   0.070  0.4731 -0.2457 -0.4169
  174TIP3    H2  487   2.029   5.521   0.020  0.1664 -0.1272 -0.5783
  175TIP3   OH2  488   4.171   0.246   1.413  1.1494  0.3501  0.3998
  175TIP3    H1  489   4.140   0.189   1.342  0.8882  0.4094  0.4654
  175TIP3    H2  490   4.159   0.335   1.380  2.4696  0.3669 -0.0899
  176TIP3   OH2  491   1.685   3.458   2.468  0.3717  0.2782  0.3233
  176TIP3    H1  492   1.699   3.522   2.538  1.2645 -0.6448  1.0022
  176TIP3    H2  493   1.614   3.496   2.416  0.6330  1.6509  0.9136
  177TIP3   OH2  494   2.001   4.462   4.606 -0.2689  0.7040 -0.2289
  177TIP3    H1  495   1.915   4.443   4.568  0.0764  0.5099 -0.9401
  177TIP3    H2  496   2.063   4.432   4.540  0.4192 -1.1151  1.1562
  178TIP3   OH2  497   6.675   3.887   4.222  0.2658 -0.0369 -0.2812
  178TIP3    H1  498   6.706   3.811   4.174  0.3825  0.6473 -1.3298
  178TIP3    H2  499   6.741   3.955   4.205  0.6632  0.0408  1.4124
  179TIP3   OH2  500   4.065   0.722   4.349 -0.2967 -0.4552  0.0058
  179TIP3    H1  501   4.005   0.655   4.316  0.1284 -1.3093  0.9094
  179TIP3    H2  502   4.014   0.769   4.416 -0.6648  0.2817 -0.7770
  180TIP3   OH2  503   3.183   6.552   3.094 -0.1623 -0.4686  0.4369
  180TIP3    H1  504   3.142   6.527   3.011  0.1106 -0.7492  0.3818
  180TIP3    H2  505   3.132   6.626   3.126 -1.7508 -1.7897  1.1636
  181TIP3   OH2  506   2.241   0.262   4.581 -0.9041 -0.3737 -0.0228
  181TIP3    H1  507   2.227   0.172   4.611 -1.1923 -0.4140 -0.2808
  181TIP3    H2  508   2.336   0.267   4.566 -0.5288  0.0308  2.1279
  182TIP3   OH2  509   6.041   1.279   5.036  0.2344  0.0923  0.1438
  182TIP3    H1  510   6.022   1.187   5.055  1.2224 -0.1162  0.1958
  182TIP3    H2  511   5.958   1.315   5.004 -0.2301 -0.7482  0.3747
  183TIP3   OH2  512   6.223   0.791   1.481  0.0320 -0.2532  0.2311
  183TIP3    H1  513   6.231   0.877   1.523 -0.5548 -0.4381  0.7437
  183TIP3    H2  514   6.148   0.800   1.421  0.7132 -0.0630 -0.5994
  184TIP3   OH2  515   4.447   4.273   0.381  0.4010  0.6185  0.2229
  184TIP3    H1  516   4.400   4.295   0.461 -1.0611  0.6707 -0.6235
  184TIP3    H2  517   4.434   4.348   0.323  0.9906  0.3532 -0.2736
  185TIP3   OH2  518   4.594   4.258   2.991  0.5521 -0.0655 -0.1621
  185TIP3    H1  519   4.553   4.322   2.933 -1.6433  0.2167  1.5759
  185TIP3    H2  520   4.600   4.303   3.076  0.3541 -1.6337  0.7279
  186TIP3   OH2  521   1.124   1.888   3.774 -0.1116  0.1681 -0.1441
  186TIP3    H1  522   1.062   1.822   3.805  0.2418 -0.4275 -0.6814
  186TIP3    H2  523   1.202   1.876   3.829  1.0017 -1.7462 -2.0137
  187TIP3   OH2  524   4.518   1.720   5.160 -0.1242 -0.5451  0.1519
  187TIP3    H1  525   4.608   1.686   5.155 -0.5181 -1.4409 -1.6302
  187TIP3    H2  526   4.528   1.814   5.151  0.7382 -0.4306  1.7835
  188TIP3   OH2  527   3.526   5.870   1.383 -0.3441  0.1579  0.1751
  188TIP3    H1  528   3.593   5.864   1.450  1.0144  0.7909 -1.0760
  188TIP3    H2  529   3.565   5.831   1.305 -0.3353  2.9210 -1.3505
  189TIP3   OH2  530   5.595   5.196   5.333 -0.1104  0.0608 -0.0494
  189TIP3    H1  531   5.610   5.239   5.417  0.1234  1.7075 -0.9118
  189TIP3    H2  532   5.560   5.264   5.276 -3.0543 -1.6340 -0.5320
  190TIP3   OH2  533   5.957   6.609   2.016  0.3321 -0.3336 -0.3853
  190TIP3    H1  534   5.957   6.567   2.103 -0.7029 -0.4453 -0.4246
  190TIP3    H2  535   6.040   6.656   2.012  0.1682  0.0919  0.8704
  191TIP3   OH2  536   2.152   0.435   4.283  0.0620 -0.3615  0.3380
  191TIP3    H1  537   2.109   0.458   4.365 -0.0205  1.5935 -0.2164
  191TIP3    H2  538   2.241   0.469   4.293 -0.8870  3.1197 -1.6379
  192TIP3   OH2  539   2.092   5.235   1.194  0.4788 -0.0679 -0.5233
  192TIP3    H1  540   2.022   5.213   1.133 -0.4079 -0.0789  0.4833
  192TIP3    H2  541   2.129   5.150   1.220 -1.4379 -0.3349  1.5950
  193TIP3   OH2  542   0.071   3.495   4.238  0.4629  0.5825 -0.1174
  193TIP3    H1  543   0.131   3.536   4.301 -0.5023  0.3739  0.9707
  193TIP3    H2  544   0.128   3.450   4.176  1.4601 -1.6852  2.2736
  194TIP3   OH2  545   5.224   1.581   0.563 -0.5624  0.5272 -0.3814
  194TIP3    H1  546   5.136   1.620   0.567 -0.2315  1.3091 -0.5813
  194TIP3    H2  547   5.271   1.621   0.636 -0.9898 -1.5112  1.1118
  195TIP3   OH2  548   1.323   6.261   5.316 -0.1576 -0.2114  0.9107
  195TIP3    H1  549   1.261   6.330   5.341  0.8935  0.9915  0.3122
  195TIP3    H2  550   1.316   6.256   5.220 -0.0414 -0.7459  0.9303
  196TIP3   OH2  551   7.038   2.304   4.346 -0.3244 -0.5809 -0.6059
  196TIP3    H1  552   7.088   2.236   4.301  0.1069 -0.7042  0.0548
  196TIP3    H2  553   7.007   2.361   4.275  1.3156 -0.1105 -0.9895
  197TIP3   OH2  554   4.378   5.858   4.798  0.1654 -0.5873  0.0571
  197TIP3    H1  555   4.349   5.898   4.880 -0.8778  0.0825 -0.6214
  197TIP3    H2  556   4.314   5.790   4.781 -0.4248  0.1955 -0.9095
  198TIP3   OH2  557   2.365   1.232   2.288 -0.4599 -0.7776  0.4856
  198TIP3    H1  558   2.363   1.323   2.260 -1.0779 -1.1863 -0.8971
  198TIP3    H2  559   2.411   1.186   2.218  1.6102 -1.2782  2.0784
  199TIP3   OH2  560   3.870   5.292   4.339  0.2856 -0.1722  0.6964
  199TIP3    H1  561   3.954   5.260   4.372  1.0216  0.9154 -0.0272
  199TIP3    H2  562   3.811   5.217   4.345  1.1188 -0.7591  1.8779
  200TIP3   OH2  563   1.978   6.387   3.513  0.0554 -0.3020 -0.2407
  200TIP3    H1  564   2.029   6.453   3.465 -0.6811 -2.1023 -3.8457
  200TIP3    H2  565   1.887   6.411   3.495 -0.2455 -1.0357  0.2839
  201TIP3   OH2  566   6.177   1.516   3.993 -0.0167 -0.5977 -0.2876
  201TIP3    H1  567   6.103   1.520   3.932  0.2339 -0.9425 -0.6218
  201TIP3    H2  568   6.149   1.454   4.060  0.0699 -0.9258 -0.5530
  202TIP3   OH2  569   5.149   2.481   5.454 -0.1343  0.3036  0.2689
  202TIP3    H1  570   5.140   2.463   5.548 -0.1003  1.8657  0.6029
  202TIP3    H2  571   5.189   2.569   5.451  0.1600  0.1342 -1.2082
  203TIP3   OH2  572   3.537   1.583   0.444  0.2951 -0.0722 -0.1519
  203TIP3    H1  573   3.510   1.518   0.508  0.5919 -0.3834 -0.3372
  203TIP3    H2  574   3.482   1.659   0.462  1.2440  0.3033  1.3110
  204TIP3   OH2  575   5.147   3.932   1.107  0.3016  0.3299  0.2031
  204TIP3    H1  576   5.175   3.903   1.020  0.0593 -1.0136  0.5575
  204TIP3    H2  577   5.105   3.856   1.145 -2.3335  1.7469  0.3601
  205TIP3   OH2  578   2.449   0.199   3.481 -0.0783 -0.0218 -0.2284
  205TIP3    H1  579   2.433   0.279   3.431 -0.4044 -0.0456 -0.1622
  205TIP3    H2  580   2.478   0.231   3.567  0.4046  0.0191 -0.4026
  206TIP3   OH2  581   2.377   5.716   1.753  0.3693  0.2530  0.3583
  206TIP3    H1  582   2.383   5.625   1.724 -0.1177  0.4180 -0.2605
  206TIP3    H2  583   2.441   5.722   1.825  2.0621  0.0039 -1.0579
  207TIP3   OH2  584   6.391   3.278   4.050 -0.3182 -0.3893  0.5145
  207TIP3    H1  585   6.470   3.224   4.048 -0.8319 -1.1393 -0.5110
  207TIP3    H2  586   6.321   3.220   4.019 -1.3586  0.1408  1.7843
  208TIP3   OH2  587   6.838   4.931   2.575  0.1799 -0.1162  0.3434
  208TIP3    H1  588   6.858   4.955   2.666  0.1856 -0.7704  0.5191
  208TIP3    H2  589   6.750   4.965   2.561  0.1670 -0.0343  0.6012
  209TIP3   OH2  590   0.379   6.231   1.103  1.1434 -0.1559 -0.5344
  209TIP3    H1  591   0.439   6.260   1.171 -0.3652  0.6148  0.5212
  209TIP3    H2  592   0.371   6.136   1.116 -0.3877  0.1967  1.4728
  210TIP3   OH2  593   6.004   4.566   3.171 -0.8179 -0.5890  0.0287
  210TIP3    H1  594   5.941   4.559   3.100 -1.9894 -1.1417  1.0776
  210TIP3    H2  595   6.006   4.479   3.211 -0.2734 -0.2665  0.7372
  211TIP3   OH2  596   0.611   6.731   1.173 -0.5563  0.1863  0.0027
  211TIP3    H1  597   0.650   6.788   1.107 -0.8436  1.0899  0.5827
  211TIP3    H2  598   0.666   6.653   1.173 -0.7051  0.0592 -1.4703
  212TIP3   OH2  599   0.801   4.891   2.397  0.6220 -0.0481 -0.0057
  212TIP3    H1  600   0.785   4.822   2.460 -0.7664 -0.6271 -0.9332
  212TIP3    H2  601   0.746   4.964   2.426 -0.3991 -0.4853 -0.7710
  213TIP3   OH2  602   5.364   5.319   3.606 -0.0433  0.1383 -0.1317
  213TIP3    H1  603   5.378   5.234   3.646 -1.0512 -0.0055 -0.0654
  213TIP3    H2  604   5.324   5.372   3.675  0.2855  0.5717 -0.2679
  214TIP3   OH2  605   5.066   0.342   1.101  0.0769  0.3292 -0.2275
  214TIP3    H1  606   5.038   0.339   1.192 -2.1674 -0.3888 -0.8777
  214TIP3    H2  607   5.050   0.432   1.073  0.6566  0.5194  0.0434
  215TIP3   OH2  608   1.588   4.084   1.398  0.4982 -0.8923  0.0134
  215TIP3    H1  609   1.597   4.114   1.307 -1.7829 -1.5479 -0.4970
  215TIP3    H2  610   1.558   4.161   1.446  0.1815 -0.9310 -0.1206
  216TIP3   OH2  611   2.073   5.647   1.851  0.2633 -0.1914 -0.5860
  216TIP3    H1  612   2.132   5.696   1.908  1.2386  0.1609 -1.8562
  216TIP3    H2  613   2.054   5.707   1.779  1.5286 -1.6392 -2.2096
  217TIP3   OH2  614   6.480  -0.005   1.909 -0.4132 -0.1710  0.2924
  217TIP3    H1  615   6.509  -0.031   1.821  0.1558 -0.6805  0.6170
  217TIP3    H2  616   6.499   0.089   1.914 -0.5043 -0.1272 -0.1486
  218TIP3   OH2  617   4.169   2.833   0.476  0.2674  0.3023  0.3429
  218TIP3    H1  618   4.081   2.870   0.477  0.7428  1.6134 -1.3867
  218TIP3    H2  619   4.169   2.770   0.405  0.8422  0.6727 -0.0002
  219TIP3   OH2  620   2.336   5.353   3.616  0.9719  0.5332  0.2871
  219TIP3    H1  621   2.321   5.338   3.710  0.7919 -0.4649  0.1196
  219TIP3    H2  622   2.411   5.411   3.612  1.4831 -0.0572  1.0463
  220TIP3   OH2  623   2.484   2.333   1.194 -0.1829  0.4229 -0.2039
  220TIP3    H1  624   2.469   2.328   1.099 -1.9890 -0.7902  0.0847
  220TIP3    H2  625   2.419   2.274   1.231  0.9637  0.3269  1.7792
  221TIP3   OH2  626   0.956   3.516   3.431  0.1370  0.0891  0.0924
  221TIP3    H1  627   0.990   3.525   3.342  0.2912  1.7319  0.2938
  221TIP3    H2  628   1.019   3.460   3.476  1.9708  2.0760  0.1130
  222TIP3   OH2  629   3.783   0.249   2.924 -0.2223  0.1741  0.1342
  222TIP3    H1  630   3.868   0.213   2.953  0.0383  1.0135  0.4321
  222TIP3    H2  631   3.721   0.216   2.988  0.3313  1.8980  1.6381
  223TIP3   OH2  632   3.984   6.348   5.485  0.0214  0.3572  0.0768
  223TIP3    H1  633   3.977   6.390   5.571 -2.2472  1.0266 -0.3842
  223TIP3    H2  634   4.008   6.420   5.426  0.7816  0.0499 -0.0031
  224TIP3   OH2  635   4.661   0.664   4.814 -0.1723 -0.3347 -0.3546
  224TIP3    H1  636   4.641   0.670   4.721  1.8796 -0.7369 -0.8696
  224TIP3    H2  637   4.753   0.688   4.820 -0.3627  0.0531  1.6409
  225TIP3   OH2  638   5.753   3.385   3.562  0.2659  0.3923  0.2318
  225TIP3    H1  639   5.694   3.351   3.630 -0.7132 -1.5131 -1.4774
  225TIP3    H2  640   5.702   3.451   3.517  1.3720  2.6596  2.0546
  226TIP3   OH2  641   3.004   2.562   0.154  0.2715  0.0759 -0.3768
  226TIP3    H1  642   3.010   2.645   0.107 -3.1929  1.1257  0.7078
  226TIP3    H2  643   3.007   2.586   0.247 -1.1905 -0.8812 -0.0345
  227TIP3   OH2  644   1.638   3.213   0.680 -0.2018 -0.0542 -0.5926
  227TIP3    H1  645   1.580   3.276   0.637  1.1654  1.4010 -0.3900
  227TIP3    H2  646   1.662   3.255   0.762  1.6461 -0.3099 -0.9728
  228TIP3   OH2  647   3.162   3.347   1.022  0.0464  0.0528 -0.3575
  228TIP3    H1  648   3.248   3.320   0.989  0.4365 -0.1810  0.7906
  228TIP3    H2  649   3.177   3.365   1.115 -1.0433  0.5132 -0.2527
  229TIP3   OH2  650   0.690   3.641   5.390 -0.4261  0.6045 -0.0118
  229TIP3    H1  651   0.759   3.702   5.364  0.4922  0.7163  2.4393
  229TIP3    H2  652   0.733   3.555   5.391 -0.4512  0.5922  0.9474
  230TIP3   OH2  653   1.390   5.860   0.679  0.4114  0.2115  0.2208
  230TIP3    H1  654   1.473   5.879   0.724  1.8082 -1.4848 -1.4327
  230TIP3    H2  655   1.394   5.912   0.599 -2.2946  3.6304  2.0610
  231TIP3   OH2  656   3.221   2.182   0.441  0.2821 -0.0141 -0.4962
  231TIP3    H1  657   3.173   2.108   0.476  0.9506  0.2061  0.9733
  231TIP3    H2  658   3.190   2.257   0.491  1.5704  0.2499 -0.0426
  232TIP3   OH2  659   5.982   3.211   5.715 -0.1651 -0.4192  0.5509
  232TIP3    H1  660   6.061   3.264   5.702 -0.5795  0.1997  0.4642
  232TIP3    H2  661   5.923   3.240   5.646 -0.7228 -0.3609  1.0456
  233TIP3   OH2  662   5.582   2.741   0.323 -0.4512  0.8288 -0.3652
  233TIP3    H1  663   5.646   2.809   0.346  0.3918 -0.5025  1.4177
  233TIP3    H2  664   5.517   2.787   0.269  0.7223  2.7687 -0.2177
  234TIP3   OH2  665   4.988   3.560   0.474  0.1969 -0.7166  0.2280
  234TIP3    H1  666   4.925   3.491   0.452 -0.8727  0.0533  0.8152
  234TIP3    H2  667   4.987   3.618   0.398 -0.6542 -0.1041  0.6950
  235TIP3   OH2  668   3.894   6.758   1.253  0.4107 -0.2111 -0.3209
  235TIP3    H1  669   3.823   6.696   1.269 -0.7107  0.7804 -1.2856
  235TIP3    H2  670   3.883   6.784   1.162  0.9283  1.3032  0.0240
  236TIP3   OH2  671   4.704   5.980   4.569  0.1141  0.3284 -0.7315
  236TIP3    H1  672   4.769   5.935   4.514 -0.7628  0.0917 -1.6114
  236TIP3    H2  673   4.643   6.018   4.506 -1.5263 -0.8646  0.0964
  237TIP3   OH2  674   2.667   6.759   1.324  0.1611 -0.1300 -0.0988
  237TIP3    H1  675   2.597   6.701   1.294 -1.3186  1.5397 -0.0419
  237TIP3    H2  676   2.706   6.793   1.243 -1.2555  1.3708 -0.2097
  238TIP3   OH2  677   1.013   2.538   2.296 -0.3463 -0.0476 -0.3274
  238TIP3    H1  678   1.083   2.565   2.355 -1.2063  1.5409  0.0368
  238TIP3    H2  679   1.050   2.546   2.208  0.0605  0.3904 -0.1176
  239TIP3   OH2  680   5.804   1.057   1.565 -0.0131  0.4176  0.2110
  239TIP3    H1  681   5.839   1.054   1.475  1.0233 -0.4285  0.6256
  239TIP3    H2  682   5.878   1.032   1.620 -0.7479  0.5556  1.2823
  240TIP3   OH2  683   3.579   5.568   2.447  0.0634 -0.5408 -0.4474
  240TIP3    H1  684   3.569   5.483   2.404 -0.3582 -0.4225 -0.5895
  240TIP3    H2  685   3.608   5.546   2.536 -2.2508 -0.9867  0.2702
  241TIP3   OH2  686   1.387   2.500   5.405 -0.0098 -0.4287 -0.1257
  241TIP3    H1  687   1.312   2.494   5.465 -0.6034  0.0177 -0.8161
  241TIP3    H2  688   1.376   2.584   5.361  0.8794 -0.3763 -0.2668
  242TIP3   OH2  689   6.700   5.883   4.128  0.3113 -0.5201 -0.3239
  242TIP3    H1  690   6.781   5.918   4.164  0.0500 -0.9203  0.6757
  242TIP3    H2  691   6.655   5.960   4.092  0.6115 -0.1218  0.1339
  243TIP3   OH2  692   0.547   1.411   0.354  0.9213  0.7567 -0.1793
  243TIP3    H1  693   0.582   1.496   0.379  1.9552  0.0557  0.8830
  243TIP3    H2  694   0.515   1.373   0.436  1.6784 -0.3966 -0.3932
  244TIP3   OH2  695   7.129   0.679   1.104  0.1734 -0.4405 -0.1096
  244TIP3    H1  696   7.136   0.606   1.042 -1.0293 -1.5943  1.0325
  244TIP3    H2  697   7.218   0.693   1.136  0.5200 -0.9751 -0.8289
  245TIP3   OH2  698   1.966   1.970   5.036  0.0534  0.3558 -0.5582
  245TIP3    H1  699   2.032   2.004   4.977 -0.8352 -1.4242 -2.7064
  245TIP3    H2  700   1.997   1.884   5.061  0.0276  0.7665  1.0022
  246TIP3   OH2  701   2.133   4.927   5.615  0.5282  0.1827  0.0765
  246TIP3    H1  702   2.148   4.925   5.709  0.3036  0.5605  0.1215
  246TIP3    H2  703   2.043   4.897   5.605  1.4065 -2.7300 -0.2387
  247TIP3   OH2  704   6.509   3.325   5.524 -0.0989  0.1384 -0.4503
  247TIP3    H1  705   6.588   3.372   5.548  0.1611 -0.3200 -0.3858
  247TIP3    H2  706   6.525   3.235   5.552 -0.9247  0.1812  0.2085
  248TIP3   OH2  707   2.421   1.262   1.118  0.6068  0.4610  0.0380
  248TIP3    H1  708   2.489   1.233   1.056 -1.7237 -0.8629 -2.0763
  248TIP3    H2  709   2.402   1.352   1.092  0.5625  0.3455 -0.3494
  249TIP3   OH2  710   3.625   0.211   5.536 -0.3791 -1.0371 -0.0479
  249TIP3    H1  711   3.633   0.126   5.581  0.2615 -2.0008 -1.9005
  249TIP3    H2  712   3.662   0.196   5.449 -0.4347  1.1141 -0.4907
  250TIP3   OH2  713   4.876   0.672   3.606 -0.4265 -0.5459 -0.4923
  250TIP3    H1  714   4.918   0.746   3.562 -1.1937 -0.7864 -1.6726
  250TIP3    H2  715   4.921   0.595   3.571 -2.9336 -0.9532 -3.2319
  251TIP3   OH2  716   2.977   0.944   0.740 -0.1839 -0.5957  0.0091
  251TIP3    H1  717   2.988   0.944   0.835 -1.1648 -1.6736  0.1518
  251TIP3    H2  718   2.914   0.873   0.723  0.0526 -0.4951 -1.4514
  252TIP3   OH2  719   2.161   4.534   1.369  0.1802 -0.0045  0.2691
  252TIP3    H1  720   2.214   4.489   1.434  1.6278 -0.2802 -1.0333
  252TIP3    H2  721   2.214   4.609   1.341 -1.9653  2.3568  2.0242
  253TIP3   OH2  722   3.572   6.333   1.406  0.3031 -0.7496  0.3753
  253TIP3    H1  723   3.504   6.364   1.466 -0.3567  0.9725 -1.1415
  253TIP3    H2  724   3.538   6.251   1.372  0.2566 -1.2717  1.6314
  254TIP3   OH2  725   3.440   1.206   3.299  0.7425  0.5136  0.2234
  254TIP3    H1  726   3.425   1.301   3.298 -0.2837  0.3709 -0.8145
  254TIP3    H2  727   3.354   1.168   3.281  1.2129 -0.6081  0.2238
  255TIP3   OH2  728   4.397   3.245   5.490 -0.1154 -0.4172  0.4806
  255TIP3    H1  729   4.390   3.264   5.584 -0.3843 -1.4791  0.6840
  255TIP3    H2  730   4.440   3.323   5.453 -3.1042  1.5918  0.8980
  256TIP3   OH2  731   4.528   2.370   4.723  0.0063 -0.0781  0.2233
  256TIP3    H1  732   4.573   2.290   4.697  0.3030  0.5547 -1.2997
  256TIP3    H2  733   4.597   2.425   4.761  0.0756 -0.0092 -0.0008
  257TIP3   OH2  734   1.742   3.822   5.033 -0.2478 -0.4326  0.3155
  257TIP3    H1  735   1.691   3.743   5.047  1.7710 -2.1948 -1.4740
  257TIP3    H2  736   1.804   3.824   5.107 -0.3235 -0.5106  0.3810
  258TIP3   OH2  737   0.772   1.718   2.710  0.4656  0.4616  0.4123
  258TIP3    H1  738   0.749   1.736   2.618 -1.1057 -0.3366  0.6164
  258TIP3    H2  739   0.770   1.804   2.752  2.1511  0.9764 -0.4631
  259TIP3   OH2  740   1.922  -0.019   4.762 -0.1779  0.0454  0.3983
  259TIP3    H1  741   1.906   0.065   4.718 -1.4020  0.3549  1.3639
  259TIP3    H2  742   2.007  -0.008   4.804  0.6218  0.0385 -1.1626
  260TIP3   OH2  743   7.160   2.611   4.142 -0.0794 -0.2661  0.2997
  260TIP3    H1  744   7.091   2.595   4.207 -0.4600 -1.3173 -0.3491
  260TIP3    H2  745   7.236   2.565   4.177  0.5616  1.5284  1.4052
  261TIP3   OH2  746   0.133   0.850   5.783 -0.8749  0.1268  0.0866
  261TIP3    H1  747   0.221   0.868   5.816 -1.0967  2.5267 -0.4898
  261TIP3    H2  748   0.147   0.789   5.711  0.3831  0.8519 -0.3119
  262TIP3   OH2  749   2.996   0.296   4.857  0.4912 -0.3496 -0.9744
  262TIP3    H1  750   3.061   0.353   4.817  0.5536 -1.0940 -1.9683
  262TIP3    H2  751   3.042   0.257   4.932  0.3379  1.1349 -0.0804
  263TIP3   OH2  752   2.001   1.749   4.782  0.6864  0.2521 -1.1671
  263TIP3    H1  753   2.073   1.687   4.773  1.1385  0.7611 -1.0909
  263TIP3    H2  754   2.040   1.835   4.765  0.1610  0.5628 -0.8493
  264TIP3   OH2  755   4.086   6.459   4.580 -0.1501  0.0224  0.2498
  264TIP3    H1  756   4.102   6.547   4.544  0.1491  0.1687  0.7379
  264TIP3    H2  757   4.027   6.474   4.654 -1.4556 -0.3675 -0.6810
  265TIP3   OH2  758   0.775   6.025   0.654 -0.5434  0.3538  0.2160
  265TIP3    H1  759   0.732   5.944   0.626  1.3378 -0.3075 -0.9992
  265TIP3    H2  760   0.838   5.996   0.720  0.0746  0.8271 -0.1606
  266TIP3   OH2  761   1.419   6.107   4.284  0.6823  0.1649 -0.3789
  266TIP3    H1  762   1.454   6.046   4.218 -1.3231 -0.8937 -0.5344
  266TIP3    H2  763   1.456   6.077   4.367  0.1058 -1.0131 -0.5222
  267TIP3   OH2  764   5.505   2.756   2.469  0.1459  0.4426  0.0733
  267TIP3    H1  765   5.457   2.740   2.388  2.3210  1.6121 -1.5605
  267TIP3    H2  766   5.592   2.720   2.454  0.0343 -1.2406  2.7617
  268TIP3   OH2  767   5.910   4.273   2.965 -0.1608 -0.1402  0.3705
  268TIP3    H1  768   5.892   4.357   2.923 -2.4539 -0.5775  0.3877
  268TIP3    H2  769   5.825   4.232   2.975  0.7623 -1.8688  1.6835
  269TIP3   OH2  770   6.779   6.004   4.747  0.4452  0.1093  0.0426
  269TIP3    H1  771   6.764   6.019   4.840  1.1983  1.9195 -0.0841
  269TIP3    H2  772   6.691   5.993   4.710  0.2044 -2.5018  1.1874
  270TIP3   OH2  773   6.663   6.668   1.864 -0.0539  0.0768 -0.0769
  270TIP3    H1  774   6.704   6.752   1.841 -2.5782  1.8860  1.4800
  270TIP3    H2  775   6.606   6.648   1.789 -1.8180  1.4987  0.7990
  271TIP3   OH2  776   0.781   1.089   2.492 -0.0040  0.3757  0.1948
  271TIP3    H1  777   0.747   1.050   2.411  1.3543  0.0618 -0.2559
  271TIP3    H2  778   0.810   1.013   2.543  1.3758  0.6971 -0.0845
  272TIP3   OH2  779   0.033   5.248   4.202  0.3124 -0.2294  0.6985
  272TIP3    H1  780  -0.059   5.258   4.227  0.4222 -0.3913  1.1933
  272TIP3    H2  781   0.070   5.192   4.271  0.5194 -1.1140 -0.1150
  273TIP3   OH2  782   5.562   2.204   2.648 -0.2168  0.3848 -0.5291
  273TIP3    H1  783   5.517   2.153   2.581  2.3422 -0.9160 -1.4096
  273TIP3    H2  784   5.532   2.294   2.636 -1.9661 -0.2998 -1.4921
  274TIP3   OH2  785   5.632   1.168   0.320 -0.2383 -0.2148  0.0833
  274TIP3    H1  786   5.643   1.218   0.401 -0.4516  1.5881 -0.9512
  274TIP3    H2  787   5.641   1.233   0.250 -2.7870 -1.1919 -1.2733
  275TIP3   OH2  788   2.056   4.749   4.010 -0.1899  0.0024  0.5628
  275TIP3    H1  789   2.133   4.758   3.954 -0.7796 -2.9957 -1.0151
  275TIP3    H2  790   1.988   4.800   3.966  0.3046  0.7186  0.6314
  276TIP3   OH2  791   0.834   3.358   2.359  0.3363 -0.1981 -0.4244
  276TIP3    H1  792   0.918   3.324   2.330  0.4424 -1.2264  1.0228
  276TIP3    H2  793   0.848   3.383   2.450 -0.8753 -0.2383 -0.2104
  277TIP3   OH2  794   3.045   0.112   0.040  0.1635  1.0349 -0.2187
  277TIP3    H1  795   3.019   0.203   0.036 -1.3015  0.5946 -1.5565
  277TIP3    H2  796   2.963   0.063   0.041  0.9183 -0.3056 -0.9781
  278TIP3   OH2  797   6.857   0.961   1.603  0.2874 -0.3666  0.4463
  278TIP3    H1  798   6.779   0.921   1.565  1.2944 -1.9896 -0.0566
  278TIP3    H2  799   6.825   1.014   1.676 -1.2216 -1.6994  0.8070
  279TIP3   OH2  800   2.057   1.295   3.705 -0.1809  0.3465 -0.3171
  279TIP3    H1  801   2.087   1.376   3.745  0.0936 -0.1888  0.5723
  279TIP3    H2  802   1.969   1.316   3.672  0.0614  1.1216 -0.4965
  280TIP3   OH2  803   6.482   0.830   3.991  0.0822 -0.0210  0.2026
  280TIP3    H1  804   6.403   0.791   3.954 -0.3541 -0.0404  1.1451
  280TIP3    H2  805   6.453   0.912   4.030  0.9325  1.1258 -1.4456
  281TIP3   OH2  806   1.748   4.973   4.933  0.2491  0.4151 -0.2879
  281TIP3    H1  807   1.707   4.919   5.000  1.3796 -3.9469 -2.7151
  281TIP3    H2  808   1.841   4.956   4.943  0.4804  0.1751 -2.4596
  282TIP3   OH2  809   5.607   0.820   5.441  0.0235  0.1091 -0.0579
  282TIP3    H1  810   5.619   0.914   5.447  1.6499 -0.0159 -0.7175
  282TIP3    H2  811   5.643   0.796   5.355 -0.8036 -1.0460 -0.1046
  283TIP3   OH2  812   4.344   3.923   0.622  0.1394  0.1709 -0.3209
  283TIP3    H1  813   4.407   3.976   0.574 -1.1201  0.5501 -1.6099
  283TIP3    H2  814   4.364   3.833   0.596 -0.1282  0.3259 -1.0819
  284TIP3   OH2  815   4.221   5.785   1.858 -0.0495  0.3283 -0.1888
  284TIP3    H1  816   4.170   5.771   1.937  0.5034  2.1782  0.5532
  284TIP3    H2  817   4.182   5.864   1.819  0.7501  0.4006 -0.8611
  285TIP3   OH2  818   3.481   4.427   4.862  0.3041 -0.0803  0.3038
  285TIP3    H1  819   3.530   4.423   4.944  0.9241  0.0170 -0.0534
  285TIP3    H2  820   3.533   4.485   4.806  1.4868 -2.4593 -1.2007
  286TIP3   OH2  821   1.495   5.870   1.074 -0.2287 -0.7225  0.7302
  286TIP3    H1  822   1.573   5.844   1.027 -0.2279  1.4069 -0.5736
  286TIP3    H2  823   1.430   5.802   1.053 -0.1803  0.0340 -2.2934
  287TIP3   OH2  824   6.427   1.638   5.336  0.3708 -0.0774 -0.2530
  287TIP3    H1  825   6.360   1.665   5.398  0.1242 -0.6443 -0.2651
  287TIP3    H2  826   6.447   1.717   5.285  0.5256  0.3717  0.4947
  288TIP3   OH2  827   4.535   5.048   0.642 -0.0763  0.3493 -0.0281
  288TIP3    H1  828   4.615   5.036   0.692  0.1144  2.1244  0.1722
  288TIP3    H2  829   4.465   5.038   0.707  0.0255 -0.2606 -0.0105
  289TIP3   OH2  830   6.324   1.490   4.594 -0.0703 -0.2053 -0.4224
  289TIP3    H1  831   6.375   1.571   4.595  0.9653 -0.8051 -1.6894
  289TIP3    H2  832   6.269   1.495   4.672 -1.0214  2.3276 -1.1749
  290TIP3   OH2  833   2.646   6.353   0.782 -0.3935  0.8467  0.7631
  290TIP3    H1  834   2.723   6.369   0.836  0.2238 -1.5007  0.6887
  290TIP3    H2  835   2.681   6.340   0.693 -0.5224 -2.1137  1.0239
  291TIP3   OH2  836   4.237   6.105   3.082 -0.4490 -0.2684 -0.4660
  291TIP3    H1  837   4.159   6.077   3.034 -1.3441  1.3605 -0.0477
  291TIP3    H2  838   4.218   6.195   3.108  1.0813 -0.2447  0.7210
  292TIP3   OH2  839   2.102   6.086   2.023 -0.5229 -0.2603  0.3173
  292TIP3    H1  840   2.018   6.044   2.008 -0.1931 -0.7216 -0.2557
  292TIP3    H2  841   2.092   6.174   1.988 -0.4553 -0.6361 -0.6752
  293TIP3   OH2  842   4.669   0.758   5.110  0.4915 -0.6470  0.0771
  293TIP3    H1  843   4.745   0.811   5.133 -0.3426  1.4059 -1.5596
  293TIP3    H2  844   4.705   0.679   5.070  1.7636 -0.8569  1.5595
  294TIP3   OH2  845   3.047   0.091   5.073  0.4490 -0.1001  0.2064
  294TIP3    H1  846   3.129   0.141   5.076  1.8116 -2.1796 -0.1226
  294TIP3    H2  847   3.069   0.013   5.022 -1.3830 -1.3609  1.2358
  295TIP3   OH2  848   0.765   6.442   1.196 -0.1492  0.4431  0.8095
  295TIP3    H1  849   0.837   6.394   1.237 -0.4113 -0.1142  0.6349
  295TIP3    H2  850   0.735   6.384   1.126  0.1135  1.2647  0.0092
  296TIP3   OH2  851   5.250   5.382   2.065  0.4389  0.2627 -0.0530
  296TIP3    H1  852   5.295   5.396   1.982  0.7058  1.1493  0.2385
  296TIP3    H2  853   5.176   5.441   2.063 -0.9554 -1.4134 -0.6703
  297TIP3   OH2  854   2.909   6.151   1.296  0.0682  0.2946  0.1189
  297TIP3    H1  855   2.933   6.081   1.357 -1.7398  1.2100  1.9968
  297TIP3    H2  856   2.965   6.136   1.220  1.0853 -2.0392  1.2136
  298TIP3   OH2  857   2.485   1.978   5.847  0.8354 -0.3887 -0.5839
  298TIP3    H1  858   2.525   1.978   5.934 -0.1790 -0.4996 -0.0983
  298TIP3    H2  859   2.391   1.977   5.864  0.6186 -0.3220 -1.6885
  299TIP3   OH2  860   3.999   0.761   5.548 -0.5476 -0.3913 -0.0470
  299TIP3    H1  861   3.997   0.758   5.643  2.2109 -1.4692  0.0678
  299TIP3    H2  862   4.088   0.789   5.526 -1.6701  1.8201 -2.3340
  300TIP3   OH2  863   5.199   0.112   3.171 -0.0143 -0.5619  0.6510
  300TIP3    H1  864   5.201   0.138   3.079  0.2402 -1.8356  0.2759
  300TIP3    H2  865   5.172   0.191   3.218  2.2714  0.8261 -0.2271
  301TIP3   OH2  866   3.887   4.039   4.753 -1.0219  0.1471 -0.6929
  301TIP3    H1  867   3.971   4.084   4.749 -0.6939 -0.4924 -3.2363
  301TIP3    H2  868   3.853   4.045   4.663 -3.4582 -0.0654  0.1466
  302TIP3   OH2  869   5.932   3.608   3.461 -0.6913 -0.3974 -0.2183
  302TIP3    H1  870   5.878   3.553   3.518  1.3207 -0.3794  1.8591
  302TIP3    H2  871   5.958   3.551   3.389 -0.4669 -1.5156  0.7152
  303TIP3   OH2  872   1.766   1.566   0.914 -0.2440  0.0156 -0.2941
  303TIP3    H1  873   1.843   1.580   0.858  0.3556 -0.0583  0.5017
  303TIP3    H2  874   1.744   1.474   0.901 -0.2808  0.0688 -0.6255
  304TIP3   OH2  875   3.681   1.847   0.404  0.1930 -0.4978  0.0122
  304TIP3    H1  876   3.645   1.762   0.382 -0.5405 -0.6879  1.8122
  304TIP3    H2  877   3.662   1.858   0.497  0.1402  1.6933 -0.2087
  305TIP3   OH2  878   5.123   0.599   3.111  0.0490  0.9068  0.6205
  305TIP3    H1  879   5.056   0.573   3.174 -0.8885  1.5094 -0.1139
  305TIP3    H2  880   5.184   0.525   3.110 -2.0082 -0.8837 -0.6645
  306TIP3   OH2  881   5.774   5.445   0.592 -0.1310 -0.0347 -0.0925
  306TIP3    H1  882   5.862   5.449   0.629  0.3781  1.1726 -1.3453
  306TIP3    H2  883   5.783   5.393   0.512 -0.6468 -0.2838  0.0049
  307TIP3   OH2  884   6.856   4.986   0.654 -0.3625 -0.5227  0.6692
  307TIP3    H1  885   6.874   5.048   0.725  1.0839 -2.0915  1.7579
  307TIP3    H2  886   6.925   4.920   0.662  0.3262 -0.4069 -2.6695
  308TIP3   OH2  887   1.016   3.931   1.091 -0.6979 -0.4772  0.1999
  308TIP3    H1  888   0.965   3.943   1.170 -2.0012 -1.1960 -0.5004
  308TIP3    H2  889   1.032   4.019   1.058 -0.1949 -0.1775  1.2038
  309TIP3   OH2  890   6.760   5.170   4.202 -0.0535  0.6011  0.5891
  309TIP3    H1  891   6.699   5.098   4.216  0.7998  0.1808  2.5847
  309TIP3    H2  892   6.730   5.212   4.122 -2.7079  0.1690  1.2527
  310TIP3   OH2  893   5.946   3.935   3.679 -0.1866  0.2999 -0.1554
  310TIP3    H1  894   5.861   3.891   3.678 -0.4065  0.7319 -0.8193
  310TIP3    H2  895   5.996   3.892   3.610  1.9801 -3.4213  3.2394
  311TIP3   OH2  896   3.941   2.853   4.156 -0.9101  0.1411 -0.0905
  311TIP3    H1  897   3.856   2.846   4.198 -0.8586  0.4566  0.0719
  311TIP3    H2  898   4.004   2.828   4.225 -0.7728  1.4190  0.2798
  312TIP3   OH2  899   7.143   3.685   1.458  0.6723  0.1567  0.1219
  312TIP3    H1  900   7.060   3.729   1.478  0.2958  1.0017 -2.7361
  312TIP3    H2  901   7.209   3.755   1.464  0.3221  0.8707 -2.7047
  313TIP3   OH2  902   0.368   3.147   1.495  0.1911 -0.4053 -0.1153
  313TIP3    H1  903   0.343   3.089   1.422  0.5686  1.6822 -1.9994
  313TIP3    H2  904   0.464   3.145   1.495  0.3389  2.1204 -1.9536
  314TIP3   OH2  905   1.578   3.065   2.699 -0.6340 -0.0262  0.2170
  314TIP3    H1  906   1.554   3.023   2.782 -0.3980 -0.0562  0.2704
  314TIP3    H2  907   1.614   2.994   2.646 -1.1991 -0.0969 -0.0788
  315TIP3   OH2  908   7.196   2.218   3.184 -0.3085 -0.0865 -0.0607
  315TIP3    H1  909   7.142   2.154   3.138 -1.1539 -0.6132  1.6050
  315TIP3    H2  910   7.279   2.172   3.199 -0.1364 -0.0166 -0.7649
  316TIP3   OH2  911   4.923   6.043   4.091  0.0309  0.2008  0.3844
  316TIP3    H1  912   4.919   6.130   4.050 -0.2429  0.2530  0.5152
  316TIP3    H2  913   5.013   6.034   4.120  0.4731 -0.2117 -1.0309
  317TIP3   OH2  914   0.429   3.638   5.324 -0.5341  0.3993 -0.5366
  317TIP3    H1  915   0.388   3.565   5.370 -0.2016  1.9633  2.4799
  317TIP3    H2  916   0.523   3.625   5.338 -0.5200  2.0135  1.1766
  318TIP3   OH2  917   4.962   6.592   4.747 -0.2991  0.1704 -0.4510
  318TIP3    H1  918   5.023   6.526   4.778 -1.4871 -0.2073  1.2363
  318TIP3    H2  919   4.944   6.569   4.656 -0.4910 -1.6906  0.0307
  319TIP3   OH2  920   6.239   5.198   1.876  0.2647  0.4882  0.1878
  319TIP3    H1  921   6.213   5.284   1.843  0.7072  0.1616 -1.0513
  319TIP3    H2  922   6.291   5.217   1.954 -0.0582  1.3170  0.2096
  320TIP3   OH2  923   4.775   3.554   4.121  0.5200  0.0646 -0.3824
  320TIP3    H1  924   4.777   3.491   4.193 -0.1411  0.5930  0.1137
  320TIP3    H2  925   4.856   3.604   4.129  0.8046 -0.3822 -0.4696
  321TIP3   OH2  926   0.757   0.145   0.399 -0.3360 -0.0096  0.0089
  321TIP3    H1  927   0.677   0.165   0.351 -0.7322 -0.1910  0.5759
  321TIP3    H2  928   0.828   0.172   0.341 -0.7045 -2.6545 -1.8493
  322TIP3   OH2  929   3.191   4.088   0.368  0.1240  0.3295  0.1583
  322TIP3    H1  930   3.274   4.045   0.391  0.5903  0.5387 -1.0362
  322TIP3    H2  931   3.176   4.064   0.277 -1.1479  0.2990  0.3626
  323TIP3   OH2  932   4.875   1.506   0.496 -0.3724 -0.5345  0.2419
  323TIP3    H1  933   4.896   1.544   0.410 -2.8349 -0.2067 -0.2971
  323TIP3    H2  934   4.910   1.569   0.559  0.2675 -0.0813 -0.5336
  324TIP3   OH2  935   5.101   5.272   0.424  0.5086  1.0355  0.1898
  324TIP3    H1  936   5.040   5.237   0.489 -0.2670  1.7100 -0.1451
  324TIP3    H2  937   5.177   5.300   0.474  0.7312 -0.2054  0.5703
  325TIP3   OH2  938   1.079   1.705   2.020 -0.2534 -0.0452 -0.1821
  325TIP3    H1  939   1.167   1.723   1.987 -0.3697  0.4516 -0.2305
  325TIP3    H2  940   1.090   1.695   2.114 -0.1564  0.1228 -0.1741
  326TIP3   OH2  941   3.580   2.428   1.202 -0.3896 -0.1494  0.6675
  326TIP3    H1  942   3.675   2.439   1.200 -0.4264  0.3026  1.1708
  326TIP3    H2  943   3.566   2.337   1.176  0.2385 -0.5568  1.7021
  327TIP3   OH2  944   6.948   4.823   4.235  0.1092  0.1938  0.2585
  327TIP3    H1  945   7.016   4.873   4.190  0.7097 -0.8077  0.0507
  327TIP3    H2  946   6.946   4.861   4.323  1.4481 -0.2353  0.4994
  328TIP3   OH2  947   6.124   0.661   3.722  0.2554 -0.0729  0.0514
  328TIP3    H1  948   6.105   0.723   3.792  0.6429  0.0907  0.0126
  328TIP3    H2  949   6.217   0.674   3.703  0.0547  0.1744 -0.7766
  329TIP3   OH2  950   0.217   4.683   4.365 -0.9224  0.6441 -0.1326
  329TIP3    H1  951   0.258   4.768   4.355  1.4645 -0.4815 -0.7024
  329TIP3    H2  952   0.250   4.650   4.448  0.8046 -0.9583 -1.3538
  330TIP3   OH2  953   3.957   6.596   2.587 -0.6540 -0.0027 -0.4827
  330TIP3    H1  954   3.937   6.534   2.517 -2.1511  0.2011 -0.2709
  330TIP3    H2  955   3.932   6.551   2.668 -1.5426  0.7557 -0.3069
  331TIP3   OH2  956   4.526   5.962   3.851 -0.0763 -0.1902 -0.2943
  331TIP3    H1  957   4.528   6.055   3.875  0.7493 -0.0085 -1.0401
  331TIP3    H2  958   4.455   5.955   3.787  0.0946 -0.0111 -0.5023
  332TIP3   OH2  959   6.927   1.361   4.121  0.1197  0.0373 -0.4225
  332TIP3    H1  960   6.858   1.298   4.140 -0.5147  0.9403  0.3755
  332TIP3    H2  961   6.883   1.446   4.121  0.5662  0.3732 -3.4565
  333TIP3   OH2  962   0.737   4.289   4.818  0.4601  0.0555 -0.1227
  333TIP3    H1  963   0.761   4.339   4.740  1.8003  0.1006  0.2884
  333TIP3    H2  964   0.765   4.199   4.798 -0.7683 -0.2986 -0.3519
  334TIP3   OH2  965   4.022   6.664   3.729  0.2608  0.0810 -0.0405
  334TIP3    H1  966   4.088   6.727   3.699  0.6387  0.1164  0.8376
  334TIP3    H2  967   3.939   6.701   3.698  0.1280  2.5958  2.7891
  335TIP3   OH2  968   0.586   1.850   4.783  0.3502  0.5516 -0.6552
  335TIP3    H1  969   0.639   1.859   4.704 -0.1977 -0.6812 -1.1951
  335TIP3    H2  970   0.503   1.892   4.761 -0.1741 -0.6787 -1.1407
  336TIP3   OH2  971   2.913   2.984   0.593  0.7655 -0.6869  0.2791
  336TIP3    H1  972   2.845   2.935   0.641  1.3997 -1.5188  0.3573
  336TIP3    H2  973   2.993   2.935   0.610  1.3168  0.0587 -0.1485
  337TIP3   OH2  974   6.911   1.250   0.448 -0.3924  0.0131  0.0218
  337TIP3    H1  975   6.905   1.170   0.395 -0.7146  0.3840 -0.5152
  337TIP3    H2  976   6.914   1.320   0.383  0.7797  0.3885  0.4697
  338TIP3   OH2  977   0.299   2.080   0.385 -0.5167  0.3433 -0.0945
  338TIP3    H1  978   0.386   2.089   0.424 -0.3465  1.6235 -0.7330
  338TIP3    H2  979   0.258   2.009   0.434  0.0694  1.2141  1.7451
  339TIP3   OH2  980   2.800   4.364   0.763  0.0631  0.0636  0.0072
  339TIP3    H1  981   2.801   4.273   0.794 -1.0485 -0.6004 -1.7277
  339TIP3    H2  982   2.884   4.399   0.789  0.2538 -1.2633  1.3114
  340TIP3   OH2  983   1.004   5.820   5.487  0.7654  0.0786  0.4704
  340TIP3    H1  984   1.074   5.856   5.433 -0.2671  2.1351  0.3631
  340TIP3    H2  985   0.925   5.830   5.433 -0.5142  3.3628  2.6365
  341TIP3   OH2  986   3.429   5.637   3.884 -0.3425 -0.4137  0.1897
  341TIP3    H1  987   3.508   5.599   3.846 -0.2004  0.9956 -1.0071
  341TIP3    H2  988   3.413   5.715   3.832 -1.5218  0.2933  1.5594
  342TIP3   OH2  989   2.202   4.124   2.229 -0.7199 -0.6060 -0.4411
  342TIP3    H1  990   2.169   4.048   2.277 -0.5293 -0.1602  0.4163
  342TIP3    H2  991   2.267   4.164   2.287  1.3577 -1.4296 -2.0711
  343TIP3   OH2  992   0.652   1.911   4.496 -0.0544  0.3822  0.1889
  343TIP3    H1  993   0.729   1.961   4.469  0.3329  0.1067  0.7674
  343TIP3    H2  994   0.584   1.936   4.433 -0.4135  3.0014  1.4901
  344TIP3   OH2  995   5.455   1.417   3.138  0.0712 -0.0423  0.3878
  344TIP3    H1  996   5.487   1.328   3.129  1.5435  0.2653  1.9602
  344TIP3    H2  997   5.398   1.414   3.215 -1.7085 -0.0519 -0.8798
  345TIP3   OH2  998   4.638   0.058   3.069  0.2033 -0.5887  0.3625
  345TIP3    H1  999   4.652   0.099   3.154 -0.5046  1.3538 -0.3953
  345TIP3    H2 1000   4.576   0.117   3.024  0.1768 -1.8192 -1.3024
  346TIP3   OH2 1001   2.775   4.117   5.172 -0.1697  0.1093  0.7160
  346TIP3    H1 1002   2.722   4.042   5.147 -0.7350 -0.2471  2.7845
  346TIP3    H2 1003   2.807   4.152   5.090 -0.4796 -1.9609 -0.3554
  347TIP3   OH2 1004   5.751   3.835   5.087 -0.0584  0.8636  0.0361
  347TIP3    H1 1005   5.808   3.853   5.012 -0.7389  1.2722 -0.3877
  347TIP3    H2 1006   5.772   3.745   5.111 -0.2395  0.5240 -1.0179
  348TIP3   OH2 1007   6.209   1.755   4.089 -0.0307 -0.1305  0.0837
  348TIP3    H1 1008   6.193   1.672   4.044  1.6074 -1.1450  1.2524
  348TIP3    H2 1009   6.304   1.766   4.086 -0.0688  0.8046  1.4426
  349TIP3   OH2 1010   2.142   4.795   5.857  0.1823  0.2585 -0.3910
  349TIP3    H1 1011   2.054   4.768   5.883  0.8622  0.4594  2.4583
  349TIP3    H2 1012   2.199   4.725   5.891  1.2985  1.2970 -0.0471
  350TIP3   OH2 1013   2.068   2.316   2.451 -0.0334 -0.0247 -0.0465
  350TIP3    H1 1014   2.155   2.279   2.466 -0.2126 -0.3726  0.1262
  350TIP3    H2 1015   2.054   2.374   2.526  0.5219  0.9218 -0.6475
  351TIP3   OH2 1016   2.726   1.588   0.133 -0.6948  0.5087  0.2363
  351TIP3    H1 1017   2.659   1.563   0.197 -1.0678 -0.4990 -0.5219
  351TIP3    H2 1018   2.780   1.510   0.123 -0.4141  0.7800 -0.4087
  352TIP3   OH2 1019   6.471   6.384   0.422  0.4917  0.5007  0.6132
  352TIP3    H1 1020   6.500   6.314   0.480 -0.8559  1.0487  2.0169
  352TIP3    H2 1021   6.378   6.365   0.405  0.8592  0.3018 -1.4971
  353TIP3   OH2 1022   5.321   6.264   0.241 -0.5013  0.5148 -0.8168
  353TIP3    H1 1023   5.360   6.250   0.154 -1.2318  1.1257 -1.2500
  353TIP3    H2 1024   5.359   6.346   0.271 -1.4140  1.0945 -1.2250
  354TIP3   OH2 1025   1.683   2.027   2.584  0.1167 -0.3351  0.0618
  354TIP3    H1 1026   1.635   2.087   2.642  1.6604  0.8688  0.1593
  354TIP3    H2 1027   1.773   2.031   2.615  0.9089 -0.0439 -2.0879
  355TIP3   OH2 1028   4.839   0.217   0.811 -0.0654 -0.1135  0.3555
  355TIP3    H1 1029   4.835   0.154   0.882  2.1188 -0.3396  0.3702
  355TIP3    H2 1030   4.848   0.164   0.732 -0.2651  0.1602  0.1467
  356TIP3   OH2 1031   6.276   2.685   4.036 -0.4037  0.2231  0.0468
  356TIP3    H1 1032   6.280   2.682   3.940  1.5891  0.5615  0.0772
  356TIP3    H2 1033   6.360   2.723   4.062 -0.5942 -0.5840  1.9689
  357TIP3   OH2 1034   2.873   6.148   2.360 -0.2577  0.1286 -0.4853
  357TIP3    H1 1035   2.836   6.196   2.286  0.9300  3.0850  0.6616
  357TIP3    H2 1036   2.797   6.121   2.411 -1.0090 -0.0704 -1.6775
  358TIP3   OH2 1037   2.289   5.536   5.395  0.1398  0.3137 -0.1065
  358TIP3    H1 1038   2.330   5.570   5.474 -0.5949  2.4749 -0.5709
  358TIP3    H2 1039   2.355   5.549   5.326 -0.7967  2.7804 -0.6481
  359TIP3   OH2 1040   1.781   3.646   4.385 -0.0059 -0.0351 -0.0527
  359TIP3    H1 1041   1.862   3.676   4.426 -0.4171  0.4722  0.3974
  359TIP3    H2 1042   1.711   3.675   4.444 -0.6364  0.8818 -1.2089
  360TIP3   OH2 1043   4.357   2.630   5.051 -0.2333  0.1430 -0.6045
  360TIP3    H1 1044   4.341   2.597   4.962 -0.9676 -1.9762  0.2517
  360TIP3    H2 1045   4.351   2.725   5.043 -2.0662 -0.0697 -2.5076
  361TIP3   OH2 1046   1.048   3.733   4.601 -0.6644 -0.2908 -0.2665
  361TIP3    H1 1047   1.043   3.786   4.522  1.6968  0.1918 -0.1608
  361TIP3    H2 1048   0.956   3.722   4.628 -1.4272  0.8121 -2.1887
  362TIP3   OH2 1049   5.380   5.502   5.828 -0.5198  0.1601 -0.1640
  362TIP3    H1 1050   5.411   5.548   5.750 -1.0594  1.5056  0.3770
  362TIP3    H2 1051   5.290   5.532   5.839  0.7131  3.4119  3.2877
  363TIP3   OH2 1052   0.724   2.209   5.763  0.0577  0.2378  0.4948
  363TIP3    H1 1053   0.721   2.129   5.711  0.1831  0.0001  0.8474
  363TIP3    H2 1054   0.666   2.270   5.717  0.1079  0.0069  0.1235
  364TIP3   OH2 1055   3.227   2.338   0.711 -0.1375 -0.1816  0.0296
  364TIP3    H1 1056   3.283   2.415   0.719  1.0634 -0.9737 -0.3564
  364TIP3    H2 1057   3.186   2.328   0.797 -0.1671  0.7829  0.1298
  365TIP3   OH2 1058   4.821   0.080   3.652  0.0241 -0.3137 -0.1616
  365TIP3    H1 1059   4.897   0.030   3.683  0.5253 -0.4495 -1.5392
  365TIP3    H2 1060   4.784   0.119   3.731 -0.2782 -2.7067  0.9608
  366TIP3   OH2 1061   3.378   3.250   4.785  0.1042 -0.4797 -0.1524
  366TIP3    H1 1062   3.347   3.205   4.863 -0.4830 -0.7489 -0.5289
  366TIP3    H2 1063   3.441   3.189   4.745  0.3143 -0.3925  0.0452
  367TIP3   OH2 1064   0.682   4.228   0.577 -0.3229 -0.0213  0.4215
  367TIP3    H1 1065   0.705   4.141   0.546 -0.1513  0.0697  0.2897
  367TIP3    H2 1066   0.763   4.263   0.613 -0.3062  0.2176  0.1565
  368TIP3   OH2 1067   3.128   5.067   4.607  0.4028 -0.6203  0.7622
  368TIP3    H1 1068   3.084   5.072   4.691 -1.2903 -0.7904 -0.0660
  368TIP3    H2 1069   3.132   5.158   4.576 -1.1656 -0.7821 -0.0084
  369TIP3   OH2 1070   2.469   3.280   5.832  0.5607 -0.1218 -0.1399
  369TIP3    H1 1071   2.436   3.306   5.918  1.1710  1.1163 -0.2498
  369TIP3    H2 1072   2.560   3.310   5.831  0.2221  0.9946 -1.6419
  370TIP3   OH2 1073   2.332   6.619   3.017  0.1964  0.8613 -0.2439
  370TIP3    H1 1074   2.353   6.631   2.924 -0.6484  1.1099 -0.4103
  370TIP3    H2 1075   2.321   6.708   3.050  1.8700  0.8585  0.4467
  371TIP3   OH2 1076   2.825   2.344   0.069  0.0020  0.7045 -0.6327
  371TIP3    H1 1077   2.898   2.285   0.050 -0.1209 -0.5829  2.3040
  371TIP3    H2 1078   2.866   2.419   0.112 -0.2706  0.2699  0.4369
  372TIP3   OH2 1079   6.170   2.049   4.125 -0.0746 -0.0324  0.0693
  372TIP3    H1 1080   6.112   2.042   4.048 -2.1335 -0.3120  1.5662
  372TIP3    H2 1081   6.156   1.967   4.172  2.6876 -0.7460 -0.1930
  373TIP3   OH2 1082   3.943   5.935   4.816 -0.0232  0.0568  0.4101
  373TIP3    H1 1083   3.977   5.955   4.728 -0.9859 -0.7423 -0.1625
  373TIP3    H2 1084   4.000   5.865   4.848  0.1849  0.1863  0.3259
  374TIP3   OH2 1085   0.126   4.993   3.293 -0.7898 -0.0542  0.1540
  374TIP3    H1 1086   0.110   4.899   3.283 -1.0279  0.1842 -2.3724
  374TIP3    H2 1087   0.084   5.033   3.217 -0.5789  2.1058  1.0969
  375TIP3   OH2 1088   6.704   1.345   3.813 -0.6096  0.5210  0.3808
  375TIP3    H1 1089   6.703   1.260   3.857 -1.2452  1.3683  2.0773
  375TIP3    H2 1090   6.613   1.376   3.819 -0.0893  2.0025  1.2047
  376TIP3   OH2 1091   1.992   0.789   4.311 -0.5776 -0.6712 -0.1665
  376TIP3    H1 1092   2.061   0.854   4.298  0.3025 -1.5786 -0.1162
  376TIP3    H2 1093   1.915   0.841   4.335 -0.1093  0.4071 -0.9123
  377TIP3   OH2 1094   2.688   0.022   1.474  0.4152  0.3256  0.3252
  377TIP3    H1 1095   2.714   0.109   1.446 -0.4945  0.8784  1.1449
  377TIP3    H2 1096   2.643   0.036   1.557  1.3677 -1.0597  1.1101
  378TIP3   OH2 1097   1.195   5.713   4.007  0.6532 -0.1992 -0.2448
  378TIP3    H1 1098   1.231   5.674   4.086 -0.2630  0.3036  0.4456
  378TIP3    H2 1099   1.236   5.800   4.002 -1.2736  0.8876  1.2359
  379TIP3   OH2 1100   0.035   6.488   4.513 -0.2371 -0.0446  0.0006
  379TIP3    H1 1101   0.020   6.394   4.518  0.2429 -0.0812  0.8348
  379TIP3    H2 1102   0.023   6.509   4.420 -0.4886 -0.8958 -0.1690
  380TIP3   OH2 1103   3.006   0.399   0.089  0.0724 -0.1471  0.2421
  380TIP3    H1 1104   3.102   0.404   0.092  0.0666 -0.3089  0.7953
  380TIP3    H2 1105   2.978   0.483   0.125  0.0104 -0.6971  1.5527
  381TIP3   OH2 1106   5.055   6.365   5.047  0.1757  0.5977  0.1013
  381TIP3    H1 1107   5.022   6.428   5.111  1.4390 -1.0603  2.5345
  381TIP3    H2 1108   4.982   6.304   5.034  0.4941 -0.1035  1.4451
  382TIP3   OH2 1109   5.815   6.540   0.746  0.0296  0.5776  0.2968
  382TIP3    H1 1110   5.768   6.458   0.760 -0.3630  0.9370  1.2129
  382TIP3    H2 1111   5.754   6.608   0.776  0.8956  1.0972  0.9248
  383TIP3   OH2 1112   4.259   0.722   5.430 -0.4511 -0.3721  0.5890
  383TIP3    H1 1113   4.218   0.699   5.347 -0.6369  0.8275  0.3332
  383TIP3    H2 1114   4.353   0.720   5.412 -0.5042  0.6702  0.1093
  384TIP3   OH2 1115   5.011   5.241   3.382 -1.0668  0.0252  0.2515
  384TIP3    H1 1116   4.992   5.283   3.298 -3.1001  1.4340  1.3359
  384TIP3    H2 1117   5.100   5.206   3.371 -1.1822  0.3461 -2.3817
  385TIP3   OH2 1118   5.530   4.488   0.635  0.2969 -0.1332 -0.3029
  385TIP3    H1 1119   5.593   4.557   0.614  1.3977 -1.2744 -0.9247
  385TIP3    H2 1120   5.513   4.446   0.550 -0.5885 -0.4296  0.0163
  386TIP3   OH2 1121   3.463   1.222   1.745  0.2493 -0.1141 -0.2437
  386TIP3    H1 1122   3.526   1.174   1.692  1.0322  1.2728 -0.6268
  386TIP3    H2 1123   3.504   1.228   1.831  0.0530 -0.3126 -0.1353
  387TIP3   OH2 1124   1.130   6.826   1.007  0.3478 -0.1862 -0.0528
  387TIP3    H1 1125   1.119   6.731   1.020 -0.6644 -0.0217  0.3612
  387TIP3    H2 1126   1.071   6.847   0.935 -2.7984  0.8128  2.5831
  388TIP3   OH2 1127   4.283   5.520   5.507  0.6197  0.5317  0.1867
  388TIP3    H1 1128   4.343   5.574   5.456  1.9609 -0.7451  0.3342
  388TIP3    H2 1129   4.338   5.448   5.540 -0.7945 -0.1550  1.1444
  389TIP3   OH2 1130   0.661   5.527   5.705 -0.0332  0.1318 -0.3621
  389TIP3    H1 1131   0.706   5.597   5.752  1.1594 -0.3573 -0.7497
  389TIP3    H2 1132   0.589   5.502   5.763  1.0965 -0.1058  0.9668
  390TIP3   OH2 1133   6.896   0.178   5.129 -0.8062  0.0084 -0.3657
  390TIP3    H1 1134   6.885   0.263   5.087 -1.7740 -0.4012 -0.9909
  390TIP3    H2 1135   6.912   0.118   5.056 -0.3572 -0.3872  0.0499
  391TIP3   OH2 1136   3.859   6.177   4.014  0.4759  0.4202 -0.3008
  391TIP3    H1 1137   3.768   6.173   4.041  0.7093  1.7972  0.7604
  391TIP3    H2 1138   3.857   6.212   3.925 -0.2164 -3.0462 -1.8225
  392TIP3   OH2 1139   1.372   1.266   0.500 -0.0093  0.0841 -0.2555
  392TIP3    H1 1140   1.285   1.267   0.459  1.0633 -0.3967 -2.7192
  392TIP3    H2 1141   1.414   1.346   0.469  0.5782  0.1163  0.5939
  393TIP3   OH2 1142   7.183   5.995   4.961  0.2573  0.1180 -0.3309
  393TIP3    H1 1143   7.192   6.013   5.055 -1.1123 -2.6197  0.4266
  393TIP3    H2 1144   7.126   6.065   4.929 -0.1714  0.4623  1.1126
  394TIP3   OH2 1145   6.474   5.049   4.205 -0.7756  0.3869 -0.4773
  394TIP3    H1 1146   6.476   5.112   4.276  1.8158 -0.0358 -0.0675
  394TIP3    H2 1147   6.455   4.965   4.247  0.0754  0.2425 -0.3741
  395TIP3   OH2 1148   2.707   3.627   4.343 -0.2738  0.0497 -0.5733
  395TIP3    H1 1149   2.779   3.641   4.281 -0.4291  0.1265 -0.7352
  395TIP3    H2 1150   2.636   3.683   4.311  0.6781  2.6565  1.4585
  396TIP3   OH2 1151   2.365   3.605   5.841  0.6114 -0.2332  0.0824
  396TIP3    H1 1152   2.351   3.539   5.909 -1.3921  2.4533  2.5119
  396TIP3    H2 1153   2.291   3.592   5.782  0.9865 -0.9833 -0.2433
  397TIP3   OH2 1154   3.992   5.554   3.257  0.2569  0.0699  0.7567
  397TIP3    H1 1155   4.037   5.473   3.279 -0.6582 -0.7808 -0.3525
  397TIP3    H2 1156   3.904   5.542   3.292 -0.8224 -0.7522 -1.9381
  398TIP3   OH2 1157   5.491   2.455   2.593  0.5095 -0.1397  0.1742
  398TIP3    H1 1158   5.462   2.458   2.502  0.7477 -0.2515  0.0943
  398TIP3    H2 1159   5.469   2.542   2.628  1.6120  0.3761 -0.3592
  399TIP3   OH2 1160   6.713   3.182   3.768  0.0794  0.1194  0.0202
  399TIP3    H1 1161   6.632   3.155   3.725 -0.1801 -0.2855  0.7574
  399TIP3    H2 1162   6.706   3.150   3.857 -0.3733  2.8239  1.0628
  400TIP3   OH2 1163   6.164   4.862   5.613 -0.0228  0.2976  0.1264
  400TIP3    H1 1164   6.230   4.796   5.637 -0.2999 -0.6137 -1.4362
  400TIP3    H2 1165   6.114   4.876   5.693 -0.7582 -2.3951  0.2459
  401TIP3   OH2 1166   6.934   6.566   2.615  0.5313 -0.5007  0.2915
  401TIP3    H1 1167   6.888   6.522   2.687  1.8232 -0.5612  1.1210
  401TIP3    H2 1168   7.003   6.617   2.658 -0.4109  1.7720 -0.6892
  402TIP3   OH2 1169   2.217   3.450   5.235  0.4297 -0.0724  0.4154
  402TIP3    H1 1170   2.245   3.445   5.144 -0.6914 -0.8984  0.0964
  402TIP3    H2 1171   2.180   3.538   5.244 -0.9848 -0.5370 -0.4221
  403TIP3   OH2 1172   2.699   6.086   3.061  0.2481  0.0081 -0.4625
  403TIP3    H1 1173   2.791   6.064   3.042  0.1776 -2.0708  1.1105
  403TIP3    H2 1174   2.650   6.009   3.032 -0.8495  0.5901 -0.1891
  404TIP3   OH2 1175   5.780   6.095   1.202  0.0495  0.0793 -0.1342
  404TIP3    H1 1176   5.716   6.101   1.273 -1.2638  0.2149 -1.2831
  404TIP3    H2 1177   5.852   6.044   1.239 -0.0911  1.0880  1.6328
  405TIP3   OH2 1178   4.887   4.613   3.790  0.1043 -0.1049 -0.5563
  405TIP3    H1 1179   4.945   4.657   3.728 -2.3066  1.6126 -1.7377
  405TIP3    H2 1180   4.837   4.551   3.737 -0.7120  0.0669 -0.0089
  406TIP3   OH2 1181   2.108   2.366   4.336  0.0995 -0.3753 -0.0923
  406TIP3    H1 1182   2.073   2.437   4.390  0.7641 -0.3048  0.2627
  406TIP3    H2 1183   2.085   2.389   4.246  1.4058  0.9609 -0.1243
  407TIP3   OH2 1184   6.000   2.194   2.674  0.3945  0.1231 -0.0790
  407TIP3    H1 1185   6.003   2.290   2.672  1.2565  0.0896 -1.1104
  407TIP3    H2 1186   6.088   2.166   2.649  0.3965 -0.9542  1.0260
  408TIP3   OH2 1187   1.814   4.191   3.757 -0.2302  0.2894  0.2852
  408TIP3    H1 1188   1.785   4.268   3.709  0.0124  0.5766  0.5969
  408TIP3    H2 1189   1.750   4.123   3.734 -0.1761  0.4474 -0.3624
  409TIP3   OH2 1190   6.959   3.901   4.004  0.4424  0.0158  0.1625
  409TIP3    H1 1191   6.925   3.983   4.040  0.1919  0.5934 -1.3611
  409TIP3    H2 1192   6.883   3.857   3.966  0.2846 -1.6582  2.2188
  410TIP3   OH2 1193   4.616   2.322   3.237  0.4704 -0.2284 -0.2060
  410TIP3    H1 1194   4.521   2.333   3.232  0.1388 -2.5515 -0.0110
  410TIP3    H2 1195   4.639   2.358   3.323 -0.0483  1.2800 -0.6724
  411TIP3   OH2 1196   3.283   3.596   1.419  0.0153  0.3996  0.4915
  411TIP3    H1 1197   3.343   3.653   1.372 -0.6128  1.5215  1.0228
  411TIP3    H2 1198   3.333   3.567   1.495  0.5561 -0.3079 -0.1117
  412TIP3   OH2 1199   2.995   3.475   3.393  0.4374  0.1472  0.3988
  412TIP3    H1 1200   3.047   3.414   3.341  0.5784 -0.6368  1.4054
  412TIP3    H2 1201   2.922   3.498   3.337 -0.2760 -1.9150  0.3846
  413TIP3   OH2 1202   0.928   6.229   2.533  0.0131 -0.2304 -0.2546
  413TIP3    H1 1203   0.945   6.139   2.505  1.0562 -0.1366  0.0671
  413TIP3    H2 1204   0.971   6.236   2.618 -0.5195  0.4207 -0.0359
  414TIP3   OH2 1205   2.526   2.595   0.365  0.2677 -0.1266  0.8150
  414TIP3    H1 1206   2.487   2.680   0.386 -1.7196 -0.7042 -0.2628
  414TIP3    H2 1207   2.618   2.604   0.390 -0.4954  1.3246  3.5546
  415TIP3   OH2 1208   4.916   0.255   5.715  0.3170  0.2449  0.1237
  415TIP3    H1 1209   4.982   0.307   5.760  1.3106 -1.6790  1.0406
  415TIP3    H2 1210   4.927   0.275   5.623  1.3437  0.8977  0.3713
  416TIP3   OH2 1211   0.062   3.120   1.489 -0.7943 -0.2353  0.1663
  416TIP3    H1 1212  -0.013   3.136   1.431 -2.4101  2.9365  2.7743
  416TIP3    H2 1213   0.125   3.188   1.467 -0.1679 -0.7556  0.3056
  417TIP3   OH2 1214   5.199   2.620   3.751 -0.9908 -0.2404 -0.0257
  417TIP3    H1 1215   5.262   2.600   3.821 -2.2517 -1.1001  0.9080
  417TIP3    H2 1216   5.244   2.595   3.670  0.0133 -0.4590  0.5855
  418TIP3   OH2 1217   4.080   1.124   0.707 -0.6505 -0.4293  0.3517
  418TIP3    H1 1218   4.022   1.150   0.635 -0.6487  1.3476  0.9578
  418TIP3    H2 1219   4.094   1.030   0.692  0.9394  0.1957 -3.1252
  419TIP3   OH2 1220   5.607   5.637   4.659 -0.2890 -0.0335 -0.7493
  419TIP3    H1 1221   5.664   5.590   4.720  0.8744  1.6580 -0.4422
  419TIP3    H2 1222   5.542   5.680   4.714 -1.6616 -1.6048 -1.0682
  420TIP3   OH2 1223   6.685   6.400   4.491  0.3443 -0.5112  0.4408
  420TIP3    H1 1224   6.617   6.466   4.477  1.2699  0.0493 -1.7160
  420TIP3    H2 1225   6.639   6.316   4.479 -0.9114 -0.3877  3.5288
  421TIP3   OH2 1226   6.703   2.170   3.944  0.4743  0.1455 -0.0116
  421TIP3    H1 1227   6.691   2.204   4.032 -0.4472  1.1308 -0.5000
  421TIP3    H2 1228   6.713   2.075   3.956 -0.2133  0.2001  1.1070
  422TIP3   OH2 1229   1.688   6.360   3.736  0.0558 -0.2282 -0.0683
  422TIP3    H1 1230   1.778   6.336   3.711  0.5191  0.1518  1.1502
  422TIP3    H2 1231   1.693   6.372   3.831 -1.4578 -0.9065  0.1153
  423TIP3   OH2 1232   3.632   4.304   3.488  0.5509 -0.2949  0.1902
  423TIP3    H1 1233   3.643   4.212   3.512 -1.0539 -0.4773  0.2975
  423TIP3    H2 1234   3.658   4.352   3.567 -0.2854 -0.7285  0.7393
  424TIP3   OH2 1235   2.664   0.869   0.280  0.1322 -0.1051 -0.8085
  424TIP3    H1 1236   2.675   0.805   0.350  0.9289  1.4722  0.5545
  424TIP3    H2 1237   2.752   0.904   0.264 -0.5227  1.9375 -0.2403
  425TIP3   OH2 1238   6.448   5.688   2.437 -0.2021  0.2214 -0.5730
  425TIP3    H1 1239   6.388   5.751   2.477 -2.3143 -1.4038 -1.0169
  425TIP3    H2 1240   6.476   5.730   2.355 -1.3479  0.7192 -0.7304
  426TIP3   OH2 1241   1.602   4.038   0.899  0.2412 -0.3099 -0.2427
  426TIP3    H1 1242   1.519   4.007   0.865 -0.2279  1.1018 -0.4619
  426TIP3    H2 1243   1.644   4.081   0.825  0.2084  0.8371  0.3823
  427TIP3   OH2 1244   6.255   0.197   2.148  0.4897  0.0286 -1.1136
  427TIP3    H1 1245   6.210   0.274   2.112  0.9502  0.3444 -1.0184
  427TIP3    H2 1246   6.204   0.122   2.115 -1.2620  0.4184  0.5276
  428TIP3   OH2 1247   5.704   3.857   3.794 -0.0799 -0.0562  0.1207
  428TIP3    H1 1248   5.633   3.882   3.735  0.9929  1.6387 -0.5530
  428TIP3    H2 1249   5.687   3.766   3.816 -2.4342  0.3065 -0.0072
  429TIP3   OH2 1250   1.769   6.171   4.223  0.0060  0.1890 -0.3157
  429TIP3    H1 1251   1.740   6.236   4.287 -0.4262  0.9169 -1.2229
  429TIP3    H2 1252   1.790   6.222   4.145  0.6006 -0.6732 -0.7331
  430TIP3   OH2 1253   6.788   3.138   0.844 -0.1037  0.1536  0.5563
  430TIP3    H1 1254   6.836   3.074   0.898 -2.9430 -0.8565  2.0914
  430TIP3    H2 1255   6.844   3.150   0.768  1.9341 -1.9635  1.5552
  431TIP3   OH2 1256   0.411   1.717   0.244  0.1568  0.0302 -0.0008
  431TIP3    H1 1257   0.505   1.701   0.247  0.2158 -0.0945 -1.4410
  431TIP3    H2 1258   0.375   1.636   0.207 -0.3043  0.7007 -1.0690
  432TIP3   OH2 1259   4.857   4.114   4.551  0.3993 -0.0257 -0.4136
  432TIP3    H1 1260   4.913   4.036   4.550  0.2102 -0.1603 -1.0228
  432TIP3    H2 1261   4.914   4.184   4.581  0.2346 -0.6396  1.4750
  433TIP3   OH2 1262   3.838   0.210   1.757  0.8542  0.1878 -0.5414
  433TIP3    H1 1263   3.842   0.299   1.793 -0.5093  0.5342 -1.1993
  433TIP3    H2 1264   3.856   0.154   1.832 -2.4316  0.8685  0.9244
  434TIP3   OH2 1265   0.855   3.887   5.566 -0.3192 -0.1050 -0.5999
  434TIP3    H1 1266   0.817   3.971   5.542  0.0887  0.4902  0.7366
  434TIP3    H2 1267   0.883   3.848   5.483 -2.1850  0.2324 -1.4301
  435TIP3   OH2 1268   1.764   2.597   0.605 -0.2531 -0.2266  0.0822
  435TIP3    H1 1269   1.753   2.676   0.552  0.5037  0.4606  0.9181
  435TIP3    H2 1270   1.818   2.539   0.550  0.6792  0.5463  0.1458
  436TIP3   OH2 1271   5.916   0.643   3.414  0.7405  0.0945  0.0612
  436TIP3    H1 1272   5.975   0.671   3.484 -0.1013 -0.5894  1.0666
  436TIP3    H2 1273   5.876   0.724   3.382  0.8721  0.3804  0.6116
  437TIP3   OH2 1274   2.067   1.215   5.650 -0.3969  0.1134 -0.2693
  437TIP3    H1 1275   2.069   1.151   5.721 -1.7026 -0.1750 -0.4689
  437TIP3    H2 1276   2.085   1.299   5.693 -0.5851 -0.1346  0.3052
  438TIP3   OH2 1277   2.797   0.743   2.950 -0.0758 -0.5061  0.1178
  438TIP3    H1 1278   2.886   0.722   2.979  0.6691  2.1822  0.0063
  438TIP3    H2 1279   2.808   0.771   2.859 -1.1077 -0.4621 -0.0011
  439TIP3   OH2 1280   3.283   0.582   3.133  0.3471 -0.4264  0.1698
  439TIP3    H1 1281   3.234   0.501   3.138 -0.4775  0.0454 -0.1000
  439TIP3    H2 1282   3.372   0.555   3.110  0.0625 -1.2391  0.0021
  440TIP3   OH2 1283   5.456   4.570   4.383  0.0222  0.0636  0.2325
  440TIP3    H1 1284   5.471   4.523   4.301 -0.9977  0.6924 -0.3298
  440TIP3    H2 1285   5.374   4.534   4.416  0.4387 -0.2017  1.0075
  441TIP3   OH2 1286   2.598   4.570   3.196 -0.0340 -0.4544  0.0682
  441TIP3    H1 1287   2.641   4.520   3.265  0.4149 -0.8187 -0.4679
  441TIP3    H2 1288   2.667   4.625   3.159 -0.1443 -0.6678 -0.4583
  442TIP3   OH2 1289   6.868   3.532   0.470 -0.3705  0.3016  0.5698
  442TIP3    H1 1290   6.799   3.483   0.426  0.8598  0.6957 -1.9872
  442TIP3    H2 1291   6.943   3.472   0.474  0.0692  0.8324  0.5828
  443TIP3   OH2 1292   4.476   2.712   1.126 -0.2807  0.2444 -0.2233
  443TIP3    H1 1293   4.499   2.667   1.208  2.4872  0.5028 -0.7922
  443TIP3    H2 1294   4.457   2.641   1.065  1.8689 -0.1672 -0.4883
  444TIP3   OH2 1295   2.524   0.127   4.530 -0.0941  0.6001  0.5873
  444TIP3    H1 1296   2.567   0.123   4.445 -0.6044 -2.0480  0.3665
  444TIP3    H2 1297   2.559   0.206   4.571  1.9529  0.6865 -1.1446
  445TIP3   OH2 1298   3.862   2.359   3.859  0.1090 -0.0934  0.9837
  445TIP3    H1 1299   3.895   2.271   3.841  1.3957  0.4609  0.5279
  445TIP3    H2 1300   3.811   2.382   3.781  0.6144 -0.0520  0.6608
  446TIP3   OH2 1301   0.805   1.231   0.265 -0.4005  0.2883 -0.2567
  446TIP3    H1 1302   0.710   1.220   0.258 -0.2877 -0.3421 -0.9417
  446TIP3    H2 1303   0.820   1.325   0.254 -0.8730  0.2728 -1.0898
  447TIP3   OH2 1304   4.823   4.681   4.516 -0.0187  0.6716 -0.0927
  447TIP3    H1 1305   4.749   4.740   4.505 -0.4396  0.3679  1.0169
  447TIP3    H2 1306   4.855   4.666   4.427 -1.6224  0.3551 -0.6406
  448TIP3   OH2 1307   1.692   0.016   4.899 -0.3653 -0.0702  0.7590
  448TIP3    H1 1308   1.775   0.055   4.926 -0.2718 -0.2427  0.7192
  448TIP3    H2 1309   1.714  -0.036   4.822 -0.3645 -0.7700  1.2296
  449TIP3   OH2 1310   1.673   4.614   5.379  0.2340 -0.0086 -0.8776
  449TIP3    H1 1311   1.716   4.537   5.341 -0.3057  0.3183 -2.1966
  449TIP3    H2 1312   1.735   4.685   5.366  0.6452 -0.1658  0.1568
  450TIP3   OH2 1313   5.200   3.292   1.565 -0.2687 -0.0642 -0.2101
  450TIP3    H1 1314   5.167   3.283   1.476 -0.0329  1.0316 -0.4280
  450TIP3    H2 1315   5.244   3.377   1.566  0.5111 -0.4523  0.7102
  451TIP3   OH2 1316   4.382   1.432   4.720  0.0544  0.2398 -0.1303
  451TIP3    H1 1317   4.334   1.509   4.690  1.9349  1.2205 -0.7805
  451TIP3    H2 1318   4.416   1.393   4.639  0.3831 -0.4133  0.3195
  452TIP3   OH2 1319   0.638   4.891   3.402  0.2069  0.0654 -0.4964
  452TIP3    H1 1320   0.677   4.907   3.488  0.5146 -0.9824 -0.4225
  452TIP3    H2 1321   0.555   4.939   3.404 -0.4483 -1.0242  0.9081
  453TIP3   OH2 1322   4.650   5.499   4.089 -0.0752 -0.1351  0.1994
  453TIP3    H1 1323   4.588   5.572   4.094 -0.5863 -0.5119 -0.4033
  453TIP3    H2 1324   4.657   5.480   3.995 -1.4956 -2.1459  0.4434
  454TIP3   OH2 1325   6.621   3.560   3.388  0.1022 -0.1009 -0.0950
  454TIP3    H1 1326   6.609   3.555   3.293 -1.4983  0.9641  0.0140
  454TIP3    H2 1327   6.714   3.540   3.402  0.9078  1.8923 -2.0742
  455TIP3   OH2 1328   4.644   6.165   1.035  0.1054  0.2205 -1.1711
  455TIP3    H1 1329   4.662   6.219   0.958  1.0045  0.1800 -0.9993
  455TIP3    H2 1330   4.677   6.078   1.012  1.3589  0.4528 -0.3682
  456TIP3   OH2 1331   0.980   4.068   1.467  0.1653  0.1896 -0.7007
  456TIP3    H1 1332   0.981   3.974   1.447 -1.9626  0.2437 -1.2215
  456TIP3    H2 1333   0.924   4.075   1.544  1.4833  0.9193  0.2407
  457TIP3   OH2 1334   1.765   5.043   0.478  0.0093 -0.3291 -0.2542
  457TIP3    H1 1335   1.686   5.096   0.464  0.5867  1.1657  1.7655
  457TIP3    H2 1336   1.748   4.997   0.560  1.1664 -0.0969  0.1314
  458TIP3   OH2 1337   3.154   2.173   4.749  0.1241 -0.3066  0.1990
  458TIP3    H1 1338   3.136   2.080   4.764 -0.2515 -0.3853 -0.7144
  458TIP3    H2 1339   3.126   2.189   4.659  0.4180  0.6371  0.2670
  459TIP3   OH2 1340   4.408   0.203   2.976  0.3102  0.3885 -0.5445
  459TIP3    H1 1341   4.468   0.244   2.913  0.4064 -0.3310 -0.9313
  459TIP3    H2 1342   4.342   0.270   2.993 -0.1837  0.3285 -2.0577
  460TIP3   OH2 1343   2.023   3.306   5.755  0.4049  0.6461  0.9015
  460TIP3    H1 1344   2.095   3.337   5.699 -0.1599 -0.5466 -0.5347
  460TIP3    H2 1345   1.948   3.359   5.728  0.5754  1.4885  1.9992
  461TIP3   OH2 1346   0.631   5.101   2.460 -0.1150  0.1614  0.2043
  461TIP3    H1 1347   0.542   5.113   2.427  0.7323  2.2973 -1.5442
  461TIP3    H2 1348   0.649   5.181   2.510  1.7023  1.0674 -1.7560
  462TIP3   OH2 1349   6.421   5.312   1.593  0.8572 -0.3768 -0.5970
  462TIP3    H1 1350   6.368   5.380   1.635 -0.5584 -1.1207 -1.1042
  462TIP3    H2 1351   6.489   5.292   1.657  0.3754  0.4170  0.1917
  463TIP3   OH2 1352   0.827   1.739   2.401  0.0066  0.0285 -0.1595
  463TIP3    H1 1353   0.794   1.827   2.419  0.3709  0.3566 -1.0416
  463TIP3    H2 1354   0.799   1.721   2.311 -0.2765 -0.8608  0.0967
  464TIP3   OH2 1355   0.358   1.637   3.735 -0.4024  0.2033 -0.3194
  464TIP3    H1 1356   0.304   1.714   3.754  0.7948  0.9060  0.4039
  464TIP3    H2 1357   0.301   1.579   3.685 -1.5598  1.2560 -0.2707
  465TIP3   OH2 1358   2.002   2.053   2.347 -0.0799  0.4794 -0.2674
  465TIP3    H1 1359   2.085   2.020   2.381  0.2893  0.8920 -0.7543
  465TIP3    H2 1360   1.986   2.135   2.394 -1.4048 -0.7306  1.5352
  466TIP3   OH2 1361   4.325   2.911   0.027  0.3394  0.3106  0.1509
  466TIP3    H1 1362   4.352   2.998   0.055 -0.6249  0.0275  2.1310
  466TIP3    H2 1363   4.384   2.851   0.072 -0.0375 -0.1093  0.1019
  467TIP3   OH2 1364   2.172   6.152   3.182  0.4719 -0.0779 -0.2155
  467TIP3    H1 1365   2.244   6.215   3.171  1.2032 -0.3987  2.2138
  467TIP3    H2 1366   2.203   6.073   3.137  1.9058 -0.3610  1.1876
  468TIP3   OH2 1367   2.028   2.470   5.238 -0.1061 -0.4069  0.3748
  468TIP3    H1 1368   1.993   2.429   5.317  0.3265 -1.0507  0.2452
  468TIP3    H2 1369   2.078   2.400   5.195  1.0945  0.3986  0.4095
  469TIP3   OH2 1370   6.473   5.645   4.116 -0.5803 -0.3098 -0.0040
  469TIP3    H1 1371   6.454   5.723   4.168  0.6866 -1.4584  2.3635
  469TIP3    H2 1372   6.568   5.646   4.106 -0.8442  0.6765 -3.8427
  470TIP3   OH2 1373   1.500   5.020   1.697  0.3800 -0.1729  0.4150
  470TIP3    H1 1374   1.527   5.041   1.607 -0.1775  2.8639  0.8618
  470TIP3    H2 1375   1.578   5.038   1.750 -0.0515  0.5417  0.8111
  471TIP3   OH2 1376   4.294   4.420   1.675 -0.4602  0.0217  0.3601
  471TIP3    H1 1377   4.286   4.419   1.771  0.0473  1.9217  0.4662
  471TIP3    H2 1378   4.315   4.330   1.652  1.0028 -0.1675  2.2013
  472TIP3   OH2 1379   1.980   6.310   2.987 -0.0870  0.0319  0.0285
  472TIP3    H1 1380   1.920   6.282   3.057 -1.0754  0.1756 -0.7287
  472TIP3    H2 1381   2.000   6.229   2.940  1.8822 -0.3496  1.3993
  473TIP3   OH2 1382   0.926   0.266   1.051  0.1640  0.2929 -0.1390
  473TIP3    H1 1383   0.928   0.223   1.136 -3.6498  0.5479  0.2520
  473TIP3    H2 1384   0.863   0.216   1.000 -0.2810  2.1992 -1.5948
  474TIP3   OH2 1385   4.331   5.228   2.967  0.2032 -0.1660  0.4537
  474TIP3    H1 1386   4.426   5.225   2.963  0.2109  1.0707 -2.7465
  474TIP3    H2 1387   4.307   5.314   2.933 -2.0850 -0.3139  1.4780
  475TIP3   OH2 1388   4.833   2.998   3.920  0.1858 -0.0812 -0.5422
  475TIP3    H1 1389   4.881   2.923   3.884 -0.0833 -2.3256  3.2624
  475TIP3    H2 1390   4.893   3.035   3.984 -1.5547 -0.4051  1.3777
  476TIP3   OH2 1391   6.159   6.585   5.309  0.0103  0.0792  0.0407
  476TIP3    H1 1392   6.102   6.622   5.241 -0.6744 -0.0616  0.5293
  476TIP3    H2 1393   6.100   6.534   5.364  0.8370 -1.2392 -0.2485
  477TIP3   OH2 1394   3.470   4.996   0.644  0.1693 -0.0407  0.1575
  477TIP3    H1 1395   3.471   4.911   0.687  2.6139 -0.4029 -0.4492
  477TIP3    H2 1396   3.490   5.058   0.714 -1.6684  0.1025  0.6112
  478TIP3   OH2 1397   5.283   3.640   3.617  0.1226 -0.4396 -0.1195
  478TIP3    H1 1398   5.307   3.551   3.641 -0.1958 -0.4256  0.2420
  478TIP3    H2 1399   5.230   3.672   3.689  2.1770  0.8859  0.9004
  479TIP3   OH2 1400   1.580   1.848   2.214 -0.1672  0.7266 -0.1367
  479TIP3    H1 1401   1.505   1.822   2.267 -0.9054 -1.1999 -1.9650
  479TIP3    H2 1402   1.653   1.852   2.276 -0.7396 -2.5065  0.9149
  480TIP3   OH2 1403   4.353   3.586   4.907 -0.5758 -0.4766  0.1383
  480TIP3    H1 1404   4.373   3.524   4.837  0.3088  0.2126 -0.2241
  480TIP3    H2 1405   4.414   3.564   4.977  2.2879  2.1859 -1.2901
  481TIP3   OH2 1406   6.736   0.437   2.354 -0.3980  0.3669 -0.2843
  481TIP3    H1 1407   6.781   0.440   2.438 -2.2984 -1.0144  0.8766
  481TIP3    H2 1408   6.653   0.483   2.369 -0.3765  0.9296 -1.6912
  482TIP3   OH2 1409   4.244   1.329   5.403  0.3599 -0.1712 -0.1598
  482TIP3    H1 1410   4.249   1.240   5.439  0.6095 -0.4822 -0.9238
  482TIP3    H2 1411   4.335   1.358   5.399  0.3821 -0.3141 -0.9226
  483TIP3   OH2 1412   3.643   4.534   0.341 -0.5217 -0.1507 -0.0326
  483TIP3    H1 1413   3.704   4.557   0.411  2.0314  0.8753 -2.3858
  483TIP3    H2 1414   3.642   4.439   0.340 -1.3800 -0.2039  1.9593
  484TIP3   OH2 1415   2.486   0.199   3.969  0.1014 -0.6328  0.3543
  484TIP3    H1 1416   2.509   0.239   3.885  0.5703 -0.3076  0.6378
  484TIP3    H2 1417   2.425   0.261   4.009  0.1774 -0.6041  0.4250
  485TIP3   OH2 1418   6.365   2.716   1.842  0.6123 -0.8401  0.0089
  485TIP3    H1 1419   6.410   2.796   1.870  0.3296 -0.3270 -0.9551
  485TIP3    H2 1420   6.330   2.679   1.923 -1.7770  1.5672  0.2056
  486TIP3   OH2 1421   5.607   4.683   1.470  0.1073 -0.5169  1.1974
  486TIP3    H1 1422   5.614   4.646   1.558  0.8709  3.4184  3.0193
  486TIP3    H2 1423   5.517   4.663   1.443 -1.1670  0.5257  4.1785
  487TIP3   OH2 1424   3.838   3.483   1.307 -0.2597 -0.1610  0.5074
  487TIP3    H1 1425   3.771   3.521   1.365 -0.6713 -1.3535  0.8510
  487TIP3    H2 1426   3.912   3.543   1.313 -1.7735  1.9991 -1.0002
  488TIP3   OH2 1427   0.445   6.588   4.019 -0.7689 -0.3327 -0.0333
  488TIP3    H1 1428   0.415   6.577   3.929  0.5512  1.5260 -0.7596
  488TIP3    H2 1429   0.514   6.522   4.029  0.6466  0.9002 -1.1918
  489TIP3   OH2 1430   4.059   0.282   3.981  0.5395  0.8078 -0.2122
  489TIP3    H1 1431   3.969   0.291   4.014  0.6099  2.4040 -0.3667
  489TIP3    H2 1432   4.064   0.192   3.950 -0.6500  0.3406  0.8431
  490TIP3   OH2 1433   2.619   2.971   2.658  0.5017  0.4584 -0.1282
  490TIP3    H1 1434   2.587   2.937   2.574  1.9090  1.0217 -0.9208
  490TIP3    H2 1435   2.711   2.990   2.643  1.1524 -0.6762  1.9403
  491TIP3   OH2 1436   5.652   2.991   3.587 -0.2465 -0.2737 -0.0728
  491TIP3    H1 1437   5.582   3.013   3.649 -1.2362  0.7961 -1.4769
  491TIP3    H2 1438   5.605   2.967   3.507  0.9908 -0.8484 -0.6453
  492TIP3   OH2 1439   5.660   4.263   1.694 -0.5697  0.2749  0.1028
  492TIP3    H1 1440   5.703   4.248   1.778 -1.4767  2.0082  0.9116
  492TIP3    H2 1441   5.732   4.289   1.636 -0.4335  3.8029  1.6025
  493TIP3   OH2 1442   2.766   1.281   0.057  0.2394  0.1089 -0.5641
  493TIP3    H1 1443   2.729   1.328  -0.017  2.0538  1.5431 -0.6348
  493TIP3    H2 1444   2.699   1.287   0.125 -0.6737  0.4084 -1.4641
  494TIP3   OH2 1445   2.882   4.474   2.003 -0.1151 -0.2056 -0.0854
  494TIP3    H1 1446   2.942   4.428   2.063 -0.0598  0.1489  0.1367
  494TIP3    H2 1447   2.940   4.523   1.945 -0.1910  0.6320  0.5243
  495TIP3   OH2 1448   4.673   0.561   2.631  0.7429  0.0753 -0.0262
  495TIP3    H1 1449   4.677   0.491   2.565  1.3359 -0.9102  1.0165
  495TIP3    H2 1450   4.587   0.600   2.619  1.1422  0.4628 -1.9224
  496TIP3   OH2 1451   4.719   3.466   0.042  0.1530 -0.6722 -0.3198
  496TIP3    H1 1452   4.673   3.527  -0.016 -0.4981 -0.0296  0.8615
  496TIP3    H2 1453   4.803   3.509   0.059  0.6823 -1.2298 -1.3940
  497TIP3   OH2 1454   1.199   3.249   5.207  0.3214  0.0658 -0.0131
  497TIP3    H1 1455   1.170   3.168   5.166 -2.3828  0.6605  0.5741
  497TIP3    H2 1456   1.248   3.221   5.285 -2.7492 -1.1004  1.6381
  498TIP3   OH2 1457   7.163   2.406   2.155 -0.2892  0.1828 -0.2061
  498TIP3    H1 1458   7.220   2.429   2.081  0.0762 -0.8717 -0.2705
  498TIP3    H2 1459   7.135   2.490   2.190 -0.5953  0.7197 -1.6401
  499TIP3   OH2 1460   6.209   2.856   3.004  0.6006 -0.1198 -0.3281
  499TIP3    H1 1461   6.121   2.851   3.042 -0.0963 -0.7970 -1.9349
  499TIP3    H2 1462   6.237   2.946   3.021 -0.9038  0.4794 -0.8281
  500TIP3   OH2 1463   5.114   1.395   1.607  0.7200 -0.0639 -0.2031
  500TIP3    H1 1464   5.068   1.477   1.624 -0.6907 -0.9350  0.3300
  500TIP3    H2 1465   5.049   1.339   1.565  1.5869 -0.9963 -0.3382
  501TIP3   OH2 1466   0.516   0.518   5.457  0.9292 -0.3331  0.0926
  501TIP3    H1 1467   0.464   0.452   5.412 -0.4762  1.3645 -0.8892
  501TIP3    H2 1468   0.607   0.496   5.435  0.4196 -1.1434 -1.3171
  502TIP3   OH2 1469   5.337   3.113   4.155  0.1768  0.5183 -0.4618
  502TIP3    H1 1470   5.375   3.039   4.107  1.5744  0.4190  0.7310
  502TIP3    H2 1471   5.400   3.183   4.144 -0.1490  0.9063  0.1097
  503TIP3   OH2 1472   5.238   3.454   0.529 -0.0415 -0.3080 -0.3682
  503TIP3    H1 1473   5.269   3.514   0.597  0.3971  0.6391 -1.3716
  503TIP3    H2 1474   5.145   3.475   0.520 -0.2830 -0.9603  0.4394
  504TIP3   OH2 1475   2.311   5.128   4.435  0.3466 -0.0758 -0.3289
  504TIP3    H1 1476   2.365   5.207   4.433  0.7151 -0.3319 -1.7533
  504TIP3    H2 1477   2.250   5.142   4.507  1.4491  0.8025  0.4739
  505TIP3   OH2 1478   0.294   6.406   0.297  0.1337 -0.5165 -0.1571
  505TIP3    H1 1479   0.258   6.382   0.212  1.4322 -0.8370 -0.6413
  505TIP3    H2 1480   0.296   6.323   0.346 -0.5922 -0.3367  0.1842
  506TIP3   OH2 1481   0.315   3.389   0.515  0.3262 -0.0074  0.4123
  506TIP3    H1 1482   0.289   3.387   0.607  2.1563 -2.4180  0.9580
  506TIP3    H2 1483   0.291   3.303   0.481  1.9686 -0.0976 -0.6378
  507TIP3   OH2 1484   3.570   4.480   1.598  0.0060  0.0422 -0.3030
  507TIP3    H1 1485   3.524   4.402   1.628 -1.2928  0.2198 -1.7024
  507TIP3    H2 1486   3.521   4.509   1.521 -0.8065  3.4460  1.3190
  508TIP3   OH2 1487   1.584   5.240   3.669  0.2941 -0.5983 -0.2249
  508TIP3    H1 1488   1.526   5.257   3.595 -0.3635 -0.6471  0.2606
  508TIP3    H2 1489   1.524   5.223   3.742  0.8753 -3.6092 -0.3391
  509TIP3   OH2 1490   3.713   2.136   1.804 -0.3834  0.2768 -0.4269
  509TIP3    H1 1491   3.789   2.135   1.863 -0.5935  1.5986 -0.1059
  509TIP3    H2 1492   3.737   2.075   1.734  2.0471  2.3900 -1.6142
  510TIP3   OH2 1493   4.480   5.925   3.089  1.0921 -0.0285 -0.0699
  510TIP3    H1 1494   4.421   5.982   3.039  1.2332 -0.0261 -0.2362
  510TIP3    H2 1495   4.547   5.899   3.026  1.0743 -0.3141  0.0266
  511TIP3   OH2 1496   2.969   1.055   3.064 -0.1526  0.5425 -0.2475
  511TIP3    H1 1497   2.944   1.062   2.972 -0.3017 -0.6193 -0.3223
  511TIP3    H2 1498   2.893   1.086   3.113 -0.2617  0.6902 -0.5143
  512TIP3   OH2 1499   3.468   2.992   5.560  0.3828  0.4915  0.2256
  512TIP3    H1 1500   3.380   3.031   5.558 -0.0150 -0.2944  1.4944
  512TIP3    H2 1501   3.482   2.963   5.470  0.5030  3.0557 -0.6637
  513TIP3   OH2 1502   3.690   2.264   4.851 -0.2978  0.3319  0.2414
  513TIP3    H1 1503   3.778   2.260   4.815 -0.0084  0.5809  0.9148
  513TIP3    H2 1504   3.663   2.355   4.839 -0.8158  0.0641 -0.7683
  514TIP3   OH2 1505   4.349   1.306   0.665 -0.1864 -0.0267 -0.2628
  514TIP3    H1 1506   4.357   1.303   0.761 -1.4074 -0.5136 -0.1653
  514TIP3    H2 1507   4.296   1.230   0.643  1.2069 -0.7124 -1.4719
  515TIP3   OH2 1508   2.811   3.663   4.641 -0.2420 -0.1739 -0.1543
  515TIP3    H1 1509   2.896   3.623   4.621  0.0879 -0.2536  1.3280
  515TIP3    H2 1510   2.775   3.686   4.555  0.7496 -1.2075 -0.8832
  516TIP3   OH2 1511   5.952   5.790   2.495  0.4986  0.0263 -0.0856
  516TIP3    H1 1512   5.928   5.869   2.544  0.0057  0.4167 -0.9349
  516TIP3    H2 1513   5.981   5.728   2.562 -1.1520  0.1834  0.8267
  517TIP3   OH2 1514   6.864   1.341   0.756  0.1720  0.2298  0.4548
  517TIP3    H1 1515   6.776   1.362   0.787 -0.2517 -0.1556 -0.4296
  517TIP3    H2 1516   6.853   1.328   0.662  0.7007 -2.1578  0.6596
  518TIP3   OH2 1517   3.209   0.311   5.574 -0.5982 -0.0532  0.1180
  518TIP3    H1 1518   3.128   0.281   5.533  0.2938  0.0451 -1.8642
  518TIP3    H2 1519   3.191   0.402   5.599 -1.6103 -0.5489  1.2672
  519TIP3   OH2 1520   5.606   2.500   3.304 -0.0585 -0.3587  1.0382
  519TIP3    H1 1521   5.579   2.410   3.320  0.2584 -1.3882 -3.2472
  519TIP3    H2 1522   5.700   2.501   3.318 -0.0847 -0.6259  1.2364
  520TIP3   OH2 1523   0.413   0.818   3.332  0.5373 -0.3657  0.0845
  520TIP3    H1 1524   0.448   0.779   3.252 -0.3594  0.0402 -0.5155
  520TIP3    H2 1525   0.334   0.767   3.351 -1.3350  1.8441 -1.3750
  521TIP3   OH2 1526   6.633   1.808   0.131  0.5300  0.3310 -0.2365
  521TIP3    H1 1527   6.641   1.776   0.041  0.4052 -0.6927  0.1060
  521TIP3    H2 1528   6.701   1.875   0.139  0.9358  0.0110 -0.9224
  522TIP3   OH2 1529   2.518   5.148   1.244 -0.0243 -0.0748  0.2873
  522TIP3    H1 1530   2.500   5.122   1.153 -0.1882 -2.1724  0.8727
  522TIP3    H2 1531   2.477   5.080   1.297  1.3132  0.3204  1.9127
  523TIP3   OH2 1532   4.381   5.056   2.426 -0.9217 -0.2653  0.1233
  523TIP3    H1 1533   4.309   5.080   2.484 -1.1588  0.6151 -0.5159
  523TIP3    H2 1534   4.424   5.139   2.405 -1.3091 -0.4496 -1.5532
  524TIP3   OH2 1535   1.639   5.029   4.012  0.0877 -1.0747 -0.1171
  524TIP3    H1 1536   1.589   5.087   3.955 -1.0057 -3.0800 -1.3274
  524TIP3    H2 1537   1.672   5.085   4.082 -1.4617  0.8392 -0.8473
  525TIP3   OH2 1538   2.660   1.667   3.678 -0.1371  0.5947 -0.5046
  525TIP3    H1 1539   2.575   1.645   3.641  0.1744  0.6591 -1.2698
  525TIP3    H2 1540   2.641   1.730   3.747 -0.9554 -1.2635  1.0576
  526TIP3   OH2 1541   4.701   1.375   1.706  0.0431  0.0454 -0.7925
  526TIP3    H1 1542   4.618   1.342   1.739  0.9296  0.5363  2.3002
  526TIP3    H2 1543   4.719   1.452   1.760  1.8985  0.7128 -2.2514
  527TIP3   OH2 1544   6.297   5.148   5.314 -0.3513  0.1879 -0.1681
  527TIP3    H1 1545   6.281   5.126   5.222  0.6769 -1.4260  0.0042
  527TIP3    H2 1546   6.217   5.121   5.359  0.0210 -1.1880 -0.2897
  528TIP3   OH2 1547   1.426   5.027   5.607  0.2044 -0.3868 -0.0725
  528TIP3    H1 1548   1.408   5.013   5.700 -1.9172  1.6352 -0.0788
  528TIP3    H2 1549   1.493   5.096   5.606  2.4917 -2.4810 -0.1116
  529TIP3   OH2 1550   0.025   6.134   3.353 -0.3801 -0.0854  0.0487
  529TIP3    H1 1551   0.078   6.172   3.423 -1.8243  0.2333  1.0162
  529TIP3    H2 1552   0.089   6.098   3.291  0.9609 -0.9840  1.8459
  530TIP3   OH2 1553   6.368   4.831   2.357  0.4548  0.1403  0.5213
  530TIP3    H1 1554   6.276   4.818   2.379  0.6629  0.0650  1.4160
  530TIP3    H2 1555   6.394   4.751   2.311  0.7671 -1.0890  2.6972
  531TIP3   OH2 1556   2.969   0.692   4.575 -0.3988 -0.1995  0.0254
  531TIP3    H1 1557   2.933   0.625   4.634 -0.2334 -0.7982 -0.5331
  531TIP3    H2 1558   2.893   0.725   4.527 -0.5841  0.5374  0.8021
  532TIP3   OH2 1559   4.394   1.809   4.475  0.0493  0.2991 -0.8733
  532TIP3    H1 1560   4.481   1.839   4.448  0.7314  1.2205  1.9691
  532TIP3    H2 1561   4.339   1.888   4.470  0.3601  0.6792  0.8330
  533TIP3   OH2 1562   5.083   0.133   0.584  0.1746 -0.1551 -0.5625
  533TIP3    H1 1563   5.002   0.176   0.559 -0.0924 -0.3355 -0.0168
  533TIP3    H2 1564   5.146   0.158   0.515 -0.4642 -0.4101 -1.2540
  534TIP3   OH2 1565   6.400   4.201   5.837 -0.8154  0.0561 -0.3367
  534TIP3    H1 1566   6.376   4.122   5.788 -0.1282 -0.8185  0.6968
  534TIP3    H2 1567   6.325   4.218   5.894 -0.4707 -0.5970  0.3319
  535TIP3   OH2 1568   2.251   4.950   2.087  0.3414  0.7539 -0.6855
  535TIP3    H1 1569   2.201   4.903   2.020  0.3146  1.5098 -1.2112
  535TIP3    H2 1570   2.327   4.895   2.103  0.6377  0.8286 -1.7648
  536TIP3   OH2 1571   0.068   1.404   2.292  0.2533  0.6607  0.3089
  536TIP3    H1 1572   0.064   1.426   2.385  0.6437 -1.9476  1.0248
  536TIP3    H2 1573   0.104   1.315   2.290  3.0284  1.6590 -2.5020
  537TIP3   OH2 1574   0.349   6.119   5.483 -0.3436 -0.5458  0.0303
  537TIP3    H1 1575   0.346   6.023   5.489  0.4020 -0.5671  0.1713
  537TIP3    H2 1576   0.423   6.137   5.425  0.7124 -0.0175  1.4934
  538TIP3   OH2 1577   2.143   1.839   2.496  0.2833 -0.5443  0.5254
  538TIP3    H1 1578   2.169   1.749   2.478  0.8191 -0.8193  2.4719
  538TIP3    H2 1579   2.060   1.831   2.542  0.8093 -0.1337  1.5897
  539TIP3   OH2 1580   0.145   6.630   2.463  1.1284  0.8705  0.1271
  539TIP3    H1 1581   0.101   6.710   2.494  2.7539  1.6131  0.6272
  539TIP3    H2 1582   0.109   6.560   2.518  0.2922  1.3803  0.2515
  540TIP3   OH2 1583   4.058   4.397   2.429  0.6329  0.3122 -0.1592
  540TIP3    H1 1584   4.122   4.329   2.411  0.2691  0.2377 -1.2502
  540TIP3    H2 1585   4.096   4.448   2.501  1.6189 -0.1080 -0.3751
  541TIP3   OH2 1586   5.696   6.494   1.495 -0.0165  0.8697 -0.3067
  541TIP3    H1 1587   5.610   6.459   1.472  0.7882 -1.2282 -0.4076
  541TIP3    H2 1588   5.706   6.573   1.441 -2.2981  1.8245  0.5617
  542TIP3   OH2 1589   6.165  -0.006   4.827  0.7644  0.0243  0.0846
  542TIP3    H1 1590   6.147   0.082   4.796 -0.5977  0.5695  2.2503
  542TIP3    H2 1591   6.083  -0.054   4.816  1.2696 -0.7814 -0.3581
  543TIP3   OH2 1592   6.280   1.509   0.364 -0.3476 -0.0664  0.4107
  543TIP3    H1 1593   6.323   1.593   0.378  3.5178 -1.8820  0.7210
  543TIP3    H2 1594   6.321   1.450   0.427 -2.5812 -2.3254 -0.0832
  544TIP3   OH2 1595   7.006   6.042   5.666 -0.1022  0.3034 -0.0526
  544TIP3    H1 1596   6.950   6.117   5.685  0.9337  0.8808  0.8170
  544TIP3    H2 1597   6.947   5.978   5.626 -0.9028  1.7557 -1.2834
  545TIP3   OH2 1598   3.255   6.475   3.755  0.1587  0.7649  0.2740
  545TIP3    H1 1599   3.227   6.470   3.663  3.2126 -0.5556 -0.7111
  545TIP3    H2 1600   3.276   6.568   3.768  0.8214  0.7779 -0.7584
  546TIP3   OH2 1601   5.276   5.482   3.802 -0.6060  0.4251  0.0196
  546TIP3    H1 1602   5.187   5.505   3.829 -1.3552 -1.8832 -0.2075
  546TIP3    H2 1603   5.332   5.527   3.865 -1.9704  1.1368  0.7861
  547TIP3   OH2 1604   2.154   1.567   4.429  0.1800  0.5645  0.3407
  547TIP3    H1 1605   2.118   1.655   4.421 -0.7112  0.0838 -1.5863
  547TIP3    H2 1606   2.221   1.562   4.362  0.9260  0.0740  1.1033
  548TIP3   OH2 1607   2.037   6.682   0.056 -0.1545 -0.0874  0.2921
  548TIP3    H1 1608   2.077   6.636  -0.018  1.0677  0.9274  0.2820
  548TIP3    H2 1609   2.048   6.774   0.035  0.1417  0.2171  1.7085
  549TIP3   OH2 1610   0.486   4.693   0.912  0.1768 -0.7498 -0.1205
  549TIP3    H1 1611   0.418   4.757   0.891  1.0301 -0.2074 -1.3022
  549TIP3    H2 1612   0.444   4.608   0.897 -0.1104 -0.4157 -1.3113
  550TIP3   OH2 1613   3.172   2.049   5.794  0.4700  0.1128 -0.1981
  550TIP3    H1 1614   3.125   2.041   5.711  0.6296  0.0728 -0.2837
  550TIP3    H2 1615   3.260   2.017   5.776  0.6124  0.4406 -0.1054
  551TIP3   OH2 1616   1.682   1.525   4.062  0.9770  0.3305  0.0956
  551TIP3    H1 1617   1.623   1.597   4.042 -1.0816 -1.3206 -0.1016
  551TIP3    H2 1618   1.672   1.513   4.157  1.2068  0.2104  0.1044
  552TIP3   OH2 1619   0.995   3.217   0.977  0.0439 -0.2019 -0.3531
  552TIP3    H1 1620   1.065   3.213   0.912  0.6764 -0.8373  0.3306
  552TIP3    H2 1621   0.918   3.245   0.929  0.4312 -0.9284 -1.4306
  553TIP3   OH2 1622   0.253   5.026   1.754 -0.4049  0.3665 -0.1170
  553TIP3    H1 1623   0.341   5.006   1.788 -0.3191 -0.0808 -0.5928
  553TIP3    H2 1624   0.198   4.956   1.790 -0.4990  0.4357 -0.1266
  554TIP3   OH2 1625   0.166   0.530   4.882  0.0120  0.0435 -0.6143
  554TIP3    H1 1626   0.212   0.581   4.948  1.6785  0.9733 -2.3831
  554TIP3    H2 1627   0.097   0.587   4.851  0.0524  0.1107 -0.5815
  555TIP3   OH2 1628   0.882   3.891   2.600  0.3976 -0.2223 -0.1975
  555TIP3    H1 1629   0.788   3.890   2.580  0.5195 -1.4833 -0.8103
  555TIP3    H2 1630   0.897   3.809   2.647  0.9829  0.5502  1.0052
  556TIP3   OH2 1631   0.001   4.925   1.005  0.0800  0.3976  0.0051
  556TIP3    H1 1632  -0.025   4.846   1.053  1.2259 -0.9607 -1.4858
  556TIP3    H2 1633   0.087   4.948   1.041 -0.3542  1.1212  0.5964
  557TIP3   OH2 1634   5.531   0.468   1.319  0.2744  0.1916 -0.1068
  557TIP3    H1 1635   5.501   0.426   1.400  0.3165  2.1580  0.9819
  557TIP3    H2 1636   5.617   0.428   1.302 -0.2821 -1.1453  0.0888
  558TIP3   OH2 1637   4.778   1.360   0.191 -0.4635 -0.2281 -0.3090
  558TIP3    H1 1638   4.724   1.419   0.139 -0.0274  0.3943 -0.0700
  558TIP3    H2 1639   4.864   1.402   0.194  0.1392 -1.3629 -0.9476
  559TIP3   OH2 1640   1.214   4.138   4.458  0.1821 -0.3184  0.1853
  559TIP3    H1 1641   1.151   4.155   4.388 -0.1696 -0.7698  0.3842
  559TIP3    H2 1642   1.289   4.193   4.437  0.5104 -1.2171 -1.1210
  560TIP3   OH2 1643   0.149   3.004   1.938 -0.3685 -0.1586 -0.7570
  560TIP3    H1 1644   0.171   2.970   1.852 -0.2056  2.0557 -1.6652
  560TIP3    H2 1645   0.108   3.089   1.920 -1.4917 -0.2014  1.3021
  561TIP3   OH2 1646   4.173   2.345   4.962 -0.0435  0.4815  0.4464
  561TIP3    H1 1647   4.212   2.394   4.889 -0.3650 -2.0193 -1.5350
  561TIP3    H2 1648   4.241   2.283   4.988 -0.8867 -0.4679  0.4384
  562TIP3   OH2 1649   6.473   1.704   5.754  0.2438  0.2906 -0.3324
  562TIP3    H1 1650   6.546   1.647   5.732  1.2284  1.6531 -0.7431
  562TIP3    H2 1651   6.496   1.788   5.715 -0.6181  1.2838  1.1872
  563TIP3   OH2 1652   2.165   1.106   4.034  0.2939  0.2222 -0.2126
  563TIP3    H1 1653   2.190   1.079   4.122  3.1916  1.9584 -0.3460
  563TIP3    H2 1654   2.179   1.029   3.979  3.3551  0.3744  0.1770
  564TIP3   OH2 1655   5.179   0.340   3.353 -0.4672  0.2529  0.1220
  564TIP3    H1 1656   5.253   0.396   3.330  0.0533 -0.2833  0.4563
  564TIP3    H2 1657   5.131   0.389   3.420 -0.3180  0.5280  0.0290
  565TIP3   OH2 1658   4.963   1.649   4.073  0.3179 -0.2795 -0.0143
  565TIP3    H1 1659   5.001   1.736   4.062  0.2808  0.0480  1.9693
  565TIP3    H2 1660   5.030   1.600   4.121  0.1102 -1.1855 -0.6264
  566TIP3   OH2 1661   1.248   2.606   3.026  0.3730  0.5314  0.1077
  566TIP3    H1 1662   1.254   2.700   3.047  0.7029  0.9733 -1.8008
  566TIP3    H2 1663   1.321   2.591   2.966  0.3073 -0.9750  0.3747
  567TIP3   OH2 1664   6.433   5.592   0.111  0.1618  0.4700 -0.3495
  567TIP3    H1 1665   6.356   5.552   0.152  1.0330 -2.0134 -0.9567
  567TIP3    H2 1666   6.474   5.642   0.182 -2.7792  3.2820 -0.3959
  568TIP3   OH2 1667   3.286   5.803   5.490  0.3269  0.1513 -0.3451
  568TIP3    H1 1668   3.312   5.743   5.419 -0.4033  0.1896 -0.6571
  568TIP3    H2 1669   3.312   5.889   5.459 -1.0944  0.3320 -1.1524
  569TIP3   OH2 1670   1.575   2.346   3.115  0.2084  0.3001  0.2075
  569TIP3    H1 1671   1.589   2.418   3.052 -1.7068 -0.6944 -1.4595
  569TIP3    H2 1672   1.537   2.276   3.063  0.6626 -1.4337  2.0912
  570TIP3   OH2 1673   3.779   5.850   3.212  0.5326  0.2381  0.2937
  570TIP3    H1 1674   3.751   5.867   3.122 -0.5746  0.6768  0.6994
  570TIP3    H2 1675   3.697   5.831   3.259  0.9440  1.3079  1.4930
  571TIP3   OH2 1676   5.290   5.498   4.562  0.0343 -0.4522  0.4764
  571TIP3    H1 1677   5.378   5.461   4.564  1.5213  2.2450 -3.0489
  571TIP3    H2 1678   5.268   5.513   4.653  3.6681 -0.3070  1.4825
  572TIP3   OH2 1679   5.140   0.461   4.853 -0.0738 -0.3918  0.5095
  572TIP3    H1 1680   5.164   0.478   4.762  1.8958 -1.5338  0.7430
  572TIP3    H2 1681   5.063   0.404   4.849  0.0294 -0.4702 -0.4410
  573TIP3   OH2 1682   6.287   5.489   2.256  0.3945  0.1805  0.1330
  573TIP3    H1 1683   6.200   5.529   2.259 -0.2155 -1.1643  1.5396
  573TIP3    H2 1684   6.309   5.474   2.348  1.3117 -1.1665 -0.2929
  574TIP3   OH2 1685   0.523   4.735   2.728 -0.0950 -0.2569  0.3134
  574TIP3    H1 1686   0.604   4.707   2.686 -0.0682  0.5136 -0.1664
  574TIP3    H2 1687   0.479   4.653   2.752 -0.5322 -0.7952 -2.0487
  575TIP3   OH2 1688   2.366   5.417   1.596  0.4763 -0.1808 -0.2545
  575TIP3    H1 1689   2.403   5.465   1.522  0.1025 -0.3557 -0.5604
  575TIP3    H2 1690   2.278   5.393   1.567 -0.0223  0.5443  0.5919
  576TIP3   OH2 1691   0.096   2.929   1.181 -0.1389  0.7024  0.4455
  576TIP3    H1 1692   0.149   2.987   1.126 -0.9684  0.0736 -1.0823
  576TIP3    H2 1693   0.034   2.987   1.224 -0.2559  1.0791 -0.2232
  577TIP3   OH2 1694   4.737   5.853   5.325 -0.1056  0.1253  0.2049
  577TIP3    H1 1695   4.796   5.928   5.321  1.5793 -1.2055 -1.2530
  577TIP3    H2 1696   4.697   5.850   5.238  0.2216 -0.9503  0.0850
  578TIP3   OH2 1697   5.032   0.250   1.416  0.0559  0.1347  0.3400
  578TIP3    H1 1698   5.048   0.166   1.374  1.9866  0.2800  0.7128
  578TIP3    H2 1699   5.031   0.231   1.510  2.0639  0.6936  0.5262
  579TIP3   OH2 1700   3.408   1.267   1.345 -0.5115  0.0765  0.2612
  579TIP3    H1 1701   3.328   1.313   1.320 -0.3330  0.0453 -0.3873
  579TIP3    H2 1702   3.444   1.234   1.263  0.7272  0.9978  0.3929
  580TIP3   OH2 1703   6.933   6.408   3.975 -0.1430  0.2116  0.6588
  580TIP3    H1 1704   6.951   6.502   3.973 -1.0714  0.3874  0.0519
  580TIP3    H2 1705   6.884   6.395   4.057  0.7977  0.0863  1.2192
  581TIP3   OH2 1706   6.659   0.829   0.832  0.4653 -0.9006 -0.4830
  581TIP3    H1 1707   6.718   0.809   0.905  0.1589 -0.9664 -0.2522
  581TIP3    H2 1708   6.717   0.844   0.758  0.7605 -1.3108 -0.3399
  582TIP3   OH2 1709   3.118   1.597   4.487  0.1459 -0.0403 -0.8533
  582TIP3    H1 1710   3.125   1.593   4.391 -0.0186 -1.2269 -0.8287
  582TIP3    H2 1711   3.170   1.524   4.518  1.2150  1.0580  0.0431
  583TIP3   OH2 1712   6.991   1.478   5.171  0.2948 -0.0127  0.1754
  583TIP3    H1 1713   7.077   1.509   5.141  0.8392  1.0708  2.6160
  583TIP3    H2 1714   6.964   1.543   5.236 -0.9885 -1.9130  1.6524
  584TIP3   OH2 1715   3.785   4.154   0.059 -0.4071  0.1241  0.1211
  584TIP3    H1 1716   3.792   4.170  -0.035  0.4652  0.5504  0.2493
  584TIP3    H2 1717   3.821   4.233   0.100  3.2757 -1.6622  0.7731
  585TIP3   OH2 1718   4.780   1.451   0.805 -0.1184 -0.1010 -0.3343
  585TIP3    H1 1719   4.800   1.422   0.716  0.5432  1.3786 -0.6990
  585TIP3    H2 1720   4.692   1.489   0.798  0.2394  0.7156 -0.5524
  586TIP3   OH2 1721   3.994   5.059   2.477 -0.5238 -0.0482 -0.2735
  586TIP3    H1 1722   4.046   5.091   2.403  1.0585 -2.0258 -0.1262
  586TIP3    H2 1723   3.940   4.989   2.439 -1.2952  0.3587  0.0560
  587TIP3   OH2 1724   1.615   5.416   4.656  0.2149  0.3981 -0.0608
  587TIP3    H1 1725   1.666   5.413   4.736 -0.1700 -0.3953  0.1687
  587TIP3    H2 1726   1.679   5.402   4.586  0.4260  0.2411  0.1656
  588TIP3   OH2 1727   6.286   4.722   0.257  0.1089 -0.8360 -1.1892
  588TIP3    H1 1728   6.244   4.657   0.314 -0.4609  0.0268 -0.6007
  588TIP3    H2 1729   6.259   4.698   0.169 -1.1490 -0.6555 -0.8737
  589TIP3   OH2 1730   5.100   2.801   1.113 -0.0443 -0.0591  0.0352
  589TIP3    H1 1731   5.153   2.750   1.051 -0.2081 -0.7218  0.4317
  589TIP3    H2 1732   5.113   2.758   1.197 -2.1308 -1.0006 -0.0468
  590TIP3   OH2 1733   4.470   2.812   5.746 -1.0549 -0.6397  0.7206
  590TIP3    H1 1734   4.456   2.817   5.841  0.7499  0.6519  0.9543
  590TIP3    H2 1735   4.532   2.740   5.735  0.2146  0.4272  0.7298
  591TIP3   OH2 1736   2.439   0.932   0.126 -0.1578  0.0342 -0.9214
  591TIP3    H1 1737   2.522   0.920   0.172 -0.4641 -0.8492 -0.5776
  591TIP3    H2 1738   2.373   0.906   0.190 -0.7303  1.1705 -1.0358
  592TIP3   OH2 1739   4.743   4.870   1.209 -0.0146 -0.1198  0.2844
  592TIP3    H1 1740   4.671   4.868   1.272 -0.3739 -0.8592 -0.1276
  592TIP3    H2 1741   4.712   4.928   1.139  0.4927  0.9158  0.8940
  593TIP3   OH2 1742   0.265   3.922   0.159 -0.5963  0.5596  0.4720
  593TIP3    H1 1743   0.247   3.850   0.219  1.2161  0.4916  1.0100
  593TIP3    H2 1744   0.202   3.912   0.089  0.0192 -1.9622  0.1934
  594TIP3   OH2 1745   2.968   4.340   5.582 -0.7411 -0.3579  0.3493
  594TIP3    H1 1746   2.903   4.298   5.526  0.9714 -0.4431 -1.6855
  594TIP3    H2 1747   3.011   4.404   5.526  1.1585 -0.5433  1.4924
  595TIP3   OH2 1748   5.396   3.223   2.401  0.1181  0.2678 -0.0499
  595TIP3    H1 1749   5.389   3.136   2.440  0.9889  1.1864  2.3297
  595TIP3    H2 1750   5.309   3.241   2.365 -0.8684 -0.5405  1.8078
  596TIP3   OH2 1751   3.966   4.702   2.107 -0.1559 -0.1937 -0.1510
  596TIP3    H1 1752   4.043   4.653   2.139 -0.4159 -0.7730 -0.4088
  596TIP3    H2 1753   3.918   4.639   2.054 -0.2680  0.4782 -0.8491
  597TIP3   OH2 1754   2.992   3.474   2.921 -0.0255  0.1681  0.5266
  597TIP3    H1 1755   3.033   3.388   2.934  1.2500  0.5994 -0.4141
  597TIP3    H2 1756   2.938   3.463   2.843 -0.6740 -0.0353  0.9929
  598TIP3   OH2 1757   0.492   2.298   4.390  0.3017 -0.0971  0.0958
  598TIP3    H1 1758   0.400   2.325   4.381  0.8810  1.3163 -2.4166
  598TIP3    H2 1759   0.515   2.322   4.480 -1.5949  0.0316  0.5948
  599TIP3   OH2 1760   3.592   5.802   2.149  0.0312 -0.0277 -0.5013
  599TIP3    H1 1761   3.506   5.784   2.111 -0.8913  1.0030  1.0219
  599TIP3    H2 1762   3.635   5.716   2.151 -1.4044 -0.7735 -0.2217
  600TIP3   OH2 1763   2.998   1.775   0.780  0.5683  0.4769  0.4921
  600TIP3    H1 1764   3.080   1.792   0.733  0.0761  1.2283 -0.1322
  600TIP3    H2 1765   3.011   1.815   0.866  0.5144  1.4545  0.0581
  601TIP3   OH2 1766   2.118   5.355   5.244  0.7905  0.0180  0.2716
  601TIP3    H1 1767   2.171   5.275   5.249  1.2088  0.3364  1.2994
  601TIP3    H2 1768   2.166   5.419   5.297  1.1070  1.3534 -1.5510
  602TIP3   OH2 1769   3.993   1.061   4.073  0.3000 -0.2796  0.1577
  602TIP3    H1 1770   4.033   0.978   4.048 -1.0770 -0.3127 -2.1497
  602TIP3    H2 1771   3.936   1.040   4.146  1.2855 -0.9926  0.7485
  603TIP3   OH2 1772   4.014   1.066   0.411  0.4260  0.4704 -0.1883
  603TIP3    H1 1773   3.940   1.021   0.452  0.3842  0.6141 -0.1038
  603TIP3    H2 1774   4.019   1.030   0.323  1.0109 -0.4197  0.2051
  604TIP3   OH2 1775   6.138   6.186   1.398 -0.6341  0.8106 -0.1752
  604TIP3    H1 1776   6.060   6.233   1.369 -0.9267  1.1816  1.1734
  604TIP3    H2 1777   6.161   6.225   1.482 -1.1096 -1.6506  1.1986
  605TIP3   OH2 1778   1.473   3.863   0.380  0.1476 -0.2286 -0.2341
  605TIP3    H1 1779   1.524   3.927   0.429 -1.4305  0.1463  1.0110
  605TIP3    H2 1780   1.438   3.912   0.306  0.8823 -0.2707 -0.6135
  606TIP3   OH2 1781   6.011   3.004   2.043  0.0575  0.2303  0.3181
  606TIP3    H1 1782   6.046   3.053   1.969 -0.1367 -0.6900 -0.4094
  606TIP3    H2 1783   5.924   3.041   2.058  0.4143  0.9663  0.6328
  607TIP3   OH2 1784   4.836   3.694   0.946 -0.5100 -0.0683 -0.1866
  607TIP3    H1 1785   4.881   3.612   0.967  0.5667  0.4325 -0.4579
  607TIP3    H2 1786   4.869   3.719   0.860  0.5007  1.4998  0.5899
  608TIP3   OH2 1787   3.922   4.662   3.780  0.1419 -0.2572 -0.2180
  608TIP3    H1 1788   3.979   4.633   3.851  1.0967 -0.7427 -1.1495
  608TIP3    H2 1789   3.851   4.709   3.824  1.0398  0.0125  1.0088
  609TIP3   OH2 1790   4.941   5.359   4.925 -0.5640  0.1132 -0.6354
  609TIP3    H1 1791   4.881   5.291   4.896 -0.3769  0.5232 -2.0602
  609TIP3    H2 1792   4.959   5.338   5.016 -0.3002 -1.8791 -1.1069
  610TIP3   OH2 1793   4.631   0.497   3.813 -0.2984 -0.4041  0.0436
  610TIP3    H1 1794   4.694   0.436   3.851 -1.0845 -2.3824 -1.6322
  610TIP3    H2 1795   4.645   0.490   3.719 -1.2162  1.1659 -0.2377
  611TIP3   OH2 1796   1.375   3.343   1.551  0.1513 -0.3239  0.5192
  611TIP3    H1 1797   1.446   3.305   1.603 -0.7952 -1.1462  1.2537
  611TIP3    H2 1798   1.329   3.267   1.514 -0.1973  0.1984 -0.1333
  612TIP3   OH2 1799   0.939   6.265   1.328  0.3589 -0.1770 -0.0344
  612TIP3    H1 1800   1.029   6.235   1.345 -0.5167 -1.8315  2.0881
  612TIP3    H2 1801   0.910   6.300   1.413 -0.7096  1.2606 -0.9502
  613TIP3   OH2 1802   4.039   6.235   4.432 -0.4558 -0.5542 -0.0575
  613TIP3    H1 1803   4.093   6.303   4.472 -2.1567  1.2131 -0.5953
  613TIP3    H2 1804   4.024   6.172   4.502  1.4407 -0.6054  0.3626
  614TIP3   OH2 1805   3.360   2.508   1.362 -0.5923  0.2053 -0.0739
  614TIP3    H1 1806   3.427   2.451   1.325 -0.1386  0.8296 -0.2254
  614TIP3    H2 1807   3.299   2.448   1.405  1.1032 -0.2854  1.8305
  615TIP3   OH2 1808   2.939   3.554   0.770  0.2871 -0.0094  0.1541
  615TIP3    H1 1809   2.878   3.481   0.761  0.5520 -0.2131  0.0032
  615TIP3    H2 1810   2.939   3.596   0.684  1.0001 -0.5166 -0.0941
  616TIP3   OH2 1811   0.748   2.942   4.737  0.4622  0.0592 -0.1784
  616TIP3    H1 1812   0.836   2.979   4.728  0.0813  1.0199  0.0130
  616TIP3    H2 1813   0.737   2.888   4.658  0.1528  2.1871 -1.6644
  617TIP3   OH2 1814   5.322   3.426   4.023  0.6909  0.1104 -0.0326
  617TIP3    H1 1815   5.383   3.398   4.092 -0.8651  1.4415  1.9870
  617TIP3    H2 1816   5.236   3.425   4.064 -0.3056  1.0742 -1.9332
  618TIP3   OH2 1817   3.871   3.993   2.280  0.3716  0.1251  0.1775
  618TIP3    H1 1818   3.924   4.048   2.222  0.2863 -1.3533 -1.3820
  618TIP3    H2 1819   3.844   4.052   2.351  1.5266  1.6849 -0.6152
  619TIP3   OH2 1820   2.671   1.355   5.458  0.0577 -0.8634  0.4164
  619TIP3    H1 1821   2.731   1.301   5.511  0.6913 -0.1095  0.4802
  619TIP3    H2 1822   2.585   1.313   5.469  0.2842 -1.0529  1.5804
  620TIP3   OH2 1823   1.586   4.883   0.686 -0.5097  0.2075 -0.5916
  620TIP3    H1 1824   1.603   4.805   0.634  1.0184  0.7353 -0.9195
  620TIP3    H2 1825   1.663   4.892   0.742 -1.1112  0.9358  0.1444
  621TIP3   OH2 1826   2.479   4.527   5.387 -0.1215  0.2689  0.0973
  621TIP3    H1 1827   2.487   4.533   5.482 -2.1883  2.9107  0.2421
  621TIP3    H2 1828   2.398   4.478   5.373  0.2511 -0.2345 -0.3127
  622TIP3   OH2 1829   3.751   0.648   2.466  0.4416 -0.0930  0.0258
  622TIP3    H1 1830   3.816   0.617   2.529 -1.4081 -1.1641  1.5134
  622TIP3    H2 1831   3.802   0.680   2.392  2.6690  0.1010  1.5668
  623TIP3   OH2 1832   1.679   2.373   2.230 -0.0253  0.4337  0.9043
  623TIP3    H1 1833   1.628   2.352   2.309 -1.2830 -0.0690 -0.0142
  623TIP3    H2 1834   1.738   2.299   2.220 -0.1755  0.2808  1.1196
  624TIP3   OH2 1835   7.163   6.236   4.457  0.0654 -0.3094 -0.9551
  624TIP3    H1 1836   7.179   6.208   4.367 -1.7408 -0.1661 -1.3763
  624TIP3    H2 1837   7.070   6.216   4.471 -0.2680  1.7721  0.1016
  625TIP3   OH2 1838   0.797   0.887   2.938  0.0177  0.9151 -0.6693
  625TIP3    H1 1839   0.832   0.971   2.967 -3.8047  1.5154  3.2851
  625TIP3    H2 1840   0.839   0.822   2.995  0.2923  0.5900 -1.2291
  626TIP3   OH2 1841   5.567   3.215   4.538  0.2879 -0.0203 -0.4247
  626TIP3    H1 1842   5.507   3.279   4.501  0.7634  1.9356  1.8922
  626TIP3    H2 1843   5.511   3.142   4.564 -1.0767  1.4347  1.0128
  627TIP3   OH2 1844   5.526   4.780   3.790  0.3644  0.4662  0.0578
  627TIP3    H1 1845   5.470   4.704   3.809 -0.3399  1.2441  1.2912
  627TIP3    H2 1846   5.596   4.775   3.855  0.2320  0.9457  0.2431
  628TIP3   OH2 1847   5.880   6.129   0.756  0.0468  0.1969  0.2008
  628TIP3    H1 1848   5.818   6.176   0.812  0.8975  1.9633 -0.2550
  628TIP3    H2 1849   5.963   6.173   0.771  0.4606  0.1938 -1.8188
  629TIP3   OH2 1850   3.132   2.035   0.696  0.5480 -0.1489  0.1888
  629TIP3    H1 1851   3.223   2.021   0.721  0.4117 -0.4882  0.5125
  629TIP3    H2 1852   3.115   2.127   0.715  1.4709  0.5143 -1.9856
  630TIP3   OH2 1853   1.537   6.257   2.326  0.1192 -1.0566  0.2048
  630TIP3    H1 1854   1.600   6.230   2.394  2.9304  1.2084 -1.2547
  630TIP3    H2 1855   1.478   6.317   2.371  0.9680 -0.8101  1.0359
  631TIP3   OH2 1856   4.977   5.264   0.963 -0.1590  0.1243 -0.5330
  631TIP3    H1 1857   4.952   5.173   0.978  1.2543 -0.4137 -1.3431
  631TIP3    H2 1858   4.977   5.303   1.051  0.0786 -0.8716 -0.0741
  632TIP3   OH2 1859   5.146   0.554   4.166  0.8577 -0.3372  0.5346
  632TIP3    H1 1860   5.223   0.598   4.202  0.0304  1.2710  0.4176
  632TIP3    H2 1861   5.079   0.622   4.161 -0.2912 -1.4720 -0.2647
  633TIP3   OH2 1862   3.333   0.931   5.685 -0.4073  0.1054  0.2748
  633TIP3    H1 1863   3.382   0.910   5.765 -0.3714  0.0155  0.2296
  633TIP3    H2 1864   3.325   0.847   5.640  0.4042  0.3248 -0.2856
  634TIP3   OH2 1865   0.744   4.690   1.767  0.2966  0.5874  0.2948
  634TIP3    H1 1866   0.734   4.785   1.774 -1.8737  0.3655  1.1439
  634TIP3    H2 1867   0.654   4.657   1.760  0.9853 -1.4200  0.2670
  635TIP3   OH2 1868   5.052   6.369   3.738 -0.2203  0.1558  0.1090
  635TIP3    H1 1869   5.125   6.424   3.764 -0.3721  0.4524 -0.0835
  635TIP3    H2 1870   4.999   6.358   3.817 -0.4064  0.6263  0.0551
  636TIP3   OH2 1871   4.179   4.689   1.648  0.0404 -0.1698 -0.2818
  636TIP3    H1 1872   4.230   4.719   1.723  0.4230 -0.1049 -0.5644
  636TIP3    H2 1873   4.197   4.595   1.642 -0.7760 -0.3783  0.3072
  637TIP3   OH2 1874   6.114   6.309   3.422 -0.5753  0.1954  0.5001
  637TIP3    H1 1875   6.037   6.253   3.426  0.5566 -1.3444  1.7754
  637TIP3    H2 1876   6.104   6.370   3.495 -1.2249  0.9303 -0.1770
  638TIP3   OH2 1877   4.748   4.436   0.541  0.0206 -0.2612 -0.0703
  638TIP3    H1 1878   4.733   4.496   0.614  1.8638 -0.1885  0.3049
  638TIP3    H2 1879   4.783   4.491   0.472 -0.9951 -0.4605 -0.7617
  639TIP3   OH2 1880   2.853   3.140   1.598 -0.4557 -0.1434  0.1365
  639TIP3    H1 1881   2.791   3.070   1.576 -1.7225  0.3140  2.0527
  639TIP3    H2 1882   2.920   3.134   1.529 -0.7337 -2.9348 -0.0239
  640TIP3   OH2 1883   5.276   1.827   4.309  0.2455 -0.1006  0.0800
  640TIP3    H1 1884   5.309   1.917   4.304  1.3490 -0.4464  0.8220
  640TIP3    H2 1885   5.219   1.827   4.386 -1.9299  0.5939 -1.4154
  641TIP3   OH2 1886   2.327   0.912   5.060  0.0783  0.2836 -0.0251
  641TIP3    H1 1887   2.299   0.910   4.968  2.0911 -0.8984 -0.7088
  641TIP3    H2 1888   2.367   0.998   5.071 -0.5499  0.5888 -0.1384
  642TIP3   OH2 1889   6.298   3.425   5.355  0.1961  0.1198  0.5488
  642TIP3    H1 1890   6.349   3.348   5.378  1.1510  0.4203 -0.4814
  642TIP3    H2 1891   6.251   3.400   5.276  2.5757  1.3878 -1.3850
  643TIP3   OH2 1892   0.331   6.471   2.852 -0.2758 -0.2024 -0.0671
  643TIP3    H1 1893   0.369   6.535   2.792 -0.4084 -0.7714 -0.7754
  643TIP3    H2 1894   0.277   6.523   2.911 -0.5501  0.3189 -0.7624
  644TIP3   OH2 1895   2.553   0.674   0.909 -0.0672  0.0633 -0.4136
  644TIP3    H1 1896   2.578   0.684   1.001 -1.8592 -1.3639  0.2922
  644TIP3    H2 1897   2.593   0.591   0.883  1.8360  1.2413 -1.4978
  645TIP3   OH2 1898   2.410   4.089   2.001  0.0686 -0.2632  0.0848
  645TIP3    H1 1899   2.349   4.131   2.062 -0.3093  1.3143 -1.2972
  645TIP3    H2 1900   2.382   3.997   1.999  0.0663 -0.3496  2.1998
  646TIP3   OH2 1901   6.418   3.853   0.428  0.0843  0.5284 -0.3773
  646TIP3    H1 1902   6.400   3.820   0.340  1.4852  1.6348 -1.1301
  646TIP3    H2 1903   6.354   3.810   0.484 -1.3012  0.3212 -2.0476
  647TIP3   OH2 1904   3.771   0.085   4.464  0.2010 -0.0664  0.1033
  647TIP3    H1 1905   3.704   0.123   4.407  0.7102 -2.3100 -2.1588
  647TIP3    H2 1906   3.854   0.113   4.426  0.5521 -1.2416 -0.0317
  648TIP3   OH2 1907   3.443   5.877   3.517 -0.1177 -0.6377  0.0142
  648TIP3    H1 1908   3.427   5.887   3.610 -1.1463 -2.7149  0.1268
  648TIP3    H2 1909   3.387   5.943   3.476  0.3935  0.3330  0.8507
  649TIP3   OH2 1910   0.373   0.237   3.899 -0.0260 -0.1395 -0.0078
  649TIP3    H1 1911   0.460   0.253   3.935  0.7980  0.2451 -2.0180
  649TIP3    H2 1912   0.316   0.298   3.947  0.9572  0.2326  0.7233
  650TIP3   OH2 1913   1.103   3.163   4.392  0.3580 -0.0301  0.3914
  650TIP3    H1 1914   1.083   3.213   4.472  1.4659  0.2903  0.4858
  650TIP3    H2 1915   1.109   3.230   4.323  1.4351 -0.0674  0.4385
  651TIP3   OH2 1916   3.306   0.713   4.329 -0.0724  0.3616 -0.1716
  651TIP3    H1 1917   3.264   0.768   4.395  1.2310  0.4591  0.6191
  651TIP3    H2 1918   3.350   0.774   4.271 -0.2965  0.2343 -0.4738
  652TIP3   OH2 1919   6.283   3.017   4.818  0.4225 -0.1499  0.0397
  652TIP3    H1 1920   6.335   3.057   4.887  0.2897 -1.3127  0.8386
  652TIP3    H2 1921   6.208   3.076   4.807  0.2236 -0.1618  1.2011
  653TIP3   OH2 1922   1.815   1.646   2.105  0.1730  0.1564 -0.5464
  653TIP3    H1 1923   1.889   1.704   2.091  0.9250 -0.6265  0.0669
  653TIP3    H2 1924   1.748   1.701   2.145 -0.1440  1.2236 -2.4515
  654TIP3   OH2 1925   2.497   1.088   3.404 -0.0994  0.4531  0.1833
  654TIP3    H1 1926   2.437   1.033   3.453 -0.4544  2.3304  1.9773
  654TIP3    H2 1927   2.568   1.029   3.379  0.3204 -0.5704  3.3575
  655TIP3   OH2 1928   5.375   0.986   3.773  0.1720 -0.3347 -0.0576
  655TIP3    H1 1929   5.345   0.905   3.732 -0.5155 -0.0395 -0.1408
  655TIP3    H2 1930   5.465   0.967   3.800 -0.4559 -1.6244  1.2575
  656TIP3   OH2 1931   1.532   1.716   3.956  0.0222 -0.3303  0.5755
  656TIP3    H1 1932   1.518   1.809   3.941  0.0809 -0.4009  0.0641
  656TIP3    H2 1933   1.445   1.678   3.960  0.0044 -0.4174 -0.3241
  657TIP3   OH2 1934   5.561   3.808   4.088 -0.7154 -0.2907 -0.2003
  657TIP3    H1 1935   5.549   3.715   4.067 -2.7649 -0.3252  0.8136
  657TIP3    H2 1936   5.542   3.854   4.007  0.8044 -0.7289 -0.8493
  658TIP3   OH2 1937   4.129   5.214   2.268  0.3400 -0.1416  0.0936
  658TIP3    H1 1938   4.139   5.307   2.288  1.2556 -0.0982 -0.5324
  658TIP3    H2 1939   4.217   5.183   2.247  0.0004 -1.0780 -0.0263
  659TIP3   OH2 1940   1.639   0.689   0.463  0.4000 -0.6459  0.4321
  659TIP3    H1 1941   1.673   0.628   0.396  3.3698 -0.3848  1.5443
  659TIP3    H2 1942   1.613   0.632   0.536 -0.3301 -0.7644  0.0903
  660TIP3   OH2 1943   2.496   6.258   3.152 -0.7390 -0.2707 -0.2354
  660TIP3    H1 1944   2.486   6.298   3.065  0.4696 -0.3222 -0.4180
  660TIP3    H2 1945   2.565   6.193   3.140 -0.1641  0.1147  0.9054
  661TIP3   OH2 1946   5.827   0.529   5.540  0.2748  0.3981 -0.7894
  661TIP3    H1 1947   5.881   0.589   5.488 -0.4811  1.6495 -0.1896
  661TIP3    H2 1948   5.888   0.463   5.571  1.7690  2.3714  0.7940
  662TIP3   OH2 1949   0.397   3.154   1.144  0.2612 -0.5605  0.4955
  662TIP3    H1 1950   0.482   3.196   1.140  0.2019 -0.4472  0.4346
  662TIP3    H2 1951   0.386   3.112   1.058 -1.0374  1.9204 -0.6388
  663TIP3   OH2 1952   4.028   2.537   5.828 -0.6770  0.1685 -0.0294
  663TIP3    H1 1953   4.016   2.599   5.901 -0.1657  0.7324 -0.4112
  663TIP3    H2 1954   4.123   2.528   5.821 -0.7565 -0.8792  0.1960
  664TIP3   OH2 1955   0.126   5.170   2.731  0.1714  0.0523  0.5599
  664TIP3    H1 1956   0.061   5.128   2.675 -0.0415 -2.1656  2.3009
  664TIP3    H2 1957   0.094   5.260   2.742 -1.0789 -0.1842 -0.8173
  665TIP3   OH2 1958   1.712   0.220   4.331 -0.0117 -0.0205  0.4400
  665TIP3    H1 1959   1.770   0.296   4.326  0.3429 -0.0734  2.6311
  665TIP3    H2 1960   1.770   0.145   4.340 -0.3881 -0.3535  0.1621
  666TIP3   OH2 1961   5.158   5.053   5.200 -0.1883 -0.0195  0.1681
  666TIP3    H1 1962   5.245   5.059   5.241 -0.1937  0.2831  0.1350
  666TIP3    H2 1963   5.112   4.988   5.253 -0.0646  0.0879  0.4098
  667TIP3   OH2 1964   3.651   0.561   5.698 -1.1936 -0.0550 -0.2277
  667TIP3    H1 1965   3.583   0.517   5.646 -1.3033 -0.2522  0.0767
  667TIP3    H2 1966   3.606   0.585   5.780 -1.0208  0.2416 -0.2197
  668TIP3   OH2 1967   6.976   5.188   1.842 -0.6066 -0.0980 -0.0986
  668TIP3    H1 1968   6.939   5.106   1.808 -0.8195  0.0695 -0.2700
  668TIP3    H2 1969   6.956   5.253   1.775 -0.2078  0.0438 -0.0816
  669TIP3   OH2 1970   6.248   2.033   3.033  0.6223 -0.6358 -0.2390
  669TIP3    H1 1971   6.155   2.021   3.053  0.1118 -1.0523 -2.5462
  669TIP3    H2 1972   6.293   1.966   3.084 -0.3190 -0.3788  0.9638
  670TIP3   OH2 1973   4.763   3.268   4.164  0.0165  0.3434 -0.1462
  670TIP3    H1 1974   4.839   3.243   4.111 -1.0138 -1.0791 -1.0156
  670TIP3    H2 1975   4.782   3.231   4.250  0.0306 -0.5817 -0.5350
  671TIP3   OH2 1976   2.459   4.770   2.065 -0.4952 -0.0414  0.6259
  671TIP3    H1 1977   2.530   4.708   2.079 -0.5465 -0.4079 -0.6164
  671TIP3    H2 1978   2.475   4.805   1.977 -1.5703  0.2393  0.5264
  672TIP3   OH2 1979   0.816   1.507   5.067  0.1361 -0.1723  0.2093
  672TIP3    H1 1980   0.782   1.596   5.066 -1.7995 -0.8619 -0.8716
  672TIP3    H2 1981   0.845   1.491   4.977 -0.9661 -1.1098 -0.0078
  673TIP3   OH2 1982   3.981   5.548   3.899 -0.5835 -0.1227  0.3800
  673TIP3    H1 1983   3.899   5.583   3.865 -1.0511 -1.2759  0.2750
  673TIP3    H2 1984   3.955   5.472   3.951  0.3981 -0.3497  0.5612
  674TIP3   OH2 1985   4.554   6.092   4.361 -0.1101  0.2207  0.1054
  674TIP3    H1 1986   4.565   6.057   4.273 -2.1804  1.4895 -0.7367
  674TIP3    H2 1987   4.607   6.171   4.362 -1.2549  1.0274 -0.5688
  675TIP3   OH2 1988   0.230   0.290   5.456  0.6007 -0.0675  0.1709
  675TIP3    H1 1989   0.201   0.201   5.473  1.8807 -0.6483 -0.5383
  675TIP3    H2 1990   0.256   0.325   5.541 -2.3423  0.5845  0.8863
  676TIP3   OH2 1991   0.993   3.025   0.299  0.0662  0.2350  0.4021
  676TIP3    H1 1992   1.025   2.981   0.378  1.2817  0.4426  0.0437
  676TIP3    H2 1993   0.942   2.958   0.253  1.1927 -0.5550  0.2757
  677TIP3   OH2 1994   0.605   6.191   3.251 -0.3153  0.0300 -0.3824
  677TIP3    H1 1995   0.547   6.250   3.300  0.5490  1.2607 -0.7885
  677TIP3    H2 1996   0.581   6.103   3.281 -1.1029  0.6324  0.8317
  678TIP3   OH2 1997   1.379   4.930   2.150 -0.2798 -0.0953 -0.0653
  678TIP3    H1 1998   1.349   4.884   2.072 -0.6689  1.4783 -0.8882
  678TIP3    H2 1999   1.379   4.864   2.219  1.5350 -1.9128 -1.6919
  679TIP3   OH2 2000   6.060   2.418   2.930  0.5349  0.5069  0.0915
  679TIP3    H1 2001   6.120   2.344   2.921 -0.2520 -0.1296  0.0156
  679TIP3    H2 2002   6.045   2.425   3.024 -0.0238  0.0549  0.0377
  680TIP3   OH2 2003   7.128   3.770   2.632 -0.0538  0.2109  0.1471
  680TIP3    H1 2004   7.085   3.807   2.554 -0.6455  0.7484  0.7137
  680TIP3    H2 2005   7.159   3.846   2.680  1.7227 -0.1706 -0.3192
  681TIP3   OH2 2006   0.664   1.078   0.562 -0.1030 -0.2023  0.5940
  681TIP3    H1 2007   0.675   1.173   0.575 -0.4005 -0.1176  0.2400
  681TIP3    H2 2008   0.658   1.067   0.467 -0.2018 -0.5598  0.6399
  682TIP3   OH2 2009   5.252   5.530   1.639 -0.1343 -0.3451 -0.0982
  682TIP3    H1 2010   5.240   5.613   1.685 -0.8795 -0.8702  0.6768
  682TIP3    H2 2011   5.164   5.491   1.636  0.4561 -1.8603  1.0286
  683TIP3   OH2 2012   5.245   1.931   5.280 -0.1922 -0.7082 -1.0112
  683TIP3    H1 2013   5.228   1.945   5.187 -0.6770 -1.1336 -0.9929
  683TIP3    H2 2014   5.197   1.851   5.301 -0.1176 -0.5932 -0.3860
  684TIP3   OH2 2015   4.972   2.714   4.186  0.0112 -0.3353  0.3896
  684TIP3    H1 2016   5.034   2.664   4.239  1.0288 -0.2264 -0.6464
  684TIP3    H2 2017   5.023   2.742   4.109 -1.3737 -0.3833 -0.5914
  685TIP3   OH2 2018   2.144   4.823   1.880  0.0502 -0.3148  0.1915
  685TIP3    H1 2019   2.167   4.900   1.828 -2.0876 -0.3369 -0.9024
  685TIP3    H2 2020   2.145   4.751   1.817  0.1388 -0.8440  0.7906
  686TIP3   OH2 2021   4.115   2.434   3.666 -0.0707 -0.2914 -0.1010
  686TIP3    H1 2022   4.063   2.362   3.631 -0.7041 -1.2272  2.5495
  686TIP3    H2 2023   4.076   2.513   3.628 -0.6760 -1.2017 -1.4506
  687TIP3   OH2 2024   7.039   3.271   5.022 -0.0129  0.4220  0.2442
  687TIP3    H1 2025   7.081   3.356   5.005  0.6788  0.2757  1.1087
  687TIP3    H2 2026   7.036   3.265   5.118 -2.4425  0.6116  0.2386
  688TIP3   OH2 2027   4.486   0.570   3.043  0.3768 -0.0525 -0.1148
  688TIP3    H1 2028   4.478   0.623   2.963  0.8580  0.3599  0.1086
  688TIP3    H2 2029   4.567   0.522   3.032  0.2195 -0.3331 -0.0676
  689TIP3   OH2 2030   5.867   4.951   0.986  0.4610  0.0934 -0.3103
  689TIP3    H1 2031   5.835   5.006   0.914  1.3532  2.1228  0.7686
  689TIP3    H2 2032   5.950   4.915   0.953 -0.6142 -1.5227 -1.4038
  690TIP3   OH2 2033   4.588   1.563   0.111  0.3982  0.3695  0.1362
  690TIP3    H1 2034   4.640   1.582   0.033  0.2046  0.9247  0.1358
  690TIP3    H2 2035   4.510   1.619   0.102  0.6124  0.8171  0.9682
  691TIP3   OH2 2036   3.384   1.739   2.187  0.0944  0.3222 -0.1867
  691TIP3    H1 2037   3.365   1.809   2.249 -0.2970  0.4708 -0.4723
  691TIP3    H2 2038   3.364   1.777   2.101 -1.3305 -0.5408 -0.2619
  692TIP3   OH2 2039   2.883   2.045   1.337 -0.1274 -0.0511 -0.9126
  692TIP3    H1 2040   2.971   2.009   1.325 -0.1214 -0.5843  0.4671
  692TIP3    H2 2041   2.828   1.991   1.280  0.2055 -0.8365 -0.5186
  693TIP3   OH2 2042   5.656   1.304   4.653  0.5272 -0.2202  0.2038
  693TIP3    H1 2043   5.744   1.324   4.684  1.4092 -2.4720 -0.5995
  693TIP3    H2 2044   5.669   1.262   4.568 -1.1773 -2.0256  0.7456
  694TIP3   OH2 2045   4.586   4.753   2.914 -0.5193  0.1843  0.2312
  694TIP3    H1 2046   4.650   4.823   2.929 -0.6180  0.1218  1.0204
  694TIP3    H2 2047   4.508   4.798   2.882 -1.1333  0.6795  2.2343
  695TIP3   OH2 2048   3.417   1.633   5.827 -0.0027 -0.4940 -0.5140
  695TIP3    H1 2049   3.465   1.557   5.794  1.8145  1.0750 -1.7754
  695TIP3    H2 2050   3.466   1.660   5.905 -0.6700 -0.6470 -0.0375
  696TIP3   OH2 2051   4.555   6.616   2.338  0.2150  0.1462  0.3716
  696TIP3    H1 2052   4.599   6.576   2.414  0.0901  1.5099  1.1867
  696TIP3    H2 2053   4.617   6.604   2.266  0.3604 -1.1231  0.6738
  697TIP3   OH2 2054   3.009   6.110   2.046 -0.5759 -0.4101 -0.4259
  697TIP3    H1 2055   2.993   6.200   2.073  0.7294 -0.2309 -0.1742
  697TIP3    H2 2056   2.928   6.082   2.003 -1.7478  0.1920  1.2971
  698TIP3   OH2 2057   5.321   5.654   2.769 -0.6503  0.1916 -0.2087
  698TIP3    H1 2058   5.304   5.748   2.764  0.6054  0.5581  1.6266
  698TIP3    H2 2059   5.235   5.614   2.780 -1.1588  1.1428 -0.6364
  699TIP3   OH2 2060   1.088   6.411   1.742 -0.2349 -0.3523 -0.4187
  699TIP3    H1 2061   1.101   6.329   1.788  0.1861  0.4496  0.9543
  699TIP3    H2 2062   1.175   6.433   1.707 -0.2360 -0.2320 -0.3450
  700TIP3   OH2 2063   0.416   2.910   4.546  0.0899 -0.7402  0.0777
  700TIP3    H1 2064   0.455   2.842   4.601 -0.5271 -0.3727  0.9916
  700TIP3    H2 2065   0.370   2.862   4.477  0.0053 -1.2311  0.4730
  701TIP3   OH2 2066   0.554   2.065   4.276  0.3606  0.6284 -0.4547
  701TIP3    H1 2067   0.474   2.049   4.227 -1.0040 -0.4752  1.9775
  701TIP3    H2 2068   0.533   2.139   4.333  0.7406 -0.2082  0.8166
  702TIP3   OH2 2069   7.123   5.292   2.966 -0.0946 -0.1928  0.3613
  702TIP3    H1 2070   7.043   5.320   2.922 -0.7382  0.9013  2.1251
  702TIP3    H2 2071   7.174   5.373   2.976  1.5553 -0.9514 -1.2469
  703TIP3   OH2 2072   0.251   5.143   3.833  0.0439 -0.7491 -0.3439
  703TIP3    H1 2073   0.191   5.212   3.805  0.0580 -1.0932 -1.2768
  703TIP3    H2 2074   0.199   5.063   3.828  0.3489 -0.9452 -0.3840
  704TIP3   OH2 2075   0.857   0.064   3.993  0.4209 -0.2773 -0.0210
  704TIP3    H1 2076   0.839   0.148   3.950  0.0490 -0.5162 -0.3382
  704TIP3    H2 2077   0.893   0.088   4.078  2.8710  0.2218 -1.1107
  705TIP3   OH2 2078   3.839   0.773   3.944 -0.0531  0.1929  0.1719
  705TIP3    H1 2079   3.934   0.761   3.946  0.2312  2.2081  0.5277
  705TIP3    H2 2080   3.821   0.806   3.856 -0.7415 -2.1577 -0.6353
  706TIP3   OH2 2081   1.211   1.716   5.486 -0.6289  0.2559  0.7416
  706TIP3    H1 2082   1.200   1.692   5.394  1.2309 -0.9796  0.7892
  706TIP3    H2 2083   1.138   1.775   5.505 -0.4165  1.4874 -1.8513
  707TIP3   OH2 2084   4.903   2.758   5.246  0.2555 -0.0935 -0.2207
  707TIP3    H1 2085   4.912   2.851   5.228  0.6856 -0.4926 -2.2593
  707TIP3    H2 2086   4.808   2.743   5.249  0.1830  0.4106  0.3069
  708TIP3   OH2 2087   6.122   5.861   5.110 -0.0706 -0.3347  0.8707
  708TIP3    H1 2088   6.205   5.841   5.153 -0.1571  0.3462  1.3771
  708TIP3    H2 2089   6.121   5.806   5.032  1.8306  1.2062 -0.2928
  709TIP3   OH2 2090   3.757   1.262   3.231 -0.1236 -0.2528  0.3126
  709TIP3    H1 2091   3.807   1.313   3.167 -1.9202  0.0120 -0.9570
  709TIP3    H2 2092   3.815   1.256   3.307  0.2876  3.4911  0.4696
  710TIP3   OH2 2093   1.996   2.688   4.761  0.9327  0.4818 -0.1302
  710TIP3    H1 2094   2.030   2.665   4.675 -0.2184 -1.9986 -0.0124
  710TIP3    H2 2095   2.071   2.679   4.820  1.4985  1.2636 -0.7163
  711TIP3   OH2 2096   3.350   5.585   2.915 -0.3831  0.1743 -0.3141
  711TIP3    H1 2097   3.396   5.666   2.936 -2.4237  1.4259 -0.4255
  711TIP3    H2 2098   3.350   5.582   2.819 -1.2420  0.6312 -0.3365
  712TIP3   OH2 2099   3.856   0.894   0.843  0.1080 -0.1711  0.0894
  712TIP3    H1 2100   3.905   0.812   0.834 -0.1718 -0.5471  1.6984
  712TIP3    H2 2101   3.908   0.946   0.904 -0.5442  0.1798  0.3539
  713TIP3   OH2 2102   2.643   3.004   2.003  0.3296  0.0030  0.8701
  713TIP3    H1 2103   2.725   3.021   2.050  1.0820  0.3885 -0.5232
  713TIP3    H2 2104   2.583   3.071   2.035  1.1156  0.8514  0.6096
  714TIP3   OH2 2105   2.752   0.753   4.398 -0.6300 -0.1223 -0.5970
  714TIP3    H1 2106   2.733   0.770   4.306 -3.1269  0.7466 -0.0007
  714TIP3    H2 2107   2.687   0.804   4.446 -0.8079 -2.2361  1.6178
  715TIP3   OH2 2108   4.499   2.553   3.025  0.3077 -0.3354  0.1828
  715TIP3    H1 2109   4.509   2.606   3.103  1.9862  0.5810 -0.6000
  715TIP3    H2 2110   4.586   2.514   3.011 -0.3369 -1.6253 -0.4300
  716TIP3   OH2 2111   0.955   6.085   3.195  0.2791  0.4240  0.0477
  716TIP3    H1 2112   0.910   6.062   3.277  0.1351  2.3128  0.5515
  716TIP3    H2 2113   0.888   6.128   3.143  0.8604  0.9756 -0.2531
  717TIP3   OH2 2114   6.359   4.404   2.252  0.1401 -0.2691 -0.1002
  717TIP3    H1 2115   6.276   4.438   2.218  0.9745  2.6239  0.4626
  717TIP3    H2 2116   6.421   4.476   2.242  2.1951 -1.7608  1.0035
  718TIP3   OH2 2117   4.608   0.799   3.546 -1.4368 -0.3140 -0.0579
  718TIP3    H1 2118   4.675   0.735   3.522 -1.6273  0.3702 -2.8278
  718TIP3    H2 2119   4.527   0.749   3.548 -1.1104 -0.8173  1.5618
  719TIP3   OH2 2120   1.350   2.490   5.827  0.6442  0.1107 -0.0096
  719TIP3    H1 2121   1.316   2.517   5.913 -1.9013 -0.0947 -0.8757
  719TIP3    H2 2122   1.343   2.395   5.827 -0.9809  0.1972 -1.0122
  720TIP3   OH2 2123   6.256   4.066   1.383  0.0963 -0.2066  0.1398
  720TIP3    H1 2124   6.169   4.098   1.407  0.3370  0.1615  0.5421
  720TIP3    H2 2125   6.243   3.972   1.367 -0.3230 -0.2066  0.4504
  721TIP3   OH2 2126   0.510   6.659   2.313  0.2544 -0.5417  0.1405
  721TIP3    H1 2127   0.514   6.646   2.218 -2.1812 -1.1215  0.0739
  721TIP3    H2 2128   0.579   6.603   2.347  0.4443 -1.1808 -1.2156
  722TIP3   OH2 2129   0.375   3.484   2.378  0.0824 -0.3084  0.0565
  722TIP3    H1 2130   0.435   3.523   2.442 -0.8091  0.7603  0.2844
  722TIP3    H2 2131   0.359   3.396   2.411  2.3314 -1.0326 -0.5886
  723TIP3   OH2 2132   3.583   4.571   5.385 -0.0245  0.2674 -0.4342
  723TIP3    H1 2133   3.651   4.574   5.452  0.4970  0.8523 -0.9829
  723TIP3    H2 2134   3.520   4.507   5.419  1.3869 -1.2092 -0.4859
  724TIP3   OH2 2135   3.888   6.204   5.824  0.1018 -0.6611 -0.5557
  724TIP3    H1 2136   3.946   6.146   5.774  0.1353 -0.8097 -0.3493
  724TIP3    H2 2137   3.907   6.292   5.792 -0.0216 -0.7752 -0.9463
  725TIP3   OH2 2138   5.814   3.446   2.058 -0.3157  0.8093 -0.1225
  725TIP3    H1 2139   5.823   3.471   2.149 -0.4965  0.2253  0.0602
  725TIP3    H2 2140   5.747   3.504   2.023 -0.6015  0.7027  0.2459
  726TIP3   OH2 2141   3.032   2.651   0.416 -0.3431  0.2654 -0.1482
  726TIP3    H1 2142   3.036   2.588   0.488 -0.2428  0.6957  0.2294
  726TIP3    H2 2143   3.106   2.710   0.432  0.0680 -0.0148 -0.9616
  727TIP3   OH2 2144   4.250   5.070   5.642  0.2987  0.1382  0.3439
  727TIP3    H1 2145   4.312   5.008   5.682 -0.4830 -0.1149  1.2123
  727TIP3    H2 2146   4.230   5.132   5.713  0.8292  1.2149 -0.4225
  728TIP3   OH2 2147   4.641   0.715   1.183 -0.0587 -0.3395 -0.4860
  728TIP3    H1 2148   4.669   0.656   1.253  1.4747 -0.4464 -1.1379
  728TIP3    H2 2149   4.546   0.723   1.194 -0.0264 -1.3816  0.7892
  729TIP3   OH2 2150   0.687   0.026   3.330  0.1535 -0.4278  0.0531
  729TIP3    H1 2151   0.694  -0.062   3.368  0.4231 -0.0009  1.0224
  729TIP3    H2 2152   0.603   0.059   3.361 -0.7482 -0.9420 -1.6709
  730TIP3   OH2 2153   2.478   4.422   4.255 -0.4872 -0.1782  0.0192
  730TIP3    H1 2154   2.502   4.331   4.272 -0.0806  0.3369  2.4982
  730TIP3    H2 2155   2.546   4.473   4.299 -1.4222  1.3246 -0.2350
  731TIP3   OH2 2156   6.141   2.649   4.348 -0.0638 -0.3657 -0.0389
  731TIP3    H1 2157   6.218   2.639   4.292  0.1731  1.2014 -0.0388
  731TIP3    H2 2158   6.069   2.614   4.295  0.0226  1.7645 -1.7175
  732TIP3   OH2 2159   0.469   2.169   1.347  0.2687 -0.2323 -0.1513
  732TIP3    H1 2160   0.537   2.101   1.347  0.3442 -0.2040  1.7493
  732TIP3    H2 2161   0.399   2.134   1.401  0.2024  1.0667  0.6613
  733TIP3   OH2 2162   5.810   5.017   3.083  0.3054  0.4540 -0.4745
  733TIP3    H1 2163   5.763   4.985   3.160 -0.2754  0.8774 -0.6537
  733TIP3    H2 2164   5.888   4.962   3.079  0.1257  0.1428  0.1682
  734TIP3   OH2 2165   6.286   1.483   5.758 -0.0497 -0.3669 -0.5925
  734TIP3    H1 2166   6.336   1.564   5.748 -1.7892  0.8151 -0.2270
  734TIP3    H2 2167   6.195   1.509   5.743 -0.8792 -1.8859  1.2958
  735TIP3   OH2 2168   6.093   2.303   3.547 -0.4185 -0.2760 -0.0918
  735TIP3    H1 2169   6.106   2.228   3.489 -0.1373 -2.3424  2.4367
  735TIP3    H2 2170   6.175   2.310   3.597 -0.9028  0.9319  0.5873
  736TIP3   OH2 2171   0.998   5.949   3.807 -0.6176  0.1290 -0.5434
  736TIP3    H1 2172   0.949   5.951   3.725 -0.3869  0.1948 -0.6796
  736TIP3    H2 2173   0.943   5.898   3.866 -0.4336 -0.5831 -0.9666
  737TIP3   OH2 2174   4.863   0.005   5.303 -0.7315  0.1439 -0.8945
  737TIP3    H1 2175   4.802  -0.037   5.243  0.4403 -1.8616 -0.7630
  737TIP3    H2 2176   4.907   0.071   5.250 -1.9865  0.6574 -1.3487
  738TIP3   OH2 2177   4.012   3.763   1.082 -0.3972  0.2794 -0.7238
  738TIP3    H1 2178   4.093   3.727   1.044 -0.6246  0.3774 -1.3224
  738TIP3    H2 2179   4.024   3.755   1.176  0.5646  0.8381 -0.7849
  739TIP3   OH2 2180   1.804   6.727   2.931 -0.0088 -0.0344 -0.0099
  739TIP3    H1 2181   1.872   6.731   2.998 -0.3568  0.4704  0.3213
  739TIP3    H2 2182   1.766   6.639   2.941  0.9309 -0.5153 -0.5451
  740TIP3   OH2 2183   0.368   1.565   5.750 -0.0880 -0.1477  0.4944
  740TIP3    H1 2184   0.321   1.550   5.668 -1.7125 -0.6152  1.4550
  740TIP3    H2 2185   0.428   1.490   5.757  2.2488  1.3752 -1.6321
  741TIP3   OH2 2186   5.715   0.793   2.493  0.0668 -0.3027  0.9454
  741TIP3    H1 2187   5.644   0.807   2.556  0.7769  0.2884  1.6352
  741TIP3    H2 2188   5.781   0.857   2.517  0.2881  0.0614 -0.5270
  742TIP3   OH2 2189   6.105   5.064   5.466  0.3735 -0.0518 -0.2032
  742TIP3    H1 2190   6.010   5.064   5.455  0.3986 -1.2567 -0.5800
  742TIP3    H2 2191   6.121   5.001   5.535  0.7991  1.5613  1.2409
  743TIP3   OH2 2192   1.062   5.577   4.740 -0.1325  0.0776  0.1639
  743TIP3    H1 2193   1.126   5.515   4.775 -2.0269 -1.9374  0.2711
  743TIP3    H2 2194   1.094   5.663   4.767  0.9072 -1.0592  2.8913
  744TIP3   OH2 2195   1.318   4.026   3.089 -0.3545 -0.6311 -0.3717
  744TIP3    H1 2196   1.368   4.105   3.109 -0.2845 -1.1505  1.6675
  744TIP3    H2 2197   1.275   4.003   3.171 -1.0013 -2.2870 -1.1328
  745TIP3   OH2 2198   4.673   0.307   1.915 -0.5347 -0.2369 -0.3593
  745TIP3    H1 2199   4.630   0.361   1.849  1.0904 -0.7229 -1.8996
  745TIP3    H2 2200   4.765   0.332   1.910  0.0308 -2.1068 -0.0892
  746TIP3   OH2 2201   0.379   6.076   1.426 -0.1708 -0.1428 -0.6788
  746TIP3    H1 2202   0.312   6.144   1.417 -1.2490 -0.9058  0.9980
  746TIP3    H2 2203   0.455   6.123   1.461 -0.5323  0.3887 -0.5783
  747TIP3   OH2 2204   2.848   0.386   1.655  0.0172  0.6840 -0.1129
  747TIP3    H1 2205   2.913   0.455   1.636 -0.2093  1.9152  3.0605
  747TIP3    H2 2206   2.890   0.331   1.721 -1.5190  0.5330  0.7810
  748TIP3   OH2 2207   6.070   5.303   3.214  0.1711  0.4098  0.4750
  748TIP3    H1 2208   6.141   5.261   3.165 -1.2285 -0.9744 -0.4317
  748TIP3    H2 2209   6.052   5.244   3.287 -1.5299 -0.4453 -0.5734
  749TIP3   OH2 2210   2.997   3.234   5.217 -0.6737  0.0358 -0.2488
  749TIP3    H1 2211   2.916   3.195   5.250 -0.3291  0.1299  0.7348
  749TIP3    H2 2212   3.063   3.211   5.282  0.0609  0.0978 -0.9598
  750TIP3   OH2 2213   4.719   5.140   0.223 -0.2624  0.2494  0.0797
  750TIP3    H1 2214   4.785   5.081   0.187  0.4309  1.2789 -0.4068
  750TIP3    H2 2215   4.731   5.134   0.318  0.2452  0.0918  0.0131
  751TIP3   OH2 2216   1.055   0.151   3.663 -0.7758  0.2644  0.5359
  751TIP3    H1 2217   0.995   0.174   3.733 -0.6944  1.8838  0.0997
  751TIP3    H2 2218   1.124   0.217   3.666 -0.2317 -0.2263 -0.4186
  752TIP3   OH2 2219   4.412   6.430   1.842  0.0579  0.5460 -0.8042
  752TIP3    H1 2220   4.449   6.490   1.908 -0.7602 -0.0812  0.2565
  752TIP3    H2 2221   4.323   6.460   1.829 -0.8757 -1.2882  0.8773
  753TIP3   OH2 2222   3.899   6.015   4.266 -0.4162  0.2001 -0.1636
  753TIP3    H1 2223   3.838   6.080   4.232 -0.3643 -0.5439 -1.8082
  753TIP3    H2 2224   3.954   6.064   4.327  0.3094  2.0227 -2.1149
  754TIP3   OH2 2225   2.753   3.912   0.734 -0.6436  0.0887 -0.4566
  754TIP3    H1 2226   2.762   3.868   0.818 -0.6742  0.0736 -0.4610
  754TIP3    H2 2227   2.817   3.983   0.736 -1.5533  0.8981  0.0877
  755TIP3   OH2 2228   0.951   2.410   5.826  0.8982 -0.1221  0.1324
  755TIP3    H1 2229   0.870   2.403   5.776  0.1264 -3.4171  1.5329
  755TIP3    H2 2230   0.923   2.410   5.918  2.4117 -1.3738  0.6437
  756TIP3   OH2 2231   3.948   2.801   5.042 -0.9037  0.2983 -0.7265
  756TIP3    H1 2232   3.875   2.794   5.104  0.3037  0.5793  0.7759
  756TIP3    H2 2233   3.998   2.721   5.055  0.1379  0.9938 -0.2733
  757TIP3   OH2 2234   0.686   2.573   1.411  0.1460  0.2161 -0.2424
  757TIP3    H1 2235   0.642   2.580   1.496 -2.5968 -1.8429 -1.3460
  757TIP3    H2 2236   0.756   2.509   1.425 -1.5297 -1.6312  0.1087
  758TIP3   OH2 2237   6.253   1.801   0.642 -0.0177 -0.0883 -0.3234
  758TIP3    H1 2238   6.197   1.749   0.585  0.7214 -1.6355  0.3066
  758TIP3    H2 2239   6.237   1.891   0.615 -1.0548 -0.6472 -1.7135
  759TIP3   OH2 2240   7.097   5.716   2.869  0.1180  0.6040  0.6463
  759TIP3    H1 2241   7.068   5.650   2.932  1.6371 -1.8410 -1.0469
  759TIP3    H2 2242   7.034   5.787   2.879 -2.5482 -1.6779  1.5851
  760TIP3   OH2 2243   3.228   0.315   5.085 -0.0281 -0.3964 -0.1196
  760TIP3    H1 2244   3.302   0.340   5.140 -0.0298 -2.1152  0.7399
  760TIP3    H2 2245   3.152   0.356   5.127  0.4103  1.7084 -1.2268
  761TIP3   OH2 2246   0.769   4.661   2.544  0.4394 -0.2355 -0.0177
  761TIP3    H1 2247   0.729   4.602   2.481 -0.3667 -0.0808  0.3341
  761TIP3    H2 2248   0.835   4.608   2.589 -0.2922 -0.8815  0.3159
  762TIP3   OH2 2249   6.418   1.929   4.369  0.3420 -0.5786  0.8170
  762TIP3    H1 2250   6.500   1.928   4.320 -1.8784  1.7572 -3.5365
  762TIP3    H2 2251   6.407   2.020   4.396 -1.8913 -0.1304 -1.1850
  763TIP3   OH2 2252   0.714   0.650   3.644  0.3480  0.3391 -0.3962
  763TIP3    H1 2253   0.709   0.740   3.612  0.6117  0.8989  1.0777
  763TIP3    H2 2254   0.743   0.658   3.735 -3.0753 -1.0153  0.9646
  764TIP3   OH2 2255   0.849   5.659   2.560  0.4573 -0.2078 -0.0811
  764TIP3    H1 2256   0.810   5.581   2.597  1.3672 -0.2499  0.8242
  764TIP3    H2 2257   0.818   5.731   2.615 -0.5531  0.1297 -1.0387
  765TIP3   OH2 2258   6.909   4.808   1.364  0.1499  0.4147  0.1215
  765TIP3    H1 2259   6.827   4.762   1.344  1.5381 -1.9600 -0.4660
  765TIP3    H2 2260   6.908   4.885   1.307 -1.1543 -0.1798 -0.6992
  766TIP3   OH2 2261   3.345   5.328   4.963  0.0987 -0.5479  0.6862
  766TIP3    H1 2262   3.304   5.243   4.983 -0.9856  0.3221  2.3665
  766TIP3    H2 2263   3.402   5.345   5.038  2.0728 -0.7760 -0.6766
  767TIP3   OH2 2264   2.311   5.120   5.570  0.3142 -0.2317  0.3332
  767TIP3    H1 2265   2.280   5.195   5.621  2.1953  0.0380  1.1771
  767TIP3    H2 2266   2.245   5.053   5.583 -1.2870  1.1631 -0.2205
  768TIP3   OH2 2267   1.040   1.191   0.948  0.2122  0.6731 -0.3584
  768TIP3    H1 2268   1.055   1.123   1.014 -1.1431  0.1072 -0.6077
  768TIP3    H2 2269   0.960   1.165   0.904  1.7152  0.3552 -3.1146
  769TIP3   OH2 2270   1.326   5.677   0.180 -0.2808 -0.2687 -0.6952
  769TIP3    H1 2271   1.239   5.716   0.183 -0.4358 -0.6343 -0.3460
  769TIP3    H2 2272   1.362   5.693   0.267  1.0645  2.2495 -1.6043
  770TIP3   OH2 2273   2.674   4.002   3.054  0.1070  0.0180  0.2726
  770TIP3    H1 2274   2.623   3.923   3.037  0.8852 -0.4480  0.0543
  770TIP3    H2 2275   2.630   4.043   3.129  0.9517 -1.7550  1.8023
  771TIP3   OH2 2276   3.470   3.703   0.900  0.1352 -0.0406 -0.2276
  771TIP3    H1 2277   3.563   3.680   0.901 -0.0435 -0.8327 -0.8876
  771TIP3    H2 2278   3.433   3.657   0.975  0.2005 -0.0511 -0.2019
  772TIP3   OH2 2279   1.719   6.192   0.332  0.1906  0.5538 -0.1362
  772TIP3    H1 2280   1.778   6.248   0.280  0.9308 -0.8288 -0.8520
  772TIP3    H2 2281   1.666   6.147   0.266  1.0069 -1.0813  0.2649
  773TIP3   OH2 2282   5.751   4.987   1.711 -1.0321 -0.4079 -0.0316
  773TIP3    H1 2283   5.711   5.068   1.678  0.3029  0.8309  1.2806
  773TIP3    H2 2284   5.841   4.990   1.678 -0.2406 -0.0934  2.0024
  774TIP3   OH2 2285   6.396   5.258   4.407  0.2133  0.3472 -0.5295
  774TIP3    H1 2286   6.440   5.188   4.455  0.3365  0.9574  0.2644
  774TIP3    H2 2287   6.437   5.338   4.437 -2.4724  1.1087  1.5218
  775TIP3   OH2 2288   0.465   5.978   3.663  0.2097 -0.0049  0.0302
  775TIP3    H1 2289   0.483   5.905   3.722  0.5320  1.7091  2.1661
  775TIP3    H2 2290   0.369   5.978   3.654  0.2799 -1.3825 -0.9898
  776TIP3   OH2 2291   5.849   4.182   3.769  0.6135  0.2325 -0.1579
  776TIP3    H1 2292   5.859   4.244   3.696 -0.3090  1.0650  0.3915
  776TIP3    H2 2293   5.877   4.098   3.734  1.6903  0.9153 -0.9983
  777TIP3   OH2 2294   3.806   2.110   0.414  0.0046 -0.3557 -0.6250
  777TIP3    H1 2295   3.758   2.030   0.396 -0.3182 -0.0971 -0.9307
  777TIP3    H2 2296   3.748   2.180   0.383 -0.9781  0.1740  2.1317
  778TIP3   OH2 2297   2.642   6.793   3.803  0.3334 -0.6694  0.6047
  778TIP3    H1 2298   2.714   6.857   3.806  0.4211 -0.6143 -1.1497
  778TIP3    H2 2299   2.679   6.714   3.842  0.7385 -0.1105  1.3874
  779TIP3   OH2 2300   1.373   1.381   0.074 -0.0867 -1.6383  0.2455
  779TIP3    H1 2301   1.326   1.381   0.157 -1.5653 -0.9368 -0.5597
  779TIP3    H2 2302   1.403   1.471   0.063  0.7245 -1.8835  0.3326
  780TIP3   OH2 2303   6.864   5.738   0.135  0.3754  0.0899  0.3762
  780TIP3    H1 2304   6.816   5.728   0.217 -1.1842 -0.2257 -0.5297
  780TIP3    H2 2305   6.956   5.735   0.160 -0.0497 -1.4508  1.9394
  781TIP3   OH2 2306   1.314  -0.028   2.326  0.0995 -0.4076 -0.2551
  781TIP3    H1 2307   1.404  -0.002   2.344 -0.1765  0.9535 -0.7773
  781TIP3    H2 2308   1.261   0.047   2.351 -1.1039 -1.8238  1.7597
  782TIP3   OH2 2309   1.219   5.287   2.587 -0.4110 -0.5764 -0.0069
  782TIP3    H1 2310   1.296   5.299   2.533 -1.0964  1.3898 -0.6610
  782TIP3    H2 2311   1.250   5.241   2.665  1.2132 -0.6286 -0.6609
  783TIP3   OH2 2312   1.805   6.081   2.174 -0.4574  0.7222 -0.0186
  783TIP3    H1 2313   1.755   6.022   2.231  1.0438  0.4393  1.0441
  783TIP3    H2 2314   1.824   6.028   2.096  1.3931 -0.4923  1.1670
  784TIP3   OH2 2315   1.316   4.072   3.551  0.3062 -0.2485  0.8918
  784TIP3    H1 2316   1.335   4.144   3.612  1.2694  0.4501 -0.1951
  784TIP3    H2 2317   1.225   4.048   3.571 -0.6293  2.3883  0.1913
  785TIP3   OH2 2318   5.532   4.404   0.023  0.3255 -0.0821  0.3522
  785TIP3    H1 2319   5.525   4.311   0.045 -0.3262 -0.5509 -1.6304
  785TIP3    H2 2320   5.522   4.449   0.107 -0.1121 -1.7698  1.2529
  786TIP3   OH2 2321   1.641   2.025   1.016 -0.0869  0.0078  0.4563
  786TIP3    H1 2322   1.634   2.013   1.110  1.4945 -0.8475  0.4956
  786TIP3    H2 2323   1.594   1.949   0.979  2.2407 -1.6175  0.6347
  787TIP3   OH2 2324   6.217   4.350   0.753  0.2139 -0.1045 -0.1451
  787TIP3    H1 2325   6.215   4.379   0.844 -1.9707 -1.9350  0.4845
  787TIP3    H2 2326   6.233   4.429   0.703 -0.7376  1.3328  1.7022
  788TIP3   OH2 2327   3.850   4.416   0.146 -0.3773 -0.0312  0.0956
  788TIP3    H1 2328   3.805   4.489   0.104 -0.0558  0.4034  0.5020
  788TIP3    H2 2329   3.817   4.415   0.236  1.6029  1.3383  0.9109
  789TIP3   OH2 2330   2.406   0.521   2.549 -0.2212 -0.3968  0.3651
  789TIP3    H1 2331   2.386   0.453   2.485 -0.5627 -0.5410  0.6167
  789TIP3    H2 2332   2.436   0.595   2.497  1.1003 -1.0528  0.1438
  790TIP3   OH2 2333   3.298   0.147   5.332  0.6483  0.3307  0.0359
  790TIP3    H1 2334   3.382   0.107   5.307  2.4361  2.9814  1.3152
  790TIP3    H2 2335   3.323   0.228   5.377 -2.6632  2.2449 -1.2396
  791TIP3   OH2 2336   2.404   2.639   3.343 -0.0725  0.5868 -0.4006
  791TIP3    H1 2337   2.344   2.709   3.369 -0.3720 -0.6065  2.5494
  791TIP3    H2 2338   2.353   2.559   3.356  1.3190 -0.3368 -0.4475
  792TIP3   OH2 2339   6.255   0.378   1.149 -0.3772  0.1049  0.0917
  792TIP3    H1 2340   6.214   0.349   1.067  0.3324 -0.9926  0.0930
  792TIP3    H2 2341   6.256   0.473   1.143 -0.3576  0.0435 -1.1684
  793TIP3   OH2 2342   5.942   4.293   3.516  0.6980  0.3912  0.8981
  793TIP3    H1 2343   5.980   4.222   3.465 -0.9570  0.2396 -0.2130
  793TIP3    H2 2344   5.988   4.372   3.485  0.3829  0.1758 -0.1655
  794TIP3   OH2 2345   2.433   1.175   4.292 -0.3645 -0.3235  0.0758
  794TIP3    H1 2346   2.513   1.190   4.342  0.4504 -0.2677 -1.2157
  794TIP3    H2 2347   2.455   1.201   4.203 -1.7414 -0.5814 -0.3593
  795TIP3   OH2 2348   6.908   2.593   3.453  0.0839 -0.4437 -0.2017
  795TIP3    H1 2349   6.974   2.540   3.497  0.8952  0.5379 -0.1876
  795TIP3    H2 2350   6.860   2.637   3.523  1.6084  1.3953 -0.2314
  796TIP3   OH2 2351   0.766   3.631   2.337  0.4419  0.6774 -0.2258
  796TIP3    H1 2352   0.701   3.631   2.407 -0.9074  3.8241 -1.3206
  796TIP3    H2 2353   0.786   3.538   2.324 -2.6648 -0.3447  1.1913
  797TIP3   OH2 2354   7.044   6.071   2.517  0.4810  0.0549 -0.5132
  797TIP3    H1 2355   7.046   6.167   2.511  0.8526 -0.0002 -1.4182
  797TIP3    H2 2356   6.953   6.051   2.540  0.7906  0.6903  1.4778
  798TIP3   OH2 2357   5.679   4.986   0.179 -0.2571  0.3862  0.1084
  798TIP3    H1 2358   5.626   5.010   0.255 -3.5210 -0.0155 -1.8307
  798TIP3    H2 2359   5.651   5.047   0.111  0.9555 -0.6344 -1.3655
  799TIP3   OH2 2360   6.329   6.448   4.629 -0.0976 -0.8226  0.1567
  799TIP3    H1 2361   6.421   6.475   4.633 -0.2522 -0.2631  0.0183
  799TIP3    H2 2362   6.285   6.502   4.695  0.0131 -2.5566  1.7520
  800TIP3   OH2 2363   6.173   2.355   5.795  0.3512  0.0718  0.0079
  800TIP3    H1 2364   6.178   2.342   5.890  1.6280  0.4934  0.0161
  800TIP3    H2 2365   6.087   2.393   5.781 -0.3314 -1.0723  0.8573
  801TIP3   OH2 2366   4.443   0.269   4.337  0.1673  0.4490  0.3505
  801TIP3    H1 2367   4.534   0.300   4.333  0.8445 -1.2999  1.2093
  801TIP3    H2 2368   4.391   0.349   4.342  1.6348  1.5035 -0.3444
  802TIP3   OH2 2369   1.373   5.704   4.230  1.4057 -0.2202  0.3769
  802TIP3    H1 2370   1.402   5.615   4.211 -0.4900 -0.3789 -2.4414
  802TIP3    H2 2371   1.339   5.699   4.319  0.2694 -2.6873 -0.1026
  803TIP3   OH2 2372   4.765   2.966   3.091 -0.3589 -0.1338  0.2717
  803TIP3    H1 2373   4.837   3.026   3.111 -0.6032 -0.3867  2.1373
  803TIP3    H2 2374   4.714   3.011   3.024 -0.2314  1.5369  1.2335
  804TIP3   OH2 2375   5.213   3.120   4.592  0.0237 -0.2758 -0.0779
  804TIP3    H1 2376   5.257   3.180   4.652  1.0100 -0.4632 -0.5967
  804TIP3    H2 2377   5.147   3.076   4.645  1.7338 -1.3949  1.2243
  805TIP3   OH2 2378   7.109   0.697   2.898  0.0007  0.2706 -0.0324
  805TIP3    H1 2379   7.199   0.671   2.882  0.2036  1.7796 -1.6248
  805TIP3    H2 2380   7.093   0.770   2.837 -2.4435 -0.2772 -0.1619
  806TIP3   OH2 2381   3.504   5.276   4.426 -0.3145  0.1754  0.2474
  806TIP3    H1 2382   3.535   5.267   4.336 -0.3780 -0.3549  0.2744
  806TIP3    H2 2383   3.424   5.327   4.418 -1.2312 -1.2481 -0.2003
  807TIP3   OH2 2384   7.137   4.368   5.214 -0.0985  0.6926  0.2638
  807TIP3    H1 2385   7.094   4.335   5.135  0.7078  0.0867  0.0635
  807TIP3    H2 2386   7.155   4.460   5.194 -0.0825  0.5983 -0.1811
  808TIP3   OH2 2387   0.290   4.029   3.990 -0.3562  0.0406  0.0991
  808TIP3    H1 2388   0.197   4.020   3.968 -0.2497 -0.5840 -0.1096
  808TIP3    H2 2389   0.292   4.094   4.061 -1.0303 -0.5256  0.6516
  809TIP3   OH2 2390   5.770   5.906   3.365  0.2248 -0.5773 -0.9102
  809TIP3    H1 2391   5.682   5.916   3.400  1.0665 -2.3459  2.1290
  809TIP3    H2 2392   5.761   5.842   3.294 -1.0039 -0.2749 -1.0466
  810TIP3   OH2 2393   3.549   5.969   0.627  0.5575 -0.1896  0.0126
  810TIP3    H1 2394   3.485   5.904   0.655  0.5635  0.4596  1.6363
  810TIP3    H2 2395   3.506   6.053   0.642  1.6334  0.2505  0.7760
  811TIP3   OH2 2396   1.395   1.767   5.127 -0.5984 -0.1064  0.3985
  811TIP3    H1 2397   1.436   1.782   5.212 -0.4408 -0.3398  0.3666
  811TIP3    H2 2398   1.414   1.675   5.108  1.5479  0.5365 -1.0235
  812TIP3   OH2 2399   6.749   2.033   1.285 -0.1570  0.4300  0.0295
  812TIP3    H1 2400   6.659   2.055   1.307 -0.3069  0.7135 -0.8217
  812TIP3    H2 2401   6.782   1.985   1.361 -1.0450  0.2578  0.3128
  813TIP3   OH2 2402   5.737   0.590   4.723  0.3476 -0.0913  0.0942
  813TIP3    H1 2403   5.657   0.598   4.671  0.4949  0.9160  0.0009
  813TIP3    H2 2404   5.768   0.680   4.734  0.6568 -0.3278  1.4028
  814TIP3   OH2 2405   3.445   6.747   1.009 -0.0122 -0.1505 -0.1869
  814TIP3    H1 2406   3.452   6.813   0.940 -0.9281  0.8662  0.6675
  814TIP3    H2 2407   3.396   6.675   0.969 -0.8065  0.5588 -0.5148
  815TIP3   OH2 2408   6.465   4.137   2.251  0.3895 -0.1840 -0.2735
  815TIP3    H1 2409   6.431   4.224   2.229  0.4231 -0.3779 -1.1364
  815TIP3    H2 2410   6.560   4.145   2.238  0.1943 -0.9574 -2.6722
  816TIP3   OH2 2411   4.259   4.794   1.202 -0.4652 -0.3103 -0.7488
  816TIP3    H1 2412   4.218   4.729   1.259  1.3866  1.1101  2.4375
  816TIP3    H2 2413   4.195   4.865   1.196  0.4996  0.9996  2.5113
  817TIP3   OH2 2414   3.476   4.815   4.940  0.5178 -0.3245  0.0204
  817TIP3    H1 2415   3.401   4.761   4.918 -0.6478  0.7859  1.0993
  817TIP3    H2 2416   3.493   4.796   5.032  1.0370  0.0314  0.0044
  818TIP3   OH2 2417   4.844   1.907   2.319 -0.0579  0.1102  0.3005
  818TIP3    H1 2418   4.769   1.889   2.262 -0.3626  0.6299  0.5363
  818TIP3    H2 2419   4.806   1.919   2.406  0.4809 -1.4327  0.7723
  819TIP3   OH2 2420   4.873   4.232   5.564 -0.1369  0.4180 -0.0016
  819TIP3    H1 2421   4.852   4.325   5.552 -0.7411  0.3505  0.4713
  819TIP3    H2 2422   4.813   4.186   5.506 -0.8573  0.2596  0.8462
  820TIP3   OH2 2423   5.560   4.447   1.164 -0.1799  0.1451  0.6383
  820TIP3    H1 2424   5.546   4.533   1.204  0.0434 -0.3380  1.7960
  820TIP3    H2 2425   5.492   4.440   1.097 -0.7420  0.8711  1.1183
  821TIP3   OH2 2426   7.139   2.967   3.525  0.2253  0.2731 -0.6356
  821TIP3    H1 2427   7.057   2.920   3.514  0.4276  0.3623 -2.9826
  821TIP3    H2 2428   7.206   2.899   3.526  0.3404  0.3444 -1.8561
  822TIP3   OH2 2429   6.877   6.439   0.399 -0.2936  0.0100  0.4822
  822TIP3    H1 2430   6.821   6.395   0.335 -0.3850 -0.4173  0.8504
  822TIP3    H2 2431   6.817   6.468   0.467 -0.0186 -0.9156  1.1410
  823TIP3   OH2 2432   6.076   0.669   2.128  0.1885  0.0367  0.3774
  823TIP3    H1 2433   5.995   0.709   2.160  0.2019  0.3709  0.0091
  823TIP3    H2 2434   6.143   0.697   2.190  0.0676 -0.0253  0.5370
  824TIP3   OH2 2435   0.163   3.117   4.989  0.5592  1.0138  0.3055
  824TIP3    H1 2436   0.180   3.200   4.944  0.5720  1.1572  0.5693
  824TIP3    H2 2437   0.173   3.050   4.921 -0.5708  1.3036 -0.1681
  825TIP3   OH2 2438   0.687   0.031   4.347 -0.3458  0.3995 -0.1578
  825TIP3    H1 2439   0.627   0.064   4.280 -0.9276 -0.2332  0.0372
  825TIP3    H2 2440   0.633   0.024   4.426  0.2447  0.7914  0.2945
  826TIP3   OH2 2441   1.747   6.241   5.296 -0.0421  0.0031 -0.2630
  826TIP3    H1 2442   1.727   6.249   5.202 -0.7320  1.2165 -0.0394
  826TIP3    H2 2443   1.662   6.242   5.339  0.2159 -1.5656  0.3412
  827TIP3   OH2 2444   4.163   2.711   3.900  0.2220 -0.2861  0.2319
  827TIP3    H1 2445   4.164   2.804   3.879  0.3692 -0.7129 -1.9056
  827TIP3    H2 2446   4.071   2.692   3.919  0.2334  0.3378  0.9352
  828TIP3   OH2 2447   5.099   1.024   3.552 -0.4685  0.0985 -0.3916
  828TIP3    H1 2448   5.007   1.001   3.567 -1.1120  1.3508 -2.1987
  828TIP3    H2 2449   5.110   1.109   3.595 -0.0078 -0.2381  0.1810
  829TIP3   OH2 2450   0.306   0.688   0.282 -0.0971  0.0408  0.1755
  829TIP3    H1 2451   0.291   0.782   0.273  1.1718  0.1936 -0.5603
  829TIP3    H2 2452   0.246   0.649   0.218  0.5438  0.4552 -0.6930
  830TIP3   OH2 2453   0.122   1.388   5.802 -0.2485  0.3288 -0.1009
  830TIP3    H1 2454   0.186   1.423   5.863  0.9552 -3.6908  1.2380
  830TIP3    H2 2455   0.041   1.380   5.853 -0.6115  1.3355 -0.4955
  831TIP3   OH2 2456   5.344   4.294   3.844 -0.5847 -0.5132 -0.0884
  831TIP3    H1 2457   5.425   4.243   3.840 -0.2738  0.0232 -1.0762
  831TIP3    H2 2458   5.365   4.374   3.796 -0.3763  1.5427  3.1129
  832TIP3   OH2 2459   3.966   4.300   2.058  0.3891 -0.3227 -0.0111
  832TIP3    H1 2460   3.970   4.388   2.021  2.6532 -0.8861 -1.2899
  832TIP3    H2 2461   3.920   4.311   2.141  0.6331  2.0622 -0.1228
  833TIP3   OH2 2462   2.638   2.478   2.690  0.7833  0.6490  0.0730
  833TIP3    H1 2463   2.689   2.540   2.638 -0.9873  0.7486 -1.6462
  833TIP3    H2 2464   2.575   2.532   2.737  0.1639  0.2790 -0.3221
  834TIP3   OH2 2465   0.280   0.548   1.907 -0.4656 -0.4324  0.1027
  834TIP3    H1 2466   0.232   0.628   1.923 -0.9929 -0.9599  1.2941
  834TIP3    H2 2467   0.326   0.530   1.989  1.9341  0.1307 -1.0260
  835TIP3   OH2 2468   1.390   5.460   5.390 -0.2860  0.5365  0.5107
  835TIP3    H1 2469   1.325   5.474   5.459 -1.1497  2.1153 -0.5436
  835TIP3    H2 2470   1.456   5.527   5.405 -0.7282  1.2122 -0.4278
  836TIP3   OH2 2471  -0.006   3.349   0.732  0.1307 -0.4893 -0.0354
  836TIP3    H1 2472   0.076   3.379   0.771  0.9230 -3.4183  0.7856
  836TIP3    H2 2473  -0.048   3.297   0.801 -0.7719 -1.8320 -1.5210
  837TIP3   OH2 2474   6.831   3.105   1.811  0.0617 -0.8566 -0.2181
  837TIP3    H1 2475   6.760   3.169   1.807  1.0506  0.3604  0.7447
  837TIP3    H2 2476   6.908   3.156   1.837  0.7638 -2.5187  1.1758
  838TIP3   OH2 2477   2.057   2.774   1.489 -0.3392  0.4712  0.0281
  838TIP3    H1 2478   1.970   2.813   1.488 -0.1326  0.9695  0.6957
  838TIP3    H2 2479   2.043   2.683   1.516 -0.7638  0.2182 -0.9901
  839TIP3   OH2 2480   2.001   5.748   3.185  0.0494  0.0777 -0.2111
  839TIP3    H1 2481   2.096   5.746   3.199 -0.1266 -0.4200  1.0372
  839TIP3    H2 2482   1.976   5.657   3.174 -0.3331  0.1719 -0.1529
  840TIP3   OH2 2483   1.847   0.868   5.004  0.4097  0.1702 -0.0464
  840TIP3    H1 2484   1.915   0.927   4.970 -0.0834  1.0545  0.4450
  840TIP3    H2 2485   1.797   0.843   4.926  0.1349  1.0717 -0.1765
  841TIP3   OH2 2486   6.694   5.356   3.042 -0.4496  0.0759  0.1868
  841TIP3    H1 2487   6.747   5.321   2.971  1.0437  1.1374  0.7248
  841TIP3    H2 2488   6.730   5.316   3.121 -2.3599 -1.4119  0.3498
  842TIP3   OH2 2489   0.538   1.317   3.259  0.3020  0.1340 -0.3972
  842TIP3    H1 2490   0.519   1.244   3.318  1.3977  0.7217  0.7200
  842TIP3    H2 2491   0.452   1.353   3.237 -0.1253  0.1005  1.1161
  843TIP3   OH2 2492   0.302   2.019   5.152  0.3796  0.5029  0.3891
  843TIP3    H1 2493   0.278   2.071   5.076  1.5744 -0.7465 -0.8960
  843TIP3    H2 2494   0.376   2.066   5.191  1.7019 -0.3241 -0.9841
  844TIP3   OH2 2495   0.481   2.666   4.727 -0.1978 -0.3654 -0.6032
  844TIP3    H1 2496   0.513   2.643   4.640  2.0262 -1.6137  0.4618
  844TIP3    H2 2497   0.407   2.607   4.742  0.2810 -1.1192 -1.1302
  845TIP3   OH2 2498   4.990   4.626   4.279  0.1260 -0.4025 -0.3501
  845TIP3    H1 2499   5.019   4.710   4.245 -2.1369  0.0457 -1.3755
  845TIP3    H2 2500   4.980   4.570   4.202 -0.9872 -0.7438  0.0229
  846TIP3   OH2 2501   0.087   3.026   0.074  0.1158  0.3081 -0.1784
  846TIP3    H1 2502  -0.004   2.998   0.074  0.5010 -1.0332 -0.8534
  846TIP3    H2 2503   0.102   3.058  -0.015  0.0092  1.6487  0.2557
  847TIP3   OH2 2504   6.035   2.821   5.915 -0.2825 -0.4939 -0.1550
  847TIP3    H1 2505   5.962   2.824   5.853 -0.3195  2.3760 -0.0863
  847TIP3    H2 2506   6.101   2.880   5.877  0.5010 -0.2161  1.5503
  848TIP3   OH2 2507   0.036   2.046   0.224  0.0235  0.2990  0.4514
  848TIP3    H1 2508  -0.029   2.005   0.166 -1.0551  0.4247  1.5311
  848TIP3    H2 2509   0.116   1.996   0.208 -0.5536 -0.4377 -0.2760
  849TIP3   OH2 2510   1.171   2.092   4.559  0.3046 -0.3256 -0.3261
  849TIP3    H1 2511   1.135   2.011   4.525 -1.3114  0.2150 -0.0191
  849TIP3    H2 2512   1.143   2.094   4.651  3.5803 -1.2131  0.8231
  850TIP3   OH2 2513   2.591   3.552   3.414 -0.1417 -0.8261  0.8556
  850TIP3    H1 2514   2.657   3.491   3.447  0.7966 -0.0523  0.4524
  850TIP3    H2 2515   2.588   3.536   3.320  1.7995  1.2391  0.3361
  851TIP3   OH2 2516   5.358   0.440   3.126  0.6277  0.1693 -0.3307
  851TIP3    H1 2517   5.453   0.440   3.136  0.5923 -0.6946  0.1603
  851TIP3    H2 2518   5.343   0.418   3.034  0.9023  0.4236 -0.4353
  852TIP3   OH2 2519   5.586   1.719   2.386  0.4981 -0.3060 -0.2292
  852TIP3    H1 2520   5.625   1.638   2.421 -1.9961 -1.0126  1.2284
  852TIP3    H2 2521   5.602   1.714   2.292  1.2115 -2.0577 -0.0669
  853TIP3   OH2 2522   6.770   1.198   1.022 -0.6024 -0.0722  0.3515
  853TIP3    H1 2523   6.676   1.215   1.020 -0.5345  0.3253 -1.8966
  853TIP3    H2 2524   6.777   1.108   1.053 -1.8070 -0.3966 -0.2327
  854TIP3   OH2 2525   4.315   5.198   4.844 -0.2892 -0.5584 -0.2402
  854TIP3    H1 2526   4.239   5.139   4.838  0.0736 -1.2256  1.2410
  854TIP3    H2 2527   4.381   5.156   4.789 -1.1550  0.3529 -2.0477
  855TIP3   OH2 2528   5.529   3.269   0.145 -0.0487  0.2495  0.6610
  855TIP3    H1 2529   5.463   3.282   0.213 -0.2870 -0.0265  0.4834
  855TIP3    H2 2530   5.486   3.214   0.080  0.3832  0.0021  0.5822
  856TIP3   OH2 2531   5.547   0.240   1.861 -0.1680  0.2422  1.0692
  856TIP3    H1 2532   5.622   0.283   1.902 -0.6956  1.2690  0.9897
  856TIP3    H2 2533   5.585   0.178   1.798  0.6610 -1.3030  2.9975
  857TIP3   OH2 2534   1.122   5.093   3.690 -0.5041 -0.0993 -0.9428
  857TIP3    H1 2535   1.211   5.070   3.664  1.0336 -0.8279  3.8813
  857TIP3    H2 2536   1.127   5.186   3.713 -0.5605 -0.4028  0.4192
  858TIP3   OH2 2537   2.565   5.847   5.548  0.2698  0.3055  0.2441
  858TIP3    H1 2538   2.566   5.767   5.495  1.5346  0.1555  0.4562
  858TIP3    H2 2539   2.474   5.876   5.546 -0.1403 -0.9331 -0.1494
  859TIP3   OH2 2540   1.008   6.570   1.120  0.9223  0.1246 -0.0864
  859TIP3    H1 2541   0.913   6.572   1.127  0.8159  1.5779 -1.3720
  859TIP3    H2 2542   1.039   6.564   1.210 -0.3540 -2.2379  0.2735
  860TIP3   OH2 2543   5.205   2.379   4.463 -0.1140 -0.1008 -0.5460
  860TIP3    H1 2544   5.113   2.403   4.458  0.1111  0.9048 -0.0814
  860TIP3    H2 2545   5.206   2.284   4.451 -1.0710  0.0475 -2.0415
  861TIP3   OH2 2546   3.004   2.659   5.180 -0.4307 -0.5621  0.2826
  861TIP3    H1 2547   2.916   2.620   5.185 -0.6643 -0.1572 -0.4896
  861TIP3    H2 2548   3.063   2.587   5.202 -0.9521 -0.8516  0.7591
  862TIP3   OH2 2549   3.522   5.624   1.813  0.3153  0.5608  0.3233
  862TIP3    H1 2550   3.469   5.692   1.854 -1.8291 -1.5770  1.3541
  862TIP3    H2 2551   3.606   5.627   1.859 -0.2347  1.5742  1.2907
  863TIP3   OH2 2552   2.628   3.150   5.576  0.6656  0.1272  0.2636
  863TIP3    H1 2553   2.670   3.104   5.648  2.3287 -0.4812 -1.0212
  863TIP3    H2 2554   2.675   3.233   5.571  0.6130  0.1334 -0.1536
  864TIP3   OH2 2555   1.655   3.637   0.385 -0.2319 -0.1805  1.0701
  864TIP3    H1 2556   1.593   3.707   0.366  0.2538 -0.0771 -0.2278
  864TIP3    H2 2557   1.714   3.674   0.452 -1.4623 -0.2457  2.2393
  865TIP3   OH2 2558   0.896   4.592   5.664 -0.0980 -0.2728 -0.1673
  865TIP3    H1 2559   0.896   4.647   5.585 -0.2648 -1.0555 -0.7275
  865TIP3    H2 2560   0.838   4.638   5.724 -0.1661  0.2142 -0.5909
  866TIP3   OH2 2561   5.138   6.136   0.744 -0.0160  0.3241 -0.1267
  866TIP3    H1 2562   5.109   6.227   0.746 -0.8861  0.0647 -0.3454
  866TIP3    H2 2563   5.152   6.117   0.651  0.9929  0.4810 -0.0123
  867TIP3   OH2 2564   7.107   0.655   1.998  0.0649  0.1430 -0.4395
  867TIP3    H1 2565   7.103   0.692   2.086 -1.6311 -0.3707 -0.2649
  867TIP3    H2 2566   7.021   0.615   1.985 -0.2630  1.4659 -2.8786
  868TIP3   OH2 2567   3.770   4.849   0.626 -0.0145  0.3648  0.4842
  868TIP3    H1 2568   3.863   4.864   0.647  0.0448  1.1648 -0.2746
  868TIP3    H2 2569   3.732   4.937   0.624 -0.5844  0.1092 -0.1331
  869TIP3   OH2 2570   7.099   0.855   1.663  0.2542  0.2456  0.1509
  869TIP3    H1 2571   7.013   0.891   1.643  0.0751 -0.6292 -0.7289
  869TIP3    H2 2572   7.080   0.766   1.693  0.7888  0.3776  0.9093
  870TIP3   OH2 2573   1.310   5.790   2.058  0.1732 -0.2583  0.1603
  870TIP3    H1 2574   1.221   5.823   2.069 -0.2250 -0.7081 -1.3938
  870TIP3    H2 2575   1.366   5.868   2.059 -0.5056  0.2728 -1.1580
  871TIP3   OH2 2576   6.223   6.470   0.107  0.1856  0.0755  0.2334
  871TIP3    H1 2577   6.250   6.450   0.197 -1.1478 -0.5029  0.5403
  871TIP3    H2 2578   6.284   6.420   0.052  0.6484 -0.0296  0.8276
  872TIP3   OH2 2579   1.192   2.850   5.848  0.5847 -0.9932 -0.1582
  872TIP3    H1 2580   1.103   2.837   5.816  0.7260  2.3056 -2.4335
  872TIP3    H2 2581   1.247   2.839   5.770  1.7824  0.2862  0.4640
  873TIP3   OH2 2582   4.042   4.898   5.141 -0.1369  0.0937  0.2546
  873TIP3    H1 2583   4.023   4.954   5.066  1.4272  0.7184  0.2963
  873TIP3    H2 2584   3.959   4.893   5.189 -0.6902  1.1172 -0.5605
  874TIP3   OH2 2585   0.335   1.772   4.008  0.1355  0.8005  0.0854
  874TIP3    H1 2586   0.404   1.781   3.943 -1.0350 -0.0911 -1.3533
  874TIP3    H2 2587   0.257   1.748   3.958 -0.8616  0.2196  1.7957
  875TIP3   OH2 2588   6.866   0.740   5.170 -0.8397  0.1452 -0.5620
  875TIP3    H1 2589   6.832   0.767   5.256 -0.3138  1.3408 -0.7066
  875TIP3    H2 2590   6.858   0.819   5.116  1.0628  0.1189 -0.9238
  876TIP3   OH2 2591   4.171   5.684   4.797 -0.1160 -0.0694 -0.1218
  876TIP3    H1 2592   4.173   5.602   4.846 -0.1634  0.2445  0.4119
  876TIP3    H2 2593   4.114   5.665   4.722  1.3098 -1.0584 -0.9992
  877TIP3   OH2 2594   0.465   6.324   2.048  0.4933  0.3109 -0.2640
  877TIP3    H1 2595   0.519   6.358   1.977  1.5980 -3.1063 -1.2758
  877TIP3    H2 2596   0.524   6.319   2.123  0.2850  0.7186 -0.0673
  878TIP3   OH2 2597   5.376   6.214   2.918  0.2171  0.9525 -0.2994
  878TIP3    H1 2598   5.305   6.172   2.967  0.7721 -1.1864 -1.1899
  878TIP3    H2 2599   5.351   6.306   2.913 -1.0472  0.8028  1.8672
  879TIP3   OH2 2600   5.923   6.156   2.198 -0.4893  0.0364 -0.0404
  879TIP3    H1 2601   5.880   6.081   2.158 -1.4712 -0.3319  1.6035
  879TIP3    H2 2602   5.951   6.124   2.284 -1.4426  1.6946  0.9237
  880TIP3   OH2 2603   0.276   2.460   4.652 -0.0406 -0.7354  0.0011
  880TIP3    H1 2604   0.359   2.415   4.668 -1.5844 -3.1483  2.0744
  880TIP3    H2 2605   0.213   2.389   4.637 -2.0222  0.9237 -0.0029
  881TIP3   OH2 2606   5.189   1.564   5.652 -0.2665 -0.1374  0.2296
  881TIP3    H1 2607   5.139   1.490   5.684 -1.7938 -0.0808 -1.8107
  881TIP3    H2 2608   5.274   1.528   5.626 -1.3085 -1.4247 -1.6012
  882TIP3   OH2 2609   4.299   1.018   2.491  1.0283  0.0113  0.4182
  882TIP3    H1 2610   4.358   1.092   2.500 -0.1175  0.9591  0.3910
  882TIP3    H2 2611   4.294   0.980   2.579  2.3779 -0.6640  0.2282
  883TIP3   OH2 2612   6.365   5.834   5.240 -0.0740  0.0204 -0.1176
  883TIP3    H1 2613   6.353   5.894   5.314 -0.0586 -0.1117 -0.0070
  883TIP3    H2 2614   6.422   5.766   5.274 -0.6934 -0.4552 -0.0124
  884TIP3   OH2 2615   3.508   6.596   5.145 -0.1905 -0.4470  0.6637
  884TIP3    H1 2616   3.416   6.580   5.163 -0.0467  1.1772  3.3881
  884TIP3    H2 2617   3.516   6.692   5.144  1.2859 -0.5317 -0.8098
  885TIP3   OH2 2618   0.499   0.059   4.547 -0.6066 -0.0864  0.6459
  885TIP3    H1 2619   0.407   0.076   4.568 -1.3911 -1.2775 -1.4895
  885TIP3    H2 2620   0.511  -0.034   4.565 -0.4841 -0.4457 -1.1481
  886TIP3   OH2 2621   0.360   6.247   3.463  0.3732 -0.1873  0.3185
  886TIP3    H1 2622   0.385   6.330   3.422  2.0747 -0.9241 -0.2302
  886TIP3    H2 2623   0.286   6.270   3.520  0.5392  1.6129 -0.1143
  887TIP3   OH2 2624   6.868   2.476   2.017 -0.5239  0.2387 -0.1981
  887TIP3    H1 2625   6.843   2.566   2.037 -1.5108  0.0192 -0.4110
  887TIP3    H2 2626   6.879   2.434   2.102  1.2530  0.8834 -0.0588
  888TIP3   OH2 2627   3.711   3.071   3.667  0.3653  0.4443  0.3342
  888TIP3    H1 2628   3.616   3.083   3.665  0.3871  0.9144  1.3986
  888TIP3    H2 2629   3.731   3.052   3.759  1.1867 -0.7206 -0.0609
  889TIP3   OH2 2630   1.906   4.975   3.931 -0.4921 -0.1610  0.4862
  889TIP3    H1 2631   1.812   4.979   3.950 -0.1777  1.6555  2.0453
  889TIP3    H2 2632   1.934   5.067   3.933  1.3319 -0.6789  0.1711
  890TIP3   OH2 2633   1.436   1.045   1.536  0.3378  0.4020  0.5587
  890TIP3    H1 2634   1.478   0.971   1.493  2.6742  1.9641  0.0088
  890TIP3    H2 2635   1.352   1.054   1.490  0.5842 -1.0609 -0.2494
  891TIP3   OH2 2636   0.786   3.679   4.622 -0.0476  0.4006 -0.1930
  891TIP3    H1 2637   0.727   3.753   4.616  0.4273  0.7486 -0.6551
  891TIP3    H2 2638   0.749   3.624   4.691 -1.1166  0.4162 -0.7418
  892TIP3   OH2 2639   5.445   2.537   2.015 -0.2251  0.0426 -0.3419
  892TIP3    H1 2640   5.518   2.597   2.032 -1.5518  1.2002  1.8390
  892TIP3    H2 2641   5.380   2.590   1.970 -1.2023  0.1601  1.1336
  893TIP3   OH2 2642   1.226   3.289   4.118  0.7282 -0.2677  0.0183
  893TIP3    H1 2643   1.245   3.213   4.064  0.4605 -0.4811  0.2171
  893TIP3    H2 2644   1.311   3.326   4.139  0.8044  0.2660 -1.1759
  894TIP3   OH2 2645   5.729   6.715   4.255  0.6418 -0.6198  0.6832
  894TIP3    H1 2646   5.808   6.737   4.306  2.3554  0.5127 -2.1876
  894TIP3    H2 2647   5.662   6.773   4.289  2.2702  1.5612  0.4328
  895TIP3   OH2 2648   0.646   2.291   3.867 -0.3659  0.0795 -0.2255
  895TIP3    H1 2649   0.704   2.214   3.866  0.5134  0.7300 -0.9354
  895TIP3    H2 2650   0.666   2.337   3.786 -1.0859  0.9199  0.0581
  896TIP3   OH2 2651   7.057   5.652   3.430  0.1605  0.1119 -0.2879
  896TIP3    H1 2652   6.965   5.669   3.413 -0.3577 -0.2101  1.9173
  896TIP3    H2 2653   7.072   5.566   3.390 -0.3320  0.3936 -1.1129
  897TIP3   OH2 2654   1.438   3.651   1.652 -0.3030 -0.0375  0.4258
  897TIP3    H1 2655   1.464   3.639   1.561 -1.1476  1.5095 -0.0585
  897TIP3    H2 2656   1.468   3.572   1.697  0.3043 -0.7293 -1.1486
  898TIP3   OH2 2657   1.216   0.096   1.324 -0.2530  0.0531  0.0849
  898TIP3    H1 2658   1.198   0.003   1.305 -1.2741  0.4527 -1.0848
  898TIP3    H2 2659   1.130   0.138   1.319  0.2098  1.0829  0.5214
  899TIP3   OH2 2660   7.100   0.184   0.860 -0.3500 -0.3927 -0.1754
  899TIP3    H1 2661   7.172   0.149   0.808 -0.2876 -0.0969 -0.2945
  899TIP3    H2 2662   7.022   0.167   0.807 -0.4170 -1.0579  0.1293
  900TIP3   OH2 2663   4.146   1.986   5.842 -0.3080  0.1160  0.4097
  900TIP3    H1 2664   4.120   2.054   5.905 -1.4271 -0.4815  0.6243
  900TIP3    H2 2665   4.226   1.949   5.879  0.1650  1.1255  0.4320
  901TIP3   OH2 2666   6.854   0.829   0.632  0.0343 -0.2222 -0.1693
  901TIP3    H1 2667   6.846   0.736   0.654 -2.0166 -0.5405 -1.8717
  901TIP3    H2 2668   6.940   0.837   0.592 -0.1309 -1.6142 -0.8587
  902TIP3   OH2 2669   0.748   5.442   2.689 -0.1465 -0.7244  0.0128
  902TIP3    H1 2670   0.755   5.467   2.782 -1.7259 -2.2503  0.5996
  902TIP3    H2 2671   0.835   5.409   2.667  0.8385  1.4392  0.3308
  903TIP3   OH2 2672   1.791   5.938   2.751 -0.3111  0.0739  0.0115
  903TIP3    H1 2673   1.831   5.854   2.771 -0.0384  0.5173  1.3900
  903TIP3    H2 2674   1.848   6.003   2.792 -1.2330  0.8574  0.0988
  904TIP3   OH2 2675   5.034   0.444   3.562  0.1225 -0.3651  0.2091
  904TIP3    H1 2676   4.974   0.373   3.538  0.2109 -0.4899  0.3599
  904TIP3    H2 2677   5.047   0.434   3.656  2.8093 -2.2282 -0.2543
  905TIP3   OH2 2678   4.558   4.743   0.288 -0.7166  0.2310 -0.2175
  905TIP3    H1 2679   4.553   4.839   0.296  0.6633  0.1787  2.1911
  905TIP3    H2 2680   4.517   4.711   0.368 -1.2744 -1.2363 -1.0597
  906TIP3   OH2 2681   4.706   5.208   0.504  0.1894  0.3725 -0.3101
  906TIP3    H1 2682   4.744   5.252   0.580  0.1973 -1.8349  1.0428
  906TIP3    H2 2683   4.628   5.164   0.538  0.5665 -1.2312 -1.4046
  907TIP3   OH2 2684   6.291   1.529   1.856  0.3329  0.2010 -0.5616
  907TIP3    H1 2685   6.342   1.603   1.891  2.5798 -1.4377 -0.1500
  907TIP3    H2 2686   6.216   1.522   1.915  1.1560  0.9359  0.6255
  908TIP3   OH2 2687   0.277   2.478   5.678  0.6882  0.1392  0.0280
  908TIP3    H1 2688   0.243   2.567   5.677  0.1882 -0.0478 -1.6715
  908TIP3    H2 2689   0.215   2.430   5.734 -0.5673  0.3043 -1.1829
  909TIP3   OH2 2690   6.542   4.697   2.788  0.2663 -0.1272  0.5200
  909TIP3    H1 2691   6.447   4.687   2.796 -0.2163  2.9401 -0.1311
  909TIP3    H2 2692   6.578   4.620   2.832 -2.4946 -0.9640  1.5357
  910TIP3   OH2 2693   6.512   6.494   1.677  0.3007  0.1919  0.2587
  910TIP3    H1 2694   6.552   6.531   1.598 -0.3528  0.3155 -0.0197
  910TIP3    H2 2695   6.425   6.533   1.679 -0.2495 -1.0039  0.1957
  911TIP3   OH2 2696   6.915   5.393   3.290 -0.0716  0.2140  0.0979
  911TIP3    H1 2697   6.985   5.366   3.349 -1.7959  0.4639  2.4010
  911TIP3    H2 2698   6.866   5.313   3.273  0.2049  0.2120 -0.7574
  912TIP3   OH2 2699   0.506   3.060   0.572 -0.0090 -0.6459  0.4831
  912TIP3    H1 2700   0.574   3.113   0.532  1.5278 -2.2119  0.8957
  912TIP3    H2 2701   0.430   3.069   0.513  0.8847  0.3127 -0.5536
  913TIP3   OH2 2702   2.877   5.029   2.422  0.4060 -0.2366 -0.2277
  913TIP3    H1 2703   2.865   4.934   2.419  2.8341 -0.6005 -0.4594
  913TIP3    H2 2704   2.847   5.059   2.336  0.5328 -0.9381 -0.5258
  914TIP3   OH2 2705   7.179   6.722   4.624 -0.4373  0.1623 -0.4887
  914TIP3    H1 2706   7.248   6.788   4.626  0.0755 -0.3612  1.4083
  914TIP3    H2 2707   7.218   6.647   4.580 -0.3459  0.4382 -0.8750
  915TIP3   OH2 2708   1.752   3.652   2.654 -0.5857 -0.3375  0.1666
  915TIP3    H1 2709   1.749   3.734   2.605  2.4512 -0.6782 -0.7811
  915TIP3    H2 2710   1.763   3.680   2.745  2.1904  0.4607 -0.3029
  916TIP3   OH2 2711   4.632   5.635   0.563  0.2836  0.0835  0.3187
  916TIP3    H1 2712   4.704   5.619   0.624  0.5546 -2.7915 -0.5744
  916TIP3    H2 2713   4.587   5.551   0.558 -0.7755  0.7180 -2.0954
  917TIP3   OH2 2714   6.796   2.948   2.286 -0.3410  0.5252 -0.2477
  917TIP3    H1 2715   6.817   2.975   2.375 -1.2924 -1.5540  0.6962
  917TIP3    H2 2716   6.852   3.001   2.230  1.1974  1.0125  1.6540
  918TIP3   OH2 2717   1.724   2.647   2.837  0.2232 -0.0723  0.4093
  918TIP3    H1 2718   1.802   2.599   2.865 -0.1676 -1.5294 -0.8620
  918TIP3    H2 2719   1.736   2.661   2.743 -1.1985 -0.6637  0.1093
  919TIP3   OH2 2720   6.869   1.925   1.527  0.0248 -0.3495  0.1980
  919TIP3    H1 2721   6.955   1.951   1.561  1.2286 -0.8899 -2.2028
  919TIP3    H2 2722   6.837   1.861   1.591  1.3358 -0.0509  1.2178
  920TIP3   OH2 2723   1.985   6.449   1.231 -0.3730 -0.2781  0.0344
  920TIP3    H1 2724   1.937   6.479   1.154  1.3463  0.5070 -0.7875
  920TIP3    H2 2725   1.957   6.508   1.302  0.3676  1.0880 -0.7578
  921TIP3   OH2 2726   0.250   4.847   1.410 -0.3918  0.4904 -0.2727
  921TIP3    H1 2727   0.298   4.784   1.463  0.0768  0.0082 -1.2482
  921TIP3    H2 2728   0.160   4.840   1.441  0.1567  1.6201  1.7990
  922TIP3   OH2 2729   5.771   0.593   3.731  0.3384 -0.3637 -0.3575
  922TIP3    H1 2730   5.844   0.533   3.742 -0.0178 -0.6848  0.2975
  922TIP3    H2 2731   5.810   0.671   3.691  1.0139 -0.5810 -0.1364
  923TIP3   OH2 2732   6.159   0.418   5.122  0.0719  0.3694  0.0832
  923TIP3    H1 2733   6.173   0.380   5.209  0.6932  0.9079  0.2299
  923TIP3    H2 2734   6.097   0.489   5.137 -1.4734 -0.8528 -0.2695
  924TIP3   OH2 2735   0.448   1.248   2.519 -0.7555 -0.3635 -0.4069
  924TIP3    H1 2736   0.399   1.322   2.556 -0.4582 -0.5043  0.2715
  924TIP3    H2 2737   0.483   1.282   2.437 -1.6032 -0.1183 -0.6795
  925TIP3   OH2 2738   5.212   1.993   4.974  0.2279 -0.2483 -0.2288
  925TIP3    H1 2739   5.189   2.056   4.905 -1.2711 -0.6930 -0.1670
  925TIP3    H2 2740   5.231   1.912   4.927 -0.4564 -0.4587 -0.1489
  926TIP3   OH2 2741   4.753   4.212   3.429  0.1822 -0.0289  0.2832
  926TIP3    H1 2742   4.800   4.133   3.401  0.9338 -0.5649  2.7302
  926TIP3    H2 2743   4.677   4.217   3.371  1.3644 -1.2003 -1.4585
  927TIP3   OH2 2744   3.155   6.656   5.627  0.6238  0.0935  0.4925
  927TIP3    H1 2745   3.159   6.750   5.609 -0.0543 -0.0792 -0.6528
  927TIP3    H2 2746   3.238   6.622   5.595  0.9696  0.3180  1.1207
  928TIP3   OH2 2747   4.727   0.514   0.514  0.1064  0.1885  0.0168
  928TIP3    H1 2748   4.675   0.540   0.589  0.0174 -1.9161  0.7619
  928TIP3    H2 2749   4.670   0.530   0.438 -1.0928 -0.6642  0.6945
  929TIP3   OH2 2750   0.562   3.788   5.072  0.3472  0.1722 -0.3330
  929TIP3    H1 2751   0.549   3.822   5.161  1.6139  0.1031 -0.1113
  929TIP3    H2 2752   0.610   3.706   5.084  1.2526  0.5677 -1.1128
  930TIP3   OH2 2753   4.439   4.485   1.294 -0.0463 -0.6691  0.1772
  930TIP3    H1 2754   4.462   4.531   1.214 -1.1163  0.7340  0.6231
  930TIP3    H2 2755   4.421   4.395   1.267  3.7945 -1.3777 -0.4681
  931TIP3   OH2 2756   2.315   5.613   5.030 -0.0462  0.3984 -0.6152
  931TIP3    H1 2757   2.238   5.595   5.085 -0.1569  0.4388 -0.7560
  931TIP3    H2 2758   2.390   5.602   5.089 -0.2467  2.6042  0.1405
  932TIP3   OH2 2759   5.219   5.755   1.784 -0.1341 -0.9477  0.4924
  932TIP3    H1 2760   5.159   5.791   1.719  0.1750 -1.0863  0.1251
  932TIP3    H2 2761   5.249   5.831   1.834 -0.1040 -0.7963  0.2459
  933TIP3   OH2 2762   5.017   5.230   2.594  0.2173  0.2258 -0.4471
  933TIP3    H1 2763   5.060   5.277   2.522  1.2460 -0.5121 -0.3197
  933TIP3    H2 2764   5.067   5.253   2.672  0.2472 -0.4512 -0.2613
  934TIP3   OH2 2765   0.380   6.260   3.786 -0.3920  0.2202  0.4574
  934TIP3    H1 2766   0.437   6.186   3.766  1.3031  0.7747  2.8036
  934TIP3    H2 2767   0.306   6.222   3.834  0.3983 -0.0147  1.5276
  935TIP3   OH2 2768   6.433   2.038   4.010 -0.3576 -1.0226 -0.2205
  935TIP3    H1 2769   6.347   2.042   4.051  0.3777 -1.2484  1.4257
  935TIP3    H2 2770   6.446   2.126   3.974 -1.6357 -1.2532 -1.2985
  936TIP3   OH2 2771   2.098   0.111   2.888  0.3037  0.4490 -0.6013
  936TIP3    H1 2772   2.128   0.199   2.866 -0.0170  1.5049  2.6157
  936TIP3    H2 2773   2.006   0.123   2.913  0.6173 -0.5025  1.1822
  937TIP3   OH2 2774   3.925   6.560   5.222  0.6415 -0.1489 -0.9656
  937TIP3    H1 2775   3.843   6.520   5.251  1.1119 -0.4761 -0.0723
  937TIP3    H2 2776   3.898   6.645   5.187 -0.1420 -0.4782 -1.1836
  938TIP3   OH2 2777   2.667   0.796   3.684  0.2510 -0.3025 -0.0882
  938TIP3    H1 2778   2.596   0.736   3.709 -0.1214 -0.9023 -2.3936
  938TIP3    H2 2779   2.745   0.758   3.724 -0.4124 -0.7260  0.8573
  939TIP3   OH2 2780   3.195   5.713   5.159  0.4217 -0.2858 -0.4175
  939TIP3    H1 2781   3.263   5.780   5.162  0.5587 -0.4196  2.4041
  939TIP3    H2 2782   3.168   5.710   5.067  2.1533  1.8360 -1.0829
  940TIP3   OH2 2783   2.258   3.469   2.049 -0.4061  0.4274  0.4925
  940TIP3    H1 2784   2.182   3.427   2.090 -0.7132 -0.3493 -0.7823
  940TIP3    H2 2785   2.233   3.477   1.957  1.1021  0.0449  0.0207
  941TIP3   OH2 2786   5.554   2.401   5.250  0.0049  0.0205 -0.8352
  941TIP3    H1 2787   5.625   2.337   5.243  0.0674  0.0694 -0.6381
  941TIP3    H2 2788   5.475   2.351   5.230  0.0681 -0.0901 -0.8077
  942TIP3   OH2 2789   7.017   3.639   1.900 -0.1575  0.2519 -0.1583
  942TIP3    H1 2790   7.044   3.640   1.992  0.7154  2.3999 -0.3943
  942TIP3    H2 2791   7.094   3.606   1.853 -1.0372 -2.1593 -0.0836
  943TIP3   OH2 2792   1.398   5.306   1.472  0.9217  0.2849  0.0631
  943TIP3    H1 2793   1.399   5.337   1.563  0.9899  0.4240  0.0165
  943TIP3    H2 2794   1.463   5.236   1.470 -0.2126 -0.8207  0.4898
  944TIP3   OH2 2795   6.182   3.527   1.986 -0.6462 -0.4019  0.3381
  944TIP3    H1 2796   6.166   3.456   2.048 -1.9579 -0.9093 -0.5255
  944TIP3    H2 2797   6.204   3.602   2.040 -2.1407 -0.7251  1.4614
  945TIP3   OH2 2798   6.982   3.587   2.821  0.3063 -0.0809 -0.0910
  945TIP3    H1 2799   7.048   3.652   2.797 -0.2665 -0.1786 -2.2291
  945TIP3    H2 2800   7.024   3.532   2.886  2.4428 -0.2922 -1.5491
  946TIP3   OH2 2801   4.931   4.985   3.537  0.1131 -0.1232 -0.2063
  946TIP3    H1 2802   4.916   5.076   3.510  0.5806 -0.2332 -0.8738
  946TIP3    H2 2803   4.995   4.952   3.474 -0.0901 -0.9310  0.0001
  947TIP3   OH2 2804   3.669   6.646   5.666  0.3152 -0.1078  0.0968
  947TIP3    H1 2805   3.684   6.677   5.755  2.3486 -1.0463  0.1425
  947TIP3    H2 2806   3.741   6.683   5.615  0.1095 -0.8920 -0.7982
  948TIP3   OH2 2807   1.608   3.346   4.222 -0.7850  0.1825 -0.1290
  948TIP3    H1 2808   1.689   3.310   4.185 -0.6062  0.7834 -0.3368
  948TIP3    H2 2809   1.548   3.272   4.224 -0.7395  0.0817 -1.4616
  949TIP3   OH2 2810   5.964   0.217   0.419 -0.1227  0.4755  0.0984
  949TIP3    H1 2811   6.023   0.240   0.347 -0.1146  2.3204  0.6258
  949TIP3    H2 2812   6.017   0.229   0.498 -0.6906  0.4164  0.4914
  950TIP3   OH2 2813   0.780   3.377   5.303  0.2630 -0.0936  0.0194
  950TIP3    H1 2814   0.789   3.290   5.264  1.1376 -0.5717  1.2418
  950TIP3    H2 2815   0.865   3.420   5.287 -0.0853  0.4653 -0.3822
  951TIP3   OH2 2816   6.192   4.466   3.457 -0.8758  0.5868  0.2585
  951TIP3    H1 2817   6.154   4.552   3.440 -0.7198  0.9161  1.5293
  951TIP3    H2 2818   6.285   4.476   3.435 -0.5857  1.1363  1.6650
  952TIP3   OH2 2819   6.254   5.569   3.399  1.1392  0.1413 -0.0875
  952TIP3    H1 2820   6.177   5.538   3.446  0.4763 -0.2014 -1.3375
  952TIP3    H2 2821   6.291   5.490   3.360  0.0600  0.6858 -2.3987
  953TIP3   OH2 2822   1.934   4.228   0.939  0.0099  0.0768 -0.1059
  953TIP3    H1 2823   1.936   4.219   0.844  0.2416  0.7109 -0.1605
  953TIP3    H2 2824   2.014   4.275   0.961  0.4303 -0.8842  0.5011
  954TIP3   OH2 2825   2.902   0.164   3.402 -0.8248  0.0802  0.1572
  954TIP3    H1 2826   2.820   0.124   3.430 -1.4633  1.0295 -0.3153
  954TIP3    H2 2827   2.917   0.236   3.463 -0.5262  0.1325  0.0255
  955TIP3   OH2 2828   1.778   4.706   0.858  0.0956  0.1697  0.9326
  955TIP3    H1 2829   1.756   4.626   0.809  0.8310 -0.4788  1.6454
  955TIP3    H2 2830   1.873   4.714   0.849 -0.0220  1.2263  0.4943
  956TIP3   OH2 2831   0.352   4.321   5.888  0.1901 -0.7934  0.3461
  956TIP3    H1 2832   0.436   4.292   5.852  0.2085 -0.7031  0.3149
  956TIP3    H2 2833   0.372   4.404   5.932  0.1964 -0.9822  0.7004
  957TIP3   OH2 2834   2.049   0.493   3.101  0.0216 -0.3233  0.2619
  957TIP3    H1 2835   2.061   0.418   3.159  0.3407 -0.6755 -0.2443
  957TIP3    H2 2836   2.014   0.562   3.157  0.3125 -0.6568  0.8634
  958TIP3   OH2 2837   5.961   4.540   4.121  0.5495  0.1139  0.0364
  958TIP3    H1 2838   5.958   4.464   4.063 -1.6298 -0.9339  1.3987
  958TIP3    H2 2839   6.031   4.519   4.183  0.6214 -0.3303 -0.1895
  959TIP3   OH2 2840   2.250   2.886   3.408  0.2846  0.7881 -0.4291
  959TIP3    H1 2841   2.212   2.943   3.342 -2.1598 -1.7471 -1.4382
  959TIP3    H2 2842   2.217   2.919   3.491  0.8988  2.2184 -0.7338
  960TIP3   OH2 2843   1.943   3.418   5.478  0.3153  0.4937  0.9654
  960TIP3    H1 2844   1.982   3.449   5.396 -0.6246  2.1065  1.0917
  960TIP3    H2 2845   1.952   3.323   5.474 -0.4542  0.4527 -1.3943
  961TIP3   OH2 2846   4.723   6.655   5.620 -0.1378 -0.0546  0.2966
  961TIP3    H1 2847   4.747   6.638   5.711 -1.2291  1.3453  0.8769
  961TIP3    H2 2848   4.668   6.580   5.595 -0.5769 -0.0034  1.0823
  962TIP3   OH2 2849   2.042   3.614   1.469  0.0261 -0.1015 -0.0079
  962TIP3    H1 2850   2.022   3.626   1.562  3.2941 -1.7881  1.0576
  962TIP3    H2 2851   2.007   3.528   1.447 -0.7496  0.2974 -0.3974
  963TIP3   OH2 2852   5.989   4.489   1.832 -0.0996  0.0092  0.1641
  963TIP3    H1 2853   6.067   4.528   1.872 -0.5003 -0.2208  1.1949
  963TIP3    H2 2854   5.959   4.555   1.768  1.1614 -0.0770 -0.5446
  964TIP3   OH2 2855   0.731   5.223   3.856 -0.0891  0.3255  0.5271
  964TIP3    H1 2856   0.666   5.217   3.786 -0.4588 -0.8271  0.9430
  964TIP3    H2 2857   0.682   5.256   3.931 -0.1669 -0.3311  0.7776
  965TIP3   OH2 2858   1.353   3.741   1.949 -0.1673  0.4765 -0.0436
  965TIP3    H1 2859   1.351   3.697   1.864  2.4806  0.2268 -0.0829
  965TIP3    H2 2860   1.304   3.822   1.936  0.1489  0.4215 -1.8326
  966TIP3   OH2 2861   2.368   5.101   0.980 -0.2832 -0.2814  0.7098
  966TIP3    H1 2862   2.449   5.100   0.928 -0.4185  0.4250  0.4753
  966TIP3    H2 2863   2.299   5.113   0.915 -0.6074 -1.1597  0.8804
  967TIP3   OH2 2864   3.111   3.700   5.600  0.3694 -0.4420 -0.9152
  967TIP3    H1 2865   3.196   3.726   5.635  0.1515  0.7310 -1.1920
  967TIP3    H2 2866   3.131   3.630   5.537  1.0491 -0.6312 -0.4964
  968TIP3   OH2 2867   5.554   2.773   3.922  0.0193 -0.6284 -0.2109
  968TIP3    H1 2868   5.513   2.853   3.890  0.8723  0.6000  1.6030
  968TIP3    H2 2869   5.646   2.781   3.896 -0.0693 -1.4890 -0.8345
  969TIP3   OH2 2870   2.775   0.416   5.680  0.1751 -0.6184  0.4065
  969TIP3    H1 2871   2.691   0.403   5.636  0.4643 -0.1703 -0.3055
  969TIP3    H2 2872   2.754   0.415   5.773 -1.2783  3.2123  0.2954
  970TIP3   OH2 2873   5.520   0.636   0.317 -0.3537 -0.2063 -0.1018
  970TIP3    H1 2874   5.572   0.680   0.250  1.5014 -2.1393 -0.0557
  970TIP3    H2 2875   5.574   0.641   0.396 -0.6657 -1.4159  0.2040
  971TIP3   OH2 2876   5.965   2.134   5.419 -0.3977 -0.1569 -0.1126
  971TIP3    H1 2877   5.975   2.137   5.514  0.2442 -0.0452 -0.1804
  971TIP3    H2 2878   6.023   2.203   5.386 -2.6940  1.7184 -0.4466
  972TIP3   OH2 2879   1.616   0.060   4.622  0.4827 -0.1178  0.1539
  972TIP3    H1 2880   1.684   0.122   4.648 -0.3581  1.0290 -0.3111
  972TIP3    H2 2881   1.664  -0.016   4.590  1.5381  0.5590  0.0943
  973TIP3   OH2 2882   5.790   5.377   2.666 -0.8098 -0.1982 -0.4393
  973TIP3    H1 2883   5.752   5.389   2.579 -0.1975 -0.0835 -0.6996
  973TIP3    H2 2884   5.846   5.454   2.679 -1.0716 -0.1068  0.1493
  974TIP3   OH2 2885   0.160   0.814   1.656 -0.8269  0.8727  0.4124
  974TIP3    H1 2886   0.071   0.848   1.651 -0.9614  0.3957 -0.6369
  974TIP3    H2 2887   0.161   0.739   1.596  0.1940  0.6866  0.6424
  975TIP3   OH2 2888   2.785   0.312   1.357  0.7590  0.2070  0.0372
  975TIP3    H1 2889   2.835   0.338   1.434  0.1105 -0.8051  0.8176
  975TIP3    H2 2890   2.719   0.381   1.346  2.5402  1.8119 -1.2830
  976TIP3   OH2 2891   2.435   0.046   2.584 -0.3101 -0.2666  0.0457
  976TIP3    H1 2892   2.358   0.011   2.629 -0.8393 -2.3943 -2.3000
  976TIP3    H2 2893   2.405   0.127   2.542 -0.3945  0.5258  1.5748
  977TIP3   OH2 2894   1.305   6.528   1.420  0.3282 -0.4397  0.5043
  977TIP3    H1 2895   1.351   6.503   1.501 -1.1430  2.5330  2.4337
  977TIP3    H2 2896   1.375   6.533   1.354  1.6342 -2.6431  1.5762
  978TIP3   OH2 2897   3.590   3.714   3.313 -0.0412  0.1408 -0.1468
  978TIP3    H1 2898   3.686   3.713   3.314 -0.0282  0.2044 -0.9310
  978TIP3    H2 2899   3.566   3.787   3.370  0.3353 -0.7922  1.2812
  979TIP3   OH2 2900   3.044   4.534   0.256  0.5487  0.9447 -0.4958
  979TIP3    H1 2901   3.093   4.616   0.256  1.9998  0.1173 -0.6660
  979TIP3    H2 2902   3.072   4.490   0.175 -1.3922  0.9324 -1.2321
  980TIP3   OH2 2903   6.992   1.402   4.459 -0.1325  0.6712  0.5119
  980TIP3    H1 2904   7.068   1.378   4.511 -0.6755  0.9130  1.4367
  980TIP3    H2 2905   6.965   1.320   4.416 -0.0422  0.3301  1.0961
  981TIP3   OH2 2906   7.195   4.223   0.988 -0.1064  0.3451  0.2399
  981TIP3    H1 2907   7.272   4.186   0.944  0.2169  1.8717 -0.5478
  981TIP3    H2 2908   7.152   4.148   1.028  0.1198 -0.9904 -1.8896
  982TIP3   OH2 2909   6.025   6.752   0.641 -0.3191  0.2021 -0.1770
  982TIP3    H1 2910   5.977   6.723   0.718  1.0328 -1.3868  0.1416
  982TIP3    H2 2911   6.109   6.782   0.675 -0.5181  1.5692 -0.8431
  983TIP3   OH2 2912   3.003   6.150   1.684 -0.0681 -0.0491 -0.7536
  983TIP3    H1 2913   3.052   6.068   1.691 -0.6338 -0.2650  1.0725
  983TIP3    H2 2914   2.918   6.131   1.723 -0.3731  1.2865 -0.7176
  984TIP3   OH2 2915   1.110   0.885   2.256 -0.5844  0.2707  0.1310
  984TIP3    H1 2916   1.020   0.916   2.242 -0.3574  0.7209 -0.3631
  984TIP3    H2 2917   1.163   0.964   2.254 -0.1472 -0.0181  0.2116
  985TIP3   OH2 2918   5.428   4.392   5.257  0.1625  0.8058 -0.6106
  985TIP3    H1 2919   5.414   4.451   5.183  0.6624  0.4722 -0.9792
  985TIP3    H2 2920   5.521   4.401   5.277  0.3250 -0.1396 -0.9109
  986TIP3   OH2 2921   3.686   6.066   1.752  0.4557 -0.0353 -0.0553
  986TIP3    H1 2922   3.591   6.054   1.741  0.3647  0.4845  0.1148
  986TIP3    H2 2923   3.725   6.018   1.680  0.0682 -0.4019 -0.0274
  987TIP3   OH2 2924   0.093   6.508   1.120  0.1813 -0.2902 -0.2755
  987TIP3    H1 2925   0.176   6.504   1.073 -0.9711  1.2042 -2.6731
  987TIP3    H2 2926   0.031   6.542   1.055 -2.1706 -0.7441  1.5948
  988TIP3   OH2 2927   4.425   4.637   3.124  0.0769 -0.1718  0.2223
  988TIP3    H1 2928   4.457   4.549   3.143  0.0127 -0.6388 -1.6485
  988TIP3    H2 2929   4.501   4.682   3.087 -0.3002  0.0668 -0.2612
  989TIP3   OH2 2930   1.358   0.086   0.403 -0.4328  0.0633 -0.1993
  989TIP3    H1 2931   1.354   0.155   0.336 -0.0845 -0.2505 -0.5485
  989TIP3    H2 2932   1.436   0.109   0.455 -0.1928 -0.1786 -0.4463
  990TIP3   OH2 2933   5.396   6.203   2.291 -0.3095  0.2415 -0.3628
  990TIP3    H1 2934   5.409   6.284   2.340 -0.7561  0.1575 -0.1073
  990TIP3    H2 2935   5.463   6.206   2.222 -0.5445  0.9862 -0.5612
  991TIP3   OH2 2936   4.120   4.302   0.914 -0.0202  0.4897 -0.3374
  991TIP3    H1 2937   4.186   4.238   0.888 -0.8364 -1.2255  1.5223
  991TIP3    H2 2938   4.036   4.258   0.899 -0.6854  1.7212 -0.4235
  992TIP3   OH2 2939   2.833   4.503   3.948  0.3207 -0.2161 -0.3495
  992TIP3    H1 2940   2.860   4.594   3.964  0.2238  0.1220 -1.9115
  992TIP3    H2 2941   2.746   4.496   3.987 -0.3802  0.8826 -1.6230
  993TIP3   OH2 2942   4.537   6.646   4.379 -0.3817 -0.4220  0.0670
  993TIP3    H1 2943   4.487   6.578   4.333  0.2744 -0.3094 -0.8573
  993TIP3    H2 2944   4.619   6.652   4.330 -0.1959  0.6457  0.4772
  994TIP3   OH2 2945   1.386   5.013   5.221  0.6945  0.7141 -0.1716
  994TIP3    H1 2946   1.449   5.080   5.249  0.8996  0.5970 -0.3411
  994TIP3    H2 2947   1.427   4.974   5.143 -0.0665  1.3512 -0.9222
  995TIP3   OH2 2948   0.965   5.756   0.536 -0.5903  0.6863 -0.1361
  995TIP3    H1 2949   1.008   5.834   0.571  0.0785 -0.0225  0.6584
  995TIP3    H2 2950   0.956   5.698   0.611 -1.8999  0.3427 -0.5267
  996TIP3   OH2 2951   0.871   3.630   0.706 -0.3994  0.0630 -0.2183
  996TIP3    H1 2952   0.831   3.639   0.619  2.2461  0.8986 -1.4737
  996TIP3    H2 2953   0.864   3.537   0.727  0.7669 -0.5779 -2.3677
  997TIP3   OH2 2954   6.116   0.881   4.522  0.3199 -0.4921  0.1999
  997TIP3    H1 2955   6.163   0.828   4.586 -0.0695 -1.4212 -0.2642
  997TIP3    H2 2956   6.054   0.821   4.481 -1.2791  0.6971  0.7716
  998TIP3   OH2 2957   6.536   6.257   3.002 -0.0408 -0.1291  0.2203
  998TIP3    H1 2958   6.580   6.223   2.925 -3.3894 -1.7247 -1.1803
  998TIP3    H2 2959   6.523   6.181   3.059  0.5472  0.6399  1.4330
  999TIP3   OH2 2960   6.552   4.823   0.588 -0.1833  0.3111 -0.2150
  999TIP3    H1 2961   6.629   4.769   0.605 -0.9294 -1.1951 -1.3322
  999TIP3    H2 2962   6.587   4.902   0.545  0.8170  0.1233  0.2357
 1000TIP3   OH2 2963   1.325   3.110   3.547 -0.1104  0.2983  0.0120
 1000TIP3    H1 2964   1.396   3.170   3.524  0.4481 -0.5140 -0.4260
 1000TIP3    H2 2965   1.353   3.071   3.630  0.5346 -0.8732 -0.7204
 1001TIP3   OH2 2966   6.551   2.935   2.886  0.4042  0.4644 -0.1498
 1001TIP3    H1 2967   6.498   2.856   2.883  2.0087 -0.6372 -0.6932
 1001TIP3    H2 2968   6.636   2.907   2.920  0.3952  2.3562  1.6535
 1002TIP3   OH2 2969   2.402   5.426   0.765 -0.1713 -0.1844 -0.1787
 1002TIP3    H1 2970   2.363   5.344   0.735 -1.4624  0.4770 -0.3562
 1002TIP3    H2 2971   2.329   5.476   0.801  1.0512 -0.3235  2.7621
 1003TIP3   OH2 2972   6.376   3.200   1.752  0.2299 -0.4453  0.1153
 1003TIP3    H1 2973   6.408   3.144   1.681  0.8011  1.7845 -1.4919
 1003TIP3    H2 2974   6.441   3.189   1.821  0.8858 -0.9770 -0.5609
 1004TIP3   OH2 2975   6.864   0.291   4.549 -0.2925  0.3959  0.0456
 1004TIP3    H1 2976   6.949   0.305   4.591 -0.1733  0.7751 -0.3115
 1004TIP3    H2 2977   6.833   0.208   4.584 -0.1801  0.6857  0.8593
 1005TIP3   OH2 2978   3.550   3.419   0.449 -0.0998 -0.2564  0.1414
 1005TIP3    H1 2979   3.641   3.418   0.419 -0.0462  1.6028  0.1111
 1005TIP3    H2 2980   3.552   3.376   0.534  0.7149 -0.7008 -0.0979
 1006TIP3   OH2 2981   5.967   1.771   5.043  0.5869 -0.1594 -0.4572
 1006TIP3    H1 2982   5.992   1.854   5.083 -0.0688 -0.3293  0.3309
 1006TIP3    H2 2983   6.049   1.725   5.030  0.9742  0.6485 -1.0116
 1007TIP3   OH2 2984   6.138   4.519   0.397  0.0324  0.1803  0.3586
 1007TIP3    H1 2985   6.171   4.441   0.351 -0.4848 -0.7038  1.4428
 1007TIP3    H2 2986   6.197   4.528   0.472  1.0709  1.8049 -0.6031
 1008TIP3   OH2 2987   5.013   3.211   4.069 -0.0109 -0.8162 -0.3422
 1008TIP3    H1 2988   5.063   3.272   4.124  0.5255 -2.6428  1.3378
 1008TIP3    H2 2989   5.066   3.201   3.990  1.0861 -0.8279  0.3635
 1009TIP3   OH2 2990   1.801   4.661   4.315  0.2571  0.3408 -0.0933
 1009TIP3    H1 2991   1.739   4.679   4.244 -0.0052 -2.6262 -0.7105
 1009TIP3    H2 2992   1.877   4.716   4.295 -0.5955  1.0726 -1.5196
 1010TIP3   OH2 2993   1.645   1.016   2.810 -0.0174  0.4119  0.3143
 1010TIP3    H1 2994   1.609   1.097   2.775  0.5471  1.3209  1.7681
 1010TIP3    H2 2995   1.733   1.039   2.839  0.2294 -0.7786  0.5647
 1011TIP3   OH2 2996   0.081   0.561   0.924 -0.4383  0.3566 -0.0347
 1011TIP3    H1 2997   0.087   0.615   0.845  0.3414 -2.2229 -1.8632
 1011TIP3    H2 2998   0.171   0.553   0.955 -0.5853  0.3081  0.3966
 1012TIP3   OH2 2999   0.578   2.163   2.005 -0.1696 -0.3632  1.1031
 1012TIP3    H1 3000   0.618   2.246   2.033 -2.3668  0.9896  0.4726
 1012TIP3    H2 3001   0.554   2.119   2.087  2.7819 -1.3976  1.5186
 1013TIP3   OH2 3002   5.929   4.926   3.706 -0.0550  0.2742 -0.3552
 1013TIP3    H1 3003   5.957   4.854   3.762 -0.4954 -0.1188 -0.6207
 1013TIP3    H2 3004   5.899   4.883   3.626  0.1060  0.7891 -0.6975
 1014TIP3   OH2 3005   6.839   0.007   3.420  0.6617  0.0051  0.2854
 1014TIP3    H1 3006   6.879   0.093   3.404 -0.0449  0.0684 -1.3690
 1014TIP3    H2 3007   6.903  -0.056   3.386  1.5210 -0.2044  2.1915
 1015TIP3   OH2 3008   0.462   6.247   2.364 -0.6242  0.0516  0.3472
 1015TIP3    H1 3009   0.437   6.157   2.344 -1.0199 -1.0489  4.6377
 1015TIP3    H2 3010   0.392   6.301   2.327 -0.0585 -1.2246 -2.8405
 1016TIP3   OH2 3011   7.236   4.528   1.761 -0.1359 -0.2095 -0.4617
 1016TIP3    H1 3012   7.190   4.553   1.681 -0.2841  1.8641  0.2207
 1016TIP3    H2 3013   7.178   4.465   1.804  1.0980 -3.4960 -3.1531
 1017TIP3   OH2 3014   1.538   3.153   4.489 -0.3436  0.5879  0.0798
 1017TIP3    H1 3015   1.490   3.167   4.408  0.6558 -0.6508 -0.7739
 1017TIP3    H2 3016   1.544   3.239   4.530 -0.3905  1.3329 -1.4377
 1018TIP3   OH2 3017   4.091   2.739   0.723  0.4178  0.3923 -0.3072
 1018TIP3    H1 3018   4.140   2.775   0.650  0.8662  0.0730 -0.1657
 1018TIP3    H2 3019   4.044   2.664   0.686 -0.5450  1.1122 -0.6106
 1019TIP3   OH2 3020   6.177   3.985   4.774 -0.4640  0.2833  0.0616
 1019TIP3    H1 3021   6.095   4.031   4.756 -0.6840 -0.2439 -0.2869
 1019TIP3    H2 3022   6.220   3.980   4.688 -0.4524 -0.1831  0.0965
 1020TIP3   OH2 3023   7.169   5.615   4.268  0.3597 -0.0118 -0.0337
 1020TIP3    H1 3024   7.158   5.580   4.179  1.7075 -3.4701  0.9900
 1020TIP3    H2 3025   7.258   5.650   4.269  1.4407 -2.5559  0.5890
 1021TIP3   OH2 3026   6.831   3.334   2.597 -0.1215  0.2388  0.0992
 1021TIP3    H1 3027   6.747   3.304   2.564  0.3509 -1.3142  0.2503
 1021TIP3    H2 3028   6.865   3.260   2.647  1.4189  0.7790 -0.1062
 1022TIP3   OH2 3029   5.019   0.415   2.522 -0.2125  0.0029  0.1103
 1022TIP3    H1 3030   5.040   0.502   2.487 -1.3924  0.4869  0.5797
 1022TIP3    H2 3031   5.015   0.428   2.617  1.8963 -1.0737  0.4257
 1023TIP3   OH2 3032   2.788   4.722   3.013  0.0779  0.7821  0.1668
 1023TIP3    H1 3033   2.859   4.732   3.075 -1.4655  1.6667  1.8883
 1023TIP3    H2 3034   2.723   4.786   3.040 -1.1986  0.3227 -1.6110
 1024TIP3   OH2 3035   0.527   6.708   1.421  0.5125  0.4623  0.2642
 1024TIP3    H1 3036   0.564   6.733   1.336 -1.2017 -1.8370 -1.2650
 1024TIP3    H2 3037   0.451   6.765   1.432 -0.8472 -1.0202 -1.1096
 1025TIP3   OH2 3038   3.374   6.555   4.667 -0.0534  0.0582  0.1589
 1025TIP3    H1 3039   3.422   6.635   4.648  1.0699 -0.8085 -0.8003
 1025TIP3    H2 3040   3.293   6.584   4.710  0.4858  1.6596  0.1252
 1026TIP3   OH2 3041   5.582   5.021   4.986  0.2690 -0.3485  0.1525
 1026TIP3    H1 3042   5.525   4.945   4.987  0.3847 -0.4355  0.8927
 1026TIP3    H2 3043   5.524   5.095   5.006  0.5821 -0.5820  2.1197
 1027TIP3   OH2 3044   6.337   0.409   5.863  0.0094  0.1722 -0.0856
 1027TIP3    H1 3045   6.323   0.412   5.958  1.2237  2.5069  0.0739
 1027TIP3    H2 3046   6.392   0.332   5.850 -1.4890 -1.1238  0.8641
 1028TIP3   OH2 3047   3.489   2.634   1.047  0.0318 -0.5122  0.1889
 1028TIP3    H1 3048   3.445   2.691   1.111  2.5397  3.0092 -0.9032
 1028TIP3    H2 3049   3.515   2.557   1.097 -2.3198 -0.1517  2.1550
 1029TIP3   OH2 3050   1.688   0.622   4.851  0.0171 -0.3072 -0.7515
 1029TIP3    H1 3051   1.599   0.644   4.877  0.3743 -0.1265  0.3476
 1029TIP3    H2 3052   1.684   0.613   4.756 -2.2057 -4.8079 -0.4810
 1030TIP3   OH2 3053   0.664   4.697   0.103  0.7772 -0.4970  0.0525
 1030TIP3    H1 3054   0.731   4.724   0.041  1.7150 -1.4829  0.6004
 1030TIP3    H2 3055   0.637   4.610   0.074 -0.6725  0.0873 -0.4607
 1031TIP3   OH2 3056   4.313   0.735   1.724  0.3131  0.3707 -0.2775
 1031TIP3    H1 3057   4.326   0.739   1.629 -0.2714  0.7264 -0.3520
 1031TIP3    H2 3058   4.330   0.824   1.754  0.0555  0.3661 -0.1127
 1032TIP3   OH2 3059   0.848   5.554   1.804 -0.0829  0.0510 -0.5455
 1032TIP3    H1 3060   0.765   5.521   1.838  0.7701 -0.1292  1.5035
 1032TIP3    H2 3061   0.849   5.646   1.830  0.8155 -0.2139  0.4036
 1033TIP3   OH2 3062   3.399   4.905   3.950 -0.7197 -0.1462  0.0050
 1033TIP3    H1 3063   3.328   4.925   3.889  1.2647  0.1107 -2.3577
 1033TIP3    H2 3064   3.479   4.931   3.904  0.9712 -0.6366  2.4452
 1034TIP3   OH2 3065   4.178   1.520   2.871 -0.0437  0.2752  0.4350
 1034TIP3    H1 3066   4.142   1.601   2.834  1.0174 -0.1401 -1.6910
 1034TIP3    H2 3067   4.265   1.513   2.831  0.0216 -1.7284  0.8303
 1035TIP3   OH2 3068   5.264   1.392   0.013  0.0446 -0.1259  0.0883
 1035TIP3    H1 3069   5.278   1.478   0.052 -0.4318 -0.0656  0.1322
 1035TIP3    H2 3070   5.233   1.337   0.086  1.4858 -0.6614  0.3389
 1036TIP3   OH2 3071   6.215   6.516   2.982 -0.2034  0.7729  0.1651
 1036TIP3    H1 3072   6.125   6.537   2.959 -0.3869  0.2670  0.4044
 1036TIP3    H2 3073   6.208   6.436   3.035  0.3812  0.7428  0.1997
 1037TIP3   OH2 3074   0.303   1.724   5.119 -0.2792  0.0655 -0.1281
 1037TIP3    H1 3075   0.379   1.697   5.069 -0.3271 -0.4712  0.0717
 1037TIP3    H2 3076   0.298   1.819   5.108  0.3581  0.0907 -0.2196
 1038TIP3   OH2 3077   3.812   0.079   0.960  0.4324 -0.1498  0.0791
 1038TIP3    H1 3078   3.719   0.058   0.964  0.1732  0.9307  0.0341
 1038TIP3    H2 3079   3.816   0.161   0.911  1.4894 -0.6613 -0.7408
 1039TIP3   OH2 3080   3.278   0.876   1.844  0.3695  0.0635 -0.5225
 1039TIP3    H1 3081   3.221   0.885   1.921  0.7712 -1.2079 -0.0427
 1039TIP3    H2 3082   3.231   0.919   1.773 -0.2698  0.7606  0.3104
 1040TIP3   OH2 3083   2.720   4.458   3.417 -0.2754 -0.2354  0.0190
 1040TIP3    H1 3084   2.685   4.384   3.466 -1.3337  1.0819  1.3652
 1040TIP3    H2 3085   2.784   4.498   3.476  1.7619 -1.1670 -1.4625
 1041TIP3   OH2 3086   1.665   0.902   0.278 -0.1140 -0.2098 -0.2096
 1041TIP3    H1 3087   1.658   0.828   0.337 -1.1131 -0.4225 -0.5730
 1041TIP3    H2 3088   1.604   0.967   0.313  0.9571  0.5654  0.2673
 1042TIP3   OH2 3089   5.707   5.156   2.799 -0.8519 -0.0364 -0.1759
 1042TIP3    H1 3090   5.749   5.230   2.755  0.3637 -0.1671  0.7167
 1042TIP3    H2 3091   5.746   5.154   2.886 -1.2575 -1.4047  0.0021
 1043TIP3   OH2 3092   3.708   1.626   2.231  0.2473  0.3896 -0.4186
 1043TIP3    H1 3093   3.695   1.706   2.282 -0.1856 -1.0852  1.9006
 1043TIP3    H2 3094   3.620   1.593   2.214  0.3252  1.2628 -2.9675
 1044TIP3   OH2 3095   0.812   0.902   1.834 -0.2854 -0.4747 -0.3943
 1044TIP3    H1 3096   0.717   0.918   1.832 -0.0628  1.3572 -3.7953
 1044TIP3    H2 3097   0.822   0.813   1.800 -0.7762 -0.4378 -0.6522
 1045TIP3   OH2 3098   6.879   5.254   4.998 -0.1987 -0.4350  0.3340
 1045TIP3    H1 3099   6.912   5.200   5.069 -1.4447 -3.6906 -1.3506
 1045TIP3    H2 3100   6.787   5.269   5.020 -0.1978 -0.1133  0.1318
 1046TIP3   OH2 3101   4.438   0.372   2.721 -0.3681  0.5769  0.3828
 1046TIP3    H1 3102   4.355   0.337   2.690  0.1929 -1.3087  0.8632
 1046TIP3    H2 3103   4.504   0.325   2.670  0.4387  0.7500  1.2408
 1047TIP3   OH2 3104   3.974   6.112   3.371 -0.1512  0.9088 -0.6645
 1047TIP3    H1 3105   3.942   6.041   3.426  0.7248  1.9779  1.3257
 1047TIP3    H2 3106   4.061   6.084   3.343 -0.1715  0.8176 -0.6348
 1048TIP3   OH2 3107   2.199   6.439   5.905 -0.2334 -0.6199  0.2000
 1048TIP3    H1 3108   2.206   6.512   5.843  1.2757 -1.7941 -1.1283
 1048TIP3    H2 3109   2.158   6.369   5.855 -0.0227 -1.2481  0.8847
 1049TIP3   OH2 3110   0.670   0.974   1.366 -0.6441 -0.0921  0.3724
 1049TIP3    H1 3111   0.667   0.919   1.444 -0.4120  1.9697  1.9091
 1049TIP3    H2 3112   0.616   1.050   1.388 -0.6019  0.5351 -1.4978
 1050TIP3   OH2 3113   0.563   1.381   3.563 -0.5076 -0.1065  0.3984
 1050TIP3    H1 3114   0.482   1.346   3.600  0.2864 -0.0644  2.3498
 1050TIP3    H2 3115   0.621   1.305   3.556  0.6556  0.3980  3.0792
 1051TIP3   OH2 3116   6.332   2.774   5.760 -0.0206 -0.4763 -0.3341
 1051TIP3    H1 3117   6.248   2.741   5.727  0.4380 -0.8276 -1.1654
 1051TIP3    H2 3118   6.309   2.858   5.802 -1.1215 -1.6110  1.4684
 1052TIP3   OH2 3119   0.640   4.129   5.834 -0.1523 -0.2543 -0.4187
 1052TIP3    H1 3120   0.734   4.147   5.836 -0.0210 -0.4418 -2.6040
 1052TIP3    H2 3121   0.610   4.171   5.754 -2.0998  0.4200  0.6012
 1053TIP3   OH2 3122   5.930   3.001   3.742  0.6574  0.2538 -0.0711
 1053TIP3    H1 3123   5.917   3.069   3.676 -1.0726 -0.6867 -0.7599
 1053TIP3    H2 3124   5.863   3.019   3.808  0.2881 -0.6606 -0.1815
 1054TIP3   OH2 3125   4.292   5.421   4.082  0.7367  0.6786  0.4787
 1054TIP3    H1 3126   4.292   5.343   4.027  0.8323 -0.9161  2.5933
 1054TIP3    H2 3127   4.321   5.491   4.025  1.4264 -0.9744 -1.3133
 1055TIP3   OH2 3128   5.027   5.104   5.813 -0.0569  0.2535 -0.3280
 1055TIP3    H1 3129   5.040   5.011   5.792 -1.3842 -0.2411  0.8529
 1055TIP3    H2 3130   5.074   5.117   5.895 -1.0534  0.2329  0.2619
 1056TIP3   OH2 3131   3.515   4.653   5.704  0.0894 -0.0568 -0.1505
 1056TIP3    H1 3132   3.454   4.618   5.638  0.0837 -1.7815  0.7060
 1056TIP3    H2 3133   3.595   4.603   5.691  0.8212  1.1239 -0.2538
 1057TIP3   OH2 3134   1.775   4.075   0.232  0.2744 -0.3043 -0.0601
 1057TIP3    H1 3135   1.849   4.125   0.266  0.4569 -0.5272 -0.1298
 1057TIP3    H2 3136   1.710   4.142   0.209  0.1815 -0.1371  0.6388
 1058TIP3   OH2 3137   3.249   6.590   5.331 -0.2386 -0.2620  0.1094
 1058TIP3    H1 3138   3.334   6.593   5.374  0.3366 -1.4158 -0.9034
 1058TIP3    H2 3139   3.222   6.498   5.339  0.1325 -0.6441 -2.4005
 1059TIP3   OH2 3140   2.127   6.619   2.487  0.0181  0.1156 -0.2682
 1059TIP3    H1 3141   2.038   6.648   2.507 -0.4563 -0.3579 -1.5808
 1059TIP3    H2 3142   2.159   6.681   2.422  1.3411  1.3272  1.4310
 1060TIP3   OH2 3143   1.237   2.476   4.724  0.2419  0.1136 -0.0717
 1060TIP3    H1 3144   1.222   2.467   4.630 -1.1856  1.0150  0.0385
 1060TIP3    H2 3145   1.293   2.553   4.733  1.8658 -0.9993 -0.2567
 1061TIP3   OH2 3146   4.085   3.035   3.220 -0.4260  0.3356  0.0903
 1061TIP3    H1 3147   4.035   2.996   3.291  1.6193  1.1547  2.1055
 1061TIP3    H2 3148   4.118   2.961   3.170  0.0121 -0.3734  1.3915
 1062TIP3   OH2 3149   7.018   0.220   1.828 -0.4566 -0.4648  0.0571
 1062TIP3    H1 3150   6.961   0.271   1.771  0.8401  0.6028 -0.3656
 1062TIP3    H2 3151   6.960   0.182   1.894 -1.9901 -1.5948 -1.8341
 1063TIP3   OH2 3152   4.396   6.664   0.196  0.0642  0.4798  0.3824
 1063TIP3    H1 3153   4.315   6.615   0.187  1.6359 -2.2034 -0.2379
 1063TIP3    H2 3154   4.415   6.694   0.107  0.3641  0.0336  0.2936
 1064TIP3   OH2 3155   3.563   3.880   5.399 -0.5273 -0.2486 -0.5275
 1064TIP3    H1 3156   3.636   3.878   5.337  0.7112 -1.5445  0.8912
 1064TIP3    H2 3157   3.593   3.936   5.470 -1.5972  0.5475 -0.6849
 1065TIP3   OH2 3158   6.085   5.338   0.282 -0.1440  0.0920 -0.3160
 1065TIP3    H1 3159   6.137   5.403   0.328 -0.2804 -1.0869  1.6096
 1065TIP3    H2 3160   6.127   5.330   0.196  0.1868  2.2745 -0.4235
 1066TIP3   OH2 3161   2.772   6.763   0.814  0.6798 -0.1101 -0.2712
 1066TIP3    H1 3162   2.735   6.824   0.749 -1.9995 -1.6601 -0.3284
 1066TIP3    H2 3163   2.750   6.801   0.898 -0.9599 -0.9256 -0.3069
 1067TIP3   OH2 3164   5.489   1.528   5.318  0.2799  0.0733  0.6802
 1067TIP3    H1 3165   5.491   1.592   5.389  0.1009  0.3081  0.4742
 1067TIP3    H2 3166   5.422   1.465   5.345  0.4086  0.0065  0.8503
 1068TIP3   OH2 3167   4.764   6.651   0.679  0.4773 -0.0384  0.0511
 1068TIP3    H1 3168   4.708   6.591   0.630 -0.3188 -0.2378  1.1385
 1068TIP3    H2 3169   4.726   6.651   0.768  0.9299  1.4558  0.2796
 1069TIP3   OH2 3170   6.297   5.007   0.308  0.5414 -0.3063 -0.1437
 1069TIP3    H1 3171   6.287   4.914   0.286  1.3171 -0.6389  0.8385
 1069TIP3    H2 3172   6.329   5.047   0.227 -0.2171 -0.8015 -0.7052
 1070TIP3   OH2 3173   1.411   2.109   4.179  0.4039  0.0486  0.8026
 1070TIP3    H1 3174   1.422   2.075   4.267 -3.3165 -1.1636  0.9667
 1070TIP3    H2 3175   1.402   2.203   4.190 -0.0784 -0.1012  1.7449
 1071TIP3   OH2 3176   4.900   6.759   1.364 -0.4544 -0.6075  0.3486
 1071TIP3    H1 3177   4.909   6.853   1.383  0.9183 -0.7432  0.4729
 1071TIP3    H2 3178   4.868   6.721   1.446 -0.2740 -0.3569  0.5369
 1072TIP3   OH2 3179   5.471   3.085   2.837 -0.4489  0.1188 -0.2928
 1072TIP3    H1 3180   5.520   3.018   2.885 -0.6961 -0.5858 -1.0108
 1072TIP3    H2 3181   5.379   3.061   2.849 -0.4924 -1.2681 -2.7328
 1073TIP3   OH2 3182   6.994   4.676   2.184 -0.2036  0.1291  0.1893
 1073TIP3    H1 3183   7.032   4.606   2.131  3.2402  0.8979  1.3897
 1073TIP3    H2 3184   7.007   4.756   2.132 -1.5833  0.2728  0.0207
 1074TIP3   OH2 3185   4.072   5.152   0.197  0.0909  0.3191 -0.0096
 1074TIP3    H1 3186   4.090   5.188   0.110  1.1165  0.8255  0.3919
 1074TIP3    H2 3187   4.063   5.229   0.253 -2.2372  0.0609  0.0659
 1075TIP3   OH2 3188   3.560   2.990   0.539  0.0232 -0.3209  0.9332
 1075TIP3    H1 3189   3.633   2.964   0.595 -0.3708 -1.4893  0.9263
 1075TIP3    H2 3190   3.600   3.003   0.453  0.0116 -2.7043  0.4850
 1076TIP3   OH2 3191   6.889   2.908   3.841 -0.0488  0.1078  0.2956
 1076TIP3    H1 3192   6.812   2.886   3.893 -2.8419  0.8573 -3.1635
 1076TIP3    H2 3193   6.879   3.001   3.821  2.7933  0.7061  1.1918
 1077TIP3   OH2 3194   2.166   3.557   4.344 -0.4492  0.0838  0.1822
 1077TIP3    H1 3195   2.243   3.509   4.317  0.5858  1.5689  0.3686
 1077TIP3    H2 3196   2.095   3.522   4.291  0.3628 -1.2511 -0.0501
 1078TIP3   OH2 3197   1.645   0.417   1.284  0.1987 -0.1105 -0.0280
 1078TIP3    H1 3198   1.570   0.358   1.298 -0.0239  0.1807  0.0122
 1078TIP3    H2 3199   1.650   0.468   1.365  1.5581 -1.3580  0.7253
 1079TIP3   OH2 3200   1.404   6.271   0.903  0.2813  0.2199  0.1000
 1079TIP3    H1 3201   1.383   6.274   0.810 -1.1066  0.2130  0.3903
 1079TIP3    H2 3202   1.329   6.312   0.946 -0.0150 -1.4962  1.3363
 1080TIP3   OH2 3203   6.126   1.394   0.178 -0.3767 -0.2645  0.5549
 1080TIP3    H1 3204   6.192   1.436   0.234  0.2727  1.1189 -1.1291
 1080TIP3    H2 3205   6.095   1.319   0.229  2.8126 -1.2697  1.2706
 1081TIP3   OH2 3206   5.708   4.405   5.411  0.2577 -0.1556 -0.1158
 1081TIP3    H1 3207   5.702   4.368   5.499  1.5517 -0.6060 -0.1817
 1081TIP3    H2 3208   5.801   4.396   5.388 -0.1025 -0.3272 -1.6388
 1082TIP3   OH2 3209   6.535   2.132   5.146  0.4757  0.4047 -0.2653
 1082TIP3    H1 3210   6.610   2.189   5.159  0.2263  0.2909  2.1654
 1082TIP3    H2 3211   6.460   2.192   5.143  0.5864  0.5409 -2.9355
 1083TIP3   OH2 3212   2.653   5.236   0.373 -0.1438  0.3820  0.1653
 1083TIP3    H1 3213   2.576   5.287   0.394  0.6329  1.9740 -0.6871
 1083TIP3    H2 3214   2.727   5.290   0.402  0.6809 -1.1577  1.1047
 1084TIP3   OH2 3215   5.193   2.161   0.047 -0.6573  0.5613 -0.4152
 1084TIP3    H1 3216   5.148   2.153   0.131  1.0330  3.7181  0.9475
 1084TIP3    H2 3217   5.285   2.147   0.068 -0.3679 -0.3721 -2.1345
 1085TIP3   OH2 3218   0.548   4.673   4.328 -0.1609 -0.4218  0.1978
 1085TIP3    H1 3219   0.518   4.755   4.367 -0.7090 -1.0796  1.1824
 1085TIP3    H2 3220   0.475   4.612   4.340  0.9335 -1.5837  1.1528
 1086TIP3   OH2 3221   4.679   4.779   1.667  0.5301  0.0912  0.1397
 1086TIP3    H1 3222   4.616   4.722   1.623  1.1962 -0.2948 -0.3375
 1086TIP3    H2 3223   4.715   4.726   1.738 -0.4272  0.6624  1.0828
 1087TIP3   OH2 3224   0.091   4.392   1.169  0.1783 -0.1707 -0.0673
 1087TIP3    H1 3225   0.011   4.375   1.119  1.1179  0.4747 -1.8907
 1087TIP3    H2 3226   0.160   4.397   1.102  1.2884  2.1432  1.1207
 1088TIP3   OH2 3227   6.463   3.143   2.119  0.6791 -0.1612 -0.2883
 1088TIP3    H1 3228   6.392   3.128   2.181 -0.7116 -0.6525 -1.9402
 1088TIP3    H2 3229   6.457   3.237   2.098 -0.6592 -0.5280 -1.7369
 1089TIP3   OH2 3230   6.363   2.934   2.675 -0.3050  0.2217  0.0826
 1089TIP3    H1 3231   6.376   2.852   2.628 -0.9398  0.3821 -0.3835
 1089TIP3    H2 3232   6.439   2.941   2.733 -0.1723 -0.6162  0.0135
 1090TIP3   OH2 3233   2.845   6.107   3.924 -0.3858  0.0158  0.6607
 1090TIP3    H1 3234   2.845   6.026   3.874 -0.0012  0.0317  0.6315
 1090TIP3    H2 3235   2.764   6.151   3.899  0.4262  0.6503 -0.9801
 1091TIP3   OH2 3236   2.086   3.117   2.687  0.2129 -0.0072 -0.1405
 1091TIP3    H1 3237   2.055   3.058   2.755  2.1738 -1.1216 -0.1599
 1091TIP3    H2 3238   2.132   3.187   2.734  0.6875 -0.2350 -0.2587
 1092TIP3   OH2 3239   3.624   1.389   4.532  0.3038 -0.8605  0.4530
 1092TIP3    H1 3240   3.603   1.421   4.620 -1.9345  0.8207 -0.5777
 1092TIP3    H2 3241   3.605   1.295   4.536 -0.2233 -0.7322  1.6498
 1093TIP3   OH2 3242   3.262   6.386   2.208  0.5873 -0.0148 -0.4575
 1093TIP3    H1 3243   3.296   6.470   2.238  1.0273 -0.7281  1.1378
 1093TIP3    H2 3244   3.339   6.337   2.181  0.4743 -0.3596 -0.1686
 1094TIP3   OH2 3245   5.876   0.112   2.010  0.3316  1.0200 -0.0540
 1094TIP3    H1 3246   5.797   0.069   1.978  0.9626  0.9480 -1.5991
 1094TIP3    H2 3247   5.862   0.205   1.994  1.4795  0.8316 -2.6315
 1095TIP3   OH2 3248   6.285   1.082   1.526 -0.0148 -0.2955 -0.1115
 1095TIP3    H1 3249   6.348   1.052   1.592 -0.3436  1.3679  1.0374
 1095TIP3    H2 3250   6.204   1.097   1.575 -1.1518 -1.7305 -1.4430
 1096TIP3   OH2 3251   3.686   5.827   4.459  0.0279  0.1711 -0.0034
 1096TIP3    H1 3252   3.661   5.812   4.550 -1.3758  0.8083 -0.2472
 1096TIP3    H2 3253   3.625   5.894   4.429  2.0182  1.7730 -0.7158
 1097TIP3   OH2 3254   3.204   3.622   0.435 -0.0499 -0.6772 -0.4545
 1097TIP3    H1 3255   3.157   3.619   0.351 -1.2748 -0.9396  0.2149
 1097TIP3    H2 3256   3.225   3.531   0.454  0.4120 -0.5963 -0.5787
 1098TIP3   OH2 3257   7.150   4.246   4.531  0.3947  0.3990 -0.0259
 1098TIP3    H1 3258   7.171   4.175   4.593  0.3341  0.2150 -0.2135
 1098TIP3    H2 3259   7.123   4.200   4.451  1.8548  0.6100 -0.6791
 1099TIP3   OH2 3260   3.193   1.622   5.673 -0.1937 -0.5886 -0.5957
 1099TIP3    H1 3261   3.282   1.653   5.692 -1.2565  1.9732  0.6962
 1099TIP3    H2 3262   3.195   1.599   5.580  1.3105  1.6154 -1.1992
 1100TIP3   OH2 3263   4.813   5.708   3.196  0.0772  0.4927 -0.0175
 1100TIP3    H1 3264   4.875   5.721   3.124  0.1162 -0.3954 -0.1536
 1100TIP3    H2 3265   4.858   5.742   3.273  0.3087  0.8165 -0.2931
 1101TIP3   OH2 3266   1.949   4.846   2.748  0.1998  0.3074 -0.3727
 1101TIP3    H1 3267   1.902   4.788   2.808 -0.0475 -0.9091 -1.6948
 1101TIP3    H2 3268   1.921   4.819   2.661  1.4417  1.2525 -1.1092
 1102TIP3   OH2 3269   3.328   4.321   2.608  0.1272  0.7688 -0.2323
 1102TIP3    H1 3270   3.356   4.237   2.644 -1.9951  0.0906 -0.0106
 1102TIP3    H2 3271   3.384   4.386   2.650 -0.2169 -0.2741  1.9835
 1103TIP3   OH2 3272   7.112   3.967   2.804  0.8832 -0.4513  0.2524
 1103TIP3    H1 3273   7.025   3.936   2.829  1.4031 -1.3909  0.9600
 1103TIP3    H2 3274   7.096   4.051   2.760 -0.3601 -0.5447  0.4934
 1104TIP3   OH2 3275   0.414   3.833   4.166  0.2200  0.1004  0.2474
 1104TIP3    H1 3276   0.389   3.904   4.107  0.5778 -1.8320 -2.4435
 1104TIP3    H2 3277   0.444   3.763   4.107  0.7735 -1.9373  2.7791
 1105TIP3   OH2 3278   5.685   3.752   3.107 -0.7817  0.9347  0.2842
 1105TIP3    H1 3279   5.656   3.667   3.140  0.9209  1.0534  2.3339
 1105TIP3    H2 3280   5.636   3.765   3.026 -1.4527 -1.7579  0.1735
 1106TIP3   OH2 3281   3.639   4.087   2.510  0.2671 -0.0844 -0.2479
 1106TIP3    H1 3282   3.608   4.000   2.535  0.7643  0.0349  0.8290
 1106TIP3    H2 3283   3.732   4.087   2.533  0.1329  0.9426  0.3357
 1107TIP3   OH2 3284   4.790   1.255   3.493 -0.3223 -0.2308 -0.0431
 1107TIP3    H1 3285   4.874   1.301   3.491 -1.1399  1.3720  0.5407
 1107TIP3    H2 3286   4.814   1.162   3.492  1.5132  0.1503  1.5232
 1108TIP3   OH2 3287   3.124   0.364   3.546  0.3147  0.0752 -0.0648
 1108TIP3    H1 3288   3.119   0.270   3.558  1.2994 -0.3696 -2.5118
 1108TIP3    H2 3289   3.035   0.395   3.562 -0.3250 -1.4465 -0.5233
 1109TIP3   OH2 3290   5.338   4.679   0.675  0.1700 -0.4970  0.2399
 1109TIP3    H1 3291   5.406   4.613   0.685  1.1527  0.3880 -0.4013
 1109TIP3    H2 3292   5.314   4.676   0.583 -1.7919 -1.8490  0.7414
 1110TIP3   OH2 3293   2.922   4.025   4.457 -0.6078 -0.6980  0.1157
 1110TIP3    H1 3294   2.902   3.984   4.373 -1.9046  1.3080 -0.6417
 1110TIP3    H2 3295   3.012   4.057   4.447 -1.3132  1.0108 -1.2138
 1111TIP3   OH2 3296   4.585   1.620   3.670 -0.3043 -0.3746  0.2088
 1111TIP3    H1 3297   4.507   1.571   3.697 -0.2045  0.2007  1.6263
 1111TIP3    H2 3298   4.654   1.590   3.729  0.2494  0.0457 -0.2113
 1112TIP3   OH2 3299   5.194   5.665   3.602 -0.4595 -0.4752 -0.2911
 1112TIP3    H1 3300   5.138   5.674   3.680 -1.7606 -0.4255 -1.1963
 1112TIP3    H2 3301   5.167   5.583   3.562 -1.7846  0.7820 -2.1615
 1113TIP3   OH2 3302   3.504   5.398   1.387  0.7089  0.3051 -0.5804
 1113TIP3    H1 3303   3.595   5.396   1.417  0.9537 -0.3457 -1.3438
 1113TIP3    H2 3304   3.469   5.480   1.423  1.3361  0.1460  0.4372
 1114TIP3   OH2 3305   4.488   0.868   4.873  0.4432 -0.2857 -0.4497
 1114TIP3    H1 3306   4.553   0.798   4.880  1.4820  0.7779  1.4666
 1114TIP3    H2 3307   4.465   0.888   4.964 -2.8297 -0.7953 -1.0578
 1115TIP3   OH2 3308   0.968   2.523   5.483 -0.2151 -0.2995 -0.4305
 1115TIP3    H1 3309   1.052   2.539   5.526  0.6113 -2.5169 -1.0810
 1115TIP3    H2 3310   0.974   2.570   5.400  0.3748 -0.4144 -0.4547
 1116TIP3   OH2 3311   2.123   1.444   1.794  0.3224 -0.0104 -0.4624
 1116TIP3    H1 3312   2.140   1.520   1.738  1.2833 -0.2242 -0.4739
 1116TIP3    H2 3313   2.187   1.378   1.765 -0.8749 -1.0393 -0.8503
 1117TIP3   OH2 3314   2.307   2.865   2.768  0.3998 -0.1964 -0.0153
 1117TIP3    H1 3315   2.328   2.870   2.675 -0.2793  1.9976 -0.1218
 1117TIP3    H2 3316   2.212   2.851   2.770  0.2435  0.8296  0.3079
 1118TIP3   OH2 3317   4.985   1.447   2.492  0.3168  0.1378  0.0984
 1118TIP3    H1 3318   5.019   1.533   2.517 -0.3357 -0.2245  2.4540
 1118TIP3    H2 3319   5.029   1.386   2.551  0.9084 -1.2155 -1.6492
 1119TIP3   OH2 3320   7.125   5.315   3.478 -0.0899  0.5128  0.0910
 1119TIP3    H1 3321   7.211   5.353   3.458  0.8962 -0.3259  2.3032
 1119TIP3    H2 3322   7.143   5.221   3.488 -1.1767  0.3846  1.0020
 1120TIP3   OH2 3323   7.151   4.203   2.026  0.3983 -0.6794 -0.1086
 1120TIP3    H1 3324   7.058   4.211   2.047  0.5924 -0.6718  0.7908
 1120TIP3    H2 3325   7.195   4.200   2.111  1.3954  1.3135 -0.4902
 1121TIP3   OH2 3326   4.847   2.084   4.175 -0.2614 -0.1014 -0.1093
 1121TIP3    H1 3327   4.876   2.011   4.230  0.0697  0.2311  0.1546
 1121TIP3    H2 3328   4.852   2.161   4.231 -1.5294 -0.0072 -0.0889
 1122TIP3   OH2 3329   2.285   6.701   4.721  0.7820 -0.2544  0.3063
 1122TIP3    H1 3330   2.319   6.737   4.639  1.3699 -0.1694  0.5802
 1122TIP3    H2 3331   2.342   6.626   4.739  0.1886 -0.7223  0.2526
 1123TIP3   OH2 3332   6.614   6.495   3.102 -0.6048  0.0827  0.1915
 1123TIP3    H1 3333   6.542   6.433   3.093 -0.1268 -0.5784  0.8655
 1123TIP3    H2 3334   6.690   6.442   3.125  0.1213  0.7661 -0.5415
 1124TIP3   OH2 3335   2.845   6.587   3.828  0.0946  0.2843 -0.4394
 1124TIP3    H1 3336   2.906   6.652   3.862 -0.7103  0.2630  1.1541
 1124TIP3    H2 3337   2.898   6.507   3.818 -0.0295 -0.4190  3.1939
 1125TIP3   OH2 3338   0.204   4.566   0.466  0.0988 -0.6248 -0.0497
 1125TIP3    H1 3339   0.142   4.497   0.440  0.4873 -1.3381  0.8827
 1125TIP3    H2 3340   0.286   4.520   0.482 -0.3639 -0.4372  3.4803
 1126TIP3   OH2 3341   1.817   2.820   4.971 -0.2422 -0.4672 -0.1637
 1126TIP3    H1 3342   1.860   2.764   4.906  0.2833 -0.7394  0.4090
 1126TIP3    H2 3343   1.733   2.778   4.988  0.0211 -0.9180  0.0348
 1127TIP3   OH2 3344   2.013   0.424   4.560 -0.4086 -0.1236  0.1318
 1127TIP3    H1 3345   2.049   0.510   4.581 -0.9916  0.0813  0.3218
 1127TIP3    H2 3346   2.083   0.363   4.582 -0.8970  0.0887  2.5304
 1128TIP3   OH2 3347   6.843   0.692   1.031  0.0066 -0.8564 -0.1458
 1128TIP3    H1 3348   6.818   0.608   1.070  1.7029 -0.9678  0.8357
 1128TIP3    H2 3349   6.935   0.703   1.057  0.2743  0.5706 -1.5721
 1129TIP3   OH2 3350   0.383   4.669   3.170  0.0093 -0.1904  0.0316
 1129TIP3    H1 3351   0.306   4.684   3.226 -0.5286  0.6777 -0.9124
 1129TIP3    H2 3352   0.391   4.749   3.119  1.0303 -0.6265 -0.5072
 1130TIP3   OH2 3353   0.584   3.708   0.077 -0.3410 -0.0923 -0.1570
 1130TIP3    H1 3354   0.625   3.783   0.034 -0.0867 -0.5261 -0.6821
 1130TIP3    H2 3355   0.646   3.636   0.063 -0.3095 -0.2669  0.8442
 1131TIP3   OH2 3356   6.441   5.902   0.963 -0.3336  0.1531 -0.9083
 1131TIP3    H1 3357   6.359   5.913   1.010 -0.3665 -0.8758 -0.7089
 1131TIP3    H2 3358   6.508   5.899   1.032 -0.2035  0.2497 -1.0288
 1132TIP3   OH2 3359   1.483   2.016   4.452 -0.2425  0.1821  0.2492
 1132TIP3    H1 3360   1.430   2.094   4.470  0.8780  0.9795  0.1781
 1132TIP3    H2 3361   1.556   2.023   4.513 -0.4209 -1.1298  0.6409
 1133TIP3   OH2 3362   5.413   1.424   4.034 -0.3234  0.4065  0.9758
 1133TIP3    H1 3363   5.421   1.398   3.942  0.1653  0.3432  1.0342
 1133TIP3    H2 3364   5.368   1.350   4.075 -0.7207  0.5203  0.7493
 1134TIP3   OH2 3365   4.570   5.108   5.235  0.3413  0.3750 -0.5167
 1134TIP3    H1 3366   4.564   5.188   5.183  0.1905 -0.4842 -1.8750
 1134TIP3    H2 3367   4.485   5.066   5.224  0.1237  0.4067  0.8634
 1135TIP3   OH2 3368   2.135   0.365   3.664 -0.3844 -0.9614  0.2908
 1135TIP3    H1 3369   2.041   0.363   3.648 -0.4011 -1.0343  0.3956
 1135TIP3    H2 3370   2.145   0.428   3.736 -0.1773  0.3993 -0.8770
 1136TIP3   OH2 3371   3.684   1.884   1.380  0.2175  0.1785  0.0649
 1136TIP3    H1 3372   3.661   1.963   1.331  1.8495  1.3327  1.0711
 1136TIP3    H2 3373   3.619   1.879   1.450  0.5780  1.1040  0.4767
 1137TIP3   OH2 3374   0.023   3.523   1.711  0.1048  0.3129 -0.1217
 1137TIP3    H1 3375   0.086   3.451   1.715 -0.9433 -0.5913  0.9024
 1137TIP3    H2 3376  -0.044   3.493   1.650 -1.8904 -0.9839  2.4897
 1138TIP3   OH2 3377   2.100   0.074   0.790 -0.6658 -0.4817  0.2731
 1138TIP3    H1 3378   2.084   0.159   0.749  1.7656  0.0082  0.1724
 1138TIP3    H2 3379   2.156   0.094   0.865  1.3056 -2.0733 -0.6587
 1139TIP3   OH2 3380   1.906   4.167   1.218 -0.0938 -0.1002  0.0329
 1139TIP3    H1 3381   1.926   4.166   1.124  1.7399  3.0085  0.2414
 1139TIP3    H2 3382   1.831   4.227   1.226  0.2694  0.2829  0.6161
 1140TIP3   OH2 3383   2.947   2.459   5.387 -0.2042  0.0067 -0.2299
 1140TIP3    H1 3384   2.875   2.433   5.329  0.2031  1.7035 -1.6009
 1140TIP3    H2 3385   3.007   2.385   5.385 -1.2075 -0.8430 -0.2239
 1141TIP3   OH2 3386   2.315   0.548   3.085  1.1484  0.5313  0.2379
 1141TIP3    H1 3387   2.223   0.527   3.072  0.8054  0.9907  1.7282
 1141TIP3    H2 3388   2.348   0.565   2.997 -0.6656  2.2575 -0.1888
 1142TIP3   OH2 3389   4.897   2.462   0.983 -0.0838  0.1539 -0.0749
 1142TIP3    H1 3390   4.984   2.422   0.988 -0.0951  0.0643 -0.5458
 1142TIP3    H2 3391   4.841   2.393   0.948 -0.5216 -0.0499  0.9734
 1143TIP3   OH2 3392   3.843   2.907   2.299 -0.3674  0.2271 -0.1097
 1143TIP3    H1 3393   3.858   2.979   2.359  1.7888 -2.1311  2.4514
 1143TIP3    H2 3394   3.755   2.876   2.320 -0.9441  1.4840 -0.5979
 1144TIP3   OH2 3395   3.746   0.958   0.056 -0.4420  0.1375 -0.1898
 1144TIP3    H1 3396   3.663   0.996   0.024  0.5065  0.8272 -1.9971
 1144TIP3    H2 3397   3.800   1.035   0.076  0.7757 -0.2256 -1.8915
 1145TIP3   OH2 3398   2.242   4.011   0.854 -0.8252 -0.1851  0.3263
 1145TIP3    H1 3399   2.311   3.960   0.897 -0.7130 -0.2572  0.0629
 1145TIP3    H2 3400   2.231   4.088   0.910 -0.5914 -0.2176  0.4178
 1146TIP3   OH2 3401   0.625   3.315   0.461  0.2614 -0.0464 -0.1323
 1146TIP3    H1 3402   0.659   3.290   0.375  1.3135  0.5513  0.0953
 1146TIP3    H2 3403   0.702   3.320   0.517 -0.4386 -0.6808  0.9293
 1147TIP3   OH2 3404   6.001   6.462   0.562  0.3565  0.1471 -0.0451
 1147TIP3    H1 3405   6.082   6.456   0.612  1.4636  0.6127 -1.7127
 1147TIP3    H2 3406   5.947   6.526   0.610  1.5662  0.9248  0.3091
 1148TIP3   OH2 3407   1.113   0.282   2.493 -0.0330 -0.0597 -0.2206
 1148TIP3    H1 3408   1.147   0.348   2.553  1.5334 -1.2742  0.2841
 1148TIP3    H2 3409   1.041   0.241   2.541 -0.8560  1.0716 -0.4441
 1149TIP3   OH2 3410   2.522   5.666   2.781 -0.4992  0.2170 -0.6577
 1149TIP3    H1 3411   2.586   5.685   2.712 -1.8502  1.2107 -1.6997
 1149TIP3    H2 3412   2.437   5.682   2.740 -1.4941 -1.8621  0.4235
 1150TIP3   OH2 3413   2.246   2.744   4.931  0.0288  0.0064 -0.1296
 1150TIP3    H1 3414   2.247   2.704   5.018 -1.2402 -2.3196 -1.0918
 1150TIP3    H2 3415   2.332   2.725   4.895 -0.3315 -1.4465 -0.3215
 1151TIP3   OH2 3416   5.926   3.160   4.135 -0.0823  0.3801  0.1490
 1151TIP3    H1 3417   5.867   3.126   4.067  2.2012  1.2532 -2.4562
 1151TIP3    H2 3418   5.981   3.085   4.158  0.3423  0.5221 -0.3749
 1152TIP3   OH2 3419   3.060   5.656   0.868  0.0985 -0.3276 -0.6366
 1152TIP3    H1 3420   3.064   5.585   0.932 -2.6845  0.9363  1.1564
 1152TIP3    H2 3421   3.144   5.701   0.877 -0.1567 -0.2077  2.2077
 1153TIP3   OH2 3422   7.190   6.015   5.224  0.1156  0.4411 -0.0810
 1153TIP3    H1 3423   7.250   6.077   5.267  0.1890  0.3961 -0.1191
 1153TIP3    H2 3424   7.110   6.020   5.277  0.8605 -1.0981  1.2824
 1154TIP3   OH2 3425   2.303   4.954   3.342  0.0104  0.3305  0.1817
 1154TIP3    H1 3426   2.337   5.025   3.396  0.9848  1.1008 -1.3844
 1154TIP3    H2 3427   2.368   4.884   3.351  1.1338  1.1156 -1.3302
 1155TIP3   OH2 3428   1.923   3.701   0.469 -0.4312 -0.0690 -0.2073
 1155TIP3    H1 3429   2.000   3.643   0.464  0.0487  0.5373  0.0599
 1155TIP3    H2 3430   1.891   3.689   0.559 -1.5395 -1.4270 -0.7452
 1156TIP3   OH2 3431   6.713   1.617   3.167  0.3674  0.2689  0.2733
 1156TIP3    H1 3432   6.739   1.555   3.099  1.8500  2.9090 -1.7197
 1156TIP3    H2 3433   6.626   1.647   3.140  0.1611 -0.0117  0.6026
 1157TIP3   OH2 3434   2.373   3.801   2.082  0.2451  0.8968  0.8913
 1157TIP3    H1 3435   2.454   3.852   2.076 -0.3995  1.9062  0.6126
 1157TIP3    H2 3436   2.402   3.713   2.106  1.4596  1.1425  0.3807
 1158TIP3   OH2 3437   6.580   6.218   1.623  0.5279 -0.0179 -0.4584
 1158TIP3    H1 3438   6.540   6.295   1.662  1.0666 -0.2916  0.6650
 1158TIP3    H2 3439   6.628   6.253   1.547 -2.2015  0.2376 -2.1937
 1159TIP3   OH2 3440   0.775   1.526   3.991 -0.1264 -0.7104  0.0261
 1159TIP3    H1 3441   0.795   1.461   3.924 -1.9799 -2.8151  1.3556
 1159TIP3    H2 3442   0.693   1.565   3.963  0.8944  1.0361 -0.6778
 1160TIP3   OH2 3443   1.175   1.076   4.609  0.1962  0.1955  0.1903
 1160TIP3    H1 3444   1.255   1.103   4.653 -0.6858  0.7417  1.5303
 1160TIP3    H2 3445   1.109   1.138   4.640 -0.5449  0.4371 -1.7095
 1161TIP3   OH2 3446   7.077   6.346   5.200 -0.5269  0.0066  0.1308
 1161TIP3    H1 3447   7.084   6.375   5.109 -2.0420  1.8527  0.5361
 1161TIP3    H2 3448   6.984   6.349   5.219 -0.2017  0.0941  1.8842
 1162TIP3   OH2 3449   4.343   4.165   1.562 -0.1777  0.2798 -0.6535
 1162TIP3    H1 3450   4.401   4.090   1.573 -0.7055 -0.0350  0.0859
 1162TIP3    H2 3451   4.270   4.132   1.510  0.6440  0.8755 -2.2729
 1163TIP3   OH2 3452   6.457   2.591   1.283  0.0652 -0.4702 -0.3287
 1163TIP3    H1 3453   6.510   2.645   1.225  0.4188 -1.4536 -0.9397
 1163TIP3    H2 3454   6.520   2.542   1.335 -0.2499 -1.0004 -0.4439
 1164TIP3   OH2 3455   6.631   2.163   5.450  0.3445 -0.4665  0.0855
 1164TIP3    H1 3456   6.708   2.208   5.416  0.5574 -2.0798 -1.7638
 1164TIP3    H2 3457   6.564   2.231   5.456  1.0821  0.4079 -1.1253
 1165TIP3   OH2 3458   6.728   0.366   4.100  0.1295 -0.5986  0.1176
 1165TIP3    H1 3459   6.646   0.416   4.093  0.4294 -0.1021  0.1240
 1165TIP3    H2 3460   6.791   0.428   4.136  0.3040 -1.2180  0.9144
 1166TIP3   OH2 3461   6.670   5.437   4.998  0.3603  0.3324 -0.4045
 1166TIP3    H1 3462   6.578   5.453   5.018  0.3284 -2.2377  2.0536
 1166TIP3    H2 3463   6.713   5.522   5.011 -1.5024  1.3755 -0.7858
 1167TIP3   OH2 3464   5.113   5.488   5.795 -0.4346  0.1152  0.3537
 1167TIP3    H1 3465   5.064   5.571   5.803 -0.1704  0.2899  0.1723
 1167TIP3    H2 3466   5.088   5.454   5.709  1.9791  1.6629 -1.0635
 1168TIP3   OH2 3467   0.120   1.788   0.694 -0.1331  0.2640 -0.6055
 1168TIP3    H1 3468   0.085   1.820   0.778  3.2315  1.6520  0.4199
 1168TIP3    H2 3469   0.074   1.840   0.628 -0.4353  1.6247  0.6042
 1169TIP3   OH2 3470   0.890   0.460   3.584  0.1380 -0.1002  0.4032
 1169TIP3    H1 3471   0.873   0.392   3.519 -0.4231  0.8264 -0.4530
 1169TIP3    H2 3472   0.811   0.513   3.584 -0.0897 -0.3828  2.2573
 1170TIP3   OH2 3473   1.176   6.369   0.999 -1.1929 -0.0183 -0.2076
 1170TIP3    H1 3474   1.122   6.335   0.928 -2.2887 -0.5188  0.8103
 1170TIP3    H2 3475   1.113   6.414   1.057 -0.0863  1.9542 -0.4484
 1171TIP3   OH2 3476   5.478   1.415   2.567 -0.0101 -0.2478 -0.5463
 1171TIP3    H1 3477   5.473   1.367   2.650 -0.8573  0.7032 -0.0359
 1171TIP3    H2 3478   5.571   1.432   2.555 -0.0163  1.5460  1.3678
 1172TIP3   OH2 3479   3.856   4.420   1.621  0.2429  0.0663  0.2905
 1172TIP3    H1 3480   3.765   4.419   1.590 -0.1459  0.6435  1.3577
 1172TIP3    H2 3481   3.909   4.423   1.541 -0.6286 -1.5830 -0.3875
 1173TIP3   OH2 3482   1.107   5.113   5.661 -0.2996  0.1678 -0.6399
 1173TIP3    H1 3483   1.051   5.151   5.728 -2.2898 -2.7768 -0.4588
 1173TIP3    H2 3484   1.189   5.094   5.706  0.0785  2.3532 -0.2955
 1174TIP3   OH2 3485   0.401   3.287   4.179 -0.4955  0.2268  0.0043
 1174TIP3    H1 3486   0.445   3.302   4.262  1.5841  0.1867 -1.0185
 1174TIP3    H2 3487   0.308   3.277   4.202  0.1939 -1.2756  2.4588
 1175TIP3   OH2 3488   6.126   3.320   0.760  0.3348 -0.5274 -0.2433
 1175TIP3    H1 3489   6.176   3.396   0.728  0.0848 -1.1420 -2.2362
 1175TIP3    H2 3490   6.177   3.287   0.834  1.1034  0.8266 -0.1342
 1176TIP3   OH2 3491   1.833   0.753   2.803 -0.2731 -0.1089  0.5168
 1176TIP3    H1 3492   1.770   0.825   2.814  0.9651  0.8925  1.4866
 1176TIP3    H2 3493   1.786   0.676   2.833 -0.7458  0.7827  2.2378
 1177TIP3   OH2 3494   6.976   2.943   1.107 -0.1350  0.2543  0.1377
 1177TIP3    H1 3495   6.910   3.007   1.135  0.6564  0.7365  0.9718
 1177TIP3    H2 3496   7.015   2.982   1.028 -0.0755  0.5139  0.2935
 1178TIP3   OH2 3497   6.816   1.902   4.003  0.7564  0.2497  0.6150
 1178TIP3    H1 3498   6.833   1.816   3.967 -0.6402  0.2284 -0.0445
 1178TIP3    H2 3499   6.887   1.957   3.970  1.1856 -0.4524  0.3604
 1179TIP3   OH2 3500   2.253   5.374   3.251  0.4197  0.3539 -0.5351
 1179TIP3    H1 3501   2.193   5.430   3.202 -0.2832 -0.7176 -0.9182
 1179TIP3    H2 3502   2.271   5.300   3.193 -1.0488 -1.3518  1.0503
 1180TIP3   OH2 3503   2.136   4.553   2.873 -0.3257  0.5923 -0.2128
 1180TIP3    H1 3504   2.215   4.594   2.837  0.8200 -1.7024 -0.5635
 1180TIP3    H2 3505   2.086   4.527   2.796  0.8137 -1.9057 -0.2173
 1181TIP3   OH2 3506   3.578   1.666   5.487 -0.6145 -0.0903  0.0230
 1181TIP3    H1 3507   3.625   1.750   5.482  1.0492 -1.0084 -0.8225
 1181TIP3    H2 3508   3.486   1.689   5.473 -0.2865  1.6584  0.5009
 1182TIP3   OH2 3509   3.541   0.876   1.614  0.6490 -0.3532 -0.3203
 1182TIP3    H1 3510   3.496   0.911   1.538 -0.2234 -0.0058  0.3415
 1182TIP3    H2 3511   3.629   0.855   1.582  0.7770  1.1596 -1.0569
 1183TIP3   OH2 3512   4.639   1.868   1.261 -0.0497 -0.2290  0.6664
 1183TIP3    H1 3513   4.658   1.959   1.284 -1.4738  0.0997  0.6473
 1183TIP3    H2 3514   4.550   1.854   1.294 -0.3759 -1.1803 -0.5558
 1184TIP3   OH2 3515   6.110   0.262   4.340 -0.3180 -0.5552 -0.5088
 1184TIP3    H1 3516   6.175   0.199   4.306  1.4337 -0.1479  1.8289
 1184TIP3    H2 3517   6.137   0.346   4.303  0.7580 -0.3313  0.7220
 1185TIP3   OH2 3518   1.880   5.004   2.455 -0.4285 -0.0289 -0.0316
 1185TIP3    H1 3519   1.862   4.931   2.395 -1.4092  0.6333 -0.5793
 1185TIP3    H2 3520   1.976   5.007   2.462 -0.3702 -2.8688  1.9221
 1186TIP3   OH2 3521   1.807   0.214   5.079  0.1096 -0.3806  0.1899
 1186TIP3    H1 3522   1.748   0.280   5.115  0.1662 -0.3389  0.2069
 1186TIP3    H2 3523   1.791   0.135   5.130  0.9296 -0.0441  1.0012
 1187TIP3   OH2 3524   6.803   2.630   4.536 -0.6967 -0.5145  0.1426
 1187TIP3    H1 3525   6.813   2.714   4.490  0.9671 -0.2517  0.9358
 1187TIP3    H2 3526   6.750   2.651   4.612  0.7978  0.1297  1.0442
 1188TIP3   OH2 3527   1.074   4.394   5.691 -0.4667 -0.2414 -0.4162
 1188TIP3    H1 3528   1.094   4.348   5.610  0.9120  1.0495 -0.8641
 1188TIP3    H2 3529   1.004   4.455   5.668 -0.0488  0.1527 -0.6701
 1189TIP3   OH2 3530   3.196   0.996   3.735 -0.6252  0.5151 -0.2483
 1189TIP3    H1 3531   3.116   1.031   3.773 -1.3571 -1.4747  0.1412
 1189TIP3    H2 3532   3.179   0.993   3.641 -0.8440  0.4553 -0.2067
 1190TIP3   OH2 3533   5.318   1.997   2.051  0.1835 -0.1623 -0.2124
 1190TIP3    H1 3534   5.251   1.967   2.113 -1.4041  1.6431 -0.9907
 1190TIP3    H2 3535   5.307   2.092   2.047  2.6231  0.1762 -0.6078
 1191TIP3   OH2 3536   3.460   0.433   5.563 -0.5644  0.1765  0.0588
 1191TIP3    H1 3537   3.522   0.367   5.531 -1.6184 -0.2440 -1.1923
 1191TIP3    H2 3538   3.378   0.386   5.577 -0.2942  0.4242  3.1459
 1192TIP3   OH2 3539   4.398   0.839   0.247  0.3996  0.0667  0.0978
 1192TIP3    H1 3540   4.463   0.902   0.278  1.9797 -1.9442  1.1445
 1192TIP3    H2 3541   4.314   0.884   0.256  1.1435  1.0246  3.6154
 1193TIP3   OH2 3542   6.718   3.478   1.191 -0.5715  0.3109 -0.2436
 1193TIP3    H1 3543   6.808   3.448   1.206 -0.5496  0.0240 -0.9257
 1193TIP3    H2 3544   6.670   3.449   1.269  0.0525  1.0375  0.4315
 1194TIP3   OH2 3545   0.195   6.075   2.549 -0.3827  0.0930  0.3331
 1194TIP3    H1 3546   0.241   6.146   2.594 -0.4227  0.2569  0.1217
 1194TIP3    H2 3547   0.111   6.069   2.594 -0.7126  0.7430 -0.1697
 1195TIP3   OH2 3548   5.443   3.128   1.975 -0.0584  0.1353  0.1883
 1195TIP3    H1 3549   5.437   3.220   1.950 -1.6301  0.4272  1.5091
 1195TIP3    H2 3550   5.462   3.130   2.069 -1.6217 -0.8596  0.5527
 1196TIP3   OH2 3551   3.916   6.561   1.896  0.0761 -0.1833  0.1887
 1196TIP3    H1 3552   3.846   6.551   1.961  0.3762  0.2278  0.5750
 1196TIP3    H2 3553   3.950   6.649   1.911 -0.7050  0.4232 -1.3719
 1197TIP3   OH2 3554   1.955   2.434   4.122 -0.1151 -0.1827  0.2980
 1197TIP3    H1 3555   1.954   2.424   4.027  1.5661 -0.8324  0.3021
 1197TIP3    H2 3556   1.924   2.350   4.155  0.3657 -0.3578  0.3134
 1198TIP3   OH2 3557   2.282   2.627   4.280  0.0520 -0.3820 -0.1305
 1198TIP3    H1 3558   2.326   2.626   4.365  0.3266 -0.4855 -0.2710
 1198TIP3    H2 3559   2.327   2.559   4.230  0.3495  0.1492 -0.5865
 1199TIP3   OH2 3560   1.096   0.731   1.838 -0.2057 -0.1984 -0.4321
 1199TIP3    H1 3561   1.018   0.726   1.783  2.1599 -1.6429 -4.0043
 1199TIP3    H2 3562   1.113   0.825   1.848  1.3205  0.4088 -5.7735
 1200TIP3   OH2 3563   5.477   4.789   0.442 -0.3725 -0.0150  0.7736
 1200TIP3    H1 3564   5.512   4.762   0.358 -0.8189 -1.3171  0.9803
 1200TIP3    H2 3565   5.551   4.829   0.488  0.2433 -0.6215  0.3177
 1201TIP3   OH2 3566   2.422   6.375   0.511 -0.4811 -0.4908  0.0206
 1201TIP3    H1 3567   2.422   6.280   0.505 -1.1986 -0.5620  0.8642
 1201TIP3    H2 3568   2.502   6.402   0.467  0.3122 -1.5570  0.7417
 1202TIP3   OH2 3569   6.735   1.769   2.526  0.3124 -0.5180 -0.6507
 1202TIP3    H1 3570   6.658   1.816   2.495 -0.5320 -0.4335  1.4221
 1202TIP3    H2 3571   6.797   1.837   2.551 -0.0375 -0.5409  0.2817
 1203TIP3   OH2 3572   3.285   0.573   0.331  0.3828  0.4110  0.7252
 1203TIP3    H1 3573   3.380   0.584   0.332  0.5163 -0.7263  1.1739
 1203TIP3    H2 3574   3.269   0.507   0.264 -0.1110  0.6548  0.5955
 1204TIP3   OH2 3575   6.349   1.939   1.117  0.3581  0.5647  0.0029
 1204TIP3    H1 3576   6.375   1.853   1.148  0.3471  0.9386  1.0999
 1204TIP3    H2 3577   6.363   1.936   1.022  0.2579 -0.6670  0.0090
 1205TIP3   OH2 3578   4.375   5.928   0.994  0.3610  0.3702  0.0913
 1205TIP3    H1 3579   4.387   5.918   0.899  1.7899 -1.4373  0.4051
 1205TIP3    H2 3580   4.295   5.879   1.013  0.6924 -0.2139 -0.0234
 1206TIP3   OH2 3581   6.138   3.767   3.538  0.0701 -0.3028  0.4718
 1206TIP3    H1 3582   6.201   3.710   3.582  0.9428 -0.1744 -0.5586
 1206TIP3    H2 3583   6.067   3.709   3.511 -0.7949 -0.2888  2.5249
 1207TIP3   OH2 3584   2.987   0.806   1.912  0.3127 -0.4972 -0.2130
 1207TIP3    H1 3585   3.016   0.723   1.948 -3.0058 -0.6828  2.4539
 1207TIP3    H2 3586   2.941   0.849   1.984 -1.5084  1.8697 -2.5939
 1208TIP3   OH2 3587   5.092   2.617   2.045 -0.1024 -0.0505 -0.3517
 1208TIP3    H1 3588   5.074   2.556   1.974  0.9350  0.2711 -0.9159
 1208TIP3    H2 3589   5.121   2.562   2.118 -0.8766 -0.3570 -0.2677
 1209TIP3   OH2 3590   2.323   1.186   4.557  0.2352 -0.1863  0.0470
 1209TIP3    H1 3591   2.390   1.158   4.494 -0.3467 -0.7354 -0.3385
 1209TIP3    H2 3592   2.249   1.214   4.503  0.1801  0.5168  0.4691
 1210TIP3   OH2 3593   0.032   4.096   3.464  0.4947 -0.0055 -0.4488
 1210TIP3    H1 3594   0.084   4.069   3.389 -0.7704 -1.0445 -0.9879
 1210TIP3    H2 3595   0.038   4.023   3.525 -0.1301 -0.0446 -0.4214
 1211TIP3   OH2 3596   6.223   5.699   5.558 -0.4723  0.2476  0.3716
 1211TIP3    H1 3597   6.207   5.777   5.505 -0.8233  0.3505  0.6284
 1211TIP3    H2 3598   6.170   5.711   5.636  0.0052  0.0708  0.7251
 1212TIP3   OH2 3599   7.203   0.022   0.160 -0.0564 -0.2295 -0.2488
 1212TIP3    H1 3600   7.125   0.033   0.215  0.7180 -0.2987  0.9034
 1212TIP3    H2 3601   7.274   0.006   0.223  0.6885 -1.3075 -1.3262
 1213TIP3   OH2 3602   6.174   3.050   5.442 -0.4075 -0.2655  0.0479
 1213TIP3    H1 3603   6.206   3.089   5.361 -0.2930 -0.4539  0.0009
 1213TIP3    H2 3604   6.232   3.085   5.510  0.3839 -1.1802 -0.1296
 1214TIP3   OH2 3605   2.495   1.624   2.902  0.3424 -0.2503 -0.2921
 1214TIP3    H1 3606   2.584   1.591   2.911  0.1957 -0.4474  0.4673
 1214TIP3    H2 3607   2.487   1.689   2.971  0.3641  0.8256 -1.2641
 1215TIP3   OH2 3608   5.558   3.808   2.872 -0.3863  0.6607 -0.5664
 1215TIP3    H1 3609   5.636   3.799   2.819  0.6077 -1.1527  1.0890
 1215TIP3    H2 3610   5.491   3.757   2.826 -0.0746  0.6435 -1.0067
 1216TIP3   OH2 3611   7.085   5.487   5.772  0.0643  0.4419  0.1067
 1216TIP3    H1 3612   7.103   5.392   5.773  0.9578  0.5800 -0.7061
 1216TIP3    H2 3613   7.051   5.506   5.859  1.7797 -0.2985  0.9825
 1217TIP3   OH2 3614   5.852   3.522   0.634 -0.2065 -0.0378  0.0058
 1217TIP3    H1 3615   5.870   3.549   0.724  0.8946  0.1310 -0.2440
 1217TIP3    H2 3616   5.850   3.604   0.584 -1.1166 -0.1061 -0.0802
 1218TIP3   OH2 3617   6.389   3.352   3.065 -0.1523  0.6177  0.0165
 1218TIP3    H1 3618   6.316   3.403   3.030 -0.6152 -0.8049 -1.2072
 1218TIP3    H2 3619   6.350   3.268   3.088  0.7964  0.4218  0.9553
 1219TIP3   OH2 3620   1.770   4.014   1.629 -0.1128  0.3189 -0.6946
 1219TIP3    H1 3621   1.706   4.028   1.559  0.0556  0.7796 -0.7594
 1219TIP3    H2 3622   1.773   3.919   1.639 -0.5071  0.2718 -0.9703
 1220TIP3   OH2 3623   0.375   0.883   0.491  0.0969  0.7717  0.4989
 1220TIP3    H1 3624   0.394   0.790   0.481  1.1063  1.1271 -1.6884
 1220TIP3    H2 3625   0.451   0.918   0.537  0.6064  0.7605 -0.2982
 1221TIP3   OH2 3626   0.211   4.032   2.616 -0.2334  0.2612 -0.1035
 1221TIP3    H1 3627   0.128   4.079   2.621  0.8940  2.6129 -1.3900
 1221TIP3    H2 3628   0.198   3.966   2.548 -1.5000 -0.5277  0.8693
 1222TIP3   OH2 3629   5.010   1.064   4.918 -0.5597  0.5220  0.2161
 1222TIP3    H1 3630   5.093   1.112   4.917  0.0458 -0.4873 -1.4281
 1222TIP3    H2 3631   4.947   1.126   4.957  0.9935  1.1911  1.7963
 1223TIP3   OH2 3632   3.043   2.348   4.924  0.1064 -0.4384 -0.4345
 1223TIP3    H1 3633   3.040   2.310   5.012  1.1938  1.7759  0.6681
 1223TIP3    H2 3634   3.095   2.286   4.873  0.7675 -1.0442  0.9160
 1224TIP3   OH2 3635   0.501   4.706   3.792 -0.0542 -0.2617 -0.2349
 1224TIP3    H1 3636   0.514   4.642   3.722  1.4555  0.2498 -0.4645
 1224TIP3    H2 3637   0.526   4.660   3.872  2.4102  0.3844 -0.5516
 1225TIP3   OH2 3638   3.337   4.681   4.085  1.1370 -0.2352 -0.0456
 1225TIP3    H1 3639   3.353   4.755   4.026  0.0142 -0.0279 -0.1216
 1225TIP3    H2 3640   3.280   4.717   4.153  0.4692 -1.0553 -0.1546
 1226TIP3   OH2 3641   2.040   6.780   2.739  0.1511 -0.2302  0.6289
 1226TIP3    H1 3642   1.984   6.808   2.811 -0.1118 -0.8653  0.6795
 1226TIP3    H2 3643   2.062   6.689   2.759 -0.3072 -0.5611 -0.3261
 1227TIP3   OH2 3644   1.114   2.640   1.717 -0.5785  0.1564  0.1449
 1227TIP3    H1 3645   1.086   2.611   1.804 -1.4021  2.0633  0.5664
 1227TIP3    H2 3646   1.082   2.730   1.710 -1.0048 -0.1091 -2.3506
 1228TIP3   OH2 3647   2.195   3.763   2.703  0.2239  0.2735 -0.5007
 1228TIP3    H1 3648   2.119   3.796   2.656  1.4338  1.2867 -1.8267
 1228TIP3    H2 3649   2.219   3.834   2.763  0.9480  0.5574 -1.1067
 1229TIP3   OH2 3650   4.923   1.660   2.956 -0.0992 -0.2494  0.1406
 1229TIP3    H1 3651   4.892   1.733   3.010 -0.5334 -1.8452  2.1673
 1229TIP3    H2 3652   5.016   1.653   2.976  0.2587  0.5856 -1.1286
 1230TIP3   OH2 3653   5.328   1.036   2.414  0.5611  0.2110 -0.2394
 1230TIP3    H1 3654   5.257   1.101   2.409  0.5916  0.6280  2.9241
 1230TIP3    H2 3655   5.348   1.030   2.507  3.6839 -1.0291 -0.8845
 1231TIP3   OH2 3656   5.648   2.079   2.882 -0.3675  0.0745  0.6657
 1231TIP3    H1 3657   5.636   2.130   2.802  1.4850 -0.5785 -0.1034
 1231TIP3    H2 3658   5.737   2.043   2.874 -0.2813 -0.3438  2.8347
 1232TIP3   OH2 3659   1.870   1.561   3.647  0.0732  1.0938 -0.2025
 1232TIP3    H1 3660   1.781   1.565   3.682 -0.1104 -0.0768 -0.4982
 1232TIP3    H2 3661   1.866   1.610   3.565 -0.7655 -0.4330 -1.1143
 1233TIP3   OH2 3662   0.175   2.559   0.295 -0.2500 -0.1067 -0.3211
 1233TIP3    H1 3663   0.124   2.480   0.277  0.1449  0.0366 -2.2746
 1233TIP3    H2 3664   0.118   2.631   0.271  0.5812  0.0748 -1.8656
 1234TIP3   OH2 3665   2.895   3.672   0.486 -0.4276 -0.7855  0.0213
 1234TIP3    H1 3666   2.964   3.668   0.420 -1.1732 -2.5549 -0.7092
 1234TIP3    H2 3667   2.829   3.730   0.449 -0.4647 -1.1058 -0.4241
 1235TIP3   OH2 3668   3.072   2.318   1.777 -0.3237  0.4601 -0.1480
 1235TIP3    H1 3669   3.018   2.307   1.698 -0.8175  0.0405  0.2431
 1235TIP3    H2 3670   3.009   2.325   1.848  0.0534  2.7314  0.0135
 1236TIP3   OH2 3671   0.141   6.379   5.173 -0.0371  0.3953 -0.1801
 1236TIP3    H1 3672   0.155   6.322   5.248 -0.8318  1.3203  0.7198
 1236TIP3    H2 3673   0.057   6.351   5.136  0.2502  0.0779 -0.5953
 1237TIP3   OH2 3674   3.424   6.564   2.313  0.2606 -0.4148 -0.3608
 1237TIP3    H1 3675   3.466   6.647   2.290 -0.1616  0.1240  0.7050
 1237TIP3    H2 3676   3.464   6.540   2.397 -1.9345  0.4521  1.0182
 1238TIP3   OH2 3677   2.486   1.727   1.825 -0.9074 -0.3093  0.2222
 1238TIP3    H1 3678   2.497   1.786   1.750 -0.7929 -0.8964 -0.2336
 1238TIP3    H2 3679   2.574   1.694   1.842 -1.3382 -2.4518 -1.2959
 1239TIP3   OH2 3680   2.083   2.662   5.828 -0.0545  0.7964 -0.6665
 1239TIP3    H1 3681   2.026   2.723   5.875  1.2233  0.1892  1.8360
 1239TIP3    H2 3682   2.106   2.709   5.748 -1.4644  2.3776 -0.2079
 1240TIP3   OH2 3683   3.019   5.140   5.757  0.1599  0.1469 -0.3634
 1240TIP3    H1 3684   2.979   5.054   5.748  0.6192  0.0351 -1.5614
 1240TIP3    H2 3685   2.965   5.197   5.702 -0.6737  0.8351  1.1173
 1241TIP3   OH2 3686   1.483   1.522   5.125 -0.1462  0.4372 -0.0077
 1241TIP3    H1 3687   1.458   1.517   5.033 -0.2051 -0.8085  0.0642
 1241TIP3    H2 3688   1.512   1.433   5.147  1.5447  1.1137  0.6990
 1242TIP3   OH2 3689   0.184   4.061   2.876  0.4962 -0.1063 -1.0176
 1242TIP3    H1 3690   0.212   4.034   2.789  0.1255 -0.2606 -1.0948
 1242TIP3    H2 3691   0.246   4.020   2.936 -0.1016 -1.2160 -1.1314
 1243TIP3   OH2 3692   6.418   5.389   2.845 -0.0478  0.1887  0.4706
 1243TIP3    H1 3693   6.503   5.358   2.812 -1.6694 -1.8128 -2.2148
 1243TIP3    H2 3694   6.382   5.314   2.892 -1.2568  0.2082 -0.3847
 1244TIP3   OH2 3695   5.396   0.391   0.430  0.6263 -0.4755  0.1308
 1244TIP3    H1 3696   5.424   0.472   0.389  2.3702 -0.6327  0.9243
 1244TIP3    H2 3697   5.366   0.336   0.358  0.8221  0.3281 -0.5763
 1245TIP3   OH2 3698   3.029   5.502   2.684 -0.7964 -0.0576  0.0701
 1245TIP3    H1 3699   3.088   5.426   2.692 -0.4559  0.2162  0.1645
 1245TIP3    H2 3700   2.949   5.466   2.644 -0.5091 -0.3990 -0.2009
 1246TIP3   OH2 3701   6.742   4.843   0.237  0.3234 -0.4467 -0.0502
 1246TIP3    H1 3702   6.832   4.812   0.236  0.1304 -1.6310  3.9077
 1246TIP3    H2 3703   6.689   4.766   0.215  0.1779 -0.2353 -0.4605
 1247TIP3   OH2 3704   2.228   5.221   0.071 -0.0561 -0.1426 -0.0893
 1247TIP3    H1 3705   2.153   5.231   0.130  0.9964  3.1879  0.9540
 1247TIP3    H2 3706   2.278   5.148   0.107 -1.1487 -0.3291  1.1251
 1248TIP3   OH2 3707   0.844   5.410   4.744  0.5526 -0.2843 -0.1669
 1248TIP3    H1 3708   0.922   5.462   4.722  0.4257 -0.1802 -0.3728
 1248TIP3    H2 3709   0.874   5.350   4.813  1.1683 -1.1921 -1.1980
 1249TIP3   OH2 3710   1.207   1.375   5.012 -0.7485  0.8676 -0.1270
 1249TIP3    H1 3711   1.235   1.355   4.923  1.8641 -3.2930  1.2928
 1249TIP3    H2 3712   1.115   1.347   5.016 -0.8736  1.0542 -1.5022
 1250TIP3   OH2 3713   1.712   6.091   4.573  0.3284 -0.0436 -0.2414
 1250TIP3    H1 3714   1.636   6.133   4.615  0.9083  0.7913 -0.0031
 1250TIP3    H2 3715   1.777   6.161   4.567  1.0983 -0.7685 -0.4017
 1251TIP3   OH2 3716   6.527   4.748   3.916 -0.1027  0.2851  0.0642
 1251TIP3    H1 3717   6.597   4.794   3.963 -0.4540  0.3269  0.5645
 1251TIP3    H2 3718   6.484   4.695   3.983 -0.3649  0.0342 -0.2971
 1252TIP3   OH2 3719   0.155   1.034   0.423  0.1405  0.5605  0.0332
 1252TIP3    H1 3720   0.102   0.961   0.455 -1.3100  1.6559  0.2592
 1252TIP3    H2 3721   0.246   1.004   0.434 -0.3338 -2.3460 -2.6168
 1253TIP3   OH2 3722   0.220   5.700   3.314 -0.1854  0.3776  0.0409
 1253TIP3    H1 3723   0.155   5.633   3.295 -0.2912  0.2582  0.8049
 1253TIP3    H2 3724   0.173   5.766   3.364 -0.3955  1.6461 -1.7349
 1254TIP3   OH2 3725   6.516   3.528   0.185 -0.6475 -0.0140 -0.1054
 1254TIP3    H1 3726   6.465   3.606   0.209 -0.1880  1.0096 -2.2017
 1254TIP3    H2 3727   6.487   3.507   0.096  2.4121  0.5268 -1.3501
 1255TIP3   OH2 3728   4.779   3.060   0.711 -0.3702  0.0772  0.3405
 1255TIP3    H1 3729   4.726   3.008   0.772 -0.6909  0.5276  0.4558
 1255TIP3    H2 3730   4.766   3.151   0.740  0.6615  0.1830  0.5235
 1256TIP3   OH2 3731   2.601   1.801   5.120 -0.2780 -0.0592 -0.3401
 1256TIP3    H1 3732   2.647   1.809   5.036  1.9263 -0.0507  0.7894
 1256TIP3    H2 3733   2.537   1.872   5.118 -0.4895 -0.2438 -2.1329
 1257TIP3   OH2 3734   1.758   0.920   4.448  0.0976 -0.6064  0.0320
 1257TIP3    H1 3735   1.668   0.949   4.460 -0.7874 -2.8621 -0.6792
 1257TIP3    H2 3736   1.788   0.899   4.537 -0.8539 -1.8484  0.0969
 1258TIP3   OH2 3737   1.177   5.818   2.355 -0.0656  0.1591  0.4370
 1258TIP3    H1 3738   1.170   5.878   2.429  0.2998  0.7878 -0.0228
 1258TIP3    H2 3739   1.259   5.843   2.312  0.3279 -0.9881  0.5028
 1259TIP3   OH2 3740   2.471   6.732   2.501 -0.2130  0.4181 -0.4044
 1259TIP3    H1 3741   2.415   6.803   2.470  1.1780  1.9161  0.3914
 1259TIP3    H2 3742   2.559   6.757   2.474  0.3006 -1.1631 -0.3446
 1260TIP3   OH2 3743   1.964   6.306   3.776 -0.3814  0.8264 -0.0786
 1260TIP3    H1 3744   2.023   6.316   3.850 -0.6382  0.3410  0.1905
 1260TIP3    H2 3745   2.019   6.323   3.699  0.8950 -2.5482 -0.0498
 1261TIP3   OH2 3746   3.498   6.515   2.010 -0.5562  0.2761  0.1810
 1261TIP3    H1 3747   3.567   6.515   2.076  2.2664 -0.1477 -2.5436
 1261TIP3    H2 3748   3.500   6.603   1.973 -0.5036 -0.1247 -0.8153
 1262TIP3   OH2 3749   3.598   3.415   4.603 -0.3303 -0.0116  0.4245
 1262TIP3    H1 3750   3.570   3.439   4.692 -1.6822 -0.4594  0.1462
 1262TIP3    H2 3751   3.525   3.442   4.548 -0.0652 -0.9399 -0.3914
 1263TIP3   OH2 3752   1.337   1.859   1.971  0.6599 -0.0888 -0.0986
 1263TIP3    H1 3753   1.314   1.878   2.063  2.2127 -1.1445  0.5394
 1263TIP3    H2 3754   1.348   1.946   1.932 -0.9936  0.4078  0.4086
 1264TIP3   OH2 3755   4.424   0.412   1.520  0.2121  0.0345  0.5314
 1264TIP3    H1 3756   4.458   0.373   1.440  2.4521 -0.7175  1.7499
 1264TIP3    H2 3757   4.337   0.445   1.496 -0.1197 -2.1009 -1.6148
 1265TIP3   OH2 3758   6.064   3.026   0.907 -0.0199 -0.5354 -0.3100
 1265TIP3    H1 3759   6.018   3.007   0.825 -2.6942  0.9672  0.7157
 1265TIP3    H2 3760   6.012   3.094   0.949  1.9516 -0.3462  2.0973
 1266TIP3   OH2 3761   6.078   6.731   5.881 -0.3510 -0.3777  0.4762
 1266TIP3    H1 3762   6.128   6.723   5.800 -0.1409 -0.9603  0.6596
 1266TIP3    H2 3763   6.091   6.822   5.908 -1.3613  0.1582 -0.7365
 1267TIP3   OH2 3764   1.729   3.442   5.260  0.3944 -0.0729  0.4960
 1267TIP3    H1 3765   1.652   3.437   5.317  0.4006  0.6573  0.5831
 1267TIP3    H2 3766   1.803   3.442   5.321  0.4238  0.1388  0.4612
 1268TIP3   OH2 3767   3.025   4.769   1.195 -0.5115  0.1449  0.3284
 1268TIP3    H1 3768   3.053   4.751   1.284 -0.4044  1.9592  0.6888
 1268TIP3    H2 3769   3.004   4.682   1.159  3.2908 -1.1255  0.7293
 1269TIP3   OH2 3770   0.399   0.744   4.827  0.4220  0.5248  0.4773
 1269TIP3    H1 3771   0.323   0.740   4.885 -0.6817  0.9871 -0.9025
 1269TIP3    H2 3772   0.465   0.790   4.878 -0.0432 -0.2735  1.8700
 1270TIP3   OH2 3773   5.638   6.244   2.167 -0.1224  0.1612 -0.0140
 1270TIP3    H1 3774   5.670   6.168   2.119  2.1955  2.5595 -2.6867
 1270TIP3    H2 3775   5.694   6.250   2.244  0.2366 -0.3757 -0.2328
 1271TIP3   OH2 3776   1.086   0.985   3.137  0.0891 -0.2789 -0.9409
 1271TIP3    H1 3777   1.000   0.999   3.177  0.6759  1.4901 -0.1833
 1271TIP3    H2 3778   1.112   1.072   3.106  2.7315 -0.1683  1.2083
 1272TIP3   OH2 3779   2.553   5.876   5.152 -0.1635  0.0666 -0.2801
 1272TIP3    H1 3780   2.644   5.899   5.174 -0.3101 -0.7532  1.3550
 1272TIP3    H2 3781   2.537   5.920   5.068  1.8631 -0.0785 -0.8117
 1273TIP3   OH2 3782   1.161   2.302   3.345  1.0929  0.2259 -0.2518
 1273TIP3    H1 3783   1.169   2.383   3.394 -0.5557 -0.2230  0.8540
 1273TIP3    H2 3784   1.210   2.237   3.396  1.6128  0.3044 -0.6366
 1274TIP3   OH2 3785   5.113   1.888   4.031 -0.4162  0.8061 -0.4662
 1274TIP3    H1 3786   5.200   1.875   4.070 -1.3429  1.0707  1.8747
 1274TIP3    H2 3787   5.101   1.983   4.032 -1.8403  0.6875  2.0752
 1275TIP3   OH2 3788   2.228   1.589   4.735  0.1547 -0.0692 -0.1443
 1275TIP3    H1 3789   2.217   1.543   4.652  0.0750 -2.6953  1.2226
 1275TIP3    H2 3790   2.314   1.631   4.728  0.5110 -0.9470 -1.2456
 1276TIP3   OH2 3791   6.096   6.235   1.981  0.1572  0.2076  0.0451
 1276TIP3    H1 3792   6.045   6.188   2.047 -0.5894 -0.1667 -0.7727
 1276TIP3    H2 3793   6.174   6.182   1.968 -0.3120 -0.4097 -0.3119
 1277TIP3   OH2 3794   1.089   2.923   1.699  0.0596  0.0988 -0.0771
 1277TIP3    H1 3795   1.004   2.961   1.674  0.5704  0.7738 -0.8421
 1277TIP3    H2 3796   1.151   2.962   1.638  0.8615 -0.7249  0.1953
 1278TIP3   OH2 3797   6.833   3.951   2.908 -0.3020 -0.2813  0.2804
 1278TIP3    H1 3798   6.773   3.904   2.850 -1.0920 -0.0404  0.8937
 1278TIP3    H2 3799   6.824   3.906   2.992  0.3748 -0.2340  0.3801
 1279TIP3   OH2 3800   1.005   3.438   4.164  0.4739  0.2141 -0.9071
 1279TIP3    H1 3801   1.058   3.372   4.119  0.7983  1.5949 -2.6768
 1279TIP3    H2 3802   0.932   3.389   4.201  0.9495 -1.2009 -1.7663
 1280TIP3   OH2 3803   7.073   4.979   1.999  0.2738 -1.0609  0.1834
 1280TIP3    H1 3804   7.058   5.062   1.954  0.6118 -1.1562 -0.1091
 1280TIP3    H2 3805   7.035   4.912   1.941 -0.9316 -1.0224  0.9079
 1281TIP3   OH2 3806   5.444   3.193   5.316  0.0363  0.2529  0.2997
 1281TIP3    H1 3807   5.528   3.168   5.353 -0.2940 -1.3536  0.0430
 1281TIP3    H2 3808   5.424   3.278   5.356  1.6163  0.5037  0.5963
 1282TIP3   OH2 3809   2.236   6.780   2.268 -0.2803  0.3953 -0.3523
 1282TIP3    H1 3810   2.144   6.802   2.282  0.0909  1.1319  1.0549
 1282TIP3    H2 3811   2.248   6.791   2.173 -2.0172 -1.3162 -0.8360
 1283TIP3   OH2 3812   2.182   1.683   1.674  0.0494  0.0807  0.4758
 1283TIP3    H1 3813   2.252   1.703   1.611  2.0984 -2.3910  1.7909
 1283TIP3    H2 3814   2.112   1.646   1.620  0.8161  0.1446 -0.6027
 1284TIP3   OH2 3815   1.015   1.457   3.725  0.5785 -0.2853 -0.6632
 1284TIP3    H1 3816   0.941   1.516   3.715  0.5362 -0.3015 -0.4468
 1284TIP3    H2 3817   1.089   1.504   3.687  0.7879  0.3771  0.5060
 1285TIP3   OH2 3818   6.712   1.554   1.395  0.2205 -0.0542  0.1446
 1285TIP3    H1 3819   6.649   1.609   1.442 -1.2559 -0.5877 -1.1656
 1285TIP3    H2 3820   6.727   1.479   1.454 -1.6187 -0.7257 -0.1978
 1286TIP3   OH2 3821   4.131   0.899   2.027 -0.1851 -0.1321 -0.5663
 1286TIP3    H1 3822   4.203   0.926   2.083  1.5345 -3.3638 -0.9717
 1286TIP3    H2 3823   4.073   0.848   2.084 -2.2800  2.3873 -0.2550
 1287TIP3   OH2 3824   3.944   4.967   1.705  0.0187 -0.1206 -0.3991
 1287TIP3    H1 3825   3.867   4.939   1.656  0.7540 -0.8969 -1.1368
 1287TIP3    H2 3826   3.994   4.887   1.719  1.6510  0.6284 -1.6238
 1288TIP3   OH2 3827   6.228   4.379   5.188 -0.0216  0.1274  0.4595
 1288TIP3    H1 3828   6.261   4.463   5.221 -0.3883  0.0743  0.9741
 1288TIP3    H2 3829   6.249   4.317   5.257 -0.2289 -0.1071  0.3102
 1289TIP3   OH2 3830   2.300   2.161   2.910 -0.2842 -0.2949 -0.4082
 1289TIP3    H1 3831   2.272   2.079   2.869  0.0420 -0.6570  0.0710
 1289TIP3    H2 3832   2.350   2.206   2.843 -1.2888 -0.0291 -0.9950
 1290TIP3   OH2 3833   3.462   2.228   0.837 -0.1046  0.4804  0.1286
 1290TIP3    H1 3834   3.414   2.261   0.761 -0.0165 -0.8730 -0.5528
 1290TIP3    H2 3835   3.545   2.274   0.835  0.0052  0.2675 -0.7781
 1291TIP3   OH2 3836   4.532   6.520   5.082  0.3251 -0.7996 -0.1613
 1291TIP3    H1 3837   4.471   6.507   5.009 -0.5368  1.0059  0.1874
 1291TIP3    H2 3838   4.605   6.568   5.044  0.2887 -0.6292 -0.0151
 1292TIP3   OH2 3839   5.434   1.961   3.038 -0.6937 -0.2174 -0.7834
 1292TIP3    H1 3840   5.380   1.912   2.976 -0.5390  2.2125 -3.0269
 1292TIP3    H2 3841   5.504   1.999   2.985  2.2479 -1.6971  1.7169
 1293TIP3   OH2 3842   0.294   1.988   5.802  0.1420 -0.3692  0.0372
 1293TIP3    H1 3843   0.254   2.067   5.836 -1.0430 -0.8537 -0.1700
 1293TIP3    H2 3844   0.340   2.016   5.723  0.7437  0.3043  0.6105
 1294TIP3   OH2 3845   0.226   4.849   0.469  0.3198  0.2521  0.1205
 1294TIP3    H1 3846   0.322   4.855   0.470  0.3264  0.4637  2.1494
 1294TIP3    H2 3847   0.208   4.757   0.452  0.9197  0.0145  0.7160
 1295TIP3   OH2 3848   1.432   4.991   1.072 -0.1498 -0.1325  0.3243
 1295TIP3    H1 3849   1.402   5.045   1.145 -1.2782  1.3575 -1.1562
 1295TIP3    H2 3850   1.501   5.044   1.030 -0.2233 -0.5012 -0.2742
 1296TIP3   OH2 3851   1.977   6.383   4.910 -0.2851 -0.1059 -0.6050
 1296TIP3    H1 3852   1.920   6.316   4.947  2.0814 -1.3236  1.0730
 1296TIP3    H2 3853   1.917   6.448   4.874 -2.7515 -0.6918  2.0853
 1297TIP3   OH2 3854   3.795   2.010   5.161 -0.3746  0.1453  0.2914
 1297TIP3    H1 3855   3.816   2.099   5.186  2.0250 -0.7819  1.8977
 1297TIP3    H2 3856   3.857   1.955   5.208 -1.6657 -2.4073 -0.7154
 1298TIP3   OH2 3857   5.409   4.784   3.381 -0.6829 -0.1748 -0.3303
 1298TIP3    H1 3858   5.375   4.813   3.296 -0.4604  3.3118  0.5959
 1298TIP3    H2 3859   5.492   4.740   3.361 -1.2530 -0.5526 -1.9744
 1299TIP3   OH2 3860   6.035   5.846   5.717 -0.3382  0.1217 -0.9630
 1299TIP3    H1 3861   5.962   5.795   5.751 -1.8043  3.4391  1.3721
 1299TIP3    H2 3862   5.998   5.896   5.645  0.9375 -1.5523 -2.8699
 1300TIP3   OH2 3863   4.908   0.080   3.221 -0.3373  0.2571 -0.0719
 1300TIP3    H1 3864   5.000   0.097   3.200 -0.2412  0.8360  0.7484
 1300TIP3    H2 3865   4.907  -0.010   3.254 -0.0351  0.3052  0.0716
 1301TIP3   OH2 3866   2.113   0.843   5.632  0.5755  0.3622  0.4729
 1301TIP3    H1 3867   2.116   0.760   5.584 -1.0686 -0.9308  2.4689
 1301TIP3    H2 3868   2.049   0.895   5.585 -0.8806 -0.8148  1.0881
 1302TIP3   OH2 3869   5.026   3.942   0.353 -0.0375  0.1499 -0.9492
 1302TIP3    H1 3870   5.033   4.036   0.373 -2.6758  0.4660 -1.1449
 1302TIP3    H2 3871   4.938   3.918   0.382  0.2065 -2.0484 -1.8539
 1303TIP3   OH2 3872   2.296   3.729   5.473  0.1600 -0.4520 -0.1040
 1303TIP3    H1 3873   2.383   3.750   5.506  0.3844 -0.5735 -0.6193
 1303TIP3    H2 3874   2.244   3.808   5.490  0.0625 -0.7879  1.2546
 1304TIP3   OH2 3875   6.734   0.359   0.666  0.4356  0.0356 -0.3616
 1304TIP3    H1 3876   6.656   0.328   0.711 -0.6996  1.5355 -1.2280
 1304TIP3    H2 3877   6.753   0.444   0.705  2.1510 -0.6380  0.3950
 1305TIP3   OH2 3878   2.318   0.923   3.557 -0.1071  0.0898  0.3775
 1305TIP3    H1 3879   2.380   0.905   3.628  0.3736 -0.5043 -0.1769
 1305TIP3    H2 3880   2.270   0.841   3.546 -0.9939  0.5405  0.7866
 1306TIP3   OH2 3881   5.196   4.840   2.215 -0.1982  0.0933  0.1601
 1306TIP3    H1 3882   5.104   4.815   2.200 -0.1672  0.6094 -1.0207
 1306TIP3    H2 3883   5.198   4.934   2.199  0.5726  0.0527  0.0041
 1307TIP3   OH2 3884   5.308   0.970   4.239  0.1800 -0.2721 -0.3178
 1307TIP3    H1 3885   5.280   0.950   4.328  0.4649  0.8282  0.0412
 1307TIP3    H2 3886   5.300   1.065   4.232 -0.7416 -0.4246 -1.7870
 1308TIP3   OH2 3887   4.511   3.720   2.218 -0.4973 -0.2296  0.2922
 1308TIP3    H1 3888   4.563   3.768   2.283  1.9425 -0.3640 -1.4123
 1308TIP3    H2 3889   4.500   3.633   2.255  1.7704 -0.6314  0.1423
 1309TIP3   OH2 3890   1.921   3.343   1.470  0.5462  0.1500  0.1701
 1309TIP3    H1 3891   1.827   3.353   1.462  0.3469  1.0870  2.6963
 1309TIP3    H2 3892   1.932   3.268   1.529  1.4733 -1.1333 -1.5605
 1310TIP3   OH2 3893   5.704   0.517   4.018  0.4004 -0.0930  0.5533
 1310TIP3    H1 3894   5.744   0.448   4.071  0.5620 -0.1168  0.3981
 1310TIP3    H2 3895   5.692   0.477   3.932  1.5908  0.4550  0.1244
 1311TIP3   OH2 3896   1.621   5.008   2.931  0.2167  0.0891  0.3111
 1311TIP3    H1 3897   1.554   4.956   2.975  0.8931 -0.1427  1.0993
 1311TIP3    H2 3898   1.703   4.984   2.975  0.9889 -0.4146 -1.2937
 1312TIP3   OH2 3899   3.826   0.322   2.667 -0.1079 -0.0689 -0.2666
 1312TIP3    H1 3900   3.794   0.305   2.755 -0.9549 -2.1564 -0.9259
 1312TIP3    H2 3901   3.880   0.401   2.676  0.3817 -0.6034  2.2220
 1313TIP3   OH2 3902   6.851   3.377   3.994 -0.3128 -0.3038 -0.1528
 1313TIP3    H1 3903   6.798   3.311   4.039 -0.6035 -0.7611 -1.1413
 1313TIP3    H2 3904   6.933   3.332   3.973 -0.7483 -0.5755 -1.3794
 1314TIP3   OH2 3905   3.235   4.194   5.608  0.3568 -0.3924 -0.0435
 1314TIP3    H1 3906   3.172   4.265   5.620  0.0589 -0.8981  1.5356
 1314TIP3    H2 3907   3.210   4.129   5.673  0.8363 -1.8072 -1.2372
 1315TIP3   OH2 3908   1.460   0.005   0.748 -0.1634  0.3930 -0.1023
 1315TIP3    H1 3909   1.535   0.024   0.691 -0.1054  1.6377  0.3588
 1315TIP3    H2 3910   1.495   0.013   0.837 -1.1593  2.4942  0.1507
 1316TIP3   OH2 3911   5.007   6.424   2.159  0.7154 -0.2354  0.6697
 1316TIP3    H1 3912   5.004   6.329   2.154  1.7325 -0.2632  0.1725
 1316TIP3    H2 3913   5.074   6.449   2.095  1.5515  0.7070  1.8487
 1317TIP3   OH2 3914   2.447   6.018   2.158  0.2734  0.3239  0.1371
 1317TIP3    H1 3915   2.457   6.112   2.145  1.2820  0.1326 -0.5900
 1317TIP3    H2 3916   2.460   6.005   2.252  1.0925  0.8118  0.1060
 1318TIP3   OH2 3917   0.571   0.646   2.638  0.3930 -0.3348  0.8607
 1318TIP3    H1 3918   0.581   0.703   2.714 -0.5075 -0.3442  1.0061
 1318TIP3    H2 3919   0.542   0.704   2.567  2.8572 -0.0253  0.0174
 1319TIP3   OH2 3920   3.487   1.467   1.647  0.0730  0.0744  0.4330
 1319TIP3    H1 3921   3.409   1.519   1.663 -0.3111 -0.2711 -0.2847
 1319TIP3    H2 3922   3.471   1.385   1.693  0.4750  0.3920  1.1645
 1320TIP3   OH2 3923   3.974   2.110   3.807  0.0759  0.0121  0.0680
 1320TIP3    H1 3924   4.002   2.049   3.739 -1.5971 -1.5526  0.6941
 1320TIP3    H2 3925   4.010   2.074   3.888 -1.7302 -0.7971  0.5771
 1321TIP3   OH2 3926   1.393   3.732   3.669 -0.2284 -0.0421  0.0366
 1321TIP3    H1 3927   1.412   3.676   3.744 -1.0860  1.5282  1.4991
 1321TIP3    H2 3928   1.298   3.744   3.672 -0.2036  0.5184 -0.9684
 1322TIP3   OH2 3929   6.714   5.660   5.794 -0.0983 -0.2090 -0.1342
 1322TIP3    H1 3930   6.724   5.592   5.728  0.8795  1.7054 -2.0881
 1322TIP3    H2 3931   6.761   5.628   5.870  1.6026 -1.1036 -1.5064
 1323TIP3   OH2 3932   1.260   6.620   5.000  0.1951  0.0737  0.2112
 1323TIP3    H1 3933   1.273   6.626   5.095  0.7347  2.3459  0.0505
 1323TIP3    H2 3934   1.178   6.571   4.990 -0.7404  1.2019  1.9141
 1324TIP3   OH2 3935   2.138   3.516   4.648  0.1303 -0.3861 -0.3111
 1324TIP3    H1 3936   2.149   3.526   4.553  0.7450  0.8689 -0.1326
 1324TIP3    H2 3937   2.067   3.452   4.657  0.6401 -1.1719 -1.5979
 1325TIP3   OH2 3938   4.205   2.257   4.615 -0.2108  0.1585  0.2563
 1325TIP3    H1 3939   4.212   2.345   4.580 -1.6907  0.1487 -0.1084
 1325TIP3    H2 3940   4.137   2.215   4.563  0.9323 -1.4316 -0.0234
 1326TIP3   OH2 3941   4.631   5.391   3.458  0.1101 -0.2437 -0.0307
 1326TIP3    H1 3942   4.668   5.318   3.408  1.4158  0.7446 -0.5566
 1326TIP3    H2 3943   4.540   5.397   3.428 -0.1725 -1.9190  0.3665
 1327TIP3   OH2 3944   3.808   0.797   1.805 -0.2666 -0.6208  0.0811
 1327TIP3    H1 3945   3.784   0.745   1.881 -1.6875  0.1458  0.1951
 1327TIP3    H2 3946   3.742   0.867   1.802 -0.1134 -0.5106 -1.7293
 1328TIP3   OH2 3947   5.716   4.187   0.198  0.2871 -0.1825  0.0870
 1328TIP3    H1 3948   5.772   4.109   0.201  0.2554 -0.2407 -0.6617
 1328TIP3    H2 3949   5.629   4.152   0.181  0.1027 -0.0485  0.7089
 1329TIP3   OH2 3950   1.819   2.437   4.962 -0.0021  0.8518  0.1352
 1329TIP3    H1 3951   1.757   2.463   4.894  1.0166  0.3372 -1.0373
 1329TIP3    H2 3952   1.773   2.454   5.044 -2.1423 -0.5685 -0.6654
 1330TIP3   OH2 3953   0.327   2.473   3.736 -0.2312 -0.0030  0.4292
 1330TIP3    H1 3954   0.403   2.425   3.703 -1.1689 -0.3698 -1.3279
 1330TIP3    H2 3955   0.261   2.463   3.668 -1.5460  1.1149  1.4764
 1331TIP3   OH2 3956   1.991   5.137   1.909  0.6248  0.3036  0.4479
 1331TIP3    H1 3957   2.017   5.229   1.909  2.6304 -0.2017 -0.0223
 1331TIP3    H2 3958   2.051   5.095   1.847 -0.3213 -1.3048  0.5590
 1332TIP3   OH2 3959   0.305   1.397   4.376  0.6384  0.0584 -0.2992
 1332TIP3    H1 3960   0.345   1.474   4.336 -0.7696  0.7168 -0.4924
 1332TIP3    H2 3961   0.368   1.326   4.359  1.5893  0.9888 -0.7972
 1333TIP3   OH2 3962   4.825   3.529   1.827  0.5953  0.3696 -0.1516
 1333TIP3    H1 3963   4.794   3.575   1.749  0.8252 -1.4293 -1.3568
 1333TIP3    H2 3964   4.917   3.510   1.809  0.2105 -1.6143 -0.2766
 1334TIP3   OH2 3965   6.452   6.654   5.472  0.0356  0.1673 -0.0328
 1334TIP3    H1 3966   6.382   6.634   5.534  0.7232  0.8355  0.9870
 1334TIP3    H2 3967   6.510   6.714   5.519  1.7086 -0.9386 -0.5837
 1335TIP3   OH2 3968   2.959   6.145   2.789 -0.5474 -0.3269  0.0303
 1335TIP3    H1 3969   2.990   6.181   2.706  0.0450  0.2138  0.4708
 1335TIP3    H2 3970   2.918   6.062   2.766 -0.8042  0.0397 -0.8558
 1336TIP3   OH2 3971   2.111   3.636   3.728 -0.0765 -0.2298 -0.2192
 1336TIP3    H1 3972   2.101   3.551   3.771 -0.1449 -0.3886 -0.5457
 1336TIP3    H2 3973   2.199   3.634   3.691 -0.4302 -0.5475 -1.0636
 1337TIP3   OH2 3974   3.004   0.218   2.387  0.4740  0.6955  0.2488
 1337TIP3    H1 3975   3.100   0.217   2.382  0.4506  1.5594 -2.9742
 1337TIP3    H2 3976   2.977   0.132   2.356  0.1966  0.4702  1.1067
 1338TIP3   OH2 3977   1.338   1.299   3.237 -0.3452 -0.1970  0.6503
 1338TIP3    H1 3978   1.321   1.359   3.310 -0.6806 -0.9126  1.1670
 1338TIP3    H2 3979   1.332   1.212   3.275 -0.4010 -0.5786 -0.2104
 1339TIP3   OH2 3980   3.759   1.545   0.626  0.3837 -0.7569  0.2791
 1339TIP3    H1 3981   3.844   1.570   0.589 -0.5660  0.8211 -1.0031
 1339TIP3    H2 3982   3.726   1.477   0.567  1.1899 -2.1606  1.4012
 1340TIP3   OH2 3983   2.210   3.893   4.641  0.1542  0.0858  0.0571
 1340TIP3    H1 3984   2.155   3.970   4.627  0.7325  0.2741 -1.4334
 1340TIP3    H2 3985   2.299   3.925   4.625  0.3155 -1.1051 -1.8087
 1341TIP3   OH2 3986   6.330   2.637   3.707  0.1328  0.0245 -0.2668
 1341TIP3    H1 3987   6.367   2.592   3.630 -0.4915 -1.6954  0.3830
 1341TIP3    H2 3988   6.249   2.676   3.675  1.1353  1.5833 -1.0657
 1342TIP3   OH2 3989   4.085   0.048   5.397  0.0847 -0.1100 -0.5830
 1342TIP3    H1 3990   4.119   0.115   5.457  1.8289 -0.2268 -1.3780
 1342TIP3    H2 3991   4.163   0.013   5.354 -1.0244 -0.7723 -2.1447
 1343TIP3   OH2 3992   3.484   4.254   0.101  0.3370  0.2846 -0.5937
 1343TIP3    H1 3993   3.466   4.332   0.153  3.1083 -0.1529  1.2135
 1343TIP3    H2 3994   3.398   4.212   0.091 -1.1788  3.2186 -1.2565
 1344TIP3   OH2 3995   2.539   6.346   2.420 -0.4544 -0.1902 -0.0397
 1344TIP3    H1 3996   2.591   6.319   2.344 -1.6986 -1.8868 -0.3563
 1344TIP3    H2 3997   2.489   6.421   2.388 -0.6182 -0.5948 -0.7701
 1345TIP3   OH2 3998   6.130   6.592   3.539  0.1633 -0.0677  0.0068
 1345TIP3    H1 3999   6.037   6.612   3.551  0.3985  0.3467  1.2474
 1345TIP3    H2 4000   6.145   6.606   3.445 -1.0004 -0.0556 -0.1907
 1346TIP3   OH2 4001   6.072   1.858   0.876  0.5145  0.2210 -1.0542
 1346TIP3    H1 4002   6.046   1.923   0.941 -2.6936 -0.2980 -1.6327
 1346TIP3    H2 4003   6.135   1.904   0.820  0.7697  1.7476  0.3925
 1347TIP3   OH2 4004   5.328   2.458   3.555 -0.0031 -0.7435  0.0332
 1347TIP3    H1 4005   5.404   2.485   3.606  0.1346  0.2803 -0.6808
 1347TIP3    H2 4006   5.337   2.363   3.547  0.6927 -0.7483  0.7393
 1348TIP3   OH2 4007   6.418   3.222   0.006  0.1979  0.1475  0.1522
 1348TIP3    H1 4008   6.423   3.308  -0.036  3.6146 -0.3200 -0.6889
 1348TIP3    H2 4009   6.344   3.229   0.067 -0.3320  3.2695 -0.6934
 1349TIP3   OH2 4010   4.691   3.153   1.007  0.2639  0.5997  0.4120
 1349TIP3    H1 4011   4.696   3.115   1.094  0.2229  0.2680  0.2721
 1349TIP3    H2 4012   4.644   3.087   0.955  1.2346  0.3089 -0.1166
 1350TIP3   OH2 4013   1.981   4.187   3.961  0.1044  0.5126 -0.5004
 1350TIP3    H1 4014   1.972   4.273   4.002 -0.2240  0.1314  0.2553
 1350TIP3    H2 4015   1.919   4.189   3.888 -2.0359 -0.0144  1.1576
 1351TIP3   OH2 4016   6.650   5.003   1.090  0.2244 -0.3315  0.3178
 1351TIP3    H1 4017   6.630   4.941   1.019 -0.2650  0.4194 -0.2075
 1351TIP3    H2 4018   6.612   5.086   1.061  3.1121  0.9264 -0.2080
 1352TIP3   OH2 4019   6.905   6.192   4.556  0.3242  0.7251 -0.1936
 1352TIP3    H1 4020   6.867   6.104   4.567  0.7095  0.4999 -0.6531
 1352TIP3    H2 4021   6.840   6.239   4.503 -0.5353  1.1593  1.1734
 1353TIP3   OH2 4022   1.184   2.312   2.983 -0.3422  0.2560  0.2168
 1353TIP3    H1 4023   1.190   2.408   2.978 -1.4835  0.3009 -0.7355
 1353TIP3    H2 4024   1.275   2.283   2.994  0.0567  1.4222  0.1555
 1354TIP3   OH2 4025   0.307   3.810   2.467  0.0647  0.0853 -0.0380
 1354TIP3    H1 4026   0.372   3.766   2.523 -0.2704 -0.1599  0.1592
 1354TIP3    H2 4027   0.360   3.866   2.409  0.4667 -0.2271  0.0190
 1355TIP3   OH2 4028   0.125   2.780   3.524 -0.3930  0.9351  0.1300
 1355TIP3    H1 4029   0.216   2.807   3.526 -0.8976  2.6637  1.1669
 1355TIP3    H2 4030   0.123   2.698   3.573  0.5209  1.1005  0.4520
 1356TIP3   OH2 4031   1.868   3.250   0.467 -0.2142 -0.7666  0.9199
 1356TIP3    H1 4032   1.791   3.307   0.461 -1.0558 -1.7731  1.7072
 1356TIP3    H2 4033   1.842   3.182   0.529  1.3391 -1.1137  1.2195
 1357TIP3   OH2 4034   1.552   5.384   2.574 -0.4574  0.0368 -0.1616
 1357TIP3    H1 4035   1.573   5.355   2.485 -2.1742 -0.4007 -0.4654
 1357TIP3    H2 4036   1.564   5.306   2.628  0.4197  0.2595 -0.0178
 1358TIP3   OH2 4037   2.564   4.248   4.536 -0.0085 -0.4304  0.1664
 1358TIP3    H1 4038   2.632   4.276   4.475 -1.2347  2.0828 -0.1986
 1358TIP3    H2 4039   2.569   4.312   4.608 -0.7670 -1.3543  1.0772
 1359TIP3   OH2 4040   2.311   0.204   5.434 -0.5886  0.1725  0.3043
 1359TIP3    H1 4041   2.397   0.163   5.423 -0.3995 -0.0066  2.2414
 1359TIP3    H2 4042   2.319   0.288   5.387  0.2342 -0.3493 -0.5188
 1360TIP3   OH2 4043   3.540   0.703   3.060  0.4855 -0.2483 -0.5363
 1360TIP3    H1 4044   3.570   0.793   3.072  1.2303 -0.5728  0.1408
 1360TIP3    H2 4045   3.512   0.698   2.969 -1.5661  1.2401 -0.0481
 1361TIP3   OH2 4046   6.985   2.658   1.097 -0.4464 -0.4564  0.3690
 1361TIP3    H1 4047   6.979   2.653   1.193  1.8192 -1.5806  0.5206
 1361TIP3    H2 4048   6.990   2.752   1.078 -1.0085 -0.2194  1.3299
 1362TIP3   OH2 4049   1.754   5.103   1.784  0.7728 -0.8085  0.2173
 1362TIP3    H1 4050   1.796   5.034   1.733  0.5396 -1.2306  0.5849
 1362TIP3    H2 4051   1.818   5.124   1.853  1.8694  1.0316 -1.2585
 1363TIP3   OH2 4052   6.118   3.696   1.024 -0.2732 -0.0497  0.0990
 1363TIP3    H1 4053   6.080   3.669   0.941  0.4513 -1.1133  0.0878
 1363TIP3    H2 4054   6.069   3.646   1.090 -0.3221  0.2007  0.2550
 1364TIP3   OH2 4055   1.717   6.595   1.660  0.2626 -0.1535  0.3625
 1364TIP3    H1 4056   1.670   6.679   1.661 -2.2207 -1.2900 -3.2071
 1364TIP3    H2 4057   1.676   6.545   1.731 -0.7996  0.4297  0.1886
 1365TIP3   OH2 4058   2.239   5.522   5.850 -0.0264  0.0853 -0.0939
 1365TIP3    H1 4059   2.253   5.436   5.811 -0.4105  0.1985 -0.4926
 1365TIP3    H2 4060   2.148   5.520   5.879 -0.3573  0.7091 -1.0337
 1366TIP3   OH2 4061   7.142   3.671   3.528  0.6162 -0.3909 -0.5591
 1366TIP3    H1 4062   7.183   3.732   3.589 -0.7875 -1.8181  1.9321
 1366TIP3    H2 4063   7.103   3.728   3.461  1.3992  1.2937  0.3476
 1367TIP3   OH2 4064   4.191   5.227   3.621  0.1323 -0.0429  0.0759
 1367TIP3    H1 4065   4.229   5.194   3.540 -0.4509  0.3926 -0.3778
 1367TIP3    H2 4066   4.162   5.316   3.600 -0.6509 -0.1733  0.5634
 1368TIP3   OH2 4067   1.146   3.298   4.787 -0.1434 -0.1333  0.0444
 1368TIP3    H1 4068   1.094   3.219   4.806 -2.1249  1.2025  0.4885
 1368TIP3    H2 4069   1.233   3.278   4.819 -1.0345 -1.5071  1.7699
 1369TIP3   OH2 4070   2.680   4.885   2.254 -0.5306  0.0841 -0.3977
 1369TIP3    H1 4071   2.697   4.867   2.162  1.6428  0.8164 -0.2105
 1369TIP3    H2 4072   2.721   4.811   2.300 -2.2230 -0.6483 -0.0134
 1370TIP3   OH2 4073   5.142   2.864   5.741  0.4340  0.0284 -0.0811
 1370TIP3    H1 4074   5.182   2.779   5.721  1.4200  0.8098 -1.6217
 1370TIP3    H2 4075   5.211   2.928   5.726 -0.5966  1.2091 -0.0268
 1371TIP3   OH2 4076   5.565   1.982   4.831 -0.3223  0.2727 -0.5184
 1371TIP3    H1 4077   5.531   1.999   4.919  0.0460 -0.5539 -0.1994
 1371TIP3    H2 4078   5.647   1.935   4.847  0.2493  0.9807 -1.2929
 1372TIP3   OH2 4079   0.510   4.312   1.655 -0.2455  0.0547  0.7508
 1372TIP3    H1 4080   0.509   4.323   1.750  0.4810 -0.9477  0.8862
 1372TIP3    H2 4081   0.418   4.308   1.630 -0.4519  0.8566  1.3408
 1373TIP3   OH2 4082   0.691   5.957   4.860 -0.0386 -0.3033  0.5564
 1373TIP3    H1 4083   0.666   5.961   4.952  1.6702  1.0857  1.0321
 1373TIP3    H2 4084   0.740   5.876   4.852  2.0598  0.7769  1.5831
 1374TIP3   OH2 4085   7.151   1.701   3.121  0.0005 -0.1600  0.1851
 1374TIP3    H1 4086   7.161   1.796   3.109  0.6836 -0.3651 -1.0935
 1374TIP3    H2 4087   7.115   1.691   3.209  1.8557  1.1942  1.1609
 1375TIP3   OH2 4088   4.994   1.487   1.263  0.0201 -0.4837 -0.0981
 1375TIP3    H1 4089   5.016   1.491   1.170 -1.7154 -1.0385 -0.5640
 1375TIP3    H2 4090   5.061   1.429   1.300 -0.5195 -2.0330 -1.4293
 1376TIP3   OH2 4091   0.211   3.141   3.484  0.4373  0.0707 -0.0457
 1376TIP3    H1 4092   0.274   3.201   3.444  0.7931 -0.7978 -0.8327
 1376TIP3    H2 4093   0.237   3.055   3.453  0.0267 -0.5198  1.1885
 1377TIP3   OH2 4094   5.732   4.391   5.042 -0.1106 -0.0275  0.2800
 1377TIP3    H1 4095   5.708   4.335   4.968  2.2280  2.1068 -2.3350
 1377TIP3    H2 4096   5.826   4.373   5.055 -0.0915  0.9059  1.6061
 1378TIP3   OH2 4097   5.943   4.747   4.748  0.5389  0.1451  0.0092
 1378TIP3    H1 4098   5.978   4.707   4.668 -0.1945 -0.3450 -0.0700
 1378TIP3    H2 4099   5.987   4.701   4.819  0.6808  0.1141 -0.0986
 1379TIP3   OH2 4100   1.233   0.932   0.933 -0.1273 -0.3673  0.0044
 1379TIP3    H1 4101   1.154   0.893   0.970 -2.2610  3.4603  0.0326
 1379TIP3    H2 4102   1.268   0.866   0.874 -3.2827 -2.3022  0.1033
 1380TIP3   OH2 4103   4.885   5.682   2.121  0.8259 -0.2160 -0.3059
 1380TIP3    H1 4104   4.820   5.620   2.087 -0.3012  1.1039 -0.6480
 1380TIP3    H2 4105   4.870   5.682   2.215 -0.2784  0.6918 -0.4561
 1381TIP3   OH2 4106   6.696   1.251   3.430  0.7058  0.4743  0.5316
 1381TIP3    H1 4107   6.616   1.270   3.381  1.1037 -1.2166 -0.8721
 1381TIP3    H2 4108   6.665   1.204   3.508  0.2441  0.8413  0.5725
 1382TIP3   OH2 4109   2.685   1.281   3.658  0.3425 -0.1024 -0.3922
 1382TIP3    H1 4110   2.626   1.295   3.733 -0.4842  0.5612 -1.1465
 1382TIP3    H2 4111   2.770   1.263   3.698  0.2370  1.6140  0.7195
 1383TIP3   OH2 4112   0.921   0.571   4.151  0.0730  1.0993  0.5817
 1383TIP3    H1 4113   0.860   0.599   4.219  0.7093  2.1678  0.7238
 1383TIP3    H2 4114   0.991   0.636   4.152  0.8323  0.3234 -0.1090
 1384TIP3   OH2 4115   3.841   5.153   0.672  0.4365 -0.6139 -0.0949
 1384TIP3    H1 4116   3.815   5.172   0.763 -1.3401 -0.5208 -0.5783
 1384TIP3    H2 4117   3.812   5.229   0.623  1.2898 -0.7165 -0.7684
 1385TIP3   OH2 4118   0.193   1.294   1.659  0.2241 -0.2538  0.2990
 1385TIP3    H1 4119   0.271   1.240   1.643  0.6482 -0.5203  2.8207
 1385TIP3    H2 4120   0.123   1.230   1.676 -0.2821  0.0003 -0.7319
 1386TIP3   OH2 4121   1.866   2.878   4.304  0.2951  0.0351  0.2949
 1386TIP3    H1 4122   1.831   2.929   4.377  0.9889 -1.2285  1.5661
 1386TIP3    H2 4123   1.800   2.812   4.286 -0.8237  1.5864 -1.6759
 1387TIP3   OH2 4124   0.102   4.793   1.862  0.0068  0.6262 -0.2826
 1387TIP3    H1 4125   0.033   4.811   1.926  1.7050  0.7361  1.6456
 1387TIP3    H2 4126   0.071   4.716   1.814 -0.8265 -0.2562  1.5618
 1388TIP3   OH2 4127   5.784   6.802   1.941 -0.3085  0.2649 -0.8174
 1388TIP3    H1 4128   5.827   6.873   1.988 -3.8414  0.4258  2.7423
 1388TIP3    H2 4129   5.823   6.722   1.978  0.3180  0.3503 -1.2788
 1389TIP3   OH2 4130   0.920   4.173   0.157  0.1529 -0.6460  0.2393
 1389TIP3    H1 4131   0.834   4.139   0.133  0.4077 -1.3097  0.2473
 1389TIP3    H2 4132   0.974   4.159   0.079 -0.2589  1.7061 -0.5578
 1390TIP3   OH2 4133   6.708   4.665   1.844  0.2613  0.3821  0.1089
 1390TIP3    H1 4134   6.690   4.647   1.751  1.5577  1.6688 -0.4313
 1390TIP3    H2 4135   6.718   4.578   1.884  1.6370 -0.1960 -1.3807
 1391TIP3   OH2 4136   2.860   0.300   3.636 -0.0846 -0.3991 -0.0233
 1391TIP3    H1 4137   2.779   0.251   3.653 -1.3864  1.3830 -0.8134
 1391TIP3    H2 4138   2.864   0.365   3.707 -0.5555  0.9566 -1.2006
 1392TIP3   OH2 4139   1.104   1.751   2.467 -0.0748  0.4297 -0.4906
 1392TIP3    H1 4140   1.135   1.670   2.506 -0.4046  0.9844  1.0198
 1392TIP3    H2 4141   1.009   1.742   2.465 -0.1330  0.8758 -0.0440
 1393TIP3   OH2 4142   4.135   4.012   2.133 -0.0813 -0.0918  0.5195
 1393TIP3    H1 4143   4.144   4.080   2.067  1.1358 -0.2895  0.4460
 1393TIP3    H2 4144   4.224   3.977   2.143 -0.6873 -1.7524  0.4534
 1394TIP3   OH2 4145   5.600   4.647   5.324  0.1547  0.0092 -0.2912
 1394TIP3    H1 4146   5.647   4.566   5.346  0.2772  0.3353  0.6736
 1394TIP3    H2 4147   5.628   4.666   5.234  0.4500 -0.7915 -0.3815
 1395TIP3   OH2 4148   6.296   1.004   4.998 -0.3432  0.1967  0.3010
 1395TIP3    H1 4149   6.305   1.012   5.093  1.7313  0.2288  0.1356
 1395TIP3    H2 4150   6.259   0.916   4.986  0.6943 -0.3738  1.0979
 1396TIP3   OH2 4151   6.675   2.759   3.581 -0.4669  0.5143  0.1928
 1396TIP3    H1 4152   6.713   2.694   3.641  1.5641  0.8371 -0.6715
 1396TIP3    H2 4153   6.603   2.712   3.538  1.0122 -1.2807 -0.4983
 1397TIP3   OH2 4154   6.942   4.502   2.810 -0.0376 -0.2083 -0.2778
 1397TIP3    H1 4155   6.976   4.568   2.749  0.1238 -0.7796 -0.8165
 1397TIP3    H2 4156   6.979   4.527   2.895 -0.6725  0.8867 -0.3064
 1398TIP3   OH2 4157   5.614   6.357   1.728  0.2006 -0.1406  0.3558
 1398TIP3    H1 4158   5.684   6.372   1.665  1.8553 -1.0876  1.8553
 1398TIP3    H2 4159   5.600   6.442   1.769  0.8589 -0.0417  0.3918
 1399TIP3   OH2 4160   1.377   6.731   4.061  0.2670  0.1997 -0.6727
 1399TIP3    H1 4161   1.290   6.724   4.099  0.3570  0.7449 -0.3550
 1399TIP3    H2 4162   1.401   6.823   4.072  1.7936 -0.3551  1.3095
 1400TIP3   OH2 4163   6.574   3.154   0.679 -0.1597  0.1935 -0.4190
 1400TIP3    H1 4164   6.646   3.121   0.734 -2.5701 -1.1237  2.1847
 1400TIP3    H2 4165   6.588   3.249   0.676 -0.2135  0.4609  3.1532
 1401TIP3   OH2 4166   4.118   2.425   4.020  0.1559 -0.4256 -0.0014
 1401TIP3    H1 4167   4.030   2.404   3.990 -0.5088  0.6909  1.0880
 1401TIP3    H2 4168   4.105   2.475   4.100  1.8260 -1.9553  1.2982
 1402TIP3   OH2 4169   0.556   0.801   2.870  0.0204  0.4317  0.3513
 1402TIP3    H1 4170   0.645   0.829   2.892  0.7600 -1.2440 -0.2829
 1402TIP3    H2 4171   0.514   0.879   2.835  1.3098  1.2092  0.4492
 1403TIP3   OH2 4172   4.843   3.605   3.420  0.2305 -0.0729 -0.0523
 1403TIP3    H1 4173   4.799   3.601   3.504 -0.5890  2.5046 -0.2662
 1403TIP3    H2 4174   4.920   3.659   3.436 -0.4341  1.2449 -1.1023
 1404TIP3   OH2 4175   3.382   1.125   5.057  0.1698 -0.0544 -0.0196
 1404TIP3    H1 4176   3.357   1.108   5.148  0.9869  1.0142  0.4185
 1404TIP3    H2 4177   3.393   1.038   5.019  1.6383 -0.5570  1.4281
 1405TIP3   OH2 4178   6.373   6.644   0.352  0.3753 -0.3858  0.2329
 1405TIP3    H1 4179   6.376   6.558   0.392  1.3123 -0.7361 -0.5384
 1405TIP3    H2 4180   6.317   6.633   0.275  0.4691 -0.2971  0.1511
 1406TIP3   OH2 4181   5.610   1.520   4.836  0.2938  0.0141 -0.5536
 1406TIP3    H1 4182   5.597   1.514   4.742 -1.5551 -1.6300 -0.2531
 1406TIP3    H2 4183   5.646   1.435   4.861  0.7347  0.4177  0.2416
 1407TIP3   OH2 4184   1.354   5.371   1.733  0.1227 -0.3387  0.1535
 1407TIP3    H1 4185   1.261   5.378   1.754  0.7585  1.9511  2.8879
 1407TIP3    H2 4186   1.391   5.321   1.806  1.3739  1.3430  0.7490
 1408TIP3   OH2 4187   3.628   4.371   5.162  0.4469 -0.2159  0.1510
 1408TIP3    H1 4188   3.603   4.454   5.204  1.9342 -0.2740  1.2213
 1408TIP3    H2 4189   3.681   4.398   5.086 -0.1451 -0.1720 -0.2541
 1409TIP3   OH2 4190   5.549   3.677   4.867 -0.7135 -0.3241  0.0928
 1409TIP3    H1 4191   5.624   3.661   4.811 -1.0044 -1.5930  0.0251
 1409TIP3    H2 4192   5.571   3.634   4.950 -1.4532 -0.9662 -0.0207
 1410TIP3   OH2 4193   2.282   3.983   3.161 -0.2964  0.2336 -0.9125
 1410TIP3    H1 4194   2.194   3.949   3.180 -1.1350  2.3507 -0.7370
 1410TIP3    H2 4195   2.305   4.034   3.238  0.6728  0.5336 -1.3927
 1411TIP3   OH2 4196   3.794   2.408   5.738 -0.2090 -0.0234  0.0138
 1411TIP3    H1 4197   3.848   2.339   5.699  0.1566  0.8628 -1.0687
 1411TIP3    H2 4198   3.856   2.465   5.783 -0.5341 -0.5097  1.1149
 1412TIP3   OH2 4199   2.057   4.655   1.588  0.2957  0.1250  0.0783
 1412TIP3    H1 4200   1.984   4.614   1.635  0.2748 -1.0886 -0.9412
 1412TIP3    H2 4201   2.076   4.594   1.517  1.9486  0.7038 -0.0071
 1413TIP3   OH2 4202   1.953   2.905   0.490 -0.7592 -0.0794 -0.1506
 1413TIP3    H1 4203   2.005   2.841   0.539 -1.1407  0.6899  1.3150
 1413TIP3    H2 4204   1.872   2.860   0.468 -0.2946 -0.6574 -0.7305
 1414TIP3   OH2 4205   3.120   6.331   0.779  0.3658  0.4587 -0.3810
 1414TIP3    H1 4206   3.088   6.248   0.744 -0.0475  0.4710 -0.0427
 1414TIP3    H2 4207   3.171   6.307   0.857 -0.1416  0.5451 -0.0112
 1415TIP3   OH2 4208   6.725   5.342   3.988 -0.0526  0.5433 -0.2302
 1415TIP3    H1 4209   6.661   5.370   3.923  1.0509  2.6562 -0.5295
 1415TIP3    H2 4210   6.747   5.423   4.035  1.1542 -0.4337  0.9593
 1416TIP3   OH2 4211   4.668   1.937   0.964 -0.1262  0.1832  0.7727
 1416TIP3    H1 4212   4.653   1.872   1.033  1.9334  0.6178  1.7305
 1416TIP3    H2 4213   4.686   1.884   0.886  1.5457 -0.4710  1.5432
 1417TIP3   OH2 4214   4.129   2.888   5.575 -0.2384 -0.2601 -0.4233
 1417TIP3    H1 4215   4.114   2.811   5.521  0.4873 -1.0232  0.4142
 1417TIP3    H2 4216   4.049   2.899   5.626 -0.3087 -0.5341 -0.4770
 1418TIP3   OH2 4217   1.102   1.097   0.522  0.0899  0.2095  0.2982
 1418TIP3    H1 4218   1.039   1.027   0.502 -0.4328  0.4601  1.0413
 1418TIP3    H2 4219   1.125   1.134   0.437  1.5049 -1.8141 -0.2882
 1419TIP3   OH2 4220   0.804   3.489   5.802 -0.3309 -0.3066 -0.4025
 1419TIP3    H1 4221   0.874   3.478   5.738 -0.3606  0.9224 -0.6587
 1419TIP3    H2 4222   0.732   3.436   5.768  0.2596 -1.1182 -0.4297
 1420TIP3   OH2 4223   4.569   0.774   0.508  0.1408  0.0171 -0.0982
 1420TIP3    H1 4224   4.530   0.698   0.466 -0.1123 -0.1211  0.3858
 1420TIP3    H2 4225   4.591   0.833   0.435  0.5555 -0.6137 -0.4949
 1421TIP3   OH2 4226   2.322   6.481   3.734 -0.0429  0.2520  0.2357
 1421TIP3    H1 4227   2.365   6.540   3.795  0.3300  1.9182 -1.5503
 1421TIP3    H2 4228   2.261   6.536   3.686 -0.5246 -1.0615 -0.7260
 1422TIP3   OH2 4229   0.362   2.012   3.458 -0.1786  0.3983 -0.1002
 1422TIP3    H1 4230   0.304   2.083   3.430  0.7579  1.4666  0.6256
 1422TIP3    H2 4231   0.421   2.052   3.521 -0.3954 -1.3034  1.2564
 1423TIP3   OH2 4232   5.699   0.720   0.854  0.1492 -0.1715  0.1557
 1423TIP3    H1 4233   5.609   0.725   0.823 -0.2322  0.7185  1.3375
 1423TIP3    H2 4234   5.720   0.626   0.853 -0.3623 -0.2989 -1.2339
 1424TIP3   OH2 4235   6.270   1.195   3.865  0.4307  0.2228  0.1229
 1424TIP3    H1 4236   6.211   1.119   3.865  2.1934 -1.2334  0.6118
 1424TIP3    H2 4237   6.244   1.245   3.788 -0.9509 -0.7425 -0.0905
 1425TIP3   OH2 4238   4.655   4.038   0.913  0.9544  0.4396  0.0603
 1425TIP3    H1 4239   4.689   4.092   0.842  1.6713  2.0545  1.5352
 1425TIP3    H2 4240   4.720   4.046   0.982  0.0594 -0.6802  1.0857
 1426TIP3   OH2 4241   0.880   3.810   0.314  0.2538 -0.2487 -0.0798
 1426TIP3    H1 4242   0.872   3.798   0.219 -0.9488 -1.6114  0.1516
 1426TIP3    H2 4243   0.975   3.810   0.330  0.4987 -2.6580 -1.0271
 1427TIP3   OH2 4244   3.365   2.317   3.471 -0.1625 -0.3854 -0.1281
 1427TIP3    H1 4245   3.311   2.373   3.527 -0.6369  0.1921 -1.1424
 1427TIP3    H2 4246   3.348   2.228   3.503 -1.2587 -0.1593 -0.0452
 1428TIP3   OH2 4247   5.875   3.246   2.395  0.6379 -0.0687 -0.2924
 1428TIP3    H1 4248   5.837   3.162   2.419  1.5878 -0.7404 -1.0386
 1428TIP3    H2 4249   5.948   3.258   2.456  1.0758 -0.2481 -0.7670
 1429TIP3   OH2 4250   0.795   0.048   3.066 -0.0373  0.6107 -0.0837
 1429TIP3    H1 4251   0.760   0.024   3.152 -0.8426  1.4602 -0.1603
 1429TIP3    H2 4252   0.888   0.027   3.072 -0.1099  0.5303  0.9548
 1430TIP3   OH2 4253   3.623   0.303   1.545 -0.4163  0.4625  0.2693
 1430TIP3    H1 4254   3.705   0.255   1.554 -0.2408  0.1339 -2.3854
 1430TIP3    H2 4255   3.650   0.394   1.533 -0.3291  0.2093 -1.6855
 1431TIP3   OH2 4256   5.029   0.239   5.451  0.3881  0.3595  0.4300
 1431TIP3    H1 4257   5.096   0.180   5.486  0.4575 -0.2142 -0.6215
 1431TIP3    H2 4258   5.080   0.311   5.412  0.3488  0.4976  0.6334
 1432TIP3   OH2 4259   1.737   2.653   3.464 -0.0634  0.1287  0.5260
 1432TIP3    H1 4260   1.787   2.732   3.483  0.0232  0.1154  0.3486
 1432TIP3    H2 4261   1.754   2.634   3.372 -0.0106 -0.1487  0.5915
 1433TIP3   OH2 4262   6.243   6.656   2.076  0.1570  0.1480  0.0784
 1433TIP3    H1 4263   6.203   6.684   2.158  0.3407  1.1677 -0.1598
 1433TIP3    H2 4264   6.322   6.609   2.101 -0.2147 -0.2575  0.5013
 1434TIP3   OH2 4265   4.000   6.386   3.424  0.5494  0.1827 -0.0349
 1434TIP3    H1 4266   4.047   6.377   3.341 -0.6890 -0.2980 -0.7047
 1434TIP3    H2 4267   3.994   6.297   3.458  0.7745  0.3405  0.4296
 1435TIP3   OH2 4268   0.928   6.524   4.791 -0.1424  0.0655 -0.6334
 1435TIP3    H1 4269   0.848   6.567   4.820 -0.0102  0.8449 -1.3570
 1435TIP3    H2 4270   0.960   6.476   4.867 -1.7695 -1.0008 -0.5905
 1436TIP3   OH2 4271   1.779   1.172   2.436  0.0059  0.0611 -0.3841
 1436TIP3    H1 4272   1.750   1.239   2.374  0.3399 -1.9998 -2.9428
 1436TIP3    H2 4273   1.870   1.154   2.411  0.6965  0.2633  1.7890
 1437TIP3   OH2 4274   3.466   0.887   4.963  0.0540  0.1370  0.0108
 1437TIP3    H1 4275   3.544   0.919   5.007  1.0415  0.2198 -1.7312
 1437TIP3    H2 4276   3.465   0.793   4.980  1.3361 -0.1001 -1.1162
 1438TIP3   OH2 4277   3.948   2.093   1.231 -0.0971 -0.2034 -0.4450
 1438TIP3    H1 4278   3.853   2.097   1.241 -0.0462  0.8856 -0.2818
 1438TIP3    H2 4279   3.981   2.154   1.297  0.6097  0.9882 -1.8354
 1439TIP3   OH2 4280   2.382   4.874   4.173  0.0737  0.5871 -0.0235
 1439TIP3    H1 4281   2.355   4.885   4.082 -1.3904 -2.1735 -0.0325
 1439TIP3    H2 4282   2.476   4.853   4.168  0.2271  1.4181 -0.7867
 1440TIP3   OH2 4283   4.418   1.073   5.377 -0.1113  0.2502  0.2275
 1440TIP3    H1 4284   4.491   1.135   5.377 -0.5095  0.7394  1.0594
 1440TIP3    H2 4285   4.454   0.993   5.415  0.1864  0.2443 -0.0639
 1441TIP3   OH2 4286   5.598   4.454   0.333  0.6780 -0.2935 -0.5402
 1441TIP3    H1 4287   5.623   4.544   0.311 -0.9303 -0.0569 -1.5063
 1441TIP3    H2 4288   5.678   4.416   0.370  2.3199  0.6111 -2.8957
 1442TIP3   OH2 4289   6.798   1.392   3.000  0.0625 -0.4098 -0.1379
 1442TIP3    H1 4290   6.852   1.317   3.024 -0.1479 -0.8456 -0.9601
 1442TIP3    H2 4291   6.710   1.369   3.032 -0.2474 -1.0524 -1.3658
 1443TIP3   OH2 4292   0.104   5.927   3.077 -0.1375  0.0932 -0.6926
 1443TIP3    H1 4293   0.152   5.936   2.995  0.5368  0.6580 -0.2520
 1443TIP3    H2 4294   0.169   5.946   3.145 -0.7874  0.0571 -0.0445
 1444TIP3   OH2 4295   4.458   5.698   1.992  0.0411 -0.5425  0.0641
 1444TIP3    H1 4296   4.536   5.718   1.940 -1.2946  1.0741 -1.4449
 1444TIP3    H2 4297   4.384   5.728   1.938 -1.6255 -1.7126  1.5675
 1445TIP3   OH2 4298   3.186   3.141   5.437  0.2172 -0.3408 -0.3958
 1445TIP3    H1 4299   3.121   3.070   5.439 -0.3411  0.1224 -1.3465
 1445TIP3    H2 4300   3.156   3.203   5.503 -2.1498  1.3846 -2.8799
 1446TIP3   OH2 4301   0.820   5.126   0.645  0.0789  0.1079 -0.0434
 1446TIP3    H1 4302   0.806   5.035   0.619 -0.0202  0.4041 -1.0703
 1446TIP3    H2 4303   0.862   5.166   0.569  1.2668  0.6277  0.8532
 1447TIP3   OH2 4304   0.747   3.592   0.431  0.1995  0.6081  0.1241
 1447TIP3    H1 4305   0.778   3.668   0.382  0.0525  1.2758  1.0408
 1447TIP3    H2 4306   0.804   3.520   0.402  0.6307  1.1578 -0.4184
 1448TIP3   OH2 4307   0.716   6.401   5.873 -0.0064  0.3105  0.4954
 1448TIP3    H1 4308   0.650   6.388   5.942 -0.4651 -1.0029 -0.1654
 1448TIP3    H2 4309   0.690   6.341   5.803 -0.1589  2.3461 -1.3024
 1449TIP3   OH2 4310   5.817   2.386   3.468  0.2777 -0.4280  0.3956
 1449TIP3    H1 4311   5.732   2.390   3.512 -0.4423  2.9418 -0.9976
 1449TIP3    H2 4312   5.878   2.426   3.530 -0.4828  3.0465 -0.8714
 1450TIP3   OH2 4313   1.309   6.663   0.515 -0.4714 -0.2077 -0.0205
 1450TIP3    H1 4314   1.389   6.619   0.486 -0.1371  0.5147 -0.2205
 1450TIP3    H2 4315   1.295   6.630   0.604  0.7214  0.5277  0.4678
 1451TIP3   OH2 4316   2.983   1.730   0.388  0.0334  0.3508 -0.5863
 1451TIP3    H1 4317   2.894   1.759   0.412  0.2848  0.9123 -0.3079
 1451TIP3    H2 4318   3.021   1.806   0.343  0.4749  0.2207 -0.4327
 1452TIP3   OH2 4319   6.575   6.538   0.025  0.1416  0.4731  0.4867
 1452TIP3    H1 4320   6.612   6.476   0.087 -0.5664 -0.2043  0.2438
 1452TIP3    H2 4321   6.589   6.498  -0.061  0.1273  0.8921  0.2814
 1453TIP3   OH2 4322   3.672   2.149   1.291  0.7111  0.0920  0.0291
 1453TIP3    H1 4323   3.626   2.194   1.362  1.3909  1.1530 -0.1791
 1453TIP3    H2 4324   3.607   2.144   1.221  0.4871  0.3714  0.2115
 1454TIP3   OH2 4325   1.065   1.528   4.271  0.6798  0.3582 -0.1272
 1454TIP3    H1 4326   1.160   1.520   4.277  0.6750  1.0541  1.9631
 1454TIP3    H2 4327   1.032   1.456   4.325  0.1762  2.0686  2.0069
 1455TIP3   OH2 4328   4.355   3.860   2.028  0.0702 -0.4476  0.1851
 1455TIP3    H1 4329   4.413   3.802   2.076  1.7258  0.1799 -0.9706
 1455TIP3    H2 4330   4.391   3.862   1.939 -0.4812  1.5928 -0.0422
 1456TIP3   OH2 4331   1.783   4.900   3.606  0.3711  0.3285 -0.3727
 1456TIP3    H1 4332   1.860   4.846   3.621  0.5316  0.8958  1.0062
 1456TIP3    H2 4333   1.815   4.990   3.610 -0.4936  0.6125  1.4219
 1457TIP3   OH2 4334   2.189   5.763   4.831 -0.1233 -0.2249 -0.2453
 1457TIP3    H1 4335   2.237   5.737   4.753 -0.0734 -1.6237  0.2277
 1457TIP3    H2 4336   2.231   5.716   4.902  1.2429  2.6642  1.0268
 1458TIP3   OH2 4337   0.515   3.261   3.921 -0.2024  0.3316 -0.2286
 1458TIP3    H1 4338   0.496   3.267   4.015 -0.4304 -1.2785 -0.1445
 1458TIP3    H2 4339   0.500   3.169   3.899  2.4535  0.0568 -1.2891
 1459TIP3   OH2 4340   2.691   0.387   0.449 -0.0503 -0.4775  0.4489
 1459TIP3    H1 4341   2.646   0.323   0.504 -1.6712  0.7479  0.6350
 1459TIP3    H2 4342   2.685   0.350   0.361 -1.3242 -0.4307  0.4923
 1460TIP3   OH2 4343   1.176   0.433   4.058  0.1793  0.2101  0.0507
 1460TIP3    H1 4344   1.176   0.502   4.123 -1.2712 -1.6225  2.1513
 1460TIP3    H2 4345   1.096   0.446   4.008 -0.6731 -0.5104  1.1740
 1461TIP3   OH2 4346   4.874   2.132   5.014  0.3736 -0.3450 -0.1618
 1461TIP3    H1 4347   4.944   2.188   5.050 -0.3946  0.3635  0.2669
 1461TIP3    H2 4348   4.920   2.072   4.956  1.6155 -1.2026  1.5874
 1462TIP3   OH2 4349   6.356   4.899   0.049  0.2485  0.3752  0.0106
 1462TIP3    H1 4350   6.276   4.906  -0.003 -1.1158  0.9603  2.0796
 1462TIP3    H2 4351   6.344   4.819   0.101  0.9500  0.5390  0.4316
 1463TIP3   OH2 4352   3.189   4.450   0.664  0.8568  0.2150  0.0557
 1463TIP3    H1 4353   3.138   4.381   0.622  1.0022 -0.1403  0.4546
 1463TIP3    H2 4354   3.125   4.498   0.717  0.5264  1.1455 -1.1547
 1464TIP3   OH2 4355   3.382   3.108   5.044 -0.1925  0.7125 -0.1094
 1464TIP3    H1 4356   3.474   3.116   5.016 -0.1626  0.8548  0.0306
 1464TIP3    H2 4357   3.374   3.168   5.117  0.0636 -0.5819  1.0298
 1465TIP3   OH2 4358   1.505   3.293   2.112  0.5771 -0.1553  0.3895
 1465TIP3    H1 4359   1.473   3.329   2.195 -1.3386  1.7820 -1.0620
 1465TIP3    H2 4360   1.449   3.217   2.095 -1.2471  1.3059 -0.5573
 1466TIP3   OH2 4361   7.212   3.519   5.699  0.0501 -0.5328 -0.1825
 1466TIP3    H1 4362   7.163   3.515   5.617  0.4459 -1.3256 -0.3833
 1466TIP3    H2 4363   7.251   3.433   5.708  0.9208 -0.0978  0.2804
 1467TIP3   OH2 4364   6.018   3.765   3.914  0.2988 -0.4887  0.4579
 1467TIP3    H1 4365   6.091   3.816   3.949 -0.4391 -0.3995  1.9411
 1467TIP3    H2 4366   5.981   3.819   3.845  0.0755  0.6227  1.4172
 1468TIP3   OH2 4367   2.625   3.177   0.969  0.4101  0.4232 -0.1595
 1468TIP3    H1 4368   2.535   3.206   0.985  0.1320  0.7123 -1.9812
 1468TIP3    H2 4369   2.627   3.157   0.875  1.3959 -2.7034  0.4266
 1469TIP3   OH2 4370   6.424   4.690   5.719  0.0299  0.3358 -0.3040
 1469TIP3    H1 4371   6.461   4.731   5.640  1.2172 -0.7887 -0.3671
 1469TIP3    H2 4372   6.499   4.677   5.776 -0.6782  0.2546  0.6231
 1470TIP3   OH2 4373   7.116   1.354   1.371 -0.0508 -0.5420  0.4162
 1470TIP3    H1 4374   7.112   1.342   1.276  1.5916  0.5710  0.1682
 1470TIP3    H2 4375   7.101   1.266   1.407 -0.6794 -0.9816 -0.8496
 1471TIP3   OH2 4376   3.138   2.658   3.253  0.4252 -0.3998  0.2710
 1471TIP3    H1 4377   3.208   2.641   3.190  0.9665  1.6875  0.2349
 1471TIP3    H2 4378   3.087   2.728   3.214  0.3445  0.4511  1.8161
 1472TIP3   OH2 4379   2.059   0.674   1.198  0.1862  0.4757 -0.3321
 1472TIP3    H1 4380   1.968   0.662   1.173 -0.0996  1.6751  0.0790
 1472TIP3    H2 4381   2.079   0.599   1.255 -0.0728 -0.6003 -1.6075
 1473TIP3   OH2 4382   6.342   6.209   0.663 -0.6039 -0.2843 -0.0951
 1473TIP3    H1 4383   6.262   6.168   0.631  0.4793 -1.0558 -2.0385
 1473TIP3    H2 4384   6.409   6.141   0.654  0.6455  0.9368 -0.4401
 1474TIP3   OH2 4385   5.978   5.183   4.631  0.3820  0.0597  0.2507
 1474TIP3    H1 4386   5.998   5.274   4.656 -0.7712  0.5651 -0.5999
 1474TIP3    H2 4387   5.898   5.162   4.678 -0.7451  0.3676 -1.4682
 1475TIP3   OH2 4388   6.360   6.712   4.021 -0.5968  0.3290 -0.1120
 1475TIP3    H1 4389   6.331   6.730   3.932 -1.1787  0.0441  0.0111
 1475TIP3    H2 4390   6.437   6.768   4.034  1.0074 -1.3934 -1.6310
 1476TIP3   OH2 4391   2.696   0.664   0.447  0.4667  0.5539  0.8277
 1476TIP3    H1 4392   2.685   0.570   0.459  0.0637  0.3531 -0.8213
 1476TIP3    H2 4393   2.779   0.673   0.400  0.0011  0.9036  0.0363
 1477TIP3   OH2 4394   1.267   0.428   4.474 -0.2604 -0.0815  0.0024
 1477TIP3    H1 4395   1.242   0.460   4.561 -0.3173 -0.7482  0.2386
 1477TIP3    H2 4396   1.362   0.428   4.475 -0.2544 -0.9326  0.3952
 1478TIP3   OH2 4397   0.601   1.655   3.830  0.3283 -0.0654  0.2588
 1478TIP3    H1 4398   0.639   1.618   3.750 -0.5649  0.3080 -0.3593
 1478TIP3    H2 4399   0.507   1.638   3.821 -0.1815  2.5127 -0.1808
 1479TIP3   OH2 4400   2.859   5.325   2.501  0.5088 -0.3235 -0.4978
 1479TIP3    H1 4401   2.804   5.330   2.578  1.2818  0.0223  0.0395
 1479TIP3    H2 4402   2.851   5.234   2.472 -0.1366 -0.3395 -0.2827
 1480TIP3   OH2 4403   1.780   5.548   2.554  0.0411 -0.0988  0.8406
 1480TIP3    H1 4404   1.708   5.485   2.552 -0.1223  0.0654  1.4462
 1480TIP3    H2 4405   1.838   5.520   2.483 -0.8092  0.0020  0.0764
 1481TIP3   OH2 4406   0.385   0.874   0.891  0.0656  0.2610 -0.6691
 1481TIP3    H1 4407   0.419   0.793   0.853  1.4735  0.5601 -0.1005
 1481TIP3    H2 4408   0.417   0.944   0.834 -2.9197  0.3737 -2.4196
 1482TIP3   OH2 4409   4.168   5.387   1.104  0.0558  0.5377  0.4259
 1482TIP3    H1 4410   4.236   5.451   1.086 -0.2517  0.3412 -1.6813
 1482TIP3    H2 4411   4.214   5.311   1.141  0.7269  1.0388  0.6327
 1483TIP3   OH2 4412   1.886   0.638   5.190  0.4123 -0.0205 -0.0211
 1483TIP3    H1 4413   1.873   0.714   5.132 -3.7468 -0.6248 -0.1713
 1483TIP3    H2 4414   1.856   0.668   5.276 -2.1163 -1.5879 -0.2576
 1484TIP3   OH2 4415   4.188   6.787   1.245 -0.4226  0.0580 -0.6985
 1484TIP3    H1 4416   4.210   6.804   1.336 -0.3302 -1.2989 -0.4434
 1484TIP3    H2 4417   4.093   6.798   1.239 -0.2507  1.6994 -0.8204
 1485TIP3   OH2 4418   0.466   2.150   3.076 -0.2458 -0.0503 -0.0871
 1485TIP3    H1 4419   0.447   2.093   3.001 -0.8653 -0.3717  0.3019
 1485TIP3    H2 4420   0.479   2.089   3.149 -2.5867  0.2887  0.7211
 1486TIP3   OH2 4421   5.588   4.061   5.677  0.0805  0.8081  0.4854
 1486TIP3    H1 4422   5.546   3.976   5.691  0.8436  0.3622  0.1364
 1486TIP3    H2 4423   5.519   4.115   5.639 -0.5431  0.4866  1.1256
 1487TIP3   OH2 4424   1.836   5.387   0.373  0.4102  0.9852  0.1428
 1487TIP3    H1 4425   1.763   5.434   0.414 -0.0492  0.7452 -0.3866
 1487TIP3    H2 4426   1.860   5.319   0.437  0.0095  0.9087  0.2144
 1488TIP3   OH2 4427   5.468   2.354   5.661 -0.3006  0.1512  0.1498
 1488TIP3    H1 4428   5.543   2.323   5.610 -0.6577  0.9240 -0.8767
 1488TIP3    H2 4429   5.488   2.329   5.751  1.2465  0.4594 -0.0926
 1489TIP3   OH2 4430   6.024   6.715   4.127  0.0424  0.1990 -0.2006
 1489TIP3    H1 4431   6.028   6.803   4.092  1.2621  0.1648 -0.1845
 1489TIP3    H2 4432   6.068   6.661   4.062  0.4084 -0.1958  0.3594
 1490TIP3   OH2 4433   7.109   0.176   5.311  0.0620 -0.1425  0.2396
 1490TIP3    H1 4434   7.144   0.264   5.305 -0.1908 -0.1493 -2.7991
 1490TIP3    H2 4435   7.023   0.180   5.269 -0.2447 -1.7308  0.6055
 1491TIP3   OH2 4436   2.651   4.027   1.098  0.4311 -0.1323  0.5314
 1491TIP3    H1 4437   2.703   3.959   1.140 -1.0813 -0.8227  1.3974
 1491TIP3    H2 4438   2.589   3.979   1.042 -0.3445  0.5409  0.7855
 1492TIP3   OH2 4439   7.119   6.371   0.800  0.6144  0.1713  0.6045
 1492TIP3    H1 4440   7.138   6.452   0.847 -1.9216  0.7074  0.8336
 1492TIP3    H2 4441   7.118   6.396   0.707  1.6301 -0.0224  0.5294
 1493TIP3   OH2 4442   4.692   5.723   0.299 -0.1796 -0.1250  0.0793
 1493TIP3    H1 4443   4.647   5.732   0.383 -1.5751  0.9822 -0.7506
 1493TIP3    H2 4444   4.698   5.628   0.285  0.3112 -0.3302  1.5204
 1494TIP3   OH2 4445   6.575   4.352   1.224  0.0813 -0.2541 -0.0067
 1494TIP3    H1 4446   6.506   4.289   1.199 -1.4904  2.1424 -2.3520
 1494TIP3    H2 4447   6.623   4.367   1.142 -0.0682  2.0472  0.2692
 1495TIP3   OH2 4448   1.284   2.808   2.637  0.0380  0.1444  0.4284
 1495TIP3    H1 4449   1.285   2.852   2.552 -1.2999 -0.5348  0.0364
 1495TIP3    H2 4450   1.357   2.747   2.633  0.4097  0.6023  0.0389
 1496TIP3   OH2 4451   1.412   3.140   4.242  0.1309  0.7929  0.3930
 1496TIP3    H1 4452   1.319   3.123   4.255  0.3045  0.5047  1.3545
 1496TIP3    H2 4453   1.446   3.061   4.200 -0.1233  1.0479 -0.3005
 1497TIP3   OH2 4454   3.744   2.804   4.854 -0.5135  0.1381 -0.3133
 1497TIP3    H1 4455   3.740   2.754   4.772 -1.4509 -1.6723  0.7643
 1497TIP3    H2 4456   3.829   2.782   4.892 -1.0936 -1.0912  0.3654
 1498TIP3   OH2 4457   3.199   5.965   1.750 -0.1117  0.2901  0.2647
 1498TIP3    H1 4458   3.267   6.001   1.692  0.2204 -1.4283 -0.4636
 1498TIP3    H2 4459   3.227   5.992   1.837  1.4950 -0.2997 -0.0194
 1499TIP3   OH2 4460   1.918   0.865   1.529  0.0809 -0.3603 -0.1992
 1499TIP3    H1 4461   1.944   0.815   1.607 -0.2567 -1.3937 -0.7281
 1499TIP3    H2 4462   1.997   0.910   1.502  0.9192 -2.0673 -0.7575
 1500TIP3   OH2 4463   5.986   2.689   4.666  0.2870  0.1632  0.0060
 1500TIP3    H1 4464   5.985   2.603   4.707 -0.4427 -0.6714 -1.6895
 1500TIP3    H2 4465   5.911   2.735   4.704  0.4819 -0.0420  0.6600
 1501TIP3   OH2 4466   6.194   3.149   3.899  0.4075  0.1459  0.0739
 1501TIP3    H1 4467   6.237   3.137   3.814 -0.1422  1.7892 -0.4702
 1501TIP3    H2 4468   6.103   3.168   3.878 -0.3280 -1.8272  1.1703
 1502TIP3   OH2 4469   1.425   5.967   2.422  0.4035 -0.5400  0.2436
 1502TIP3    H1 4470   1.397   6.054   2.450 -0.7887 -0.5075 -0.9673
 1502TIP3    H2 4471   1.474   5.932   2.496  0.8035  1.1134  0.7918
 1503TIP3   OH2 4472   6.021   2.308   1.707 -1.3115  0.5874 -0.1182
 1503TIP3    H1 4473   6.057   2.261   1.783  1.1627  1.8729 -0.4076
 1503TIP3    H2 4474   5.927   2.291   1.712 -0.8483 -2.2991  1.1941
 1504TIP3   OH2 4475   6.543   1.659   4.592  0.6050 -0.2956  0.1764
 1504TIP3    H1 4476   6.610   1.606   4.548  0.2298 -0.3227 -0.3591
 1504TIP3    H2 4477   6.590   1.737   4.621  1.2961 -1.1527  1.4666
 1505TIP3   OH2 4478   2.206   0.933   0.873 -0.2302 -0.2279  0.0281
 1505TIP3    H1 4479   2.207   0.847   0.915 -2.6694 -0.5447 -0.3547
 1505TIP3    H2 4480   2.191   0.995   0.944  0.3111 -0.2456  0.1600
 1506TIP3   OH2 4481   5.081   6.178   2.824 -0.2476  0.4169  0.0036
 1506TIP3    H1 4482   5.061   6.215   2.737  0.4313  0.8548  0.0242
 1506TIP3    H2 4483   5.095   6.255   2.879 -1.6145  0.1553  0.7458
 1507TIP3   OH2 4484   7.056   5.117   5.180  0.1309 -0.0954 -0.1866
 1507TIP3    H1 4485   7.138   5.109   5.132  0.0658  0.7679 -0.4487
 1507TIP3    H2 4486   7.072   5.183   5.246 -0.1153 -0.5001  0.2897
 1508TIP3   OH2 4487   5.564   5.496   3.297  0.4749 -0.0561  0.1014
 1508TIP3    H1 4488   5.605   5.427   3.349  1.6489 -0.3385 -1.1181
 1508TIP3    H2 4489   5.531   5.559   3.361 -1.8568 -2.3450  1.3191
 1509TIP3   OH2 4490   5.596   0.128   0.192 -0.0809 -0.0243 -0.5790
 1509TIP3    H1 4491   5.680   0.090   0.217  0.2452  0.8105 -0.3912
 1509TIP3    H2 4492   5.602   0.138   0.097 -0.1318 -0.3433 -0.6177
 1510TIP3   OH2 4493   1.461   2.699   5.700 -0.3438 -0.0392  0.1584
 1510TIP3    H1 4494   1.444   2.616   5.744  1.2825  0.3310  1.5739
 1510TIP3    H2 4495   1.538   2.682   5.645 -0.4522  0.3423 -0.1186
 1511TIP3   OH2 4496   0.354   6.031   2.187  0.5610 -0.4598  0.6573
 1511TIP3    H1 4497   0.272   6.079   2.200  0.7164 -0.2026  0.6897
 1511TIP3    H2 4498   0.326   5.941   2.170  0.2979 -0.6109  1.7720
 1512TIP3   OH2 4499   5.997   2.295   5.083  0.7520  0.3605 -0.2451
 1512TIP3    H1 4500   5.905   2.283   5.108  0.6312 -0.4242 -1.0399
 1512TIP3    H2 4501   6.040   2.321   5.165  0.2528 -1.5727  0.6903
 1513TIP3   OH2 4502   6.781   4.193   4.611 -0.2500  0.1058  0.5237
 1513TIP3    H1 4503   6.866   4.234   4.595 -0.1667 -0.7974 -1.5600
 1513TIP3    H2 4504   6.801   4.101   4.627 -0.7580  0.1103  1.2532
 1514TIP3   OH2 4505   0.480   5.715   1.996 -0.0803 -0.0559 -0.2742
 1514TIP3    H1 4506   0.420   5.705   2.070  0.0806 -0.4514 -0.1907
 1514TIP3    H2 4507   0.515   5.803   2.005  1.2876 -0.6924  1.1709
 1515TIP3   OH2 4508   4.758   5.435   2.831 -0.2501  0.0150  0.3631
 1515TIP3    H1 4509   4.752   5.524   2.866  0.6732  0.1869  0.1115
 1515TIP3    H2 4510   4.700   5.384   2.887 -0.2068  0.6358  0.9950
 1516TIP3   OH2 4511   4.729   3.093   0.072 -0.0453 -0.5076 -0.3176
 1516TIP3    H1 4512   4.740   2.998   0.066  3.4088 -0.3055  0.3870
 1516TIP3    H2 4513   4.733   3.123  -0.019 -1.7877 -1.0406 -0.5935
 1517TIP3   OH2 4514   2.624   3.104   4.632  0.5602 -0.0168  0.4371
 1517TIP3    H1 4515   2.688   3.165   4.595  0.8561 -0.2102  0.6216
 1517TIP3    H2 4516   2.582   3.063   4.557  0.5630  0.2051  0.3147
 1518TIP3   OH2 4517   7.073   2.927   1.920  0.2139  0.2895  0.4950
 1518TIP3    H1 4518   6.993   2.938   1.868  0.6693  1.6716  0.0491
 1518TIP3    H2 4519   7.136   2.887   1.860 -0.3582 -1.5976  1.0865
 1519TIP3   OH2 4520   2.499   2.480   2.107  0.0422 -0.1933  0.2034
 1519TIP3    H1 4521   2.411   2.440   2.112  0.3695 -0.9843 -0.1300
 1519TIP3    H2 4522   2.497   2.532   2.027  0.7948 -2.5972 -1.4803
 1520TIP3   OH2 4523   6.994   2.346   4.711 -0.6764 -0.3380  0.6112
 1520TIP3    H1 4524   6.960   2.300   4.635 -2.1111 -0.6405  1.4066
 1520TIP3    H2 4525   6.940   2.315   4.784 -0.9500  1.7530  1.3591
 1521TIP3   OH2 4526   4.537   0.957   4.629  0.7227  0.7115 -0.4080
 1521TIP3    H1 4527   4.531   0.928   4.720 -0.3652  0.8531 -0.4237
 1521TIP3    H2 4528   4.524   0.877   4.578  2.4521  0.4222 -0.4703
 1522TIP3   OH2 4529   4.316   3.304   3.460 -0.4858  0.8075 -0.4574
 1522TIP3    H1 4530   4.347   3.392   3.480 -0.0992  0.7923 -0.9775
 1522TIP3    H2 4531   4.351   3.284   3.373 -0.0367 -0.0974 -0.0907
 1523TIP3   OH2 4532   6.105   0.419   2.036 -0.5236  0.6846  1.0345
 1523TIP3    H1 4533   6.087   0.425   1.942  1.2166  1.9027  0.7383
 1523TIP3    H2 4534   6.096   0.509   2.068 -1.2351  0.2603  2.0891
 1524TIP3   OH2 4535   5.232   6.137   5.120 -0.4032  0.0158 -0.0221
 1524TIP3    H1 4536   5.161   6.198   5.098  0.4262  1.1384  0.3156
 1524TIP3    H2 4537   5.298   6.153   5.053  0.1626  0.0798  0.5469
 1525TIP3   OH2 4538   2.461   6.405   1.800 -0.2972  0.1317 -0.0436
 1525TIP3    H1 4539   2.556   6.405   1.812 -0.1496 -2.6461 -0.3248
 1525TIP3    H2 4540   2.426   6.373   1.883 -0.9905  0.9972  0.0088
 1526TIP3   OH2 4541   2.767   2.789   3.889  0.1405  0.0908  0.6211
 1526TIP3    H1 4542   2.845   2.792   3.943  0.6504 -0.9428 -0.0170
 1526TIP3    H2 4543   2.715   2.717   3.926 -0.1038  0.2173  0.5266
 1527TIP3   OH2 4544   1.040   3.050   3.625 -0.1031  0.0565 -0.2792
 1527TIP3    H1 4545   1.116   3.085   3.579  0.3414 -0.5628 -0.0314
 1527TIP3    H2 4546   1.017   3.118   3.688 -0.5884  0.8202 -1.2541
 1528TIP3   OH2 4547   4.878   2.505   3.240 -0.3687  0.2103 -0.0871
 1528TIP3    H1 4548   4.931   2.582   3.261  0.8024  0.3196 -2.9329
 1528TIP3    H2 4549   4.817   2.497   3.313  1.0717  2.3761  1.4816
 1529TIP3   OH2 4550   5.010   4.530   4.032  0.4992 -0.3945  0.2080
 1529TIP3    H1 4551   4.984   4.553   3.943 -1.2301 -2.1465  0.2070
 1529TIP3    H2 4552   5.047   4.442   4.024 -0.5698 -0.9707  1.3491
 1530TIP3   OH2 4553   6.943   6.046   5.341  0.3668 -0.0961  0.1219
 1530TIP3    H1 4554   6.941   6.130   5.295  0.4834 -0.5394 -0.7205
 1530TIP3    H2 4555   6.868   5.998   5.307  1.4999 -1.1380 -1.0209
 1531TIP3   OH2 4556   1.076   5.030   2.403 -0.0735  0.1913 -0.2609
 1531TIP3    H1 4557   0.982   5.018   2.413  0.2971 -2.5815  0.7778
 1531TIP3    H2 4558   1.108   5.047   2.491  0.5575 -0.3570 -0.3791
 1532TIP3   OH2 4559   2.519   1.046   5.431 -0.0224 -0.3175 -0.6931
 1532TIP3    H1 4560   2.460   0.971   5.423  0.3307 -0.5188 -1.4093
 1532TIP3    H2 4561   2.470   1.108   5.486 -1.3033 -0.0916 -2.0321
 1533TIP3   OH2 4562   2.955   2.900   5.039  0.1356 -0.2967  1.1502
 1533TIP3    H1 4563   2.875   2.872   4.996  0.7230  0.1422 -0.2618
 1533TIP3    H2 4564   2.983   2.822   5.088  0.0572 -1.2009 -0.1859
 1534TIP3   OH2 4565   2.791   4.072   3.421 -0.2256  0.0890  0.0799
 1534TIP3    H1 4566   2.737   3.993   3.420  0.1550 -0.1891  0.8142
 1534TIP3    H2 4567   2.749   4.130   3.358 -0.0342 -1.0004 -1.0807
 1535TIP3   OH2 4568   6.037   0.087   1.158  0.1200 -0.1758  0.2179
 1535TIP3    H1 4569   6.022   0.134   1.240 -0.0108 -0.0220  0.1061
 1535TIP3    H2 4570   5.959   0.035   1.145 -0.0062  0.0641  0.0134
 1536TIP3   OH2 4571   3.267   0.840   2.977 -0.3053 -0.5468  0.6044
 1536TIP3    H1 4572   3.252   0.759   3.027  0.4923 -0.3879  1.1202
 1536TIP3    H2 4573   3.183   0.858   2.935 -0.5605 -1.5120  0.6763
 1537TIP3   OH2 4574   4.020   4.504   5.288  0.3431  0.3636 -0.1403
 1537TIP3    H1 4575   3.979   4.424   5.320  1.0765 -0.5999 -1.5274
 1537TIP3    H2 4576   3.979   4.574   5.339 -0.9007 -0.8123  0.5276
 1538TIP3   OH2 4577   3.650   0.774   5.471  0.0229 -0.3176 -0.2398
 1538TIP3    H1 4578   3.683   0.699   5.519 -0.2387 -0.3887 -0.1685
 1538TIP3    H2 4579   3.557   0.754   5.456 -1.3080  1.8862  3.6270
 1539TIP3   OH2 4580   0.782   6.680   3.380 -0.0059 -0.4724  0.0352
 1539TIP3    H1 4581   0.783   6.618   3.307 -0.1959  0.3832 -0.7139
 1539TIP3    H2 4582   0.767   6.626   3.457 -2.5720 -1.1382 -0.8418
 1540TIP3   OH2 4583   6.614   4.416   5.531  0.1239  0.0039  0.3399
 1540TIP3    H1 4584   6.700   4.451   5.509  0.1794 -0.1748  0.2733
 1540TIP3    H2 4585   6.552   4.484   5.502  0.3763  1.9636  3.7885
 1541TIP3   OH2 4586   4.594   5.039   2.052  0.6015 -0.1095 -0.2397
 1541TIP3    H1 4587   4.624   4.948   2.064 -0.8330 -0.4457  0.9791
 1541TIP3    H2 4588   4.639   5.088   2.121 -0.9149 -0.4799  1.0880
 1542TIP3   OH2 4589   5.534   4.418   5.758 -0.5915  0.0487  0.0723
 1542TIP3    H1 4590   5.563   4.507   5.779 -0.0765  0.6390 -2.8194
 1542TIP3    H2 4591   5.440   4.427   5.742 -0.6453 -0.0692  0.3047
 1543TIP3   OH2 4592   1.925   2.698   5.368  0.2459 -0.3967 -0.1182
 1543TIP3    H1 4593   1.996   2.702   5.432  1.3988 -0.9979 -1.3134
 1543TIP3    H2 4594   1.952   2.630   5.307 -0.3423  0.8430 -1.8242
 1544TIP3   OH2 4595   3.862   1.192   4.526 -0.0523 -0.2877 -0.6484
 1544TIP3    H1 4596   3.942   1.191   4.473 -0.3167 -0.2404 -1.0520
 1544TIP3    H2 4597   3.826   1.280   4.513  0.7938  0.3369  0.9973
 1545TIP3   OH2 4598   7.092   2.263   0.659  0.1881  0.4160 -0.2834
 1545TIP3    H1 4599   7.160   2.208   0.697  0.0370  0.2076 -0.3117
 1545TIP3    H2 4600   7.070   2.326   0.728 -1.2806 -1.0064  0.6268
 1546TIP3   OH2 4601   1.668   0.403   3.148 -0.0963 -0.3987 -0.2293
 1546TIP3    H1 4602   1.579   0.410   3.184 -1.0719  0.8413 -2.6265
 1546TIP3    H2 4603   1.655   0.404   3.053  2.5592  1.2765 -0.6717
 1547TIP3   OH2 4604   1.596   0.042   5.179  0.0147 -0.0951 -0.3110
 1547TIP3    H1 4605   1.579  -0.035   5.233  2.7470 -0.1417  0.6837
 1547TIP3    H2 4606   1.629   0.006   5.097  1.3399 -0.0456  0.1725
 1548TIP3   OH2 4607   3.118   2.838   0.661  0.0875  0.3953 -0.1061
 1548TIP3    H1 4608   3.170   2.877   0.731  0.5577 -0.3287 -0.0364
 1548TIP3    H2 4609   3.183   2.803   0.600 -0.0354 -4.3966  2.0470
 1549TIP3   OH2 4610   3.080   4.579   1.865  0.0098 -0.6001  0.1472
 1549TIP3    H1 4611   3.126   4.511   1.914 -0.7306 -1.4182 -0.2687
 1549TIP3    H2 4612   3.125   4.660   1.889  1.1331 -1.2674  0.3836
 1550TIP3   OH2 4613   6.347   3.599   3.434 -0.5267 -0.7996  0.2245
 1550TIP3    H1 4614   6.330   3.667   3.369 -0.7664 -1.3173 -0.2677
 1550TIP3    H2 4615   6.441   3.586   3.431 -0.1540  1.0400  1.9007
 1551TIP3   OH2 4616   6.411   0.638   1.363  0.3215  0.1527 -0.1496
 1551TIP3    H1 4617   6.347   0.686   1.416 -1.0586 -2.5083  0.7581
 1551TIP3    H2 4618   6.389   0.662   1.273 -0.4792  1.0045  0.2453
 1552TIP3   OH2 4619   2.115   2.370   2.877  0.0584  0.1849  0.6988
 1552TIP3    H1 4620   2.198   2.403   2.843  0.7371  0.6374  2.6880
 1552TIP3    H2 4621   2.133   2.279   2.899 -0.6030 -0.3359 -0.8385
 1553TIP3   OH2 4622   1.220   6.035   0.800  0.4233 -0.0828  0.1671
 1553TIP3    H1 4623   1.283   5.974   0.762  1.4373  1.5942 -1.0152
 1553TIP3    H2 4624   1.274   6.105   0.836 -0.7193  1.1428 -0.4224
 1554TIP3   OH2 4625   3.574   3.981   0.095 -0.0400 -0.2082  0.1174
 1554TIP3    H1 4626   3.513   4.043   0.057 -0.3469 -0.4206  0.2554
 1554TIP3    H2 4627   3.652   4.032   0.114 -0.0415 -0.0133 -0.4025
 1555TIP3   OH2 4628   2.680   5.322   3.022 -0.1254  0.6392  0.6831
 1555TIP3    H1 4629   2.618   5.253   3.045 -1.5515  1.0885 -1.5179
 1555TIP3    H2 4630   2.765   5.278   3.017 -0.7193 -0.5690  1.0081
 1556TIP3   OH2 4631   0.114   5.477   0.403 -0.6124  0.2125  0.2687
 1556TIP3    H1 4632   0.153   5.451   0.487 -0.5473  1.4191  0.6307
 1556TIP3    H2 4633   0.075   5.563   0.420  0.6850  1.1645 -1.3096
 1557TIP3   OH2 4634   3.641   0.915   5.211 -0.3242 -0.2881  0.0797
 1557TIP3    H1 4635   3.637   0.874   5.298 -0.0569 -0.7189 -0.1084
 1557TIP3    H2 4636   3.698   0.991   5.222 -0.3210 -0.3203  0.2868
 1558TIP3   OH2 4637   3.420   1.970   0.726 -0.3697  0.3774 -0.0051
 1558TIP3    H1 4638   3.494   1.911   0.741 -0.2121  0.7746  0.8088
 1558TIP3    H2 4639   3.449   2.055   0.760 -2.0820 -0.0113  2.7451
 1559TIP3   OH2 4640   1.478   0.124   4.241 -0.1992 -0.0785 -1.0844
 1559TIP3    H1 4641   1.570   0.138   4.263 -1.0733  2.8739  1.4386
 1559TIP3    H2 4642   1.456   0.195   4.180 -1.2899  0.7726  0.2287
 1560TIP3   OH2 4643   2.052   2.190   0.469 -0.2105  0.5644  0.3587
 1560TIP3    H1 4644   2.027   2.102   0.498  0.2362  0.2382 -0.2205
 1560TIP3    H2 4645   2.008   2.249   0.530  0.3302 -0.0895  1.4132
 1561TIP3   OH2 4646   1.987   3.936   0.868 -0.4110 -0.1731 -0.2353
 1561TIP3    H1 4647   2.081   3.952   0.865 -0.3391 -0.4175  0.5010
 1561TIP3    H2 4648   1.953   4.001   0.930 -0.6725 -0.3240 -0.2179
 1562TIP3   OH2 4649   2.714   2.866   1.764 -0.0411  0.1115  0.6287
 1562TIP3    H1 4650   2.689   2.919   1.840 -1.7551  0.1633  0.0689
 1562TIP3    H2 4651   2.745   2.784   1.802 -1.4611 -0.1051  1.4075
 1563TIP3   OH2 4652   2.703   3.775   1.639 -0.3321  0.2198  0.0683
 1563TIP3    H1 4653   2.672   3.818   1.559  1.9842 -0.9682 -1.6055
 1563TIP3    H2 4654   2.695   3.682   1.620 -0.6821 -0.0869  1.6563
 1564TIP3   OH2 4655   5.400   4.995   5.360  0.3426  0.4546 -0.4967
 1564TIP3    H1 4656   5.405   4.990   5.456 -0.1302 -0.4142 -0.5070
 1564TIP3    H2 4657   5.470   5.056   5.336  3.5492 -2.6509  0.1189
 1565TIP3   OH2 4658   1.380   5.585   1.063 -0.0981  0.3086 -0.4213
 1565TIP3    H1 4659   1.358   5.537   0.983 -1.0822  1.2105 -0.7174
 1565TIP3    H2 4660   1.334   5.538   1.133 -2.8011  1.9195 -0.9756
 1566TIP3   OH2 4661   2.885   5.396   0.387 -0.5450  0.5644 -0.2666
 1566TIP3    H1 4662   2.860   5.488   0.392 -2.0917  0.0944  1.7914
 1566TIP3    H2 4663   2.948   5.385   0.458 -1.3455 -0.2235  0.3379
 1567TIP3   OH2 4664   3.652   6.458   1.774  0.9191  0.2567 -0.2246
 1567TIP3    H1 4665   3.744   6.483   1.775  0.3515  2.5528  0.2704
 1567TIP3    H2 4666   3.628   6.452   1.867  0.5852 -0.3965 -0.3493
 1568TIP3   OH2 4667   0.335   4.590   0.186 -0.0597  0.1320 -0.2231
 1568TIP3    H1 4668   0.292   4.548   0.261  1.2011 -1.2039 -0.1824
 1568TIP3    H2 4669   0.417   4.541   0.176  0.8123  1.6890 -1.1313
 1569TIP3   OH2 4670   6.418   2.411   1.030 -0.1061  0.2196  0.3501
 1569TIP3    H1 4671   6.419   2.471   0.956 -1.2815 -1.2932 -0.9926
 1569TIP3    H2 4672   6.506   2.415   1.067  1.0512 -0.1889 -2.1960
 1570TIP3   OH2 4673   1.537   4.430   1.079 -0.6149 -0.1969 -0.2296
 1570TIP3    H1 4674   1.505   4.519   1.066 -0.2417 -0.1603 -0.9697
 1570TIP3    H2 4675   1.589   4.412   1.001  0.6975 -0.4483  0.6503
 1571TIP3   OH2 4676   4.682   3.546   3.650 -0.1731  0.7515 -0.2672
 1571TIP3    H1 4677   4.639   3.465   3.626  0.3566  0.2395  0.4523
 1571TIP3    H2 4678   4.720   3.528   3.736  3.9762  0.1305 -1.9686
 1572TIP3   OH2 4679   2.034   1.335   1.051  0.0557  0.7639 -0.6911
 1572TIP3    H1 4680   2.066   1.411   1.100 -0.0821 -0.3239  1.2133
 1572TIP3    H2 4681   1.939   1.335   1.066  0.2801 -0.9107  1.1615
 1573TIP3   OH2 4682   2.618   2.648   4.098 -0.2859 -0.2445 -0.0237
 1573TIP3    H1 4683   2.614   2.704   4.176 -0.8783  0.2282 -0.3819
 1573TIP3    H2 4684   2.611   2.559   4.133  4.1220 -0.4363  0.8772
 1574TIP3   OH2 4685   3.437   2.977   2.662 -0.2771 -0.1735  0.0630
 1574TIP3    H1 4686   3.411   3.064   2.696 -0.7498 -0.5140  0.5981
 1574TIP3    H2 4687   3.405   2.976   2.572  1.8172  1.1077 -0.7624
 1575TIP3   OH2 4688   2.242   3.296   2.798  0.2397  0.3633 -0.1403
 1575TIP3    H1 4689   2.260   3.291   2.892 -0.1147 -0.8345 -0.1214
 1575TIP3    H2 4690   2.273   3.383   2.772  0.4189  0.6724  1.0646
 1576TIP3   OH2 4691   0.290   6.484   2.297 -0.0050  0.1554  0.2451
 1576TIP3    H1 4692   0.221   6.505   2.360 -0.6488  0.3277 -0.5018
 1576TIP3    H2 4693   0.347   6.560   2.297 -0.7018  0.6916 -0.2935
 1577TIP3   OH2 4694   1.492   6.546   2.726 -0.5005 -0.3622 -0.1987
 1577TIP3    H1 4695   1.524   6.493   2.799 -0.3244 -0.0959 -0.0784
 1577TIP3    H2 4696   1.566   6.603   2.704 -0.4260 -0.6886 -0.8221
 1578TIP3   OH2 4697   3.313   6.700   3.880  0.1101  0.1940  0.4484
 1578TIP3    H1 4698   3.401   6.662   3.882  0.3393  0.6297 -0.7311
 1578TIP3    H2 4699   3.312   6.756   3.802 -1.4556 -0.4175 -0.0184
 1579TIP3   OH2 4700   4.081   4.486   1.104 -0.0209  0.1926 -0.1547
 1579TIP3    H1 4701   4.083   4.403   1.057 -0.7238 -0.2515  0.5766
 1579TIP3    H2 4702   4.062   4.462   1.195 -0.5639  1.1722  0.0085
 1580TIP3   OH2 4703   2.942   1.695   5.732 -0.0399  0.5310 -0.2668
 1580TIP3    H1 4704   2.892   1.668   5.654 -1.5899  0.1567  0.8201
 1580TIP3    H2 4705   3.033   1.686   5.705 -0.4999 -1.6457 -1.3957
 1581TIP3   OH2 4706   0.560   6.358   2.585  0.1413  0.1849  0.5941
 1581TIP3    H1 4707   0.534   6.450   2.577  1.3362  0.3760 -2.0936
 1581TIP3    H2 4708   0.526   6.316   2.506 -0.8600 -1.8684  2.0298
 1582TIP3   OH2 4709   0.144   3.167   3.119 -0.1537 -0.0034  0.0630
 1582TIP3    H1 4710   0.092   3.197   3.194  3.3537 -0.0619  2.7932
 1582TIP3    H2 4711   0.167   3.247   3.073  2.2792  0.8576  2.4911
 1583TIP3   OH2 4712   6.625   0.432   0.311 -0.7548  0.2535  0.6298
 1583TIP3    H1 4713   6.580   0.348   0.302 -0.2048  0.0900 -0.9979
 1583TIP3    H2 4714   6.560   0.490   0.350 -1.4419 -0.6912  0.9437
 1584TIP3   OH2 4715   7.124   5.830   5.831 -0.4866  0.0080  0.6342
 1584TIP3    H1 4716   7.163   5.769   5.769  1.4207 -0.1240  1.9020
 1584TIP3    H2 4717   7.077   5.893   5.776 -0.8488 -1.4478 -0.7926
 1585TIP3   OH2 4718   5.540   0.974   1.547  0.3204  0.4450  0.1120
 1585TIP3    H1 4719   5.560   0.899   1.491 -0.2870  0.3756 -0.0237
 1585TIP3    H2 4720   5.624   1.016   1.563  0.3482  1.5402 -2.3867
 1586TIP3   OH2 4721   1.748   4.472   4.522 -0.1419  0.0130  0.4088
 1586TIP3    H1 4722   1.684   4.505   4.584 -1.2346  0.0650 -0.6983
 1586TIP3    H2 4723   1.750   4.538   4.452 -0.7908 -1.1927 -0.7974
 1587TIP3   OH2 4724   2.949   4.109   0.080 -0.2618  0.2580 -0.6578
 1587TIP3    H1 4725   2.922   4.037   0.023 -0.4409 -1.0279  0.9659
 1587TIP3    H2 4726   2.882   4.111   0.148  0.1861  1.4384 -0.2365
 1588TIP3   OH2 4727   2.783   1.634   5.220 -0.0271 -0.7478  0.5790
 1588TIP3    H1 4728   2.750   1.652   5.308 -0.2584 -1.5315  0.6645
 1588TIP3    H2 4729   2.739   1.697   5.164 -0.1863 -0.5074  0.9728
 1589TIP3   OH2 4730   3.376   5.314   4.692 -0.2569 -0.3602  0.1434
 1589TIP3    H1 4731   3.293   5.355   4.665  0.4174  1.2711  0.4552
 1589TIP3    H2 4732   3.376   5.322   4.788  0.3896 -0.0973  0.1238
 1590TIP3   OH2 4733   3.508   4.618   2.344  0.3773 -0.4588  0.3443
 1590TIP3    H1 4734   3.441   4.634   2.410 -0.5386 -1.7923 -0.2198
 1590TIP3    H2 4735   3.510   4.698   2.292 -1.5063 -0.7306 -0.2217
 1591TIP3   OH2 4736   1.382   6.433   2.481 -0.1121 -0.6161  0.1900
 1591TIP3    H1 4737   1.397   6.445   2.575 -0.6165  2.4130  0.0041
 1591TIP3    H2 4738   1.324   6.357   2.475  1.4282 -2.0572  2.1321
 1592TIP3   OH2 4739   6.046   6.029   3.267  0.4023 -0.2302 -0.6648
 1592TIP3    H1 4740   6.107   6.098   3.295 -0.2054  0.0340  0.0473
 1592TIP3    H2 4741   6.089   5.948   3.293  0.9065 -0.1015 -1.0758
 1593TIP3   OH2 4742   6.638   2.504   2.213  0.2374  0.1119  0.4422
 1593TIP3    H1 4743   6.620   2.439   2.281 -1.6435 -0.6466 -0.6878
 1593TIP3    H2 4744   6.589   2.472   2.137 -1.5677  3.3157  0.0979
 1594TIP3   OH2 4745   2.385   6.246   3.627 -0.1066 -0.2982 -0.1012
 1594TIP3    H1 4746   2.392   6.258   3.533  2.1883 -1.5494 -0.1659
 1594TIP3    H2 4747   2.373   6.334   3.662 -0.9429  0.1779 -1.5383
 1595TIP3   OH2 4748   2.679   3.604   2.502 -0.3053  0.1182 -0.5466
 1595TIP3    H1 4749   2.670   3.699   2.495 -0.8719  0.0347 -1.0671
 1595TIP3    H2 4750   2.589   3.571   2.492 -0.1379 -0.4605 -0.1978
 1596TIP3   OH2 4751   0.865   5.250   2.295  0.2123 -0.1215 -0.2620
 1596TIP3    H1 4752   0.819   5.177   2.335  1.1410 -0.2557  0.5918
 1596TIP3    H2 4753   0.797   5.298   2.248 -0.3478 -1.7367 -1.1661
 1597TIP3   OH2 4754   4.486   5.509   1.552 -0.5795 -0.5080  0.6240
 1597TIP3    H1 4755   4.414   5.568   1.533  0.0328  0.2372  0.5607
 1597TIP3    H2 4756   4.529   5.495   1.468  0.4785  0.5876  0.9461
 1598TIP3   OH2 4757   6.230   6.636   3.278 -0.4322 -0.5127 -0.6280
 1598TIP3    H1 4758   6.154   6.638   3.221  0.5935 -0.7342 -2.0479
 1598TIP3    H2 4759   6.282   6.561   3.248  0.9484  0.3557 -0.5273
 1599TIP3   OH2 4760   6.233   1.903   4.607  0.0207 -0.9062 -0.4666
 1599TIP3    H1 4761   6.307   1.878   4.551  1.0408  1.1488 -0.1449
 1599TIP3    H2 4762   6.204   1.988   4.573 -1.4743 -1.1459  0.1311
 1600TIP3   OH2 4763   1.267   3.171   3.042  0.1553  0.2179  0.3416
 1600TIP3    H1 4764   1.280   3.264   3.025  2.5171  0.0037  0.6733
 1600TIP3    H2 4765   1.228   3.168   3.130  0.6031  0.8817  0.5718
 1601TIP3   OH2 4766   0.419   5.619   5.046 -0.2904 -0.0910  0.0157
 1601TIP3    H1 4767   0.479   5.599   4.974  0.9262  0.1767  0.9241
 1601TIP3    H2 4768   0.340   5.569   5.026  0.2099 -0.4156 -1.2418
 1602TIP3   OH2 4769   5.351   6.107   3.759 -0.3883  0.3379 -0.1177
 1602TIP3    H1 4770   5.288   6.054   3.710  1.9447 -0.7123 -2.1698
 1602TIP3    H2 4771   5.374   6.054   3.835  1.1248 -1.1990 -1.5951
 1603TIP3   OH2 4772   3.711   3.827   5.170 -0.6922  0.2414 -0.2360
 1603TIP3    H1 4773   3.777   3.868   5.113  0.3743 -2.3773 -1.0063
 1603TIP3    H2 4774   3.687   3.746   5.125 -0.5970 -1.4254  2.4924
 1604TIP3   OH2 4775   0.167   3.460   0.242 -0.0914 -0.1169  0.3525
 1604TIP3    H1 4776   0.116   3.479   0.163 -0.2033 -1.1595  0.1566
 1604TIP3    H2 4777   0.258   3.475   0.215 -0.2510  1.3438  0.5837
 1605TIP3   OH2 4778   4.084   4.675   1.408  0.3470  0.0016 -0.3847
 1605TIP3    H1 4779   4.121   4.695   1.494  2.2731 -1.2820 -0.8427
 1605TIP3    H2 4780   4.019   4.743   1.394  0.7683  0.9015  1.5990
 1606TIP3   OH2 4781   4.207   0.733   5.775 -0.5409  0.1282  0.2757
 1606TIP3    H1 4782   4.235   0.647   5.744 -0.1693  0.4647 -0.3576
 1606TIP3    H2 4783   4.144   0.715   5.844  2.4784 -0.7392  3.0818
 1607TIP3   OH2 4784   2.686   4.715   0.606  1.3774 -0.1369 -0.6956
 1607TIP3    H1 4785   2.779   4.706   0.627  2.0012  0.5521 -2.9966
 1607TIP3    H2 4786   2.677   4.802   0.569 -0.1116 -0.3721 -0.9590
 1608TIP3   OH2 4787   7.009   2.671   1.374 -0.1158 -0.2441  0.1339
 1608TIP3    H1 4788   6.980   2.739   1.436 -0.6253 -1.8235  1.7067
 1608TIP3    H2 4789   7.088   2.635   1.413  1.2223  0.6362 -1.6292
 1609TIP3   OH2 4790   2.099   3.328   0.573 -0.0923  0.2815 -0.0607
 1609TIP3    H1 4791   2.126   3.242   0.605  1.0053 -0.3037 -2.3497
 1609TIP3    H2 4792   2.021   3.310   0.520  0.9316  0.4438 -1.6829
 1610TIP3   OH2 4793   5.606   1.112   2.304  0.1692  0.3232 -0.4427
 1610TIP3    H1 4794   5.515   1.113   2.332  0.1493  2.1807 -0.4901
 1610TIP3    H2 4795   5.655   1.139   2.382  0.5061  1.2075 -0.9552
 1611TIP3   OH2 4796   6.590   4.062   3.965 -0.2877 -0.3830 -0.1318
 1611TIP3    H1 4797   6.663   4.068   4.026 -0.3474 -3.7460  0.4689
 1611TIP3    H2 4798   6.512   4.077   4.018 -0.1982 -0.4779  0.0272
 1612TIP3   OH2 4799   0.779   5.700   4.864  0.4609 -0.0578  0.3072
 1612TIP3    H1 4800   0.759   5.617   4.821  0.9928 -0.6707  1.2205
 1612TIP3    H2 4801   0.862   5.685   4.908  0.9370  1.2030 -0.1327
 1613TIP3   OH2 4802   1.438   2.025   5.508  0.3395 -0.0666  0.1288
 1613TIP3    H1 4803   1.517   2.078   5.511  0.8447 -0.8373  1.9482
 1613TIP3    H2 4804   1.468   1.940   5.475 -0.0928  0.1403 -0.8533
 1614TIP3   OH2 4805   6.914   2.977   2.564  0.0311 -0.2340 -0.1246
 1614TIP3    H1 4806   6.943   2.886   2.571 -2.4437 -1.0473  0.6492
 1614TIP3    H2 4807   6.944   3.019   2.645 -0.5121 -0.9128  0.4404
 1615TIP3   OH2 4808   3.769   5.141   5.572  0.0506  0.3514 -0.4476
 1615TIP3    H1 4809   3.738   5.232   5.566 -0.1203  0.3617  0.5465
 1615TIP3    H2 4810   3.732   5.108   5.654  2.3023  0.2264  0.5851
 1616TIP3   OH2 4811   3.851   1.020   5.407 -0.1920  0.0141 -0.8426
 1616TIP3    H1 4812   3.829   0.929   5.422  0.2077  0.1312  0.5316
 1616TIP3    H2 4813   3.946   1.025   5.419 -0.5334  1.1630  2.4388
 1617TIP3   OH2 4814   0.739   1.476   5.475  0.3324  0.2556 -0.2188
 1617TIP3    H1 4815   0.710   1.385   5.487  1.0533  0.1162  0.5654
 1617TIP3    H2 4816   0.711   1.498   5.387 -0.9156 -0.3268  0.0098
 1618TIP3   OH2 4817   3.263   3.540   0.021 -0.0385 -0.1472  0.0006
 1618TIP3    H1 4818   3.268   3.618  -0.034 -0.3452  0.2635  0.5434
 1618TIP3    H2 4819   3.334   3.551   0.085 -0.5624  0.0641  0.5526
 1619TIP3   OH2 4820   6.909   1.544   5.825 -0.2751 -0.0214  0.2863
 1619TIP3    H1 4821   6.860   1.612   5.780  0.8051  0.9493  0.5494
 1619TIP3    H2 4822   7.001   1.569   5.816  0.1654 -1.5048  0.2813
 1620TIP3   OH2 4823   4.314   3.845   0.932  0.2902  0.0519 -0.1678
 1620TIP3    H1 4824   4.283   3.809   1.015  1.7459  0.6571  0.6709
 1620TIP3    H2 4825   4.405   3.818   0.927  0.5812  1.1068 -0.9503
 1621TIP3   OH2 4826   5.545   0.795   3.183  0.4779 -0.4919  0.3763
 1621TIP3    H1 4827   5.568   0.711   3.144  1.8303  0.4700 -1.0178
 1621TIP3    H2 4828   5.611   0.810   3.250  1.2245  0.1843 -0.4945
 1622TIP3   OH2 4829   0.246   0.316   2.874 -0.5018 -0.2455  0.0533
 1622TIP3    H1 4830   0.291   0.400   2.885  0.0129 -0.6578  1.2916
 1622TIP3    H2 4831   0.272   0.286   2.787  0.2174  0.3612  0.0498
 1623TIP3   OH2 4832   0.477   6.648   3.178 -0.0686  0.1808 -0.0520
 1623TIP3    H1 4833   0.462   6.738   3.148 -0.8712  0.0514 -0.0684
 1623TIP3    H2 4834   0.520   6.605   3.104 -0.4303  0.3431 -0.3636
 1624TIP3   OH2 4835   2.412   5.609   4.019 -0.2104 -0.1542  0.0987
 1624TIP3    H1 4836   2.420   5.590   4.113 -1.2926 -0.3698  0.1574
 1624TIP3    H2 4837   2.486   5.667   4.000 -1.3152  1.8810  1.6034
 1625TIP3   OH2 4838   4.066   2.379   1.703 -0.1354  0.0271  0.3308
 1625TIP3    H1 4839   4.095   2.468   1.686 -1.3033  0.2194 -0.8358
 1625TIP3    H2 4840   3.970   2.384   1.701 -0.2635 -1.6701 -2.3156
 1626TIP3   OH2 4841   4.045   5.007   3.661 -0.0725  0.0199 -0.2212
 1626TIP3    H1 4842   4.094   4.951   3.721 -0.4946  0.0547  0.1553
 1626TIP3    H2 4843   4.096   5.088   3.657  0.1865 -0.1427 -0.2517
 1627TIP3   OH2 4844   0.919   3.023   1.945 -0.0960 -0.7224 -0.0056
 1627TIP3    H1 4845   0.864   2.994   2.018 -0.3045 -3.4808 -1.1233
 1627TIP3    H2 4846   0.910   2.954   1.879  0.8445  1.1680 -2.2770
 1628TIP3   OH2 4847   4.002   2.637   1.118  0.1923 -0.2873 -0.5493
 1628TIP3    H1 4848   3.989   2.713   1.061  1.9526 -0.0029 -0.6244
 1628TIP3    H2 4849   4.002   2.673   1.206  0.3928 -0.2981 -0.5454
 1629TIP3   OH2 4850   5.125   6.088   2.475  0.0230 -0.4943  0.3388
 1629TIP3    H1 4851   5.076   6.152   2.526  0.0777 -0.4476  0.3316
 1629TIP3    H2 4852   5.205   6.133   2.449 -0.2979 -0.2988 -0.3504
 1630TIP3   OH2 4853   6.309   4.593   0.607  0.0425  0.2946 -0.0038
 1630TIP3    H1 4854   6.401   4.592   0.579 -0.7138  0.4304 -2.7648
 1630TIP3    H2 4855   6.296   4.680   0.644  1.0709  0.1702  0.6978
 1631TIP3   OH2 4856   3.334   2.842   4.328  0.3152 -0.0360 -1.0366
 1631TIP3    H1 4857   3.323   2.751   4.302  0.3215 -0.1684 -0.5730
 1631TIP3    H2 4858   3.256   2.886   4.295 -0.3977 -0.4893  0.0098
 1632TIP3   OH2 4859   0.901   1.811   4.740 -0.2490  0.2503 -0.3775
 1632TIP3    H1 4860   0.861   1.728   4.713  0.7344 -0.0211 -1.0834
 1632TIP3    H2 4861   0.977   1.786   4.791 -0.0714  0.7183 -0.4037
 1633TIP3   OH2 4862   4.616   1.416   3.347 -0.1277  0.7401 -0.0781
 1633TIP3    H1 4863   4.666   1.494   3.326 -0.8588  0.7220 -2.0151
 1633TIP3    H2 4864   4.683   1.349   3.366  0.5530  1.1238 -1.0783
 1634TIP3   OH2 4865   6.128   1.725   3.206 -1.0876 -0.4327  0.3411
 1634TIP3    H1 4866   6.172   1.663   3.147 -2.4738 -2.6940  1.5373
 1634TIP3    H2 4867   6.194   1.792   3.224  0.8753 -2.1239 -0.1863
 1635TIP3   OH2 4868   7.231   0.779   5.198  0.7162 -0.1649 -0.7087
 1635TIP3    H1 4869   7.262   0.719   5.267 -1.2407  0.6867  0.9973
 1635TIP3    H2 4870   7.147   0.743   5.171 -0.1140  1.3258 -0.2235
 1636TIP3   OH2 4871   4.347   1.980   4.194 -0.1605  0.3377  0.1818
 1636TIP3    H1 4872   4.293   1.986   4.272 -0.3035  0.9284  0.0432
 1636TIP3    H2 4873   4.431   2.018   4.220 -1.2839  3.9924 -0.8974
 1637TIP3   OH2 4874   6.120   1.571   0.793 -0.5669  0.3638 -0.0334
 1637TIP3    H1 4875   6.103   1.665   0.800 -0.8827  0.4476 -1.5474
 1637TIP3    H2 4876   6.129   1.556   0.699 -1.7059 -1.3237  0.0992
 1638TIP3   OH2 4877   2.766   1.891   1.127  0.5164 -0.2255  0.3440
 1638TIP3    H1 4878   2.848   1.894   1.078  0.3886 -0.5117  0.1075
 1638TIP3    H2 4879   2.708   1.837   1.073 -0.3626  1.3114 -0.3191
 1639TIP3   OH2 4880   5.646   4.743   4.223  0.3348  0.6990 -0.1240
 1639TIP3    H1 4881   5.641   4.656   4.262 -0.8293  0.4346 -0.8005
 1639TIP3    H2 4882   5.566   4.787   4.251 -0.7342  0.3652 -2.4100
 1640TIP3   OH2 4883   5.845   6.670   3.608  0.5069 -0.6157  0.2301
 1640TIP3    H1 4884   5.794   6.641   3.683 -0.9520  0.0796 -0.4622
 1640TIP3    H2 4885   5.860   6.763   3.623  0.3731 -0.5134 -0.2308
 1641TIP3   OH2 4886   3.016   5.912   3.810  0.4014  0.5474  0.2049
 1641TIP3    H1 4887   3.046   5.891   3.898  0.5062 -0.6959 -0.1065
 1641TIP3    H2 4888   3.077   5.980   3.779  1.4963 -0.3019  0.4308
 1642TIP3   OH2 4889   5.459   1.075   4.718 -0.6987  0.5789  0.0117
 1642TIP3    H1 4890   5.377   1.105   4.759 -1.0218 -1.1557  0.7120
 1642TIP3    H2 4891   5.485   1.147   4.661 -2.0360  1.6912  0.7463
 1643TIP3   OH2 4892   2.680   6.624   2.229  0.1224  0.1106 -0.0164
 1643TIP3    H1 4893   2.747   6.569   2.268 -0.9540 -1.7108 -0.5811
 1643TIP3    H2 4894   2.707   6.714   2.247  1.9008 -0.6079  1.0348
 1644TIP3   OH2 4895   1.123   3.979   2.894 -0.7296  0.4653  0.0961
 1644TIP3    H1 4896   1.036   4.012   2.919 -0.5645  1.6296 -0.7641
 1644TIP3    H2 4897   1.177   3.994   2.972 -1.1079  0.5107  0.3554
 1645TIP3   OH2 4898   4.326   1.111   4.130 -0.1851 -0.4336 -0.0302
 1645TIP3    H1 4899   4.308   1.042   4.065 -2.3923  1.2104 -1.3313
 1645TIP3    H2 4900   4.297   1.192   4.087 -0.6492  0.8977  2.5966
 1646TIP3   OH2 4901   2.577   5.998   3.630  0.3872 -0.5195 -0.1021
 1646TIP3    H1 4902   2.613   6.011   3.543  1.6599 -2.2848  0.1057
 1646TIP3    H2 4903   2.618   5.917   3.661 -1.6545 -1.1117  1.2807
 1647TIP3   OH2 4904   4.380   5.229   0.097  0.3023 -0.4849 -0.6885
 1647TIP3    H1 4905   4.305   5.258   0.046  0.4200  1.1160 -0.0001
 1647TIP3    H2 4906   4.370   5.272   0.182  0.0846 -3.0854  0.7182
 1648TIP3   OH2 4907   1.690   2.989   4.783 -0.1986 -0.0423 -0.1863
 1648TIP3    H1 4908   1.666   3.081   4.793 -2.3840 -0.5082 -0.6012
 1648TIP3    H2 4909   1.748   2.971   4.857 -0.2458  1.5029  0.2626
 1649TIP3   OH2 4910   5.107   3.451   5.520  0.3892  0.3472 -0.5301
 1649TIP3    H1 4911   5.113   3.394   5.444  0.1996 -0.4660  0.0429
 1649TIP3    H2 4912   5.014   3.470   5.529  0.5015  1.1467 -0.9966
 1650TIP3   OH2 4913   4.275   5.837   5.742 -0.7882 -0.1943  0.0128
 1650TIP3    H1 4914   4.332   5.805   5.811  0.6090  0.0056 -0.9949
 1650TIP3    H2 4915   4.335   5.863   5.672 -1.9955  1.9999 -0.3019
 1651TIP3   OH2 4916   5.198   2.214   3.794  0.1776 -0.5403  0.3271
 1651TIP3    H1 4917   5.150   2.133   3.778 -0.1267 -0.1255 -1.0179
 1651TIP3    H2 4918   5.129   2.278   3.815  0.3817 -0.5146  0.9558
 1652TIP3   OH2 4919   4.767   3.406   3.868 -0.8896  0.4592 -0.5990
 1652TIP3    H1 4920   4.810   3.401   3.953  0.3108  0.9199 -1.1518
 1652TIP3    H2 4921   4.699   3.339   3.871 -1.0477  0.6645  0.8166
 1653TIP3   OH2 4922   4.753   1.921   0.434  0.6547  0.3076  0.3184
 1653TIP3    H1 4923   4.707   2.002   0.455  3.2192  2.3534 -1.3361
 1653TIP3    H2 4924   4.753   1.872   0.517 -0.1942  2.4036  1.6465
 1654TIP3   OH2 4925   6.276   2.247   5.119  0.4247 -0.1471 -0.0842
 1654TIP3    H1 4926   6.184   2.230   5.100 -0.2455  0.9294  1.8860
 1654TIP3    H2 4927   6.275   2.308   5.193  2.7148 -2.4657  2.0784
 1655TIP3   OH2 4928   2.686   4.582   5.862 -0.3908  0.4908 -0.5705
 1655TIP3    H1 4929   2.773   4.543   5.848 -0.5112 -0.4729  1.1429
 1655TIP3    H2 4930   2.625   4.510   5.846 -0.7430  0.5925  0.2635
 1656TIP3   OH2 4931   0.532   5.989   1.976  0.5038 -0.2080 -0.4824
 1656TIP3    H1 4932   0.451   6.013   2.021 -0.4014 -1.2525 -1.4942
 1656TIP3    H2 4933   0.524   6.031   1.890  1.2265 -0.0020 -0.4562
 1657TIP3   OH2 4934   5.545   0.461   3.730  0.3212 -0.0632 -0.3774
 1657TIP3    H1 4935   5.578   0.375   3.757 -1.1091 -0.7859 -0.8334
 1657TIP3    H2 4936   5.622   0.518   3.734  1.0431 -1.0744  1.1146
 1658TIP3   OH2 4937   3.276   4.895   1.085 -0.1749  0.1008  0.3930
 1658TIP3    H1 4938   3.285   4.867   0.994 -0.3815 -0.8599  0.6538
 1658TIP3    H2 4939   3.184   4.881   1.105 -0.5191  1.9085  0.2650
 1659TIP3   OH2 4940   4.341   6.642   5.732 -0.3946 -0.3835  0.0043
 1659TIP3    H1 4941   4.285   6.621   5.807  0.5437 -1.2676  0.4893
 1659TIP3    H2 4942   4.426   6.603   5.755  0.5307  1.2499 -0.5299
 1660TIP3   OH2 4943   5.060   0.149   2.451  0.4201 -0.1089  0.6739
 1660TIP3    H1 4944   5.032   0.237   2.478  0.5092  0.8272 -2.0052
 1660TIP3    H2 4945   5.119   0.165   2.378  0.7172 -2.4280  0.3526
 1661TIP3   OH2 4946   0.696   0.432   1.870 -0.3648 -0.1013  0.1976
 1661TIP3    H1 4947   0.728   0.367   1.807 -0.2159 -0.6350  0.8054
 1661TIP3    H2 4948   0.771   0.490   1.885 -0.5772  0.3673 -0.5409
 1662TIP3   OH2 4949   0.307   5.461   5.418  0.2875 -0.3328  0.3886
 1662TIP3    H1 4950   0.334   5.407   5.343  0.5464 -1.5070  1.3019
 1662TIP3    H2 4951   0.216   5.483   5.400 -0.4780 -2.7787  0.9331
 1663TIP3   OH2 4952   0.061   6.160   0.377 -0.1000  0.1064 -0.2456
 1663TIP3    H1 4953   0.114   6.215   0.434 -2.3120  3.3053 -0.9827
 1663TIP3    H2 4954   0.123   6.123   0.314  1.7524  0.1968  1.4262
 1664TIP3   OH2 4955   2.095   4.808   3.189 -0.8525  0.5675  0.0097
 1664TIP3    H1 4956   2.166   4.792   3.126 -0.5827  0.8525  0.2370
 1664TIP3    H2 4957   2.139   4.845   3.265 -1.2968  1.0830  0.0150
 1665TIP3   OH2 4958   4.500   1.578   0.678  0.0670  0.0351  0.2668
 1665TIP3    H1 4959   4.467   1.488   0.684 -1.0522  0.2758 -1.4899
 1665TIP3    H2 4960   4.422   1.632   0.686  0.6079  0.8078  0.3765
 1666TIP3   OH2 4961   0.202   4.046   5.825 -0.0767  0.2820 -0.6424
 1666TIP3    H1 4962   0.217   4.037   5.731 -0.6803  0.7537 -0.7923
 1666TIP3    H2 4963   0.287   4.027   5.865 -0.2961 -1.9937 -1.1334
 1667TIP3   OH2 4964   0.530   4.033   1.398 -0.5277 -0.4726  0.3576
 1667TIP3    H1 4965   0.580   4.115   1.401  0.4468 -1.0762  1.9266
 1667TIP3    H2 4966   0.445   4.055   1.437 -0.9694  0.2040 -0.9373
 1668TIP3   OH2 4967   6.580   6.599   3.711  0.0458  0.1009 -0.0620
 1668TIP3    H1 4968   6.643   6.666   3.684  1.1939 -0.4545  1.0823
 1668TIP3    H2 4969   6.597   6.525   3.652  2.7967 -1.2461  2.1363
 1669TIP3   OH2 4970   0.917   0.799   5.039  0.5519  0.8975  0.7363
 1669TIP3    H1 4971   0.826   0.815   5.066 -0.5684  1.8181 -2.9490
 1669TIP3    H2 4972   0.914   0.713   4.996  1.7641  0.3598  1.6710
 1670TIP3   OH2 4973   5.487   1.242   2.082 -0.3687  0.2092  0.3839
 1670TIP3    H1 4974   5.547   1.206   2.147  0.7074  0.8358 -0.2231
 1670TIP3    H2 4975   5.511   1.334   2.076  1.7323 -0.3461 -3.0210
 1671TIP3   OH2 4976   0.081   5.950   1.101  0.4790 -0.0044  0.1444
 1671TIP3    H1 4977   0.051   6.024   1.050 -0.3427  0.6720  1.5382
 1671TIP3    H2 4978   0.049   5.873   1.054 -2.4827  0.6407  0.8851
 1672TIP3   OH2 4979   1.093   5.797   0.250 -0.1366 -1.3851 -0.3237
 1672TIP3    H1 4980   1.066   5.885   0.223  2.8887 -0.6130 -1.1965
 1672TIP3    H2 4981   1.092   5.799   0.345 -0.9280 -0.7056 -0.3362
 1673TIP3   OH2 4982   1.988   2.978   4.066 -0.1113 -0.2166  0.2357
 1673TIP3    H1 4983   2.083   2.966   4.055 -0.1219  0.5880 -1.0130
 1673TIP3    H2 4984   1.966   2.927   4.143  1.6709  1.0536  1.6967
 1674TIP3   OH2 4985   1.514   5.188   4.461  0.2002  0.0213  0.2407
 1674TIP3    H1 4986   1.549   5.215   4.546 -1.1297 -1.3051  1.2902
 1674TIP3    H2 4987   1.575   5.121   4.430  0.2073 -0.1607  0.6332
 1675TIP3   OH2 4988   4.280   5.648   2.563  0.2790 -0.6179 -0.9351
 1675TIP3    H1 4989   4.335   5.699   2.622 -0.4832 -1.7072  0.8017
 1675TIP3    H2 4990   4.318   5.663   2.476  1.5506  0.9030 -0.1672
 1676TIP3   OH2 4991   5.510   0.069   3.381  0.2020  0.2107 -0.3718
 1676TIP3    H1 4992   5.601   0.097   3.384 -0.3970  2.2784  0.8948
 1676TIP3    H2 4993   5.473   0.114   3.305  0.4886 -1.6398 -1.6585
 1677TIP3   OH2 4994   4.115   5.493   3.520 -0.2682 -0.0169  0.3039
 1677TIP3    H1 4995   4.170   5.571   3.529  0.3268 -0.5138  1.1102
 1677TIP3    H2 4996   4.030   5.518   3.553  0.4842 -0.2934  2.6198
 1678TIP3   OH2 4997   0.707   1.170   3.550  0.2083  0.4346 -0.7864
 1678TIP3    H1 4998   0.770   1.101   3.570 -1.7009 -0.6931  1.9139
 1678TIP3    H2 4999   0.632   1.124   3.512 -0.5567  1.1711 -0.2087
 1679TIP3   OH2 5000   1.558   5.777   3.059  0.5897  0.0717 -0.6686
 1679TIP3    H1 5001   1.544   5.843   3.128 -0.0161 -3.3928  2.8454
 1679TIP3    H2 5002   1.489   5.796   2.994 -2.1517  0.6155  2.1464
 1680TIP3   OH2 5003   5.935   1.221   3.958  0.0503  0.1852 -0.6199
 1680TIP3    H1 5004   5.976   1.135   3.957  0.0368  0.1620  0.2108
 1680TIP3    H2 5005   5.937   1.248   4.050 -0.7074  0.7053 -0.7443
 1681TIP3   OH2 5006   6.644   2.227   1.620 -0.1377  0.2935  0.0997
 1681TIP3    H1 5007   6.722   2.174   1.601 -0.1782  0.8372 -1.8741
 1681TIP3    H2 5008   6.678   2.304   1.665  0.5760  0.7746 -1.2129
 1682TIP3   OH2 5009   5.725   6.158   4.024  0.0204  0.2603  0.0621
 1682TIP3    H1 5010   5.720   6.252   4.040 -0.8276  0.2794 -0.2637
 1682TIP3    H2 5011   5.701   6.148   3.932  0.9573 -0.2003 -0.1424
 1683TIP3   OH2 5012   2.026   2.787   2.650  0.2635  0.6823  0.0946
 1683TIP3    H1 5013   2.065   2.834   2.576 -1.1604  0.7874 -0.6205
 1683TIP3    H2 5014   1.933   2.784   2.630 -0.1634  0.7199  1.9039
 1684TIP3   OH2 5015   2.127   3.545   0.389  1.3761 -0.8331  0.0287
 1684TIP3    H1 5016   2.134   3.467   0.444  1.3205 -2.3666 -2.0235
 1684TIP3    H2 5017   2.091   3.513   0.307 -0.1050  1.6497 -0.3748
 1685TIP3   OH2 5018   2.601   5.646   4.313  0.3420 -0.3832 -0.0441
 1685TIP3    H1 5019   2.567   5.592   4.384  0.5368 -2.0449 -1.1379
 1685TIP3    H2 5020   2.669   5.591   4.272  0.0604  0.3913 -1.6498
 1686TIP3   OH2 5021   2.769   1.264   3.920 -0.5565 -0.1021  0.1076
 1686TIP3    H1 5022   2.759   1.209   3.998 -0.9894 -0.4686 -0.2004
 1686TIP3    H2 5023   2.752   1.353   3.952  0.9187 -0.0237  0.7729
 1687TIP3   OH2 5024   2.542   4.523   3.695  0.1989 -0.1481  0.3836
 1687TIP3    H1 5025   2.636   4.533   3.706  0.4065 -0.6708 -0.7336
 1687TIP3    H2 5026   2.521   4.442   3.742  0.5775 -0.8194 -0.5611
 1688TIP3   OH2 5027   4.547   2.883   2.802  0.5239 -0.1711 -0.4357
 1688TIP3    H1 5028   4.637   2.876   2.771  0.5088 -1.5359 -0.2279
 1688TIP3    H2 5029   4.505   2.802   2.771 -1.2349  1.4098 -2.4716
 1689TIP3   OH2 5030   1.666   0.713   3.971  0.5799  0.6956  0.1458
 1689TIP3    H1 5031   1.750   0.755   3.955  0.3877  1.2062  0.4593
 1689TIP3    H2 5032   1.601   0.770   3.929  0.3815  0.3511 -0.0208
 1690TIP3   OH2 5033   6.093   5.263   0.993  0.0963  0.4077  0.4139
 1690TIP3    H1 5034   6.074   5.239   1.083  2.2188  0.0286  0.8336
 1690TIP3    H2 5035   6.169   5.209   0.969  0.5177  1.5627 -1.0713
 1691TIP3   OH2 5036   1.983   1.316   0.518 -0.1374  0.2475  0.0667
 1691TIP3    H1 5037   1.914   1.356   0.465 -0.2648 -0.3545 -0.2324
 1691TIP3    H2 5038   1.937   1.256   0.576 -0.1471  1.8618  1.8376
 1692TIP3   OH2 5039   1.343   4.777   2.399  0.3709  0.3471  0.5791
 1692TIP3    H1 5040   1.325   4.810   2.487 -1.1371  0.5074  0.2313
 1692TIP3    H2 5041   1.376   4.688   2.413 -0.0329  0.3037  1.3066
 1693TIP3   OH2 5042   0.368   2.316   1.580 -0.7537  0.2645 -0.1027
 1693TIP3    H1 5043   0.290   2.353   1.539 -0.4971 -1.1887 -2.0216
 1693TIP3    H2 5044   0.349   2.319   1.674 -2.6389  0.9609 -0.4630
 1694TIP3   OH2 5045   6.708   1.604   0.456 -0.4384 -0.3385  0.4953
 1694TIP3    H1 5046   6.677   1.694   0.468  1.4263  0.4286 -0.2071
 1694TIP3    H2 5047   6.697   1.564   0.542 -2.4701  0.1251  0.5197
 1695TIP3   OH2 5048   4.861   3.829   2.574  0.0757 -0.3530  0.8362
 1695TIP3    H1 5049   4.798   3.777   2.623  1.2540 -1.0560  1.6275
 1695TIP3    H2 5050   4.855   3.795   2.484  1.7062 -2.7773  1.5629
 1696TIP3   OH2 5051   0.552   3.908   0.718  0.5897 -0.7449  0.0946
 1696TIP3    H1 5052   0.559   3.892   0.624  0.0201 -0.1781 -0.0524
 1696TIP3    H2 5053   0.642   3.917   0.749  0.7598 -0.5453 -0.4629
 1697TIP3   OH2 5054   2.642   0.696   1.184 -0.4573 -0.7576 -0.3506
 1697TIP3    H1 5055   2.699   0.660   1.252 -0.9358 -3.5318 -1.2763
 1697TIP3    H2 5056   2.553   0.679   1.216 -0.6890 -1.4295 -1.3321
 1698TIP3   OH2 5057   1.164   3.350   3.538  0.1215  0.3448  0.0587
 1698TIP3    H1 5058   1.196   3.261   3.522  1.6087  1.0677 -1.2084
 1698TIP3    H2 5059   1.210   3.378   3.617 -0.5851 -0.0927  0.6422
 1699TIP3   OH2 5060   1.308   0.879   1.261  1.2870  0.0989  0.2405
 1699TIP3    H1 5061   1.331   0.818   1.331  0.2776  0.4155  0.8668
 1699TIP3    H2 5062   1.370   0.859   1.191  1.5062 -1.0745  0.7441
 1700TIP3   OH2 5063   4.974   3.561   4.558  0.4850  0.8734 -0.0703
 1700TIP3    H1 5064   4.910   3.631   4.543  0.7728  0.3930 -5.8064
 1700TIP3    H2 5065   5.058   3.600   4.536  1.2217 -0.2403  0.6940
 1701TIP3   OH2 5066   5.173   3.831   2.866  0.3867  0.8818 -0.2071
 1701TIP3    H1 5067   5.227   3.862   2.939  0.1312  2.0079 -0.4642
 1701TIP3    H2 5068   5.109   3.901   2.852 -0.8603 -0.2286 -0.2111
 1702TIP3   OH2 5069   2.275   3.878   5.840 -0.8049 -0.0695 -0.4407
 1702TIP3    H1 5070   2.211   3.846   5.903  0.1398 -0.8165  0.1659
 1702TIP3    H2 5071   2.347   3.815   5.844  0.6176  1.5014 -0.0392
 1703TIP3   OH2 5072   6.431   0.233   5.043  0.2028 -0.1469  0.2105
 1703TIP3    H1 5073   6.415   0.184   5.124 -0.0821  0.3319  0.4466
 1703TIP3    H2 5074   6.355   0.291   5.035 -1.4026 -2.3379 -2.0225
 1704TIP3   OH2 5075   0.429   3.725   0.499  0.1300  0.1573  0.3255
 1704TIP3    H1 5076   0.415   3.814   0.467  0.6706 -0.0651 -0.5644
 1704TIP3    H2 5077   0.351   3.705   0.551 -0.7163  0.5876 -0.7539
 1705TIP3   OH2 5078   3.142   6.579   0.966  0.1442  0.5018  0.1929
 1705TIP3    H1 5079   3.168   6.584   0.874 -0.8060 -1.0062 -0.2013
 1705TIP3    H2 5080   3.129   6.670   0.993  2.6204  1.1321 -0.4760
 1706TIP3   OH2 5081   1.153   6.465   5.377  0.2236 -0.6555 -0.3558
 1706TIP3    H1 5082   1.078   6.525   5.373  0.7103 -0.0797 -0.8628
 1706TIP3    H2 5083   1.145   6.424   5.464 -0.6301 -0.5428 -0.3658
 1707TIP3   OH2 5084   6.418   3.644   5.554  0.0221 -0.1352  0.0309
 1707TIP3    H1 5085   6.421   3.560   5.508 -2.5640  0.0948 -0.7224
 1707TIP3    H2 5086   6.480   3.634   5.627  0.9459 -2.0914 -0.9446
 1708TIP3   OH2 5087   3.702   0.133   5.872  0.1547 -0.3343 -0.4731
 1708TIP3    H1 5088   3.694   0.098   5.783 -0.7726 -1.3615 -0.0034
 1708TIP3    H2 5089   3.695   0.057   5.929  0.8208  0.3030  0.4949
 1709TIP3   OH2 5090   4.189   2.442   1.023  0.4116 -0.1849 -0.1032
 1709TIP3    H1 5091   4.274   2.484   1.011 -0.2022  0.5253 -2.3899
 1709TIP3    H2 5092   4.129   2.514   1.039 -0.3393 -0.2816 -2.2185
 1710TIP3   OH2 5093   0.231   4.066   0.944 -0.1068 -0.3825 -0.2154
 1710TIP3    H1 5094   0.275   3.985   0.918 -1.2944 -1.1557  0.0834
 1710TIP3    H2 5095   0.299   4.133   0.943  0.8121 -1.3117 -0.8581
 1711TIP3   OH2 5096   0.934   5.607   3.288 -0.3028 -0.3430  0.3167
 1711TIP3    H1 5097   0.974   5.605   3.375 -0.1561  0.4501  0.2710
 1711TIP3    H2 5098   1.003   5.637   3.230 -0.0361 -2.0288 -0.2927
 1712TIP3   OH2 5099   2.734   1.599   5.560 -0.0391  0.0839  0.6925
 1712TIP3    H1 5100   2.727   1.548   5.641  0.8631 -0.4131  0.4704
 1712TIP3    H2 5101   2.708   1.538   5.491  0.4353  0.1082  0.4865
 1713TIP3   OH2 5102   3.157   4.563   2.971 -0.0940  0.6726  0.1678
 1713TIP3    H1 5103   3.118   4.480   3.000 -1.1391  1.7525  2.0694
 1713TIP3    H2 5104   3.251   4.547   2.975 -0.2818 -0.5289  0.1772
 1714TIP3   OH2 5105   6.180   2.295   4.275 -0.1298 -0.1041 -0.0757
 1714TIP3    H1 5106   6.097   2.342   4.286  0.2734  1.0540 -1.5535
 1714TIP3    H2 5107   6.161   2.227   4.210 -0.1047 -0.3204  0.1439
 1715TIP3   OH2 5108   4.488   3.553   4.535 -0.8482  0.1820 -0.4271
 1715TIP3    H1 5109   4.436   3.521   4.609 -2.8488  2.4069 -0.7369
 1715TIP3    H2 5110   4.478   3.484   4.468 -2.5232  0.0118 -0.0610
 1716TIP3   OH2 5111   5.390   1.253   3.789  0.0235 -0.3491 -0.4787
 1716TIP3    H1 5112   5.310   1.270   3.740 -0.0647  0.6941 -0.0047
 1716TIP3    H2 5113   5.402   1.158   3.785 -1.0287 -0.4710 -0.8696
 1717TIP3   OH2 5114   2.497   4.097   4.287  0.1847  0.5535 -0.2981
 1717TIP3    H1 5115   2.454   4.019   4.323 -1.4042  1.9687  1.0569
 1717TIP3    H2 5116   2.550   4.131   4.360  0.6797  0.8696 -0.8008
 1718TIP3   OH2 5117   3.608   2.400   2.867 -0.0179  0.3539 -0.2604
 1718TIP3    H1 5118   3.552   2.381   2.942  0.3634 -1.7395 -0.4437
 1718TIP3    H2 5119   3.691   2.358   2.889 -0.6604 -2.6271 -2.8620
 1719TIP3   OH2 5120   7.131   2.748   0.216  0.1399 -0.2128  0.1177
 1719TIP3    H1 5121   7.146   2.770   0.124 -0.9311 -1.8914 -0.5092
 1719TIP3    H2 5122   7.036   2.741   0.224  0.1143  1.1458  1.6999
 1720TIP3   OH2 5123   0.806   1.975   1.056  0.3211 -0.6589  0.0515
 1720TIP3    H1 5124   0.891   2.017   1.066 -1.1339  2.6415 -0.3159
 1720TIP3    H2 5125   0.786   1.941   1.143  1.3034 -0.0198  0.5401
 1721TIP3   OH2 5126   2.962   0.569   3.272  0.3318  0.1713 -0.2734
 1721TIP3    H1 5127   3.029   0.520   3.224  0.6112 -0.2855  0.5618
 1721TIP3    H2 5128   2.963   0.657   3.233  1.9827  0.4124  0.2444
 1722TIP3   OH2 5129   4.271   0.906   4.343 -0.5723 -0.3399  0.1412
 1722TIP3    H1 5130   4.261   0.970   4.273 -1.6698  0.9367  1.4080
 1722TIP3    H2 5131   4.197   0.846   4.331 -0.4278 -0.4673 -0.1252
 1723TIP3   OH2 5132   5.405   4.852   4.370  0.1555 -0.3151 -0.1657
 1723TIP3    H1 5133   5.443   4.897   4.445  0.7453 -1.4908  0.2609
 1723TIP3    H2 5134   5.392   4.762   4.400 -1.6614 -0.2952 -0.7596
 1724TIP3   OH2 5135   4.539   3.376   1.809 -0.5987  0.3558 -0.0570
 1724TIP3    H1 5136   4.503   3.380   1.897  1.1777  3.0070  0.6862
 1724TIP3    H2 5137   4.628   3.411   1.818 -0.3007  0.5748 -2.8811
 1725TIP3   OH2 5138   6.124   4.808   1.948 -0.6628  0.0507 -0.1366
 1725TIP3    H1 5139   6.033   4.835   1.961 -0.3209  0.8427  0.7785
 1725TIP3    H2 5140   6.160   4.874   1.889  0.3503  2.1496  2.6138
 1726TIP3   OH2 5141   5.137   2.326   1.066 -0.3563  0.0344 -0.0241
 1726TIP3    H1 5142   5.172   2.291   1.149 -0.3074 -0.3273 -0.1932
 1726TIP3    H2 5143   5.148   2.254   1.004 -1.0157  0.0625 -0.1820
 1727TIP3   OH2 5144   3.280   3.227   2.138 -0.2639  0.1625  0.3640
 1727TIP3    H1 5145   3.314   3.274   2.062  0.4963  0.9201  1.1478
 1727TIP3    H2 5146   3.339   3.152   2.149 -0.0795  0.3260  0.4944
 1728TIP3   OH2 5147   1.495   4.720   1.008 -0.4801 -0.1883 -0.0470
 1728TIP3    H1 5148   1.577   4.731   0.961 -1.2199 -1.1191 -1.6116
 1728TIP3    H2 5149   1.464   4.810   1.023 -0.7339  0.1658 -2.3168
 1729TIP3   OH2 5150   7.128   2.826   5.502 -0.1816  0.0286 -0.0360
 1729TIP3    H1 5151   7.099   2.917   5.506  1.0088  0.4142  0.4113
 1729TIP3    H2 5152   7.202   2.827   5.441  0.8941 -0.3011  1.2069
 1730TIP3   OH2 5153   2.168   4.485   1.822  0.1856 -0.0927  0.5875
 1730TIP3    H1 5154   2.093   4.426   1.828  0.2863 -0.1601  1.1678
 1730TIP3    H2 5155   2.223   4.463   1.897  0.1275  0.8603  0.9253
 1731TIP3   OH2 5156   3.980   4.624   5.724 -0.0877 -0.3039 -0.0519
 1731TIP3    H1 5157   3.924   4.577   5.787 -2.6849  2.1517 -0.2959
 1731TIP3    H2 5158   4.004   4.704   5.769 -0.5577  0.7263 -1.5691
 1732TIP3   OH2 5159   4.144   0.536   2.251  0.0898 -0.5839 -0.6755
 1732TIP3    H1 5160   4.226   0.579   2.226 -0.3712  0.9630  0.3069
 1732TIP3    H2 5161   4.075   0.591   2.213 -0.5245 -0.3144  0.7654
 1733TIP3   OH2 5162   1.339   1.114   2.824  0.9437 -0.4710  0.6239
 1733TIP3    H1 5163   1.301   1.156   2.901 -3.2850 -1.1893 -0.7893
 1733TIP3    H2 5164   1.393   1.182   2.784 -0.3351  1.4231  1.9069
 1734TIP3   OH2 5165   0.085   2.174   5.621 -0.1495  0.3953 -0.3741
 1734TIP3    H1 5166  -0.009   2.159   5.608 -0.0590  0.4165 -1.1006
 1734TIP3    H2 5167   0.090   2.230   5.698 -0.7346  0.3868 -0.3254
 1735TIP3   OH2 5168   4.274   4.543   5.843 -0.4309 -0.7930  0.1044
 1735TIP3    H1 5169   4.211   4.526   5.773  0.4499  1.6585 -1.4128
 1735TIP3    H2 5170   4.359   4.518   5.806  0.1012  0.9550  0.0526
 1736TIP3   OH2 5171   1.741   4.421   0.792  0.0461  0.2685 -0.2914
 1736TIP3    H1 5172   1.721   4.374   0.711  0.9762  0.5731 -0.7142
 1736TIP3    H2 5173   1.812   4.371   0.832  1.2356  1.4256 -0.8853
 1737TIP3   OH2 5174   2.947   6.678   1.367  0.1691 -0.3826 -0.0858
 1737TIP3    H1 5175   2.870   6.722   1.403  0.0296 -1.4015  0.9155
 1737TIP3    H2 5176   2.923   6.585   1.366  1.0200 -0.6091 -0.7072
 1738TIP3   OH2 5177   2.853   5.748   5.759 -0.1145  0.4184  0.2740
 1738TIP3    H1 5178   2.889   5.812   5.699 -1.5452 -0.1770 -1.2893
 1738TIP3    H2 5179   2.920   5.737   5.826  1.6356  0.9276 -1.3306
 1739TIP3   OH2 5180   6.327   6.158   1.106  0.2125 -0.8213 -0.0618
 1739TIP3    H1 5181   6.288   6.071   1.113  1.4619 -1.4652 -0.7819
 1739TIP3    H2 5182   6.342   6.185   1.197  0.3773 -1.6350  0.1643
 1740TIP3   OH2 5183   6.296   5.161   2.464  0.4560  0.0479  0.6697
 1740TIP3    H1 5184   6.305   5.256   2.470  1.8728 -0.0264 -0.0806
 1740TIP3    H2 5185   6.371   5.126   2.512  1.5054 -0.6479 -1.3705
 1741TIP3   OH2 5186   4.293   4.990   5.190 -0.4945 -0.0808 -0.4442
 1741TIP3    H1 5187   4.212   4.944   5.169 -1.1154  1.1177 -0.7833
 1741TIP3    H2 5188   4.356   4.958   5.127 -0.4262 -1.6930  0.3793
 1742TIP3   OH2 5189   4.534   0.131   4.588  0.1818 -0.7418 -0.4022
 1742TIP3    H1 5190   4.488   0.149   4.506  0.8239  1.6315 -0.2970
 1742TIP3    H2 5191   4.626   0.138   4.566  0.3658  2.1040  0.8762
 1743TIP3   OH2 5192   0.977   4.695   3.308 -0.6087 -0.2233  0.3739
 1743TIP3    H1 5193   0.906   4.677   3.246  0.8620  1.3408 -1.8999
 1743TIP3    H2 5194   0.970   4.789   3.325  2.1310  0.4698 -1.6690
 1744TIP3   OH2 5195   2.401   3.268   1.076 -0.5393  0.2665  0.0664
 1744TIP3    H1 5196   2.322   3.231   1.038  1.0130 -1.0412 -2.1354
 1744TIP3    H2 5197   2.390   3.257   1.170 -2.2426 -1.4742 -0.2752
 1745TIP3   OH2 5198   7.169   1.560   4.149  0.3361 -0.5776  0.3641
 1745TIP3    H1 5199   7.174   1.501   4.074 -0.6121 -0.1954 -0.0213
 1745TIP3    H2 5200   7.075   1.565   4.169  0.4957  0.0311  1.0006
 1746TIP3   OH2 5201   2.643   1.526   2.340 -0.3743  0.7528 -0.5586
 1746TIP3    H1 5202   2.620   1.499   2.429 -0.4091  2.0276 -0.1695
 1746TIP3    H2 5203   2.683   1.448   2.302 -2.9855 -0.7545 -0.4305
 1747TIP3   OH2 5204   2.165   5.340   2.935 -0.1768  0.2434  0.4957
 1747TIP3    H1 5205   2.103   5.271   2.958 -1.1196  1.4114  1.5539
 1747TIP3    H2 5206   2.138   5.368   2.847  0.8913 -1.4089 -0.4387
 1748TIP3   OH2 5207   1.819   2.550   4.516  0.1618  0.3918 -0.4568
 1748TIP3    H1 5208   1.908   2.584   4.515  0.1416  0.6120  1.4550
 1748TIP3    H2 5209   1.771   2.610   4.572 -0.4616 -1.3429  0.9575
 1749TIP3   OH2 5210   6.368   4.535   1.225  0.4296 -0.1185 -0.6307
 1749TIP3    H1 5211   6.435   4.481   1.267 -0.9409 -1.1276  0.3916
 1749TIP3    H2 5212   6.396   4.625   1.239  0.1963 -0.4063  2.2990
 1750TIP3   OH2 5213   7.033   5.755   1.140  0.1585 -0.0266  0.6473
 1750TIP3    H1 5214   7.088   5.734   1.215  2.5543 -0.5256 -1.1474
 1750TIP3    H2 5215   6.947   5.720   1.163  1.5796 -3.0755  1.8411
 1751TIP3   OH2 5216   2.178   1.862   4.460  0.8890 -0.6628  0.8717
 1751TIP3    H1 5217   2.186   1.877   4.555  0.7878 -1.9790  1.1061
 1751TIP3    H2 5218   2.144   1.945   4.426 -0.9422 -0.7652  2.2578
 1752TIP3   OH2 5219   4.122   4.592   0.113 -0.3855  0.0712 -0.3354
 1752TIP3    H1 5220   4.063   4.666   0.102  0.2985  0.8415  0.9797
 1752TIP3    H2 5221   4.204   4.630   0.146  0.0331 -1.2422  0.2307
 1753TIP3   OH2 5222   0.453   1.896   2.399  0.4236  0.2547  0.2223
 1753TIP3    H1 5223   0.383   1.932   2.453 -1.2471  0.1029 -1.7215
 1753TIP3    H2 5224   0.531   1.903   2.453 -0.9998  0.8364  2.3172
 1754TIP3   OH2 5225   2.674   0.322   5.072  0.0563 -0.7479  0.9784
 1754TIP3    H1 5226   2.730   0.316   5.149  2.8355  3.4385 -0.3755
 1754TIP3    H2 5227   2.623   0.402   5.086 -2.4574 -2.0845  0.1289
 1755TIP3   OH2 5228   1.551   1.758   4.345  0.6257 -0.0105 -0.0398
 1755TIP3    H1 5229   1.532   1.850   4.361 -0.8394 -0.3988  0.5873
 1755TIP3    H2 5230   1.587   1.725   4.427  0.1915 -0.2376  0.0603
 1756TIP3   OH2 5231   2.117   1.070   0.418 -0.3459  0.4317  0.2317
 1756TIP3    H1 5232   2.137   1.105   0.505 -0.3396  0.6688  0.1337
 1756TIP3    H2 5233   2.095   1.146   0.365 -0.4704  0.2757  0.0558
 1757TIP3   OH2 5234   3.981   4.549   3.235  0.7496 -0.0349  0.2982
 1757TIP3    H1 5235   3.981   4.465   3.281  0.5478 -0.2843 -0.1520
 1757TIP3    H2 5236   3.924   4.535   3.159 -3.5027  1.9190  2.7626
 1758TIP3   OH2 5237   5.607   6.490   5.544  0.5791 -0.0903 -0.6583
 1758TIP3    H1 5238   5.631   6.580   5.523 -0.9446  0.6242  0.4818
 1758TIP3    H2 5239   5.531   6.498   5.602  1.8181 -2.0147  1.4174
 1759TIP3   OH2 5240   5.757   0.462   0.837  0.1671 -0.0175  0.1481
 1759TIP3    H1 5241   5.808   0.382   0.830 -0.4706 -0.4261  0.1654
 1759TIP3    H2 5242   5.669   0.438   0.807 -0.1784  0.5237  0.7020
 1760TIP3   OH2 5243   3.901   5.075   5.865  0.7788  0.0157  0.1764
 1760TIP3    H1 5244   3.815   5.115   5.857  0.7369  0.3662  1.9321
 1760TIP3    H2 5245   3.958   5.145   5.895  1.4043 -0.4928  0.1990
 1761TIP3   OH2 5246   3.064   2.892   2.373  0.5607 -0.7034  0.0851
 1761TIP3    H1 5247   3.070   2.798   2.358 -0.9585 -0.8163  0.0892
 1761TIP3    H2 5248   2.993   2.903   2.436  0.0766  0.4887 -0.6203
 1762TIP3   OH2 5249   0.319   1.234   3.684 -0.8806  0.7854 -0.0201
 1762TIP3    H1 5250   0.261   1.232   3.761  0.9979  0.8407  1.4642
 1762TIP3    H2 5251   0.284   1.167   3.626 -0.9389 -1.0323  2.0021
 1763TIP3   OH2 5252   2.040   3.327   2.221  0.0753  0.3125  0.0905
 1763TIP3    H1 5253   2.017   3.240   2.187 -1.6867  0.4182  0.9080
 1763TIP3    H2 5254   2.081   3.309   2.306  0.5149  0.2603 -0.1269
 1764TIP3   OH2 5255   4.962   5.411   0.199 -0.0716 -0.2318 -0.2455
 1764TIP3    H1 5256   4.931   5.480   0.259  0.4115 -1.4072  1.4339
 1764TIP3    H2 5257   5.015   5.354   0.254 -0.4171 -1.9398 -1.5918
 1765TIP3   OH2 5258   1.808   2.180   1.857 -0.8916 -0.7430  0.0620
 1765TIP3    H1 5259   1.791   2.086   1.865  2.9332 -1.6450 -0.6950
 1765TIP3    H2 5260   1.806   2.212   1.947  1.1775 -2.3204  0.7355
 1766TIP3   OH2 5261   2.852   4.892   0.197 -0.3845 -0.2003 -0.0259
 1766TIP3    H1 5262   2.872   4.955   0.267  0.3060  0.7642 -1.0590
 1766TIP3    H2 5263   2.757   4.881   0.202 -0.5330  0.9912  0.1322
 1767TIP3   OH2 5264   4.973   2.940   0.564 -0.6449  0.1617  0.7900
 1767TIP3    H1 5265   4.906   2.991   0.609 -1.5743 -0.3119 -0.0239
 1767TIP3    H2 5266   4.974   2.856   0.610 -2.3058 -0.6949 -0.6129
 1768TIP3   OH2 5267   0.481   0.512   3.985 -0.7912  0.1002  0.0971
 1768TIP3    H1 5268   0.475   0.447   4.055  0.0587 -1.0391 -0.8497
 1768TIP3    H2 5269   0.504   0.593   4.030  1.2806 -0.9258  1.0263
 1769TIP3   OH2 5270   5.755   0.307   4.774  0.2191 -0.6794  0.1076
 1769TIP3    H1 5271   5.755   0.401   4.757 -2.4068 -0.5050  0.5406
 1769TIP3    H2 5272   5.797   0.298   4.860 -0.8797  0.3255  0.7894
 1770TIP3   OH2 5273   4.668   5.851   4.813 -0.4695  0.2569  0.6891
 1770TIP3    H1 5274   4.697   5.915   4.749  0.6848 -0.7771  0.1467
 1770TIP3    H2 5275   4.573   5.847   4.802 -0.4107  0.9385 -0.1335
 1771TIP3   OH2 5276   1.853   4.966   3.077  0.4902  0.0198  0.3185
 1771TIP3    H1 5277   1.908   4.917   3.138 -0.5327  0.7956  1.9581
 1771TIP3    H2 5278   1.913   5.026   3.033  1.2573 -0.5203  0.6068
 1772TIP3   OH2 5279   0.606   2.800   0.232  0.0508  0.1386  0.2672
 1772TIP3    H1 5280   0.580   2.713   0.201  0.0761  0.4050 -0.5052
 1772TIP3    H2 5281   0.564   2.860   0.171  1.1441  0.6282 -0.0051
 1773TIP3   OH2 5282   6.412   1.721   1.629  0.2554  0.0541 -0.1616
 1773TIP3    H1 5283   6.346   1.762   1.573 -2.0690 -0.9537  1.6640
 1773TIP3    H2 5284   6.384   1.742   1.718  2.2475 -0.7291  0.7089
 1774TIP3   OH2 5285   1.625   4.391   3.314 -0.1697  0.0294 -0.1993
 1774TIP3    H1 5286   1.704   4.383   3.368 -1.2055  1.3671  1.6174
 1774TIP3    H2 5287   1.658   4.412   3.227  1.5032 -0.4131  0.2905
 1775TIP3   OH2 5288   2.565   5.471   4.594 -0.2839  0.0011  0.0915
 1775TIP3    H1 5289   2.658   5.457   4.577 -0.2554 -0.6062  0.6930
 1775TIP3    H2 5290   2.536   5.389   4.636 -1.0567  0.2319  0.0158
 1776TIP3   OH2 5291   4.077   6.005   5.739 -0.2374 -0.0635 -0.4390
 1776TIP3    H1 5292   4.006   5.941   5.753 -0.6064  0.7926  2.0706
 1776TIP3    H2 5293   4.157   5.952   5.743 -0.6080 -0.6224 -0.2110
 1777TIP3   OH2 5294   1.895   3.066   0.874  0.1558  0.2112  0.3036
 1777TIP3    H1 5295   1.822   3.122   0.898 -1.1092 -0.6024 -1.3942
 1777TIP3    H2 5296   1.856   2.978   0.867  1.1248 -0.1367 -1.2243
 1778TIP3   OH2 5297   7.175   1.460   3.886  0.0802  0.1929  0.0008
 1778TIP3    H1 5298   7.110   1.499   3.827  1.0333  1.3637 -0.3213
 1778TIP3    H2 5299   7.142   1.372   3.903 -1.0053  0.3664 -1.0556
 1779TIP3   OH2 5300   4.449   2.655   4.544 -0.1907  0.1160 -0.1927
 1779TIP3    H1 5301   4.414   2.582   4.491  1.0360  0.8750 -2.1611
 1779TIP3    H2 5302   4.420   2.734   4.498 -0.4377  0.8848  1.2208
 1780TIP3   OH2 5303   2.859   0.415   5.271 -0.4730 -0.6156  0.4142
 1780TIP3    H1 5304   2.928   0.374   5.324 -1.6174 -1.4733  1.3077
 1780TIP3    H2 5305   2.795   0.447   5.335 -1.3398 -0.6411 -0.4034
 1781TIP3   OH2 5306   1.442   4.023   2.784  0.2174  0.5768  0.0972
 1781TIP3    H1 5307   1.439   4.071   2.866 -1.1792  1.6757 -0.5472
 1781TIP3    H2 5308   1.422   4.088   2.717  1.2523 -0.3056 -1.1286
 1782TIP3   OH2 5309   6.107   0.718   5.682  0.4052 -0.5817 -0.9511
 1782TIP3    H1 5310   6.186   0.768   5.662 -0.2472  0.2830 -1.4276
 1782TIP3    H2 5311   6.083   0.677   5.599 -0.0928 -0.1871 -1.0089
 1783TIP3   OH2 5312   4.131   4.284   0.070  0.0818  0.4173  0.3456
 1783TIP3    H1 5313   4.076   4.361   0.056 -0.2903  0.0844 -0.0807
 1783TIP3    H2 5314   4.218   4.319   0.086  0.0466  0.9104 -0.4800
 1784TIP3   OH2 5315   5.332   2.004   4.666  0.1228 -0.1698  0.0320
 1784TIP3    H1 5316   5.382   1.964   4.737  0.0972 -0.6897 -0.2335
 1784TIP3    H2 5317   5.394   2.059   4.619 -0.0618  0.8710  0.9712
 1785TIP3   OH2 5318   3.342   2.762   3.423 -0.5486 -0.0414  0.3656
 1785TIP3    H1 5319   3.312   2.759   3.513 -1.7058 -1.4531 -0.0366
 1785TIP3    H2 5320   3.284   2.702   3.376 -0.2632  1.0077 -1.4052
 1786TIP3   OH2 5321   4.916   2.747   1.481 -0.0653 -0.7275 -0.0450
 1786TIP3    H1 5322   4.939   2.764   1.389 -0.5183 -0.7931 -0.1724
 1786TIP3    H2 5323   4.826   2.715   1.478 -1.4903  2.7225  0.6855
 1787TIP3   OH2 5324   0.566   5.536   5.440 -0.0103  0.2432  0.0256
 1787TIP3    H1 5325   0.472   5.523   5.452 -0.1459  1.5728  0.6036
 1787TIP3    H2 5326   0.606   5.501   5.520  0.0905 -1.1937 -0.6300
 1788TIP3   OH2 5327   4.112   0.956   4.992  0.3325  0.1608 -0.5651
 1788TIP3    H1 5328   4.121   0.990   4.903 -0.4643 -0.8431 -1.0595
 1788TIP3    H2 5329   4.132   0.863   4.983 -0.3043 -0.0544  0.1953
 1789TIP3   OH2 5330   3.035   6.186   3.060  0.4859 -0.2812 -0.5680
 1789TIP3    H1 5331   2.951   6.224   3.085 -0.4423 -3.2420  1.3193
 1789TIP3    H2 5332   3.022   6.157   2.969 -0.7846 -1.1630 -0.1358
 1790TIP3   OH2 5333   1.874   5.990   3.274  0.3577 -0.5944  0.7799
 1790TIP3    H1 5334   1.883   5.902   3.238  2.9877  0.3585 -1.2468
 1790TIP3    H2 5335   1.943   5.996   3.340  1.0000  0.2935  0.0451
 1791TIP3   OH2 5336   3.616   0.080   0.680 -0.2492 -0.5319  0.0969
 1791TIP3    H1 5337   3.662   0.161   0.658  0.5973 -0.6680  1.2934
 1791TIP3    H2 5338   3.648   0.017   0.616  1.1903 -0.5941  0.8360
 1792TIP3   OH2 5339   0.328   2.045   5.528 -0.3641  0.0152  0.5118
 1792TIP3    H1 5340   0.320   1.959   5.487 -0.1448 -0.9527  2.3817
 1792TIP3    H2 5341   0.240   2.065   5.560 -0.7955  1.2798 -1.2912
 1793TIP3   OH2 5342   1.292   2.035   5.246 -0.3835 -0.5001 -0.6151
 1793TIP3    H1 5343   1.320   1.962   5.191 -0.2466  0.1363 -1.4057
 1793TIP3    H2 5344   1.349   2.029   5.324  1.1855  0.0690 -1.6616
 1794TIP3   OH2 5345   7.198   6.099   2.770 -0.4284  0.1654  0.6696
 1794TIP3    H1 5346   7.156   6.064   2.692  0.8694 -0.2829  0.1343
 1794TIP3    H2 5347   7.129   6.147   2.816 -1.3799 -0.1527 -0.3892
 1795TIP3   OH2 5348   2.347   2.140   4.208  0.0711  0.3512  0.7402
 1795TIP3    H1 5349   2.274   2.158   4.149  1.6206  2.6000 -0.6637
 1795TIP3    H2 5350   2.310   2.145   4.296 -2.1789 -2.4115  0.0882
 1796TIP3   OH2 5351   4.716   6.323   3.626  0.2857 -0.2103 -0.7287
 1796TIP3    H1 5352   4.730   6.308   3.532 -0.1992  0.3575 -0.8996
 1796TIP3    H2 5353   4.764   6.404   3.644  1.9302 -1.2969 -0.0713
 1797TIP3   OH2 5354   6.146   5.912   5.424 -0.0889  0.4627 -0.4573
 1797TIP3    H1 5355   6.091   5.907   5.347  0.3929 -1.1324 -0.7510
 1797TIP3    H2 5356   6.117   5.990   5.471 -0.2731  1.5523 -2.3203
 1798TIP3   OH2 5357   6.389   2.306   5.480 -0.2457 -0.3502 -0.0665
 1798TIP3    H1 5358   6.302   2.313   5.440  0.1937 -1.2200 -1.2291
 1798TIP3    H2 5359   6.375   2.255   5.560 -0.8007 -0.4959 -0.2533
 1799TIP3   OH2 5360   5.650   4.495   4.580 -0.1337 -1.0382  0.3510
 1799TIP3    H1 5361   5.591   4.544   4.523  0.1459 -0.6489  0.3910
 1799TIP3    H2 5362   5.726   4.475   4.525  0.0012 -0.9312  0.4987
 1800TIP3   OH2 5363   1.232   2.675   1.464  0.0564 -0.1527 -0.2750
 1800TIP3    H1 5364   1.233   2.655   1.558 -2.4131 -0.3095 -0.2146
 1800TIP3    H2 5365   1.214   2.769   1.460 -1.5404 -0.4380 -0.5387
 1801TIP3   OH2 5366   1.146   4.955   5.444 -0.2652  0.0895 -0.2861
 1801TIP3    H1 5367   1.128   4.995   5.530  1.4841 -0.9362  0.6169
 1801TIP3    H2 5368   1.224   5.001   5.413  0.0196 -0.6000 -0.5975
 1802TIP3   OH2 5369   2.729   2.817   5.410 -0.1793  0.1727 -0.5412
 1802TIP3    H1 5370   2.778   2.743   5.376  0.6156  0.7031 -0.5800
 1802TIP3    H2 5371   2.755   2.823   5.502  0.9618  1.3235 -0.9052
 1803TIP3   OH2 5372   4.513   1.216   3.612  0.3962  0.2663  0.3081
 1803TIP3    H1 5373   4.525   1.270   3.691 -0.6244  1.9233 -0.6044
 1803TIP3    H2 5374   4.590   1.235   3.558  1.3907 -1.3173  1.1005
 1804TIP3   OH2 5375   4.394   4.617   2.037  0.4060  0.2786  0.4510
 1804TIP3    H1 5376   4.330   4.629   2.107  0.8880 -0.4988  1.0431
 1804TIP3    H2 5377   4.383   4.526   2.010 -1.3820  1.1308 -2.1318
 1805TIP3   OH2 5378   2.694   5.341   2.707 -0.3913 -0.1753 -0.4904
 1805TIP3    H1 5379   2.704   5.275   2.776 -0.9233 -0.4384 -0.6560
 1805TIP3    H2 5380   2.695   5.425   2.754 -0.6541 -0.3484 -0.1682
 1806TIP3   OH2 5381   5.208   5.002   2.560 -0.7035  0.0869  0.2137
 1806TIP3    H1 5382   5.121   5.036   2.538 -1.2154 -2.3615 -2.1359
 1806TIP3    H2 5383   5.267   5.075   2.541 -1.9637  0.6751 -1.8834
 1807TIP3   OH2 5384   4.920   0.851   5.064 -0.7565  0.0744 -0.0099
 1807TIP3    H1 5385   4.913   0.787   4.993 -2.7953  0.4248 -0.1914
 1807TIP3    H2 5386   4.977   0.919   5.029 -0.6819 -0.3876 -0.8258
 1808TIP3   OH2 5387   0.955   2.932   4.436 -0.0178  0.0603 -0.1127
 1808TIP3    H1 5388   0.998   3.014   4.415  0.1087  0.5791  1.9375
 1808TIP3    H2 5389   0.862   2.954   4.441  0.0576  0.2207  0.8803
 1809TIP3   OH2 5390   4.799   1.031   5.400 -0.3959  0.0350 -0.1249
 1809TIP3    H1 5391   4.757   1.110   5.436  0.5023  0.5166 -0.1021
 1809TIP3    H2 5392   4.782   1.037   5.306 -1.7506 -0.6233  0.0505
 1810TIP3   OH2 5393   1.411   1.281   4.171 -0.0413  0.2369 -0.4682
 1810TIP3    H1 5394   1.389   1.281   4.078 -0.4032 -2.0335 -0.4360
 1810TIP3    H2 5395   1.504   1.262   4.174 -0.1936 -0.5294 -0.3690
 1811TIP3   OH2 5396   6.710   5.641   3.025  0.2464  0.2829  0.4327
 1811TIP3    H1 5397   6.634   5.697   3.044  0.0122 -0.3203  1.3326
 1811TIP3    H2 5398   6.684   5.555   3.058  1.4399  0.1362  1.0074
 1812TIP3   OH2 5399   6.925   1.401   3.460  0.5007 -0.3657  0.2206
 1812TIP3    H1 5400   6.985   1.327   3.467 -1.4542 -2.0542 -0.1059
 1812TIP3    H2 5401   6.838   1.362   3.457 -0.5343  1.8194 -1.9538
 1813TIP3   OH2 5402   1.538   5.063   1.437  0.4263 -0.2442 -0.0363
 1813TIP3    H1 5403   1.490   5.013   1.372  0.2261  2.6821 -2.3707
 1813TIP3    H2 5404   1.608   5.106   1.388  1.2831  0.8374  1.9887
 1814TIP3   OH2 5405   1.401   4.286   0.755  0.3203 -0.0582 -0.6164
 1814TIP3    H1 5406   1.360   4.369   0.778  0.1140 -0.3495  0.0883
 1814TIP3    H2 5407   1.453   4.306   0.677  0.3651  0.7529 -0.3857
 1815TIP3   OH2 5408   7.151   6.670   3.701  0.3842  0.2066  0.3057
 1815TIP3    H1 5409   7.185   6.639   3.785 -1.1560 -2.6757 -0.0254
 1815TIP3    H2 5410   7.078   6.727   3.724  0.6451  0.3007  0.9152
 1816TIP3   OH2 5411   1.180   3.699   2.792 -0.6901 -0.2709  0.1207
 1816TIP3    H1 5412   1.167   3.791   2.817 -0.9248 -0.4433  0.6607
 1816TIP3    H2 5413   1.091   3.667   2.774 -0.4735  0.0330 -1.6639
 1817TIP3   OH2 5414   1.644   6.185   2.732  0.2124  0.2835 -0.1968
 1817TIP3    H1 5415   1.656   6.177   2.638  2.2752  0.0718  0.0282
 1817TIP3    H2 5416   1.683   6.106   2.769 -0.7221  0.2716  0.8436
 1818TIP3   OH2 5417   4.343   0.542   3.822  0.0768  0.5744 -0.2628
 1818TIP3    H1 5418   4.438   0.533   3.814  0.2657  1.0392  1.0728
 1818TIP3    H2 5419   4.322   0.619   3.770  0.4165  0.3823 -0.6863
 1819TIP3   OH2 5420   6.520   2.509   1.703 -0.3192 -1.1352  0.2171
 1819TIP3    H1 5421   6.571   2.468   1.773 -1.0958 -1.8460  0.3808
 1819TIP3    H2 5422   6.478   2.584   1.745  0.3887 -0.6869  0.1394
 1820TIP3   OH2 5423   4.013   2.218   5.690 -0.4068  0.4259  0.2452
 1820TIP3    H1 5424   4.040   2.130   5.716 -0.3609  0.6983  1.1659
 1820TIP3    H2 5425   4.027   2.271   5.768  0.5894  1.4799 -0.6147
 1821TIP3   OH2 5426   1.954   1.609   4.187 -0.0097 -0.2818 -0.0902
 1821TIP3    H1 5427   1.962   1.571   4.100 -0.8000 -3.2889  1.0221
 1821TIP3    H2 5428   2.004   1.550   4.244 -0.5509  0.8684  1.6710
 1822TIP3   OH2 5429   0.793   2.611   1.930  0.3410 -0.1003 -0.0189
 1822TIP3    H1 5430   0.886   2.594   1.940  0.3474  0.5687  1.3120
 1822TIP3    H2 5431   0.786   2.664   1.850  1.1558  0.2928  0.1696
 1823TIP3   OH2 5432   6.954   3.123   2.128 -0.1987  0.2134 -0.2636
 1823TIP3    H1 5433   7.024   3.078   2.081  0.4854 -0.0005  0.9183
 1823TIP3    H2 5434   6.999   3.169   2.199 -1.0530  1.6124 -0.5962
 1824TIP3   OH2 5435   6.558   1.241   4.512 -0.2791 -0.6709 -0.8952
 1824TIP3    H1 5436   6.502   1.306   4.553  0.0488 -0.9803  0.0593
 1824TIP3    H2 5437   6.512   1.218   4.431 -1.5392 -0.9212 -0.1397
 1825TIP3   OH2 5438   3.055   3.915   3.467  0.1356 -1.2391  0.4193
 1825TIP3    H1 5439   2.989   3.894   3.400 -0.0020 -1.3257  0.5816
 1825TIP3    H2 5440   3.007   3.912   3.550  0.2277 -0.7671  0.4882
 1826TIP3   OH2 5441   1.633   5.309   2.307  0.3463  0.5022  0.0443
 1826TIP3    H1 5442   1.723   5.312   2.276  0.1680 -0.8736 -0.6356
 1826TIP3    H2 5443   1.599   5.225   2.277 -1.5986  1.5681 -0.9005
 1827TIP3   OH2 5444   6.815   4.432   0.067 -0.2107  0.3620  0.1708
 1827TIP3    H1 5445   6.792   4.419  -0.025 -3.5981  3.2752  0.3820
 1827TIP3    H2 5446   6.827   4.344   0.101  0.4663 -0.8525 -2.8622
 1828TIP3   OH2 5447   5.824   5.069   5.140  0.0251  0.6478 -0.5517
 1828TIP3    H1 5448   5.812   5.128   5.214  0.9739 -0.6510  0.6885
 1828TIP3    H2 5449   5.735   5.043   5.115 -0.3287  1.5892 -0.3000
 1829TIP3   OH2 5450   1.639   1.534   1.146  0.0375 -0.2242  0.2235
 1829TIP3    H1 5451   1.666   1.571   1.062 -0.3233  1.5562  0.8257
 1829TIP3    H2 5452   1.547   1.560   1.155  0.2606  0.2205  1.4530
 1830TIP3   OH2 5453   0.015   2.365   1.060  0.2599 -0.2547 -0.4573
 1830TIP3    H1 5454  -0.050   2.413   1.008 -0.9925  0.6149  1.7650
 1830TIP3    H2 5455   0.050   2.429   1.121  0.9341 -1.4438  0.4613
 1831TIP3   OH2 5456   6.670   4.975   2.796  0.1088  0.4759  0.5014
 1831TIP3    H1 5457   6.618   4.943   2.722  0.4206  1.1605 -0.0234
 1831TIP3    H2 5458   6.660   4.907   2.863 -1.7131  0.7413  0.5342
 1832TIP3   OH2 5459   4.289   5.456   2.833  0.6266 -0.1640 -0.1942
 1832TIP3    H1 5460   4.312   5.548   2.828  1.3808 -0.2698  1.0525
 1832TIP3    H2 5461   4.193   5.455   2.826  0.6574  0.6375 -0.8730
 1833TIP3   OH2 5462   4.502   1.219   2.464  1.4685 -0.2048  0.0724
 1833TIP3    H1 5463   4.545   1.304   2.471  3.0947 -1.0684  1.1075
 1833TIP3    H2 5464   4.565   1.163   2.418  1.5994 -1.5612  1.8031
 1834TIP3   OH2 5465   4.223   5.724   0.907  0.4294  0.6310 -0.0391
 1834TIP3    H1 5466   4.239   5.674   0.827  0.5020  1.3143 -0.4697
 1834TIP3    H2 5467   4.156   5.674   0.954  1.5684 -0.6374  0.2866
 1835TIP3   OH2 5468   6.677   2.315   3.542  0.4048 -0.3136  0.0010
 1835TIP3    H1 5469   6.745   2.275   3.488 -1.9360 -2.5394 -1.5021
 1835TIP3    H2 5470   6.685   2.272   3.628  0.7846 -0.6927 -0.2248
 1836TIP3   OH2 5471   3.840   4.327   2.299 -0.2568  0.0164 -0.1824
 1836TIP3    H1 5472   3.913   4.367   2.347  1.7516 -1.6555 -1.6826
 1836TIP3    H2 5473   3.774   4.310   2.366  1.7165 -0.6389  1.7033
 1837TIP3   OH2 5474   1.308   5.861   2.970  0.0903  0.7102 -0.1753
 1837TIP3    H1 5475   1.254   5.847   3.047 -1.6221  0.5753 -1.3395
 1837TIP3    H2 5476   1.285   5.788   2.911  2.6575 -0.2092 -0.1665
 1838TIP3   OH2 5477   5.607   3.368   2.621  0.5575 -0.6073  0.7658
 1838TIP3    H1 5478   5.606   3.341   2.529  0.2804  0.8762  0.3204
 1838TIP3    H2 5479   5.668   3.307   2.663  1.2236 -0.8564 -0.5296
 1839TIP3   OH2 5480   1.483   3.429   5.391  0.5628  0.1471  0.0612
 1839TIP3    H1 5481   1.420   3.370   5.351  0.2395  0.3728  0.2323
 1839TIP3    H2 5482   1.457   3.434   5.483  0.9085  0.1412  0.1623
 1840TIP3   OH2 5483   5.237   3.632   1.132 -0.5171 -0.1161 -0.0545
 1840TIP3    H1 5484   5.331   3.628   1.147 -0.6473  0.3321  0.9629
 1840TIP3    H2 5485   5.212   3.542   1.113 -0.1978 -0.6353  1.7822
 1841TIP3   OH2 5486   4.648   0.455   3.544 -0.5822  0.1860  0.8689
 1841TIP3    H1 5487   4.700   0.391   3.495 -0.8038  0.1670  0.6555
 1841TIP3    H2 5488   4.625   0.521   3.479  0.5381  1.0436  1.3143
 1842TIP3   OH2 5489   1.502   3.452   1.904  0.3049  0.5736 -0.6676
 1842TIP3    H1 5490   1.430   3.508   1.934  0.3510  0.7752 -0.9337
 1842TIP3    H2 5491   1.515   3.390   1.976  0.4961  1.1303 -0.2100
 1843TIP3   OH2 5492   3.627   2.104   4.325  0.4319  0.3443  0.3687
 1843TIP3    H1 5493   3.636   2.013   4.355 -1.4910  0.1996  0.5959
 1843TIP3    H2 5494   3.582   2.149   4.396 -4.2653 -0.0049 -2.0153
 1844TIP3   OH2 5495   5.641   5.866   1.844 -0.0230 -0.0747 -0.0174
 1844TIP3    H1 5496   5.700   5.876   1.918 -0.4592  3.1782  0.0582
 1844TIP3    H2 5497   5.582   5.795   1.869  1.2937 -0.6167  1.6987
 1845TIP3   OH2 5498   4.112   0.697   3.107  0.4069  0.5914 -0.0287
 1845TIP3    H1 5499   4.111   0.755   3.031  0.9592 -0.2390 -0.6862
 1845TIP3    H2 5500   4.041   0.635   3.090  0.4728  0.4585  0.1810
 1846TIP3   OH2 5501   1.700   6.629   4.387  0.4632 -0.7982 -0.2612
 1846TIP3    H1 5502   1.641   6.558   4.360 -0.4604  0.5461 -1.9596
 1846TIP3    H2 5503   1.691   6.694   4.318  1.0147  1.1408  1.4233
 1847TIP3   OH2 5504   7.137   3.561   4.764  1.1921 -0.1827 -0.5473
 1847TIP3    H1 5505   7.158   3.638   4.711  1.0250 -0.2318 -0.6839
 1847TIP3    H2 5506   7.166   3.487   4.711 -0.7568 -0.3621 -1.4618
 1848TIP3   OH2 5507   6.464   2.790   1.519 -0.0156  0.3166  0.2077
 1848TIP3    H1 5508   6.412   2.723   1.475  0.1623 -1.5662  2.6090
 1848TIP3    H2 5509   6.554   2.772   1.493  0.0383 -0.4639  0.8955
 1849TIP3   OH2 5510   6.471   5.657   4.918  0.2802  0.3647 -0.4052
 1849TIP3    H1 5511   6.557   5.628   4.888 -0.2199 -1.1264 -0.4890
 1849TIP3    H2 5512   6.409   5.609   4.862 -0.7035 -2.5090  2.7930
 1850TIP3   OH2 5513   0.229   4.274   4.607  0.6016  0.2334  0.6273
 1850TIP3    H1 5514   0.162   4.338   4.585 -0.1998 -0.7006  0.3190
 1850TIP3    H2 5515   0.186   4.214   4.668  1.4999  0.2602  1.3213
 1851TIP3   OH2 5516   4.863   1.086   0.148 -0.9490  0.0303  0.3494
 1851TIP3    H1 5517   4.825   1.165   0.185 -0.8073 -0.4522  1.5976
 1851TIP3    H2 5518   4.830   1.082   0.058 -0.9548  1.4880  0.2756
 1852TIP3   OH2 5519   0.371   2.927   2.889  0.1836  0.1635 -0.2214
 1852TIP3    H1 5520   0.301   2.971   2.937  0.3470  1.5793 -1.2393
 1852TIP3    H2 5521   0.357   2.950   2.797  2.0650  0.6464 -0.4378
 1853TIP3   OH2 5522   7.137   3.743   4.518  0.3061 -0.2453  0.7132
 1853TIP3    H1 5523   7.170   3.735   4.428  1.0574  1.5833  0.7906
 1853TIP3    H2 5524   7.044   3.724   4.511  0.2918  0.1902 -0.5178
 1854TIP3   OH2 5525   1.239   1.436   0.906 -0.6642  0.1187  0.1406
 1854TIP3    H1 5526   1.303   1.379   0.864 -0.0527  0.2842  0.8285
 1854TIP3    H2 5527   1.169   1.377   0.935 -0.5775 -0.1284 -0.1484
 1855TIP3   OH2 5528   6.803   6.803   2.506  0.0069  0.4471  0.0832
 1855TIP3    H1 5529   6.850   6.723   2.530 -0.5870  0.4772  1.4554
 1855TIP3    H2 5530   6.871   6.870   2.499  0.3094  0.2358  0.8919
 1856TIP3   OH2 5531   5.888   4.758   2.161  0.4066 -0.3549 -0.2152
 1856TIP3    H1 5532   5.849   4.782   2.077 -0.7415 -0.6011  0.2400
 1856TIP3    H2 5533   5.827   4.695   2.199 -0.1504  1.2797  1.7228
 1857TIP3   OH2 5534   4.800   1.692   5.506  0.4023  0.4988  0.1231
 1857TIP3    H1 5535   4.752   1.745   5.442  0.6708 -0.5835 -1.0128
 1857TIP3    H2 5536   4.770   1.725   5.591 -0.3750  1.6070 -0.5475
 1858TIP3   OH2 5537   0.203   1.606   5.522  0.3732  0.3413  0.0397
 1858TIP3    H1 5538   0.169   1.525   5.483 -0.4683  0.2342  0.9642
 1858TIP3    H2 5539   0.127   1.662   5.531  0.6214  0.5216  1.1254
 1859TIP3   OH2 5540   5.066   1.115   2.470 -0.3074  0.2446  0.2892
 1859TIP3    H1 5541   5.056   1.169   2.548 -1.3591 -0.9333  0.9958
 1859TIP3    H2 5542   4.996   1.050   2.476  0.2874 -0.5612 -1.0591
 1860TIP3   OH2 5543   2.906   0.199   1.838 -0.1363  0.3964 -0.0196
 1860TIP3    H1 5544   2.909   0.104   1.844 -0.3731  0.0539 -3.3710
 1860TIP3    H2 5545   2.999   0.225   1.834 -0.0826  0.1996 -0.0749
 1861TIP3   OH2 5546   4.092   5.857   1.393 -0.3281  0.3917  0.2460
 1861TIP3    H1 5547   4.068   5.853   1.301 -0.3101  0.3395  0.2436
 1861TIP3    H2 5548   4.011   5.841   1.440 -0.5257  1.3350  0.2495
 1862TIP3   OH2 5549   6.492   5.802   2.940 -0.4386 -0.0909 -0.4914
 1862TIP3    H1 5550   6.464   5.715   2.968  1.8686 -0.8103 -0.1622
 1862TIP3    H2 5551   6.457   5.861   3.006 -0.1658 -1.0557  0.5566
 1863TIP3   OH2 5552   2.251   6.772   4.126  0.2365  0.1987  0.7034
 1863TIP3    H1 5553   2.319   6.839   4.125  0.6340 -0.1549 -1.5427
 1863TIP3    H2 5554   2.258   6.730   4.041 -0.2245 -2.4843  1.8832
 1864TIP3   OH2 5555   3.181   0.598   5.626  0.6468  0.4083  0.6113
 1864TIP3    H1 5556   3.157   0.652   5.550  3.1253  3.1380  1.5606
 1864TIP3    H2 5557   3.115   0.619   5.692 -0.1886 -0.1871 -0.0146
 1865TIP3   OH2 5558   0.504   0.881   1.821  0.7988 -0.6159  0.2550
 1865TIP3    H1 5559   0.523   0.787   1.818  1.6779 -0.4238 -0.9407
 1865TIP3    H2 5560   0.473   0.902   1.733  1.2192  0.3279  0.3185
 1866TIP3   OH2 5561   6.346   3.712   1.595 -0.2493  0.4062  0.2546
 1866TIP3    H1 5562   6.342   3.620   1.621  1.4354  0.4019  0.6069
 1866TIP3    H2 5563   6.257   3.743   1.606 -0.4802 -0.6998  2.0211
 1867TIP3   OH2 5564   2.309   0.390   1.091 -0.2446  0.0429  0.3490
 1867TIP3    H1 5565   2.229   0.398   1.040  0.1865 -2.2047 -0.8445
 1867TIP3    H2 5566   2.376   0.368   1.027  0.3618 -2.7489  1.7563
 1868TIP3   OH2 5567   3.653   2.038   2.989 -0.2202 -0.0511  0.4346
 1868TIP3    H1 5568   3.709   1.965   3.017 -0.3230  0.5904  2.4472
 1868TIP3    H2 5569   3.714   2.109   2.972 -0.3164  0.4154  1.8862
 1869TIP3   OH2 5570   6.285   6.248   3.625 -0.2218 -0.0534 -0.0435
 1869TIP3    H1 5571   6.276   6.279   3.535  1.9253  0.2066 -0.2213
 1869TIP3    H2 5572   6.252   6.159   3.623 -1.7533  0.4898 -0.6850
 1870TIP3   OH2 5573   5.385   4.162   4.830 -0.0675  0.5624 -0.1505
 1870TIP3    H1 5574   5.412   4.070   4.825  0.1014  0.5253  1.1666
 1870TIP3    H2 5575   5.468   4.210   4.826 -0.1279  0.6492 -0.4005
 1871TIP3   OH2 5576   1.778   1.687   1.313  0.2459  0.2711  0.6535
 1871TIP3    H1 5577   1.718   1.654   1.246  1.3946 -1.2314  0.3062
 1871TIP3    H2 5578   1.731   1.760   1.354 -1.7071 -0.7020  0.2587
 1872TIP3   OH2 5579   5.570   3.835   2.146 -0.5867 -0.7799 -0.1593
 1872TIP3    H1 5580   5.486   3.876   2.168  0.2005 -0.0322  1.7093
 1872TIP3    H2 5581   5.562   3.746   2.181 -0.6947 -0.8099 -0.2568
 1873TIP3   OH2 5582   0.119   2.304   0.232  0.0069 -0.4052  0.1036
 1873TIP3    H1 5583   0.135   2.304   0.138  1.2579  0.0297  0.2972
 1873TIP3    H2 5584   0.116   2.211   0.255 -0.2192 -0.5138 -0.3572
 1874TIP3   OH2 5585   5.625   4.855   5.498 -0.3135 -0.1881 -0.2372
 1874TIP3    H1 5586   5.597   4.799   5.426 -1.2486  0.7865 -0.6557
 1874TIP3    H2 5587   5.591   4.812   5.576 -0.1630 -0.7279 -0.4675
 1875TIP3   OH2 5588   1.956   0.851   3.015 -0.3064  0.0007 -0.4089
 1875TIP3    H1 5589   1.914   0.804   3.087 -1.2487  0.5025 -0.6116
 1875TIP3    H2 5590   1.934   0.801   2.937  1.6109 -1.1450 -0.2689
 1876TIP3   OH2 5591   0.029   2.027   2.780 -0.3755  0.0222 -0.2742
 1876TIP3    H1 5592   0.115   2.047   2.815 -0.4907  1.7741 -0.8859
 1876TIP3    H2 5593   0.046   1.974   2.702  0.0885 -0.3561  0.0830
 1877TIP3   OH2 5594   1.373   4.397   4.559  0.3461 -0.2172 -0.2050
 1877TIP3    H1 5595   1.428   4.454   4.613 -0.1808  0.2007 -0.0990
 1877TIP3    H2 5596   1.430   4.324   4.536  0.4094 -0.7226  1.4332
 1878TIP3   OH2 5597   0.321   4.211   4.325  0.0512 -0.0714  0.0567
 1878TIP3    H1 5598   0.265   4.287   4.339 -1.6676 -0.8197 -2.1288
 1878TIP3    H2 5599   0.266   4.136   4.348  1.5100 -0.7221  1.6059
 1879TIP3   OH2 5600   2.997   3.607   1.076 -0.1571 -0.5601  0.2922
 1879TIP3    H1 5601   2.980   3.577   0.987  0.2260  0.3360 -0.0914
 1879TIP3    H2 5602   2.962   3.537   1.132 -1.1527 -0.7457 -0.5391
 1880TIP3   OH2 5603   7.181   1.838   3.671  0.5943 -0.5434  0.2204
 1880TIP3    H1 5604   7.124   1.840   3.594  0.5089 -1.9642  0.2160
 1880TIP3    H2 5605   7.138   1.896   3.734 -1.4146 -2.2631  0.5537
 1881TIP3   OH2 5606   6.782   1.294   5.231 -0.0013  0.0019  0.4689
 1881TIP3    H1 5607   6.813   1.267   5.317 -0.7270 -2.0534  0.1467
 1881TIP3    H2 5608   6.858   1.333   5.188  1.0945 -1.4165  1.0690
 1882TIP3   OH2 5609   6.839   5.687   5.172 -0.0487 -0.0478 -0.1666
 1882TIP3    H1 5610   6.774   5.753   5.195 -0.2763 -0.8961  1.9273
 1882TIP3    H2 5611   6.833   5.679   5.077 -1.8504  1.0622 -0.2009
 1883TIP3   OH2 5612   0.441   6.517   1.592  0.6416 -0.0711 -0.1153
 1883TIP3    H1 5613   0.369   6.550   1.646 -0.8422  0.1262 -2.1087
 1883TIP3    H2 5614   0.456   6.586   1.527  1.3869 -0.9100 -0.8623
 1884TIP3   OH2 5615   5.346   5.429   4.880  0.0763  0.1963 -0.5656
 1884TIP3    H1 5616   5.271   5.473   4.840 -0.0172 -0.6148 -1.3098
 1884TIP3    H2 5617   5.410   5.499   4.894 -0.7107  0.8506 -0.1668
 1885TIP3   OH2 5618   6.811   5.119   3.525 -0.4327 -0.5076 -0.0483
 1885TIP3    H1 5619   6.825   5.153   3.614  0.3086 -1.1478  0.0947
 1885TIP3    H2 5620   6.732   5.066   3.532 -0.3088 -0.6551  0.2620
 1886TIP3   OH2 5621   1.057   1.505   2.900 -0.1262 -0.2959  0.1454
 1886TIP3    H1 5622   1.094   1.588   2.872 -0.6386 -0.0793  0.0975
 1886TIP3    H2 5623   0.975   1.529   2.945 -0.3957 -0.7847 -0.0726
 1887TIP3   OH2 5624   5.802   3.170   2.018 -0.1076  0.1585  0.8987
 1887TIP3    H1 5625   5.731   3.151   2.079 -0.9174  0.9276  0.2219
 1887TIP3    H2 5626   5.815   3.265   2.025  0.4094  0.1197  0.5293
 1888TIP3   OH2 5627   0.701   0.030   1.416  0.0749 -0.1002  0.2498
 1888TIP3    H1 5628   0.678  -0.057   1.450 -0.8947 -0.0912 -0.3281
 1888TIP3    H2 5629   0.617   0.074   1.405  0.5320  0.7752  0.1548
 1889TIP3   OH2 5630   0.712   2.998   2.132 -0.5569 -0.4531  0.1673
 1889TIP3    H1 5631   0.707   2.970   2.223  0.1644  0.1491  0.4002
 1889TIP3    H2 5632   0.709   3.093   2.136  3.1065 -0.1738 -0.1062
 1890TIP3   OH2 5633   2.180   5.053   1.717 -0.1406  0.2464  0.2016
 1890TIP3    H1 5634   2.266   5.096   1.723 -1.0723  2.2561 -0.3025
 1890TIP3    H2 5635   2.165   5.043   1.623 -2.3997  4.1805 -0.0339
 1891TIP3   OH2 5636   3.485   4.766   5.218  0.0163  0.3115  0.2755
 1891TIP3    H1 5637   3.512   4.681   5.254 -0.0319  0.3493  0.3991
 1891TIP3    H2 5638   3.483   4.825   5.293  1.3164  0.7411  0.0040
 1892TIP3   OH2 5639   6.257   4.766   2.732  0.2416  0.0571  0.6318
 1892TIP3    H1 5640   6.244   4.723   2.816  0.2886 -2.1371 -0.4244
 1892TIP3    H2 5641   6.169   4.784   2.700  0.2233  0.8129  1.0702
 1893TIP3   OH2 5642   2.447   1.561   5.183  0.4749  0.4821  0.3003
 1893TIP3    H1 5643   2.359   1.598   5.184  0.3396  0.1870 -0.3321
 1893TIP3    H2 5644   2.504   1.634   5.160  0.2270  0.3538 -0.7756
 1894TIP3   OH2 5645   1.831   1.754   0.022 -0.0748 -0.3826 -0.3824
 1894TIP3    H1 5646   1.778   1.737   0.100  0.8360 -1.7495 -0.0310
 1894TIP3    H2 5647   1.826   1.849   0.010 -0.0608 -0.1098  1.4668
 1895TIP3   OH2 5648   3.236   6.336   4.888  0.1158 -0.3228  0.1468
 1895TIP3    H1 5649   3.221   6.417   4.938  2.0103 -0.4680  1.0348
 1895TIP3    H2 5650   3.183   6.271   4.933  0.5931 -0.1075  1.0657
 1896TIP3   OH2 5651   5.985   1.765   4.643 -0.3711  0.1587 -0.5962
 1896TIP3    H1 5652   6.069   1.810   4.635 -0.8941  1.3128  0.0657
 1896TIP3    H2 5653   5.965   1.768   4.737 -0.4609 -1.4302 -0.5415
 1897TIP3   OH2 5654   2.472   3.732   1.149  0.5537 -0.8530  0.0441
 1897TIP3    H1 5655   2.539   3.721   1.216 -0.7130  2.5457  2.1401
 1897TIP3    H2 5656   2.430   3.647   1.142  0.3959 -1.2970  4.0727
 1898TIP3   OH2 5657   6.261   5.977   3.653  0.4390  0.2904 -0.3725
 1898TIP3    H1 5658   6.175   5.940   3.630 -0.5495  1.7536  0.8416
 1898TIP3    H2 5659   6.266   5.967   3.748 -0.5579  4.4635  0.2893
 1899TIP3   OH2 5660   6.158   0.016   4.077 -0.1090  0.2192 -0.3864
 1899TIP3    H1 5661   6.181   0.027   4.170 -0.7209  0.3447 -0.2464
 1899TIP3    H2 5662   6.232  -0.033   4.040  0.5246  0.8778 -0.0157
 1900TIP3   OH2 5663   3.113   3.282   4.628 -0.2719  0.4562  0.6579
 1900TIP3    H1 5664   3.152   3.247   4.548  0.5640 -0.2014  1.3288
 1900TIP3    H2 5665   3.185   3.283   4.691 -1.2790 -0.6321  1.9018
 1901TIP3   OH2 5666   2.843   4.224   2.993 -0.6271  0.3105  0.2393
 1901TIP3    H1 5667   2.924   4.179   3.019  1.1152  2.6146 -0.8496
 1901TIP3    H2 5668   2.778   4.154   2.984  1.1350 -1.5846  1.5070
 1902TIP3   OH2 5669   5.343   0.730   4.777 -0.0516 -0.2746  0.0375
 1902TIP3    H1 5670   5.411   0.793   4.802 -0.9021  0.6421  0.1254
 1902TIP3    H2 5671   5.379   0.685   4.701 -0.2714  1.8838 -1.4398
 1903TIP3   OH2 5672   4.013   3.510   5.455 -0.5140  0.1803 -0.1328
 1903TIP3    H1 5673   4.079   3.442   5.440  0.1029  0.7486 -0.0350
 1903TIP3    H2 5674   3.951   3.499   5.383  1.4520  1.7230 -2.2202
 1904TIP3   OH2 5675   1.049   1.307   0.693  0.2404  0.0838  0.2518
 1904TIP3    H1 5676   1.069   1.270   0.779 -1.1959 -2.1755 -0.3094
 1904TIP3    H2 5677   1.074   1.239   0.630 -0.4030  0.9573 -0.9985
 1905TIP3   OH2 5678   5.348   3.844   2.575  0.3775  0.5271  0.2519
 1905TIP3    H1 5679   5.441   3.856   2.555  0.4550  0.2782  0.4721
 1905TIP3    H2 5680   5.346   3.784   2.649  0.0372  0.4793  0.2057
 1906TIP3   OH2 5681   2.885   2.637   5.812  0.1562 -1.1011 -0.2029
 1906TIP3    H1 5682   2.899   2.599   5.899  0.6740  0.2547  0.3473
 1906TIP3    H2 5683   2.960   2.608   5.761  2.6374  2.0512  1.2879
 1907TIP3   OH2 5684   0.443   5.983   4.530  0.4368  0.1187 -0.5761
 1907TIP3    H1 5685   0.531   5.954   4.503  0.9138  0.8818  0.1018
 1907TIP3    H2 5686   0.437   5.956   4.622 -1.1439 -2.4208 -1.3350
 1908TIP3   OH2 5687   0.281   0.218   0.380 -0.0553  0.0299 -0.5909
 1908TIP3    H1 5688   0.212   0.225   0.314  1.4437 -0.0085 -2.2767
 1908TIP3    H2 5689   0.336   0.296   0.365  1.5040 -1.0738 -0.8793
 1909TIP3   OH2 5690   5.336   1.943   5.861 -0.3263 -0.0007  0.6251
 1909TIP3    H1 5691   5.407   2.007   5.857  1.1821 -1.6028 -0.2048
 1909TIP3    H2 5692   5.375   1.863   5.823 -2.7928 -0.7656 -0.5097
 1910TIP3   OH2 5693   5.438   5.406   1.829  0.7502  0.5206 -0.2745
 1910TIP3    H1 5694   5.487   5.324   1.831  0.3727  0.2226 -1.8288
 1910TIP3    H2 5695   5.388   5.401   1.747  1.9833  3.0044 -1.2783
 1911TIP3   OH2 5696   3.753   0.085   4.985  0.2376  0.0189  0.5340
 1911TIP3    H1 5697   3.773  -0.009   4.983 -0.4195 -0.2017  2.5873
 1911TIP3    H2 5698   3.669   0.091   4.938  0.0036 -0.5037  0.8687
 1912TIP3   OH2 5699   4.772   4.647   0.870  0.8219 -0.1341 -0.3062
 1912TIP3    H1 5700   4.755   4.594   0.948  0.2367 -0.0013 -0.3383
 1912TIP3    H2 5701   4.689   4.690   0.852  0.9476 -0.1875 -1.0254
 1913TIP3   OH2 5702   6.768   6.021   2.569 -0.2539 -0.2674 -0.2393
 1913TIP3    H1 5703   6.709   5.980   2.506 -0.6261 -0.4635  0.2301
 1913TIP3    H2 5704   6.740   5.987   2.654  2.1708 -2.4753 -0.1885
 1914TIP3   OH2 5705   0.804   2.706   0.639  0.4494 -0.5634 -0.2772
 1914TIP3    H1 5706   0.714   2.724   0.610  0.0865 -1.0451  0.5234
 1914TIP3    H2 5707   0.794   2.647   0.713  1.4829 -2.0480 -1.2492
 1915TIP3   OH2 5708   6.700   1.552   5.623  0.0040 -0.4111 -0.3616
 1915TIP3    H1 5709   6.736   1.598   5.547  1.2165 -1.6166 -0.5625
 1915TIP3    H2 5710   6.646   1.482   5.585 -1.0697  0.2333 -0.0688
 1916TIP3   OH2 5711   4.381   6.620   4.800 -0.3851 -0.5682  0.0413
 1916TIP3    H1 5712   4.417   6.689   4.856 -1.1215 -0.0074 -0.1533
 1916TIP3    H2 5713   4.286   6.629   4.809 -0.6529 -4.0816  3.1035
 1917TIP3   OH2 5714   3.751   5.550   3.034  0.1063 -0.1383 -0.5223
 1917TIP3    H1 5715   3.690   5.614   3.072  0.3413 -0.1004 -0.2138
 1917TIP3    H2 5716   3.786   5.594   2.956  2.0400  1.0576  0.9265
 1918TIP3   OH2 5717   2.011   0.557   0.394 -0.1824  0.1938 -1.0083
 1918TIP3    H1 5718   2.053   0.491   0.339 -1.1725  0.0232 -1.5821
 1918TIP3    H2 5719   1.974   0.620   0.333  0.5012  1.1381 -0.4690
 1919TIP3   OH2 5720   0.209   5.259   3.368  0.0035  0.2132 -0.3811
 1919TIP3    H1 5721   0.295   5.295   3.348  0.3017 -1.1214 -1.6896
 1919TIP3    H2 5722   0.208   5.173   3.326 -1.9812  0.2031 -0.4326
 1920TIP3   OH2 5723   3.428   1.918   5.855  0.1016 -0.0135  0.4101
 1920TIP3    H1 5724   3.511   1.964   5.846 -1.1464  2.1847 -1.2424
 1920TIP3    H2 5725   3.451   1.825   5.859  2.6970  0.6197  2.3600
 1921TIP3   OH2 5726   2.674   3.373   4.448 -0.0260  0.6488 -0.2197
 1921TIP3    H1 5727   2.756   3.360   4.496 -0.4957 -0.0850  0.4125
 1921TIP3    H2 5728   2.682   3.460   4.409 -0.2723  1.9977  2.5185
 1922TIP3   OH2 5729   2.310   4.766   0.099 -0.0378 -0.3496 -0.2219
 1922TIP3    H1 5730   2.282   4.759   0.191 -1.1349  0.6344 -0.4570
 1922TIP3    H2 5731   2.244   4.716   0.051  1.5206 -2.4064 -0.3609
 1923TIP3   OH2 5732   1.457   5.611   3.563 -0.1463  0.6947  0.5514
 1923TIP3    H1 5733   1.439   5.647   3.650  0.4328  0.0054  0.9625
 1923TIP3    H2 5734   1.541   5.649   3.538  0.9780 -1.1025  1.4243
 1924TIP3   OH2 5735   5.855   6.169   3.398  0.2067 -0.5584  0.1201
 1924TIP3    H1 5736   5.832   6.132   3.483  1.5772  1.3540  1.4180
 1924TIP3    H2 5737   5.886   6.094   3.346  1.6348 -1.4756  2.1596
 1925TIP3   OH2 5738   1.445   1.696   3.057  0.2349 -0.0293 -0.5675
 1925TIP3    H1 5739   1.467   1.671   2.968  1.8971 -0.4824 -0.0588
 1925TIP3    H2 5740   1.355   1.665   3.070 -0.6885  1.5700 -2.6246
 1926TIP3   OH2 5741   1.941   4.192   2.995 -0.2402 -0.0678 -0.2476
 1926TIP3    H1 5742   1.977   4.172   2.909  0.7010  0.2198  0.0715
 1926TIP3    H2 5743   1.995   4.264   3.028  0.0301 -0.7967  0.9669
 1927TIP3   OH2 5744   5.924   5.415   2.993 -0.3827  0.0768  0.2325
 1927TIP3    H1 5745   5.959   5.378   2.912  0.1466  2.8220 -0.9007
 1927TIP3    H2 5746   5.965   5.363   3.062 -0.0959 -1.7157 -1.1968
 1928TIP3   OH2 5747   3.565   4.183   4.111  0.0014  0.0437  0.2525
 1928TIP3    H1 5748   3.562   4.269   4.152  0.3838  0.1706  0.0229
 1928TIP3    H2 5749   3.657   4.173   4.085 -0.0434 -0.4293  0.2724
 1929TIP3   OH2 5750   3.532   5.132   0.884 -0.2333 -0.0084  0.0820
 1929TIP3    H1 5751   3.611   5.091   0.920 -0.2136 -1.3837 -1.4128
 1929TIP3    H2 5752   3.522   5.213   0.934  1.8246 -0.0544  0.6627
 1930TIP3   OH2 5753   6.991   2.721   3.213  0.4349 -0.2349  0.4359
 1930TIP3    H1 5754   7.019   2.661   3.144 -0.3054  0.4623 -0.4981
 1930TIP3    H2 5755   6.966   2.664   3.285  2.0646 -0.9552  0.4867
 1931TIP3   OH2 5756   3.128   4.637   3.897  0.3108 -0.5366 -0.5724
 1931TIP3    H1 5757   3.116   4.595   3.812 -1.1175  0.0127 -0.6706
 1931TIP3    H2 5758   3.102   4.572   3.961  1.8077 -1.1061 -0.4985
 1932TIP3   OH2 5759   1.169   0.243   0.874  0.4056 -0.5627 -0.0189
 1932TIP3    H1 5760   1.094   0.243   0.932  0.7237  1.1002  0.4399
 1932TIP3    H2 5761   1.233   0.186   0.918  0.0708 -0.5700  0.4693
 1933TIP3   OH2 5762   0.864   5.748   4.581  0.1652  0.1955  0.2593
 1933TIP3    H1 5763   0.834   5.734   4.671  1.3299  0.4776  0.7155
 1933TIP3    H2 5764   0.790   5.788   4.536 -1.1151 -1.6978  0.5688
 1934TIP3   OH2 5765   0.185   0.969   4.680 -0.3596 -0.2928  0.3030
 1934TIP3    H1 5766   0.271   1.012   4.688 -1.1513  1.9727 -1.9231
 1934TIP3    H2 5767   0.131   1.011   4.747 -0.6454  1.0501 -0.7091
 1935TIP3   OH2 5768   2.607   4.764   0.195 -0.1583 -0.1984 -0.5268
 1935TIP3    H1 5769   2.662   4.686   0.198  2.4898  1.5365  1.6008
 1935TIP3    H2 5770   2.517   4.730   0.193  0.8538 -3.2710  0.3046
 1936TIP3   OH2 5771   1.505   1.089   5.005  0.6987  0.5293  0.0343
 1936TIP3    H1 5772   1.545   1.156   4.950 -0.1517  1.1754  0.1818
 1936TIP3    H2 5773   1.448   1.137   5.065  0.1160 -0.3100  0.1899
 1937TIP3   OH2 5774   0.687   0.393   0.529  0.0629 -0.2553 -0.0461
 1937TIP3    H1 5775   0.697   0.310   0.576  0.1263 -0.2680 -0.0809
 1937TIP3    H2 5776   0.685   0.459   0.597 -0.2830 -0.3105 -0.0032
 1938TIP3   OH2 5777   0.366   4.458   5.379  0.1606 -0.7117 -0.0404
 1938TIP3    H1 5778   0.305   4.419   5.442  0.3106  0.1313  0.6477
 1938TIP3    H2 5779   0.319   4.453   5.295 -2.0619  2.2428  0.8421
 1939TIP3   OH2 5780   5.760   5.939   1.610 -0.1731 -0.4349 -0.0248
 1939TIP3    H1 5781   5.721   5.907   1.691 -0.1926  1.1171  0.6041
 1939TIP3    H2 5782   5.850   5.962   1.634  0.0226 -0.5749 -0.6022
 1940TIP3   OH2 5783   6.408   1.258   0.178 -0.0142  0.6314 -0.0813
 1940TIP3    H1 5784   6.345   1.259   0.106  0.8699  1.0550 -0.8772
 1940TIP3    H2 5785   6.444   1.347   0.179 -0.1681  0.6869  1.0335
 1941TIP3   OH2 5786   1.463   6.475   3.204  0.0319  0.5169  0.0799
 1941TIP3    H1 5787   1.416   6.546   3.160  1.4770  1.9572  0.7568
 1941TIP3    H2 5788   1.477   6.409   3.137 -1.2134  0.9283 -0.6092
 1942TIP3   OH2 5789   3.854   0.493   5.018 -0.1089 -0.2404  0.4131
 1942TIP3    H1 5790   3.898   0.568   4.978  0.8697 -0.5713  0.8458
 1942TIP3    H2 5791   3.836   0.434   4.945 -1.6510  0.7675 -0.0615
 1943TIP3   OH2 5792   4.642   5.815   1.824 -0.0729  0.1408  0.2064
 1943TIP3    H1 5793   4.627   5.890   1.766 -1.2404 -0.5217 -0.3797
 1943TIP3    H2 5794   4.684   5.750   1.769  1.3390  0.4771  0.8228
 1944TIP3   OH2 5795   5.099   3.625   1.829 -0.5006  0.5431 -0.2542
 1944TIP3    H1 5796   5.065   3.678   1.757 -1.4684  0.7211  0.3101
 1944TIP3    H2 5797   5.186   3.598   1.800 -0.6422  1.0861 -1.2405
 1945TIP3   OH2 5798   1.840   2.294   1.334 -0.4012  0.4646 -0.1683
 1945TIP3    H1 5799   1.930   2.314   1.309 -0.6562  1.3272 -0.4532
 1945TIP3    H2 5800   1.819   2.356   1.404 -1.7780  2.4921 -2.2396
 1946TIP3   OH2 5801   1.793   0.844   4.701 -0.1374  0.2319 -0.0477
 1946TIP3    H1 5802   1.699   0.843   4.717 -0.3031 -2.0942 -0.7300
 1946TIP3    H2 5803   1.818   0.751   4.702  1.6656  0.5834 -2.5442
 1947TIP3   OH2 5804   6.782   5.267   2.204 -0.5551  0.1010  0.7492
 1947TIP3    H1 5805   6.713   5.332   2.206 -0.0356  0.6872  0.2818
 1947TIP3    H2 5806   6.738   5.185   2.181 -1.2226  0.2647  1.4252
 1948TIP3   OH2 5807   3.222   4.917   2.195 -0.4698  0.1514  0.1243
 1948TIP3    H1 5808   3.169   4.922   2.115  1.6911 -0.6070 -1.4278
 1948TIP3    H2 5809   3.274   4.997   2.195 -1.6545  0.9882  1.7427
 1949TIP3   OH2 5810   1.933   1.331   3.317  0.3964  0.5831 -0.1556
 1949TIP3    H1 5811   1.985   1.258   3.284  1.3503  0.4542  1.5402
 1949TIP3    H2 5812   1.899   1.300   3.401 -1.3620  1.1543 -0.6088
 1950TIP3   OH2 5813   4.497   2.246   5.510  0.2413  0.3723 -0.6340
 1950TIP3    H1 5814   4.585   2.268   5.541  0.1652  0.7662 -0.6929
 1950TIP3    H2 5815   4.479   2.160   5.548  0.0841  0.9093  0.5584
 1951TIP3   OH2 5816   6.696   6.014   1.046  0.4535 -0.0530 -0.0459
 1951TIP3    H1 5817   6.668   5.999   1.137 -1.0628  1.3367 -0.2405
 1951TIP3    H2 5818   6.709   6.109   1.040  1.2342 -0.2135 -1.0933
 1952TIP3   OH2 5819   6.004   1.392   0.510  1.1110 -0.1740 -0.4849
 1952TIP3    H1 5820   5.994   1.306   0.550  0.4016  0.1857  0.1589
 1952TIP3    H2 5821   6.099   1.405   0.504  1.2409 -0.5207  0.5136
 1953TIP3   OH2 5822   6.252   1.328   3.243  0.0133  0.1695 -0.1104
 1953TIP3    H1 5823   6.237   1.313   3.149 -0.5775 -0.5769  0.0873
 1953TIP3    H2 5824   6.171   1.368   3.274  0.0091 -0.0546  0.1747
 1954TIP3   OH2 5825   2.097   0.403   1.817  0.5062  0.1623  0.6690
 1954TIP3    H1 5826   2.180   0.392   1.771 -0.4087  0.0042 -1.0405
 1954TIP3    H2 5827   2.109   0.357   1.900  2.8653  2.0445  1.4926
 1955TIP3   OH2 5828   2.375   3.871   4.367 -0.1005 -0.6254 -0.2256
 1955TIP3    H1 5829   2.291   3.840   4.401 -1.7192  0.1581 -3.1303
 1955TIP3    H2 5830   2.409   3.798   4.316  0.4086 -0.5638  0.0288
 1956TIP3   OH2 5831   5.490   1.041   1.877 -0.2826  0.3551  0.3415
 1956TIP3    H1 5832   5.573   1.054   1.832 -0.6524 -1.3462 -0.9238
 1956TIP3    H2 5833   5.486   1.113   1.940  0.8159  2.1389 -1.4969
 1957TIP3   OH2 5834   3.895   6.390   0.457  0.3635 -0.0126  0.0203
 1957TIP3    H1 5835   3.987   6.412   0.443  0.2200  0.6082  0.0494
 1957TIP3    H2 5836   3.853   6.403   0.372  0.2171  0.1284  0.1134
 1958TIP3   OH2 5837   3.707   0.510   3.253 -1.2950  0.1077 -0.5123
 1958TIP3    H1 5838   3.742   0.573   3.190 -2.1389  1.3718  0.2239
 1958TIP3    H2 5839   3.629   0.473   3.211  0.5545 -2.3827 -1.9721
 1959TIP3   OH2 5840   3.738   1.466   2.862 -0.1975 -0.0860  0.4140
 1959TIP3    H1 5841   3.725   1.430   2.774  0.9434 -0.2814  0.3069
 1959TIP3    H2 5842   3.683   1.412   2.918 -0.3861 -0.4226 -0.0883
 1960TIP3   OH2 5843   4.360   0.704   3.547  0.0559 -0.3048  0.4601
 1960TIP3    H1 5844   4.339   0.797   3.542  0.2688 -0.2830 -0.0088
 1960TIP3    H2 5845   4.302   0.663   3.483  0.8393 -0.3464 -0.2282
 1961TIP3   OH2 5846   4.096   4.127   3.475  0.3388 -0.0145  0.1527
 1961TIP3    H1 5847   4.140   4.183   3.410 -1.3123 -0.0480 -1.0632
 1961TIP3    H2 5848   4.085   4.184   3.552  0.1441  0.8346 -0.4806
 1962TIP3   OH2 5849   2.808   3.637   3.793 -0.0557  0.2104 -0.1798
 1962TIP3    H1 5850   2.866   3.580   3.843  0.0684  2.2541  2.1929
 1962TIP3    H2 5851   2.769   3.580   3.727  2.4928 -1.8458 -0.0646
 1963TIP3   OH2 5852   3.994   3.597   1.952 -0.0476 -0.5907 -0.7267
 1963TIP3    H1 5853   4.023   3.687   1.939 -1.3803 -0.3169 -2.1321
 1963TIP3    H2 5854   4.073   3.549   1.978  0.8415  0.8248 -0.7354
 1964TIP3   OH2 5855   6.168   3.642   5.773 -0.2640  0.3401 -0.0050
 1964TIP3    H1 5856   6.221   3.625   5.695  0.3338 -0.4133  0.5507
 1964TIP3    H2 5857   6.112   3.716   5.748 -0.7943 -0.5255 -1.4819
 1965TIP3   OH2 5858   2.842   2.589   0.883  0.2543  0.0163 -0.0324
 1965TIP3    H1 5859   2.914   2.636   0.924  0.0181 -0.5503  1.0730
 1965TIP3    H2 5860   2.804   2.536   0.953 -0.9161 -0.0934 -0.7123
 1966TIP3   OH2 5861   5.260   0.668   2.791  0.3896 -0.3932  0.5240
 1966TIP3    H1 5862   5.319   0.661   2.716 -0.7149  0.6841 -0.4780
 1966TIP3    H2 5863   5.279   0.753   2.829 -1.5246  0.6863 -0.7561
 1967TIP3   OH2 5864   3.556   0.082   1.749  0.0487  0.2600  0.3671
 1967TIP3    H1 5865   3.530   0.053   1.662 -0.5986  0.4090  0.5097
 1967TIP3    H2 5866   3.631   0.139   1.734 -1.0608  1.6025 -0.2324
 1968TIP3   OH2 5867   2.175   0.985   4.302 -0.3545  0.4593  0.2918
 1968TIP3    H1 5868   2.264   0.956   4.281 -0.7539  1.2698 -2.9958
 1968TIP3    H2 5869   2.187   1.052   4.370  1.3462 -0.5996  1.1002
 1969TIP3   OH2 5870   3.194   5.159   3.114 -0.0892 -0.3213  0.3224
 1969TIP3    H1 5871   3.265   5.104   3.079  1.2958  2.0941 -0.8916
 1969TIP3    H2 5872   3.235   5.243   3.131 -2.6852  1.2508 -0.6254
 1970TIP3   OH2 5873   7.107   4.091   4.313  0.5863  0.3832  0.3321
 1970TIP3    H1 5874   7.021   4.117   4.280  1.0733  1.0465 -0.4506
 1970TIP3    H2 5875   7.118   4.001   4.283  1.2763  1.1606 -1.9027
 1971TIP3   OH2 5876   2.104   2.232   1.805 -0.0484 -0.6414 -0.1397
 1971TIP3    H1 5877   2.017   2.210   1.774  0.8372 -2.0563 -1.8184
 1971TIP3    H2 5878   2.143   2.148   1.829  1.9255 -0.5262 -2.4826
 1972TIP3   OH2 5879   3.486   1.933   4.581 -0.8583 -0.3175  0.8945
 1972TIP3    H1 5880   3.574   1.969   4.594 -1.0664  1.0377 -0.8999
 1972TIP3    H2 5881   3.434   1.973   4.650 -0.7224  1.6489 -0.0580
 1973TIP3   OH2 5882   1.604   0.734   5.552  0.0852  0.0806  0.1366
 1973TIP3    H1 5883   1.559   0.816   5.572 -0.4079 -0.7078  2.5361
 1973TIP3    H2 5884   1.534   0.671   5.539  0.4767 -0.2778 -0.2301
 1974TIP3   OH2 5885   4.216   4.215   2.840  0.1713  0.2550  0.7839
 1974TIP3    H1 5886   4.308   4.235   2.824 -0.2335  1.5348 -0.0837
 1974TIP3    H2 5887   4.184   4.183   2.756 -0.2896  0.2364  0.9644
 1975TIP3   OH2 5888   0.584   1.008   3.124 -0.3656 -0.6416  0.1356
 1975TIP3    H1 5889   0.608   1.061   3.048 -0.4007 -0.2937  0.3644
 1975TIP3    H2 5890   0.526   0.941   3.089  0.1030 -0.8531 -0.2446
 1976TIP3   OH2 5891   2.196   1.034   3.116 -0.2314 -0.3125  0.1347
 1976TIP3    H1 5892   2.274   0.983   3.137  0.4844  0.3985 -0.7469
 1976TIP3    H2 5893   2.148   0.981   3.052  1.7379  1.0836 -2.6997
 1977TIP3   OH2 5894   1.540   4.186   4.448 -0.0903 -0.6649  0.2912
 1977TIP3    H1 5895   1.513   4.116   4.389 -2.7459 -0.0576  0.6631
 1977TIP3    H2 5896   1.598   4.241   4.395 -3.2840  0.5245 -2.2977
 1978TIP3   OH2 5897   1.835   2.873   1.591 -0.1078 -0.2273  1.1072
 1978TIP3    H1 5898   1.820   2.924   1.670 -1.8260  0.9118  0.1000
 1978TIP3    H2 5899   1.751   2.829   1.574  0.2046 -0.3952 -0.1204
 1979TIP3   OH2 5900   3.684   1.917   5.471  0.1352  0.9340  0.1178
 1979TIP3    H1 5901   3.680   2.013   5.470  0.1007  0.9316 -0.7376
 1979TIP3    H2 5902   3.773   1.897   5.442  0.2535  0.7125  0.6373
 1980TIP3   OH2 5903   6.945   4.962   1.639  0.0949  0.4512  0.5704
 1980TIP3    H1 5904   6.962   4.886   1.695  0.4679  1.1946  1.4959
 1980TIP3    H2 5905   6.852   4.982   1.653 -0.6531 -1.2364 -1.4916
 1981TIP3   OH2 5906   0.290   1.965   4.201 -0.0528 -0.6996  0.0605
 1981TIP3    H1 5907   0.302   1.875   4.171 -0.9375 -0.5188 -0.9021
 1981TIP3    H2 5908   0.257   2.012   4.124  0.6565  0.5188  0.4662
 1982TIP3   OH2 5909   5.455   6.458   3.898 -0.0200 -0.3306 -0.0333
 1982TIP3    H1 5910   5.516   6.453   3.825 -2.4316 -0.1485 -2.1816
 1982TIP3    H2 5911   5.373   6.487   3.859 -1.8998 -1.8890  2.4607
 1983TIP3   OH2 5912   6.043   5.222   2.826 -0.1194  0.0255 -0.1039
 1983TIP3    H1 5913   5.978   5.174   2.775  2.0313 -1.7643 -1.3454
 1983TIP3    H2 5914   6.104   5.154   2.856  2.8391  1.8617 -1.5465
 1984TIP3   OH2 5915   3.481   5.202   2.778  0.0229 -0.9492 -0.3098
 1984TIP3    H1 5916   3.572   5.180   2.759  0.7153  1.2017  0.1689
 1984TIP3    H2 5917   3.455   5.140   2.846  1.2983 -1.2633 -0.0852
 1985TIP3   OH2 5918   3.302   4.022   0.788  0.4144  0.5995 -0.0218
 1985TIP3    H1 5919   3.341   4.088   0.731 -0.5410  0.8103 -0.4578
 1985TIP3    H2 5920   3.242   4.071   0.845 -0.0541  0.1583 -0.1244
 1986TIP3   OH2 5921   1.749   3.751   1.537 -0.7983  0.3636 -0.4793
 1986TIP3    H1 5922   1.714   3.669   1.503  0.1487  0.8729 -2.9111
 1986TIP3    H2 5923   1.779   3.799   1.459  1.1008  1.8870  1.0549
 1987TIP3   OH2 5924   0.842   4.132   2.755 -0.2431  0.2590  0.1694
 1987TIP3    H1 5925   0.845   4.046   2.714  1.3011 -0.1799  1.1133
 1987TIP3    H2 5926   0.869   4.116   2.846 -0.7050  1.6191  0.5692
 1988TIP3   OH2 5927   3.201   4.027   4.702  0.5527  0.7861  0.4739
 1988TIP3    H1 5928   3.261   4.028   4.777  0.5114  0.2821  0.5189
 1988TIP3    H2 5929   3.255   3.998   4.629 -0.2602 -2.8197  1.1180
 1989TIP3   OH2 5930   3.711   4.649   1.782  0.0627  0.1494 -0.4309
 1989TIP3    H1 5931   3.679   4.739   1.779  0.3020  0.2435 -0.1974
 1989TIP3    H2 5932   3.672   4.607   1.705 -1.5288 -0.0558  0.4490
 1990TIP3   OH2 5933   3.824   6.376   2.694 -0.0054 -0.0242 -0.2139
 1990TIP3    H1 5934   3.815   6.348   2.785 -0.3192  1.3791  0.2092
 1990TIP3    H2 5935   3.818   6.295   2.643  0.0015 -0.8081  0.9953
 1991TIP3   OH2 5936   3.206   0.218   1.423  0.4670  0.3059 -0.0756
 1991TIP3    H1 5937   3.273   0.249   1.361 -0.0272  1.3074 -0.1248
 1991TIP3    H2 5938   3.218   0.123   1.425  0.4679  0.2381 -1.7563
 1992TIP3   OH2 5939   5.003   4.896   0.782  0.5765 -0.2003 -0.7315
 1992TIP3    H1 5940   5.053   4.815   0.795 -0.4994 -0.8865 -0.7312
 1992TIP3    H2 5941   5.016   4.946   0.862  2.6841  0.4698 -1.3994
 1993TIP3   OH2 5942   1.280   1.438   2.187 -0.2025  0.4469  0.4175
 1993TIP3    H1 5943   1.230   1.428   2.106 -0.4315 -1.6793  0.7713
 1993TIP3    H2 5944   1.213   1.445   2.256 -0.0952 -1.5564  0.7944
 1994TIP3   OH2 5945   5.014   1.579   5.030  0.7657  0.3819  0.2550
 1994TIP3    H1 5946   5.082   1.569   5.097  0.5919  0.8049  0.4997
 1994TIP3    H2 5947   4.933   1.589   5.079  0.5408  0.0024 -0.0346
 1995TIP3   OH2 5948   4.259   6.128   4.284  0.5180  0.0952  0.1432
 1995TIP3    H1 5949   4.178   6.174   4.309  0.9167  0.0811  1.5488
 1995TIP3    H2 5950   4.284   6.080   4.363  1.9867  0.2241 -0.2184
 1996TIP3   OH2 5951   6.608   2.665   5.649  0.3840  1.0374 -0.0333
 1996TIP3    H1 5952   6.543   2.725   5.686 -0.2068  1.2998 -1.4592
 1996TIP3    H2 5953   6.584   2.579   5.686  0.4438  1.4483  0.9944
 1997TIP3   OH2 5954   1.723   6.140   2.469  0.3681 -0.3078  0.7128
 1997TIP3    H1 5955   1.815   6.165   2.454  0.2718 -0.6382 -0.6230
 1997TIP3    H2 5956   1.718   6.050   2.435 -0.8735  0.3836 -1.0463
 1998TIP3   OH2 5957   5.845   2.306   4.086 -0.3624  0.1918  0.4623
 1998TIP3    H1 5958   5.820   2.248   4.014 -0.7881 -0.6027  1.2361
 1998TIP3    H2 5959   5.925   2.349   4.054  0.4795 -1.4680  0.2025
 1999TIP3   OH2 5960   5.905   4.230   1.898 -0.2633  0.4514  0.1724
 1999TIP3    H1 5961   5.915   4.316   1.858 -0.4328  0.8435  0.9661
 1999TIP3    H2 5962   5.984   4.217   1.950 -1.2555  1.1511  1.9339
 2000TIP3   OH2 5963   2.191   1.538   5.035 -0.4402  0.2206 -0.0207
 2000TIP3    H1 5964   2.135   1.463   5.058  0.1815 -0.9407 -2.0255
 2000TIP3    H2 5965   2.228   1.515   4.950  3.1041  0.9395  1.1594
 2001TIP3   OH2 5966   4.850   0.268   3.447 -0.8589  0.4246 -0.1418
 2001TIP3    H1 5967   4.867   0.205   3.378  0.3272 -0.2849  0.7555
 2001TIP3    H2 5968   4.840   0.215   3.526 -0.7717  1.2998  0.4773
 2002TIP3   OH2 5969   0.104   5.795   5.136  0.0893 -0.1664  0.5116
 2002TIP3    H1 5970   0.123   5.828   5.048 -0.4536 -2.3595 -0.4983
 2002TIP3    H2 5971   0.050   5.863   5.176  0.7846  1.1090 -0.6431
 2003TIP3   OH2 5972   1.833   0.220   3.036 -0.9074 -0.6930 -0.2467
 2003TIP3    H1 5973   1.794   0.268   3.110  0.2624 -0.6790  0.3749
 2003TIP3    H2 5974   1.800   0.131   3.046 -1.0202 -0.6155  0.1017
 2004TIP3   OH2 5975   6.245   3.302   4.496 -0.0644 -0.3291  0.1411
 2004TIP3    H1 5976   6.205   3.280   4.580 -0.4541 -2.0307 -0.4455
 2004TIP3    H2 5977   6.222   3.393   4.481 -3.7687 -1.1304 -0.0886
 2005TIP3   OH2 5978   4.649   4.765   2.018 -0.2870 -0.3479  0.3292
 2005TIP3    H1 5979   4.585   4.734   2.082  0.0485 -0.2752  0.6994
 2005TIP3    H2 5980   4.621   4.726   1.935 -0.7838 -0.3547  0.4986
 2006TIP3   OH2 5981   5.365   0.836   2.967 -0.0907  0.0275  0.5150
 2006TIP3    H1 5982   5.315   0.777   3.022  0.7707 -0.9387  0.2931
 2006TIP3    H2 5983   5.437   0.866   3.023  0.0523  0.0557  0.3194
 2007TIP3   OH2 5984   5.888   2.538   1.858 -0.1221  0.0680 -0.2982
 2007TIP3    H1 5985   5.933   2.573   1.781  0.4326 -1.5713 -0.7780
 2007TIP3    H2 5986   5.795   2.539   1.834 -0.0440  0.4757 -0.5936
 2008TIP3   OH2 5987   1.695   4.357   1.913 -0.1096 -0.0008 -0.0361
 2008TIP3    H1 5988   1.659   4.268   1.911  2.5658 -1.1894 -0.9488
 2008TIP3    H2 5989   1.643   4.403   1.978 -0.7616 -2.6296  1.4393
 2009TIP3   OH2 5990   2.314   1.301   4.824  0.4540 -0.4331  0.1439
 2009TIP3    H1 5991   2.317   1.278   4.731 -0.9963  1.9801 -0.5777
 2009TIP3    H2 5992   2.406   1.303   4.851  0.8789 -1.4676 -1.1455
 2010TIP3   OH2 5993   5.371   4.059   1.138  0.1041  0.2335  0.2177
 2010TIP3    H1 5994   5.284   4.019   1.135  0.3387 -0.2037 -1.4174
 2010TIP3    H2 5995   5.432   3.986   1.128  0.6057  0.7184 -0.3692
 2011TIP3   OH2 5996   5.262   2.290   1.320  0.0688 -0.1000 -0.1847
 2011TIP3    H1 5997   5.190   2.329   1.369  0.3503  0.3415 -0.1085
 2011TIP3    H2 5998   5.289   2.214   1.371 -0.7800 -0.6690 -0.5611
 2012TIP3   OH2 5999   2.080   1.861   4.049  0.3029 -0.6062  0.0998
 2012TIP3    H1 6000   2.046   1.843   4.136 -0.6675  0.1955 -0.0782
 2012TIP3    H2 6001   2.031   1.803   3.991 -0.5746  0.3112 -0.1203
 2013TIP3   OH2 6002   6.128   1.060   5.669  0.1199  0.8389  0.2771
 2013TIP3    H1 6003   6.038   1.027   5.663  0.4239 -0.0672  0.5936
 2013TIP3    H2 6004   6.183   0.985   5.645  0.9263  0.4216  3.0862
 2014TIP3   OH2 6005   2.333   2.814   0.392 -0.3713  0.1018 -0.0992
 2014TIP3    H1 6006   2.255   2.770   0.358  0.8132 -1.8841 -0.4019
 2014TIP3    H2 6007   2.324   2.809   0.487 -0.1478 -1.0430 -0.1292
 2015TIP3   OH2 6008   6.389   3.483   0.881 -0.1240 -0.4121 -0.2403
 2015TIP3    H1 6009   6.475   3.446   0.901  0.2296  1.1135  1.3444
 2015TIP3    H2 6010   6.340   3.476   0.964 -0.4217  1.5305 -0.1909
 2016TIP3   OH2 6011   4.812   1.395   5.551  0.2703  0.1388 -0.1520
 2016TIP3    H1 6012   4.833   1.486   5.571  0.6447  0.3649 -1.4685
 2016TIP3    H2 6013   4.897   1.350   5.550  0.2379  0.0724 -0.8307
 2017TIP3   OH2 6014   3.521   0.866   0.444 -0.6256 -0.3757 -0.7695
 2017TIP3    H1 6015   3.568   0.815   0.378 -0.7437 -0.3911 -0.8422
 2017TIP3    H2 6016   3.521   0.955   0.410  0.7739 -0.0364 -0.0089
 2018TIP3   OH2 6017   1.296   0.313   5.723  0.3879 -0.5320 -0.5090
 2018TIP3    H1 6018   1.310   0.248   5.792 -0.2165  1.1165  1.2694
 2018TIP3    H2 6019   1.350   0.387   5.749 -0.6152  0.4942 -1.2439
 2019TIP3   OH2 6020   1.744   6.123   1.116  0.1942  0.7666  0.3441
 2019TIP3    H1 6021   1.839   6.122   1.106  0.1880 -0.3143  0.2693
 2019TIP3    H2 6022   1.727   6.194   1.177  1.0604  0.9048  0.4374
 2020TIP3   OH2 6023   6.033   1.571   3.670  0.0567 -0.1778  0.4638
 2020TIP3    H1 6024   5.953   1.619   3.692  0.0421 -0.5327  1.2015
 2020TIP3    H2 6025   6.100   1.640   3.663 -0.2002  0.0654  0.3610
 2021TIP3   OH2 6026   3.466   3.861   2.856  0.6399  0.2343 -0.2339
 2021TIP3    H1 6027   3.375   3.862   2.829  0.8924  0.6255 -1.1204
 2021TIP3    H2 6028   3.475   3.783   2.911 -0.1264 -0.0307 -0.4847
 2022TIP3   OH2 6029   6.811   3.347   0.103  0.2465 -0.2561  0.0153
 2022TIP3    H1 6030   6.866   3.305   0.169  0.9929  0.6384 -0.0251
 2022TIP3    H2 6031   6.754   3.276   0.071  0.3011 -0.8398  1.1555
 2023TIP3   OH2 6032   6.656   1.032   5.327 -0.5044  0.2086 -0.4862
 2023TIP3    H1 6033   6.711   1.082   5.267  1.0691 -1.1415 -0.2453
 2023TIP3    H2 6034   6.717   0.974   5.372 -2.2739 -2.2455 -1.0549
 2024TIP3   OH2 6035   5.464   0.796   1.740 -0.2869 -0.3689  0.2008
 2024TIP3    H1 6036   5.541   0.826   1.789 -0.3055  1.8067 -0.9609
 2024TIP3    H2 6037   5.455   0.860   1.669 -3.4354 -0.2520  0.5639
 2025TIP3   OH2 6038   5.969   0.857   1.711  0.4516 -0.6887 -0.7272
 2025TIP3    H1 6039   6.053   0.865   1.755  0.4399 -0.6496 -0.7116
 2025TIP3    H2 6040   5.907   0.901   1.770  1.0566  3.2370 -2.7228
 2026TIP3   OH2 6041   4.666   0.644   4.542  0.6152 -0.3232 -0.4488
 2026TIP3    H1 6042   4.703   0.712   4.486  1.4780 -1.0929 -0.8457
 2026TIP3    H2 6043   4.572   0.648   4.526  0.4926  1.6687  0.5719
 2027TIP3   OH2 6044   5.031   2.534   1.744  0.2796  0.5366 -0.4112
 2027TIP3    H1 6045   4.954   2.506   1.694 -0.3807  1.5216  0.0174
 2027TIP3    H2 6046   5.023   2.630   1.748 -0.9461  0.4322  3.4713
 2028TIP3   OH2 6047   0.902   6.575   5.361  0.3230  0.2721 -0.3543
 2028TIP3    H1 6048   0.831   6.530   5.314 -1.2121  1.5961  0.5707
 2028TIP3    H2 6049   0.870   6.583   5.451  2.6085 -0.9849  0.6455
 2029TIP3   OH2 6050   5.679   3.022   0.938 -0.1709 -0.1358  0.2877
 2029TIP3    H1 6051   5.739   3.087   0.903  1.1892 -1.9878 -1.0476
 2029TIP3    H2 6052   5.731   2.975   1.004 -0.8669 -0.3840  0.6706
 2030TIP3   OH2 6053   3.192   3.914   4.206  0.2724  0.5549  0.6332
 2030TIP3    H1 6054   3.124   3.981   4.213 -0.2255 -0.0391  2.0063
 2030TIP3    H2 6055   3.268   3.952   4.249  0.6207  0.9702 -0.3269
 2031TIP3   OH2 6056   3.997   5.304   5.301 -0.1581  0.1257  0.0669
 2031TIP3    H1 6057   4.081   5.269   5.332 -0.7975 -0.5328  1.0790
 2031TIP3    H2 6058   4.007   5.399   5.309  1.1016  0.1800 -1.4668
 2032TIP3   OH2 6059   5.163   3.284   2.247  0.1737  0.1628 -0.1663
 2032TIP3    H1 6060   5.181   3.191   2.237 -0.4511 -0.0845  0.8829
 2032TIP3    H2 6061   5.128   3.311   2.162 -1.0033 -0.8842 -0.0265
 2033TIP3   OH2 6062   6.201   3.786   4.957 -0.7077  0.0314  0.5357
 2033TIP3    H1 6063   6.225   3.841   5.032 -0.3914 -0.6365  0.9250
 2033TIP3    H2 6064   6.208   3.845   4.881  4.1523 -0.5525  0.2726
 2034TIP3   OH2 6065   4.989   6.036   1.149  0.1429 -0.2963  0.0364
 2034TIP3    H1 6066   4.951   5.993   1.226  1.8120 -2.1116 -0.0712
 2034TIP3    H2 6067   4.966   5.978   1.076 -0.6472  0.9412 -0.7284
 2035TIP3   OH2 6068   4.750   4.528   1.782  0.6410 -0.0724 -0.6845
 2035TIP3    H1 6069   4.758   4.449   1.730 -0.0645 -0.5793 -0.0478
 2035TIP3    H2 6070   4.764   4.499   1.872  1.4961  0.7289 -0.5469
 2036TIP3   OH2 6071   5.244   4.640   3.944 -0.2505  0.4178 -0.1883
 2036TIP3    H1 6072   5.155   4.613   3.967  0.1051 -0.9384 -0.2965
 2036TIP3    H2 6073   5.262   4.715   4.001 -1.7578  1.2635 -0.7807
 2037TIP3   OH2 6074   3.360   3.554   5.271  0.0519  0.6032  0.2039
 2037TIP3    H1 6075   3.453   3.534   5.256  0.2821  2.1914 -0.8142
 2037TIP3    H2 6076   3.318   3.540   5.186 -0.5299  0.4212  0.5172
 2038TIP3   OH2 6077   5.856   0.368   2.508  0.3032 -0.5501  0.2015
 2038TIP3    H1 6078   5.922   0.303   2.487  2.0152  1.3570 -0.7122
 2038TIP3    H2 6079   5.829   0.347   2.598  2.7649 -0.9425  0.9226
 2039TIP3   OH2 6080   0.281   0.049   4.849 -0.2035 -0.1174  0.7001
 2039TIP3    H1 6081   0.372   0.022   4.866 -0.0794 -0.7052 -0.7739
 2039TIP3    H2 6082   0.238  -0.030   4.819 -0.6502  0.6216 -0.6746
 2040TIP3   OH2 6083   5.688   4.855   4.690 -0.3409  0.0503  0.2597
 2040TIP3    H1 6084   5.780   4.836   4.709 -0.1638  1.8792  1.5304
 2040TIP3    H2 6085   5.640   4.792   4.744  0.2138  1.0702  2.0563
 2041TIP3   OH2 6086   2.870   5.680   2.176 -0.0953 -0.4088  0.6204
 2041TIP3    H1 6087   2.880   5.628   2.255  0.7179 -0.7052  0.3321
 2041TIP3    H2 6088   2.801   5.636   2.127 -0.1150 -0.6302  0.8464
 2042TIP3   OH2 6089   7.210   1.789   5.492  0.3436  0.7348  0.3594
 2042TIP3    H1 6090   7.115   1.791   5.497  0.3202 -0.3791  0.5474
 2042TIP3    H2 6091   7.229   1.798   5.398  0.0935  1.7295  0.3919
 2043TIP3   OH2 6092   4.995   0.226   2.968  0.0723  0.6516 -0.1645
 2043TIP3    H1 6093   4.923   0.272   2.925 -0.5469  0.3566  0.5326
 2043TIP3    H2 6094   5.006   0.146   2.916 -2.3389 -0.9420  1.5633
 2044TIP3   OH2 6095   0.342   4.016   5.217  0.0435 -0.2145 -0.1691
 2044TIP3    H1 6096   0.264   4.011   5.162 -0.4899  0.8860  0.4454
 2044TIP3    H2 6097   0.323   3.958   5.291 -0.9530  1.3259  0.8408
 2045TIP3   OH2 6098   1.870   2.944   5.225 -0.0069 -0.4003  0.7192
 2045TIP3    H1 6099   1.929   2.880   5.264  0.3462 -1.1176 -0.9125
 2045TIP3    H2 6100   1.838   2.901   5.145 -0.9780  0.8568  0.4049
 2046TIP3   OH2 6101   6.481   2.924   3.701  0.1817  0.0337 -0.0000
 2046TIP3    H1 6102   6.530   2.862   3.647  1.5091  0.8085  0.2680
 2046TIP3    H2 6103   6.503   2.900   3.791  0.7526  0.9115  0.1067
 2047TIP3   OH2 6104   1.695   4.837   2.336  0.0411 -0.9829 -0.3752
 2047TIP3    H1 6105   1.687   4.841   2.240  3.2976  1.6912 -0.6998
 2047TIP3    H2 6106   1.751   4.761   2.352  0.6400 -0.6300 -0.7410
 2048TIP3   OH2 6107   2.695   6.275   2.192  0.1700 -0.1430 -0.0763
 2048TIP3    H1 6108   2.693   6.353   2.136  0.1236 -1.1861 -1.5690
 2048TIP3    H2 6109   2.733   6.207   2.137  1.6159 -0.8314  1.6853
 2049TIP3   OH2 6110   6.321   5.197   4.735  0.4806  0.5147 -0.0914
 2049TIP3    H1 6111   6.396   5.161   4.687  1.0680 -1.0362  1.8258
 2049TIP3    H2 6112   6.247   5.143   4.707  0.2522  1.3835 -1.2244
 2050TIP3   OH2 6113   1.786   3.229   2.071  0.0902  0.2134  0.1322
 2050TIP3    H1 6114   1.695   3.251   2.090  0.3877  1.1801  0.4775
 2050TIP3    H2 6115   1.831   3.313   2.064  0.5871 -0.1547 -1.9988
 2051TIP3   OH2 6116   4.085   2.021   2.679 -0.8641 -0.2264 -0.5013
 2051TIP3    H1 6117   4.016   1.984   2.733 -0.3887  0.8666  0.9262
 2051TIP3    H2 6118   4.057   2.112   2.665 -1.1361 -0.5584 -2.4122
 2052TIP3   OH2 6119   0.943   2.732   5.773 -0.0137 -0.0584  0.1697
 2052TIP3    H1 6120   0.857   2.750   5.734  0.5848  0.4529 -0.9779
 2052TIP3    H2 6121   0.928   2.738   5.867 -0.3640  4.5655  0.0384
 2053TIP3   OH2 6122   2.511   0.335   5.614  0.2751 -0.1023  0.0465
 2053TIP3    H1 6123   2.566   0.273   5.565 -0.9280 -1.7796  0.7364
 2053TIP3    H2 6124   2.422   0.311   5.592 -0.2393  0.8731  0.9682
 2054TIP3   OH2 6125   4.432   4.557   5.450  0.4180 -0.3328 -0.0940
 2054TIP3    H1 6126   4.344   4.589   5.471  0.2887 -0.9834  0.3652
 2054TIP3    H2 6127   4.442   4.574   5.357  1.5048  3.9109  0.5428
 2055TIP3   OH2 6128   5.708   3.733   1.946  0.1049  0.0472  0.2774
 2055TIP3    H1 6129   5.643   3.740   2.016  1.9359  0.6665  2.0335
 2055TIP3    H2 6130   5.735   3.824   1.930 -0.1100 -0.1158 -1.0871
 2056TIP3   OH2 6131   3.950   6.700   5.583  0.1137  0.0058  0.3949
 2056TIP3    H1 6132   3.973   6.790   5.606 -0.7228  0.0114  1.3332
 2056TIP3    H2 6133   4.019   6.671   5.524  1.7808  0.4310  2.0363
 2057TIP3   OH2 6134   1.579   3.632   4.165  0.7293 -0.0779  0.0036
 2057TIP3    H1 6135   1.637   3.588   4.228  0.0845 -0.5627  0.2643
 2057TIP3    H2 6136   1.501   3.653   4.215  0.4330  0.0298 -0.5008
 2058TIP3   OH2 6137   3.960   1.238   3.430 -0.2565 -0.5078  0.2296
 2058TIP3    H1 6138   3.930   1.284   3.509 -3.0636  0.4622 -1.2645
 2058TIP3    H2 6139   4.026   1.297   3.392 -1.3213  0.6581  0.1340
 2059TIP3   OH2 6140   7.107   6.182   3.943 -0.1032 -0.5939  0.1307
 2059TIP3    H1 6141   7.034   6.126   3.969 -0.8303  0.9043  1.5273
 2059TIP3    H2 6142   7.066   6.267   3.927  1.0929 -0.2077 -0.9857
 2060TIP3   OH2 6143   4.314   5.308   1.338  0.4314 -0.0090 -0.1060
 2060TIP3    H1 6144   4.317   5.396   1.300 -2.5162  0.2665  0.1079
 2060TIP3    H2 6145   4.374   5.312   1.413 -0.5512  2.2586  0.6444
 2061TIP3   OH2 6146   3.400   5.745   0.686  0.3685 -0.1399  0.5771
 2061TIP3    H1 6147   3.401   5.749   0.782 -1.6517 -1.3148  0.7143
 2061TIP3    H2 6148   3.307   5.747   0.664  0.8233  2.1974 -1.5172
 2062TIP3   OH2 6149   3.412   6.297   3.926  0.2913 -0.3593  0.0552
 2062TIP3    H1 6150   3.351   6.271   3.857 -0.4641 -1.7550  1.1920
 2062TIP3    H2 6151   3.448   6.381   3.896 -2.8955  1.0579 -0.2268
 2063TIP3   OH2 6152   5.318   0.180   1.592 -0.2225 -0.0574 -0.2177
 2063TIP3    H1 6153   5.242   0.122   1.600 -0.7687  0.5749 -0.6700
 2063TIP3    H2 6154   5.370   0.141   1.521 -0.7746  0.1985 -0.7756
 2064TIP3   OH2 6155   5.527   2.887   5.590 -0.0851  0.3825 -0.8081
 2064TIP3    H1 6156   5.508   2.798   5.559 -1.1508 -0.0487  0.9506
 2064TIP3    H2 6157   5.619   2.884   5.617 -0.2065 -0.2884 -0.4470
 2065TIP3   OH2 6158   6.189   4.628   2.941  0.1501 -0.5726  0.2448
 2065TIP3    H1 6159   6.216   4.541   2.911  0.5828 -0.1800 -0.5508
 2065TIP3    H2 6160   6.166   4.615   3.033 -1.2239 -1.8239 -0.2306
 2066TIP3   OH2 6161   7.070   4.807   0.674  0.6127 -0.2091  0.1299
 2066TIP3    H1 6162   7.151   4.833   0.718  0.3262  0.1879  0.4217
 2066TIP3    H2 6163   7.100   4.759   0.596  1.1253 -0.2604  0.3517
 2067TIP3   OH2 6164   7.049   5.511   5.173  0.1397  0.5748 -0.5068
 2067TIP3    H1 6165   6.999   5.593   5.180  0.1197  0.6170 -1.1221
 2067TIP3    H2 6166   7.044   5.488   5.080 -0.1075 -0.2824 -0.2902
 2068TIP3   OH2 6167   3.980   6.824   0.505  0.2416  0.0180 -0.1502
 2068TIP3    H1 6168   3.924   6.772   0.562 -0.1225  0.1331 -0.4026
 2068TIP3    H2 6169   3.957   6.796   0.417 -0.2826  0.9321 -0.3121
 2069TIP3   OH2 6170   5.808   3.673   5.750 -0.2552  0.4778 -0.0537
 2069TIP3    H1 6171   5.752   3.610   5.705 -1.6760  1.1545  0.6968
 2069TIP3    H2 6172   5.809   3.750   5.692 -0.1190  0.4862 -0.0423
 2070TIP3   OH2 6173   0.879   1.980   0.532  0.1517 -0.1381 -0.3328
 2070TIP3    H1 6174   0.879   2.037   0.455  0.8253  0.1395 -0.1303
 2070TIP3    H2 6175   0.792   1.940   0.531  0.7000 -1.4224 -2.1797
 2071TIP3   OH2 6176   4.504   4.739   3.931  0.1370  0.4881 -0.4240
 2071TIP3    H1 6177   4.440   4.684   3.887 -0.2643  1.2346 -0.7727
 2071TIP3    H2 6178   4.453   4.800   3.983  0.5999 -0.5837  1.3715
 2072TIP3   OH2 6179   4.376   6.326   0.390  0.5654 -0.2710 -0.2000
 2072TIP3    H1 6180   4.412   6.239   0.405 -0.9371 -0.5975  2.0451
 2072TIP3    H2 6181   4.442   6.386   0.426  1.4067 -0.4643 -1.3640
 2073TIP3   OH2 6182   0.592   5.198   5.323  0.7431  0.1928  0.0230
 2073TIP3    H1 6183   0.536   5.275   5.316 -1.1648 -1.1659 -0.4670
 2073TIP3    H2 6184   0.655   5.208   5.251  0.8599  1.5101  0.2767
 2074TIP3   OH2 6185   0.699   0.614   5.060 -0.0014 -0.4799  0.3634
 2074TIP3    H1 6186   0.773   0.556   5.077 -0.7559 -1.4663  0.3540
 2074TIP3    H2 6187   0.649   0.571   4.991  0.0526  0.7739 -0.5006
 2075TIP3   OH2 6188   5.216   1.138   2.974  0.4510 -0.3523 -0.3001
 2075TIP3    H1 6189   5.251   1.176   3.055 -1.4535  1.3737 -0.2108
 2075TIP3    H2 6190   5.176   1.056   3.001  1.9137 -0.9729  0.0625
 2076TIP3   OH2 6191   2.829   2.809   3.433  0.2336  0.2500  0.8141
 2076TIP3    H1 6192   2.801   2.718   3.426  0.9630  0.0322  0.5996
 2076TIP3    H2 6193   2.865   2.830   3.346  0.0945  0.7300  0.8687
 2077TIP3   OH2 6194   3.438   5.026   1.283 -0.2122  0.3367 -0.0862
 2077TIP3    H1 6195   3.386   4.990   1.211  1.9457  1.3252 -2.2955
 2077TIP3    H2 6196   3.471   4.950   1.329 -1.3120 -0.3410 -0.3744
 2078TIP3   OH2 6197   6.735   5.392   4.746  0.1936 -0.1620 -0.4855
 2078TIP3    H1 6198   6.741   5.296   4.738  0.8173 -0.1812  0.2093
 2078TIP3    H2 6199   6.718   5.407   4.838  0.0868  0.4060 -0.5987
 2079TIP3   OH2 6200   1.846   4.804   5.272  0.1125 -0.2772 -0.4895
 2079TIP3    H1 6201   1.869   4.824   5.363 -1.3521 -1.0737  0.0861
 2079TIP3    H2 6202   1.898   4.865   5.220  0.7367  0.4094  0.8984
 2080TIP3   OH2 6203   0.868   0.666   1.701 -0.0244 -0.6823 -0.3447
 2080TIP3    H1 6204   0.917   0.630   1.628 -0.8748 -1.0284 -0.7626
 2080TIP3    H2 6205   0.781   0.626   1.694 -1.6757  2.6932 -1.9280
 2081TIP3   OH2 6206   0.911   4.453   0.102 -0.3407  0.2978 -0.7965
 2081TIP3    H1 6207   0.889   4.367   0.138  3.2785 -1.5781 -2.4829
 2081TIP3    H2 6208   0.899   4.514   0.175  0.4247 -2.2315  1.6211
 2082TIP3   OH2 6209   6.567   1.759   3.488 -0.1414 -0.4826  0.3956
 2082TIP3    H1 6210   6.509   1.793   3.420 -0.1171 -0.4281  0.4021
 2082TIP3    H2 6211   6.632   1.707   3.441  0.4034  0.2724  0.2864
 2083TIP3   OH2 6212   6.103   3.152   1.804 -0.3069  0.2656 -0.8715
 2083TIP3    H1 6213   6.192   3.183   1.814 -0.4889  0.0851  2.3736
 2083TIP3    H2 6214   6.053   3.230   1.780  0.5741  0.4944 -2.0610
 2084TIP3   OH2 6215   0.821   4.517   1.378 -0.0587 -0.5771  0.4025
 2084TIP3    H1 6216   0.885   4.446   1.382 -0.6946 -1.1923 -0.0585
 2084TIP3    H2 6217   0.868   4.593   1.411  0.5090 -1.2983  1.3188
 2085TIP3   OH2 6218   5.160   1.514   4.816 -0.2542  0.5705 -0.1668
 2085TIP3    H1 6219   5.119   1.552   4.893 -0.6442 -0.5351  0.1942
 2085TIP3    H2 6220   5.238   1.567   4.801  0.2640  0.3181  1.4871
 2086TIP3   OH2 6221   5.160   3.990   3.316  0.0578  0.2406  0.0530
 2086TIP3    H1 6222   5.221   4.036   3.373  1.5142 -3.0218  1.3946
 2086TIP3    H2 6223   5.211   3.970   3.237  0.4997 -1.6598  0.7772
 2087TIP3   OH2 6224   4.856   6.757   5.401  0.3826  0.4689 -0.0418
 2087TIP3    H1 6225   4.800   6.740   5.477  1.0970  1.3501  0.7005
 2087TIP3    H2 6226   4.818   6.835   5.361  2.2897  2.4030  1.7256
 2088TIP3   OH2 6227   3.660   5.618   0.599 -0.2800  0.6205  0.1955
 2088TIP3    H1 6228   3.667   5.667   0.516 -1.7271 -1.3769 -1.1923
 2088TIP3    H2 6229   3.572   5.637   0.630 -1.2741 -1.7535 -0.9076
 2089TIP3   OH2 6230   5.740   5.207   5.666  0.3187 -0.5397  0.4720
 2089TIP3    H1 6231   5.708   5.155   5.739 -0.7928 -0.2945  0.1877
 2089TIP3    H2 6232   5.818   5.161   5.635  2.6346  0.8844  3.6075
 2090TIP3   OH2 6233   1.522   2.511   3.956 -0.0504  0.0219  0.2678
 2090TIP3    H1 6234   1.515   2.440   3.892  0.3064 -0.6661  0.9643
 2090TIP3    H2 6235   1.580   2.475   4.024  1.3066  1.5029 -0.0642
 2091TIP3   OH2 6236   7.187   0.377   4.601  0.1730 -0.1006  0.2684
 2091TIP3    H1 6237   7.273   0.409   4.629 -0.4023  1.7027  0.1155
 2091TIP3    H2 6238   7.173   0.296   4.652  0.4600  1.4425  2.9986
 2092TIP3   OH2 6239   6.883   3.436   0.784 -0.0545 -0.2500  0.8703
 2092TIP3    H1 6240   6.897   3.367   0.718  0.6576 -0.4348  1.2026
 2092TIP3    H2 6241   6.797   3.472   0.763  0.3852  0.0644 -0.4960
 2093TIP3   OH2 6242   5.249   2.965   2.944  0.1446  0.2753  0.1194
 2093TIP3    H1 6243   5.266   3.003   3.030 -1.9546 -0.2648  0.8248
 2093TIP3    H2 6244   5.209   2.880   2.962 -0.7229  0.3202 -1.3721
 2094TIP3   OH2 6245   4.883   6.275   3.963  0.3304  0.1701 -0.2458
 2094TIP3    H1 6246   4.946   6.318   4.021  0.3649 -0.2429  0.0350
 2094TIP3    H2 6247   4.806   6.331   3.965  0.1630 -0.0807  0.5779
 2095TIP3   OH2 6248   0.624   5.065   2.094 -0.0337 -0.1864  0.1872
 2095TIP3    H1 6249   0.596   5.064   2.003  0.0771 -1.4827  0.1414
 2095TIP3    H2 6250   0.705   5.013   2.095  0.9101  1.2420  0.7564
 2096TIP3   OH2 6251   1.966   0.731   2.042 -0.6952 -0.1558  0.1474
 2096TIP3    H1 6252   2.055   0.761   2.025 -0.8881  1.0214  1.1171
 2096TIP3    H2 6253   1.921   0.806   2.081 -2.0897 -0.7570 -0.2066
 2097TIP3   OH2 6254   0.036   4.918   2.313 -0.5116 -0.0364  0.2874
 2097TIP3    H1 6255  -0.011   4.964   2.244 -2.1742  0.8915  1.9322
 2097TIP3    H2 6256   0.103   4.980   2.343  0.2591 -0.4674 -0.4900
 2098TIP3   OH2 6257   6.639   2.796   0.901  0.1169 -0.2809 -0.2353
 2098TIP3    H1 6258   6.717   2.823   0.853  0.1602  1.0409  0.5294
 2098TIP3    H2 6259   6.653   2.704   0.920 -0.5710 -1.3568 -4.0042
 2099TIP3   OH2 6260   0.439   3.540   3.487 -0.5836  0.4915 -0.3273
 2099TIP3    H1 6261   0.413   3.606   3.424 -2.0113  1.2379  0.9747
 2099TIP3    H2 6262   0.525   3.568   3.518  0.2164  0.0227 -1.9922
 2100TIP3   OH2 6263   2.022   6.273   0.363  0.2931 -0.1122  0.4288
 2100TIP3    H1 6264   2.100   6.232   0.325 -0.5303 -2.6777  1.2829
 2100TIP3    H2 6265   2.002   6.220   0.440 -4.4112 -2.0942 -1.7565
 2101TIP3   OH2 6266   5.577   1.209   2.764 -0.4379 -0.1999 -0.2408
 2101TIP3    H1 6267   5.614   1.187   2.849  2.0511  2.1079 -0.6035
 2101TIP3    H2 6268   5.646   1.189   2.701 -1.2241  0.6221 -1.4141
 2102TIP3   OH2 6269   2.624   0.607   3.954  0.4176  0.2555 -0.0811
 2102TIP3    H1 6270   2.599   0.678   4.013 -1.9270 -0.3521 -0.2466
 2102TIP3    H2 6271   2.716   0.591   3.973 -0.0172  0.6855  2.7746
 2103TIP3   OH2 6272   0.292   1.064   1.875  0.2787 -0.3014 -0.0208
 2103TIP3    H1 6273   0.337   1.014   1.806  0.2313  0.4459 -0.6104
 2103TIP3    H2 6274   0.363   1.099   1.928  0.3570 -0.0826 -0.2655
 2104TIP3   OH2 6275   4.385   2.099   2.207 -0.3120  0.4307 -0.3821
 2104TIP3    H1 6276   4.314   2.148   2.248  1.1626  1.5062  0.9807
 2104TIP3    H2 6277   4.463   2.152   2.223  0.9717 -1.2269 -0.9396
 2105TIP3   OH2 6278   2.360   3.260   4.547 -0.0122 -0.4690 -0.6159
 2105TIP3    H1 6279   2.451   3.239   4.527  0.6367  0.1919  1.3817
 2105TIP3    H2 6280   2.315   3.255   4.463  2.3370  1.5589 -2.1387
 2106TIP3   OH2 6281   5.703   1.796   1.816  0.7485 -0.2520  0.5049
 2106TIP3    H1 6282   5.683   1.777   1.725  0.6856  2.0552 -0.0123
 2106TIP3    H2 6283   5.795   1.770   1.827  1.2579  0.9566 -0.6960
 2107TIP3   OH2 6284   0.352   4.542   4.563  0.2445  0.4046  0.1341
 2107TIP3    H1 6285   0.330   4.458   4.602  0.5315 -0.5929 -1.7041
 2107TIP3    H2 6286   0.436   4.566   4.603  0.3659 -0.4019  0.3819
 2108TIP3   OH2 6287   0.024   3.326   2.151  0.0075  0.1625 -0.5708
 2108TIP3    H1 6288   0.006   3.420   2.139  1.0663  0.5831  0.9481
 2108TIP3    H2 6289   0.031   3.292   2.061 -1.1553  1.3607 -1.1574
 2109TIP3   OH2 6290   1.997   1.646   3.878  0.3286  0.1559  0.3546
 2109TIP3    H1 6291   1.940   1.643   3.801 -0.1235 -0.2872  0.6984
 2109TIP3    H2 6292   2.075   1.597   3.853 -0.1563 -0.6825  0.4407
 2110TIP3   OH2 6293   6.858   3.739   1.450 -0.1448 -0.3868 -0.4361
 2110TIP3    H1 6294   6.839   3.744   1.544  0.4306 -2.2111 -0.1794
 2110TIP3    H2 6295   6.772   3.741   1.408 -0.3609  2.0761 -0.0270
 2111TIP3   OH2 6296   6.132   1.618   5.529  0.5121 -0.6302 -0.4060
 2111TIP3    H1 6297   6.170   1.697   5.566 -1.3572  0.0573  0.1755
 2111TIP3    H2 6298   6.063   1.593   5.591 -0.7756 -1.0975 -1.9601
 2112TIP3   OH2 6299   0.297   3.534   4.413  0.8114  0.6381  0.1273
 2112TIP3    H1 6300   0.271   3.466   4.476 -1.2539  1.4524  0.2313
 2112TIP3    H2 6301   0.321   3.609   4.468  1.3018  0.6006 -0.0294
 2113TIP3   OH2 6302   7.089   1.387   1.641  0.2123 -0.3686  0.4921
 2113TIP3    H1 6303   7.136   1.304   1.644 -1.1220 -1.1410  0.4350
 2113TIP3    H2 6304   7.093   1.415   1.550  1.6707  0.2483  0.7176
 2114TIP3   OH2 6305   1.841   1.598   2.709  0.6762 -0.2153 -0.4068
 2114TIP3    H1 6306   1.871   1.556   2.789  0.2408 -0.2582 -0.2639
 2114TIP3    H2 6307   1.899   1.565   2.641  1.3424  0.1706 -0.0408
 2115TIP3   OH2 6308   2.886   6.622   5.083  0.0865  0.0374  0.1182
 2115TIP3    H1 6309   2.811   6.615   5.142  0.4326  0.4317  0.6162
 2115TIP3    H2 6310   2.851   6.663   5.004 -0.3200 -0.2063  0.1720
 2116TIP3   OH2 6311   3.885   1.357   5.142 -0.0526 -0.7009  0.1756
 2116TIP3    H1 6312   3.851   1.276   5.105  0.1193  0.2698 -2.3561
 2116TIP3    H2 6313   3.948   1.389   5.077  1.4268  0.4484  2.0499
 2117TIP3   OH2 6314   1.311   5.104   0.202  0.5772 -0.4990 -0.4547
 2117TIP3    H1 6315   1.356   5.158   0.136  1.2609  0.6364  0.8678
 2117TIP3    H2 6316   1.365   5.114   0.280 -0.5429 -1.3069  0.4436
 2118TIP3   OH2 6317   7.168   4.433   5.778 -0.2505  0.2226  0.2188
 2118TIP3    H1 6318   7.198   4.447   5.688  0.5232  0.5241  0.5155
 2118TIP3    H2 6319   7.142   4.520   5.809  3.5183  1.0345  1.6904
 2119TIP3   OH2 6320   3.080   2.528   5.622  0.4447 -0.0838 -0.2850
 2119TIP3    H1 6321   3.028   2.539   5.542  0.8740 -0.1015 -0.5688
 2119TIP3    H2 6322   3.081   2.433   5.637 -0.3061 -0.0208  0.1919
 2120TIP3   OH2 6323   5.757   6.415   5.783  0.1577  0.1574 -0.0173
 2120TIP3    H1 6324   5.698   6.413   5.708  0.0150  0.1744  0.0940
 2120TIP3    H2 6325   5.785   6.506   5.789  0.3201  0.1186 -0.1664
 2121TIP3   OH2 6326   4.414   5.722   2.311  0.2041  0.1636 -0.0436
 2121TIP3    H1 6327   4.462   5.800   2.284 -0.5802  0.5149 -0.4395
 2121TIP3    H2 6328   4.438   5.656   2.247  0.4104  0.2441 -0.0499
 2122TIP3   OH2 6329   3.536   4.972   0.397 -0.0294 -0.0318  0.0521
 2122TIP3    H1 6330   3.482   4.899   0.367  1.1694 -0.4635 -1.1469
 2122TIP3    H2 6331   3.517   4.979   0.491 -0.1140 -1.9371  0.2172
 2123TIP3   OH2 6332   0.596   5.514   0.560  0.0199 -0.5706  0.0050
 2123TIP3    H1 6333   0.564   5.429   0.588 -1.2105 -0.4683 -1.0273
 2123TIP3    H2 6334   0.629   5.499   0.471 -1.8778  0.3538 -0.9168
 2124TIP3   OH2 6335   2.264   2.968   1.445 -0.3905  0.4858 -0.7595
 2124TIP3    H1 6336   2.193   2.905   1.431 -0.0575  0.0438 -0.5050
 2124TIP3    H2 6337   2.292   2.952   1.536  1.4855 -0.8727 -1.5113
 2125TIP3   OH2 6338   1.758   5.363   4.874  0.6422  0.2277  0.3989
 2125TIP3    H1 6339   1.827   5.390   4.934 -1.4391  1.6273  2.3105
 2125TIP3    H2 6340   1.744   5.270   4.894  2.0575 -0.1528 -0.2024
 2126TIP3   OH2 6341   1.672   0.943   5.209 -0.3691 -0.1265  0.4854
 2126TIP3    H1 6342   1.756   0.947   5.163  0.2104  0.8555  1.5514
 2126TIP3    H2 6343   1.626   1.023   5.182 -1.7373 -1.4905 -1.4292
 2127TIP3   OH2 6344   4.894   1.850   5.016  0.1604  0.0308  0.6374
 2127TIP3    H1 6345   4.936   1.768   5.041 -0.4986 -0.3145  0.6542
 2127TIP3    H2 6346   4.874   1.893   5.100  2.7420  1.4310  0.6448
 2128TIP3   OH2 6347   5.461   6.001   3.979 -0.1964  0.6593  0.2496
 2128TIP3    H1 6348   5.495   5.982   4.067 -0.6203  0.5920  0.4010
 2128TIP3    H2 6349   5.525   5.963   3.920 -0.6430 -0.6009  0.5430
 2129TIP3   OH2 6350   3.473   2.321   0.037 -0.8610 -0.7726 -0.4653
 2129TIP3    H1 6351   3.403   2.366   0.085 -1.8613 -0.0611 -2.4511
 2129TIP3    H2 6352   3.441   2.231   0.027  0.0245 -1.3459  1.3790
 2130TIP3   OH2 6353   3.178   0.854   4.531 -0.4063 -1.4321  0.0934
 2130TIP3    H1 6354   3.098   0.808   4.556 -0.2664 -0.5669  2.4091
 2130TIP3    H2 6355   3.204   0.900   4.611  0.7515  0.7399 -1.4489
 2131TIP3   OH2 6356   5.596   6.166   2.558  1.2727  0.3824 -0.6074
 2131TIP3    H1 6357   5.512   6.204   2.584  1.4568  0.4862 -0.1603
 2131TIP3    H2 6358   5.655   6.241   2.551  1.2256  0.3562 -1.3339
 2132TIP3   OH2 6359   0.327   2.363   0.474  0.1700  0.3298  0.0616
 2132TIP3    H1 6360   0.272   2.427   0.430  0.5300  1.0892  0.6935
 2132TIP3    H2 6361   0.321   2.284   0.419  0.0379  1.0173 -0.9380
 2133TIP3   OH2 6362   0.574   2.787   0.950  0.4845 -0.0279  0.5582
 2133TIP3    H1 6363   0.623   2.836   1.016 -0.1947  1.2941  0.1143
 2133TIP3    H2 6364   0.586   2.836   0.869 -0.5864 -0.3428  0.1911
 2134TIP3   OH2 6365   2.763   4.205   2.441 -0.9422  0.1516 -0.5817
 2134TIP3    H1 6366   2.696   4.218   2.375 -2.0329  3.8868  0.9676
 2134TIP3    H2 6367   2.720   4.157   2.511 -0.8041 -0.7895 -1.1266
 2135TIP3   OH2 6368   4.461   4.295   3.494 -0.5799  1.0742  0.3328
 2135TIP3    H1 6369   4.391   4.358   3.507  0.0293  1.8208  0.0513
 2135TIP3    H2 6370   4.458   4.240   3.573 -1.0395  1.5269  0.6388
 2136TIP3   OH2 6371   2.264   2.632   5.200 -0.4604  0.8412  0.4366
 2136TIP3    H1 6372   2.192   2.575   5.226  1.4334 -1.8304  0.2523
 2136TIP3    H2 6373   2.301   2.663   5.283 -0.9911  1.1429  0.5641
 2137TIP3   OH2 6374   1.342   0.482   1.875  0.6054  0.3662 -0.3096
 2137TIP3    H1 6375   1.389   0.401   1.894  1.8407  0.9620 -0.7157
 2137TIP3    H2 6376   1.251   0.455   1.864  1.0149 -0.9791 -0.5608
 2138TIP3   OH2 6377   3.281   5.986   5.892 -0.4522 -0.2188  0.0731
 2138TIP3    H1 6378   3.336   5.958   5.818 -0.0645  0.1398  0.2206
 2138TIP3    H2 6379   3.280   5.910   5.950 -1.0064 -0.6114 -0.4386
 2139TIP3   OH2 6380   4.203   2.883   2.448 -0.0580 -0.5176 -0.2439
 2139TIP3    H1 6381   4.186   2.817   2.516  0.5253 -0.7338 -0.2996
 2139TIP3    H2 6382   4.129   2.875   2.388 -1.3687  0.6976  1.1366
 2140TIP3   OH2 6383   4.166   4.130   1.220  0.1944 -0.0352  0.5943
 2140TIP3    H1 6384   4.228   4.163   1.155  0.5848  0.0046  0.9828
 2140TIP3    H2 6385   4.095   4.093   1.168 -0.5097  1.8714  0.1477
 2141TIP3   OH2 6386   0.165   1.498   3.585  0.4471 -0.2408  0.4486
 2141TIP3    H1 6387   0.168   1.460   3.498  1.3735  1.1174 -0.1517
 2141TIP3    H2 6388   0.123   1.583   3.573  1.6225  0.4719  1.0941
 2142TIP3   OH2 6389   4.138   3.194   2.578 -0.0750  0.3131 -0.3973
 2142TIP3    H1 6390   4.158   3.158   2.665  0.5773  0.1780 -0.5964
 2142TIP3    H2 6391   4.078   3.266   2.596  1.1698  1.2266  0.3297
 2143TIP3   OH2 6392   2.176   5.975   0.295  0.0506 -0.1739 -0.4022
 2143TIP3    H1 6393   2.240   5.919   0.340 -1.2780  1.3368  3.7903
 2143TIP3    H2 6394   2.229   6.045   0.256  1.1936 -0.5579  0.3880
 2144TIP3   OH2 6395   0.326   4.944   4.310  0.6655  0.3660 -0.4296
 2144TIP3    H1 6396   0.324   4.940   4.215  2.4738 -1.8831 -0.4597
 2144TIP3    H2 6397   0.262   5.012   4.333 -0.1835  0.6065 -3.1879
 2145TIP3   OH2 6398   6.754   1.739   0.773  0.0460 -0.3820  0.0369
 2145TIP3    H1 6399   6.846   1.723   0.751  0.0889  0.7796 -0.7039
 2145TIP3    H2 6400   6.757   1.779   0.860  0.0962 -1.9287  0.7935
 2146TIP3   OH2 6401   4.701   6.183   1.944  0.0037  0.7181  0.0756
 2146TIP3    H1 6402   4.662   6.233   2.016 -1.1853  2.1051 -1.4512
 2146TIP3    H2 6403   4.641   6.195   1.871  0.5898 -1.5697 -0.8799
 2147TIP3   OH2 6404   2.681   2.998   1.323 -0.1610  0.1469 -0.0537
 2147TIP3    H1 6405   2.617   2.929   1.307  1.1493 -1.3154  0.7655
 2147TIP3    H2 6406   2.734   3.001   1.243  0.7288 -0.9042  0.4609
 2148TIP3   OH2 6407   6.512   2.525   3.503  0.3647  0.0108  0.3735
 2148TIP3    H1 6408   6.550   2.439   3.524  1.5280  0.5116  0.3768
 2148TIP3    H2 6409   6.487   2.518   3.411  2.2377  0.2664 -0.1963
 2149TIP3   OH2 6410   4.409   3.318   1.138 -0.3530 -0.0071 -0.1054
 2149TIP3    H1 6411   4.443   3.264   1.067 -1.7770 -1.6620  0.4146
 2149TIP3    H2 6412   4.467   3.300   1.212 -0.1182  0.1021 -0.2619
 2150TIP3   OH2 6413   6.756   2.219   4.838 -0.4603  0.3041  0.4082
 2150TIP3    H1 6414   6.680   2.276   4.846 -0.0389  0.8656  0.4527
 2150TIP3    H2 6415   6.724   2.142   4.792 -0.9181  0.7980 -0.1075
 2151TIP3   OH2 6416   1.375   3.169   5.377 -0.2103  0.2223  0.5804
 2151TIP3    H1 6417   1.430   3.091   5.366  0.4209  0.6239  0.8410
 2151TIP3    H2 6418   1.372   3.183   5.472 -3.1530 -1.4756  0.8820
 2152TIP3   OH2 6419   1.730   1.658   5.174  0.3875 -0.2669 -0.0027
 2152TIP3    H1 6420   1.649   1.607   5.164  0.5021 -0.6025  0.7400
 2152TIP3    H2 6421   1.788   1.625   5.106 -0.2785  0.3432 -0.8913
 2153TIP3   OH2 6422   6.877   1.574   2.426  0.3865  0.0979 -0.2343
 2153TIP3    H1 6423   6.830   1.492   2.437  0.5540 -0.1100 -0.9928
 2153TIP3    H2 6424   6.820   1.640   2.464  0.0791 -0.3241  0.0380
 2154TIP3   OH2 6425   3.021   4.285   3.459 -0.1619  0.4186  0.0066
 2154TIP3    H1 6426   2.998   4.193   3.474 -0.4915  0.6497  0.9833
 2154TIP3    H2 6427   2.989   4.304   3.371 -0.6210 -0.2412  0.0267
 2155TIP3   OH2 6428   2.888   4.881   0.955 -0.2809  0.2902  0.3291
 2155TIP3    H1 6429   2.885   4.789   0.983 -0.1717  0.1746 -0.0237
 2155TIP3    H2 6430   2.915   4.929   1.033 -0.9203  0.0978  0.6831
 2156TIP3   OH2 6431   2.661   6.750   4.728 -0.1482 -0.1625  0.6382
 2156TIP3    H1 6432   2.584   6.759   4.784 -0.0927  0.7509  0.5881
 2156TIP3    H2 6433   2.653   6.663   4.690 -1.4443  0.1239  0.1987
 2157TIP3   OH2 6434   2.474   5.579   0.292  0.1878  0.1103  0.2607
 2157TIP3    H1 6435   2.442   5.561   0.204 -2.2597  0.3991  1.0295
 2157TIP3    H2 6436   2.486   5.492   0.331  1.9752 -0.0438 -0.5212
 2158TIP3   OH2 6437   6.591   3.902   0.635 -0.0329 -0.4115  0.0287
 2158TIP3    H1 6438   6.525   3.900   0.566  0.1103 -0.8517 -0.0974
 2158TIP3    H2 6439   6.547   3.867   0.712  0.2713 -1.4705 -0.2554
 2159TIP3   OH2 6440   5.201   3.005   2.272  0.1959  0.0127  0.2503
 2159TIP3    H1 6441   5.148   2.954   2.333 -0.9011  0.8904  0.0782
 2159TIP3    H2 6442   5.279   2.952   2.256 -1.6029 -2.3839 -1.2076
 2160TIP3   OH2 6443   4.526   2.527   2.404  0.1775 -1.1566  0.4444
 2160TIP3    H1 6444   4.617   2.523   2.433 -0.2747  0.1532  2.2560
 2160TIP3    H2 6445   4.499   2.617   2.423 -1.7425 -1.7529  0.7481
 2161TIP3   OH2 6446   1.285   6.373   4.467 -0.4685 -0.1412  0.0498
 2161TIP3    H1 6447   1.310   6.462   4.492  0.6567 -0.8006  1.3842
 2161TIP3    H2 6448   1.264   6.379   4.373  0.1979  1.3878 -0.0217
 2162TIP3   OH2 6449   3.554   3.441   3.835  0.2372  0.2599  0.2620
 2162TIP3    H1 6450   3.471   3.411   3.798  0.0483  2.5169 -1.3348
 2162TIP3    H2 6451   3.620   3.416   3.771  0.6737 -0.4932  0.9764
 2163TIP3   OH2 6452   5.883   6.659   5.477 -0.4577 -0.4296 -0.2850
 2163TIP3    H1 6453   5.866   6.613   5.395  0.3698  1.9573 -1.8938
 2163TIP3    H2 6454   5.938   6.599   5.527 -1.7502 -2.3301 -1.0418
 2164TIP3   OH2 6455   2.465   2.706   1.938  0.8388  0.5148  0.7021
 2164TIP3    H1 6456   2.448   2.722   1.846  0.1926  0.4722  0.8115
 2164TIP3    H2 6457   2.408   2.768   1.984 -0.1211 -0.6533  1.1005
 2165TIP3   OH2 6458   2.913   3.024   2.104 -0.0158 -0.1213  0.6180
 2165TIP3    H1 6459   2.912   3.119   2.105  0.8576 -0.1025  0.3727
 2165TIP3    H2 6460   3.003   3.001   2.080  0.4116 -1.0332  2.8562
 2166TIP3   OH2 6461   2.798   0.759   2.568  0.1591 -0.0214  0.1044
 2166TIP3    H1 6462   2.848   0.836   2.539  1.2123 -0.5605  0.4398
 2166TIP3    H2 6463   2.719   0.796   2.608 -0.7724  0.7846 -2.3084
 2167TIP3   OH2 6464   1.625   5.063   4.709  0.1528 -0.6519 -0.0909
 2167TIP3    H1 6465   1.653   5.024   4.792  1.3670 -0.7314 -0.5241
 2167TIP3    H2 6466   1.697   5.045   4.649  0.4486  1.6314 -0.5043
 2168TIP3   OH2 6467   6.278   1.255   2.306  0.1577  0.3095 -0.1619
 2168TIP3    H1 6468   6.284   1.176   2.254 -1.7634  0.9532 -1.4790
 2168TIP3    H2 6469   6.189   1.288   2.290  0.8820  2.7131  0.3345
 2169TIP3   OH2 6470   2.406   6.465   4.788  0.5629 -0.3705  0.9539
 2169TIP3    H1 6471   2.465   6.396   4.758  0.4975 -0.1715  0.3475
 2169TIP3    H2 6472   2.339   6.419   4.839  1.2322 -0.5969  1.6450
 2170TIP3   OH2 6473   3.345   2.981   2.391  0.6417 -0.6518 -0.0240
 2170TIP3    H1 6474   3.355   2.956   2.299  2.2152 -1.9552  0.4518
 2170TIP3    H2 6475   3.258   2.948   2.415  1.4870 -3.2787 -0.2232
 2171TIP3   OH2 6476   2.559   4.311   4.808 -0.0079  0.0653  0.1801
 2171TIP3    H1 6477   2.645   4.277   4.832  0.7238  0.7459 -1.3340
 2171TIP3    H2 6478   2.497   4.244   4.839  1.2500 -1.7224 -0.9901
 2172TIP3   OH2 6479   1.027   5.870   3.050  0.7025 -0.0353  0.5583
 2172TIP3    H1 6480   1.009   5.922   3.128 -1.4875 -0.0105  0.1154
 2172TIP3    H2 6481   1.000   5.926   2.977 -1.7870 -1.6859  0.0714
 2173TIP3   OH2 6482   6.828   4.287   2.033  0.1514  0.3192 -0.3060
 2173TIP3    H1 6483   6.798   4.249   1.950 -0.4712  0.6924 -0.2606
 2173TIP3    H2 6484   6.776   4.244   2.100  1.5588 -0.9249  0.0290
 2174TIP3   OH2 6485   2.294   1.988   1.476  0.2091 -0.6725  0.3364
 2174TIP3    H1 6486   2.334   1.971   1.561  0.4867 -1.3627  0.0736
 2174TIP3    H2 6487   2.201   1.968   1.489  0.0793  0.1337  0.7228
 2175TIP3   OH2 6488   6.419   0.902   5.286 -0.5375  0.1379 -0.3061
 2175TIP3    H1 6489   6.406   0.997   5.288  0.3827  0.2650  0.8080
 2175TIP3    H2 6490   6.509   0.891   5.255 -0.2649 -0.3036  0.6028
 2176TIP3   OH2 6491   2.103   6.284   2.608  0.0219  0.1713 -0.2195
 2176TIP3    H1 6492   2.071   6.233   2.533 -1.0763  1.3160 -0.5674
 2176TIP3    H2 6493   2.198   6.278   2.603 -0.0577 -1.7915 -0.2650
 2177TIP3   OH2 6494   2.730   4.088   0.250 -0.4537 -0.1144 -0.1779
 2177TIP3    H1 6495   2.635   4.096   0.247 -0.4011  0.5571 -0.1982
 2177TIP3    H2 6496   2.759   4.169   0.292  0.0586 -0.6580  0.5392
 2178TIP3   OH2 6497   2.389   2.092   0.359 -0.1453  0.0549 -0.4244
 2178TIP3    H1 6498   2.331   2.020   0.382  1.1641 -0.2685  2.3952
 2178TIP3    H2 6499   2.477   2.060   0.383  0.8453  1.5010 -1.9274
 2179TIP3   OH2 6500   4.601   3.423   1.543 -0.1842 -0.5225 -0.4431
 2179TIP3    H1 6501   4.579   3.403   1.634 -1.4726  2.0197 -0.1099
 2179TIP3    H2 6502   4.519   3.416   1.496  0.1201 -0.0215 -1.0552
 2180TIP3   OH2 6503   5.129   6.406   4.074  0.5165  0.6712  0.4670
 2180TIP3    H1 6504   5.221   6.381   4.068  0.5225 -0.5872  3.7794
 2180TIP3    H2 6505   5.131   6.498   4.099  0.9719  0.2735  1.9796
 2181TIP3   OH2 6506   5.254   5.928   2.725  0.2447 -0.2406 -0.3443
 2181TIP3    H1 6507   5.173   5.978   2.731 -0.2645 -1.1463  0.7017
 2181TIP3    H2 6508   5.321   5.984   2.764 -0.0729  0.1314 -0.3349
 2182TIP3   OH2 6509   2.981   5.436   1.130  0.2528  0.5101  0.3430
 2182TIP3    H1 6510   3.042   5.365   1.106  0.5845  0.4642  1.3055
 2182TIP3    H2 6511   2.895   5.396   1.122  0.4730 -0.3377  1.8943
 2183TIP3   OH2 6512   2.505   3.377   5.239  0.5418  0.1165  0.0629
 2183TIP3    H1 6513   2.479   3.285   5.237  0.7556  0.0502 -1.4687
 2183TIP3    H2 6514   2.441   3.419   5.297  0.4785 -0.9995  0.8194
 2184TIP3   OH2 6515   7.074   0.171   3.440  0.1829  0.4833 -0.0037
 2184TIP3    H1 6516   7.072   0.167   3.344 -0.2521  0.2786  0.0092
 2184TIP3    H2 6517   7.153   0.221   3.461  0.8129 -0.3061 -0.4427
 2185TIP3   OH2 6518   5.711   3.604   5.289  0.2252 -0.3474 -0.0605
 2185TIP3    H1 6519   5.684   3.680   5.342 -1.0983  0.2365 -1.4811
 2185TIP3    H2 6520   5.805   3.596   5.305  0.2995  1.2782  0.5389
 2186TIP3   OH2 6521   5.748   1.201   2.536 -0.0620  0.3861  0.1648
 2186TIP3    H1 6522   5.801   1.239   2.606  1.3263 -2.6550  0.9130
 2186TIP3    H2 6523   5.786   1.115   2.521 -2.2044 -0.2573 -2.2936
 2187TIP3   OH2 6524   1.175   4.822   4.918 -0.3148  0.6056  0.1668
 2187TIP3    H1 6525   1.187   4.754   4.852  0.1174 -1.0057  1.8266
 2187TIP3    H2 6526   1.242   4.887   4.898 -0.7407  0.5869 -1.4576
 2188TIP3   OH2 6527   6.300   2.357   1.550 -0.1003  0.1532 -0.2177
 2188TIP3    H1 6528   6.316   2.358   1.645  0.2876  0.6910 -0.2818
 2188TIP3    H2 6529   6.370   2.411   1.514 -1.2561  1.4047 -0.6525
 2189TIP3   OH2 6530   7.165   0.348   5.016 -0.2327 -0.0232 -0.2018
 2189TIP3    H1 6531   7.081   0.392   5.024  0.2880  0.9100  0.4214
 2189TIP3    H2 6532   7.222   0.412   4.973 -0.1367 -1.0885 -1.7652
 2190TIP3   OH2 6533   2.876   3.301   2.068  0.4015  0.1672  0.0446
 2190TIP3    H1 6534   2.945   3.361   2.097  0.8327 -0.5244  0.4592
 2190TIP3    H2 6535   2.800   3.358   2.052  0.6581  0.7613  0.8972
 2191TIP3   OH2 6536   5.433   4.827   2.065  0.2547  0.2293 -0.0788
 2191TIP3    H1 6537   5.358   4.813   2.123 -0.0322  0.2877 -0.4359
 2191TIP3    H2 6538   5.477   4.904   2.101 -0.8767  1.3115 -0.9037
 2192TIP3   OH2 6539   6.564   1.825   0.578 -0.0593  0.6577 -0.0994
 2192TIP3    H1 6540   6.619   1.815   0.655 -2.3526  2.6269  2.0073
 2192TIP3    H2 6541   6.475   1.833   0.613 -1.3974  0.3469 -3.0821
 2193TIP3   OH2 6542   2.231   1.037   4.856  0.0615  0.3506  0.4201
 2193TIP3    H1 6543   2.274   1.122   4.868  1.9032 -0.3401 -0.7877
 2193TIP3    H2 6544   2.138   1.055   4.871  0.4074  2.5503  0.3394
 2194TIP3   OH2 6545   5.231   5.012   1.137 -0.5134 -0.2101  0.3911
 2194TIP3    H1 6546   5.226   4.934   1.193 -0.0036 -0.3103  0.2982
 2194TIP3    H2 6547   5.308   5.060   1.168 -0.3929 -0.1211 -0.0333
 2195TIP3   OH2 6548   5.371   1.385   1.144  0.2361 -0.1143 -0.1122
 2195TIP3    H1 6549   5.447   1.394   1.202  0.7931  2.0932 -1.0761
 2195TIP3    H2 6550   5.406   1.342   1.066 -0.1599 -1.6187  0.5081
 2196TIP3   OH2 6551   2.323   2.192   3.805 -0.6285 -0.0062  0.2174
 2196TIP3    H1 6552   2.263   2.171   3.877  0.3116 -1.9354  0.5189
 2196TIP3    H2 6553   2.371   2.269   3.835  0.5705 -1.4196  2.2795
 2197TIP3   OH2 6554   5.359   2.186   0.345 -0.2993  0.3094  0.2449
 2197TIP3    H1 6555   5.400   2.196   0.259  0.8388 -0.7316  0.6363
 2197TIP3    H2 6556   5.379   2.096   0.371 -0.4948  0.6500  1.6700
 2198TIP3   OH2 6557   3.821   0.854   2.668 -0.0905  0.1704  0.1908
 2198TIP3    H1 6558   3.911   0.862   2.634  0.5655  2.0808  2.1841
 2198TIP3    H2 6559   3.767   0.848   2.589  1.7955 -2.3324 -1.0957
 2199TIP3   OH2 6560   2.670   6.091   2.561 -0.0936  0.4052  0.3957
 2199TIP3    H1 6561   2.646   6.177   2.528 -1.1916  0.2304  0.7161
 2199TIP3    H2 6562   2.601   6.033   2.529  0.3344 -0.2587  0.6530
 2200TIP3   OH2 6563   5.304   0.173   3.542 -0.3334 -0.0109 -0.4166
 2200TIP3    H1 6564   5.371   0.153   3.477  0.0114  0.6984 -0.2946
 2200TIP3    H2 6565   5.233   0.213   3.492  0.1475  1.0141 -0.3056
 2201TIP3   OH2 6566   0.727   2.805   3.745 -0.2910 -0.7774  0.3861
 2201TIP3    H1 6567   0.670   2.824   3.820  1.9986  1.9127  1.6380
 2201TIP3    H2 6568   0.800   2.755   3.783 -0.7676 -2.3971 -0.7712
 2202TIP3   OH2 6569   5.731   3.931   0.405  0.7184 -0.1229  0.4607
 2202TIP3    H1 6570   5.683   3.890   0.334 -1.0738  1.0530  0.9097
 2202TIP3    H2 6571   5.668   3.937   0.477  1.1260  2.4560  0.7287
 2203TIP3   OH2 6572   2.421   3.119   3.235 -0.3788  0.4263  0.1157
 2203TIP3    H1 6573   2.386   3.036   3.201 -0.7983 -0.1222  1.7599
 2203TIP3    H2 6574   2.504   3.095   3.276 -0.3375  0.8838  0.3021
 2204TIP3   OH2 6575   3.750   6.570   0.624 -0.2600 -0.0168  0.3576
 2204TIP3    H1 6576   3.786   6.583   0.712 -0.4202 -0.4618  0.4921
 2204TIP3    H2 6577   3.816   6.517   0.579 -0.9193 -1.2001  0.7384
 2205TIP3   OH2 6578   2.155   2.256   5.148  0.0003 -0.2122 -0.8370
 2205TIP3    H1 6579   2.077   2.232   5.098 -0.5646  0.4222 -0.2807
 2205TIP3    H2 6580   2.189   2.173   5.181 -0.8582 -0.4417 -0.4903
 2206TIP3   OH2 6581   6.112   1.520   4.788 -0.0858  0.3020 -0.0009
 2206TIP3    H1 6582   6.067   1.530   4.704 -1.0112 -2.9603 -0.0195
 2206TIP3    H2 6583   6.042   1.498   4.850  1.0119 -1.2001  0.7530
 2207TIP3   OH2 6584   5.501   3.816   1.033 -0.0425 -0.1693 -0.3223
 2207TIP3    H1 6585   5.496   3.765   0.953 -0.2886 -1.6247  0.5853
 2207TIP3    H2 6586   5.511   3.751   1.103  1.5538  1.1119  0.7204
 2208TIP3   OH2 6587   6.215   0.748   5.032  0.4113  0.1314 -0.2980
 2208TIP3    H1 6588   6.187   0.776   5.119  3.3343 -0.2793  0.9083
 2208TIP3    H2 6589   6.250   0.660   5.045  2.5978  0.7395 -1.4386
 2209TIP3   OH2 6590   6.796   1.359   2.044  0.2159 -0.0282 -0.5176
 2209TIP3    H1 6591   6.749   1.276   2.037 -2.9664  1.6213 -0.3021
 2209TIP3    H2 6592   6.820   1.365   2.136 -0.7732 -0.1246 -0.2434
 2210TIP3   OH2 6593   3.247   1.686   0.039 -0.1375 -0.3694  0.5987
 2210TIP3    H1 6594   3.187   1.635   0.093  0.4301 -1.1705  0.4732
 2210TIP3    H2 6595   3.282   1.753   0.098  1.3682 -1.9395  1.5751
 2211TIP3   OH2 6596   0.529   2.876   4.897  0.0820  0.2968  0.2227
 2211TIP3    H1 6597   0.608   2.912   4.858 -0.4833  1.7937  0.3742
 2211TIP3    H2 6598   0.510   2.796   4.847  0.9476  0.6305 -0.6562
 2212TIP3   OH2 6599   0.641   1.810   0.586 -0.4155 -0.3301  0.4579
 2212TIP3    H1 6600   0.551   1.778   0.593 -0.5204 -0.2783 -0.6093
 2212TIP3    H2 6601   0.660   1.845   0.673 -1.3617 -0.5066  0.7504
 2213TIP3   OH2 6602   6.833   4.026   0.715 -0.1019  0.4001  0.1600
 2213TIP3    H1 6603   6.856   4.114   0.744 -0.5925  1.6710 -2.8724
 2213TIP3    H2 6604   6.739   4.019   0.732 -0.8316  1.9147 -2.5058
 2214TIP3   OH2 6605   2.289   3.777   5.205 -0.1705  0.7702  0.3477
 2214TIP3    H1 6606   2.322   3.754   5.292  0.8526  0.9631  0.0299
 2214TIP3    H2 6607   2.362   3.757   5.146  1.2688  5.5101  0.0711
 2215TIP3   OH2 6608   4.241   5.193   5.372 -0.0879  0.3649 -0.1887
 2215TIP3    H1 6609   4.239   5.140   5.293  0.7574 -0.0776  0.0756
 2215TIP3    H2 6610   4.253   5.129   5.443  2.1228  0.9523  0.0479
 2216TIP3   OH2 6611   3.600   0.301   4.413 -0.2250 -0.0375 -0.5087
 2216TIP3    H1 6612   3.524   0.242   4.423  0.1022 -0.7347 -1.7861
 2216TIP3    H2 6613   3.562   0.387   4.399 -0.7039  0.4005  2.8668
 2217TIP3   OH2 6614   5.010   0.366   0.221  0.1531 -0.4663  0.5312
 2217TIP3    H1 6615   5.058   0.447   0.204 -0.6679  0.3731  1.9610
 2217TIP3    H2 6616   4.966   0.346   0.139  0.8049  0.2471  0.0001
 2218TIP3   OH2 6617   4.208   5.364   2.545 -0.0230 -0.2748 -0.1605
 2218TIP3    H1 6618   4.224   5.453   2.575 -0.6093 -0.5619  1.1110
 2218TIP3    H2 6619   4.291   5.335   2.508  0.3036  0.6380 -0.1519
 2219TIP3   OH2 6620   5.048   1.863   3.263  0.1939 -0.0131 -0.3465
 2219TIP3    H1 6621   5.072   1.935   3.203  0.3809  0.2198  0.0048
 2219TIP3    H2 6622   5.041   1.905   3.349 -1.7867 -0.0186 -0.4635
 2220TIP3   OH2 6623   2.435   1.058   2.494  0.3697  0.5881 -0.8900
 2220TIP3    H1 6624   2.426   1.117   2.419  2.3682  1.0733 -0.8128
 2220TIP3    H2 6625   2.500   1.100   2.550 -1.0619  0.2203  1.1476
 2221TIP3   OH2 6626   3.957   1.359   2.981  0.8061  0.2692  0.1810
 2221TIP3    H1 6627   3.886   1.405   2.938  1.6943 -0.5456 -2.3192
 2221TIP3    H2 6628   4.036   1.402   2.949  1.6052 -2.0871 -1.2826
 2222TIP3   OH2 6629   5.514   5.730   0.271 -0.1261 -0.5975  0.2785
 2222TIP3    H1 6630   5.502   5.762   0.360 -0.9097 -2.7359  0.9965
 2222TIP3    H2 6631   5.512   5.635   0.279  0.2794 -0.8496 -1.9726
 2223TIP3   OH2 6632   2.982   2.952   5.457  0.2125  0.2001  0.1837
 2223TIP3    H1 6633   2.907   2.988   5.410  0.5620  1.6859  0.7364
 2223TIP3    H2 6634   2.948   2.928   5.543 -0.0608 -1.0328 -0.2410
 2224TIP3   OH2 6635   2.239   4.409   4.976 -0.4326 -0.7167 -0.5659
 2224TIP3    H1 6636   2.295   4.332   4.965  0.7041 -0.0720  0.4119
 2224TIP3    H2 6637   2.299   4.477   5.009 -1.1309  0.9569 -2.5263
 2225TIP3   OH2 6638   4.009   1.461   4.600  0.4588  0.0548 -0.4945
 2225TIP3    H1 6639   4.081   1.524   4.607  0.8036 -0.3629 -0.2268
 2225TIP3    H2 6640   4.040   1.397   4.535  0.2868 -0.0633 -0.4609
 2226TIP3   OH2 6641   1.185   3.131   3.282 -0.0067  0.1694 -0.7496
 2226TIP3    H1 6642   1.256   3.121   3.345  0.0742  2.9463 -0.2369
 2226TIP3    H2 6643   1.120   3.066   3.308  2.1611 -2.2750 -1.0724
 2227TIP3   OH2 6644   6.773   4.271   3.064  0.0373  0.0784  0.0153
 2227TIP3    H1 6645   6.760   4.176   3.070  0.5790 -0.0148 -0.2095
 2227TIP3    H2 6646   6.867   4.283   3.076 -0.0037  0.5725 -0.1448
 2228TIP3   OH2 6647   0.100   5.563   2.981  0.1559  0.1890  0.3578
 2228TIP3    H1 6648   0.044   5.623   2.932  0.9094 -1.0549 -2.1597
 2228TIP3    H2 6649   0.189   5.597   2.968  0.4310 -0.5519  0.2474
 2229TIP3   OH2 6650   2.723   2.562   2.977 -0.0738 -0.2454  0.0665
 2229TIP3    H1 6651   2.668   2.617   3.033 -0.1400  0.2365 -0.4597
 2229TIP3    H2 6652   2.758   2.623   2.912  0.1868 -0.7563 -0.2705
 2230TIP3   OH2 6653   6.730   6.829   4.357 -0.3885  0.6908  0.2437
 2230TIP3    H1 6654   6.789   6.812   4.431 -1.8964  0.9394  1.5620
 2230TIP3    H2 6655   6.665   6.759   4.362  0.8573 -0.8471 -2.4649
 2231TIP3   OH2 6656   4.205   6.306   5.795 -0.4051 -0.8368 -0.0929
 2231TIP3    H1 6657   4.208   6.304   5.699 -0.2069  0.4307 -0.1312
 2231TIP3    H2 6658   4.174   6.394   5.816  2.1243 -0.1211  1.0360
 2232TIP3   OH2 6659   4.442   5.367   2.391 -0.2619 -0.2006  0.2210
 2232TIP3    H1 6660   4.476   5.395   2.306 -2.4634  0.3721 -0.5355
 2232TIP3    H2 6661   4.516   5.379   2.451  1.0030  0.4670 -1.3845
 2233TIP3   OH2 6662   4.795   5.607   4.469 -0.2686 -0.1109 -0.1702
 2233TIP3    H1 6663   4.716   5.660   4.473 -0.0152  0.4441 -1.9094
 2233TIP3    H2 6664   4.854   5.656   4.412  1.7592  0.0169  1.8968
 2234TIP3   OH2 6665   2.254   0.109   1.003  0.0105 -0.5613 -0.3952
 2234TIP3    H1 6666   2.303   0.090   1.083  0.3162 -0.2446 -0.5043
 2234TIP3    H2 6667   2.301   0.183   0.963 -0.7702 -0.0124 -0.3139
 2235TIP3   OH2 6668   4.818   3.417   2.454 -0.5909  0.1161 -0.0716
 2235TIP3    H1 6669   4.908   3.398   2.482 -0.1742  1.0746 -0.6968
 2235TIP3    H2 6670   4.793   3.342   2.401 -1.0626 -1.3094  2.0310
 2236TIP3   OH2 6671   5.483   4.574   2.696  0.6525  0.1980 -0.0580
 2236TIP3    H1 6672   5.427   4.536   2.628  1.2248  0.9865 -1.0015
 2236TIP3    H2 6673   5.453   4.665   2.703  1.0121  0.2913  0.3128
 2237TIP3   OH2 6674   1.480   3.439   0.676 -0.1960  0.1129  0.3525
 2237TIP3    H1 6675   1.416   3.461   0.743 -0.2307  0.7857  0.1030
 2237TIP3    H2 6676   1.460   3.498   0.603 -1.8281 -2.3096 -1.3128
 2238TIP3   OH2 6677   3.507   3.128   3.116 -0.0103  0.6929  0.2486
 2238TIP3    H1 6678   3.542   3.047   3.078  1.5535  1.5194 -0.1786
 2238TIP3    H2 6679   3.440   3.099   3.177 -0.0034 -0.8816 -0.4304
 2239TIP3   OH2 6680   5.446   6.499   0.323 -0.1346 -0.0520 -0.1378
 2239TIP3    H1 6681   5.532   6.514   0.285  0.6474 -0.3496  1.4231
 2239TIP3    H2 6682   5.458   6.515   0.417 -1.7248 -0.3259  0.1444
 2240TIP3   OH2 6683   2.118   0.684   5.410  0.2039  0.3688  0.1295
 2240TIP3    H1 6684   2.023   0.693   5.402 -0.0284 -0.0717  2.0241
 2240TIP3    H2 6685   2.135   0.591   5.390  0.3495  0.5867 -0.8482
 2241TIP3   OH2 6686   4.383   3.371   2.545  0.1534 -0.1717 -0.3446
 2241TIP3    H1 6687   4.323   3.299   2.566 -1.5066  1.6809  1.8118
 2241TIP3    H2 6688   4.451   3.365   2.612 -0.2180  0.4586  0.1041
 2242TIP3   OH2 6689   1.920   3.460   4.229 -0.0336 -0.0259 -0.0075
 2242TIP3    H1 6690   1.897   3.367   4.233  0.9404 -0.2471  1.9390
 2242TIP3    H2 6691   1.841   3.505   4.259 -0.0109 -0.3535  0.5678
 2243TIP3   OH2 6692   6.611   5.264   1.395 -0.3790 -0.0764  0.4374
 2243TIP3    H1 6693   6.562   5.313   1.462  0.3735  1.5906 -0.1676
 2243TIP3    H2 6694   6.579   5.299   1.312  2.2340  1.6441  0.0161
 2244TIP3   OH2 6695   4.783   3.871   4.774 -0.9248 -0.1199 -0.2249
 2244TIP3    H1 6696   4.756   3.804   4.711 -0.6644 -0.4352 -0.0049
 2244TIP3    H2 6697   4.870   3.898   4.744 -1.0115  0.0902 -0.2880
 2245TIP3   OH2 6698   4.005   5.219   4.732 -0.2025 -0.2661 -0.3746
 2245TIP3    H1 6699   3.951   5.140   4.734 -0.9327  0.2368  0.3286
 2245TIP3    H2 6700   4.037   5.229   4.822 -1.5910  1.2017  0.0158
 2246TIP3   OH2 6701   3.169   4.797   4.315 -0.2317  0.6700 -0.2193
 2246TIP3    H1 6702   3.079   4.764   4.313  0.3633 -1.1392  0.8986
 2246TIP3    H2 6703   3.195   4.792   4.407  2.6164 -3.6284 -0.9552
 2247TIP3   OH2 6704   4.667   5.075   1.389 -0.5595  0.8131 -0.1939
 2247TIP3    H1 6705   4.647   5.100   1.299 -3.7271 -2.0858 -0.5332
 2247TIP3    H2 6706   4.614   5.134   1.443  0.8630  2.1493 -0.2252
 2248TIP3   OH2 6707   2.417   0.692   5.601  0.0111 -0.4198  0.2591
 2248TIP3    H1 6708   2.481   0.755   5.636  1.5056 -1.2292 -0.9234
 2248TIP3    H2 6709   2.417   0.708   5.507 -0.6111 -1.2877  0.1072
 2249TIP3   OH2 6710   5.702   5.617   5.331  0.4239  0.1451 -0.0076
 2249TIP3    H1 6711   5.798   5.607   5.335  0.4082 -1.5675 -2.1397
 2249TIP3    H2 6712   5.671   5.580   5.414  1.5532 -0.1170  0.3251
 2250TIP3   OH2 6713   4.151   3.240   3.045 -0.5025 -0.0263 -1.2236
 2250TIP3    H1 6714   4.109   3.166   3.089 -1.7032  0.7785 -0.9553
 2250TIP3    H2 6715   4.221   3.267   3.105 -0.6391 -0.3793 -0.8987
 2251TIP3   OH2 6716   2.009   2.794   3.236 -0.2930 -0.8173  0.0116
 2251TIP3    H1 6717   1.964   2.763   3.158  0.5204  0.5097 -1.0373
 2251TIP3    H2 6718   2.102   2.784   3.216 -0.0352  0.7674  0.2497
 2252TIP3   OH2 6719   6.427   1.753   0.319  0.1753  0.3569  0.8012
 2252TIP3    H1 6720   6.471   1.796   0.392  1.4223  1.0962 -0.3485
 2252TIP3    H2 6721   6.480   1.775   0.242 -1.9499  0.9214 -0.5976
 2253TIP3   OH2 6722   0.226   2.344   5.438 -0.0634  0.0007  0.3541
 2253TIP3    H1 6723   0.270   2.398   5.504  0.9409 -0.4165  0.0523
 2253TIP3    H2 6724   0.172   2.284   5.488  1.3722 -0.9097  0.8745
 2254TIP3   OH2 6725   5.936   6.585   1.621 -0.1390 -0.4482  0.4945
 2254TIP3    H1 6726   5.965   6.535   1.697  0.3518  0.7085  1.0843
 2254TIP3    H2 6727   5.848   6.552   1.603 -0.1219 -0.9862  1.3349
 2255TIP3   OH2 6728   6.812   5.729   0.730  0.2873 -0.0809  0.1554
 2255TIP3    H1 6729   6.832   5.785   0.805 -1.0637 -2.9869  2.9098
 2255TIP3    H2 6730   6.725   5.757   0.700 -0.2038 -0.3950  1.2549
 2256TIP3   OH2 6731   2.918   0.661   0.295 -0.5854 -0.1130  0.2910
 2256TIP3    H1 6732   2.977   0.614   0.354 -0.8724 -3.0103 -1.5469
 2256TIP3    H2 6733   2.973   0.689   0.222 -1.2081 -1.9408 -0.9414
 2257TIP3   OH2 6734   1.275   0.917   1.951 -0.2349  0.3867  0.1826
 2257TIP3    H1 6735   1.278   0.977   2.026 -3.6949  1.1322 -0.0974
 2257TIP3    H2 6736   1.308   0.969   1.878 -0.8145  1.1266  0.4323
 2258TIP3   OH2 6737   3.762   3.874   4.037  0.8770 -0.4431 -0.5543
 2258TIP3    H1 6738   3.742   3.897   4.128 -0.4942 -3.3775  0.0100
 2258TIP3    H2 6739   3.785   3.781   4.041  3.2868 -0.0712 -2.9266
 2259TIP3   OH2 6740   6.982   1.215   4.790  0.0904  0.4665  0.3091
 2259TIP3    H1 6741   6.923   1.274   4.837 -1.9096 -1.6426  0.5887
 2259TIP3    H2 6742   6.925   1.160   4.736  2.1179  1.2661 -2.9877
 2260TIP3   OH2 6743   5.351   3.449   3.356 -0.6452 -0.9450 -0.2660
 2260TIP3    H1 6744   5.338   3.384   3.425 -0.4540 -3.2715 -2.2997
 2260TIP3    H2 6745   5.277   3.509   3.365 -1.2439 -1.8659  1.2253
 2261TIP3   OH2 6746   1.207   5.855   4.735 -0.1375 -0.2531 -0.3930
 2261TIP3    H1 6747   1.188   5.946   4.757 -1.2269 -0.7333  0.7264
 2261TIP3    H2 6748   1.195   5.851   4.640 -0.5063  0.6740 -0.3986
 2262TIP3   OH2 6749   2.238   6.584   1.099  0.1870  0.3832  0.4453
 2262TIP3    H1 6750   2.143   6.586   1.112  0.2282  1.1309  0.7060
 2262TIP3    H2 6751   2.254   6.505   1.047 -0.8108  1.2897 -1.3434
 2263TIP3   OH2 6752   0.952   6.543   2.364 -0.6421  0.0287  0.2065
 2263TIP3    H1 6753   0.992   6.463   2.331 -0.7126  0.1010 -0.0549
 2263TIP3    H2 6754   0.976   6.546   2.457  0.5669  0.4489 -0.1078
 2264TIP3   OH2 6755   2.854   3.824   2.897 -0.1538  0.4345  0.1833
 2264TIP3    H1 6756   2.935   3.807   2.945 -0.6734  2.0838  1.7397
 2264TIP3    H2 6757   2.806   3.886   2.952 -1.8790  0.5306 -1.3449
 2265TIP3   OH2 6758   2.757   6.752   2.878  0.2119 -0.2324  0.2964
 2265TIP3    H1 6759   2.681   6.697   2.899 -0.9818  1.1798 -0.2362
 2265TIP3    H2 6760   2.821   6.730   2.946 -0.4409 -1.8523  0.4281
 2266TIP3   OH2 6761   6.325   0.547   0.004 -0.1790 -0.1848 -0.5240
 2266TIP3    H1 6762   6.301   0.568   0.094  1.3409  0.4537 -0.2310
 2266TIP3    H2 6763   6.242   0.548  -0.044 -0.9620 -0.1307  0.7878
 2267TIP3   OH2 6764   5.835   5.072   2.348 -0.0834 -0.3580 -0.0430
 2267TIP3    H1 6765   5.911   5.067   2.406  0.4576  2.1222 -0.4445
 2267TIP3    H2 6766   5.867   5.118   2.271 -1.4225 -1.4393 -1.3069
 2268TIP3   OH2 6767   6.820   6.527   5.460 -0.1737 -0.4462 -0.3944
 2268TIP3    H1 6768   6.908   6.564   5.467  0.0289 -1.0356  0.4013
 2268TIP3    H2 6769   6.766   6.585   5.514  0.0229 -0.9057  0.3250
 2269TIP3   OH2 6770   6.701   0.893   4.163 -0.3603  0.5730  0.0991
 2269TIP3    H1 6771   6.647   0.890   4.242  1.1914 -0.2707  1.1844
 2269TIP3    H2 6772   6.638   0.890   4.091 -1.7752 -3.4337  1.2090
 2270TIP3   OH2 6773   6.434   3.526   2.700 -0.7689  0.1816  0.1071
 2270TIP3    H1 6774   6.431   3.594   2.632 -1.0577 -0.8539 -0.9496
 2270TIP3    H2 6775   6.465   3.448   2.654  1.2916 -0.0094  1.6639
 2271TIP3   OH2 6776   1.760   3.837   4.059 -0.0432  0.1544  0.3524
 2271TIP3    H1 6777   1.850   3.806   4.048 -0.0948 -0.2918  1.1345
 2271TIP3    H2 6778   1.723   3.780   4.127 -0.6889  0.7906  0.5459
 2272TIP3   OH2 6779   2.012   4.772   2.221 -0.1825 -0.3575 -0.0593
 2272TIP3    H1 6780   2.087   4.825   2.195 -0.5916 -0.3799 -1.3420
 2272TIP3    H2 6781   1.940   4.803   2.166 -0.7369 -1.3869  0.0625
 2273TIP3   OH2 6782   5.828   3.262   0.518 -0.2592 -0.5934  0.6359
 2273TIP3    H1 6783   5.837   3.337   0.577 -0.0949 -0.6129  0.6362
 2273TIP3    H2 6784   5.876   3.288   0.439 -1.9648  0.1640 -0.2002
 2274TIP3   OH2 6785   4.319   3.363   1.449  0.3027 -0.0298 -0.5423
 2274TIP3    H1 6786   4.287   3.350   1.538 -0.1369  0.4790 -0.6262
 2274TIP3    H2 6787   4.258   3.425   1.409 -0.7172 -1.7616 -1.8594
 2275TIP3   OH2 6788   6.124   2.144   1.209 -0.0468 -0.1997 -0.0848
 2275TIP3    H1 6789   6.080   2.147   1.124  0.2774  0.5072 -0.2280
 2275TIP3    H2 6790   6.200   2.088   1.195 -0.3076 -0.5555 -0.1057
 2276TIP3   OH2 6791   2.363   4.361   2.392 -0.0050 -0.3503 -0.3563
 2276TIP3    H1 6792   2.384   4.453   2.377  1.2970 -0.7935 -1.5840
 2276TIP3    H2 6793   2.346   4.355   2.486  3.3933  0.5667  0.4667
 2277TIP3   OH2 6794   3.863   0.154   3.661 -0.3535 -0.4256 -0.4857
 2277TIP3    H1 6795   3.856   0.076   3.607  1.6587 -0.7700 -0.3190
 2277TIP3    H2 6796   3.933   0.135   3.723  1.2865  2.0432 -1.4183
 2278TIP3   OH2 6797   0.307   6.415   4.471 -0.3126 -0.3915  0.2273
 2278TIP3    H1 6798   0.379   6.472   4.444 -0.2689 -1.0317 -1.0607
 2278TIP3    H2 6799   0.234   6.474   4.488 -0.2259  0.0825 -0.9559
 2279TIP3   OH2 6800   0.610   6.428   1.819  0.0908 -0.5156 -0.1461
 2279TIP3    H1 6801   0.558   6.452   1.743  0.8554 -0.6821 -0.7354
 2279TIP3    H2 6802   0.697   6.464   1.801  0.4309 -1.0457  0.3802
 2280TIP3   OH2 6803   1.965   1.081   4.849 -0.0239  0.1063  0.8534
 2280TIP3    H1 6804   1.982   1.167   4.811  2.3871 -0.7611 -0.2071
 2280TIP3    H2 6805   1.896   1.045   4.793 -0.2676  0.9053  0.6142
 2281TIP3   OH2 6806   6.309   6.687   3.749 -0.5108  0.0149 -0.0412
 2281TIP3    H1 6807   6.394   6.687   3.705  0.0964 -0.0938  1.0895
 2281TIP3    H2 6808   6.245   6.678   3.678  0.4127  0.1427 -0.9137
 2282TIP3   OH2 6809   5.525   4.206   2.802  1.0463  1.1529  0.7196
 2282TIP3    H1 6810   5.529   4.161   2.718  0.3207 -0.6949  1.6269
 2282TIP3    H2 6811   5.571   4.148   2.863  0.7694  2.0197  1.7825
 2283TIP3   OH2 6812   1.592   1.080   2.133 -0.4776  0.3960  0.1417
 2283TIP3    H1 6813   1.560   1.126   2.210  0.3215  0.7688  0.2632
 2283TIP3    H2 6814   1.598   1.147   2.065  0.7308  0.5023  0.3310
 2284TIP3   OH2 6815   1.731   6.775   4.158 -0.0231 -0.1413 -0.2563
 2284TIP3    H1 6816   1.823   6.795   4.174 -0.2216  1.6798 -1.1118
 2284TIP3    H2 6817   1.729   6.741   4.069 -0.0745 -1.1643  0.1233
 2285TIP3   OH2 6818   4.129   6.708   1.612  0.1082 -0.4058  0.5362
 2285TIP3    H1 6819   4.037   6.734   1.615 -0.0296 -0.9586  1.4504
 2285TIP3    H2 6820   4.174   6.782   1.572 -0.8039 -0.3418 -0.4140
 2286TIP3   OH2 6821   3.407   6.257   2.867 -0.1414  0.5125 -0.1912
 2286TIP3    H1 6822   3.361   6.295   2.942  0.1909 -1.6917  1.2323
 2286TIP3    H2 6823   3.341   6.203   2.823 -0.7926  2.9835 -2.5715
 2287TIP3   OH2 6824   7.096   3.424   0.252  0.3045 -0.1004 -0.6750
 2287TIP3    H1 6825   7.132   3.337   0.233  2.0204  0.5783 -0.6160
 2287TIP3    H2 6826   7.139   3.452   0.332  0.7918  1.3737 -1.4162
 2288TIP3   OH2 6827   4.562   3.952   2.482 -0.4317 -0.4632 -0.5431
 2288TIP3    H1 6828   4.583   3.886   2.548  0.6581 -0.5122 -0.9141
 2288TIP3    H2 6829   4.591   4.035   2.522 -0.2045 -0.4350 -0.7647
 2289TIP3   OH2 6830   4.722   2.631   3.935 -0.4598 -0.0127  0.5456
 2289TIP3    H1 6831   4.743   2.543   3.967 -2.0650 -0.1251  1.4128
 2289TIP3    H2 6832   4.805   2.665   3.902  0.2392 -1.7812  0.3455
 2290TIP3   OH2 6833   0.963   6.802   3.946  0.5188 -1.0412 -0.4137
 2290TIP3    H1 6834   0.982   6.715   3.912  1.6895 -0.8237 -0.3685
 2290TIP3    H2 6835   0.998   6.862   3.879  1.3981 -0.6168  0.4000
 2291TIP3   OH2 6836   6.210   1.581   2.967  0.2790 -0.1322  0.1923
 2291TIP3    H1 6837   6.202   1.492   2.934  1.3102 -0.2145  0.1405
 2291TIP3    H2 6838   6.227   1.634   2.889 -0.3372  0.1135  0.2228
 2292TIP3   OH2 6839   3.107   3.726   2.978  0.1033  0.2044  0.5157
 2292TIP3    H1 6840   3.184   3.736   3.035  1.6641 -1.3961 -1.1612
 2292TIP3    H2 6841   3.070   3.642   3.004  0.4571 -0.2348 -0.3525
 2293TIP3   OH2 6842   0.938   3.118   0.703 -0.0161 -0.0799  0.2981
 2293TIP3    H1 6843   0.876   3.050   0.732  1.0205 -1.3261 -0.3442
 2293TIP3    H2 6844   1.008   3.070   0.660  1.3697  1.3230  0.9212
 2294TIP3   OH2 6845   0.155   0.229   3.434  0.2123 -0.3561 -0.1729
 2294TIP3    H1 6846   0.172   0.317   3.402  1.5347 -0.9062 -1.0863
 2294TIP3    H2 6847   0.171   0.235   3.529  0.9308  0.2530 -0.3182
 2295TIP3   OH2 6848   1.483   1.494   0.384 -0.7272 -0.4281  0.2668
 2295TIP3    H1 6849   1.400   1.533   0.354 -0.3796 -1.5857 -2.4595
 2295TIP3    H2 6850   1.515   1.556   0.450 -2.5728  1.3149 -0.3446
 2296TIP3   OH2 6851   7.076   1.739   0.513 -0.4341 -0.0198  0.0766
 2296TIP3    H1 6852   7.107   1.829   0.504  0.6871 -0.2271  1.5315
 2296TIP3    H2 6853   7.011   1.729   0.444  0.2865  1.5249 -0.8697
 2297TIP3   OH2 6854   2.734   6.432   3.253 -0.7475  0.5231  0.1580
 2297TIP3    H1 6855   2.705   6.502   3.196  0.6454  2.0270  1.2001
 2297TIP3    H2 6856   2.679   6.357   3.230 -1.5809  1.6515 -1.6929
 2298TIP3   OH2 6857   1.738   2.992   3.932 -0.0193 -0.3945 -0.0317
 2298TIP3    H1 6858   1.708   2.901   3.923  0.0317 -0.4355  0.1975
 2298TIP3    H2 6859   1.832   2.985   3.945 -0.0010 -0.3023 -0.1143
 2299TIP3   OH2 6860   2.393   0.673   1.326  0.1008 -0.6545  0.4215
 2299TIP3    H1 6861   2.341   0.740   1.282  0.1963 -1.6671 -1.3074
 2299TIP3    H2 6862   2.330   0.622   1.376 -0.0476  0.3244  1.2746
 2300TIP3   OH2 6863   6.330   6.124   1.894 -0.5020  0.2575 -0.0901
 2300TIP3    H1 6864   6.336   6.056   1.826  0.7607 -0.7730  1.0036
 2300TIP3    H2 6865   6.392   6.192   1.866 -1.3845  0.7511 -0.9162
 2301TIP3   OH2 6866   2.809   5.987   5.221  0.0317  0.2959  0.9339
 2301TIP3    H1 6867   2.904   5.973   5.212  0.0870 -0.0352  1.9002
 2301TIP3    H2 6868   2.798   6.017   5.311 -0.6779  1.3843  0.4903
 2302TIP3   OH2 6869   3.221   2.270   2.669 -0.6150 -0.0613  0.4535
 2302TIP3    H1 6870   3.261   2.190   2.702  0.4168  1.1360  2.2196
 2302TIP3    H2 6871   3.146   2.239   2.617 -0.5831 -2.1393  1.5358
 2303TIP3   OH2 6872   2.832   5.860   1.756  0.5929  0.2117  0.0819
 2303TIP3    H1 6873   2.924   5.835   1.745  0.2047 -1.0743 -0.3714
 2303TIP3    H2 6874   2.786   5.817   1.684 -0.5349 -0.1019  0.9625
 2304TIP3   OH2 6875   4.373   3.199   1.702  0.2814  0.2158 -0.0053
 2304TIP3    H1 6876   4.299   3.243   1.744  0.0737 -1.3224  1.3250
 2304TIP3    H2 6877   4.450   3.234   1.747  0.0716 -1.2783  1.6341
 2305TIP3   OH2 6878   6.642   4.462   4.271 -0.0944  0.2977  0.0651
 2305TIP3    H1 6879   6.662   4.521   4.343  0.7161  0.0171  0.0763
 2305TIP3    H2 6880   6.621   4.379   4.313  0.0920  0.2129 -0.0087
 2306TIP3   OH2 6881   6.276   1.276   2.608 -0.0825 -0.8953  0.2808
 2306TIP3    H1 6882   6.251   1.257   2.518  0.1662  0.6502 -0.1419
 2306TIP3    H2 6883   6.359   1.323   2.601 -1.1064  1.1775  1.1401
 2307TIP3   OH2 6884   5.256   5.169   4.476 -0.0422 -0.2844  0.1134
 2307TIP3    H1 6885   5.282   5.097   4.533  0.4487  0.2090  0.5277
 2307TIP3    H2 6886   5.196   5.222   4.529  0.8028  0.4455  0.3579
 2308TIP3   OH2 6887   5.191   5.459   3.435 -0.1966 -0.0056  0.1133
 2308TIP3    H1 6888   5.262   5.408   3.473 -0.4937 -1.7894 -1.5701
 2308TIP3    H2 6889   5.142   5.397   3.381 -2.4674  1.3699  0.4181
 2309TIP3   OH2 6890   0.077   5.991   4.519  0.2339  0.0838 -0.8745
 2309TIP3    H1 6891   0.041   6.077   4.497  1.8961  0.6527 -1.5800
 2309TIP3    H2 6892   0.164   5.991   4.477  1.4401 -0.8092  1.4623
 2310TIP3   OH2 6893   2.417   1.286   4.045 -0.1198  0.7964 -0.0333
 2310TIP3    H1 6894   2.464   1.334   3.978 -0.3392  0.3410 -0.5180
 2310TIP3    H2 6895   2.370   1.217   3.998  1.0261 -0.5686  0.7474
 2311TIP3   OH2 6896   6.700   6.105   1.929  0.0049  0.2255 -0.2525
 2311TIP3    H1 6897   6.640   6.181   1.932  1.6108  1.5163  2.3304
 2311TIP3    H2 6898   6.787   6.144   1.918  0.9187 -1.1781  1.5363
 2312TIP3   OH2 6899   4.885   2.208   0.155 -0.0910  0.0554  0.2619
 2312TIP3    H1 6900   4.876   2.270   0.083  0.9308 -0.7866 -0.6178
 2312TIP3    H2 6901   4.805   2.221   0.207 -0.1446  1.7321 -0.1634
 2313TIP3   OH2 6902   2.914   4.044   3.978  0.1233  0.1803 -0.8286
 2313TIP3    H1 6903   2.895   4.096   3.901  0.8482 -1.1016 -1.9076
 2313TIP3    H2 6904   3.002   4.009   3.963  0.1341 -0.3930  0.4092
 2314TIP3   OH2 6905   6.816   4.739   5.428 -0.5015  0.3895  0.8767
 2314TIP3    H1 6906   6.836   4.776   5.513 -0.1702 -0.4571  1.1781
 2314TIP3    H2 6907   6.894   4.690   5.404 -0.9946 -0.2793  0.5933
 2315TIP3   OH2 6908   1.778   6.154   1.747  0.0614  0.2212 -0.1275
 2315TIP3    H1 6909   1.806   6.245   1.756  0.3114  0.1123  0.2328
 2315TIP3    H2 6910   1.798   6.132   1.655  0.5589  0.3487 -0.0554
 2316TIP3   OH2 6911   0.593   3.254   4.456 -0.4869  0.4109 -0.1480
 2316TIP3    H1 6912   0.513   3.213   4.490 -1.4600  1.6124 -0.9192
 2316TIP3    H2 6913   0.659   3.184   4.459 -0.8077  0.0699  2.9949
 2317TIP3   OH2 6914   1.645   5.928   0.742 -0.5779 -0.3624  0.9810
 2317TIP3    H1 6915   1.702   6.004   0.740 -0.7042 -0.2709  0.6404
 2317TIP3    H2 6916   1.705   5.853   0.746 -0.4507 -0.2494  1.1801
 2318TIP3   OH2 6917   6.876   0.971   3.373  0.2366 -0.4833  0.0092
 2318TIP3    H1 6918   6.867   1.055   3.419  2.4298 -1.1478  1.7997
 2318TIP3    H2 6919   6.858   0.992   3.281  0.7978  1.9619  0.3962
 2319TIP3   OH2 6920   3.145   1.902   3.885 -0.3712  0.0124 -0.1993
 2319TIP3    H1 6921   3.157   1.984   3.837 -0.7655  0.2464  0.0879
 2319TIP3    H2 6922   3.200   1.912   3.963  0.6593 -0.5746 -0.8409
 2320TIP3   OH2 6923   6.268   6.303   5.375  0.2318 -0.0561 -0.5235
 2320TIP3    H1 6924   6.237   6.389   5.346  0.0176 -0.1900 -0.6931
 2320TIP3    H2 6925   6.252   6.245   5.301 -1.7065 -0.7283  0.3574
 2321TIP3   OH2 6926   4.566   3.135   2.087 -0.3484  0.0858 -0.6402
 2321TIP3    H1 6927   4.576   3.042   2.069  0.8338  0.1057 -0.1834
 2321TIP3    H2 6928   4.633   3.154   2.152 -0.5984  1.2580 -0.7017
 2322TIP3   OH2 6929   5.067   5.764   5.354 -0.2491 -0.0473  0.3431
 2322TIP3    H1 6930   5.150   5.800   5.323 -0.3867  0.2857  0.3523
 2322TIP3    H2 6931   5.000   5.806   5.299 -0.5262  0.8600  1.3444
 2323TIP3   OH2 6932   3.055   2.797   0.042 -0.4112 -0.4428 -0.6330
 2323TIP3    H1 6933   2.986   2.863   0.038 -0.5096 -0.4077  1.0032
 2323TIP3    H2 6934   3.128   2.839   0.087 -0.2251 -1.2289 -0.1672
 2324TIP3   OH2 6935   3.610   3.042   4.601  0.3264 -0.1155 -0.3675
 2324TIP3    H1 6936   3.555   3.011   4.673  0.5607 -1.1665 -0.6168
 2324TIP3    H2 6937   3.549   3.058   4.529  0.2654 -0.6561 -0.4416
 2325TIP3   OH2 6938   5.055   1.273   5.547 -0.1964 -0.0269 -0.4928
 2325TIP3    H1 6939   5.048   1.271   5.452 -0.0329 -0.2583 -0.5009
 2325TIP3    H2 6940   5.107   1.195   5.569  0.7967  0.6714 -0.3000
 2326TIP3   OH2 6941   1.019   6.085   5.209  0.0003 -0.1991 -0.5330
 2326TIP3    H1 6942   0.986   6.001   5.239 -0.5472 -0.4718 -1.8228
 2326TIP3    H2 6943   1.105   6.066   5.172  1.8998  0.5554  3.0683
 2327TIP3   OH2 6944   3.493   4.146   0.558 -0.0096  0.2729  0.1566
 2327TIP3    H1 6945   3.507   4.052   0.573  1.1606  0.3549 -0.3188
 2327TIP3    H2 6946   3.553   4.168   0.487 -0.1371  1.4334  0.3893
 2328TIP3   OH2 6947   0.958   1.370   5.245 -0.1319  0.0475  0.1553
 2328TIP3    H1 6948   0.928   1.279   5.250 -1.0622  0.3595  0.4383
 2328TIP3    H2 6949   0.908   1.407   5.173 -2.2825  1.2190  2.1119
 2329TIP3   OH2 6950   3.695   5.084   3.224 -0.5026 -0.0806 -0.3563
 2329TIP3    H1 6951   3.749   5.094   3.302  0.0555 -0.8014 -0.6342
 2329TIP3    H2 6952   3.620   5.032   3.253  0.0351 -0.9195 -0.4338
 2330TIP3   OH2 6953   5.913   1.261   2.771 -0.3115  0.0955  0.9282
 2330TIP3    H1 6954   5.982   1.212   2.816 -0.2653 -0.3375  0.3975
 2330TIP3    H2 6955   5.903   1.341   2.822  0.8274  0.3227  0.8073
 2331TIP3   OH2 6956   6.838   2.823   0.681  0.4586 -0.3268  0.2007
 2331TIP3    H1 6957   6.813   2.885   0.612  1.3573  0.1046  0.2525
 2331TIP3    H2 6958   6.904   2.767   0.640  1.7633  0.5793  0.9859
 2332TIP3   OH2 6959   4.530   1.436   5.390 -0.2799 -0.1748 -0.5262
 2332TIP3    H1 6960   4.589   1.378   5.437  0.9233 -0.2234 -2.0213
 2332TIP3    H2 6961   4.554   1.426   5.298 -0.5400  2.1147 -0.9005
 2333TIP3   OH2 6962   5.180   5.683   4.400 -0.5462 -0.0355 -0.2463
 2333TIP3    H1 6963   5.135   5.625   4.338 -0.8169 -0.0204 -0.0673
 2333TIP3    H2 6964   5.213   5.624   4.468 -0.4030 -0.0321 -0.3119
 2334TIP3   OH2 6965   5.662   4.813   2.971  0.1485  0.0838  0.0982
 2334TIP3    H1 6966   5.611   4.866   2.910 -0.0391 -2.1530 -1.8239
 2334TIP3    H2 6967   5.728   4.873   3.006 -1.0832  1.9569 -0.6605
 2335TIP3   OH2 6968   5.521   6.767   5.617 -0.5091  0.2420  0.1962
 2335TIP3    H1 6969   5.532   6.830   5.688 -1.4376 -0.7972  1.3095
 2335TIP3    H2 6970   5.472   6.695   5.656 -1.2294 -0.2805 -1.5685
 2336TIP3   OH2 6971   5.508   2.974   0.696  0.1788  0.6059  0.3455
 2336TIP3    H1 6972   5.572   2.958   0.765 -1.5273  0.1532  1.9221
 2336TIP3    H2 6973   5.482   3.066   0.709  0.0074  0.5845  0.1564
 2337TIP3   OH2 6974   5.219   2.413   0.438  0.8283  0.1393 -0.4436
 2337TIP3    H1 6975   5.282   2.484   0.434  0.4619  0.5955  1.1115
 2337TIP3    H2 6976   5.268   2.335   0.414  1.7750  0.6187 -0.1086
 2338TIP3   OH2 6977   4.819   2.645   0.503  0.5071 -0.1766 -0.4185
 2338TIP3    H1 6978   4.870   2.622   0.425  0.9454 -0.5042 -0.0406
 2338TIP3    H2 6979   4.880   2.632   0.576 -1.0546 -3.9098  0.4088
 2339TIP3   OH2 6980   2.290   5.607   3.426 -0.3415  0.3500  0.0315
 2339TIP3    H1 6981   2.246   5.523   3.418  0.9672 -0.3652  0.0978
 2339TIP3    H2 6982   2.257   5.644   3.508 -0.4568 -0.3837  0.3216
 2340TIP3   OH2 6983   6.427   4.203   5.326 -0.7756 -0.1737 -0.1067
 2340TIP3    H1 6984   6.486   4.273   5.352 -3.6354  2.0499  1.0630
 2340TIP3    H2 6985   6.439   4.194   5.232  0.4536  1.1136 -0.0950
 2341TIP3   OH2 6986   2.630   5.482   5.463 -0.0151 -0.2991  0.0743
 2341TIP3    H1 6987   2.575   5.490   5.540 -0.0691  2.7151 -0.1589
 2341TIP3    H2 6988   2.601   5.400   5.421 -3.1291  0.2628  0.8593
 2342TIP3   OH2 6989   4.691   3.233   4.715  0.2112  0.7666  0.5544
 2342TIP3    H1 6990   4.767   3.266   4.762  0.2278  1.4251  0.0790
 2342TIP3    H2 6991   4.706   3.257   4.624  0.0949 -0.3329  0.2217
 2343TIP3   OH2 6992   3.042   4.263   2.507 -0.2856  0.1236  0.0542
 2343TIP3    H1 6993   3.026   4.319   2.583 -1.3024 -2.1915  1.6778
 2343TIP3    H2 6994   2.959   4.216   2.496  0.5892 -1.1884 -1.0966
 2344TIP3   OH2 6995   5.158   4.316   0.871  0.3682 -0.9483 -0.3433
 2344TIP3    H1 6996   5.063   4.305   0.882  0.5966 -1.6179  1.1187
 2344TIP3    H2 6997   5.171   4.411   0.865 -0.3174 -0.8158  0.2022
 2345TIP3   OH2 6998   6.362   6.166   0.152 -0.0062 -0.1668 -0.2375
 2345TIP3    H1 6999   6.386   6.113   0.228  0.0249 -0.1314 -0.2221
 2345TIP3    H2 7000   6.268   6.180   0.161  0.2302  1.1221  0.6309
 2346TIP3   OH2 7001   0.498   0.377   3.025  0.2234 -0.1646  0.0150
 2346TIP3    H1 7002   0.511   0.286   3.052  0.7485 -0.5401 -1.4560
 2346TIP3    H2 7003   0.556   0.389   2.950  2.1255  2.1523  1.6919
 2347TIP3   OH2 7004   0.409   2.436   1.279  0.7531  0.1018  0.4376
 2347TIP3    H1 7005   0.467   2.502   1.240 -0.6349  2.5991  2.2541
 2347TIP3    H2 7006   0.459   2.355   1.277  2.7544  1.2652 -1.5306
 2348TIP3   OH2 7007   1.503   2.436   4.564  0.3934 -0.0501 -0.2003
 2348TIP3    H1 7008   1.568   2.408   4.500  2.0872  1.7087  0.6418
 2348TIP3    H2 7009   1.443   2.491   4.514  1.0836  0.4420 -0.5030
 2349TIP3   OH2 7010   5.315   1.551   1.391 -0.1016 -0.3789 -0.1510
 2349TIP3    H1 7011   5.343   1.528   1.479 -1.7263 -0.4477  0.3827
 2349TIP3    H2 7012   5.339   1.476   1.337 -0.0103 -0.7709  0.4273
 2350TIP3   OH2 7013   0.250   5.430   1.512 -0.1120  0.3048 -0.0224
 2350TIP3    H1 7014   0.270   5.488   1.438 -0.8215 -0.0617 -0.4999
 2350TIP3    H2 7015   0.178   5.375   1.482 -0.6878  0.4215  1.0813
 2351TIP3   OH2 7016   0.347   1.017   5.573  0.6492  0.0937 -0.5176
 2351TIP3    H1 7017   0.341   1.111   5.589  1.1297  0.0462 -0.0463
 2351TIP3    H2 7018   0.330   0.977   5.658  0.8859 -0.2320 -0.6227
 2352TIP3   OH2 7019   2.515   4.477   0.266 -0.5481  0.7302 -0.0878
 2352TIP3    H1 7020   2.555   4.395   0.296 -0.5608  0.6460 -0.3037
 2352TIP3    H2 7021   2.469   4.454   0.186 -0.5985  0.9371 -0.1190
 2353TIP3   OH2 7022   0.585   3.510   4.354 -0.3719  0.1840 -0.3084
 2353TIP3    H1 7023   0.490   3.519   4.355 -0.3204  0.9022 -1.1386
 2353TIP3    H2 7024   0.601   3.419   4.379 -1.2927 -0.0830 -0.6775
 2354TIP3   OH2 7025   6.211   4.972   1.724 -0.1521 -0.8180 -0.3835
 2354TIP3    H1 7026   6.278   4.995   1.659 -1.8172 -0.7342 -2.1610
 2354TIP3    H2 7027   6.221   5.037   1.793  0.6787  0.0659 -1.3090
 2355TIP3   OH2 7028   1.772   0.033   3.335  0.0511 -0.1259  0.1319
 2355TIP3    H1 7029   1.866   0.050   3.334 -0.0479  0.4660  0.5107
 2355TIP3    H2 7030   1.752   0.006   3.246  0.3926  0.8206 -0.2466
 2356TIP3   OH2 7031   3.915   4.830   4.660 -0.3176 -0.1069 -0.4267
 2356TIP3    H1 7032   3.899   4.736   4.670  0.4786 -0.1504  0.5463
 2356TIP3    H2 7033   3.961   4.837   4.576 -0.2372 -0.6055 -0.4301
 2357TIP3   OH2 7034   4.593   6.149   5.495 -0.0047  0.1206  0.3644
 2357TIP3    H1 7035   4.682   6.116   5.491 -0.2372 -0.6309  1.1345
 2357TIP3    H2 7036   4.582   6.199   5.413  0.0100 -2.5916 -1.4152
 2358TIP3   OH2 7037   2.313   4.735   4.452 -0.2000  0.5110  0.2475
 2358TIP3    H1 7038   2.365   4.714   4.374  0.2322  1.1992  0.3386
 2358TIP3    H2 7039   2.294   4.650   4.492  1.1041  0.2525  0.3598
 2359TIP3   OH2 7040   2.808   3.197   2.379 -0.2091  0.4959 -0.3678
 2359TIP3    H1 7041   2.899   3.181   2.352 -0.6041 -0.2691 -1.3278
 2359TIP3    H2 7042   2.800   3.292   2.380  0.2423  0.5652 -1.6261
 2360TIP3   OH2 7043   4.014   5.200   4.996 -0.6907 -0.2046  0.0118
 2360TIP3    H1 7044   4.051   5.175   5.080 -0.9094 -3.5897 -0.7375
 2360TIP3    H2 7045   3.937   5.253   5.018 -1.6312 -2.2599  2.0542
 2361TIP3   OH2 7046   0.094   0.583   3.781  0.9420  0.2836  0.0309
 2361TIP3    H1 7047   0.129   0.579   3.692  0.0894  1.2597 -0.3740
 2361TIP3    H2 7048   0.095   0.676   3.803  1.5037  0.0203  1.2094
 2362TIP3   OH2 7049   4.246   2.283   2.349 -0.1021 -0.0887  0.1544
 2362TIP3    H1 7050   4.279   2.266   2.437 -0.2578  0.5292  0.3376
 2362TIP3    H2 7051   4.201   2.368   2.356  1.1070  0.6780 -0.8377
 2363TIP3   OH2 7052   3.717   5.684   3.812  0.6215  0.3603  0.0145
 2363TIP3    H1 7053   3.774   5.715   3.742  1.7977  1.7573  1.5169
 2363TIP3    H2 7054   3.700   5.761   3.866  0.0319 -0.7215  1.4567
 2364TIP3   OH2 7055   2.788   3.091   5.311  0.4371 -0.1135  0.6767
 2364TIP3    H1 7056   2.721   3.094   5.379 -0.5689  1.0895 -0.3376
 2364TIP3    H2 7057   2.755   3.029   5.246 -0.0117  0.9161 -0.1114
 2365TIP3   OH2 7058   1.942   3.143   5.430  0.2535  0.0299  0.4254
 2365TIP3    H1 7059   1.870   3.139   5.493  0.1690 -0.1469  0.3160
 2365TIP3    H2 7060   1.908   3.100   5.352  0.3590  0.2510  0.2579
 2366TIP3   OH2 7061   5.632   1.146   3.974  0.2288 -0.6202  0.5154
 2366TIP3    H1 7062   5.704   1.199   3.941 -0.1580  0.0612  0.7369
 2366TIP3    H2 7063   5.555   1.179   3.927 -0.7175  1.8157  3.4549
 2367TIP3   OH2 7064   3.538   2.792   4.024 -0.1626 -0.0409  0.0707
 2367TIP3    H1 7065   3.472   2.814   3.958  1.0968 -0.0166 -1.2232
 2367TIP3    H2 7066   3.561   2.701   4.004 -2.0360 -1.1736  2.5152
 2368TIP3   OH2 7067   2.915   4.442   5.854 -0.6457  0.4037 -0.0008
 2368TIP3    H1 7068   2.947   4.365   5.901  2.3055  0.8980 -1.0047
 2368TIP3    H2 7069   2.941   4.427   5.763 -1.8669  1.6701 -0.5929
 2369TIP3   OH2 7070   6.284   1.311   0.553 -0.2135 -0.2825 -0.3287
 2369TIP3    H1 7071   6.298   1.292   0.646  2.3431  0.2910 -0.5252
 2369TIP3    H2 7072   6.353   1.262   0.508  0.0439  1.2713 -1.7060
 2370TIP3   OH2 7073   7.120   5.019   2.595 -0.5559  0.5200 -0.2076
 2370TIP3    H1 7074   7.070   5.101   2.596 -1.8202 -0.2227  0.9296
 2370TIP3    H2 7075   7.060   4.956   2.555  0.1671 -0.0005 -0.4825
 2371TIP3   OH2 7076   2.306   5.168   5.317  0.1972 -0.7785 -0.4428
 2371TIP3    H1 7077   2.329   5.153   5.409 -0.3134  1.6116  0.1462
 2371TIP3    H2 7078   2.390   5.173   5.272  0.5014 -0.7304  0.1178
 2372TIP3   OH2 7079   0.196   2.562   5.291 -0.4197  0.4034 -0.2337
 2372TIP3    H1 7080   0.177   2.480   5.337 -0.4009 -0.7708 -2.2043
 2372TIP3    H2 7081   0.128   2.568   5.224  0.3682  1.3113 -0.9863
 2373TIP3   OH2 7082   5.600   5.388   5.512  0.3133  0.3135 -0.6878
 2373TIP3    H1 7083   5.513   5.403   5.549  0.8062  0.8245  0.2932
 2373TIP3    H2 7084   5.653   5.358   5.586  2.0641  4.0268 -0.1598
 2374TIP3   OH2 7085   6.895   0.694   3.053  0.4113  0.4841 -0.2046
 2374TIP3    H1 7086   6.976   0.698   3.002  0.2114 -0.4080 -0.6086
 2374TIP3    H2 7087   6.836   0.641   3.000  0.4324 -1.0603  1.2419
 2375TIP3   OH2 7088   4.384   2.972   1.258  0.0204 -0.4345 -0.4424
 2375TIP3    H1 7089   4.296   2.973   1.293  0.4298 -0.9041  0.6241
 2375TIP3    H2 7090   4.384   2.899   1.196 -0.9096  0.8521 -2.0507
 2376TIP3   OH2 7091   4.367   1.979   1.259 -0.4128  0.0351  0.5552
 2376TIP3    H1 7092   4.288   1.932   1.233 -0.4822  0.4655 -0.0308
 2376TIP3    H2 7093   4.373   2.053   1.198  0.7964 -0.3550  0.1574
 2377TIP3   OH2 7094   4.051   2.550   5.094  0.0370  0.5067  0.6371
 2377TIP3    H1 7095   4.080   2.572   5.183 -0.0309 -2.2868  1.4508
 2377TIP3    H2 7096   4.105   2.475   5.070 -0.2030  0.9858 -1.5851
 2378TIP3   OH2 7097   0.603   6.197   5.323 -0.0118  0.4806  0.4720
 2378TIP3    H1 7098   0.689   6.235   5.341  0.1069  0.1161  0.6899
 2378TIP3    H2 7099   0.547   6.272   5.302 -0.7420  1.2648  4.4523
 2379TIP3   OH2 7100   1.957   4.500   2.677  0.2063  1.2263 -0.1869
 2379TIP3    H1 7101   1.942   4.439   2.605  1.5983  0.3889  0.1783
 2379TIP3    H2 7102   1.870   4.527   2.705 -0.4557 -0.3987 -0.5553
 2380TIP3   OH2 7103   1.480   1.103   0.311 -0.0032  0.6089 -0.0318
 2380TIP3    H1 7104   1.532   1.164   0.259  0.9272  0.2758  0.4908
 2380TIP3    H2 7105   1.445   1.155   0.383  1.2376  0.4320  0.7217
 2381TIP3   OH2 7106   4.898   1.244   1.505 -0.0687 -0.3673 -0.4510
 2381TIP3    H1 7107   4.908   1.234   1.411 -2.9398 -0.8644 -0.7941
 2381TIP3    H2 7108   4.823   1.303   1.516  0.8509  0.5303  1.5390
 2382TIP3   OH2 7109   3.404   1.599   4.224  0.1271 -0.6177 -0.1193
 2382TIP3    H1 7110   3.315   1.632   4.218  0.2571 -0.1320  0.4893
 2382TIP3    H2 7111   3.434   1.626   4.311  1.6850  1.3736 -1.1711
 2383TIP3   OH2 7112   7.123   2.084   1.934 -0.5186 -0.1106 -0.1188
 2383TIP3    H1 7113   7.178   2.011   1.963 -1.3774 -0.5042  0.5773
 2383TIP3    H2 7114   7.168   2.162   1.965  0.5070 -0.3038 -1.0226
 2384TIP3   OH2 7115   2.904   5.560   0.664 -0.0973 -0.0415  0.2652
 2384TIP3    H1 7116   2.814   5.577   0.694 -0.3341 -0.3316 -0.2580
 2384TIP3    H2 7117   2.959   5.583   0.739 -0.5726  0.5991  0.4327
 2385TIP3   OH2 7118   6.204   5.009   3.730 -0.1516 -0.0675  0.3821
 2385TIP3    H1 7119   6.230   5.005   3.822 -0.2276  1.9738  0.5341
 2385TIP3    H2 7120   6.112   4.983   3.730  0.2826 -1.7096  0.6225
 2386TIP3   OH2 7121   6.820   0.150   2.841  0.7469 -0.1196 -0.0237
 2386TIP3    H1 7122   6.752   0.087   2.819  0.1932  0.9750 -1.6574
 2386TIP3    H2 7123   6.821   0.211   2.767  2.2722  0.9308  0.8052
 2387TIP3   OH2 7124   5.685   4.689   3.251 -0.4761 -0.4734 -0.0296
 2387TIP3    H1 7125   5.642   4.696   3.165  1.2323 -0.3260 -0.9051
 2387TIP3    H2 7126   5.714   4.598   3.256  2.1357  0.2297 -1.0128
 2388TIP3   OH2 7127   1.253   5.448  -0.016 -0.0786 -0.5280  0.3402
 2388TIP3    H1 7128   1.310   5.371  -0.015 -2.0094 -2.0455 -0.7537
 2388TIP3    H2 7129   1.281   5.499   0.061  1.7472 -1.8992  0.6631
 2389TIP3   OH2 7130   3.989   3.431   1.707 -0.1783  0.3483  0.0255
 2389TIP3    H1 7131   3.943   3.466   1.783 -0.2197  0.0370  0.1482
 2389TIP3    H2 7132   3.929   3.365   1.671 -0.7342  1.4200 -1.0683
 2390TIP3   OH2 7133   6.260   3.802   1.236  0.0639  0.1190 -0.4748
 2390TIP3    H1 7134   6.310   3.736   1.286  3.3566  1.8161 -1.2329
 2390TIP3    H2 7135   6.226   3.753   1.161  1.3430 -1.0299 -0.3662
 2391TIP3   OH2 7136   0.719   5.015   4.898 -0.0469  0.0444 -1.0430
 2391TIP3    H1 7137   0.739   5.100   4.860  3.0521 -0.4686 -0.7526
 2391TIP3    H2 7138   0.643   5.032   4.954  0.5754  2.6553 -0.8493
 2392TIP3   OH2 7139   5.275   0.935   5.425 -0.4628 -0.3740 -0.1818
 2392TIP3    H1 7140   5.240   0.946   5.336  0.1404 -0.1074 -0.3916
 2392TIP3    H2 7141   5.317   1.019   5.444 -0.5179 -0.4605  0.3273
 2393TIP3   OH2 7142   5.310   4.881   4.100 -0.1046  0.1884  0.1174
 2393TIP3    H1 7143   5.335   4.969   4.071  0.7010  0.2944  1.0787
 2393TIP3    H2 7144   5.344   4.874   4.189 -0.2244 -1.0757  0.0903
 2394TIP3   OH2 7145   2.318   1.382   2.844 -0.1798  1.0351  0.8023
 2394TIP3    H1 7146   2.369   1.461   2.862  0.5133  0.6506  0.5600
 2394TIP3    H2 7147   2.275   1.362   2.928  1.1416  0.6037  1.4061
 2395TIP3   OH2 7148   3.965   5.580   4.647  0.9934 -0.1815 -0.1908
 2395TIP3    H1 7149   3.890   5.607   4.700 -0.2136  0.9716 -2.3880
 2395TIP3    H2 7150   3.962   5.484   4.650  1.3584 -0.1937  2.2709
 2396TIP3   OH2 7151   1.712   5.316   4.107  0.2305  0.3014 -0.0592
 2396TIP3    H1 7152   1.663   5.393   4.078  1.2418  1.2030  0.5509
 2396TIP3    H2 7153   1.796   5.323   4.061  0.8755  0.3447  1.1044
 2397TIP3   OH2 7154   6.501   5.941   3.220  0.0171 -0.3574  0.1463
 2397TIP3    H1 7155   6.507   6.021   3.273 -0.6272 -1.1863  1.5428
 2397TIP3    H2 7156   6.417   5.902   3.244  0.8640 -2.1042  0.4897
 2398TIP3   OH2 7157   5.177   0.754   5.865  0.0737 -0.1082 -0.1946
 2398TIP3    H1 7158   5.127   0.831   5.891 -0.2782 -0.4717  0.2375
 2398TIP3    H2 7159   5.127   0.680   5.900  1.0061 -0.4783  0.4154
 2399TIP3   OH2 7160   4.147   0.654   3.367 -0.3783 -0.3193  0.2763
 2399TIP3    H1 7161   4.153   0.666   3.272  1.6852 -0.4957  0.3332
 2399TIP3    H2 7162   4.054   0.645   3.384 -0.8237  0.0185 -1.6962
 2400TIP3   OH2 7163   3.410   4.049   4.298 -0.1501 -0.4392 -0.6948
 2400TIP3    H1 7164   3.379   4.131   4.338  0.3376 -0.3397 -0.5127
 2400TIP3    H2 7165   3.470   4.078   4.229  0.4485 -0.6486 -0.2727
 2401TIP3   OH2 7166   2.647   1.159   0.977  0.0250 -0.2927 -0.2663
 2401TIP3    H1 7167   2.743   1.158   0.979  0.2364  2.8572 -2.2431
 2401TIP3    H2 7168   2.625   1.161   0.884 -1.9052  0.5273  0.1655
 2402TIP3   OH2 7169   7.000   0.731   0.357  0.1950  0.5293 -0.1466
 2402TIP3    H1 7170   7.023   0.639   0.345 -0.0379  0.3798  0.5430
 2402TIP3    H2 7171   6.906   0.736   0.339  0.2484  0.6757 -0.3970
 2403TIP3   OH2 7172   1.170   6.421   2.085  0.1023 -0.5877  0.3156
 2403TIP3    H1 7173   1.189   6.506   2.046  0.4849 -1.0768 -0.5869
 2403TIP3    H2 7174   1.219   6.358   2.032 -2.0188 -1.6307 -0.5532
 2404TIP3   OH2 7175   6.647   4.584   5.817  1.2054 -0.2813  0.3476
 2404TIP3    H1 7176   6.693   4.548   5.741 -0.6787 -1.1547 -0.4503
 2404TIP3    H2 7177   6.710   4.645   5.857  2.6129 -0.5822 -1.2937
 2405TIP3   OH2 7178   5.418   2.838   2.188 -0.1002  0.3022 -0.5552
 2405TIP3    H1 7179   5.373   2.824   2.104 -0.0390 -1.4187 -0.3368
 2405TIP3    H2 7180   5.505   2.801   2.174  0.1877  0.7545  0.0174
 2406TIP3   OH2 7181   4.875   6.045   2.368  0.2939 -0.2608  0.1470
 2406TIP3    H1 7182   4.869   6.001   2.283  0.8578 -0.7126  0.3402
 2406TIP3    H2 7183   4.968   6.048   2.387  0.1775 -0.0486  0.6931
 2407TIP3   OH2 7184   3.048   0.439   1.428 -0.0733  0.2652  0.2257
 2407TIP3    H1 7185   3.100   0.509   1.467 -1.4500  0.4033  1.9430
 2407TIP3    H2 7186   3.099   0.360   1.445 -0.6750  0.2992  2.5849
 2408TIP3   OH2 7187   5.764   1.485   3.424 -0.2295 -0.3685  0.1591
 2408TIP3    H1 7188   5.676   1.450   3.438 -0.0622 -1.2463 -0.8727
 2408TIP3    H2 7189   5.750   1.571   3.384 -0.6320 -0.8503 -0.7761
 2409TIP3   OH2 7190   0.575   4.180   5.215  0.2455  0.2349 -0.5066
 2409TIP3    H1 7191   0.564   4.250   5.151  0.4446 -1.1140 -2.0919
 2409TIP3    H2 7192   0.504   4.119   5.197  1.1073 -0.8428 -0.3821
 2410TIP3   OH2 7193   2.495   5.921   2.414  0.5407 -0.6677  0.1424
 2410TIP3    H1 7194   2.425   5.952   2.472 -0.1524 -0.4961 -0.7616
 2410TIP3    H2 7195   2.493   5.826   2.422 -0.2354 -0.7027 -0.3562
 2411TIP3   OH2 7196   6.436   2.052   1.627 -0.4353 -0.1619  0.0253
 2411TIP3    H1 7197   6.499   2.122   1.612 -0.6265  0.3540  1.4965
 2411TIP3    H2 7198   6.406   2.028   1.539  1.0239  0.2836 -0.6325
 2412TIP3   OH2 7199   6.489   6.004   0.329 -0.3017 -0.3140 -0.1105
 2412TIP3    H1 7200   6.565   6.059   0.347 -0.2852 -0.5426  0.5509
 2412TIP3    H2 7201   6.485   5.944   0.403 -1.2441 -0.1777 -0.0432
 2413TIP3   OH2 7202   6.210   4.777   5.303 -0.0002  0.5272 -0.2972
 2413TIP3    H1 7203   6.202   4.807   5.393 -0.4485 -2.0059  0.5792
 2413TIP3    H2 7204   6.119   4.771   5.272 -0.0837 -1.7347  0.2469
 2414TIP3   OH2 7205   1.690   2.135   3.609  0.8489  0.1410 -0.2293
 2414TIP3    H1 7206   1.784   2.117   3.603  0.7995 -0.2311  0.0321
 2414TIP3    H2 7207   1.660   2.134   3.518  1.0614  0.0478 -0.3007
 2415TIP3   OH2 7208   6.510   1.147   0.424  0.0178 -0.3355 -0.1203
 2415TIP3    H1 7209   6.499   1.182   0.336  0.4002  0.3548  0.0935
 2415TIP3    H2 7210   6.591   1.187   0.456  0.2903 -1.1664  0.2680
 2416TIP3   OH2 7211   2.384   4.441   0.043  0.6807 -0.2198  0.1231
 2416TIP3    H1 7212   2.387   4.508  -0.025  0.0646 -0.4977 -0.1868
 2416TIP3    H2 7213   2.420   4.363   0.001 -0.0891 -0.5050 -0.0279
 2417TIP3   OH2 7214   0.697   2.889   1.199 -0.8477  0.0339  0.2572
 2417TIP3    H1 7215   0.769   2.875   1.259 -0.3118  0.2601 -0.3256
 2417TIP3    H2 7216   0.678   2.983   1.207 -1.0299 -0.0096  0.3501
 2418TIP3   OH2 7217   1.898   3.457   0.714  0.0181  0.0596 -0.7296
 2418TIP3    H1 7218   1.927   3.538   0.755  0.6013 -0.7847  0.6376
 2418TIP3    H2 7219   1.975   3.424   0.669 -0.3332  0.4584 -1.6382
 2419TIP3   OH2 7220   6.458   4.672   4.535 -0.1033 -0.6911  0.0963
 2419TIP3    H1 7221   6.398   4.733   4.492  1.9416  0.5767 -1.1371
 2419TIP3    H2 7222   6.473   4.709   4.622 -1.5297 -1.3633  0.6612
 2420TIP3   OH2 7223   1.121   0.723   2.479 -0.3806  0.2786  0.4948
 2420TIP3    H1 7224   1.056   0.659   2.448  0.4144 -0.1450 -0.3548
 2420TIP3    H2 7225   1.128   0.786   2.407 -0.1120  0.5219  0.7361
 2421TIP3   OH2 7226   6.833   2.952   3.505  0.6723  0.2253 -0.4728
 2421TIP3    H1 7227   6.782   2.887   3.553  1.0771  0.9754  1.0415
 2421TIP3    H2 7228   6.778   2.976   3.431  0.6748 -2.1022 -1.3225
 2422TIP3   OH2 7229   6.506   5.993   2.084 -0.6948  0.0592 -0.4649
 2422TIP3    H1 7230   6.584   6.029   2.042 -0.2547 -0.2444  0.0889
 2422TIP3    H2 7231   6.434   6.022   2.027 -0.0716 -0.7676 -1.7285
 2423TIP3   OH2 7232   2.002   2.946   2.901 -0.5064  0.2037  0.3120
 2423TIP3    H1 7233   1.915   2.949   2.939 -0.7247  0.6563 -0.2091
 2423TIP3    H2 7234   2.020   2.853   2.889 -1.5800  0.1315 -1.0287
 2424TIP3   OH2 7235   3.004   1.145   3.835  0.0387 -0.6727  0.0432
 2424TIP3    H1 7236   3.024   1.214   3.771  0.7373 -0.8107  0.1050
 2424TIP3    H2 7237   2.925   1.175   3.879  1.2490  0.9487  1.2507
 2425TIP3   OH2 7238   7.144   3.611   3.818 -0.3217  0.1701 -0.7315
 2425TIP3    H1 7239   7.182   3.698   3.803 -0.3671 -0.0391 -2.1790
 2425TIP3    H2 7240   7.087   3.623   3.894  0.3720  1.1848 -0.3398
 2426TIP3   OH2 7241   5.351   5.368   0.584 -0.1595  0.1465  0.6967
 2426TIP3    H1 7242   5.402   5.447   0.569 -0.4023  0.2745  0.5490
 2426TIP3    H2 7243   5.356   5.355   0.679 -1.2093  1.0850  0.9043
 2427TIP3   OH2 7244   6.407   2.841   1.079 -0.1253 -0.0207 -0.5083
 2427TIP3    H1 7245   6.457   2.897   1.138  0.2903 -0.7508 -0.1448
 2427TIP3    H2 7246   6.472   2.804   1.019  0.3093 -2.9489  1.5230
 2428TIP3   OH2 7247   1.172   4.434   4.831 -0.5514 -0.2836 -0.6463
 2428TIP3    H1 7248   1.223   4.489   4.771 -0.9906  0.2555 -0.5370
 2428TIP3    H2 7249   1.144   4.360   4.777 -1.2358  0.3726 -1.2261
 2429TIP3   OH2 7250   7.198   2.453   5.684  0.1667  0.3003  0.4187
 2429TIP3    H1 7251   7.184   2.445   5.589  0.0822 -1.8885  0.5644
 2429TIP3    H2 7252   7.140   2.388   5.722  0.2358  1.1208  2.0052
 2430TIP3   OH2 7253   3.695   4.953   1.543 -0.1096  0.0460 -0.1149
 2430TIP3    H1 7254   3.623   4.891   1.532  0.3363 -0.7333  1.1739
 2430TIP3    H2 7255   3.655   5.027   1.589 -0.3587  0.1786 -0.5345
 2431TIP3   OH2 7256   5.655   3.850   5.462  0.2526  0.4087 -0.1194
 2431TIP3    H1 7257   5.594   3.837   5.534  0.9254  1.1324  0.5995
 2431TIP3    H2 7258   5.635   3.937   5.429 -0.9223 -0.4116 -1.6796
 2432TIP3   OH2 7259   2.909   2.060   5.063  0.1180 -0.3884  0.4856
 2432TIP3    H1 7260   2.882   2.136   5.011  1.4718 -1.0092 -1.2369
 2432TIP3    H2 7261   2.878   1.984   5.013 -0.1586 -1.0040  1.5574
 2433TIP3   OH2 7262   4.532   1.343   3.875 -0.0299  0.0316  0.6352
 2433TIP3    H1 7263   4.604   1.330   3.937  0.5496  1.1663  0.2158
 2433TIP3    H2 7264   4.454   1.348   3.931  0.5225  1.4160  1.3371
 2434TIP3   OH2 7265   6.052   5.157   5.783 -0.8675 -0.0543 -0.0985
 2434TIP3    H1 7266   6.059   5.221   5.713  0.2502  0.0566  0.0980
 2434TIP3    H2 7267   6.045   5.209   5.864  0.5402 -0.1516  0.1075
 2435TIP3   OH2 7268   2.144   3.155   1.017 -0.2297  0.4610 -0.4343
 2435TIP3    H1 7269   2.109   3.211   1.087  1.6873  1.8083 -0.4737
 2435TIP3    H2 7270   2.077   3.158   0.949 -0.6715  1.8776  0.0159
 2436TIP3   OH2 7271   3.881   0.912   3.688  0.2487  0.0629 -0.7036
 2436TIP3    H1 7272   3.824   0.989   3.695  0.2139 -0.0429  0.2133
 2436TIP3    H2 7273   3.961   0.946   3.647  0.7811  0.9104  0.9204
 2437TIP3   OH2 7274   4.518   5.392   0.998  0.3029 -0.1136 -0.1980
 2437TIP3    H1 7275   4.576   5.319   1.019 -0.8598 -0.7870  0.7574
 2437TIP3    H2 7276   4.435   5.351   0.972  0.6550  0.7684 -3.1390
 2438TIP3   OH2 7277   2.013   3.708   0.740 -0.4140  0.3801 -0.4986
 2438TIP3    H1 7278   2.084   3.744   0.686  3.1388 -2.3045  1.9015
 2438TIP3    H2 7279   2.005   3.769   0.813  0.7640 -0.1912  0.1287
 2439TIP3   OH2 7280   2.575   0.397   3.742 -0.3213  0.4038 -0.9727
 2439TIP3    H1 7281   2.515   0.426   3.673 -0.5484  0.7079 -0.6488
 2439TIP3    H2 7282   2.612   0.478   3.778  2.3697  0.2222 -2.9564
 2440TIP3   OH2 7283   2.222   5.987   4.206  0.4873 -0.4511  0.1126
 2440TIP3    H1 7284   2.145   6.015   4.255 -0.1978  0.1235 -1.2591
 2440TIP3    H2 7285   2.192   5.913   4.153  1.2964 -1.2508  0.7277
 2441TIP3   OH2 7286   0.538   3.509   1.529  0.3432  0.1382 -0.0888
 2441TIP3    H1 7287   0.512   3.595   1.561  1.1494  0.8751 -1.3391
 2441TIP3    H2 7288   0.613   3.485   1.583  1.5218  1.2461 -1.1724
 2442TIP3   OH2 7289   1.178   1.794   0.413 -0.0894 -0.4871  0.2645
 2442TIP3    H1 7290   1.178   1.701   0.438  0.9883 -0.6867 -0.4403
 2442TIP3    H2 7291   1.193   1.840   0.496  2.8227 -1.1226  0.2209
 2443TIP3   OH2 7292   6.168   5.444   2.738  0.2208 -0.4959  0.5027
 2443TIP3    H1 7293   6.252   5.452   2.782 -0.1876  0.3110  1.1494
 2443TIP3    H2 7294   6.121   5.377   2.787  0.6755 -1.3499 -0.1913
 2444TIP3   OH2 7295   6.977   0.094   0.276  0.1479  0.1957 -0.4215
 2444TIP3    H1 7296   6.945   0.125   0.361 -1.4477  1.3043 -1.3618
 2444TIP3    H2 7297   6.899   0.059   0.233  0.7921  0.2962 -1.6996
 2445TIP3   OH2 7298   0.193   5.362   1.188  0.2741  0.6708  0.0333
 2445TIP3    H1 7299   0.219   5.453   1.206 -0.9944  1.0503  0.0847
 2445TIP3    H2 7300   0.113   5.350   1.239 -0.2024 -0.0994 -0.8652
 2446TIP3   OH2 7301   2.805   1.575   0.802 -0.2196 -0.0109 -0.6174
 2446TIP3    H1 7302   2.878   1.518   0.827 -0.7624 -1.5188 -2.2647
 2446TIP3    H2 7303   2.847   1.657   0.777  0.6082  0.2859  1.5385
 2447TIP3   OH2 7304   2.364   3.541   0.079 -0.7447  0.4633 -0.2972
 2447TIP3    H1 7305   2.455   3.513   0.071 -0.2199  1.9543  0.0007
 2447TIP3    H2 7306   2.320   3.504   0.002  0.4318  0.8415 -1.1766
 2448TIP3   OH2 7307   5.864   4.743   3.473 -0.2332 -0.4488 -0.1782
 2448TIP3    H1 7308   5.809   4.708   3.543 -1.0522 -3.4126 -2.1339
 2448TIP3    H2 7309   5.808   4.742   3.395  0.9389  1.8239 -1.1693
 2449TIP3   OH2 7310   3.760   2.619   0.656  0.2303 -0.4555 -0.0117
 2449TIP3    H1 7311   3.705   2.572   0.592 -0.1646  0.6911 -0.5580
 2449TIP3    H2 7312   3.845   2.575   0.651 -0.7681 -2.7279  1.3573
 2450TIP3   OH2 7313   7.031   4.540   0.192  0.0112 -0.2231 -0.6032
 2450TIP3    H1 7314   6.951   4.519   0.144 -0.1713 -0.2587 -0.2870
 2450TIP3    H2 7315   7.085   4.462   0.182  0.3498  0.1125 -1.5078
 2451TIP3   OH2 7316   3.094   6.018   3.260 -0.2341 -1.0213 -0.0336
 2451TIP3    H1 7317   3.021   6.037   3.319  0.2108  0.4667  0.0584
 2451TIP3    H2 7318   3.074   6.068   3.181  1.0389  0.0202  0.2749
 2452TIP3   OH2 7319   6.336   0.355   0.801  0.1288  0.2927 -0.1878
 2452TIP3    H1 7320   6.410   0.299   0.779  1.7606  1.5619  1.7806
 2452TIP3    H2 7321   6.373   0.443   0.808 -1.6448  1.0422  0.4250
 2453TIP3   OH2 7322   4.823   4.288   5.177  0.1225  0.4039 -0.2875
 2453TIP3    H1 7323   4.775   4.220   5.225 -0.0578  0.0890 -0.9064
 2453TIP3    H2 7324   4.900   4.244   5.142  0.9793  0.9553  0.8589
 2454TIP3   OH2 7325   3.894   1.486   4.116  0.4192  0.4260 -0.2137
 2454TIP3    H1 7326   3.854   1.524   4.037  0.2908  3.0537  1.0262
 2454TIP3    H2 7327   3.820   1.456   4.168  0.4202  0.0556 -0.4211
 2455TIP3   OH2 7328   2.793   4.863   3.926 -0.3185  0.1375 -0.2036
 2455TIP3    H1 7329   2.806   4.839   3.834  0.2983 -0.4653  0.0376
 2455TIP3    H2 7330   2.881   4.868   3.962 -0.5937 -0.5103  0.5747
 2456TIP3   OH2 7331   2.749   1.859   4.882  0.5377 -0.6131 -0.2210
 2456TIP3    H1 7332   2.794   1.776   4.892  0.4282 -0.8327 -1.3933
 2456TIP3    H2 7333   2.755   1.878   4.788 -0.0002  0.3783 -0.0676
 2457TIP3   OH2 7334   5.943   0.847   0.849  0.4632  0.0480  0.1933
 2457TIP3    H1 7335   6.008   0.778   0.840  0.3182  0.0368 -0.7723
 2457TIP3    H2 7336   5.858   0.803   0.839  0.3630  0.3242 -0.1941
 2458TIP3   OH2 7337   1.153   5.651   5.302 -0.2437  0.1859 -0.0522
 2458TIP3    H1 7338   1.182   5.598   5.228 -0.4920 -0.3538  0.2315
 2458TIP3    H2 7339   1.057   5.641   5.304 -0.2032 -0.1565  0.6004
 2459TIP3   OH2 7340   3.699   3.323   4.336  0.1260  0.1240 -0.1714
 2459TIP3    H1 7341   3.783   3.369   4.343 -0.3756  0.9079  1.1271
 2459TIP3    H2 7342   3.655   3.341   4.420 -0.4357 -2.0782  0.0706
 2460TIP3   OH2 7343   2.750   2.791   0.736 -0.1555 -0.2054 -0.0432
 2460TIP3    H1 7344   2.670   2.749   0.703  0.9511 -1.4061 -1.3282
 2460TIP3    H2 7345   2.803   2.719   0.771  1.4111  0.1730 -1.4966
 2461TIP3   OH2 7346   6.595   4.424   3.198 -0.0960 -0.1866  0.1966
 2461TIP3    H1 7347   6.664   4.384   3.145  0.3572  0.2794  0.4179
 2461TIP3    H2 7348   6.638   4.448   3.279 -0.2927  0.9381 -0.0132
 2462TIP3   OH2 7349   6.755   0.392   5.309 -0.3637 -0.4943 -0.0368
 2462TIP3    H1 7350   6.799   0.420   5.389 -0.6118  0.1265 -0.1122
 2462TIP3    H2 7351   6.748   0.297   5.317  0.6839 -0.5706  0.1348
 2463TIP3   OH2 7352   1.158   2.134   1.620  0.1146  0.3078 -0.1108
 2463TIP3    H1 7353   1.193   2.154   1.533 -0.7684 -0.2109 -0.6045
 2463TIP3    H2 7354   1.120   2.217   1.650 -0.2811  0.2989 -0.5695
 2464TIP3   OH2 7355   3.891   2.954   1.216  0.3440 -0.5336 -0.0346
 2464TIP3    H1 7356   3.815   2.952   1.274 -0.4856  0.3967 -1.0411
 2464TIP3    H2 7357   3.856   2.934   1.130  0.8531  1.8656 -0.8828
 2465TIP3   OH2 7358   2.660   3.525   2.172 -0.3445  0.2177 -0.5954
 2465TIP3    H1 7359   2.575   3.550   2.209  0.2287  0.4247  0.6105
 2465TIP3    H2 7360   2.718   3.517   2.248  0.3913 -1.2386 -1.2720
 2466TIP3   OH2 7361   2.755   5.898   1.176  0.4771 -0.4007 -0.4326
 2466TIP3    H1 7362   2.820   5.916   1.244 -0.7627 -2.9205  1.5896
 2466TIP3    H2 7363   2.769   5.806   1.153 -1.1877 -0.4788 -1.3119
 2467TIP3   OH2 7364   6.739   4.861   4.066 -0.5085 -0.4986  0.7441
 2467TIP3    H1 7365   6.786   4.804   4.126  2.3310 -0.4619 -1.2490
 2467TIP3    H2 7366   6.786   4.944   4.069 -2.0706  0.4469  0.5391
 2468TIP3   OH2 7367   3.769   5.931   5.814 -0.4228 -0.5182 -0.9398
 2468TIP3    H1 7368   3.712   5.907   5.886  0.4589 -1.2449 -0.4636
 2468TIP3    H2 7369   3.773   6.027   5.817 -1.9759 -0.4176 -1.2868
 2469TIP3   OH2 7370   2.455   3.549   3.884 -0.3309  0.5516 -0.5315
 2469TIP3    H1 7371   2.416   3.567   3.798  1.3714  2.7445 -0.9474
 2469TIP3    H2 7372   2.491   3.460   3.876  0.5140  1.0149 -2.4256
 2470TIP3   OH2 7373   0.904   4.382   1.676  0.0744  0.0658  0.1006
 2470TIP3    H1 7374   0.994   4.393   1.705  1.0686 -1.8833 -1.9735
 2470TIP3    H2 7375   0.888   4.456   1.617 -0.1942  1.1424  1.4704
 2471TIP3   OH2 7376   1.087   5.878   1.106 -0.4050 -0.0544 -0.2126
 2471TIP3    H1 7377   1.012   5.935   1.126 -0.8167 -0.6622  0.0127
 2471TIP3    H2 7378   1.163   5.927   1.137 -0.8759 -0.2077  1.2737
 2472TIP3   OH2 7379   2.006   0.408   5.282  0.4274  0.2199  0.0335
 2472TIP3    H1 7380   2.059   0.370   5.211  1.1626  1.0393  0.1202
 2472TIP3    H2 7381   1.971   0.489   5.245 -0.9852 -0.4347 -0.0973
 2473TIP3   OH2 7382   0.460   6.623   2.584  0.4640  0.4489 -0.0509
 2473TIP3    H1 7383   0.391   6.677   2.624  0.5862  0.8873 -0.4242
 2473TIP3    H2 7384   0.470   6.658   2.496 -0.6321 -1.2787 -0.9048
 2474TIP3   OH2 7385   4.213   2.147   1.976 -0.6378 -0.2246 -0.1614
 2474TIP3    H1 7386   4.133   2.109   1.940 -1.0151 -0.6565  1.0871
 2474TIP3    H2 7387   4.197   2.152   2.070 -0.2824  2.2981 -0.1650
 2475TIP3   OH2 7388   4.350   1.431   4.128 -0.2301 -0.5436  0.1258
 2475TIP3    H1 7389   4.353   1.497   4.197  0.6247 -1.4996  1.0350
 2475TIP3    H2 7390   4.256   1.414   4.115 -0.5460  1.7043 -1.0105
 2476TIP3   OH2 7391   5.875   1.857   5.343 -0.3650 -0.1860 -0.5679
 2476TIP3    H1 7392   5.905   1.944   5.313  1.1957 -1.1523 -2.0390
 2476TIP3    H2 7393   5.878   1.862   5.438 -2.0176  1.9040 -0.5554
 2477TIP3   OH2 7394   2.042   1.796   1.984  0.3471  0.8410  0.0029
 2477TIP3    H1 7395   2.105   1.836   1.924  0.4605  0.0770 -0.3863
 2477TIP3    H2 7396   2.089   1.787   2.066  1.4959 -1.7493 -0.8670
 2478TIP3   OH2 7397   1.086   3.433   4.540 -0.3225 -0.3532 -0.4267
 2478TIP3    H1 7398   1.061   3.522   4.566  0.7672 -0.6463  1.8629
 2478TIP3    H2 7399   1.097   3.387   4.623  0.3165 -2.3129 -1.5538
 2479TIP3   OH2 7400   0.583   5.128   0.376  0.1403 -0.3374  0.1803
 2479TIP3    H1 7401   0.547   5.055   0.426 -1.0632  0.7376  0.9596
 2479TIP3    H2 7402   0.512   5.192   0.373  0.9984  0.6164 -0.8880
 2480TIP3   OH2 7403   6.414   5.915   4.246 -0.6287 -0.0442  0.4982
 2480TIP3    H1 7404   6.384   5.898   4.335  0.5955  0.2265  0.9877
 2480TIP3    H2 7405   6.376   6.001   4.224  0.8969  0.9747  1.6551
 2481TIP3   OH2 7406   2.210   2.619   2.170  0.3641 -0.3475  0.0039
 2481TIP3    H1 7407   2.142   2.676   2.134  0.4424  1.4723  2.4240
 2481TIP3    H2 7408   2.291   2.651   2.132  0.2442  0.0662  0.0948
 2482TIP3   OH2 7409   5.404   1.994   3.308 -0.1387 -0.0695  0.2838
 2482TIP3    H1 7410   5.423   1.975   3.216  0.1786  1.8293 -0.0938
 2482TIP3    H2 7411   5.447   1.923   3.356 -0.2337 -1.0502 -1.0139
 2483TIP3   OH2 7412   5.943   4.362   0.727 -0.3308  0.4308 -0.2427
 2483TIP3    H1 7413   6.031   4.333   0.703 -0.4854  0.4831 -0.8908
 2483TIP3    H2 7414   5.914   4.298   0.792  0.3695  0.6901  0.3325
 2484TIP3   OH2 7415   4.565   4.070   0.544  0.2365 -0.0280 -0.3496
 2484TIP3    H1 7416   4.512   4.140   0.505 -0.7854 -0.4420  0.2497
 2484TIP3    H2 7417   4.626   4.115   0.602  0.8411  0.4900 -1.3628
 2485TIP3   OH2 7418   5.310   3.377   2.718 -0.0002 -0.1150 -0.4527
 2485TIP3    H1 7419   5.404   3.360   2.710  0.0997 -0.4666  1.1408
 2485TIP3    H2 7420   5.279   3.386   2.628  1.5119 -0.2560 -1.0068
 2486TIP3   OH2 7421   6.455   2.097   2.199 -0.0054 -0.3938  0.2766
 2486TIP3    H1 7422   6.501   2.013   2.207 -1.0876 -0.8359  3.3233
 2486TIP3    H2 7423   6.524   2.163   2.209  0.4928 -0.9866  0.8685
 2487TIP3   OH2 7424   6.370   3.762   0.162  0.0351  0.1238 -0.0341
 2487TIP3    H1 7425   6.281   3.780   0.130 -0.3685  1.4688  1.7034
 2487TIP3    H2 7426   6.423   3.754   0.082 -1.2777  1.3306 -1.0717
 2488TIP3   OH2 7427   0.911   5.948   2.437 -0.1783  0.2580 -0.0002
 2488TIP3    H1 7428   0.839   5.886   2.452 -1.2016  1.5414  0.5468
 2488TIP3    H2 7429   0.989   5.900   2.464 -0.9552 -0.7743  0.4998
 2489TIP3   OH2 7430   5.516   5.125   0.375 -0.3161 -0.5914 -0.2029
 2489TIP3    H1 7431   5.482   5.099   0.461 -1.5672 -3.7000 -1.4690
 2489TIP3    H2 7432   5.441   5.164   0.330  0.5707  1.9033  0.3224
 2490TIP3   OH2 7433   4.411   0.859   3.980 -0.2203  0.4920 -0.2691
 2490TIP3    H1 7434   4.456   0.781   4.014 -0.8200  0.7050  1.0760
 2490TIP3    H2 7435   4.469   0.891   3.911 -0.9450 -2.3164 -2.3747
 2491TIP3   OH2 7436   0.976   3.337   1.671  0.8494 -0.3175  0.5735
 2491TIP3    H1 7437   0.906   3.344   1.606  1.4682 -1.3873 -0.2403
 2491TIP3    H2 7438   0.931   3.338   1.755 -0.0006  0.6801  0.1299
 2492TIP3   OH2 7439   6.060   6.418   4.652 -0.2889  0.3093  0.1418
 2492TIP3    H1 7440   6.083   6.390   4.740  1.4856  1.9125  0.2531
 2492TIP3    H2 7441   6.142   6.412   4.602 -1.3863 -1.2245 -1.6359
 2493TIP3   OH2 7442   1.279   4.025   2.244  0.2972 -0.3568 -0.0253
 2493TIP3    H1 7443   1.260   4.119   2.235 -0.7824 -0.3783  1.6115
 2493TIP3    H2 7444   1.211   3.982   2.193  1.7230 -0.2736 -2.1179
 2494TIP3   OH2 7445   3.557   4.435   1.911  0.3771 -0.4519  0.0389
 2494TIP3    H1 7446   3.592   4.442   2.000  1.4306  0.3836 -0.4032
 2494TIP3    H2 7447   3.626   4.472   1.855 -0.9726  0.7056 -0.9548
 2495TIP3   OH2 7448   5.166   3.112   3.875 -0.2591  0.4432 -0.7808
 2495TIP3    H1 7449   5.160   3.027   3.919  0.1782  1.2104  0.8613
 2495TIP3    H2 7450   5.259   3.133   3.874 -0.5113  1.9528  1.0663
 2496TIP3   OH2 7451   3.006   5.882   0.086  0.0922  0.1432 -0.1782
 2496TIP3    H1 7452   3.092   5.893   0.127 -0.1523  0.6029  0.2172
 2496TIP3    H2 7453   2.948   5.855   0.158 -0.4059  1.2552 -0.1453
 2497TIP3   OH2 7454   0.553   0.706   3.139  0.5401 -0.0537 -0.6889
 2497TIP3    H1 7455   0.569   0.696   3.045  1.3614 -1.0300 -0.4526
 2497TIP3    H2 7456   0.625   0.661   3.181 -0.9029 -1.4541  0.4185
 2498TIP3   OH2 7457   1.966   1.206   5.402  0.1602 -0.2384  0.0488
 2498TIP3    H1 7458   1.881   1.249   5.409 -0.0678 -0.6520 -0.1064
 2498TIP3    H2 7459   2.001   1.207   5.491  0.2010  0.3427  0.0309
 2499TIP3   OH2 7460   6.640   3.345   0.957 -0.1085  0.3370 -0.6872
 2499TIP3    H1 7461   6.702   3.280   0.922  0.4265 -0.4137  1.4995
 2499TIP3    H2 7462   6.695   3.412   0.997 -0.6638  0.0984  0.5238
 2500TIP3   OH2 7463   0.428   3.095   4.759 -0.2770 -0.6986 -0.2645
 2500TIP3    H1 7464   0.471   3.039   4.824  0.6205  0.0007 -0.2388
 2500TIP3    H2 7465   0.394   3.034   4.694  0.9439 -1.2712 -0.3907
 2501TIP3   OH2 7466   3.081   5.568   3.165 -0.3396 -0.2205 -0.3157
 2501TIP3    H1 7467   3.111   5.616   3.088  0.0400  2.1472  1.1686
 2501TIP3    H2 7468   2.986   5.572   3.160 -0.3152 -0.3333 -0.8305
 2502TIP3   OH2 7469   1.497   4.674   5.817 -0.0790 -0.0000  0.2437
 2502TIP3    H1 7470   1.405   4.657   5.838 -0.7939  1.8185 -1.1419
 2502TIP3    H2 7471   1.516   4.613   5.745 -0.1689 -0.4337  0.5839
 2503TIP3   OH2 7472   5.902   1.541   0.073  0.0018 -0.3492 -0.8726
 2503TIP3    H1 7473   5.920   1.499   0.157 -2.0683 -0.8358 -0.6222
 2503TIP3    H2 7474   5.954   1.492   0.010  1.4176 -0.1188  0.0644
 2504TIP3   OH2 7475   2.592   2.753   3.171  0.1275  0.1619  0.2153
 2504TIP3    H1 7476   2.521   2.811   3.145  0.4805  0.0156 -1.1804
 2504TIP3    H2 7477   2.552   2.692   3.233  0.0222  2.5637  2.7011
 2505TIP3   OH2 7478   3.901   0.661   5.311 -0.3978  0.3019  0.1690
 2505TIP3    H1 7479   3.912   0.699   5.398 -0.0830  0.2458  0.1545
 2505TIP3    H2 7480   3.989   0.663   5.273 -0.4906  0.1030 -0.0543
 2506TIP3   OH2 7481   1.009   1.438   3.293 -0.0258 -0.2186 -0.1656
 2506TIP3    H1 7482   1.060   1.360   3.310 -0.3638 -0.4553 -0.2215
 2506TIP3    H2 7483   0.924   1.405   3.262  0.9291  0.1672 -3.5558
 2507TIP3   OH2 7484   1.297   5.217   4.642 -0.3638  0.1206  0.0273
 2507TIP3    H1 7485   1.377   5.236   4.593  0.0294  0.8628  0.9119
 2507TIP3    H2 7486   1.243   5.166   4.582  0.2743  0.6245 -1.0100
 2508TIP3   OH2 7487   1.604   3.741   4.560  0.2708 -0.2224 -0.2211
 2508TIP3    H1 7488   1.515   3.772   4.545  0.0208 -1.7105 -2.2703
 2508TIP3    H2 7489   1.607   3.722   4.654 -1.0882  1.2005  0.1535
 2509TIP3   OH2 7490   5.129   0.504   0.509 -0.7189  0.0067 -0.2037
 2509TIP3    H1 7491   5.207   0.449   0.511 -0.8863 -0.2251 -0.0062
 2509TIP3    H2 7492   5.085   0.487   0.592  0.8560  2.8262  1.3484
 2510TIP3   OH2 7493   4.604   3.352   2.722 -0.0496  0.0905 -0.1554
 2510TIP3    H1 7494   4.551   3.425   2.755  0.5628  1.1131 -1.3453
 2510TIP3    H2 7495   4.681   3.352   2.779 -0.1823  0.1876  0.0256
 2511TIP3   OH2 7496   0.705   5.925   4.434 -0.2655 -0.5313  0.0437
 2511TIP3    H1 7497   0.779   5.975   4.469 -0.0378 -0.7674 -0.0899
 2511TIP3    H2 7498   0.698   5.953   4.343 -0.9736  0.2168  0.3153
 2512TIP3   OH2 7499   6.998   6.115   0.354  0.2428  0.3875  0.0364
 2512TIP3    H1 7500   7.003   6.024   0.385  1.2367  0.9210  1.5643
 2512TIP3    H2 7501   7.086   6.149   0.366  0.0822  1.3523 -1.2751
 2513TIP3   OH2 7502   4.265   2.783   3.577  0.1678 -0.3400  0.1641
 2513TIP3    H1 7503   4.183   2.733   3.587 -0.9439  1.1331 -1.0345
 2513TIP3    H2 7504   4.298   2.792   3.666 -2.2401  1.0015  1.0274
 2514TIP3   OH2 7505   3.762   5.787   1.223 -0.0252  0.3524 -0.4493
 2514TIP3    H1 7506   3.840   5.794   1.168  1.2553  0.0084  1.2436
 2514TIP3    H2 7507   3.793   5.804   1.312 -2.0231  0.9172  0.2156
 2515TIP3   OH2 7508   2.379   4.402   2.859 -0.1436  0.2486 -0.4577
 2515TIP3    H1 7509   2.393   4.372   2.949  0.2522 -0.1520 -0.6473
 2515TIP3    H2 7510   2.463   4.442   2.834 -0.1316  0.0303 -0.7733
 2516TIP3   OH2 7511   1.029   6.421   5.058 -0.3357  0.5452  0.3518
 2516TIP3    H1 7512   0.939   6.392   5.072  0.3352 -2.8301 -1.2246
 2516TIP3    H2 7513   1.083   6.359   5.107  1.2034  0.8146 -0.8986
 2517TIP3   OH2 7514   0.521   3.937   3.386  0.4839 -0.4102 -0.2034
 2517TIP3    H1 7515   0.609   3.920   3.419 -0.1632  0.2334  1.9800
 2517TIP3    H2 7516   0.500   4.025   3.416 -0.2769  0.1472 -2.2020
 2518TIP3   OH2 7517   0.601   6.354   5.617 -0.0830  0.6159 -1.0141
 2518TIP3    H1 7518   0.619   6.265   5.589 -1.3167  0.0241 -0.0096
 2518TIP3    H2 7519   0.631   6.409   5.544  3.0397 -0.3961 -0.6304
 2519TIP3   OH2 7520   0.972   6.642   3.641  0.4290 -0.3582  0.0296
 2519TIP3    H1 7521   0.888   6.610   3.607 -0.7214  1.5274  0.9065
 2519TIP3    H2 7522   1.001   6.574   3.702 -0.4215 -1.0559 -0.3226
 2520TIP3   OH2 7523   5.425   2.921   1.016 -0.1989  0.1144 -0.2376
 2520TIP3    H1 7524   5.514   2.941   0.988 -0.4501 -1.4901 -2.4130
 2520TIP3    H2 7525   5.413   2.972   1.097  2.7298  0.1862  0.2410
 2521TIP3   OH2 7526   7.050   5.895   3.205 -0.4015  0.1910 -0.2953
 2521TIP3    H1 7527   7.056   5.808   3.245 -0.3847 -0.1202 -0.9560
 2521TIP3    H2 7528   7.138   5.911   3.170 -0.4902  0.3379 -0.4551
 2522TIP3   OH2 7529   1.925   0.846   0.308 -0.0652 -0.4303  0.0839
 2522TIP3    H1 7530   1.836   0.879   0.311  0.3056  0.7365 -0.9885
 2522TIP3    H2 7531   1.976   0.909   0.358  0.2324 -0.8551  0.3278
 2523TIP3   OH2 7532   5.815   4.420   1.046 -0.0725  0.0825 -0.1002
 2523TIP3    H1 7533   5.833   4.431   0.953 -0.2865 -0.5109 -0.2160
 2523TIP3    H2 7534   5.732   4.465   1.060  1.2728  2.5851  0.3788
 2524TIP3   OH2 7535   6.673   4.719   5.193 -0.1642 -0.0489 -0.3232
 2524TIP3    H1 7536   6.629   4.803   5.188 -1.8740 -0.6697  2.4616
 2524TIP3    H2 7537   6.720   4.721   5.276 -1.0658 -2.1564  0.3096
 2525TIP3   OH2 7538   4.907   0.529   3.276  0.4651  0.0388 -0.3989
 2525TIP3    H1 7539   4.926   0.506   3.367 -2.2505  2.0336  0.8189
 2525TIP3    H2 7540   4.859   0.453   3.242  1.5046 -0.7249 -0.2151
 2526TIP3   OH2 7541   6.271   5.015   2.850 -0.7062  0.0380 -0.5932
 2526TIP3    H1 7542   6.348   5.030   2.905 -0.6701  2.1598 -1.1513
 2526TIP3    H2 7543   6.289   4.932   2.806  1.3659  0.5595 -0.8465
 2527TIP3   OH2 7544   0.955   3.849   4.320  0.1691 -0.1318  0.5298
 2527TIP3    H1 7545   0.893   3.776   4.311 -0.6628  0.5682  0.4591
 2527TIP3    H2 7546   0.932   3.909   4.249 -0.4720  1.1430  1.7695
 2528TIP3   OH2 7547   2.080   1.763   5.145 -0.2160 -0.1206  0.0592
 2528TIP3    H1 7548   2.105   1.688   5.091  0.6403 -0.9183  1.4857
 2528TIP3    H2 7549   2.131   1.751   5.226 -2.9852 -0.1565  1.9210
 2529TIP3   OH2 7550   1.445   1.242   3.573 -0.3729  0.2376  0.0701
 2529TIP3    H1 7551   1.458   1.162   3.522  0.3555 -0.7620  1.7302
 2529TIP3    H2 7552   1.441   1.312   3.507 -0.7010 -1.1058 -1.4033
 2530TIP3   OH2 7553   1.036   4.567   4.570 -0.5506 -0.1987 -0.2036
 2530TIP3    H1 7554   0.975   4.629   4.530  0.7251 -0.8053 -3.4400
 2530TIP3    H2 7555   1.006   4.482   4.540  0.0163 -0.8070  0.8966
 2531TIP3   OH2 7556   5.201   3.982   3.727 -0.4334  0.1059  0.1384
 2531TIP3    H1 7557   5.126   3.944   3.681 -0.4106 -1.6201  1.4229
 2531TIP3    H2 7558   5.178   3.976   3.819  1.3452 -0.6080  0.5705
 2532TIP3   OH2 7559   0.547   2.407   3.572 -0.3128  0.1153 -0.0583
 2532TIP3    H1 7560   0.566   2.414   3.478  1.2681 -0.9144  0.1561
 2532TIP3    H2 7561   0.528   2.497   3.599 -1.3374  0.3526 -1.4552
 2533TIP3   OH2 7562   4.360   5.185   2.104  0.0008 -0.0784  0.1125
 2533TIP3    H1 7563   4.440   5.146   2.071  0.2419 -0.5380  1.2043
 2533TIP3    H2 7564   4.373   5.279   2.093 -0.0902 -0.2211 -1.4230
 2534TIP3   OH2 7565   3.448   6.547   5.548 -0.4999  0.1527  0.1637
 2534TIP3    H1 7566   3.486   6.517   5.466 -1.6989  1.4662 -0.9098
 2534TIP3    H2 7567   3.522   6.581   5.598  0.1925 -0.3243 -0.5153
 2535TIP3   OH2 7568   0.340   0.473   4.471 -0.0024  0.2573  0.4099
 2535TIP3    H1 7569   0.305   0.422   4.544 -0.4685 -0.6788 -0.4362
 2535TIP3    H2 7570   0.319   0.564   4.493  1.1613  0.1591  2.1250
 2536TIP3   OH2 7571   5.781   4.959   4.157  0.3968 -0.5193 -0.0113
 2536TIP3    H1 7572   5.749   4.870   4.175 -1.1169 -0.0996 -0.5076
 2536TIP3    H2 7573   5.776   5.004   4.242  1.4764 -0.9587  0.3168
 2537TIP3   OH2 7574   1.248   1.653   3.648  0.0324  0.0878 -0.9487
 2537TIP3    H1 7575   1.278   1.673   3.737 -0.8627 -1.1704 -0.3256
 2537TIP3    H2 7576   1.235   1.739   3.607 -0.7283  0.7288  0.5533
 2538TIP3   OH2 7577   0.459   5.109   4.519 -0.1745  0.4597 -0.4445
 2538TIP3    H1 7578   0.419   5.075   4.439 -1.8863 -0.6837  0.8321
 2538TIP3    H2 7579   0.549   5.130   4.493 -0.4726 -0.5217 -2.4917
 2539TIP3   OH2 7580   7.058   1.070   3.659 -0.4212 -0.0753  0.0647
 2539TIP3    H1 7581   7.018   1.107   3.737  1.2108 -1.3255  1.5752
 2539TIP3    H2 7582   7.015   0.985   3.647 -2.1688  0.9608 -1.7374
 2540TIP3   OH2 7583   2.994   6.758   5.348  0.0574  0.2201 -0.1295
 2540TIP3    H1 7584   2.924   6.693   5.347  1.8467 -2.0332 -4.3013
 2540TIP3    H2 7585   3.072   6.710   5.376  0.9247  1.2565 -0.6651
 2541TIP3   OH2 7586   5.865   0.842   4.680 -0.2859  0.1953  0.0238
 2541TIP3    H1 7587   5.959   0.855   4.665 -0.1970  1.1266  1.2264
 2541TIP3    H2 7588   5.825   0.851   4.594  0.6970  0.1343 -0.4465
 2542TIP3   OH2 7589   5.770   3.167   5.142  0.2232  0.0513 -0.4474
 2542TIP3    H1 7590   5.683   3.126   5.141  0.5448 -0.6453 -0.6604
 2542TIP3    H2 7591   5.830   3.095   5.160  0.7776  0.4917 -0.5116
 2543TIP3   OH2 7592   1.242   1.289   5.632 -0.1798  0.2672 -0.0915
 2543TIP3    H1 7593   1.235   1.233   5.555 -3.8722  0.5791 -0.1867
 2543TIP3    H2 7594   1.241   1.228   5.706 -2.6227  0.0251 -0.2372
 2544TIP3   OH2 7595   5.385   2.260   1.973 -0.0770  0.0308  0.4120
 2544TIP3    H1 7596   5.469   2.224   2.002 -0.4253 -1.1197  0.0511
 2544TIP3    H2 7597   5.400   2.354   1.967  0.9684 -0.0801  1.0723
 2545TIP3   OH2 7598   6.895   5.453   3.625  0.2775 -0.4386  0.2764
 2545TIP3    H1 7599   6.950   5.461   3.548 -0.1634  1.2167  0.1061
 2545TIP3    H2 7600   6.912   5.364   3.657  2.2962 -0.3130 -0.3029
 2546TIP3   OH2 7601   6.639   5.454   3.424 -0.4377 -0.4305  0.0889
 2546TIP3    H1 7602   6.602   5.471   3.511 -0.2947  0.9536 -0.0978
 2546TIP3    H2 7603   6.728   5.424   3.442 -0.7832 -1.2722  0.4492
 2547TIP3   OH2 7604   5.280   2.492   1.654 -0.4095 -0.3567  0.5240
 2547TIP3    H1 7605   5.340   2.565   1.644 -0.2169 -0.6708 -0.7614
 2547TIP3    H2 7606   5.214   2.523   1.716  0.3826  0.4234  1.0006
 2548TIP3   OH2 7607   3.240   5.492   4.341  0.3599  0.3958 -0.1390
 2548TIP3    H1 7608   3.308   5.558   4.324 -0.3257  1.0799 -0.2871
 2548TIP3    H2 7609   3.166   5.519   4.287 -0.1868 -0.0926  0.3483
 2549TIP3   OH2 7610   1.998   2.830   0.073  0.5413  0.0910 -0.4344
 2549TIP3    H1 7611   1.923   2.840   0.013  0.1511 -3.4765 -0.7375
 2549TIP3    H2 7612   2.074   2.829   0.015  0.4695 -0.0503 -0.5282
 2550TIP3   OH2 7613   5.329   3.214   5.912  0.3283 -0.7148 -0.0307
 2550TIP3    H1 7614   5.235   3.203   5.902  0.2263 -0.5569  0.6574
 2550TIP3    H2 7615   5.361   3.230   5.823 -0.4132  0.1009 -0.1716
 2551TIP3   OH2 7616   4.315   3.900   2.853 -0.5645  0.1387  0.1674
 2551TIP3    H1 7617   4.390   3.957   2.836 -0.0963 -0.6951 -0.7117
 2551TIP3    H2 7618   4.291   3.917   2.944  1.5357 -0.5292  0.9023
 2552TIP3   OH2 7619   1.741   5.644   0.731 -0.0985  0.5409  0.5873
 2552TIP3    H1 7620   1.713   5.556   0.754 -0.8274  1.0668  1.8298
 2552TIP3    H2 7621   1.695   5.663   0.649  1.9998 -1.1144 -1.0869
 2553TIP3   OH2 7622   5.378   2.572   4.346  0.3583  0.0613  0.0657
 2553TIP3    H1 7623   5.335   2.497   4.388 -0.7148 -0.1721 -1.3517
 2553TIP3    H2 7624   5.471   2.557   4.360  0.0835 -0.0526  2.2155
 2554TIP3   OH2 7625   2.370   2.582   3.049  0.0822 -0.2689 -0.4571
 2554TIP3    H1 7626   2.427   2.506   3.056  0.1228 -0.2634 -0.7129
 2554TIP3    H2 7627   2.315   2.578   3.127  1.1234  0.2981  0.3273
 2555TIP3   OH2 7628   4.247   0.687   4.940  0.3916  0.3177  0.1959
 2555TIP3    H1 7629   4.178   0.644   4.888  0.3217 -0.3249  0.8021
 2555TIP3    H2 7630   4.299   0.734   4.875  1.3884 -1.8973 -0.7380
 2556TIP3   OH2 7631   7.064   6.699   5.459 -0.5140 -0.6560 -0.3679
 2556TIP3    H1 7632   7.151   6.660   5.453  0.5013  1.3051  0.5054
 2556TIP3    H2 7633   7.076   6.789   5.428 -2.0312 -0.0713  0.6188
 2557TIP3   OH2 7634   3.494   1.971   3.777 -0.0699  0.3466  0.4696
 2557TIP3    H1 7635   3.469   2.017   3.857 -2.1503 -0.5909  0.4341
 2557TIP3    H2 7636   3.521   1.884   3.807  0.8692  0.5567  0.2731
 2558TIP3   OH2 7637   4.325   5.997   4.548  0.4026 -0.0329  0.1596
 2558TIP3    H1 7638   4.375   5.954   4.617  0.1336 -0.6293 -0.0079
 2558TIP3    H2 7639   4.336   6.091   4.564  0.5492 -0.1688  0.8566
 2559TIP3   OH2 7640   5.935   5.749   2.987  0.2459 -0.3739 -0.4024
 2559TIP3    H1 7641   5.872   5.751   3.059  0.9684 -1.2691  0.2792
 2559TIP3    H2 7642   6.020   5.738   3.030  0.9571  1.2743 -1.2605
 2560TIP3   OH2 7643   6.206   2.240   3.897 -0.6111 -0.0961 -0.4371
 2560TIP3    H1 7644   6.270   2.256   3.828  1.0074 -0.1156  0.9682
 2560TIP3    H2 7645   6.150   2.170   3.863 -0.1521  0.2101 -1.8763
 2561TIP3   OH2 7646   0.903   2.085   4.741  0.0388 -0.0886  0.3027
 2561TIP3    H1 7647   0.889   1.999   4.702  0.8292  0.1838 -0.6062
 2561TIP3    H2 7648   0.821   2.104   4.787 -0.5137 -0.8796 -0.3315
 2562TIP3   OH2 7649   3.975   1.392   4.868 -0.1827 -0.0986 -0.0339
 2562TIP3    H1 7650   4.067   1.380   4.890 -0.5492 -1.8540  0.7021
 2562TIP3    H2 7651   3.974   1.398   4.773  0.6493 -0.6040 -0.0848
 2563TIP3   OH2 7652   1.238   3.223   0.872 -0.0912  0.0337  0.1370
 2563TIP3    H1 7653   1.210   3.315   0.872 -0.2494 -0.0016 -0.9770
 2563TIP3    H2 7654   1.242   3.200   0.965  1.1140  1.5044  0.4900
 2564TIP3   OH2 7655   0.363   3.713   2.829  0.0239 -0.1208  0.0713
 2564TIP3    H1 7656   0.448   3.669   2.842  0.2106  0.6390  1.5197
 2564TIP3    H2 7657   0.355   3.773   2.902 -1.2926  0.6166 -0.6407
 2565TIP3   OH2 7658   6.604   0.612   0.098  0.0531  0.7731  0.3549
 2565TIP3    H1 7659   6.609   0.553   0.174 -0.7149 -0.2096 -0.3272
 2565TIP3    H2 7660   6.520   0.657   0.108  0.6071  1.7228  0.8361
 2566TIP3   OH2 7661   0.955   4.735   5.080  0.0825 -0.1382 -0.4178
 2566TIP3    H1 7662   0.928   4.670   5.015  0.7843 -0.4626 -0.3924
 2566TIP3    H2 7663   1.037   4.771   5.046  0.5551 -0.4440  0.3762
 2567TIP3   OH2 7664   2.290   6.216   1.125  0.3924  0.0696 -0.0871
 2567TIP3    H1 7665   2.310   6.127   1.098  0.4324 -0.4083  1.4734
 2567TIP3    H2 7666   2.339   6.271   1.063  1.3375 -0.9998 -0.3077
 2568TIP3   OH2 7667   2.483   0.400   3.273  0.5741 -0.2095 -0.1971
 2568TIP3    H1 7668   2.538   0.341   3.222 -0.8613 -0.3506 -1.6800
 2568TIP3    H2 7669   2.456   0.468   3.211 -3.0944 -1.6129 -0.3834
 2569TIP3   OH2 7670   3.393   0.383   2.532  0.3458 -0.1697  0.0634
 2569TIP3    H1 7671   3.356   0.461   2.490 -0.0417 -0.5379 -0.2902
 2569TIP3    H2 7672   3.367   0.391   2.624  2.8767  1.6664  0.7462
 2570TIP3   OH2 7673   0.140   2.453   3.259 -0.5146  0.3055  0.3425
 2570TIP3    H1 7674   0.222   2.417   3.225 -0.5495  0.5861 -0.0436
 2570TIP3    H2 7675   0.072   2.395   3.225 -0.5973  0.8958 -0.5298
 2571TIP3   OH2 7676   3.823   2.404   2.530  0.0918 -0.3857 -0.2279
 2571TIP3    H1 7677   3.732   2.407   2.559  0.6210  0.9226  1.5334
 2571TIP3    H2 7678   3.847   2.496   2.517  1.2100 -0.6880 -0.4519
 2572TIP3   OH2 7679   7.158   5.234   3.944  0.1542 -0.5248  0.1265
 2572TIP3    H1 7680   7.179   5.223   4.037  0.8109 -3.0703 -0.2315
 2572TIP3    H2 7681   7.095   5.164   3.926 -0.4205  0.3145 -1.2306
 2573TIP3   OH2 7682   3.163   4.966   3.841 -0.1054  0.7970  0.1335
 2573TIP3    H1 7683   3.139   5.058   3.835 -0.0266  0.8834  0.9587
 2573TIP3    H2 7684   3.104   4.930   3.908 -2.0360 -0.4162 -2.0715
 2574TIP3   OH2 7685   3.980   1.714   4.952  0.0534 -1.0806  0.6283
 2574TIP3    H1 7686   3.915   1.644   4.961 -0.5711 -0.2939  3.5418
 2574TIP3    H2 7687   4.053   1.685   5.006  1.3201 -1.0332 -0.9945
 2575TIP3   OH2 7688   6.372   4.700   5.086 -0.0923 -0.8397 -0.4757
 2575TIP3    H1 7689   6.449   4.644   5.083  0.4340 -0.1670  0.0205
 2575TIP3    H2 7690   6.344   4.697   5.178  0.9901  1.0429 -0.0289
 2576TIP3   OH2 7691   1.176   4.909   0.949 -0.4743  0.2311  0.2341
 2576TIP3    H1 7692   1.265   4.928   0.978 -0.7922 -0.8791  2.0941
 2576TIP3    H2 7693   1.120   4.960   1.008 -1.1127 -1.1735  0.8940
 2577TIP3   OH2 7694   6.632   6.112   4.414  0.1997 -0.0289 -0.1541
 2577TIP3    H1 7695   6.600   6.058   4.487  0.8931 -0.6789 -0.3303
 2577TIP3    H2 7696   6.591   6.075   4.336  0.4797 -0.1465 -0.2464
 2578TIP3   OH2 7697   4.756   4.499   3.024  0.1108  0.9003 -0.0693
 2578TIP3    H1 7698   4.844   4.492   2.987 -0.2050  1.1585 -0.8728
 2578TIP3    H2 7699   4.701   4.526   2.951 -0.0524  4.2358  1.1235
 2579TIP3   OH2 7700   4.601   3.051   0.477 -0.1177  0.3647 -0.3517
 2579TIP3    H1 7701   4.511   3.054   0.511 -0.9236  1.6407 -2.3703
 2579TIP3    H2 7702   4.656   3.069   0.552 -1.5983  0.2775  0.8061
 2580TIP3   OH2 7703   2.859   5.298   5.578 -0.1471 -0.1215  0.4674
 2580TIP3    H1 7704   2.893   5.384   5.555 -0.1178 -0.7731 -2.3127
 2580TIP3    H2 7705   2.768   5.314   5.604  0.1812  0.8428  1.0705
 2581TIP3   OH2 7706   2.172   5.708   3.659 -0.6265 -0.4113 -0.1447
 2581TIP3    H1 7707   2.134   5.637   3.711 -0.1148 -0.9909 -0.5393
 2581TIP3    H2 7708   2.181   5.781   3.720 -2.2343 -0.2910 -0.0073
 2582TIP3   OH2 7709   7.132   4.540   1.505 -0.2695  0.1139 -0.1358
 2582TIP3    H1 7710   7.149   4.630   1.477 -0.4817 -0.2166 -1.4017
 2582TIP3    H2 7711   7.080   4.502   1.433  1.5812 -1.6532 -0.6263
 2583TIP3   OH2 7712   1.939   6.450   1.787  0.2011  0.7632  0.5099
 2583TIP3    H1 7713   1.999   6.432   1.715  1.7685  1.9020  1.4783
 2583TIP3    H2 7714   1.872   6.506   1.749 -0.2148 -0.4084 -0.5499
 2584TIP3   OH2 7715   3.142   3.295   2.558 -0.1866 -0.2545 -0.1348
 2584TIP3    H1 7716   3.154   3.390   2.550 -1.4110  0.0264  1.0534
 2584TIP3    H2 7717   3.131   3.264   2.468 -1.7974  1.0409 -0.4234
 2585TIP3   OH2 7718   0.558   5.692   1.394 -0.1280  0.0474  0.2011
 2585TIP3    H1 7719   0.547   5.698   1.299 -0.6818  0.6292  0.2980
 2585TIP3    H2 7720   0.601   5.608   1.408  1.4312  0.6454 -0.6911
 2586TIP3   OH2 7721   1.875   4.249   5.620 -0.0196 -0.6123 -0.2391
 2586TIP3    H1 7722   1.923   4.307   5.678 -1.4091 -0.1840  0.5241
 2586TIP3    H2 7723   1.791   4.292   5.606 -0.4097 -1.5894 -1.1079
 2587TIP3   OH2 7724   2.703   2.338   2.314 -0.2467 -0.1073 -0.4786
 2587TIP3    H1 7725   2.776   2.374   2.364 -1.0712  1.3524 -0.2619
 2587TIP3    H2 7726   2.689   2.402   2.244  1.3422 -2.4308 -3.1190
 2588TIP3   OH2 7727   2.586   0.988   1.181  0.2052 -0.5255 -0.1227
 2588TIP3    H1 7728   2.607   0.895   1.166  1.0915 -0.1810 -1.1359
 2588TIP3    H2 7729   2.614   1.032   1.100  2.1515  1.0022  1.2917
 2589TIP3   OH2 7730   0.709   6.119   0.109 -0.0289  0.2916  0.5219
 2589TIP3    H1 7731   0.723   6.210   0.083  1.7139 -0.0118  0.2905
 2589TIP3    H2 7732   0.702   6.123   0.205  1.4114  0.5469  0.6425
 2590TIP3   OH2 7733   4.389   4.136   2.060  0.1513  0.1822 -0.3001
 2590TIP3    H1 7734   4.455   4.118   2.127 -0.9461 -1.2395  0.4434
 2590TIP3    H2 7735   4.408   4.074   1.989 -0.1589  0.0165 -0.2404
 2591TIP3   OH2 7736   5.605   5.595   3.778 -0.1717  0.1036  0.2411
 2591TIP3    H1 7737   5.583   5.607   3.870  1.6655  3.2973  0.3795
 2591TIP3    H2 7738   5.665   5.520   3.778  0.7352  0.7757  1.8370
 2592TIP3   OH2 7739   2.475   2.641   2.818  0.4749 -0.0102  0.4876
 2592TIP3    H1 7740   2.426   2.620   2.898  0.6284 -1.1682  0.2980
 2592TIP3    H2 7741   2.438   2.724   2.789  0.4469  0.4647  1.7821
 2593TIP3   OH2 7742   4.956   3.175   2.584  0.2071  0.2552  0.3665
 2593TIP3    H1 7743   4.960   3.140   2.673  0.1281  1.0156  0.6743
 2593TIP3    H2 7744   5.031   3.235   2.579  2.1043 -2.0274 -1.0779
 2594TIP3   OH2 7745   3.425   4.151   1.803  0.3503  0.2388 -0.1946
 2594TIP3    H1 7746   3.386   4.109   1.880  0.4620 -0.9449 -0.7753
 2594TIP3    H2 7747   3.520   4.138   1.815  0.4241  0.8630 -0.0763
 2595TIP3   OH2 7748   5.778   2.404   2.476 -0.3078 -0.6466 -0.0844
 2595TIP3    H1 7749   5.701   2.402   2.533  0.3559 -0.1584  0.8599
 2595TIP3    H2 7750   5.843   2.351   2.522  0.2297 -0.2743 -0.3998
 2596TIP3   OH2 7751   4.400   2.124   0.596  0.1050 -0.1034  0.3802
 2596TIP3    H1 7752   4.396   2.093   0.687 -0.4591 -0.9778  0.0700
 2596TIP3    H2 7753   4.466   2.193   0.597 -0.9662  0.9639  1.7732
 2597TIP3   OH2 7754   3.577   1.015   2.707  0.2264  0.0540  0.3817
 2597TIP3    H1 7755   3.643   0.952   2.737  0.8654 -0.1988 -1.4354
 2597TIP3    H2 7756   3.626   1.095   2.688 -0.0741  0.0470 -0.4481
 2598TIP3   OH2 7757   0.100   4.411   3.150 -0.2192 -0.6404 -0.3500
 2598TIP3    H1 7758   0.126   4.335   3.202  0.4465 -0.2926 -0.1647
 2598TIP3    H2 7759   0.106   4.381   3.059 -1.3905 -1.2508 -0.2452
 2599TIP3   OH2 7760   1.344   2.193   4.798  0.3970 -0.2744 -0.5447
 2599TIP3    H1 7761   1.351   2.276   4.751 -1.0870 -1.5501 -3.2509
 2599TIP3    H2 7762   1.253   2.189   4.828  0.2496 -1.2017 -1.0665
 2600TIP3   OH2 7763   0.965   1.238   4.987 -0.3169 -0.4670 -0.5342
 2600TIP3    H1 7764   0.970   1.241   4.892  0.6582 -1.4811 -0.5352
 2600TIP3    H2 7765   0.929   1.151   5.007 -1.1269 -0.0210  0.0154
 2601TIP3   OH2 7766   4.556   6.688   0.849  0.1637  0.1738 -0.2010
 2601TIP3    H1 7767   4.627   6.704   0.911 -1.3236 -0.6080  1.8541
 2601TIP3    H2 7768   4.546   6.769   0.801  0.1423  1.5501  1.9859
 2602TIP3   OH2 7769   2.172   0.218   2.499  0.0851 -0.1314 -0.1946
 2602TIP3    H1 7770   2.217   0.255   2.423  2.7037 -0.1646  1.2416
 2602TIP3    H2 7771   2.130   0.293   2.541  1.4779  0.4894  0.1487
 2603TIP3   OH2 7772   4.560   0.238   0.173  0.1027 -0.1124  0.6437
 2603TIP3    H1 7773   4.470   0.260   0.199 -0.1590  1.1859 -1.1882
 2603TIP3    H2 7774   4.552   0.155   0.127 -0.5121  0.8966 -1.1709
 2604TIP3   OH2 7775   5.285   2.056   1.513 -0.1429  0.4343 -0.6377
 2604TIP3    H1 7776   5.372   2.017   1.522 -0.0627  0.6318 -0.5326
 2604TIP3    H2 7777   5.225   1.989   1.544 -0.0141  0.3555 -0.5550
 2605TIP3   OH2 7778   2.923   6.531   2.347 -0.2030 -0.3354 -0.5162
 2605TIP3    H1 7779   2.991   6.597   2.332  1.8317 -1.2036  3.3939
 2605TIP3    H2 7780   2.931   6.471   2.273  2.2423  0.4718 -1.0016
 2606TIP3   OH2 7781   3.054   0.818   2.782  0.3514 -0.1202  0.4241
 2606TIP3    H1 7782   3.102   0.814   2.699 -0.0940  1.1988  0.0798
 2606TIP3    H2 7783   3.061   0.730   2.818 -0.7405 -1.1558 -1.7415
 2607TIP3   OH2 7784   1.967   5.256   5.505 -0.6312  0.1010 -0.1386
 2607TIP3    H1 7785   1.944   5.348   5.501  0.9063  0.5051 -0.4403
 2607TIP3    H2 7786   1.949   5.223   5.417  1.4731  0.8464 -0.9254
 2608TIP3   OH2 7787   2.102   0.119   4.170  0.3322 -0.2650  0.7281
 2608TIP3    H1 7788   2.189   0.089   4.197  0.1638  0.2876  1.9273
 2608TIP3    H2 7789   2.045   0.096   4.242 -0.5579 -0.7298 -0.1091
 2609TIP3   OH2 7790   4.298   5.715   3.527 -0.0562  0.2818  0.3302
 2609TIP3    H1 7791   4.376   5.679   3.569 -0.4375  1.1269  1.8161
 2609TIP3    H2 7792   4.318   5.710   3.433  0.3693 -2.6646  0.4646
 2610TIP3   OH2 7793   2.178   2.766   3.815  0.2644  0.0618 -0.0398
 2610TIP3    H1 7794   2.084   2.749   3.808  0.1845 -0.3372  1.5754
 2610TIP3    H2 7795   2.214   2.686   3.852  1.0060  0.7702  0.8059
 2611TIP3   OH2 7796   1.897   2.894   3.454 -0.4473  0.6740  0.2535
 2611TIP3    H1 7797   1.972   2.916   3.511  1.1512 -0.7698 -1.1822
 2611TIP3    H2 7798   1.936   2.881   3.368 -2.5238  0.7232 -0.7386
 2612TIP3   OH2 7799   6.939   3.905   4.792 -0.3237  0.2560 -0.7185
 2612TIP3    H1 7800   6.903   3.971   4.851  0.3396  0.0507 -0.0745
 2612TIP3    H2 7801   6.911   3.821   4.829  1.6301  0.0325  0.4038
 2613TIP3   OH2 7802   7.098   6.747   2.783  0.0424  0.1306  0.1113
 2613TIP3    H1 7803   7.015   6.755   2.828 -0.1020 -0.8614  0.0465
 2613TIP3    H2 7804   7.158   6.805   2.831 -0.6602  0.8071  0.1865
 2614TIP3   OH2 7805   5.034   0.960   1.613  0.7593 -0.1773  0.5537
 2614TIP3    H1 7806   5.008   1.030   1.553 -0.5752 -1.0844  0.0322
 2614TIP3    H2 7807   5.103   0.999   1.666 -0.5351  1.8487  0.8785
 2615TIP3   OH2 7808   6.468   0.132   4.611 -1.3456 -0.0245 -0.3875
 2615TIP3    H1 7809   6.527   0.143   4.686 -0.2878  1.7443 -1.3955
 2615TIP3    H2 7810   6.393   0.189   4.631 -0.5530  1.3338 -1.0980
 2616TIP3   OH2 7811   4.321   2.324   4.225 -0.6994 -0.3760 -0.2086
 2616TIP3    H1 7812   4.383   2.257   4.197 -1.4657 -1.6921  1.0399
 2616TIP3    H2 7813   4.241   2.305   4.175 -1.6248 -1.8680  1.6731
 2617TIP3   OH2 7814   5.971   1.179   2.001 -0.0954  0.1937 -0.5159
 2617TIP3    H1 7815   5.936   1.267   2.017  0.5830  0.2684  0.6970
 2617TIP3    H2 7816   6.065   1.191   1.992  0.0025 -0.3979 -0.3542
 2618TIP3   OH2 7817   6.086   2.014   5.094  0.5933  0.0849  0.3988
 2618TIP3    H1 7818   6.053   2.102   5.077 -1.6538 -0.7015  0.3330
 2618TIP3    H2 7819   6.153   2.000   5.027  2.0548  2.2319  1.3110
 2619TIP3   OH2 7820   1.173   2.514   4.449  0.3631 -0.2018  0.1430
 2619TIP3    H1 7821   1.167   2.590   4.390  1.1252 -1.2515 -1.3564
 2619TIP3    H2 7822   1.116   2.448   4.409  0.9356 -0.9599  0.5588
 2620TIP3   OH2 7823   6.138   0.457   0.215  0.6192 -0.7178  0.1287
 2620TIP3    H1 7824   6.100   0.405   0.144  0.2713 -1.3636  0.7756
 2620TIP3    H2 7825   6.095   0.543   0.208 -1.4137 -1.5891  1.1729
 2621TIP3   OH2 7826   4.700   5.485   5.815 -0.0229  0.3939  0.2717
 2621TIP3    H1 7827   4.664   5.412   5.866  0.4464  1.0815  1.6011
 2621TIP3    H2 7828   4.793   5.466   5.808 -0.3847 -0.8787 -2.3492
 2622TIP3   OH2 7829   4.766   5.081   3.787  0.2181 -0.4994  0.2297
 2622TIP3    H1 7830   4.693   5.085   3.849 -0.3367  0.7334 -0.4644
 2622TIP3    H2 7831   4.841   5.114   3.835  0.0991 -0.8308  0.6456
 2623TIP3   OH2 7832   5.230   1.348   2.133  0.7544 -0.0781 -0.4210
 2623TIP3    H1 7833   5.256   1.348   2.225  0.7625  0.8453 -0.4198
 2623TIP3    H2 7834   5.303   1.305   2.088  0.4744 -1.1041  0.0622
 2624TIP3   OH2 7835   2.529   4.484   1.379 -0.1417  0.0601  0.0355
 2624TIP3    H1 7836   2.497   4.395   1.361  0.9101 -0.0227 -1.6582
 2624TIP3    H2 7837   2.452   4.540   1.367 -0.5064 -0.4884 -0.2487
 2625TIP3   OH2 7838   4.165   5.076   1.402  0.1494  0.6850 -0.0564
 2625TIP3    H1 7839   4.227   5.141   1.369  1.1834  0.8678  2.0703
 2625TIP3    H2 7840   4.147   5.103   1.492 -2.6400  0.3148 -0.4021
 2626TIP3   OH2 7841   6.235   1.087   3.397 -0.3506  0.0272  0.1570
 2626TIP3    H1 7842   6.243   1.034   3.318 -1.3129 -1.4389  0.9787
 2626TIP3    H2 7843   6.243   1.178   3.367 -1.4295 -0.4459 -1.7232
 2627TIP3   OH2 7844   4.928   4.109   2.526 -0.3020  0.7223  0.3705
 2627TIP3    H1 7845   4.993   4.071   2.585  0.4448  0.3815 -0.6611
 2627TIP3    H2 7846   4.904   4.037   2.468 -1.0249  1.0633  0.2393
 2628TIP3   OH2 7847   6.131   5.918   2.099  0.2385 -0.3274 -0.3620
 2628TIP3    H1 7848   6.102   5.836   2.138 -0.6545 -0.7176 -1.7841
 2628TIP3    H2 7849   6.169   5.968   2.172  1.7610 -2.3962  0.3548
 2629TIP3   OH2 7850   5.531   2.334   3.030 -0.1735 -0.2149 -0.2463
 2629TIP3    H1 7851   5.539   2.326   3.125  0.9083 -0.5394 -0.3411
 2629TIP3    H2 7852   5.554   2.247   2.997  0.3519  0.1353 -0.8321
 2630TIP3   OH2 7853   6.821   4.738   3.304 -0.1795 -0.0315 -0.0095
 2630TIP3    H1 7854   6.732   4.773   3.311  0.1145  0.4251  1.9036
 2630TIP3    H2 7855   6.840   4.700   3.390  1.1276 -1.0111 -0.6846
 2631TIP3   OH2 7856   0.176   0.564   5.323  0.0863 -0.0135  0.3567
 2631TIP3    H1 7857   0.237   0.529   5.258 -0.7657 -0.8334 -0.0255
 2631TIP3    H2 7858   0.130   0.487   5.356  0.9663  0.2956  2.4572
 2632TIP3   OH2 7859   4.990   1.765   2.055 -0.1647 -0.0328  0.0687
 2632TIP3    H1 7860   4.983   1.677   2.090  1.0251 -0.2174 -0.1281
 2632TIP3    H2 7861   5.021   1.818   2.128 -0.8644  0.2306  0.1839
 2633TIP3   OH2 7862   0.744   5.084   0.169  0.3083  0.0457  0.1068
 2633TIP3    H1 7863   0.698   5.096   0.252  0.0742 -0.2917  0.0255
 2633TIP3    H2 7864   0.835   5.106   0.188 -0.1000  2.0710 -0.0384
 2634TIP3   OH2 7865   5.412   1.422   5.702  0.6250  0.4523  0.1395
 2634TIP3    H1 7866   5.490   1.369   5.718  0.1178 -0.1747  0.5925
 2634TIP3    H2 7867   5.345   1.384   5.759 -0.1721  0.6198 -0.6597
 2635TIP3   OH2 7868   5.715   5.032   0.730  0.4296 -0.1039 -0.2323
 2635TIP3    H1 7869   5.774   5.089   0.681 -0.1540 -0.4985 -1.4314
 2635TIP3    H2 7870   5.632   5.036   0.682 -0.2256 -0.3556  0.8411
 2636TIP3   OH2 7871   2.385   3.035   4.767  0.2006  0.4497 -0.8502
 2636TIP3    H1 7872   2.473   3.056   4.737  0.5995  0.7054  0.4056
 2636TIP3    H2 7873   2.382   2.940   4.772  0.8755  0.4751  0.3590
 2637TIP3   OH2 7874   6.197   3.769   0.576  0.3240 -0.0630 -0.6390
 2637TIP3    H1 7875   6.198   3.833   0.648 -0.3247 -3.0054  2.2266
 2637TIP3    H2 7876   6.109   3.774   0.540  0.2794  0.6323 -0.4530
 2638TIP3   OH2 7877   1.240   1.547   5.743 -0.6343  0.0034  0.0502
 2638TIP3    H1 7878   1.235   1.606   5.667 -0.3091 -0.4743 -0.3460
 2638TIP3    H2 7879   1.240   1.459   5.705 -2.0387 -0.2918  0.6844
 2639TIP3   OH2 7880   1.385   1.928   4.718 -0.1723 -0.4549  0.6259
 2639TIP3    H1 7881   1.387   2.008   4.771 -0.9068  0.3244 -0.4749
 2639TIP3    H2 7882   1.361   1.958   4.630 -0.6039 -1.8997  0.2214
 2640TIP3   OH2 7883   0.326   6.265   3.132 -0.0563 -0.2696  0.1283
 2640TIP3    H1 7884   0.253   6.254   3.071 -0.2920  0.3212  0.2994
 2640TIP3    H2 7885   0.337   6.360   3.139 -0.8048 -0.2788  1.9137
 2641TIP3   OH2 7886   1.090   6.005   0.563  0.1353  0.2970  0.1197
 2641TIP3    H1 7887   1.101   6.038   0.652  0.0341 -1.3311  0.7569
 2641TIP3    H2 7888   1.176   5.971   0.539  0.3309  1.3032 -0.6663
 2642TIP3   OH2 7889   3.985   1.379   5.400 -0.4309 -0.1335  0.5503
 2642TIP3    H1 7890   3.961   1.394   5.308 -1.4205 -1.6127  0.5379
 2642TIP3    H2 7891   4.081   1.384   5.400 -0.3271 -1.4039 -0.8220
 2643TIP3   OH2 7892   3.471   6.228   2.127  0.2942 -0.4141  0.1843
 2643TIP3    H1 7893   3.503   6.282   2.054  0.2043  0.4425  0.7540
 2643TIP3    H2 7894   3.539   6.235   2.194  0.4692 -1.3602  0.1147
 2644TIP3   OH2 7895   2.001   4.506   0.491 -0.0952  0.3100  0.4381
 2644TIP3    H1 7896   1.933   4.572   0.477 -0.3370  0.1480  0.8425
 2644TIP3    H2 7897   2.070   4.553   0.539 -1.2406 -0.2594  2.8141
 2645TIP3   OH2 7898   5.358   6.705   4.911  0.4702  0.4386 -0.2135
 2645TIP3    H1 7899   5.439   6.693   4.862  0.5995  2.3003 -0.5347
 2645TIP3    H2 7900   5.309   6.624   4.897  2.3054 -0.7879  0.1065
 2646TIP3   OH2 7901   4.740   5.187   4.898  0.1623 -0.2359 -0.5246
 2646TIP3    H1 7902   4.756   5.146   4.814  1.2202  0.3187 -0.6069
 2646TIP3    H2 7903   4.683   5.261   4.879 -0.1030 -0.4702 -0.6535
 2647TIP3   OH2 7904   3.489   4.541   3.903  0.1794 -0.3336  0.0080
 2647TIP3    H1 7905   3.439   4.595   3.965  0.3286  0.2183 -0.3448
 2647TIP3    H2 7906   3.431   4.531   3.827 -0.0616 -1.1353  0.2831
 2648TIP3   OH2 7907   4.675   6.346   4.398  0.4766  0.1690  0.7580
 2648TIP3    H1 7908   4.652   6.380   4.484  0.7797  0.7363  0.6178
 2648TIP3    H2 7909   4.769   6.363   4.389  0.2702  0.9516 -0.0544
 2649TIP3   OH2 7910   1.615   2.753   4.656  0.0263 -0.1855  0.0138
 2649TIP3    H1 7911   1.642   2.832   4.702 -1.8072 -0.9961  2.8238
 2649TIP3    H2 7912   1.549   2.783   4.593  1.5755  0.8080 -1.2033
 2650TIP3   OH2 7913   2.750   1.407   1.577 -0.8341  0.5388  0.0623
 2650TIP3    H1 7914   2.835   1.367   1.558 -0.0316  2.5221 -0.7852
 2650TIP3    H2 7915   2.691   1.332   1.591 -0.2606 -1.2071 -4.8613
 2651TIP3   OH2 7916   6.230   3.358   2.215 -0.0752 -0.0544  0.0622
 2651TIP3    H1 7917   6.218   3.399   2.301 -0.9439 -0.1913  0.0087
 2651TIP3    H2 7918   6.226   3.264   2.232 -0.0609 -0.0860 -0.1073
 2652TIP3   OH2 7919   4.400   1.921   3.288  0.4974  0.2001 -0.2736
 2652TIP3    H1 7920   4.314   1.907   3.328  0.3320 -0.8755 -0.9635
 2652TIP3    H2 7921   4.459   1.932   3.362  0.3771 -2.7909  0.3748
 2653TIP3   OH2 7922   0.150   0.750   0.710  0.3049  0.2254  0.1008
 2653TIP3    H1 7923   0.128   0.832   0.755 -2.2283 -0.8737  1.1055
 2653TIP3    H2 7924   0.142   0.771   0.617 -0.9942  0.9974  0.3561
 2654TIP3   OH2 7925   0.962   1.540   1.860 -0.6857  0.5592 -0.3457
 2654TIP3    H1 7926   1.011   1.592   1.924  0.2010 -1.0549  0.3568
 2654TIP3    H2 7927   0.980   1.449   1.884 -1.2345 -0.1006 -2.2320
 2655TIP3   OH2 7928   6.206   0.934   0.202  0.5521  0.1267  0.1985
 2655TIP3    H1 7929   6.208   0.950   0.108 -0.2745 -0.3055  0.0974
 2655TIP3    H2 7930   6.127   0.882   0.216 -0.6435  2.1327  1.4277
 2656TIP3   OH2 7931   2.384   3.196   0.341  0.0821  0.0785 -0.0606
 2656TIP3    H1 7932   2.301   3.216   0.298  0.2368 -1.0158 -0.9095
 2656TIP3    H2 7933   2.418   3.281   0.370 -2.2708  0.3839  2.1116
 2657TIP3   OH2 7934   6.434   1.073   1.268 -0.1279  0.2393  0.0256
 2657TIP3    H1 7935   6.471   0.985   1.278  0.4087  0.5000  0.4419
 2657TIP3    H2 7936   6.460   1.119   1.349 -0.7421  0.6563 -0.0094
 2658TIP3   OH2 7937   2.553   1.023   3.706  0.0809 -0.2501  0.1546
 2658TIP3    H1 7938   2.615   0.951   3.693 -0.6811 -1.0128  0.6060
 2658TIP3    H2 7939   2.583   1.092   3.647  1.4066 -0.5622  0.4281
 2659TIP3   OH2 7940   6.051   0.126   3.310 -0.2285  0.0355 -0.1235
 2659TIP3    H1 7941   6.059   0.221   3.311 -2.3090  0.2615 -0.4082
 2659TIP3    H2 7942   6.085   0.100   3.225  1.6117  0.3500  0.4770
 2660TIP3   OH2 7943   0.976   3.572   2.020 -0.1891 -0.3140  0.2046
 2660TIP3    H1 7944   1.007   3.623   1.946 -0.0908 -1.8477 -0.8638
 2660TIP3    H2 7945   1.046   3.578   2.085 -1.1515  2.7631  1.1214
 2661TIP3   OH2 7946   2.505   2.874   5.644  0.0445  0.4910 -0.0848
 2661TIP3    H1 7947   2.564   2.801   5.661 -1.0199 -0.4104 -0.1559
 2661TIP3    H2 7948   2.459   2.888   5.727  0.6897  1.5292  0.1256
 2662TIP3   OH2 7949   5.018   5.631   3.858  0.1356 -0.0174  0.3491
 2662TIP3    H1 7950   4.938   5.608   3.811  0.0221 -0.6626  0.8348
 2662TIP3    H2 7951   5.008   5.723   3.881  0.5131  0.5088 -1.4998
 2663TIP3   OH2 7952   5.064   1.218   2.723  0.2156  0.2646  0.2514
 2663TIP3    H1 7953   5.011   1.242   2.799 -0.0099  1.7788 -0.3355
 2663TIP3    H2 7954   5.142   1.177   2.760 -0.5594 -0.3756  1.2098
 2664TIP3   OH2 7955   2.459   2.887   3.690  0.0831  0.0735  0.1385
 2664TIP3    H1 7956   2.381   2.839   3.716  0.5768 -0.8093  0.0322
 2664TIP3    H2 7957   2.512   2.823   3.641  1.1607  0.4568  0.7653
 2665TIP3   OH2 7958   1.259   3.643   3.156  0.0891 -0.1690 -0.3762
 2665TIP3    H1 7959   1.306   3.624   3.238  0.4087  1.0285 -0.2622
 2665TIP3    H2 7960   1.168   3.625   3.177  0.2658 -0.6603 -0.0038
 2666TIP3   OH2 7961   4.316   1.080   4.530 -0.2143  0.0460  0.5876
 2666TIP3    H1 7962   4.401   1.059   4.568 -0.2038 -0.3699  0.3348
 2666TIP3    H2 7963   4.295   1.006   4.473  0.6689  1.5202 -1.7792
 2667TIP3   OH2 7964   5.814   0.489   4.378  0.0474  0.1133 -0.2841
 2667TIP3    H1 7965   5.892   0.542   4.365 -1.1313  1.5652 -1.8733
 2667TIP3    H2 7966   5.759   0.539   4.438  1.3749 -2.1825  3.1809
 2668TIP3   OH2 7967   3.765   4.961   4.870  0.5685  0.0896  1.0299
 2668TIP3    H1 7968   3.838   4.904   4.845  1.5400  1.9089 -0.5570
 2668TIP3    H2 7969   3.731   4.922   4.950  2.3115 -1.6913  0.9918
 2669TIP3   OH2 7970   2.685   3.645   5.833  0.3212 -0.3494  0.0865
 2669TIP3    H1 7971   2.635   3.684   5.905  0.3198  0.8869 -0.5398
 2669TIP3    H2 7972   2.631   3.571   5.804 -1.7101  1.4945 -1.1679
 2670TIP3   OH2 7973   5.608   5.454   4.382 -0.4790  0.4382  0.5165
 2670TIP3    H1 7974   5.519   5.435   4.353  0.4151 -2.0360 -0.8887
 2670TIP3    H2 7975   5.600   5.459   4.478 -1.8609 -1.6906  0.5896
 2671TIP3   OH2 7976   2.973   6.158   4.361  0.2822 -0.4178 -0.2998
 2671TIP3    H1 7977   3.033   6.225   4.395 -1.2337  2.4154 -2.7370
 2671TIP3    H2 7978   3.008   6.135   4.275 -0.4446 -1.0499 -0.4397
 2672TIP3   OH2 7979   5.199   6.466   2.787 -0.1840 -0.1127 -0.2299
 2672TIP3    H1 7980   5.201   6.502   2.875  0.6765  1.0354 -0.6935
 2672TIP3    H2 7981   5.113   6.490   2.753  0.3730  1.5832 -0.5338
 2673TIP3   OH2 7982   1.526   0.240   3.660  0.8179 -0.3057 -0.1110
 2673TIP3    H1 7983   1.515   0.191   3.742  0.7447 -1.3528 -0.7311
 2673TIP3    H2 7984   1.529   0.173   3.592 -1.0052  0.5950 -1.1763
 2674TIP3   OH2 7985   3.276   0.368   0.104  0.3379  0.1154 -0.2540
 2674TIP3    H1 7986   3.304   0.322   0.025 -0.3991 -0.0448 -0.4246
 2674TIP3    H2 7987   3.296   0.307   0.175 -1.7194 -1.0059 -0.5745
 2675TIP3   OH2 7988   3.644   2.519   4.766  0.1080 -0.0450 -0.0197
 2675TIP3    H1 7989   3.712   2.530   4.832 -0.6425  1.5954  0.5314
 2675TIP3    H2 7990   3.688   2.531   4.682  0.6910 -0.1059  0.2757
 2676TIP3   OH2 7991   5.774   6.270   4.677  0.7070 -0.4024  0.0369
 2676TIP3    H1 7992   5.800   6.328   4.606  0.8219  0.4334  0.7528
 2676TIP3    H2 7993   5.847   6.209   4.685  0.5629 -0.6961 -0.7480
 2677TIP3   OH2 7994   2.901   4.148   1.782 -0.3189  0.6888  0.5906
 2677TIP3    H1 7995   2.983   4.135   1.734  0.2745 -0.8040  1.9076
 2677TIP3    H2 7996   2.856   4.218   1.734  1.2826  0.8939 -0.7195
 2678TIP3   OH2 7997   3.136   5.602   2.131  0.3334 -0.0159 -0.6993
 2678TIP3    H1 7998   3.057   5.651   2.153 -0.7152 -1.3353 -1.3794
 2678TIP3    H2 7999   3.154   5.550   2.209 -0.8106 -1.3905 -1.3122
 2679TIP3   OH2 8000   3.450   1.580   4.748  0.0871  0.2658  0.4138
 2679TIP3    H1 8001   3.458   1.486   4.766  0.5400 -0.1839 -1.8879
 2679TIP3    H2 8002   3.525   1.618   4.794  1.4882 -0.8770 -0.8076
 2680TIP3   OH2 8003   7.198   6.497   2.849  0.1547 -0.0964  0.0230
 2680TIP3    H1 8004   7.272   6.546   2.884  1.5363 -0.3991 -2.2512
 2680TIP3    H2 8005   7.122   6.531   2.896  1.8203 -1.0554  3.8161
 2681TIP3   OH2 8006   6.831   3.777   1.731  0.3855 -0.1246 -0.0702
 2681TIP3    H1 8007   6.908   3.832   1.716  0.7592 -0.6688 -0.1525
 2681TIP3    H2 8008   6.858   3.715   1.799 -0.6841  1.0890  1.5420
 2682TIP3   OH2 8009   4.225   4.064   0.814 -0.7350  0.4757  0.3832
 2682TIP3    H1 8010   4.244   3.987   0.760 -1.9916  0.1265  0.3981
 2682TIP3    H2 8011   4.248   4.036   0.903 -1.9585 -0.2108  0.5144
 2683TIP3   OH2 8012   2.469   2.712   1.587  0.1078 -0.2619  0.0235
 2683TIP3    H1 8013   2.414   2.767   1.644  1.1121  1.8628 -0.9383
 2683TIP3    H2 8014   2.407   2.658   1.539 -1.0098  0.5102  0.5521
 2684TIP3   OH2 8015   7.168   6.639   0.918  0.4005 -0.3398  0.0930
 2684TIP3    H1 8016   7.123   6.716   0.952 -1.5719 -1.2782 -0.2448
 2684TIP3    H2 8017   7.185   6.659   0.826 -0.3050 -0.3810 -0.0497
 2685TIP3   OH2 8018   7.210   0.381   2.148  0.5942  0.3747 -0.8564
 2685TIP3    H1 8019   7.236   0.424   2.066  1.7666  1.7058  0.1441
 2685TIP3    H2 8020   7.182   0.453   2.205  2.5836 -0.1296  0.8850
 2686TIP3   OH2 8021   3.343   1.668   5.325  0.6653 -0.2637  0.5525
 2686TIP3    H1 8022   3.387   1.610   5.262  1.9418 -0.0379  1.1911
 2686TIP3    H2 8023   3.251   1.664   5.301  0.4496 -3.7251  1.4637
 2687TIP3   OH2 8024   3.200   0.696   5.217 -0.2570  0.2836 -0.8227
 2687TIP3    H1 8025   3.270   0.653   5.167 -2.5109 -0.3586 -3.7762
 2687TIP3    H2 8026   3.174   0.770   5.163 -3.7065 -1.1867 -1.4554
 2688TIP3   OH2 8027   6.200   5.438   1.727  0.3634  0.5214  0.1548
 2688TIP3    H1 8028   6.198   5.493   1.649  0.8961 -0.4850 -0.5887
 2688TIP3    H2 8029   6.190   5.500   1.800 -1.8789  1.2992 -0.7428
 2689TIP3   OH2 8030   0.543   0.580   0.088 -0.5972 -0.1477  0.0577
 2689TIP3    H1 8031   0.594   0.513   0.043  1.0578 -0.3223  2.0440
 2689TIP3    H2 8032   0.529   0.546   0.176  2.0074  2.7527  1.8286
 2690TIP3   OH2 8033   2.235   5.308   4.115 -0.4201  0.2060  0.3546
 2690TIP3    H1 8034   2.308   5.297   4.176 -0.7837 -0.9831  0.6040
 2690TIP3    H2 8035   2.275   5.350   4.038  0.2523  0.7613  0.9846
 2691TIP3   OH2 8036   3.423   1.298   4.849 -0.6532  0.3057 -0.2193
 2691TIP3    H1 8037   3.398   1.262   4.934  1.2001  0.1713  0.3255
 2691TIP3    H2 8038   3.518   1.309   4.855 -0.5331  0.6931 -2.1334
 2692TIP3   OH2 8039   5.890   6.008   0.223  0.4341 -0.4230  0.8917
 2692TIP3    H1 8040   5.856   5.959   0.297  0.8634 -0.9397  0.7522
 2692TIP3    H2 8041   5.869   5.954   0.147  0.4153 -0.1228  0.6820
 2693TIP3   OH2 8042   0.958   0.936   3.484 -0.4000  0.0884 -0.2326
 2693TIP3    H1 8043   1.008   1.008   3.523  1.6292  0.1741 -2.7072
 2693TIP3    H2 8044   0.914   0.976   3.409 -0.6716 -0.8726 -0.5963
 2694TIP3   OH2 8045   2.888   4.648   2.709  0.1363  0.1599 -0.0810
 2694TIP3    H1 8046   2.897   4.554   2.723  0.9374  0.2599  0.1014
 2694TIP3    H2 8047   2.940   4.688   2.778 -0.6759  0.7554  0.2065
 2695TIP3   OH2 8048   0.556   6.336   1.332 -0.1153  0.2877 -0.7378
 2695TIP3    H1 8049   0.580   6.253   1.373 -0.5759 -1.2905 -3.4370
 2695TIP3    H2 8050   0.640   6.377   1.309  0.0978  0.0466 -0.3982
 2696TIP3   OH2 8051   5.266   0.660   3.365  0.0914 -0.1853  0.3364
 2696TIP3    H1 8052   5.332   0.606   3.408 -1.9928 -1.6486  1.9088
 2696TIP3    H2 8053   5.304   0.681   3.280  2.7094 -0.5924  1.3032
 2697TIP3   OH2 8054   2.894   6.634   0.611  0.2050  0.1467  0.6877
 2697TIP3    H1 8055   2.834   6.662   0.680  1.2075  0.2024  1.5764
 2697TIP3    H2 8056   2.872   6.543   0.595  0.4584 -0.1074  1.6688
 2698TIP3   OH2 8057   1.521   0.679   2.076 -0.5692 -0.0363 -0.5677
 2698TIP3    H1 8058   1.552   0.729   2.152 -1.5949 -0.4565  0.1491
 2698TIP3    H2 8059   1.561   0.593   2.087  0.5075  0.3472 -1.3418
 2699TIP3   OH2 8060   1.639   1.232   1.913 -0.0726 -0.0385 -0.4642
 2699TIP3    H1 8061   1.651   1.327   1.912  0.4614 -0.0902  0.2124
 2699TIP3    H2 8062   1.726   1.197   1.934 -0.2506 -0.6802 -0.7736
 2700TIP3   OH2 8063   7.050   4.491   2.029  0.1426  0.0184  0.4101
 2700TIP3    H1 8064   7.015   4.460   1.946 -0.8024  3.0005 -0.4183
 2700TIP3    H2 8065   7.044   4.416   2.088 -0.7005 -1.6913 -1.7552
 2701TIP3   OH2 8066   5.980   6.163   2.468 -0.3822  0.4240 -0.2198
 2701TIP3    H1 8067   5.941   6.088   2.514  0.9989  1.1432  2.2706
 2701TIP3    H2 8068   5.930   6.238   2.498  0.5114  0.9050  0.0999
 2702TIP3   OH2 8069   5.855   2.566   2.783 -0.7556  0.1375  0.2618
 2702TIP3    H1 8070   5.910   2.501   2.827 -1.2800 -0.4605  0.0357
 2702TIP3    H2 8071   5.778   2.574   2.839 -0.6890  0.5778  0.2925
 2703TIP3   OH2 8072   5.678   1.580   3.081 -0.1254 -0.1772  0.1248
 2703TIP3    H1 8073   5.689   1.609   3.172 -0.0267 -0.3844  0.1789
 2703TIP3    H2 8074   5.596   1.531   3.082 -0.0419 -0.3168  0.1359
 2704TIP3   OH2 8075   4.633   6.574   3.404 -0.1384 -0.0688 -1.2480
 2704TIP3    H1 8076   4.675   6.536   3.327  1.1335 -0.8478 -0.2220
 2704TIP3    H2 8077   4.706   6.594   3.464 -1.1233 -0.1486  0.0335
 2705TIP3   OH2 8078   1.939   6.061   5.663  0.1142 -0.4888 -0.8315
 2705TIP3    H1 8079   1.961   5.980   5.709  0.8719  0.6821  0.9725
 2705TIP3    H2 8080   1.880   6.034   5.593  1.2760 -2.7446 -1.0206
 2706TIP3   OH2 8081   0.615   5.898   1.655  0.0882  0.0460 -0.0813
 2706TIP3    H1 8082   0.608   5.990   1.683 -0.7597 -0.2580  0.7349
 2706TIP3    H2 8083   0.685   5.899   1.589 -0.3450  1.3936 -0.5666
 2707TIP3   OH2 8084   4.874   3.803   5.521  0.1814 -0.3732  0.2387
 2707TIP3    H1 8085   4.796   3.838   5.565  0.3131  1.1131 -0.6170
 2707TIP3    H2 8086   4.945   3.822   5.582  0.0731 -0.3013  0.3452
 2708TIP3   OH2 8087   0.690   6.009   5.596  0.5675 -0.4033  0.1885
 2708TIP3    H1 8088   0.668   5.933   5.543  0.5134  1.0740 -2.0327
 2708TIP3    H2 8089   0.765   6.049   5.552  2.4561 -0.6699  2.8973
 2709TIP3   OH2 8090   3.447   2.809   0.688 -0.2260 -0.2566 -0.1795
 2709TIP3    H1 8091   3.467   2.876   0.622 -1.9813  0.0568 -0.4466
 2709TIP3    H2 8092   3.517   2.818   0.752  0.7010  0.4524 -1.2410
 2710TIP3   OH2 8093   1.827   2.460   1.780  0.8234  0.6704  0.2528
 2710TIP3    H1 8094   1.799   2.529   1.840 -1.2454 -1.2723  1.7031
 2710TIP3    H2 8095   1.843   2.384   1.836  1.6300 -0.4505 -1.4052
 2711TIP3   OH2 8096   3.421   4.661   1.173  0.5849 -0.2389 -0.4909
 2711TIP3    H1 8097   3.416   4.611   1.091  2.4235  2.0290 -2.1398
 2711TIP3    H2 8098   3.386   4.747   1.151 -1.9293 -0.4570  2.0966
 2712TIP3   OH2 8099   5.160   2.124   4.434 -0.2235  0.3515  0.0279
 2712TIP3    H1 8100   5.136   2.035   4.459  0.3231  0.1076 -0.2842
 2712TIP3    H2 8101   5.082   2.160   4.392 -0.1156 -0.3515 -0.8002
 2713TIP3   OH2 8102   5.299   4.139   2.446  0.2352  0.0423 -0.0122
 2713TIP3    H1 8103   5.325   4.229   2.468  1.0890  0.2504 -1.7536
 2713TIP3    H2 8104   5.364   4.085   2.490  0.6617  0.3472 -0.2603
 2714TIP3   OH2 8105   0.662   5.542   3.200  0.7351 -0.2055 -0.1313
 2714TIP3    H1 8106   0.592   5.602   3.174 -0.2551 -0.9886  0.6584
 2714TIP3    H2 8107   0.729   5.599   3.239 -0.0504  0.4334  0.3199
 2715TIP3   OH2 8108   0.175   2.487   4.198 -0.3694  0.2008 -0.9322
 2715TIP3    H1 8109   0.198   2.417   4.259  0.0562 -0.7964 -2.2048
 2715TIP3    H2 8110   0.259   2.528   4.177  0.2629 -2.4426 -4.3709
 2716TIP3   OH2 8111   5.390   4.538   3.728  0.0315  0.0421  0.0675
 2716TIP3    H1 8112   5.333   4.552   3.804 -1.8165 -1.7949 -0.8708
 2716TIP3    H2 8113   5.333   4.552   3.652  0.8999 -1.5508 -0.9360
 2717TIP3   OH2 8114   5.399   5.582   4.014 -0.1350 -0.2934  0.3709
 2717TIP3    H1 8115   5.473   5.638   4.036  0.9430 -1.4409 -0.2281
 2717TIP3    H2 8116   5.391   5.522   4.089 -1.0302  0.3835  0.8319
 2718TIP3   OH2 8117   4.064   5.576   5.369  0.1977 -0.3558  0.1199
 2718TIP3    H1 8118   4.060   5.667   5.399 -0.0839 -0.4479  0.3631
 2718TIP3    H2 8119   4.133   5.536   5.422  1.7697  0.2314 -1.3908
 2719TIP3   OH2 8120   1.082   6.179   3.973 -0.0759 -0.5433 -0.3594
 2719TIP3    H1 8121   1.022   6.191   4.047  0.7958 -1.4632  0.5394
 2719TIP3    H2 8122   1.038   6.118   3.915 -0.3162 -0.6434 -0.0713
 2720TIP3   OH2 8123   7.165   3.002   2.954  0.5966 -1.1145  0.1262
 2720TIP3    H1 8124   7.236   3.064   2.972 -1.0418  0.9948 -0.2847
 2720TIP3    H2 8125   7.142   2.967   3.040  1.5910 -1.2207  0.3647
 2721TIP3   OH2 8126   1.619   4.732   4.094  0.0696  0.1467 -0.1552
 2721TIP3    H1 8127   1.613   4.810   4.039 -1.6441 -0.0149 -0.2585
 2721TIP3    H2 8128   1.642   4.662   4.033  1.0541  0.4593 -0.1556
 2722TIP3   OH2 8129   0.355   3.838   1.733  0.5450  0.0712  0.0135
 2722TIP3    H1 8130   0.323   3.761   1.687  0.8495 -0.3347  0.4764
 2722TIP3    H2 8131   0.341   3.910   1.671  2.0631 -0.6290 -1.2119
 2723TIP3   OH2 8132   0.184   6.410   4.146  0.0696  0.5566 -0.1035
 2723TIP3    H1 8133   0.111   6.472   4.139  1.7095  2.7251  0.8111
 2723TIP3    H2 8134   0.181   6.379   4.237 -0.3287 -0.1796 -0.3636
 2724TIP3   OH2 8135   1.624   0.147   0.100 -0.0412 -0.1285  0.0127
 2724TIP3    H1 8136   1.686   0.118   0.166  0.8821 -0.9506 -1.1808
 2724TIP3    H2 8137   1.613   0.072   0.043  0.4841  1.0745 -1.7425
 2725TIP3   OH2 8138   3.245   0.517   4.133 -0.1527 -0.2837 -0.6876
 2725TIP3    H1 8139   3.323   0.511   4.079 -0.2246  0.8393 -0.9347
 2725TIP3    H2 8140   3.256   0.598   4.183 -0.1867 -1.1738  0.8375
 2726TIP3   OH2 8141   6.239   3.805   3.063  0.1479  0.5622 -0.1713
 2726TIP3    H1 8142   6.297   3.839   3.130 -0.6680  1.2891  0.1831
 2726TIP3    H2 8143   6.150   3.820   3.097 -0.2751  0.8664 -1.3650
 2727TIP3   OH2 8144   6.515   5.888   1.250  0.1406 -0.1559  0.3171
 2727TIP3    H1 8145   6.489   5.974   1.284  0.8570  0.3322 -0.3243
 2727TIP3    H2 8146   6.579   5.855   1.314  1.4378  0.7313 -0.4790
 2728TIP3   OH2 8147   3.528   2.687   1.871  0.3158  0.1879 -0.0333
 2728TIP3    H1 8148   3.594   2.715   1.936  0.9647 -0.6639 -0.3184
 2728TIP3    H2 8149   3.445   2.704   1.914  0.6320  2.9528 -0.3274
 2729TIP3   OH2 8150   3.702   1.144   4.222  0.4895 -0.7736 -0.7849
 2729TIP3    H1 8151   3.681   1.237   4.219 -0.2613 -0.9470 -1.2672
 2729TIP3    H2 8152   3.668   1.109   4.139  2.0919 -1.2194 -1.3041
 2730TIP3   OH2 8153   5.150   2.632   1.372 -0.4055  0.2230 -0.0051
 2730TIP3    H1 8154   5.102   2.665   1.448 -1.8943 -0.4709 -0.6121
 2730TIP3    H2 8155   5.102   2.554   1.345  1.4753 -0.9215 -0.2407
 2731TIP3   OH2 8156   3.928   2.204   0.640 -0.4549  0.7215  0.0156
 2731TIP3    H1 8157   3.885   2.185   0.557  0.5593  1.1754 -0.6356
 2731TIP3    H2 8158   4.020   2.218   0.616  0.0513 -0.1595  1.3429
 2732TIP3   OH2 8159   4.613   3.881   5.646  0.1908  0.2566 -0.5226
 2732TIP3    H1 8160   4.596   3.964   5.691  0.9270  1.5299 -2.4565
 2732TIP3    H2 8161   4.543   3.874   5.582  1.0621  0.2361 -1.4855
 2733TIP3   OH2 8162   7.190   2.127   4.214  0.6651  0.4232  0.5118
 2733TIP3    H1 8163   7.143   2.044   4.224 -0.4311  1.1173  1.2613
 2733TIP3    H2 8164   7.279   2.101   4.189 -0.1022 -0.9135 -0.9736
 2734TIP3   OH2 8165   5.931   1.853   3.502  0.1578 -0.4436  0.5383
 2734TIP3    H1 8166   5.861   1.877   3.563 -2.3412 -1.7332 -1.6243
 2734TIP3    H2 8167   5.986   1.792   3.552 -1.6957 -1.3415  1.5793
 2735TIP3   OH2 8168   6.763   2.730   2.127 -0.1110 -0.1766  0.1594
 2735TIP3    H1 8169   6.752   2.800   2.191 -1.5874 -0.2449  0.0034
 2735TIP3    H2 8170   6.755   2.649   2.178  0.3474 -0.2380  0.1399
 2736TIP3   OH2 8171   1.034   2.160   1.050 -0.4328 -0.2391 -0.0544
 2736TIP3    H1 8172   1.122   2.195   1.034  0.4484 -2.8426 -1.5587
 2736TIP3    H2 8173   0.975   2.221   1.006  0.8317  0.3522 -1.0013
 2737TIP3   OH2 8174   4.178   1.261   5.834 -0.0970  0.3659  0.4861
 2737TIP3    H1 8175   4.086   1.241   5.815  0.0757 -0.7118  0.7204
 2737TIP3    H2 8176   4.192   1.227   5.922  0.3467  1.1707  0.7334
 2738TIP3   OH2 8177   6.281   0.055   3.553  0.2668  0.3220 -0.0052
 2738TIP3    H1 8178   6.270   0.145   3.523  1.0621  0.4816  0.1627
 2738TIP3    H2 8179   6.196   0.032   3.590  0.0493  0.9948 -0.0688
 2739TIP3   OH2 8180   4.718   2.484   1.807 -0.0404  0.1912  0.1245
 2739TIP3    H1 8181   4.758   2.530   1.881 -1.0599 -0.1156  0.8921
 2739TIP3    H2 8182   4.653   2.426   1.847 -0.7004  0.1066 -1.0233
 2740TIP3   OH2 8183   3.896   1.421   2.269  0.1549  0.3849  0.3013
 2740TIP3    H1 8184   3.986   1.454   2.269 -0.1251  1.2599 -1.3036
 2740TIP3    H2 8185   3.842   1.497   2.246 -0.7330 -0.6809 -1.3101
 2741TIP3   OH2 8186   1.109   0.468   3.311  0.0732 -0.1064 -0.0783
 2741TIP3    H1 8187   1.029   0.443   3.266 -0.4162  0.5148  0.4204
 2741TIP3    H2 8188   1.165   0.391   3.307 -0.9983 -0.9431  0.5527
 2742TIP3   OH2 8189   4.100   2.985   4.930  0.3846 -0.4369  0.6304
 2742TIP3    H1 8190   4.034   3.051   4.953  0.1309 -0.7449  0.7866
 2742TIP3    H2 8191   4.058   2.901   4.948 -0.8750 -0.8796 -3.3381
 2743TIP3   OH2 8192   5.634   2.338   2.240 -0.0433  0.2533 -0.1349
 2743TIP3    H1 8193   5.675   2.331   2.154  0.5573  1.6346  0.0191
 2743TIP3    H2 8194   5.707   2.325   2.301 -0.5132 -1.0151  0.1962
 2744TIP3   OH2 8195   3.173   1.529   4.962 -0.8012 -0.3845 -0.2828
 2744TIP3    H1 8196   3.257   1.508   5.004 -0.6793 -0.9817 -0.7952
 2744TIP3    H2 8197   3.179   1.622   4.942  0.6790 -0.8332 -2.2592
 2745TIP3   OH2 8198   4.193   4.262   5.203 -0.3818  0.0744  0.7486
 2745TIP3    H1 8199   4.170   4.353   5.183 -0.2311 -0.4203 -2.0248
 2745TIP3    H2 8200   4.109   4.219   5.219 -0.5083  0.4897  1.2556
 2746TIP3   OH2 8201   1.346   0.117   1.049 -0.0105 -0.1516 -0.0088
 2746TIP3    H1 8202   1.313   0.081   1.131  1.0335  0.3212  0.6344
 2746TIP3    H2 8203   1.387   0.200   1.073 -0.0771  0.2114 -1.0799
 2747TIP3   OH2 8204   6.221   1.823   3.597  0.1557 -0.3497 -0.5513
 2747TIP3    H1 8205   6.242   1.858   3.510 -1.4572  3.7122  0.4683
 2747TIP3    H2 8206   6.290   1.857   3.654 -1.2584  1.0595  0.4217
 2748TIP3   OH2 8207   5.971   1.274   5.375 -0.0660 -0.3377 -0.4635
 2748TIP3    H1 8208   5.949   1.352   5.326  0.3498  0.3226  0.3747
 2748TIP3    H2 8209   6.061   1.288   5.404 -0.4661 -0.4565  0.9164
 2749TIP3   OH2 8210   1.401   3.273   2.588 -0.4089  0.6093 -0.2593
 2749TIP3    H1 8211   1.443   3.352   2.622 -1.0908  1.4763 -1.3742
 2749TIP3    H2 8212   1.442   3.202   2.637 -0.2061  1.6804  1.2061
 2750TIP3   OH2 8213   6.475   1.715   4.167  0.4019  0.3744  0.3620
 2750TIP3    H1 8214   6.449   1.783   4.229  0.7032  0.1279  0.7643
 2750TIP3    H2 8215   6.571   1.715   4.172  0.5237  1.3866 -1.2084
 2751TIP3   OH2 8216   0.873   6.674   3.052 -0.3856 -0.3116 -0.6684
 2751TIP3    H1 8217   0.786   6.702   3.023 -0.0756  1.1949 -0.2208
 2751TIP3    H2 8218   0.933   6.715   2.991  0.1534  1.1064  0.7509
 2752TIP3   OH2 8219   4.839   3.669   2.348 -0.4138  0.6614 -0.0051
 2752TIP3    H1 8220   4.823   3.590   2.399  1.4202  0.7966  0.8606
 2752TIP3    H2 8221   4.863   3.636   2.261  1.0255  0.1962  0.5384
 2753TIP3   OH2 8222   4.288   4.639   0.987 -0.7956  0.2438  0.0188
 2753TIP3    H1 8223   4.210   4.585   1.002 -0.3523 -0.2498  0.5565
 2753TIP3    H2 8224   4.289   4.700   1.060 -1.0441  0.6983 -0.3489
 2754TIP3   OH2 8225   6.026   3.795   2.349 -0.2454 -0.2778 -0.6526
 2754TIP3    H1 8226   6.010   3.805   2.255  0.0056  0.4041 -0.6267
 2754TIP3    H2 8227   5.974   3.865   2.389  0.0899 -0.2176 -0.3273
 2755TIP3   OH2 8228   0.050   0.091   5.055  0.1628 -0.7677  0.3852
 2755TIP3    H1 8229  -0.008   0.154   5.097  3.4105  1.3804  2.1199
 2755TIP3    H2 8230   0.108   0.145   5.001  0.9101 -2.6938 -0.8307
 2756TIP3   OH2 8231   1.557   5.669   1.317 -0.6406  0.6770  0.0380
 2756TIP3    H1 8232   1.525   5.760   1.315 -0.6848  0.6596 -0.0563
 2756TIP3    H2 8233   1.513   5.627   1.244  0.1914  0.8559 -0.5887
 2757TIP3   OH2 8234   1.744   1.842   5.811  0.4385 -0.5036 -0.2718
 2757TIP3    H1 8235   1.793   1.863   5.731  0.0446 -1.1042 -0.6836
 2757TIP3    H2 8236   1.693   1.764   5.788 -0.0598 -0.3919  0.4163
 2758TIP3   OH2 8237   4.835   3.318   0.472 -0.2069 -0.2444 -0.1199
 2758TIP3    H1 8238   4.888   3.239   0.469 -0.8536 -0.7517  1.2154
 2758TIP3    H2 8239   4.750   3.291   0.439 -0.8684 -0.5041  1.7009
 2759TIP3   OH2 8240   2.614   1.946   2.710  0.4231 -0.5952 -0.0674
 2759TIP3    H1 8241   2.547   1.921   2.774  0.3512  0.3144  0.2357
 2759TIP3    H2 8242   2.670   1.869   2.703 -0.7524 -1.4583 -0.4786
 2760TIP3   OH2 8243   3.459   4.131   2.752 -0.5525  0.3113  0.4677
 2760TIP3    H1 8244   3.549   4.159   2.770 -0.3558 -0.1138  0.1582
 2760TIP3    H2 8245   3.465   4.037   2.737 -1.1975  0.1006  1.4137
 2761TIP3   OH2 8246   5.571   1.657   5.071  0.1642 -0.0073  0.3619
 2761TIP3    H1 8247   5.597   1.591   5.007 -1.4563 -1.5208  1.1990
 2761TIP3    H2 8248   5.518   1.610   5.135 -0.7444  2.0278  1.2102
 2762TIP3   OH2 8249   6.005   1.505   2.552 -0.1950  0.4995  0.4941
 2762TIP3    H1 8250   6.035   1.425   2.594 -3.1160  0.3284  2.6046
 2762TIP3    H2 8251   6.038   1.499   2.462  2.6162 -1.2846  1.5186
 2763TIP3   OH2 8252   5.452   5.657   1.915  0.9057 -0.3183 -0.2195
 2763TIP3    H1 8253   5.440   5.566   1.885  2.6626 -0.2889 -1.1470
 2763TIP3    H2 8254   5.373   5.702   1.885 -0.1450 -1.5758  0.5118
 2764TIP3   OH2 8255   4.974   2.086   0.909 -0.3518 -0.2224  0.4340
 2764TIP3    H1 8256   4.970   2.004   0.958 -0.5030 -1.5542 -1.6490
 2764TIP3    H2 8257   4.888   2.125   0.920 -1.9298 -2.6290 -2.0654
 2765TIP3   OH2 8258   6.897   0.412   0.157 -0.0815  0.0872  0.1867
 2765TIP3    H1 8259   6.871   0.326   0.122 -1.9256  1.6581 -2.6945
 2765TIP3    H2 8260   6.814   0.459   0.167  0.9625  1.8682  0.7842
 2766TIP3   OH2 8261   1.738   1.791   3.509  0.3625  0.1114  0.8652
 2766TIP3    H1 8262   1.711   1.809   3.419  1.9062 -0.2701  0.2929
 2766TIP3    H2 8263   1.666   1.824   3.563 -0.3955  0.7405 -0.4843
 2767TIP3   OH2 8264   6.903   0.378   1.656 -0.2401  0.5155  0.9152
 2767TIP3    H1 8265   6.813   0.404   1.636 -0.2859  1.7889  2.5574
 2767TIP3    H2 8266   6.950   0.461   1.669  1.4894 -0.0694 -1.0304
 2768TIP3   OH2 8267   1.601   6.372   5.779 -0.5037  0.0523  0.1956
 2768TIP3    H1 8268   1.606   6.451   5.833  0.7569  0.5535 -0.6147
 2768TIP3    H2 8269   1.522   6.383   5.727  0.7070  1.8024 -1.4030
 2769TIP3   OH2 8270   6.908   6.211   1.627 -0.2386  0.1676  0.2817
 2769TIP3    H1 8271   6.899   6.218   1.722 -0.1641 -0.4047  0.3358
 2769TIP3    H2 8272   6.822   6.235   1.593 -0.4852 -0.3434  0.5340
 2770TIP3   OH2 8273   3.659   3.007   5.026  0.0132  0.6658  1.0620
 2770TIP3    H1 8274   3.687   2.981   4.939  1.0211  2.0801  0.9341
 2770TIP3    H2 8275   3.698   2.942   5.084  1.8712  1.4062  0.6984
 2771TIP3   OH2 8276   6.716   3.504   4.758 -0.2032  0.4605  0.2232
 2771TIP3    H1 8277   6.633   3.485   4.802  0.8047 -0.6258  1.7666
 2771TIP3    H2 8278   6.709   3.459   4.673 -0.3047 -1.7578  1.3179
 2772TIP3   OH2 8279   5.622   1.262   5.744 -0.0487 -0.4315  0.2469
 2772TIP3    H1 8280   5.683   1.285   5.675  1.2285 -0.2742  1.3747
 2772TIP3    H2 8281   5.618   1.166   5.742 -1.0546 -0.3790 -0.8779
 2773TIP3   OH2 8282   6.966   2.995   4.136  0.4991 -0.2110 -0.2775
 2773TIP3    H1 8283   6.995   3.027   4.051  0.5378 -1.8037 -0.8850
 2773TIP3    H2 8284   6.874   3.021   4.141  0.7771  0.8290 -0.3211
 2774TIP3   OH2 8285   1.132   1.437   4.635  0.1692  0.1850 -0.2822
 2774TIP3    H1 8286   1.101   1.414   4.547  1.5553  0.2922 -0.8201
 2774TIP3    H2 8287   1.132   1.532   4.636 -0.3662  0.1866  0.0387
 2775TIP3   OH2 8288   4.994   1.473   2.093 -0.5957  0.5072 -0.1779
 2775TIP3    H1 8289   4.981   1.435   2.006  0.2504 -0.5214  0.1266
 2775TIP3    H2 8290   5.077   1.436   2.124 -0.1760  1.9399  0.5064
 2776TIP3   OH2 8291   5.585   2.733   3.167  0.4060 -0.5778  0.5744
 2776TIP3    H1 8292   5.547   2.789   3.235  0.6831 -0.9673  1.0640
 2776TIP3    H2 8293   5.591   2.647   3.208  1.0826 -0.6997  0.2424
 2777TIP3   OH2 8294   2.524   0.916   5.780  0.2962 -0.6282 -0.0913
 2777TIP3    H1 8295   2.447   0.970   5.763  1.6360  2.5353  2.7572
 2777TIP3    H2 8296   2.498   0.859   5.852  0.0208 -1.0444 -0.5181
 2778TIP3   OH2 8297   2.054   4.099   3.619  0.0329  0.8587 -0.3142
 2778TIP3    H1 8298   1.997   4.031   3.583 -1.0953  1.9069 -0.5828
 2778TIP3    H2 8299   1.995   4.156   3.669  0.9050  1.7687 -0.2936
 2779TIP3   OH2 8300   5.756   1.788   4.868 -0.2848 -0.3815 -0.3578
 2779TIP3    H1 8301   5.824   1.815   4.929 -0.7911 -0.2033  0.1344
 2779TIP3    H2 8302   5.715   1.712   4.910 -2.1357  1.0828  0.6382
 2780TIP3   OH2 8303   1.975   4.944   0.309  0.6037  0.3568 -0.5914
 2780TIP3    H1 8304   1.924   5.003   0.364 -0.4814 -1.8347  0.8702
 2780TIP3    H2 8305   1.954   4.972   0.219 -1.9559  0.5869 -0.0169
 2781TIP3   OH2 8306   5.784   3.991   1.555  0.2119 -0.3814  0.3340
 2781TIP3    H1 8307   5.809   3.935   1.482 -0.9305  1.0351 -1.2169
 2781TIP3    H2 8308   5.711   4.043   1.522 -0.4574  0.1940  2.5545
 2782TIP3   OH2 8309   5.228   6.013   1.011  0.3198 -0.3498 -0.2585
 2782TIP3    H1 8310   5.199   6.044   0.925  0.7750  0.0583 -0.2707
 2782TIP3    H2 8311   5.160   6.044   1.072 -0.6699 -1.7229 -0.6075
 2783TIP3   OH2 8312   6.499   0.473   1.028  0.0320 -0.3782 -0.4029
 2783TIP3    H1 8313   6.492   0.508   0.939  0.6710 -1.7598 -1.0240
 2783TIP3    H2 8314   6.418   0.502   1.072 -0.6079 -0.2480 -1.6282
 2784TIP3   OH2 8315   3.338   3.370   4.123  0.1393 -0.0713  0.1178
 2784TIP3    H1 8316   3.366   3.317   4.048 -0.5213  1.2039 -1.0862
 2784TIP3    H2 8317   3.402   3.441   4.127 -0.2383  0.2602  0.3065
 2785TIP3   OH2 8318   4.278   2.328   0.322 -0.5676  0.1106 -0.0353
 2785TIP3    H1 8319   4.345   2.360   0.382 -1.6449  1.4221  0.5173
 2785TIP3    H2 8320   4.323   2.262   0.269  1.3244  1.4002 -0.1279
 2786TIP3   OH2 8321   2.576   1.445   0.791 -0.2272  0.0002  0.0366
 2786TIP3    H1 8322   2.656   1.498   0.788  0.6994 -1.3675  0.0708
 2786TIP3    H2 8323   2.605   1.356   0.771 -1.3788 -0.9126  2.1057
 2787TIP3   OH2 8324   3.710   6.291   0.202  0.1150  0.0707  0.0317
 2787TIP3    H1 8325   3.679   6.284   0.112  1.3566  0.9917 -0.4806
 2787TIP3    H2 8326   3.682   6.209   0.243  0.1672 -0.6747 -1.3745
 2788TIP3   OH2 8327   3.197   0.779   0.488  0.0232  0.0868  0.9963
 2788TIP3    H1 8328   3.224   0.729   0.411  0.6132  0.9764  0.6122
 2788TIP3    H2 8329   3.161   0.713   0.547  0.5042 -0.7507  0.3852
 2789TIP3   OH2 8330   3.941   0.571   2.689  0.1089 -0.3035  0.1043
 2789TIP3    H1 8331   3.900   0.656   2.706 -0.7459 -0.5853 -0.4965
 2789TIP3    H2 8332   4.031   0.592   2.662 -0.4752  0.5055 -1.3189
 2790TIP3   OH2 8333   0.540   2.780   0.529  0.4522 -0.0401  0.5155
 2790TIP3    H1 8334   0.512   2.867   0.556  0.1257  0.0313 -0.0380
 2790TIP3    H2 8335   0.578   2.793   0.442 -0.8376 -0.6563 -0.1666
 2791TIP3   OH2 8336   4.838   5.841   3.897 -0.2441 -0.1928 -0.2146
 2791TIP3    H1 8337   4.813   5.771   3.836 -0.1491 -0.2347 -0.2062
 2791TIP3    H2 8338   4.837   5.920   3.843  1.7952 -0.4972 -0.7841
 2792TIP3   OH2 8339   1.688   2.023   4.629 -0.2387  0.0102 -0.2588
 2792TIP3    H1 8340   1.655   1.946   4.675 -0.3197  0.7778  1.0472
 2792TIP3    H2 8341   1.735   2.072   4.696  2.3130 -0.2871 -1.7249
 2793TIP3   OH2 8342   5.243   1.207   5.779 -0.5460  1.0253 -0.2186
 2793TIP3    H1 8343   5.283   1.125   5.750 -0.9711  1.0708 -0.9563
 2793TIP3    H2 8344   5.190   1.182   5.855  0.2695  0.8346  0.3009
 2794TIP3   OH2 8345   0.183   4.263   0.677  0.1691  0.5266 -0.5518
 2794TIP3    H1 8346   0.197   4.350   0.715 -1.9450  0.0987  1.4647
 2794TIP3    H2 8347   0.263   4.215   0.697  1.0884  1.7703 -1.0908
 2795TIP3   OH2 8348   1.738   3.122   1.452  0.6950 -0.2498  0.1290
 2795TIP3    H1 8349   1.774   3.039   1.480 -1.7150 -1.5300 -0.2790
 2795TIP3    H2 8350   1.751   3.123   1.357  0.0945 -0.5104  0.0397
 2796TIP3   OH2 8351   1.371   6.313   0.623  0.3928 -0.3787 -0.5447
 2796TIP3    H1 8352   1.435   6.369   0.579 -1.4016  0.6643 -1.9592
 2796TIP3    H2 8353   1.293   6.369   0.632 -0.7201 -1.9692  0.0116
 2797TIP3   OH2 8354   5.582   2.442   3.643  0.0357  0.1025 -0.5097
 2797TIP3    H1 8355   5.660   2.477   3.686  1.1003  0.0540 -2.3347
 2797TIP3    H2 8356   5.571   2.355   3.682  1.3875 -0.2268 -0.8099
 2798TIP3   OH2 8357   5.735   1.505   2.479  0.1228  0.7731 -0.1814
 2798TIP3    H1 8358   5.828   1.500   2.504 -0.1790 -0.8294  0.7909
 2798TIP3    H2 8359   5.731   1.457   2.396  0.2188  1.2341 -0.4585
 2799TIP3   OH2 8360   5.954   4.625   0.671 -0.0947  0.2833  0.4638
 2799TIP3    H1 8361   5.943   4.533   0.693  0.9459  0.2463  0.8947
 2799TIP3    H2 8362   5.979   4.625   0.579  1.9536 -0.0492  0.9643
 2800TIP3   OH2 8363   1.274   0.804   5.388 -0.6815  0.0213  0.0029
 2800TIP3    H1 8364   1.249   0.744   5.458  0.3831 -0.4951 -0.0452
 2800TIP3    H2 8365   1.197   0.807   5.331 -1.1821 -0.3518  0.6447
 2801TIP3   OH2 8366   4.132   1.434   1.911 -0.3099 -0.4478 -0.1150
 2801TIP3    H1 8367   4.095   1.376   1.978 -0.9377  0.7982  0.6521
 2801TIP3    H2 8368   4.057   1.469   1.865  0.0571 -0.1278 -0.4729
 2802TIP3   OH2 8369   5.559   0.453   5.490 -0.2177  0.4793  0.1902
 2802TIP3    H1 8370   5.554   0.396   5.413  1.0190  0.1290  0.3431
 2802TIP3    H2 8371   5.646   0.493   5.485 -0.1994  0.6185  1.2878
 2803TIP3   OH2 8372   1.575   4.114   4.711  0.1864 -0.2844  0.1182
 2803TIP3    H1 8373   1.566   4.127   4.617 -3.2018 -1.6840  0.1273
 2803TIP3    H2 8374   1.570   4.203   4.748  1.8025  0.3046 -0.9267
 2804TIP3   OH2 8375   6.509   5.609   0.902 -0.6742  0.5325  0.8425
 2804TIP3    H1 8376   6.512   5.700   0.934 -2.1310  0.6244  0.7751
 2804TIP3    H2 8377   6.421   5.579   0.925 -1.0701 -0.0652 -1.2889
 2805TIP3   OH2 8378   6.279   1.129   5.898  0.2157  0.2224  0.1960
 2805TIP3    H1 8379   6.269   1.220   5.928  0.6901  0.7558 -1.1767
 2805TIP3    H2 8380   6.208   1.117   5.836 -0.0448 -0.4725  0.6208
 2806TIP3   OH2 8381   4.049   6.211   1.744  0.2395 -0.6063  0.3025
 2806TIP3    H1 8382   4.101   6.291   1.754  2.9148 -2.0049 -1.3792
 2806TIP3    H2 8383   3.971   6.239   1.696 -0.1821  1.3952  2.0163
 2807TIP3   OH2 8384   5.860   4.902   1.938  0.0219 -0.3092 -0.4052
 2807TIP3    H1 8385   5.810   4.936   2.012  0.0497  0.1633 -0.6019
 2807TIP3    H2 8386   5.829   4.952   1.863  1.1920  0.3899 -0.4405
 2808TIP3   OH2 8387   4.014   1.630   1.054 -0.2109 -0.4553 -0.2676
 2808TIP3    H1 8388   4.005   1.535   1.054 -0.4997 -0.4280 -0.3215
 2808TIP3    H2 8389   3.965   1.658   0.976 -1.2574 -0.1500  0.4845
 2809TIP3   OH2 8390   0.997   5.635   1.028  0.0090 -0.3928 -0.1383
 2809TIP3    H1 8391   1.043   5.719   1.036  2.3897 -1.6872  1.1120
 2809TIP3    H2 8392   0.920   5.644   1.084 -0.1255  1.1430 -0.5254
 2810TIP3   OH2 8393   2.794   1.361   2.154  0.1180 -0.4307  0.0231
 2810TIP3    H1 8394   2.786   1.266   2.148  1.1469 -0.4870 -0.9390
 2810TIP3    H2 8395   2.729   1.394   2.092 -0.2326 -0.4978  0.3495
 2811TIP3   OH2 8396   5.267   0.624   1.602 -0.4972 -0.3250 -0.3893
 2811TIP3    H1 8397   5.358   0.613   1.629 -0.5304 -2.5061 -0.9576
 2811TIP3    H2 8398   5.269   0.695   1.538  0.5803  0.5277  0.5582
 2812TIP3   OH2 8399   1.261   3.147   2.191 -0.3852  0.4869  0.0111
 2812TIP3    H1 8400   1.259   3.147   2.095 -0.4869 -1.9864 -0.0439
 2812TIP3    H2 8401   1.203   3.219   2.216 -0.2288  1.2781 -1.7658
 2813TIP3   OH2 8402   4.794   6.736   1.015  0.1199 -0.3217  0.0143
 2813TIP3    H1 8403   4.750   6.754   1.099 -0.6210  3.7072 -1.0676
 2813TIP3    H2 8404   4.879   6.779   1.022  1.3036 -2.4109 -0.3872
 2814TIP3   OH2 8405   3.554   5.623   5.774  0.2876  1.1182  0.3744
 2814TIP3    H1 8406   3.595   5.630   5.860  1.1219 -0.8601  0.1954
 2814TIP3    H2 8407   3.624   5.641   5.712  0.5319 -0.6090  0.0974
 2815TIP3   OH2 8408   6.764   6.694   5.673  0.1345 -0.1032 -0.0190
 2815TIP3    H1 8409   6.817   6.703   5.752 -0.8548  1.1620  0.5320
 2815TIP3    H2 8410   6.679   6.663   5.705 -1.0696  2.6814 -0.2040
 2816TIP3   OH2 8411   4.449   3.263   0.850  0.8440 -0.9947 -0.0712
 2816TIP3    H1 8412   4.542   3.259   0.827  0.2995 -0.1059 -2.6874
 2816TIP3    H2 8413   4.423   3.353   0.830 -0.2749 -0.7576  2.1184
 2817TIP3   OH2 8414   4.475   4.678   5.168  0.6865 -0.7085 -0.1933
 2817TIP3    H1 8415   4.501   4.745   5.103  0.4515 -0.9681 -0.5594
 2817TIP3    H2 8416   4.381   4.690   5.178  0.8639 -0.0615  0.8013
 2818TIP3   OH2 8417   3.476   4.933   3.299  0.0400 -0.1188  0.2895
 2818TIP3    H1 8418   3.399   4.876   3.295  0.4781 -0.6568 -0.8695
 2818TIP3    H2 8419   3.529   4.897   3.370 -0.2472 -0.4173  0.3541
 2819TIP3   OH2 8420   1.509   4.106   5.083  0.5344  0.2266  0.5320
 2819TIP3    H1 8421   1.604   4.100   5.092  0.4858 -1.7140  0.0276
 2819TIP3    H2 8422   1.488   4.050   5.008 -0.9029  1.6083 -0.1675
 2820TIP3   OH2 8423   1.856   3.764   4.763 -0.2755 -0.2970 -0.0804
 2820TIP3    H1 8424   1.866   3.824   4.690 -3.9729  0.1612 -0.3868
 2820TIP3    H2 8425   1.858   3.820   4.841 -3.2788  0.3365 -0.3421
 2821TIP3   OH2 8426   4.741   4.839   3.651  0.6039 -0.4126 -0.4667
 2821TIP3    H1 8427   4.771   4.929   3.654  0.4068 -0.3596  0.3358
 2821TIP3    H2 8428   4.760   4.805   3.739  0.4716 -1.0791 -0.6906
 2822TIP3   OH2 8429   3.780   6.811   0.794  0.0030 -0.2334 -0.2767
 2822TIP3    H1 8430   3.744   6.746   0.854  0.0692 -0.4368 -0.4578
 2822TIP3    H2 8431   3.866   6.833   0.831 -0.0613 -0.1724 -0.1614
 2823TIP3   OH2 8432   6.691   2.060   0.793 -0.3364 -0.6726  0.7480
 2823TIP3    H1 8433   6.763   2.026   0.739 -1.1735 -0.8128 -0.3039
 2823TIP3    H2 8434   6.669   2.144   0.754 -1.7752 -1.3307  0.0812
 2824TIP3   OH2 8435   3.079   2.280   4.051  0.0156 -0.2144 -1.0649
 2824TIP3    H1 8436   3.135   2.357   4.041 -1.2757  0.6979 -1.4572
 2824TIP3    H2 8437   3.110   2.220   3.984  1.2308 -0.1922 -0.5676
 2825TIP3   OH2 8438   6.935   6.469   4.691  0.5834  0.3772 -0.2929
 2825TIP3    H1 8439   6.934   6.412   4.615  1.0302 -0.3688  0.2461
 2825TIP3    H2 8440   6.940   6.409   4.766 -1.2058  1.0315  0.3934
 2826TIP3   OH2 8441   0.670   5.448   0.316  0.2072  0.2339  0.1152
 2826TIP3    H1 8442   0.670   5.481   0.226 -0.0710  1.6586  0.6012
 2826TIP3    H2 8443   0.665   5.353   0.307  0.7917  0.3153 -1.3767
 2827TIP3   OH2 8444   2.580   6.201   5.200 -0.1257  0.5001  0.3960
 2827TIP3    H1 8445   2.666   6.179   5.164 -0.4456  1.6132 -1.1119
 2827TIP3    H2 8446   2.520   6.139   5.159 -0.1016 -0.1054  1.2497
 2828TIP3   OH2 8447   1.550   1.838   1.422 -0.3170 -0.3447 -0.2578
 2828TIP3    H1 8448   1.545   1.811   1.513 -2.2346  0.4586 -0.0890
 2828TIP3    H2 8449   1.617   1.907   1.421  0.5833 -1.1906  0.2910
 2829TIP3   OH2 8450   2.931   0.175   2.775 -0.0578  0.4619  0.2146
 2829TIP3    H1 8451   2.950   0.209   2.688 -0.6127  1.2245  0.3821
 2829TIP3    H2 8452   2.900   0.251   2.825  0.9939  0.1990  1.3125
 2830TIP3   OH2 8453   2.708   2.705   5.117  0.6996 -0.0199  0.2253
 2830TIP3    H1 8454   2.663   2.788   5.103 -0.5199 -0.4652  1.3124
 2830TIP3    H2 8455   2.712   2.665   5.030 -0.7678  0.1774  0.0372
 2831TIP3   OH2 8456   6.946   6.135   2.206 -0.0309  0.2665 -0.4839
 2831TIP3    H1 8457   6.866   6.174   2.241  0.2860  0.4072  0.0982
 2831TIP3    H2 8458   6.950   6.166   2.116 -0.2922  0.7973 -0.3205
 2832TIP3   OH2 8459   6.872   6.631   4.999 -0.6062  0.2978  0.1882
 2832TIP3    H1 8460   6.846   6.563   4.935  1.1599 -2.1138  1.8577
 2832TIP3    H2 8461   6.967   6.637   4.990 -0.4911  0.9278  1.5939
 2833TIP3   OH2 8462   6.319   0.852   5.599  0.3067 -0.0356  0.4975
 2833TIP3    H1 8463   6.375   0.929   5.610 -1.2618  1.6034 -1.9801
 2833TIP3    H2 8464   6.339   0.820   5.510 -1.0172 -0.8254  0.4627
 2834TIP3   OH2 8465   1.426   1.935   5.857  0.0657  0.1629 -0.3357
 2834TIP3    H1 8466   1.504   1.921   5.805  0.6022 -1.3848  0.8144
 2834TIP3    H2 8467   1.419   1.858   5.913 -0.3359  1.7947  2.0567
 2835TIP3   OH2 8468   6.905   1.515   0.976  0.0375  0.1478  0.2940
 2835TIP3    H1 8469   6.943   1.558   0.900  1.4285  0.0982  0.9244
 2835TIP3    H2 8470   6.909   1.422   0.955 -0.2692  0.1695  0.1313
 2836TIP3   OH2 8471   1.868   4.227   0.014  0.2101  1.3984 -0.6504
 2836TIP3    H1 8472   1.791   4.277  -0.013  0.5800  1.9526 -0.7112
 2836TIP3    H2 8473   1.909   4.281   0.082  0.2491  0.8525 -0.2311
 2837TIP3   OH2 8474   5.576   6.633   0.877  0.2004 -0.5660 -0.3470
 2837TIP3    H1 8475   5.519   6.556   0.878  0.4066 -0.7886 -2.1841
 2837TIP3    H2 8476   5.542   6.688   0.948 -0.3858 -2.0216  0.5575
 2838TIP3   OH2 8477   0.375   0.622   0.714  0.2336  0.0998 -0.0199
 2838TIP3    H1 8478   0.286   0.655   0.727  0.3337  1.1988 -1.7966
 2838TIP3    H2 8479   0.365   0.527   0.715 -0.8766  0.2001  0.3245
 2839TIP3   OH2 8480   6.517   2.962   5.433  0.3397 -0.2076  0.0064
 2839TIP3    H1 8481   6.608   2.992   5.429  0.5753 -0.9361 -0.1982
 2839TIP3    H2 8482   6.492   2.975   5.524  0.9145 -0.7430  0.2551
 2840TIP3   OH2 8483   2.197   1.790   5.618 -0.1751  0.4629  0.1170
 2840TIP3    H1 8484   2.199   1.813   5.711  0.0840  0.7723  0.0386
 2840TIP3    H2 8485   2.116   1.741   5.606  0.6693 -1.2490  0.9060
 2841TIP3   OH2 8486   6.238   3.531   2.944  0.5991  0.4849  0.0673
 2841TIP3    H1 8487   6.254   3.620   2.978  1.2391  0.3364  0.1740
 2841TIP3    H2 8488   6.305   3.519   2.877  0.1438  0.2946 -0.3542
 2842TIP3   OH2 8489   5.223   4.127   2.017  0.2460  0.2739  0.5258
 2842TIP3    H1 8490   5.245   4.215   1.986  0.6690  0.3235  0.9408
 2842TIP3    H2 8491   5.239   4.070   1.942 -1.2535  0.6902 -0.1473
 2843TIP3   OH2 8492   0.680   6.318   0.706 -0.2819 -0.3082 -0.1702
 2843TIP3    H1 8493   0.649   6.343   0.619 -1.4407 -0.5996  0.1333
 2843TIP3    H2 8494   0.728   6.237   0.692  2.4890  1.3459 -0.9967
 2844TIP3   OH2 8495   3.921   6.410   2.342  0.9141  0.1420  0.0381
 2844TIP3    H1 8496   3.873   6.330   2.361  1.1504  0.0662  0.3295
 2844TIP3    H2 8497   4.007   6.397   2.384  0.5771  0.9853  1.0441
 2845TIP3   OH2 8498   5.606   6.549   4.605 -0.4418 -0.6950  0.7672
 2845TIP3    H1 8499   5.515   6.580   4.603 -0.5561 -1.0769 -0.1209
 2845TIP3    H2 8500   5.612   6.487   4.533  1.1785  1.1563 -0.8274
 2846TIP3   OH2 8501   6.254   3.120   1.122 -0.2036  0.3114  0.3620
 2846TIP3    H1 8502   6.265   3.135   1.029  0.1893  1.1376  0.5293
 2846TIP3    H2 8503   6.238   3.026   1.130 -2.0389  0.4897 -0.6889
 2847TIP3   OH2 8504   0.929   5.577   0.316 -0.0324  0.4782  0.3441
 2847TIP3    H1 8505   0.926   5.636   0.392 -0.7923  0.0446  0.6640
 2847TIP3    H2 8506   0.971   5.628   0.247  2.2063  0.3505  1.5048
 2848TIP3   OH2 8507   3.452   2.617   0.068  0.6717  0.7070 -0.2082
 2848TIP3    H1 8508   3.514   2.662   0.012 -0.6633  2.5808 -0.2836
 2848TIP3    H2 8509   3.459   2.661   0.153 -0.7019  1.1732 -0.2987
 2849TIP3   OH2 8510   4.709   3.551   4.872  0.9209  0.2411  0.4089
 2849TIP3    H1 8511   4.703   3.610   4.797  0.9998  0.3952  0.5236
 2849TIP3    H2 8512   4.769   3.482   4.844 -1.1684 -1.2466 -0.7070
 2850TIP3   OH2 8513   3.747   0.492   3.894  0.5635  0.0023  0.3680
 2850TIP3    H1 8514   3.770   0.577   3.930  1.3758 -0.8874  2.0720
 2850TIP3    H2 8515   3.796   0.486   3.812 -0.0734  1.4301 -0.1585
 2851TIP3   OH2 8516   5.727   6.580   0.255  0.1673  0.5375  0.2170
 2851TIP3    H1 8517   5.774   6.500   0.231 -0.7971  0.4570 -1.6137
 2851TIP3    H2 8518   5.794   6.639   0.288  1.3033 -0.1177 -0.8464
 2852TIP3   OH2 8519   2.362   5.344   0.445 -0.3375  0.0198  0.2777
 2852TIP3    H1 8520   2.303   5.413   0.414  0.9478  2.2028  2.3113
 2852TIP3    H2 8521   2.306   5.284   0.493 -1.3550  0.1960 -0.6536
 2853TIP3   OH2 8522   4.633   3.182   3.887  0.1893  0.2636  0.1601
 2853TIP3    H1 8523   4.608   3.125   3.960  1.4609 -0.8946 -0.2615
 2853TIP3    H2 8524   4.693   3.129   3.835  0.1194  1.4352 -1.1670
 2854TIP3   OH2 8525   2.066   0.674   0.621 -0.1208  0.2474 -0.1412
 2854TIP3    H1 8526   2.021   0.636   0.545 -0.3250 -1.4076  0.7492
 2854TIP3    H2 8527   2.159   0.669   0.598 -0.2469  2.0144 -1.2419
 2855TIP3   OH2 8528   6.902   1.048   3.896  0.8332 -0.0376  0.1389
 2855TIP3    H1 8529   6.899   0.963   3.940 -0.5890 -0.1738 -0.1890
 2855TIP3    H2 8530   6.811   1.076   3.889  1.2465  1.3694 -0.0620
 2856TIP3   OH2 8531   1.761   1.182   4.619  0.2877 -0.6116  0.3382
 2856TIP3    H1 8532   1.805   1.264   4.598 -1.0477 -0.1823 -0.9857
 2856TIP3    H2 8533   1.775   1.126   4.542 -0.8067 -0.7351  0.2097
 2857TIP3   OH2 8534   0.323   3.659   5.664 -0.1467 -0.7129 -0.5357
 2857TIP3    H1 8535   0.249   3.712   5.692 -0.7625 -1.3033 -1.0125
 2857TIP3    H2 8536   0.388   3.722   5.633 -0.6991 -0.2213 -0.6965
 2858TIP3   OH2 8537   5.028   6.391   0.174  0.7710 -0.1545 -0.2914
 2858TIP3    H1 8538   5.050   6.300   0.157 -0.1873 -0.9108  2.0666
 2858TIP3    H2 8539   5.093   6.420   0.237 -0.8850 -0.3332  1.5906
 2859TIP3   OH2 8540   5.308   0.753   3.663  0.0225  0.2723  0.6025
 2859TIP3    H1 8541   5.302   0.669   3.708 -2.2879  0.1711  0.2235
 2859TIP3    H2 8542   5.282   0.734   3.573 -0.1136  1.3090  0.4087
 2860TIP3   OH2 8543   2.458   4.339   3.101  0.9008 -0.0397 -0.1539
 2860TIP3    H1 8544   2.366   4.352   3.126  0.4949 -0.3619 -1.4369
 2860TIP3    H2 8545   2.502   4.419   3.130 -0.3849  1.5586 -2.3279
 2861TIP3   OH2 8546   1.975   4.234   0.664  0.0936 -0.2824  0.0110
 2861TIP3    H1 8547   2.042   4.293   0.700 -1.7948  0.3869  2.7481
 2861TIP3    H2 8548   2.023   4.177   0.603  2.8291  1.1281  0.6909
 2862TIP3   OH2 8549   6.720   1.318   0.104 -0.6026 -0.7256 -0.2501
 2862TIP3    H1 8550   6.667   1.385   0.146  0.4536  0.0718 -0.1569
 2862TIP3    H2 8551   6.667   1.238   0.109 -1.8691  0.0947 -0.3654
 2863TIP3   OH2 8552   2.949   0.022   5.806  0.1970 -0.3256  0.3388
 2863TIP3    H1 8553   2.924  -0.069   5.787 -0.3848 -0.3776  1.2410
 2863TIP3    H2 8554   2.870   0.073   5.788  1.1426  0.3605 -2.3230
 2864TIP3   OH2 8555   1.732   4.075   0.596  0.1705 -0.4076  0.1628
 2864TIP3    H1 8556   1.657   4.135   0.592  1.9558  2.1114  1.8415
 2864TIP3    H2 8557   1.808   4.130   0.576  1.6223 -3.0148 -2.1810
 2865TIP3   OH2 8558   1.444   1.224   2.358  0.4026  0.1852  0.4268
 2865TIP3    H1 8559   1.400   1.168   2.423  0.9335  0.0433  0.6707
 2865TIP3    H2 8560   1.424   1.313   2.386 -0.1697  0.1209  0.2305
 2866TIP3   OH2 8561   0.481   3.379   1.821  0.2005  0.0307 -0.6902
 2866TIP3    H1 8562   0.424   3.359   1.894 -0.3927  0.0707 -1.1396
 2866TIP3    H2 8563   0.528   3.297   1.803 -1.9723 -0.9468 -2.3094
 2867TIP3   OH2 8564   0.436   6.324   4.158 -0.0886  0.1821 -0.5802
 2867TIP3    H1 8565   0.432   6.260   4.087 -0.3972  0.1367 -0.5196
 2867TIP3    H2 8566   0.360   6.381   4.145 -0.6948 -0.4032  0.2621
 2868TIP3   OH2 8567   2.462   5.494   2.984  0.0087 -1.1452 -0.2723
 2868TIP3    H1 8568   2.539   5.440   3.001  1.2203  0.3518 -0.7639
 2868TIP3    H2 8569   2.497   5.577   2.954 -1.5603  1.2893  3.7917
 2869TIP3   OH2 8570   2.697   5.669   0.437 -0.5091  0.1381  0.1263
 2869TIP3    H1 8571   2.645   5.651   0.359 -0.2289  2.2168 -0.6121
 2869TIP3    H2 8572   2.652   5.622   0.507 -1.1525 -1.2273 -1.1446
 2870TIP3   OH2 8573   4.132   3.716   5.789  0.0083 -0.0709 -0.0759
 2870TIP3    H1 8574   4.042   3.749   5.785 -0.7219 -1.5885  1.9904
 2870TIP3    H2 8575   4.134   3.662   5.868  2.9654  0.5099  0.3685
 2871TIP3   OH2 8576   3.479   2.593   2.463  0.1738 -0.0068 -0.4718
 2871TIP3    H1 8577   3.393   2.612   2.501  0.4676  1.1031 -0.3386
 2871TIP3    H2 8578   3.516   2.525   2.519  0.5653  1.5420  1.2441
 2872TIP3   OH2 8579   5.215   5.844   0.654 -0.5364 -0.0851 -0.2000
 2872TIP3    H1 8580   5.253   5.850   0.742 -1.9217  1.0042  0.3827
 2872TIP3    H2 8581   5.214   5.751   0.634 -0.0404 -0.3334  0.8757
 2873TIP3   OH2 8582   2.195   1.115   1.083 -0.0734  0.1402  0.2224
 2873TIP3    H1 8583   2.136   1.188   1.065  0.7469  0.2621 -2.3781
 2873TIP3    H2 8584   2.279   1.158   1.103  0.3673 -0.0444 -1.1435
 2874TIP3   OH2 8585   0.111   6.443   3.842  0.2130 -0.0998  0.1977
 2874TIP3    H1 8586   0.092   6.457   3.935  0.1252 -0.7981  0.2855
 2874TIP3    H2 8587   0.172   6.514   3.820 -1.2028  1.2011  0.3025
 2875TIP3   OH2 8588   1.215   4.949   4.019  0.6229 -0.0038  0.1321
 2875TIP3    H1 8589   1.201   4.972   4.111  0.3409  2.1414 -0.3908
 2875TIP3    H2 8590   1.308   4.930   4.013  1.0934  1.9320  0.5111
 2876TIP3   OH2 8591   6.738   2.973   0.392 -0.6599  0.2357 -0.5073
 2876TIP3    H1 8592   6.680   3.043   0.363 -1.2387 -0.7285 -1.7953
 2876TIP3    H2 8593   6.700   2.894   0.355  1.3155 -0.4744 -1.1321
 2877TIP3   OH2 8594   4.858   1.204   5.838 -0.3957 -0.7442 -0.7462
 2877TIP3    H1 8595   4.921   1.274   5.852  1.7437 -2.5932 -0.5224
 2877TIP3    H2 8596   4.777   1.235   5.879  1.1427  0.6316  1.4282
 2878TIP3   OH2 8597   1.340   6.731   3.259 -0.1549  0.2222  0.6578
 2878TIP3    H1 8598   1.396   6.798   3.300  0.0997  1.5581 -1.7068
 2878TIP3    H2 8599   1.275   6.710   3.327  1.8113  0.2784  2.6814
 2879TIP3   OH2 8600   5.017   0.655   2.048 -0.2325 -0.4315 -0.2123
 2879TIP3    H1 8601   5.021   0.725   1.983 -0.1708  0.7655  1.0161
 2879TIP3    H2 8602   5.104   0.615   2.047 -0.2303 -0.4102 -0.8399
 2880TIP3   OH2 8603   2.476   2.423   5.219  0.4764  0.6411  0.3414
 2880TIP3    H1 8604   2.510   2.339   5.251  1.8491  1.2008  0.4072
 2880TIP3    H2 8605   2.394   2.435   5.268 -0.4676 -1.2921 -0.6797
 2881TIP3   OH2 8606   5.429   3.739   0.495  0.0259 -0.1175 -0.8540
 2881TIP3    H1 8607   5.381   3.719   0.575 -0.1725  0.5278 -0.8093
 2881TIP3    H2 8608   5.489   3.665   0.484  0.1204 -0.1665 -0.0639
 2882TIP3   OH2 8609   1.579   4.786   4.577  0.5158  0.0060 -0.7530
 2882TIP3    H1 8610   1.550   4.790   4.486  0.6429  1.6054 -0.7470
 2882TIP3    H2 8611   1.649   4.721   4.576 -2.2855 -3.3246 -0.9234
 2883TIP3   OH2 8612   0.189   4.952   2.869  0.1492  0.3834 -0.7262
 2883TIP3    H1 8613   0.172   5.032   2.819 -0.0161 -0.2523 -1.7000
 2883TIP3    H2 8614   0.138   4.964   2.950 -1.5009  0.4245 -1.7142
 2884TIP3   OH2 8615   1.810   5.822   1.036 -0.1151 -0.2642 -0.3401
 2884TIP3    H1 8616   1.896   5.826   0.995 -0.2714 -1.7711 -0.8606
 2884TIP3    H2 8617   1.784   5.914   1.046  0.9982  0.1817 -1.3313
 2885TIP3   OH2 8618   6.178   3.301   0.138 -0.1939  0.4505 -0.0456
 2885TIP3    H1 8619   6.154   3.237   0.205  1.0789  0.7864  0.7717
 2885TIP3    H2 8620   6.218   3.373   0.187  0.7655  0.7136 -1.1576
 2886TIP3   OH2 8621   3.111   6.321   0.265  0.7000  0.5050 -1.1470
 2886TIP3    H1 8622   3.182   6.314   0.329  0.3960 -0.1276 -0.8625
 2886TIP3    H2 8623   3.146   6.281   0.186  1.0751  1.2825 -1.3851
 2887TIP3   OH2 8624   2.816   0.625   1.410  0.3293 -0.8807  0.3961
 2887TIP3    H1 8625   2.764   0.647   1.487 -0.6634 -2.6734  0.3010
 2887TIP3    H2 8626   2.900   0.597   1.444 -0.2819 -2.1670  0.9012
 2888TIP3   OH2 8627   5.090   4.278   3.952 -0.1560  0.3198 -0.2141
 2888TIP3    H1 8628   5.096   4.182   3.956  0.0390  0.2585 -1.5251
 2888TIP3    H2 8629   5.179   4.307   3.932 -0.3540  0.7181 -0.5402
 2889TIP3   OH2 8630   1.308   4.740   2.973 -0.5134  0.2346 -0.0508
 2889TIP3    H1 8631   1.337   4.772   3.059  0.0719 -0.0029 -0.1578
 2889TIP3    H2 8632   1.385   4.699   2.935 -0.6242  0.7869 -0.9102
 2890TIP3   OH2 8633   7.231   2.886   4.083  0.2543  0.0652  0.3686
 2890TIP3    H1 8634   7.151   2.917   4.125 -0.2141 -0.1801 -0.3212
 2890TIP3    H2 8635   7.245   2.799   4.121 -0.9101 -0.7192 -0.9187
 2891TIP3   OH2 8636   0.492   5.568   2.605  0.4529  0.2683 -0.3022
 2891TIP3    H1 8637   0.439   5.489   2.618 -0.1180  0.1819 -2.7792
 2891TIP3    H2 8638   0.581   5.541   2.625  0.2931 -1.0880 -1.2919
 2892TIP3   OH2 8639   1.182   1.548   5.272  0.0166 -0.8724  0.0769
 2892TIP3    H1 8640   1.125   1.473   5.290  0.4603 -1.2414 -0.0234
 2892TIP3    H2 8641   1.219   1.529   5.185  0.4589 -0.7492  0.2362
 2893TIP3   OH2 8642   4.612   1.958   4.349 -0.4884 -0.2160  0.3589
 2893TIP3    H1 8643   4.662   1.904   4.288  0.2382  1.5540 -0.7149
 2893TIP3    H2 8644   4.615   2.046   4.310 -2.7089  0.3588  1.3387
 2894TIP3   OH2 8645   5.567   5.299   1.038  0.1671  0.0193  0.2258
 2894TIP3    H1 8646   5.639   5.309   0.976  2.6728 -1.0037  2.7691
 2894TIP3    H2 8647   5.569   5.380   1.090 -2.2675  1.1252 -1.2133
 2895TIP3   OH2 8648   1.431   5.182   3.925  0.3885 -0.2886 -0.0478
 2895TIP3    H1 8649   1.365   5.143   3.983 -0.1061 -0.8843 -0.9980
 2895TIP3    H2 8650   1.388   5.259   3.889 -0.0379 -1.0253 -1.1560
 2896TIP3   OH2 8651   2.870   0.102   3.073 -0.1073  0.4650 -0.1345
 2896TIP3    H1 8652   2.948   0.132   3.118  0.7818 -0.5665 -0.9378
 2896TIP3    H2 8653   2.895   0.100   2.981 -1.4105  1.1017 -0.5211
 2897TIP3   OH2 8654   1.354   4.551   0.839  0.4194 -0.4994  0.3774
 2897TIP3    H1 8655   1.263   4.569   0.864  0.1825 -0.4764 -0.4660
 2897TIP3    H2 8656   1.406   4.602   0.901 -0.1298 -0.6717  1.0029
 2898TIP3   OH2 8657   1.581   4.319   4.924  0.2203 -0.2823  0.7852
 2898TIP3    H1 8658   1.562   4.244   4.979  0.0506 -1.7505 -1.1578
 2898TIP3    H2 8659   1.676   4.320   4.916  0.2266 -0.2685  0.8691
 2899TIP3   OH2 8660   2.491   4.389   5.704 -0.5989  0.8121 -0.8589
 2899TIP3    H1 8661   2.406   4.398   5.745 -1.1305 -0.8995 -1.5030
 2899TIP3    H2 8662   2.481   4.316   5.643  1.7495 -0.5191  0.2036
 2900TIP3   OH2 8663   6.936   1.619   4.285 -0.2581 -0.2768 -0.5637
 2900TIP3    H1 8664   6.932   1.576   4.370 -0.0922  0.3587 -0.2308
 2900TIP3    H2 8665   6.845   1.644   4.267 -0.7312 -2.4905 -1.6849
 2901TIP3   OH2 8666   6.393   2.618   5.253 -0.3968  0.0753  0.0350
 2901TIP3    H1 8667   6.323   2.587   5.309  0.4088 -0.8030  0.5983
 2901TIP3    H2 8668   6.350   2.673   5.187 -1.3734  0.9862  1.3955
 2902TIP3   OH2 8669   0.617   3.711   5.810  0.3397 -0.1026  0.4462
 2902TIP3    H1 8670   0.682   3.644   5.789  0.0185  0.1014 -1.3326
 2902TIP3    H2 8671   0.598   3.754   5.727 -3.1019 -1.0927  0.5548
 2903TIP3   OH2 8672   6.516   6.353   1.917  0.0808 -0.4397  0.1347
 2903TIP3    H1 8673   6.531   6.417   1.847 -0.6161  0.6330  0.9351
 2903TIP3    H2 8674   6.519   6.404   1.998 -1.1710 -1.2873  0.7464
 2904TIP3   OH2 8675   0.913   3.784   5.322 -0.3846  0.5194  0.3915
 2904TIP3    H1 8676   0.987   3.742   5.278  0.3033  2.0051  0.1054
 2904TIP3    H2 8677   0.889   3.857   5.266 -1.4999  0.5909  0.9378
 2905TIP3   OH2 8678   2.614   5.440   3.610  0.2609  0.6162 -0.0608
 2905TIP3    H1 8679   2.683   5.411   3.669  0.1117  0.6128  0.1131
 2905TIP3    H2 8680   2.646   5.417   3.522  0.2040  0.0550  0.0656
 2906TIP3   OH2 8681   5.434   3.009   4.982  0.2433 -0.0616  0.4374
 2906TIP3    H1 8682   5.493   2.943   5.018 -0.3808 -1.2906 -0.6844
 2906TIP3    H2 8683   5.367   3.021   5.049  2.1213  1.9845  2.0979
 2907TIP3   OH2 8684   2.822   3.007   4.337 -0.3401 -0.0067 -0.3556
 2907TIP3    H1 8685   2.896   2.956   4.304 -0.3807 -0.0882 -0.3211
 2907TIP3    H2 8686   2.801   3.067   4.266  1.6119  2.0445  0.6883
 2908TIP3   OH2 8687   6.808   0.174   3.856  0.4277  0.1170 -0.2368
 2908TIP3    H1 8688   6.797   0.225   3.936  0.4628  0.3230 -0.3630
 2908TIP3    H2 8689   6.796   0.237   3.785  1.2165  0.0987 -0.3912
 2909TIP3   OH2 8690   0.884   0.967   3.822 -0.2760 -0.1264 -0.5814
 2909TIP3    H1 8691   0.792   0.975   3.845 -0.3512  0.8306 -1.1993
 2909TIP3    H2 8692   0.894   0.875   3.796 -0.3638 -1.0832  2.3556
 2910TIP3   OH2 8693   2.545   3.016   0.472  0.1685  0.2106 -0.2072
 2910TIP3    H1 8694   2.477   3.076   0.441 -1.5710 -0.6487  1.7113
 2910TIP3    H2 8695   2.521   2.931   0.436  0.7292  0.0490 -0.2091
 2911TIP3   OH2 8696   5.497   0.635   2.254 -0.8108 -0.1862  0.2774
 2911TIP3    H1 8697   5.545   0.685   2.320 -2.9317  0.3493  1.5006
 2911TIP3    H2 8698   5.430   0.695   2.223 -1.2879 -1.2060 -0.7138
 2912TIP3   OH2 8699   1.038   0.168   2.941 -0.0579  0.3208 -0.0741
 2912TIP3    H1 8700   0.981   0.191   2.868  0.3913 -0.0156 -0.5392
 2912TIP3    H2 8701   1.103   0.108   2.903  0.4520  0.4962  0.4945
 2913TIP3   OH2 8702   4.145   1.621   5.544 -0.4340 -0.0938 -0.5367
 2913TIP3    H1 8703   4.165   1.540   5.590  0.4356 -0.1374 -0.9845
 2913TIP3    H2 8704   4.230   1.659   5.523 -0.8315  0.7183 -0.7109
 2914TIP3   OH2 8705   2.492   6.646   0.719 -0.4581  0.2710 -0.1004
 2914TIP3    H1 8706   2.564   6.625   0.660 -0.2807  0.7244 -0.0508
 2914TIP3    H2 8707   2.420   6.589   0.692  0.5180 -1.6001  1.0898
 2915TIP3   OH2 8708   5.825   3.981   1.834 -0.1853  0.6648  0.2365
 2915TIP3    H1 8709   5.860   3.952   1.749 -1.2201 -0.5084  0.1763
 2915TIP3    H2 8710   5.869   4.064   1.851  0.5771  0.5699 -1.1098
 2916TIP3   OH2 8711   5.267   0.292   0.795  0.3834 -0.6089  1.2852
 2916TIP3    H1 8712   5.184   0.340   0.798  0.9320  0.5786 -0.7301
 2916TIP3    H2 8713   5.258   0.232   0.721  0.5663 -2.0326  2.3723
 2917TIP3   OH2 8714   2.404   4.873   0.414  0.8228 -0.7074  0.2321
 2917TIP3    H1 8715   2.327   4.885   0.470 -0.3257  0.7993 -1.5558
 2917TIP3    H2 8716   2.417   4.778   0.412 -0.2826 -0.9220  1.4728
 2918TIP3   OH2 8717   3.303   6.645   0.729 -0.1848  0.6114 -0.2069
 2918TIP3    H1 8718   3.381   6.686   0.691 -0.9955  1.1103 -1.4000
 2918TIP3    H2 8719   3.262   6.600   0.655 -0.4318 -0.6222  0.6509
 2919TIP3   OH2 8720   0.072   5.196   0.670 -0.1079  0.1107  0.0761
 2919TIP3    H1 8721   0.129   5.131   0.713  1.6052  1.1097 -0.5651
 2919TIP3    H2 8722  -0.009   5.194   0.721  0.3656 -1.5921  0.8542
 2920TIP3   OH2 8723   6.934   5.291   1.060 -0.0596 -0.5826  0.1460
 2920TIP3    H1 8724   6.856   5.323   1.014  0.0786 -0.5396 -0.0586
 2920TIP3    H2 8725   6.922   5.320   1.150 -0.6595 -1.2450  0.2883
 2921TIP3   OH2 8726   4.836   4.245   3.842  0.0163  0.5226 -0.1784
 2921TIP3    H1 8727   4.776   4.268   3.913 -0.1301  1.1561 -0.4927
 2921TIP3    H2 8728   4.922   4.244   3.883 -0.0155  1.3163 -0.0684
 2922TIP3   OH2 8729   2.615   3.702   1.929  0.5706  0.1152 -0.9404
 2922TIP3    H1 8730   2.692   3.718   1.875  0.6186 -2.3928 -1.7134
 2922TIP3    H2 8731   2.646   3.644   1.998 -0.3858 -0.0080 -0.6019
 2923TIP3   OH2 8732   3.980   4.972   5.533 -0.1391  0.1159  0.4617
 2923TIP3    H1 8733   4.037   4.996   5.606  0.6295  1.8371 -0.6531
 2923TIP3    H2 8734   3.914   5.041   5.530 -1.2025 -0.8695  0.5748
 2924TIP3   OH2 8735   0.286   4.019   5.567 -0.3583 -0.0252 -0.3584
 2924TIP3    H1 8736   0.252   3.959   5.501  0.6210  0.1565 -1.0564
 2924TIP3    H2 8737   0.375   4.038   5.538 -0.4970  1.4226  0.0989
 2925TIP3   OH2 8738   1.681   2.161   3.328  0.0942 -0.2211 -0.3634
 2925TIP3    H1 8739   1.712   2.079   3.290  0.3475  0.3234 -1.3627
 2925TIP3    H2 8740   1.609   2.189   3.271  0.0094  0.2449 -0.0333
 2926TIP3   OH2 8741   2.096   3.399   1.261  0.5751  0.2001  0.0064
 2926TIP3    H1 8742   2.011   3.393   1.306 -0.3178  0.3086 -1.5728
 2926TIP3    H2 8743   2.146   3.325   1.296 -1.0089 -1.2682 -0.6403
 2927TIP3   OH2 8744   6.978   4.217   2.703  0.4224  0.3767  0.3661
 2927TIP3    H1 8745   6.885   4.194   2.700  0.5341  0.0379 -0.7984
 2927TIP3    H2 8746   6.978   4.310   2.724 -0.1647  0.2684  0.8740
 2928TIP3   OH2 8747   2.628   3.630   2.831 -0.1494 -0.5393  0.0764
 2928TIP3    H1 8748   2.717   3.657   2.852 -0.1503  0.2681 -0.8808
 2928TIP3    H2 8749   2.572   3.698   2.868 -0.3988 -1.1628  0.8769
 2929TIP3   OH2 8750   4.442   2.625   2.766  0.5080 -0.0153 -0.2374
 2929TIP3    H1 8751   4.515   2.572   2.732  0.8275 -0.5338  1.1792
 2929TIP3    H2 8752   4.439   2.603   2.859 -1.4895 -0.0328 -0.2712
 2930TIP3   OH2 8753   4.207   5.910   0.184 -0.3394 -0.0329  0.5977
 2930TIP3    H1 8754   4.196   5.818   0.159  0.2100  0.4392 -1.4876
 2930TIP3    H2 8755   4.301   5.920   0.196 -0.2239  0.6402 -0.7976
 2931TIP3   OH2 8756   6.452   3.178   2.842  0.3365  0.0628 -0.4176
 2931TIP3    H1 8757   6.507   3.102   2.859  0.9584  0.2082 -1.6492
 2931TIP3    H2 8758   6.435   3.216   2.928  3.6017  1.0087 -0.0470
 2932TIP3   OH2 8759   3.370   1.832   0.486 -0.4001 -0.0600  0.2248
 2932TIP3    H1 8760   3.403   1.883   0.560 -0.2192 -0.7564  0.6322
 2932TIP3    H2 8761   3.365   1.895   0.414  0.5847  0.3553  0.5038
 2933TIP3   OH2 8762   2.679   3.722   5.367  0.0659  0.7342 -0.3496
 2933TIP3    H1 8763   2.607   3.711   5.430  0.4608 -1.5363 -0.1984
 2933TIP3    H2 8764   2.736   3.788   5.407 -2.2441  3.1597 -0.8328
 2934TIP3   OH2 8765   5.803   2.229   0.323 -0.2964 -0.2778 -0.4413
 2934TIP3    H1 8766   5.816   2.187   0.238 -0.8557 -0.8214 -0.2648
 2934TIP3    H2 8767   5.725   2.283   0.312 -1.1107 -1.3191  0.0707
 2935TIP3   OH2 8768   1.456   0.510   2.381 -1.1086  0.5268 -0.9730
 2935TIP3    H1 8769   1.516   0.584   2.371 -1.2704  0.7504 -0.3249
 2935TIP3    H2 8770   1.421   0.519   2.470 -0.1221 -1.0618 -0.3774
 2936TIP3   OH2 8771   2.252   5.628   1.207  0.2848 -0.8636  0.0439
 2936TIP3    H1 8772   2.302   5.546   1.208  0.4897 -0.8268 -2.3643
 2936TIP3    H2 8773   2.316   5.694   1.181 -0.6221 -0.5481 -1.4688
 2937TIP3   OH2 8774   1.801   0.502   2.117 -0.2269  0.7351  0.4591
 2937TIP3    H1 8775   1.862   0.567   2.083  0.1782  0.5456  0.8194
 2937TIP3    H2 8776   1.837   0.477   2.202 -0.2332 -0.1671  0.2037
 2938TIP3   OH2 8777   7.051   3.848   0.068 -0.2320  0.0452  0.2553
 2938TIP3    H1 8778   7.081   3.849   0.159 -0.0190 -1.4232  0.2282
 2938TIP3    H2 8779   7.015   3.760   0.055  0.3106  0.0084 -1.2486
 2939TIP3   OH2 8780   3.821   5.641   1.921  0.2640 -0.1937  0.1224
 2939TIP3    H1 8781   3.806   5.622   2.013 -1.3778  3.1381  0.6957
 2939TIP3    H2 8782   3.846   5.734   1.919  1.1296 -0.3809 -2.7310
 2940TIP3   OH2 8783   3.134   5.207   1.923 -0.2437 -0.1116  0.0026
 2940TIP3    H1 8784   3.127   5.297   1.890  2.5968  0.9985  2.0075
 2940TIP3    H2 8785   3.176   5.159   1.853  0.6682  0.8249 -0.1227
 2941TIP3   OH2 8786   7.155   1.616   5.720 -0.3175  0.6045 -0.4848
 2941TIP3    H1 8787   7.223   1.548   5.727 -2.2246 -1.3224  0.2648
 2941TIP3    H2 8788   7.201   1.697   5.738  1.8484 -0.5876 -0.2661
 2942TIP3   OH2 8789   4.121   2.588   5.564  0.7218  0.3286 -0.0338
 2942TIP3    H1 8790   4.059   2.622   5.628  1.4878 -0.4055  1.1429
 2942TIP3    H2 8791   4.124   2.494   5.581  2.6591  0.4282  0.4231
 2943TIP3   OH2 8792   5.987   3.301   3.709 -0.1169 -0.2440 -0.2443
 2943TIP3    H1 8793   5.899   3.326   3.679 -0.6737 -0.0191  1.4898
 2943TIP3    H2 8794   6.040   3.301   3.629 -1.5645  0.1327 -1.2514
 2944TIP3   OH2 8795   4.707   2.608   1.548 -0.1705  0.1711  0.5803
 2944TIP3    H1 8796   4.705   2.522   1.589 -3.0700 -0.1703 -0.0479
 2944TIP3    H2 8797   4.675   2.668   1.616 -0.3913  0.3664  0.3091
 2945TIP3   OH2 8798   5.129   5.027   2.900 -0.5477  0.6924  0.5668
 2945TIP3    H1 8799   5.143   5.113   2.860 -0.0964  0.4596  0.2134
 2945TIP3    H2 8800   5.051   5.039   2.955 -0.9635  1.1141 -0.0940
 2946TIP3   OH2 8801   4.545   5.309   3.727 -0.4434 -0.0667  0.6624
 2946TIP3    H1 8802   4.545   5.327   3.633 -1.1483 -1.5552  0.3467
 2946TIP3    H2 8803   4.637   5.313   3.753 -0.3109  0.9988  0.0495
 2947TIP3   OH2 8804   1.212   4.558   1.327  0.2322 -0.0782 -0.5836
 2947TIP3    H1 8805   1.195   4.464   1.321 -0.1132 -0.1452  1.0830
 2947TIP3    H2 8806   1.135   4.594   1.372 -0.1115  1.1767 -2.0776
 2948TIP3   OH2 8807   4.161   3.943   4.027  0.6661  0.0846  0.5778
 2948TIP3    H1 8808   4.248   3.934   4.065  0.7080 -1.1509  0.2262
 2948TIP3    H2 8809   4.101   3.913   4.095  0.7533 -2.3230 -0.3200
 2949TIP3   OH2 8810   0.237   1.090   4.154 -0.0640  0.1029  0.1542
 2949TIP3    H1 8811   0.165   1.121   4.208  0.2254  1.5266 -0.2334
 2949TIP3    H2 8812   0.280   1.170   4.122 -1.4860 -0.5184 -3.9386
 2950TIP3   OH2 8813   6.310   1.752   2.791 -0.3162  0.7184 -0.1989
 2950TIP3    H1 8814   6.289   1.803   2.712 -1.4861 -0.5136 -0.7296
 2950TIP3    H2 8815   6.405   1.743   2.789 -0.1794  2.0140 -0.6199
 2951TIP3   OH2 8816   0.903   0.566   0.371 -0.5104 -0.1162  0.4850
 2951TIP3    H1 8817   0.993   0.543   0.394 -0.2452  0.3919 -0.0291
 2951TIP3    H2 8818   0.851   0.536   0.446  0.3707  1.8490  1.9742
 2952TIP3   OH2 8819   2.422   2.745   4.709  0.3064 -1.0296 -0.6113
 2952TIP3    H1 8820   2.512   2.776   4.703 -0.2036  0.3188 -1.9030
 2952TIP3    H2 8821   2.415   2.675   4.644 -0.0263  0.1165 -1.8515
 2953TIP3   OH2 8822   3.177   3.289   3.235  0.0272  0.2777  0.1346
 2953TIP3    H1 8823   3.241   3.360   3.224 -1.6407  1.9541  0.8045
 2953TIP3    H2 8824   3.228   3.218   3.274  1.3382  1.8251  1.4093
 2954TIP3   OH2 8825   2.871   5.673   3.813  0.0783 -0.1530 -0.8869
 2954TIP3    H1 8826   2.876   5.630   3.728  0.5988  0.0448 -0.9580
 2954TIP3    H2 8827   2.920   5.754   3.802 -2.5890  1.5262 -1.3946
 2955TIP3   OH2 8828   2.034   6.425   2.287  0.0879  0.2256  0.0055
 2955TIP3    H1 8829   1.945   6.424   2.321  0.5573 -1.1613  1.2916
 2955TIP3    H2 8830   2.084   6.475   2.351  0.2937  0.8583 -0.6280
 2956TIP3   OH2 8831   1.028   2.988   4.764 -0.1455 -0.4063  0.1999
 2956TIP3    H1 8832   1.102   2.943   4.722  0.5519  0.8141  0.0862
 2956TIP3    H2 8833   1.019   2.945   4.849  0.5704 -0.6881  0.1385
 2957TIP3   OH2 8834   1.551   4.799   3.723 -0.5956 -0.2956  0.1855
 2957TIP3    H1 8835   1.599   4.720   3.748  0.4297 -1.1696 -3.8280
 2957TIP3    H2 8836   1.619   4.860   3.693 -1.6202 -0.4279 -2.7606
 2958TIP3   OH2 8837   6.752   6.292   4.173 -0.1688 -0.0973 -0.3586
 2958TIP3    H1 8838   6.804   6.245   4.238 -0.7702  1.8469  1.6496
 2958TIP3    H2 8839   6.665   6.252   4.179  0.0395 -0.6358 -0.7902
 2959TIP3   OH2 8840   3.497   0.772   5.848  0.1793  0.0277  0.2871
 2959TIP3    H1 8841   3.469   0.681   5.850  0.1270  0.0480  0.4899
 2959TIP3    H2 8842   3.569   0.776   5.910  1.3375 -0.2544 -0.9873
 2960TIP3   OH2 8843   5.321   5.118   0.112  0.0270 -0.1367  0.0729
 2960TIP3    H1 8844   5.318   5.107   0.017 -0.7390  0.3178  0.0382
 2960TIP3    H2 8845   5.411   5.149   0.129 -0.0858  0.6150 -0.6074
 2961TIP3   OH2 8846   5.803   2.522   3.758 -0.2521  0.0318 -0.0153
 2961TIP3    H1 8847   5.824   2.609   3.725 -0.7531 -0.3650 -1.4521
 2961TIP3    H2 8848   5.874   2.501   3.818 -0.2896  1.5447  0.6114
 2962TIP3   OH2 8849   3.022   3.769   4.016  0.4676  0.0960  0.1885
 2962TIP3    H1 8850   3.092   3.737   3.959  0.1021  1.4760 -1.1136
 2962TIP3    H2 8851   3.067   3.819   4.084  0.8328 -0.5793  0.4566
 2963TIP3   OH2 8852   2.339   1.520   1.064 -0.0327 -0.4943 -0.2526
 2963TIP3    H1 8853   2.251   1.552   1.085 -0.2612 -1.1731 -0.1670
 2963TIP3    H2 8854   2.397   1.568   1.124 -0.3213  0.0680 -0.4142
 2964TIP3   OH2 8855   1.889   1.201   4.287  0.4858 -0.1145  0.3119
 2964TIP3    H1 8856   1.952   1.264   4.323  0.6384  0.2737 -0.5914
 2964TIP3    H2 8857   1.944   1.129   4.255  0.4013 -0.1658  0.2821
 2965TIP3   OH2 8858   2.127   4.924   5.319  0.5381 -0.1967 -0.5519
 2965TIP3    H1 8859   2.113   4.938   5.413 -1.9101  0.7309 -0.9658
 2965TIP3    H2 8860   2.199   4.984   5.296 -1.6768  2.9637  0.0282
 2966TIP3   OH2 8861   5.576   3.869   0.182  0.2632  0.3958  0.4087
 2966TIP3    H1 8862   5.561   3.776   0.166 -0.8916  0.8294 -1.2717
 2966TIP3    H2 8863   5.490   3.903   0.207  0.4236  1.2288 -0.1463
 2967TIP3   OH2 8864   5.167   4.487   1.326  0.0029 -0.2473 -0.2596
 2967TIP3    H1 8865   5.184   4.393   1.333  1.2736 -0.1124 -1.0718
 2967TIP3    H2 8866   5.116   4.496   1.245  0.3913 -0.2030 -0.5064
 2968TIP3   OH2 8867   1.067   1.110   3.678 -0.2776  0.1043  0.2980
 2968TIP3    H1 8868   1.154   1.096   3.717 -0.1712  0.2119  0.0991
 2968TIP3    H2 8869   1.006   1.076   3.743 -0.0304 -1.0347 -0.0426
 2969TIP3   OH2 8870   1.014   1.283   1.611 -0.5907 -0.4252  0.1305
 2969TIP3    H1 8871   0.950   1.354   1.599  0.4682  1.2863  3.2771
 2969TIP3    H2 8872   0.964   1.213   1.653 -1.1153 -0.5069 -0.6209
 2970TIP3   OH2 8873   4.456   3.363   4.737  0.3883  1.1201 -0.0958
 2970TIP3    H1 8874   4.526   3.302   4.760 -0.0849  0.2918 -0.8324
 2970TIP3    H2 8875   4.375   3.319   4.763  0.1280  2.2657  1.1831
 2971TIP3   OH2 8876   2.771   6.045   0.113 -0.1117  0.1916 -0.4613
 2971TIP3    H1 8877   2.847   5.988   0.117 -0.5802 -0.4482 -0.5436
 2971TIP3    H2 8878   2.806   6.130   0.087  0.6290  0.0196 -0.0589
 2972TIP3   OH2 8879   6.454   0.872   2.606 -0.4385 -0.2864  0.6860
 2972TIP3    H1 8880   6.448   0.849   2.699 -0.2061  0.1436  0.8087
 2972TIP3    H2 8881   6.465   0.788   2.562 -3.2941 -0.8181  0.7738
 2973TIP3   OH2 8882   6.725   3.422   5.658  0.3816  0.0302  0.5299
 2973TIP3    H1 8883   6.720   3.514   5.684 -0.2231 -0.5134  2.4711
 2973TIP3    H2 8884   6.813   3.396   5.685  0.3402 -0.1101  0.5255
 2974TIP3   OH2 8885   6.103   4.980   1.316  0.1905  0.4195 -0.3102
 2974TIP3    H1 8886   6.029   5.038   1.300 -0.7192 -0.9523 -1.2768
 2974TIP3    H2 8887   6.113   4.930   1.234  0.7900 -0.9388  0.5535
 2975TIP3   OH2 8888   0.070   1.560   0.392  0.1430  0.3179 -0.2514
 2975TIP3    H1 8889   0.082   1.466   0.398 -1.0823  0.1315 -0.5357
 2975TIP3    H2 8890  -0.005   1.579   0.449  1.3438  1.3537  1.0787
 2976TIP3   OH2 8891   5.262   1.673   0.071  0.2795 -0.5772 -0.5305
 2976TIP3    H1 8892   5.273   1.729   0.149 -0.5599 -0.0992 -0.7383
 2976TIP3    H2 8893   5.299   1.725  -0.000  0.2510 -0.6396 -0.5902
 2977TIP3   OH2 8894   4.172   1.963   4.465  0.2047 -0.0339  0.5513
 2977TIP3    H1 8895   4.100   2.018   4.433  0.1498 -0.9106 -0.9120
 2977TIP3    H2 8896   4.148   1.941   4.555  0.7311  3.1531  1.5836
 2978TIP3   OH2 8897   3.459   2.033   1.960 -0.4330 -0.2543 -0.1434
 2978TIP3    H1 8898   3.521   2.094   1.920 -0.4267  0.7715  1.3602
 2978TIP3    H2 8899   3.374   2.076   1.952 -0.4122  0.0351  1.0217
 2979TIP3   OH2 8900   5.615   6.196   3.774  0.1614 -0.4598 -0.0248
 2979TIP3    H1 8901   5.627   6.276   3.723  1.7156 -0.4728  0.2845
 2979TIP3    H2 8902   5.522   6.176   3.765 -0.2269  1.2943 -0.2307
 2980TIP3   OH2 8903   5.425   3.565   2.148 -0.0458 -0.2847 -0.7424
 2980TIP3    H1 8904   5.338   3.604   2.136 -0.5815 -0.9657  0.7313
 2980TIP3    H2 8905   5.415   3.506   2.222  0.7583 -3.1124 -2.6993
 2981TIP3   OH2 8906   0.140   4.797   0.722 -0.0268  0.0632  0.2580
 2981TIP3    H1 8907   0.168   4.820   0.634  0.8431  1.1169  0.7825
 2981TIP3    H2 8908   0.181   4.863   0.779 -1.2031 -0.1073  1.3726
 2982TIP3   OH2 8909   0.728   5.124   3.002 -0.1923  0.2003 -0.2985
 2982TIP3    H1 8910   0.731   5.032   3.028 -2.3147  0.3531  0.7089
 2982TIP3    H2 8911   0.635   5.141   2.988  0.1709  2.1948 -0.4903
 2983TIP3   OH2 8912   1.255   0.508   2.598 -0.6064  0.3182  0.1536
 2983TIP3    H1 8913   1.237   0.601   2.581 -1.2494  0.3145  0.7990
 2983TIP3    H2 8914   1.301   0.507   2.682 -0.7834  0.0369  0.2495
 2984TIP3   OH2 8915   3.342   3.369   1.912  0.3348  0.3793 -0.3805
 2984TIP3    H1 8916   3.406   3.429   1.951  2.6020 -1.5289 -0.9530
 2984TIP3    H2 8917   3.330   3.402   1.823  1.4077  0.1693 -0.6245
 2985TIP3   OH2 8918   1.975   3.467   0.194 -0.2465 -0.6491  0.1989
 2985TIP3    H1 8919   1.934   3.506   0.117  0.4109  0.5197  0.4195
 2985TIP3    H2 8920   1.902   3.439   0.249 -0.7691  1.1905  0.4796
 2986TIP3   OH2 8921   6.022   1.310   2.309 -0.3378 -0.2446 -0.3469
 2986TIP3    H1 8922   6.014   1.380   2.244 -0.0500  1.0256  0.9215
 2986TIP3    H2 8923   5.932   1.288   2.332 -0.4328 -0.2651 -0.7412
 2987TIP3   OH2 8924   1.286   1.854   1.657 -0.5365  0.6595  0.3270
 2987TIP3    H1 8925   1.316   1.906   1.731 -2.1942 -0.0215  1.5246
 2987TIP3    H2 8926   1.248   1.918   1.596  2.3146  1.4300 -0.8185
 2988TIP3   OH2 8927   1.690   0.446   3.547  0.2551 -0.3150  0.7964
 2988TIP3    H1 8928   1.644   0.379   3.598  0.0096 -2.2864 -1.7738
 2988TIP3    H2 8929   1.621   0.491   3.499  0.5815  0.5871  1.1599
 2989TIP3   OH2 8930   5.285   6.742   0.240 -0.1123 -0.7203 -0.5525
 2989TIP3    H1 8931   5.365   6.689   0.242 -0.3330 -1.0377  0.0442
 2989TIP3    H2 8932   5.315   6.831   0.226  0.3296 -0.8747 -0.5895
 2990TIP3   OH2 8933   2.065   2.731   1.968 -0.1520  0.3680 -0.0916
 2990TIP3    H1 8934   1.996   2.683   1.922  0.0752  0.5234 -0.6068
 2990TIP3    H2 8935   2.068   2.816   1.924  0.8409  0.1114 -0.5436
 2991TIP3   OH2 8936   5.737   6.141   1.901 -0.3019 -0.0039  0.1459
 2991TIP3    H1 8937   5.659   6.087   1.886 -1.0975  0.3236  2.6823
 2991TIP3    H2 8938   5.718   6.222   1.852 -1.3277 -0.1261  0.3045
 2992TIP3   OH2 8939   3.031   3.535   4.544 -0.8093  0.6062 -1.0031
 2992TIP3    H1 8940   3.094   3.606   4.554 -2.0238  1.4788  0.8699
 2992TIP3    H2 8941   3.070   3.462   4.592 -1.1741  1.1460  0.1598
 2993TIP3   OH2 8942   1.287   4.535   5.063  0.3869  0.2526 -0.3521
 2993TIP3    H1 8943   1.251   4.624   5.058 -1.8148 -0.4708  1.2253
 2993TIP3    H2 8944   1.243   4.487   4.993 -0.1406 -0.1452  0.2535
 2994TIP3   OH2 8945   3.845   5.619   1.635  0.0356 -0.2486  0.0147
 2994TIP3    H1 8946   3.828   5.710   1.611 -3.5766 -1.2094 -1.8256
 2994TIP3    H2 8947   3.793   5.604   1.714  1.6500 -0.4479  1.0871
 2995TIP3   OH2 8948   1.966   5.799   3.494 -0.9552  0.0371  0.4212
 2995TIP3    H1 8949   2.034   5.746   3.537  0.0362  2.3619  1.9604
 2995TIP3    H2 8950   1.977   5.782   3.401  1.4404 -0.0594  0.6683
 2996TIP3   OH2 8951   1.180   4.329   0.072  0.1472  0.4153 -0.3094
 2996TIP3    H1 8952   1.163   4.264   0.003  0.7417  0.2432 -0.2966
 2996TIP3    H2 8953   1.106   4.390   0.066 -1.0312 -0.8608  0.3935
 2997TIP3   OH2 8954   2.158   0.470   0.896 -0.0667  0.6364  0.0735
 2997TIP3    H1 8955   2.073   0.427   0.895  1.2349 -2.0896 -0.8733
 2997TIP3    H2 8956   2.151   0.537   0.828 -1.2934  0.1521 -0.3144
 2998TIP3   OH2 8957   5.009   6.754   3.919 -0.2057 -0.1464  0.5798
 2998TIP3    H1 8958   4.994   6.776   3.827  0.8324  0.5691  0.5561
 2998TIP3    H2 8959   4.979   6.831   3.967 -1.1787 -0.7050  0.8864
 2999TIP3   OH2 8960   2.905   5.110   5.392 -0.6603  0.1496 -0.4235
 2999TIP3    H1 8961   2.952   5.174   5.338 -1.3341  0.5776 -0.5076
 2999TIP3    H2 8962   2.873   5.161   5.467 -1.0120 -0.1349 -0.3789
 3000TIP3   OH2 8963   5.736   3.159   2.751 -0.1672 -0.4520 -0.2961
 3000TIP3    H1 8964   5.782   3.080   2.778  0.5555  0.8011  2.5518
 3000TIP3    H2 8965   5.650   3.152   2.793  0.1926  0.5947  0.6534
 3001TIP3   OH2 8966   6.605   4.352   3.957 -0.2683  0.0720 -0.0264
 3001TIP3    H1 8967   6.649   4.365   4.041  1.5764  1.2170 -1.1083
 3001TIP3    H2 8968   6.638   4.268   3.925  0.5751  0.5525 -0.4657
 3002TIP3   OH2 8969   0.936   2.425   3.860  0.0371 -0.2171  0.2986
 3002TIP3    H1 8970   0.859   2.463   3.902 -0.5038 -1.4747  0.4848
 3002TIP3    H2 8971   0.912   2.334   3.843  1.7081 -0.8279  0.9489
 3003TIP3   OH2 8972   0.604   5.672   2.368 -0.4199 -0.0500  0.3082
 3003TIP3    H1 8973   0.527   5.620   2.390 -1.7748  0.9553 -1.7531
 3003TIP3    H2 8974   0.659   5.669   2.447 -2.9494 -0.0769  2.1670
 3004TIP3   OH2 8975   1.933   6.804   5.294  0.5830  0.5758 -0.5663
 3004TIP3    H1 8976   1.932   6.709   5.287 -1.6733  0.5814 -0.8973
 3004TIP3    H2 8977   1.941   6.835   5.204 -2.5515  0.6275 -0.9359
 3005TIP3   OH2 8978   0.124   0.949   3.744 -0.4440  0.1746  0.0820
 3005TIP3    H1 8979   0.134   1.037   3.781  1.0100  0.7258 -1.4855
 3005TIP3    H2 8980   0.048   0.913   3.789 -0.1777  1.6581  1.8478
 3006TIP3   OH2 8981   5.602   2.225   3.287 -0.6312  0.4751 -0.4826
 3006TIP3    H1 8982   5.553   2.143   3.292 -0.6493  0.4773 -0.6172
 3006TIP3    H2 8983   5.689   2.202   3.320 -1.2677  0.9280  1.6537
 3007TIP3   OH2 8984   1.481   1.858   2.667 -0.0519 -0.1943  0.5860
 3007TIP3    H1 8985   1.539   1.911   2.612  0.0612 -1.0331 -0.1234
 3007TIP3    H2 8986   1.484   1.771   2.628  0.9036 -1.1127  2.5587
 3008TIP3   OH2 8987   0.863   5.920   4.164  0.6607  0.4034 -0.8412
 3008TIP3    H1 8988   0.951   5.921   4.201  0.2071 -2.9816  0.7312
 3008TIP3    H2 8989   0.863   5.845   4.104 -0.3837  2.1669 -3.2591
 3009TIP3   OH2 8990   7.032   1.662   0.789  0.0233  0.1978 -0.4535
 3009TIP3    H1 8991   7.081   1.730   0.835  0.5622 -0.7100  0.3616
 3009TIP3    H2 8992   7.068   1.662   0.700  0.8729  0.1626 -0.1170
 3010TIP3   OH2 8993   1.355   3.636   0.521  0.1672 -0.0816  0.3152
 3010TIP3    H1 8994   1.395   3.718   0.491 -0.3273  0.3897  0.9263
 3010TIP3    H2 8995   1.288   3.663   0.583 -1.2733 -0.8450 -0.8439
 3011TIP3   OH2 8996   5.370   0.670   4.261  0.6579  0.6464  0.1949
 3011TIP3    H1 8997   5.421   0.689   4.182  0.8801  1.0317  0.4239
 3011TIP3    H2 8998   5.325   0.753   4.281  0.6697  0.5777  0.5164
 3012TIP3   OH2 8999   3.145   5.235   3.782 -0.5134 -0.3940  0.8742
 3012TIP3    H1 9000   3.108   5.273   3.862  2.0134  0.5870  1.6719
 3012TIP3    H2 9001   3.216   5.294   3.758  0.0641 -1.7594 -0.9876
 3013TIP3   OH2 9002   5.041   1.090   2.129  0.7572 -0.5981 -0.1648
 3013TIP3    H1 9003   5.070   1.127   2.046 -1.3381  0.3816 -0.5249
 3013TIP3    H2 9004   5.061   1.157   2.194  0.8291 -0.6517 -0.1300
 3014TIP3   OH2 9005   5.065   4.333   1.897 -0.4558  0.4103 -0.0731
 3014TIP3    H1 9006   5.000   4.369   1.958 -0.0459  1.6199 -0.3308
 3014TIP3    H2 9007   5.144   4.385   1.912 -0.0952  0.1598 -1.0488
 3015TIP3   OH2 9008   5.353   4.804   4.694 -0.3656 -0.1045 -0.4760
 3015TIP3    H1 9009   5.339   4.881   4.750 -0.4345  1.0891 -2.0571
 3015TIP3    H2 9010   5.265   4.773   4.674 -0.3601 -0.1324 -0.4565
 3016TIP3   OH2 9011   0.459   1.694   3.047 -0.1394  0.6591  0.5565
 3016TIP3    H1 9012   0.374   1.738   3.056 -1.5910 -1.5776 -1.1734
 3016TIP3    H2 9013   0.499   1.701   3.133 -1.7131  2.4433  1.2106
 3017TIP3   OH2 9014   0.136   0.433   1.695 -0.4532 -0.0850  0.3916
 3017TIP3    H1 9015   0.098   0.511   1.655  0.3625  0.6067  0.9468
 3017TIP3    H2 9016   0.204   0.466   1.753  0.4479 -1.2562  0.0255
 3018TIP3   OH2 9017   6.737   0.891   0.132  0.1636 -0.4089 -0.8333
 3018TIP3    H1 9018   6.679   0.941   0.074 -0.3750 -1.5996 -1.3493
 3018TIP3    H2 9019   6.680   0.862   0.203 -0.0347 -2.0698 -1.6369
 3019TIP3   OH2 9020   3.285   6.756   4.933  0.6361 -0.0026  0.4996
 3019TIP3    H1 9021   3.292   6.676   4.985 -2.0075 -0.5962  0.0867
 3019TIP3    H2 9022   3.208   6.741   4.877 -0.4043  3.0843  0.9236
 3020TIP3   OH2 9023   1.939   3.221   4.476 -0.7596 -0.2741  0.1166
 3020TIP3    H1 9024   1.894   3.288   4.527 -2.2715 -0.5488 -0.7953
 3020TIP3    H2 9025   1.955   3.150   4.538  3.7094  1.9366  1.9843
 3021TIP3   OH2 9026   3.523   6.043   0.991  0.1228 -0.3402 -0.5551
 3021TIP3    H1 9027   3.537   6.030   1.085  3.5647 -2.4009 -1.1536
 3021TIP3    H2 9028   3.555   6.132   0.975  2.4555 -1.0169 -0.1018
 3022TIP3   OH2 9029   4.647   1.427   3.014 -0.1568 -0.0260  0.1078
 3022TIP3    H1 9030   4.681   1.440   3.103  0.4634  2.0941 -0.3952
 3022TIP3    H2 9031   4.605   1.509   2.991 -2.0939 -1.2215 -0.8571
 3023TIP3   OH2 9032   4.584   0.389   2.422 -0.5707  0.1461 -0.2554
 3023TIP3    H1 9033   4.562   0.304   2.460 -0.5326  0.1815 -0.1525
 3023TIP3    H2 9034   4.607   0.370   2.331 -0.6063  0.0521 -0.2447
 3024TIP3   OH2 9035   6.174   4.459   1.047  0.3407  0.3286 -0.0935
 3024TIP3    H1 9036   6.094   4.506   1.072  0.2431  0.8966 -1.4027
 3024TIP3    H2 9037   6.241   4.490   1.109 -0.2099  0.6093  0.3659
 3025TIP3   OH2 9038   6.183   3.048   5.830 -0.4433 -0.4215 -0.1339
 3025TIP3    H1 9039   6.252   3.114   5.834 -0.1463 -0.7974  1.3002
 3025TIP3    H2 9040   6.108   3.094   5.794 -0.0397  0.5270  0.2120
 3026TIP3   OH2 9041   3.060   1.920   4.807 -0.1392  0.2575  0.6090
 3026TIP3    H1 9042   3.144   1.877   4.793 -0.0307  0.4530  0.6435
 3026TIP3    H2 9043   2.994   1.852   4.792  0.0033  0.2590 -0.0258
 3027TIP3   OH2 9044   2.459   1.191   2.015 -0.2542 -0.3789  0.0209
 3027TIP3    H1 9045   2.507   1.107   2.016 -0.9851 -0.8248 -1.0603
 3027TIP3    H2 9046   2.523   1.254   1.983  0.3655 -0.4708  1.0328
 3028TIP3   OH2 9047   4.298   3.761   3.735  0.0805 -0.0295 -0.1984
 3028TIP3    H1 9048   4.245   3.806   3.669 -0.4840  0.2646  0.4440
 3028TIP3    H2 9049   4.387   3.791   3.719 -0.2978  1.4153  0.2868
 3029TIP3   OH2 9050   5.912   2.168   5.698  0.0173  0.0405  0.0560
 3029TIP3    H1 9051   5.973   2.121   5.755 -0.4870  0.0835  0.6380
 3029TIP3    H2 9052   5.906   2.256   5.737 -0.8328 -0.1276  0.3232
 3030TIP3   OH2 9053   5.296   0.090   5.780  0.3223 -0.0549 -0.0657
 3030TIP3    H1 9054   5.249   0.008   5.790 -0.9798  0.6338 -0.2368
 3030TIP3    H2 9055   5.387   0.068   5.797  0.0475 -1.5841 -0.4062
 3031TIP3   OH2 9056   6.599   4.174   5.663  0.3380  0.0184  0.3774
 3031TIP3    H1 9057   6.599   4.254   5.610 -0.8491 -1.2108 -1.6400
 3031TIP3    H2 9058   6.526   4.185   5.724  0.7115  0.8058  0.6945
 3032TIP3   OH2 9059   4.833   0.868   4.449 -0.2208 -0.0403  0.1938
 3032TIP3    H1 9060   4.855   0.950   4.405 -1.7267  0.2283 -0.1256
 3032TIP3    H2 9061   4.891   0.864   4.525 -0.4109  1.5246  0.4408
 3033TIP3   OH2 9062   3.055   5.025   0.000 -0.2343 -0.1162  0.0132
 3033TIP3    H1 9063   3.098   5.059   0.078  0.1640 -0.1916 -0.1708
 3033TIP3    H2 9064   3.126   5.011  -0.062 -0.3749 -1.2585  0.0761
 3034TIP3   OH2 9065   4.982   5.304   1.342  0.2253 -0.3700 -0.4242
 3034TIP3    H1 9066   5.065   5.325   1.300  0.3501  0.1965  0.0930
 3034TIP3    H2 9067   4.971   5.210   1.325  0.2112 -0.1430 -1.7888
 3035TIP3   OH2 9068   1.660   4.344   0.516  0.1678  0.5978 -0.0398
 3035TIP3    H1 9069   1.607   4.273   0.478  1.0754  0.4132 -1.0167
 3035TIP3    H2 9070   1.741   4.342   0.466 -0.0271  2.7617 -0.5297
 3036TIP3   OH2 9071   3.579   1.067   5.579 -0.4346  0.3013  0.0612
 3036TIP3    H1 9072   3.529   0.986   5.565 -0.3840  0.4287 -0.8687
 3036TIP3    H2 9073   3.664   1.050   5.538 -0.5498  0.9596 -0.4515
 3037TIP3   OH2 9074   2.140   0.064   3.772 -0.3180 -0.5317  0.1889
 3037TIP3    H1 9075   2.070   0.028   3.718 -0.8698  2.6811 -1.4690
 3037TIP3    H2 9076   2.169   0.142   3.725  2.4505 -0.1448  2.2767
 3038TIP3   OH2 9077   5.795   1.525   0.671 -0.3918 -0.1901  0.1043
 3038TIP3    H1 9078   5.767   1.612   0.700  0.0564  0.0003 -0.0156
 3038TIP3    H2 9079   5.876   1.541   0.623  0.4174 -0.8110  1.2111
 3039TIP3   OH2 9080   5.085   5.546   4.806  0.3254 -0.0267 -0.0786
 3039TIP3    H1 9081   5.021   5.494   4.853  0.8295 -0.0251  0.6278
 3039TIP3    H2 9082   5.068   5.637   4.833  0.7071 -0.0412  0.2185
 3040TIP3   OH2 9083   4.767   5.201   2.509 -0.0931  0.2373 -0.2621
 3040TIP3    H1 9084   4.727   5.277   2.552  0.8286  1.1896 -1.0387
 3040TIP3    H2 9085   4.859   5.205   2.535 -0.2516 -1.3636  0.7022
 3041TIP3   OH2 9086   3.693   4.191   1.661 -0.2010 -0.2939  0.2124
 3041TIP3    H1 9087   3.759   4.261   1.667 -0.0886  0.0168 -3.1126
 3041TIP3    H2 9088   3.731   4.119   1.712  2.3206  0.1898 -0.8080
 3042TIP3   OH2 9089   5.611   1.442   0.195  0.0832 -0.5626  0.7515
 3042TIP3    H1 9090   5.698   1.407   0.179  0.2450  0.1042  0.1157
 3042TIP3    H2 9091   5.594   1.500   0.121 -2.1084 -2.8860 -0.7506
 3043TIP3   OH2 9092   2.762   2.317   5.538  0.5289 -0.0470 -0.1167
 3043TIP3    H1 9093   2.775   2.225   5.560  0.9824 -0.1631 -0.8004
 3043TIP3    H2 9094   2.846   2.344   5.501  0.4402  0.6802  0.2042
 3044TIP3   OH2 9095   6.409   0.281   3.291  0.0339  0.2766  0.3351
 3044TIP3    H1 9096   6.478   0.226   3.328  0.8389  0.8286 -0.3005
 3044TIP3    H2 9097   6.456   0.342   3.234 -1.0177  0.4473 -0.3717
 3045TIP3   OH2 9098   0.052   4.129   5.331 -0.1757 -0.1368 -0.5377
 3045TIP3    H1 9099   0.109   4.129   5.408 -0.3848 -0.3616 -0.3809
 3045TIP3    H2 9100   0.037   4.221   5.312  0.5077 -0.0676 -0.7784
 3046TIP3   OH2 9101   6.095   4.788   3.907  0.2139  0.0962  0.1940
 3046TIP3    H1 9102   6.164   4.788   3.973  0.4413 -0.2311 -0.0392
 3046TIP3    H2 9103   6.085   4.696   3.883  0.0084  0.1930 -0.0974
 3047TIP3   OH2 9104   3.190   5.747   3.353  0.2930 -0.5069 -0.4225
 3047TIP3    H1 9105   3.183   5.838   3.323  2.0322  0.1127  0.8570
 3047TIP3    H2 9106   3.168   5.695   3.276 -0.5484  0.9796 -1.2487
 3048TIP3   OH2 9107   0.663   3.280   2.151 -0.4081  0.5118 -0.0034
 3048TIP3    H1 9108   0.697   3.313   2.234 -0.5319  0.3804  0.1006
 3048TIP3    H2 9109   0.580   3.327   2.139  0.7318  2.3844 -1.2657
 3049TIP3   OH2 9110   1.528   4.787   3.154  0.1082  0.1743  0.2960
 3049TIP3    H1 9111   1.578   4.716   3.113 -1.2155 -0.5275 -0.1462
 3049TIP3    H2 9112   1.581   4.812   3.230  1.4230 -0.1251 -0.4837
 3050TIP3   OH2 9113   3.575   0.552   3.524 -0.4970  0.1122  0.6382
 3050TIP3    H1 9114   3.654   0.516   3.482 -0.6508  0.3764  0.1139
 3050TIP3    H2 9115   3.505   0.492   3.497 -0.6204  0.3605  0.4033
 3051TIP3   OH2 9116   0.892   0.978   0.218 -0.2949 -0.3698 -0.7415
 3051TIP3    H1 9117   0.860   1.061   0.254  0.4584 -0.0210 -0.8381
 3051TIP3    H2 9118   0.820   0.946   0.163 -1.3854 -0.8160  0.8992
 3052TIP3   OH2 9119   3.928   2.921   5.797 -0.5563  0.5022  0.2451
 3052TIP3    H1 9120   3.949   2.870   5.876 -2.0908  0.4103  0.6302
 3052TIP3    H2 9121   3.871   2.864   5.746  0.2400  0.6557 -0.8285
 3053TIP3   OH2 9122   0.697   3.583   1.806  0.2585 -0.2527  0.2203
 3053TIP3    H1 9123   0.778   3.555   1.848  0.1297 -1.0403 -0.0332
 3053TIP3    H2 9124   0.633   3.517   1.831  0.2266 -0.8856 -1.3562
 3054TIP3   OH2 9125   4.659   1.201   0.388  0.0043 -0.0529  0.2634
 3054TIP3    H1 9126   4.720   1.263   0.350 -0.3369 -1.3565 -2.6596
 3054TIP3    H2 9127   4.575   1.248   0.389  0.4475  0.7876  1.7365
 3055TIP3   OH2 9128   3.596   0.631   0.927 -0.1039 -0.2543 -0.7293
 3055TIP3    H1 9129   3.563   0.544   0.904 -0.2893 -0.0814 -1.1353
 3055TIP3    H2 9130   3.641   0.661   0.848  2.0997 -0.9722  0.1859
 3056TIP3   OH2 9131   5.062   2.317   5.094 -0.4709 -0.5149 -0.0347
 3056TIP3    H1 9132   5.118   2.332   5.171 -1.9867  0.9385  0.8577
 3056TIP3    H2 9133   5.041   2.405   5.063  0.8580 -1.0556 -2.7613
 3057TIP3   OH2 9134   2.534   5.803   4.788  0.1564 -0.1603 -0.2922
 3057TIP3    H1 9135   2.442   5.776   4.789  0.0631  0.0677 -1.2612
 3057TIP3    H2 9136   2.560   5.796   4.696  0.9031  0.4733 -0.1424
 3058TIP3   OH2 9137   5.772   0.909   3.348  0.3127  0.1277  0.4965
 3058TIP3    H1 9138   5.713   0.911   3.423  0.4342  0.6724  0.5776
 3058TIP3    H2 9139   5.845   0.966   3.373  0.3102  0.3804 -0.0694
 3059TIP3   OH2 9140   1.602   4.268   2.597 -0.1227  0.1994 -0.2423
 3059TIP3    H1 9141   1.512   4.254   2.566 -0.5275 -0.5425  1.2197
 3059TIP3    H2 9142   1.625   4.355   2.563 -1.9513  1.0712  0.6051
 3060TIP3   OH2 9143   6.044   6.348   4.924 -0.0709  0.4025  0.6794
 3060TIP3    H1 9144   6.103   6.396   4.982  0.1007 -0.6896  1.4413
 3060TIP3    H2 9145   5.959   6.388   4.938  0.0606  0.4599  1.3321
 3061TIP3   OH2 9146   1.310   4.211   1.663 -0.1310 -0.6254  0.0847
 3061TIP3    H1 9147   1.264   4.133   1.632 -1.7387  0.1620  0.3454
 3061TIP3    H2 9148   1.337   4.189   1.752  1.0601 -1.5172 -0.4779
 3062TIP3   OH2 9149   6.710   1.231   4.205  1.0010  1.0350  0.3989
 3062TIP3    H1 9150   6.778   1.201   4.265  2.1846  0.2419 -1.2543
 3062TIP3    H2 9151   6.672   1.151   4.169  1.5557  1.4457 -1.2099
 3063TIP3   OH2 9152   4.614   4.038   2.231 -0.0850 -0.1753  0.4464
 3063TIP3    H1 9153   4.698   4.083   2.230 -1.5168  2.7592 -0.6574
 3063TIP3    H2 9154   4.610   3.997   2.317  2.8842 -1.4108  0.1127
 3064TIP3   OH2 9155   1.274   5.962   1.491  0.2764 -0.0983 -0.0413
 3064TIP3    H1 9156   1.342   5.972   1.558 -1.1472 -1.8692  1.8126
 3064TIP3    H2 9157   1.294   5.879   1.448  0.4032  0.3604 -0.8827
 3065TIP3   OH2 9158   5.567   5.205   3.138  0.0239 -0.3884  0.3987
 3065TIP3    H1 9159   5.516   5.186   3.217  0.5131  3.3215  1.7832
 3065TIP3    H2 9160   5.655   5.176   3.159  0.8225  3.0575  2.5618
 3066TIP3   OH2 9161   7.052   6.653   0.346  0.1454  0.3773  0.1584
 3066TIP3    H1 9162   6.995   6.721   0.381  1.0160  1.9401 -1.3219
 3066TIP3    H2 9163   6.994   6.580   0.327 -1.1696  1.5014 -0.2463
 3067TIP3   OH2 9164   7.019   1.098   1.422  0.1604 -0.2074 -0.1169
 3067TIP3    H1 9165   7.023   1.038   1.347 -1.7355  0.0670 -0.5017
 3067TIP3    H2 9166   6.941   1.070   1.470  0.4444  0.6464  0.8628
 3068TIP3   OH2 9167   4.458   6.341   1.168 -0.9097 -0.1408 -0.5052
 3068TIP3    H1 9168   4.519   6.303   1.105 -1.2929 -0.8483 -0.4639
 3068TIP3    H2 9169   4.512   6.397   1.223  0.2192 -2.6364  1.1092
 3069TIP3   OH2 9170   2.617   2.627   5.728 -0.5453 -0.1147 -0.0047
 3069TIP3    H1 9171   2.710   2.641   5.743  0.0177 -1.8902 -1.5251
 3069TIP3    H2 9172   2.600   2.539   5.763 -1.8469  0.4715  0.9249
 3070TIP3   OH2 9173   5.812   5.442   1.958  0.1867  0.2804 -0.2237
 3070TIP3    H1 9174   5.722   5.413   1.945  0.4037  0.1927 -1.7814
 3070TIP3    H2 9175   5.829   5.499   1.883  1.7261 -0.5070 -0.5185
 3071TIP3   OH2 9176   0.905   3.994   4.739  0.1451 -0.2054 -0.1463
 3071TIP3    H1 9177   0.838   3.975   4.673 -0.7954  1.2920  0.3276
 3071TIP3    H2 9178   0.911   3.914   4.791 -3.1024  0.3506  1.3343
 3072TIP3   OH2 9179   5.483   1.859   1.410  0.0289  0.3333  0.3316
 3072TIP3    H1 9180   5.485   1.832   1.318  0.5605  0.7162  0.2242
 3072TIP3    H2 9181   5.413   1.808   1.449  0.6860 -0.8329  0.0248
 3073TIP3   OH2 9182   0.324   5.780   2.525  0.3320  0.3216  0.2088
 3073TIP3    H1 9183   0.276   5.821   2.596  1.3753  1.5759  0.2149
 3073TIP3    H2 9184   0.410   5.761   2.562  0.9710  1.2099 -0.7631
 3074TIP3   OH2 9185   2.907   6.320   5.841  0.6744 -0.6780 -0.2000
 3074TIP3    H1 9186   2.945   6.240   5.805 -1.4422 -3.0432  2.3649
 3074TIP3    H2 9187   2.838   6.344   5.780  1.7893 -0.3158 -1.3597
 3075TIP3   OH2 9188   5.027   0.973   4.661  1.2180 -0.1109 -0.0023
 3075TIP3    H1 9189   4.993   1.059   4.636  1.8444  0.1146 -0.1073
 3075TIP3    H2 9190   5.020   0.972   4.757 -0.4825 -0.6786 -0.1073
 3076TIP3   OH2 9191   0.908   0.304   4.152 -0.2415  0.4180  0.0995
 3076TIP3    H1 9192   0.918   0.399   4.143 -0.0812  0.6588  2.3581
 3076TIP3    H2 9193   0.974   0.279   4.216  0.2956 -1.3935 -1.0741
 3077TIP3   OH2 9194   0.301   4.862   4.044 -0.3804  0.1692  0.2050
 3077TIP3    H1 9195   0.395   4.874   4.028 -0.9945  3.2908 -1.9646
 3077TIP3    H2 9196   0.272   4.806   3.973 -0.4880  1.1129 -0.5190
 3078TIP3   OH2 9197   1.989   3.926   2.517  0.0682  0.1983  0.1072
 3078TIP3    H1 9198   1.983   4.009   2.470  0.1097  0.6849  0.9455
 3078TIP3    H2 9199   2.050   3.873   2.465  0.2932  0.8131 -0.2600
 3079TIP3   OH2 9200   1.004   1.679   3.425 -0.7307 -0.3396  0.3222
 3079TIP3    H1 9201   0.974   1.679   3.516  0.8526  0.4391  0.8737
 3079TIP3    H2 9202   1.001   1.587   3.399 -0.9084 -0.6123  1.2607
 3080TIP3   OH2 9203   5.481   5.646   4.929 -0.1262 -0.0034 -0.2150
 3080TIP3    H1 9204   5.532   5.688   4.999 -1.0122  0.3088  0.2526
 3080TIP3    H2 9205   5.406   5.705   4.916  0.0778 -0.0125 -1.4952
 3081TIP3   OH2 9206   5.113   5.690   3.227 -0.0714  0.7457 -1.1806
 3081TIP3    H1 9207   5.113   5.645   3.312 -3.8596  2.3070 -0.1408
 3081TIP3    H2 9208   5.192   5.658   3.183 -0.5427 -4.0577  0.8622
 3082TIP3   OH2 9209   2.453   4.278   1.751  0.0916  0.2944  0.3516
 3082TIP3    H1 9210   2.528   4.275   1.810  1.5287 -0.6813 -1.4248
 3082TIP3    H2 9211   2.391   4.215   1.787  2.6582 -3.4597 -1.2322
 3083TIP3   OH2 9212   3.214   0.666   1.496 -0.0569  0.1983  0.4140
 3083TIP3    H1 9213   3.181   0.711   1.574 -2.7446  1.4909 -1.3255
 3083TIP3    H2 9214   3.204   0.730   1.425 -1.4052 -2.1559 -1.6840
 3084TIP3   OH2 9215   5.610   1.852   3.973  0.3637  0.5944 -0.0870
 3084TIP3    H1 9216   5.589   1.784   4.037  2.5989 -0.8850 -0.7972
 3084TIP3    H2 9217   5.540   1.847   3.908 -1.1315  1.1067  1.4107
 3085TIP3   OH2 9218   4.104   4.402   1.439  0.0364 -0.3395  0.6128
 3085TIP3    H1 9219   4.081   4.494   1.424  0.9198 -0.1377  0.4136
 3085TIP3    H2 9220   4.199   4.403   1.448  0.3412 -1.5509 -1.7532
 3086TIP3   OH2 9221   2.018   1.571   0.131 -0.3769  0.0607  0.1559
 3086TIP3    H1 9222   1.976   1.643   0.084  0.5735  0.0044 -0.8169
 3086TIP3    H2 9223   1.996   1.493   0.079 -1.0471 -0.3065  0.9682
 3087TIP3   OH2 9224   2.990   5.650   2.457 -0.0485 -0.8211 -0.2376
 3087TIP3    H1 9225   3.034   5.733   2.435  0.9362 -1.4214 -0.6033
 3087TIP3    H2 9226   3.020   5.629   2.545 -1.6673  0.0722  0.5638
 3088TIP3   OH2 9227   0.467   0.091   5.793  0.5704  0.4016  0.0613
 3088TIP3    H1 9228   0.443   0.017   5.737 -2.3176 -0.3158  2.0486
 3088TIP3    H2 9229   0.473   0.054   5.881  1.5103  2.1324  0.7789
 3089TIP3   OH2 9230   5.223   3.730   2.102  0.3073  0.8253 -0.2431
 3089TIP3    H1 9231   5.130   3.731   2.076 -0.4037  1.7538  2.1032
 3089TIP3    H2 9232   5.246   3.823   2.108  2.3214  0.7144 -3.5303
 3090TIP3   OH2 9233   2.389   0.849   3.116 -0.2984  0.0727  0.0056
 3090TIP3    H1 9234   2.472   0.809   3.144 -0.2399  0.1243 -0.0951
 3090TIP3    H2 9235   2.326   0.777   3.119 -0.0193 -0.2339 -0.9874
 3091TIP3   OH2 9236   0.502   0.934   5.007  0.6467  0.1831  0.0286
 3091TIP3    H1 9237   0.476   0.902   5.093  0.3418 -0.8501 -0.4207
 3091TIP3    H2 9238   0.596   0.953   5.015  0.3248  1.4247  0.9547
 3092TIP3   OH2 9239   3.335   1.967   3.285 -0.1057 -0.4022 -0.2183
 3092TIP3    H1 9240   3.340   1.997   3.376  0.1473 -1.6827  0.2168
 3092TIP3    H2 9241   3.271   2.025   3.244 -1.2500 -0.6317  1.1354
 3093TIP3   OH2 9242   3.568   5.759   2.795 -0.0486 -0.2878  0.5391
 3093TIP3    H1 9243   3.652   5.714   2.782 -0.9990 -1.9296 -0.2494
 3093TIP3    H2 9244   3.527   5.759   2.709 -2.3237 -2.6868  1.4689
 3094TIP3   OH2 9245   5.837   3.506   1.436 -0.1040  0.2741 -0.6641
 3094TIP3    H1 9246   5.786   3.584   1.415 -2.4609 -1.0813 -0.3291
 3094TIP3    H2 9247   5.817   3.489   1.528  1.2229 -0.1633 -0.4361
 3095TIP3   OH2 9248   5.930   1.953   0.530 -0.0744 -0.0375  0.2072
 3095TIP3    H1 9249   5.855   1.991   0.575  1.0230 -0.5595  2.5982
 3095TIP3    H2 9250   5.998   2.020   0.534  0.9187 -1.0522  1.8752
 3096TIP3   OH2 9251   1.078   3.674   0.990  0.0897  0.1635  0.0501
 3096TIP3    H1 9252   1.008   3.610   1.009 -1.2827  0.7458 -2.6040
 3096TIP3    H2 9253   1.040   3.758   1.015  0.1940  0.3760 -0.4947
 3097TIP3   OH2 9254   6.754   1.370   1.593 -0.0015 -0.5829 -0.1624
 3097TIP3    H1 9255   6.759   1.421   1.674 -0.3172 -0.9961  0.1217
 3097TIP3    H2 9256   6.845   1.345   1.575  0.3375  1.0616 -0.9591
 3098TIP3   OH2 9257   6.525   2.879   0.641  0.2506 -0.4760 -0.2269
 3098TIP3    H1 9258   6.529   2.974   0.630 -0.0535 -0.5196 -0.7255
 3098TIP3    H2 9259   6.574   2.862   0.722 -0.9805  0.2598  0.7078
 3099TIP3   OH2 9260   2.208   5.529   2.087 -0.2520  0.8066  0.4176
 3099TIP3    H1 9261   2.273   5.599   2.073 -0.4250  0.5994 -1.7626
 3099TIP3    H2 9262   2.208   5.480   2.004 -2.0902 -0.1325  0.9315
 3100TIP3   OH2 9263   5.348   2.202   4.039 -0.0200  0.5091 -0.4987
 3100TIP3    H1 9264   5.391   2.287   4.052  0.9448  0.1099 -0.9619
 3100TIP3    H2 9265   5.289   2.216   3.966  0.3417  0.7196 -0.7556
 3101TIP3   OH2 9266   7.034   4.685   5.768 -0.3926  0.7115  0.3657
 3101TIP3    H1 9267   6.975   4.681   5.844 -1.0993  1.7092 -0.1064
 3101TIP3    H2 9268   7.027   4.775   5.737  0.6296  0.5712 -0.3170
 3102TIP3   OH2 9269   6.471   3.972   1.994  0.4264  0.4014 -0.2095
 3102TIP3    H1 9270   6.554   3.924   2.003 -0.8640 -2.2440 -1.4308
 3102TIP3    H2 9271   6.456   4.011   2.080  1.7614 -1.0533  0.7372
 3103TIP3   OH2 9272   6.685   5.700   4.377 -0.0785 -0.1016 -0.2924
 3103TIP3    H1 9273   6.734   5.768   4.423  1.8456 -0.7854 -1.2214
 3103TIP3    H2 9274   6.670   5.736   4.289  3.8703 -1.9610 -1.9410
 3104TIP3   OH2 9275   0.684   2.336   3.060  0.0926  0.0618  0.0959
 3104TIP3    H1 9276   0.616   2.294   3.112 -0.6899  0.6810 -0.4212
 3104TIP3    H2 9277   0.726   2.397   3.121 -0.3704  0.2933  0.1859
 3105TIP3   OH2 9278   5.196   0.953   3.983 -0.0470  0.3265 -0.1789
 3105TIP3    H1 9279   5.256   0.977   3.912  0.5691  3.2965  1.1896
 3105TIP3    H2 9280   5.251   0.947   4.060 -0.9140 -1.4698  0.3431
 3106TIP3   OH2 9281   5.844   1.571   0.355  0.0943 -0.0616 -0.3118
 3106TIP3    H1 9282   5.765   1.523   0.379  0.2476  0.0566  0.4430
 3106TIP3    H2 9283   5.914   1.530   0.406  0.4171  0.2482 -0.4992
 3107TIP3   OH2 9284   2.146   1.570   3.563 -0.0308 -0.4012 -0.3102
 3107TIP3    H1 9285   2.165   1.643   3.504  1.2081  0.7017  1.3319
 3107TIP3    H2 9286   2.061   1.592   3.601  0.9193  0.9731  1.1645
 3108TIP3   OH2 9287   2.640   3.190   4.217  0.0179  0.2536 -0.5253
 3108TIP3    H1 9288   2.551   3.160   4.199 -0.0643  0.0576  0.1803
 3108TIP3    H2 9289   2.631   3.247   4.294  0.4409  0.5949 -0.7222
 3109TIP3   OH2 9290   3.427   4.535   3.039 -0.1635  0.3437 -0.0388
 3109TIP3    H1 9291   3.382   4.545   3.123  0.8388 -4.3674  1.3721
 3109TIP3    H2 9292   3.516   4.569   3.055 -0.2397  0.3008  0.4899
 3110TIP3   OH2 9293   0.522   1.244   4.314  0.1698  0.0213 -0.2894
 3110TIP3    H1 9294   0.610   1.269   4.287  0.7315 -0.2881  1.1755
 3110TIP3    H2 9295   0.488   1.194   4.240  0.7105  1.2321 -1.4091
 3111TIP3   OH2 9296   3.388   4.576   0.110 -0.0245 -0.2472  0.4602
 3111TIP3    H1 9297   3.350   4.489   0.114  0.3810 -0.4372  0.2571
 3111TIP3    H2 9298   3.338   4.622   0.043 -2.0680  0.5924  2.4244
 3112TIP3   OH2 9299   6.361   4.316   1.480 -0.6149  0.4925  0.0866
 3112TIP3    H1 9300   6.336   4.324   1.572  0.7615  0.8160  0.4595
 3112TIP3    H2 9301   6.319   4.235   1.451  0.3296 -0.5590  1.5031
 3113TIP3   OH2 9302   0.206   6.389   1.999 -0.2925  0.1144 -0.6820
 3113TIP3    H1 9303   0.296   6.364   2.019  0.6710  2.8323 -1.1708
 3113TIP3    H2 9304   0.175   6.435   2.077 -1.3355 -0.8969 -0.4716
 3114TIP3   OH2 9305   3.012   2.686   4.080  0.1434  0.4163  0.1890
 3114TIP3    H1 9306   3.090   2.686   4.026 -0.3371 -0.7485 -0.5251
 3114TIP3    H2 9307   2.960   2.613   4.048 -0.3208 -0.0867  1.9942
 3115TIP3   OH2 9308   0.727   3.474   0.030 -0.1356 -0.1643  0.0266
 3115TIP3    H1 9309   0.714   3.435   0.117 -1.1550  0.8908  0.3727
 3115TIP3    H2 9310   0.778   3.409  -0.018 -2.1047 -2.1303  0.4381
 3116TIP3   OH2 9311   6.584   0.895   3.273  0.4262 -0.1927 -0.2903
 3116TIP3    H1 9312   6.652   0.868   3.211 -0.8397 -1.4069 -1.2137
 3116TIP3    H2 9313   6.555   0.814   3.313  0.5508  0.4805  1.2251
 3117TIP3   OH2 9314   4.863   3.702   0.665  0.3643 -0.0944 -0.7189
 3117TIP3    H1 9315   4.911   3.653   0.598 -1.4405 -1.5136 -1.0917
 3117TIP3    H2 9316   4.806   3.760   0.615  2.2839  2.3198 -0.2724
 3118TIP3   OH2 9317   0.979   4.225   3.263 -0.5954  0.5479  0.1583
 3118TIP3    H1 9318   1.030   4.277   3.201 -2.7482  1.5830 -0.8773
 3118TIP3    H2 9319   0.988   4.272   3.346 -0.8551  1.4615 -0.3062
 3119TIP3   OH2 9320   3.341   4.517   0.943 -0.9624  0.3461 -0.2867
 3119TIP3    H1 9321   3.377   4.530   0.855 -1.4868 -0.2535 -0.6002
 3119TIP3    H2 9322   3.247   4.530   0.933 -1.0803 -0.1651  0.0837
 3120TIP3   OH2 9323   2.544   0.447   1.277  0.0321  0.3179 -0.2760
 3120TIP3    H1 9324   2.477   0.409   1.220 -0.3445 -1.5828  1.3187
 3120TIP3    H2 9325   2.505   0.529   1.308 -1.4133 -0.5088  0.2334
 3121TIP3   OH2 9326   3.476   1.500   5.123 -0.5553 -0.0494 -0.8471
 3121TIP3    H1 9327   3.566   1.508   5.091 -0.2374  0.0049  0.0174
 3121TIP3    H2 9328   3.484   1.446   5.203 -1.1946  0.5311 -0.3812
 3122TIP3   OH2 9329   3.670   3.766   0.206 -0.4485 -0.7783  0.4105
 3122TIP3    H1 9330   3.620   3.847   0.196 -0.8111 -1.1664 -1.1958
 3122TIP3    H2 9331   3.742   3.789   0.265  0.4264  1.1691 -1.3027
 3123TIP3   OH2 9332   1.214   2.586   5.601  0.3070  0.0254  0.1076
 3123TIP3    H1 9333   1.252   2.562   5.685  1.1951  0.5396 -0.1391
 3123TIP3    H2 9334   1.236   2.678   5.589 -1.3528  0.4676  0.1178
 3124TIP3   OH2 9335   5.549   1.302   3.461 -0.3646 -0.2058 -0.0044
 3124TIP3    H1 9336   5.532   1.249   3.539 -0.9660 -2.1322 -1.3760
 3124TIP3    H2 9337   5.471   1.292   3.407  0.7193 -0.3828 -1.6341
 3125TIP3   OH2 9338   6.846   0.584   4.516  0.5685 -0.2343  0.7147
 3125TIP3    H1 9339   6.879   0.594   4.427  2.3028  0.7356  1.4215
 3125TIP3    H2 9340   6.789   0.508   4.513 -0.5770  0.6317 -1.5352
 3126TIP3   OH2 9341   3.716   2.315   0.771 -0.0184 -0.5315  0.3308
 3126TIP3    H1 9342   3.789   2.283   0.718  0.9837  1.2498  0.5464
 3126TIP3    H2 9343   3.756   2.377   0.832 -1.8242  1.3765 -0.2895
 3127TIP3   OH2 9344   2.242   0.639   2.242 -0.2058 -0.1661 -0.1237
 3127TIP3    H1 9345   2.207   0.726   2.221  0.8239 -0.1694 -2.0900
 3127TIP3    H2 9346   2.303   0.655   2.313 -0.8627  0.5413  0.2986
 3128TIP3   OH2 9347   3.039   0.737   5.429 -0.2116  0.1038 -0.0603
 3128TIP3    H1 9348   3.087   0.725   5.347 -2.3177  1.2841 -1.5694
 3128TIP3    H2 9349   2.953   0.699   5.412 -0.8563  0.8146  1.4337
 3129TIP3   OH2 9350   0.147   2.581   2.688  0.1173  0.8608 -0.2522
 3129TIP3    H1 9351   0.093   2.659   2.674 -1.1748  0.3181  1.4439
 3129TIP3    H2 9352   0.225   2.615   2.733 -0.9358  1.0907  1.4958
 3130TIP3   OH2 9353   0.434   2.669   5.404  0.0349  0.1993 -0.4737
 3130TIP3    H1 9354   0.356   2.634   5.361 -0.4835 -1.7281  1.8497
 3130TIP3    H2 9355   0.497   2.598   5.400  1.2908  1.3059 -1.2135
 3131TIP3   OH2 9356   0.577   2.390   0.115  0.4384  0.1232 -0.0784
 3131TIP3    H1 9357   0.513   2.352   0.175  1.3534 -1.0926  0.1726
 3131TIP3    H2 9358   0.549   2.481   0.105 -2.7308 -0.8860 -1.8536
 3132TIP3   OH2 9359   7.051   5.019   3.442  0.5158  0.1380  0.0337
 3132TIP3    H1 9360   6.979   5.060   3.491  0.4551  0.6432 -0.4740
 3132TIP3    H2 9361   7.024   5.024   3.351  0.5707 -0.9314 -0.0467
 3133TIP3   OH2 9362   1.078   0.752   3.882 -0.0438 -0.2524  1.0541
 3133TIP3    H1 9363   1.127   0.815   3.830  0.1767 -0.2191  1.2965
 3133TIP3    H2 9364   1.098   0.776   3.973  0.9728 -1.3743  1.1538
 3134TIP3   OH2 9365   4.316   2.203   3.507  0.4483 -0.3632  0.2831
 3134TIP3    H1 9366   4.263   2.126   3.487 -0.7323  0.0663  1.5977
 3134TIP3    H2 9367   4.277   2.273   3.455 -1.0839  0.2104  2.0929
 3135TIP3   OH2 9368   2.739   0.574   3.411 -0.1768  0.0466 -0.1520
 3135TIP3    H1 9369   2.742   0.499   3.471 -0.6810 -0.2333 -0.4707
 3135TIP3    H2 9370   2.819   0.566   3.359  0.9640  1.0511  1.3642
 3136TIP3   OH2 9371   6.667   2.017   0.380  0.0056  0.4000  0.7232
 3136TIP3    H1 9372   6.753   1.981   0.358  0.4370  1.5705  0.4117
 3136TIP3    H2 9373   6.630   1.955   0.443  1.1969  0.0268  1.0746
 3137TIP3   OH2 9374   7.101   3.532   5.446  0.1700 -0.4156  0.4523
 3137TIP3    H1 9375   7.117   3.625   5.434  1.0920  0.0934  4.4266
 3137TIP3    H2 9376   7.007   3.521   5.435  0.2389  0.6299 -1.5610
 3138TIP3   OH2 9377   1.385   5.793   5.757 -0.0091 -0.2922 -1.1310
 3138TIP3    H1 9378   1.338   5.831   5.831 -0.6396 -0.7179 -1.2996
 3138TIP3    H2 9379   1.419   5.868   5.709 -0.9723  0.0637 -1.2868
 3139TIP3   OH2 9380   1.876   3.982   5.683  0.2906  0.2845  0.4359
 3139TIP3    H1 9381   1.845   3.974   5.773 -1.2195  2.1274  0.1298
 3139TIP3    H2 9382   1.861   4.074   5.660 -0.5313 -0.4058 -2.1096
 3140TIP3   OH2 9383   5.361   4.008   2.202  0.4091 -0.3179  0.0963
 3140TIP3    H1 9384   5.327   4.041   2.285  0.8004 -0.1623  0.2008
 3140TIP3    H2 9385   5.314   4.059   2.135 -0.1809 -0.7112  0.2073
 3141TIP3   OH2 9386   4.082   3.722   4.882 -0.4507 -0.7355  0.0812
 3141TIP3    H1 9387   4.058   3.733   4.790 -0.1648  1.4667  0.2129
 3141TIP3    H2 9388   4.173   3.693   4.879 -0.5339 -0.9600 -0.3425
 3142TIP3   OH2 9389   6.534   6.006   4.641  0.0858 -0.5647  0.6477
 3142TIP3    H1 9390   6.473   6.038   4.708 -1.2524 -1.7302  0.0307
 3142TIP3    H2 9391   6.510   5.914   4.628  2.1990 -1.1689  0.6017
 3143TIP3   OH2 9392   1.807   1.327   1.201  0.5134  0.6351  0.7550
 3143TIP3    H1 9393   1.731   1.271   1.215  0.7319  0.0259 -0.3597
 3143TIP3    H2 9394   1.770   1.413   1.182  0.0451  0.1698 -0.5769
 3144TIP3   OH2 9395   4.703   2.868   0.311  0.1212  0.4970 -0.0487
 3144TIP3    H1 9396   4.716   2.788   0.361 -2.2898  0.1017  0.0682
 3144TIP3    H2 9397   4.682   2.934   0.378 -0.2924  0.6461 -0.3242
 3145TIP3   OH2 9398   2.378   4.726   3.097  0.3280  0.0222  0.2769
 3145TIP3    H1 9399   2.454   4.674   3.122 -0.0477 -0.7144 -0.0683
 3145TIP3    H2 9400   2.402   4.766   3.013  1.4131  2.1246  1.5136
 3146TIP3   OH2 9401   5.724   1.771   0.784 -0.2067 -0.0017  0.5388
 3146TIP3    H1 9402   5.718   1.862   0.757 -0.1128  0.0775  0.7838
 3146TIP3    H2 9403   5.774   1.773   0.866 -0.5819 -0.2294  0.7791
 3147TIP3   OH2 9404   4.264   3.861   3.182 -0.1833 -0.2627 -0.3216
 3147TIP3    H1 9405   4.193   3.797   3.174 -0.7318  0.2962 -0.0506
 3147TIP3    H2 9406   4.235   3.935   3.128 -0.4696  0.5311  0.8775
 3148TIP3   OH2 9407   4.489   3.042   4.125 -0.6825 -0.2545 -0.6555
 3148TIP3    H1 9408   4.556   3.029   4.192 -2.1115 -0.2922  0.8360
 3148TIP3    H2 9409   4.436   2.962   4.130  0.2490 -1.1316 -3.1847
 3149TIP3   OH2 9410   5.325   1.701   2.151  0.0308  0.2270  0.1873
 3149TIP3    H1 9411   5.396   1.764   2.137 -0.0396  0.0454 -1.0990
 3149TIP3    H2 9412   5.335   1.673   2.242  2.0728 -0.3454 -0.1631
 3150TIP3   OH2 9413   3.656   5.410   3.845  0.2984  0.3071 -0.2848
 3150TIP3    H1 9414   3.747   5.402   3.875  0.2217 -0.3207 -0.2058
 3150TIP3    H2 9415   3.664   5.440   3.754  0.4987  3.5383  0.7072
 3151TIP3   OH2 9416   2.647   0.996   4.534  0.1267  0.1740 -0.0171
 3151TIP3    H1 9417   2.688   1.069   4.488  0.8509 -0.0279  0.3013
 3151TIP3    H2 9418   2.656   1.017   4.626  0.7203 -0.5102  0.0925
 3152TIP3   OH2 9419   3.981   1.659   3.676  0.5381 -0.4081  0.3735
 3152TIP3    H1 9420   3.911   1.606   3.714 -0.0651 -0.4818 -0.7852
 3152TIP3    H2 9421   3.980   1.637   3.583  1.5326  0.2411  0.1922
 3153TIP3   OH2 9422   6.974   3.746   5.717  0.5385  0.4555 -0.3742
 3153TIP3    H1 9423   7.004   3.778   5.631  1.3655 -0.6967 -0.5475
 3153TIP3    H2 9424   7.017   3.804   5.780  1.5684  0.0683 -0.6954
 3154TIP3   OH2 9425   6.402   6.127   1.388 -0.2178  0.0551  0.2227
 3154TIP3    H1 9426   6.433   6.152   1.475  1.9262  2.2374 -1.0692
 3154TIP3    H2 9427   6.307   6.122   1.398  0.0014 -0.6885  2.8616
 3155TIP3   OH2 9428   2.282   0.630   0.106  0.5096  0.2072  0.0047
 3155TIP3    H1 9429   2.265   0.668   0.193  0.3707 -2.3002  1.1456
 3155TIP3    H2 9430   2.207   0.657   0.054 -1.4089 -1.3436  1.7908
 3156TIP3   OH2 9431   3.395   0.819   3.893  0.0474 -0.0820  0.1874
 3156TIP3    H1 9432   3.321   0.836   3.834 -0.0727 -1.6468 -0.1465
 3156TIP3    H2 9433   3.463   0.782   3.837  0.5412 -0.0527  0.7521
 3157TIP3   OH2 9434   0.211   5.032   5.209 -0.1487  0.1945  0.3529
 3157TIP3    H1 9435   0.148   4.966   5.239 -1.0189  1.3519  1.1501
 3157TIP3    H2 9436   0.288   5.019   5.264 -0.6841  0.4717  1.1815
 3158TIP3   OH2 9437   6.384   0.688   5.886  0.5912  0.2648 -0.1390
 3158TIP3    H1 9438   6.403   0.744   5.810 -0.1147  1.0617  0.2526
 3158TIP3    H2 9439   6.350   0.607   5.848 -2.0290  1.5123 -0.6768
 3159TIP3   OH2 9440   1.465   6.639   2.315  0.0225 -0.3553  0.0447
 3159TIP3    H1 9441   1.403   6.700   2.355  1.5340  0.3298  1.4838
 3159TIP3    H2 9442   1.452   6.557   2.363 -0.4506 -0.5064 -0.3396
 3160TIP3   OH2 9443   2.870   2.296   0.680  0.2916  0.0845 -0.0002
 3160TIP3    H1 9444   2.865   2.222   0.619 -1.9064  0.6454 -0.5807
 3160TIP3    H2 9445   2.833   2.262   0.762  2.1684 -0.3177  0.7481
 3161TIP3   OH2 9446   6.670   6.376   0.234  0.1554 -0.6618  0.1458
 3161TIP3    H1 9447   6.585   6.371   0.278 -0.0695 -0.2937 -0.2407
 3161TIP3    H2 9448   6.688   6.286   0.206 -0.1259 -0.7347  0.1987
 3162TIP3   OH2 9449   7.175   6.097   4.198  0.2102 -0.3448 -0.1062
 3162TIP3    H1 9450   7.204   6.016   4.156  0.2725 -0.2175 -0.3115
 3162TIP3    H2 9451   7.188   6.164   4.131 -0.5571 -0.2848 -0.2033
 3163TIP3   OH2 9452   3.714   0.344   0.553 -0.3950 -0.3096 -0.1404
 3163TIP3    H1 9453   3.794   0.378   0.593  0.2255 -2.4841  0.5963
 3163TIP3    H2 9454   3.657   0.420   0.544  0.7145  0.8225  1.8366
 3164TIP3   OH2 9455   1.125   2.090   2.207  0.6185  0.8153 -0.7266
 3164TIP3    H1 9456   1.061   2.067   2.140 -0.2672 -0.7490  0.5804
 3164TIP3    H2 9457   1.170   2.167   2.172 -0.1344  0.3450 -2.8704
 3165TIP3   OH2 9458   7.048   4.600   5.383 -0.2472 -0.3908  0.3671
 3165TIP3    H1 9459   7.045   4.511   5.347  0.4846 -0.2366 -0.0876
 3165TIP3    H2 9460   7.127   4.603   5.436  0.7268  0.5036 -1.0522
 3166TIP3   OH2 9461   4.844   2.549   1.250  0.3331  0.1022  0.5491
 3166TIP3    H1 9462   4.764   2.599   1.232  0.1489  0.1961  1.5679
 3166TIP3    H2 9463   4.874   2.520   1.164 -0.8967 -0.0945  0.1669
 3167TIP3   OH2 9464   1.249   5.359   3.022  0.6200 -0.4920 -0.3407
 3167TIP3    H1 9465   1.301   5.312   3.087  1.2881 -1.3030 -1.4318
 3167TIP3    H2 9466   1.176   5.395   3.071  0.6449 -1.8113  0.7152
 3168TIP3   OH2 9467   6.412   2.565   2.922  0.7047 -0.1587 -0.6419
 3168TIP3    H1 9468   6.365   2.633   2.970  0.7687 -0.6773  0.1627
 3168TIP3    H2 9469   6.347   2.495   2.909  0.7990 -0.1887 -0.9594
 3169TIP3   OH2 9470   2.809   0.085   5.230 -0.1061  0.2591 -0.2306
 3169TIP3    H1 9471   2.892   0.088   5.183 -0.1883 -1.7359 -0.5790
 3169TIP3    H2 9472   2.742   0.079   5.162 -0.3123 -1.2749  0.0757
 3170TIP3   OH2 9473   4.922   0.291   4.870 -0.1647  0.1342  0.2077
 3170TIP3    H1 9474   4.901   0.201   4.894  0.7094 -0.1713 -0.1076
 3170TIP3    H2 9475   4.886   0.302   4.782  1.5828 -0.6486 -0.6664
 3171TIP3   OH2 9476   3.679   0.255   2.133  0.0862  0.5495 -0.1806
 3171TIP3    H1 9477   3.589   0.250   2.101  0.2406  0.5699 -0.6276
 3171TIP3    H2 9478   3.673   0.234   2.226 -0.0082 -2.6162 -0.7843
 3172TIP3   OH2 9479   5.786   0.387   1.991 -0.2586 -0.1823  0.3425
 3172TIP3    H1 9480   5.812   0.453   1.927 -2.7255  1.7673  1.2158
 3172TIP3    H2 9481   5.817   0.421   2.075  0.3489 -1.2479  0.5668
 3173TIP3   OH2 9482   0.666   0.571   0.762 -0.1413  0.1437 -0.8413
 3173TIP3    H1 9483   0.753   0.608   0.748  0.5086 -0.5067  1.1096
 3173TIP3    H2 9484   0.606   0.643   0.744  0.8668  0.9638 -1.0263
 3174TIP3   OH2 9485   7.075   2.124   3.460 -0.2020 -0.2197 -0.2670
 3174TIP3    H1 9486   7.161   2.132   3.418  0.5256 -2.2582  0.7103
 3174TIP3    H2 9487   7.059   2.030   3.465 -1.5701  0.0538  1.3981
 3175TIP3   OH2 9488   6.451   0.643   4.679  0.1614 -0.0574  0.2830
 3175TIP3    H1 9489   6.518   0.661   4.745  0.6665  0.9807 -0.4780
 3175TIP3    H2 9490   6.501   0.616   4.602 -0.2902  0.5460 -0.2330
 3176TIP3   OH2 9491   2.938   6.688   3.107 -0.4697  0.4674  0.1962
 3176TIP3    H1 9492   2.881   6.754   3.147 -3.4964 -0.7110 -1.8416
 3176TIP3    H2 9493   2.879   6.618   3.080  2.0372 -1.0685 -1.7466
 3177TIP3   OH2 9494   2.918   1.757  -0.017  0.1330 -0.5369 -0.5495
 3177TIP3    H1 9495   2.854   1.695   0.018 -0.0751 -1.4992 -2.4955
 3177TIP3    H2 9496   2.948   1.806   0.059 -1.9108 -0.9853  0.6180
 3178TIP3   OH2 9497   0.066   6.222   1.230  0.1967  0.1705 -0.0762
 3178TIP3    H1 9498   0.093   6.245   1.141 -0.0647  0.7128 -0.0181
 3178TIP3    H2 9499  -0.029   6.208   1.223  0.0700  0.8347  0.2371
 3179TIP3   OH2 9500   4.903   6.542   1.868  0.0950  0.2319 -0.2482
 3179TIP3    H1 9501   4.958   6.464   1.865 -0.0160  0.1834 -2.6643
 3179TIP3    H2 9502   4.965   6.615   1.870  0.2393  0.1282 -0.7962
 3180TIP3   OH2 9503   0.066   3.712   2.340 -0.0763  0.4126  0.0864
 3180TIP3    H1 9504   0.068   3.651   2.413  0.0820  1.2852  0.8185
 3180TIP3    H2 9505   0.157   3.735   2.325 -0.0969  0.1824 -0.4548
 3181TIP3   OH2 9506   5.835   4.608   2.968 -0.3236 -0.1837  0.1738
 3181TIP3    H1 9507   5.779   4.685   2.977  1.1705  1.1630 -1.1414
 3181TIP3    H2 9508   5.789   4.552   2.905 -0.5324  0.5859 -0.3778
 3182TIP3   OH2 9509   7.170   4.083   3.101 -0.3334 -0.4794 -0.2599
 3182TIP3    H1 9510   7.177   4.031   3.022  0.0778 -2.4353  0.9907
 3182TIP3    H2 9511   7.259   4.085   3.137 -0.6193 -0.1355  0.4495
 3183TIP3   OH2 9512   3.343   3.509   3.250 -0.0237  0.6238 -0.1184
 3183TIP3    H1 9513   3.333   3.603   3.235 -2.1637  0.5585  0.4586
 3183TIP3    H2 9514   3.399   3.503   3.327 -0.2903  1.4666  0.1540
 3184TIP3   OH2 9515   5.683   4.686   1.013 -0.4413 -0.4489  0.2283
 3184TIP3    H1 9516   5.744   4.754   1.042 -0.1717 -0.6057  0.0325
 3184TIP3    H2 9517   5.683   4.694   0.917  0.2574 -1.2911  0.1441
 3185TIP3   OH2 9518   3.252   4.653   4.600  0.0479  0.5466  0.1787
 3185TIP3    H1 9519   3.335   4.690   4.570 -0.3679  0.3006 -1.3478
 3185TIP3    H2 9520   3.255   4.561   4.573 -0.2305  0.2260  1.1888
 3186TIP3   OH2 9521   3.027   6.657   2.011 -0.2000 -0.0685 -0.3687
 3186TIP3    H1 9522   2.974   6.727   2.049  1.2486  0.7482  0.2604
 3186TIP3    H2 9523   2.991   6.645   1.923 -0.4607  1.5503 -0.5296
 3187TIP3   OH2 9524   7.091   5.821   4.460  0.3246 -0.2952 -0.5362
 3187TIP3    H1 9525   7.139   5.777   4.389  0.3045 -0.7847 -0.2537
 3187TIP3    H2 9526   7.160   5.860   4.514  0.4055 -0.8606 -0.2203
 3188TIP3   OH2 9527   1.420   2.696   0.302  0.5237  0.2126 -0.1747
 3188TIP3    H1 9528   1.454   2.732   0.384  0.4852  0.1091 -0.1125
 3188TIP3    H2 9529   1.466   2.612   0.293 -0.1521 -0.2060  0.2142
 3189TIP3   OH2 9530   5.071   3.914   4.628 -0.1358  0.2724  0.4227
 3189TIP3    H1 9531   5.080   3.848   4.697  0.0606  0.4382  0.5567
 3189TIP3    H2 9532   5.122   3.879   4.554 -0.0197  0.2819  0.4988
 3190TIP3   OH2 9533   2.016   1.267   1.417  0.1820 -0.9517 -0.5677
 3190TIP3    H1 9534   1.964   1.275   1.497  0.4071 -0.2063 -0.4881
 3190TIP3    H2 9535   1.951   1.272   1.347 -0.0866 -2.2347 -0.4368
 3191TIP3   OH2 9536   5.773   6.608   3.881  0.3905  0.2449  0.2526
 3191TIP3    H1 9537   5.861   6.605   3.918  1.3234  0.6124 -1.7722
 3191TIP3    H2 9538   5.736   6.690   3.912  1.1059  0.5186  0.3978
 3192TIP3   OH2 9539   3.369   2.333   4.822  0.1037 -0.0617 -0.4523
 3192TIP3    H1 9540   3.388   2.296   4.908 -1.9325  0.6994  0.3875
 3192TIP3    H2 9541   3.317   2.266   4.778  1.5629 -0.6623 -1.3411
 3193TIP3   OH2 9542   3.361   5.345   0.761 -0.5520  0.6596  0.1066
 3193TIP3    H1 9543   3.373   5.250   0.770 -0.1000  0.5572 -1.3265
 3193TIP3    H2 9544   3.271   5.360   0.788 -0.9861 -0.3522 -0.6962
 3194TIP3   OH2 9545   0.566   2.428   5.164 -0.1434  0.3437  0.9357
 3194TIP3    H1 9546   0.635   2.440   5.098  0.1068  0.7121  1.2629
 3194TIP3    H2 9547   0.610   2.445   5.248 -0.2737 -0.8184  1.2633
 3195TIP3   OH2 9548   4.386   3.621   1.742 -0.0013  0.3704  0.1361
 3195TIP3    H1 9549   4.434   3.554   1.792  0.8474  0.5316 -0.4504
 3195TIP3    H2 9550   4.427   3.704   1.768 -1.8236  0.8295  1.7707
 3196TIP3   OH2 9551   4.872   0.552   5.835  0.7393 -0.1897  0.3716
 3196TIP3    H1 9552   4.826   0.603   5.769  2.3665 -0.0674 -0.7230
 3196TIP3    H2 9553   4.803   0.501   5.878 -0.5986  1.1161 -0.1322
 3197TIP3   OH2 9554   5.731   6.017   0.545 -0.7063 -0.3757  0.5150
 3197TIP3    H1 9555   5.793   6.071   0.595 -1.7963  1.0227  0.4125
 3197TIP3    H2 9556   5.785   5.947   0.509  0.1789 -1.4056  3.5138
 3198TIP3   OH2 9557   0.901   6.322   2.934  0.3349  0.1746 -0.1726
 3198TIP3    H1 9558   0.845   6.377   2.879  0.3122 -0.5367 -0.8912
 3198TIP3    H2 9559   0.963   6.383   2.974 -0.2866  0.8350 -0.2024
 3199TIP3   OH2 9560   3.949   1.652   2.626  0.4457  0.4679  1.0888
 3199TIP3    H1 9561   3.891   1.583   2.595  0.2655 -0.3150  3.0077
 3199TIP3    H2 9562   4.038   1.620   2.608  0.4534  2.3420 -3.2794
 3200TIP3   OH2 9563   2.908   2.263   1.546 -0.3114  0.5966 -0.5931
 3200TIP3    H1 9564   2.816   2.262   1.572 -0.0981 -1.3265  0.2469
 3200TIP3    H2 9565   2.913   2.203   1.472  0.2428  0.8519 -0.7667
 3201TIP3   OH2 9566   6.085   3.179   5.004 -0.2316  0.0447 -0.1176
 3201TIP3    H1 9567   6.071   3.236   4.928 -1.1155 -0.2907 -0.2189
 3201TIP3    H2 9568   6.046   3.096   4.978 -0.5996 -0.0526  0.7377
 3202TIP3   OH2 9569   2.106   0.343   0.250 -0.3760 -0.3188 -0.3321
 3202TIP3    H1 9570   2.082   0.250   0.245  2.1902 -1.1960  1.5591
 3202TIP3    H2 9571   2.161   0.357   0.173  0.5784 -0.8484  0.2383
 3203TIP3   OH2 9572   6.958   1.441   0.253 -0.0813 -0.3032 -0.3655
 3203TIP3    H1 9573   6.995   1.460   0.167  0.1962  0.4485 -0.0814
 3203TIP3    H2 9574   6.910   1.520   0.277  0.2431 -0.3282  0.3814
 3204TIP3   OH2 9575   6.585   5.846   0.634  0.2439  0.0243 -0.0308
 3204TIP3    H1 9576   6.580   5.924   0.689  1.5611 -0.4806  0.8670
 3204TIP3    H2 9577   6.495   5.812   0.632 -0.0224  0.6279  0.9731
 3205TIP3   OH2 9578   6.722   3.815   3.100  0.5192 -0.4602 -0.0941
 3205TIP3    H1 9579   6.665   3.739   3.103 -0.3082  0.0138 -1.9800
 3205TIP3    H2 9580   6.701   3.865   3.179  0.4503 -1.7364  0.7154
 3206TIP3   OH2 9581   4.659   0.938   0.296 -0.1718  0.3120  0.4845
 3206TIP3    H1 9582   4.725   0.927   0.228 -2.8465 -2.0111 -2.0657
 3206TIP3    H2 9583   4.655   1.033   0.311  1.5017  0.7968 -1.6140
 3207TIP3   OH2 9584   3.869   5.358   1.149 -0.3891  0.2973 -0.2955
 3207TIP3    H1 9585   3.811   5.415   1.200 -0.4660 -0.4213  0.4576
 3207TIP3    H2 9586   3.913   5.304   1.215 -0.9656 -1.1111 -1.0073
 3208TIP3   OH2 9587   5.013   0.560   2.763  0.0041 -0.5234 -0.3826
 3208TIP3    H1 9588   4.972   0.635   2.721 -0.0258  0.3376  1.1284
 3208TIP3    H2 9589   5.092   0.595   2.803 -0.6804 -0.9912  1.4619
 3209TIP3   OH2 9590   0.971   0.550   4.909  0.3731  0.4074  0.5518
 3209TIP3    H1 9591   0.990   0.458   4.927  0.1275  0.2434 -0.0144
 3209TIP3    H2 9592   0.952   0.553   4.815 -1.8071  0.6563  0.9531
 3210TIP3   OH2 9593   7.062   4.032   1.136  0.4198  0.2448  0.3346
 3210TIP3    H1 9594   7.148   3.991   1.147 -0.4351 -1.8332 -0.2638
 3210TIP3    H2 9595   7.000   3.961   1.149 -1.1350  1.1581 -1.5936
 3211TIP3   OH2 9596   2.501   1.933   1.300  0.1478  0.2478 -0.7206
 3211TIP3    H1 9597   2.439   1.938   1.372  0.4847 -0.5449 -0.3591
 3211TIP3    H2 9598   2.584   1.965   1.337  0.2570  0.0885 -0.8224
 3212TIP3   OH2 9599   5.231   5.617   0.046 -0.0507  0.0111 -0.3613
 3212TIP3    H1 9600   5.215   5.608   0.140  1.1248 -0.2791 -0.1814
 3212TIP3    H2 9601   5.220   5.529   0.012  1.9125 -0.3694 -0.1008
 3213TIP3   OH2 9602   4.897   0.283   0.467 -0.0496  0.0003 -0.3114
 3213TIP3    H1 9603   4.944   0.321   0.392 -2.0267  0.2931 -1.4960
 3213TIP3    H2 9604   4.835   0.351   0.492  1.4777  0.4751  2.5946
 3214TIP3   OH2 9605  -0.024   1.199   5.682  0.0236  0.5109 -0.1987
 3214TIP3    H1 9606   0.003   1.145   5.608 -0.7750  1.9455 -1.6220
 3214TIP3    H2 9607   0.046   1.263   5.692 -0.3316  0.9496 -0.4239
 3215TIP3   OH2 9608   4.491   4.855   1.299 -0.4736 -0.2866 -0.2146
 3215TIP3    H1 9609   4.405   4.832   1.265 -1.0231  0.0139  0.9183
 3215TIP3    H2 9610   4.473   4.897   1.383  0.8219 -1.2433  0.5898
 3216TIP3   OH2 9611   5.426   3.612   4.516 -0.4716  0.2028 -0.4429
 3216TIP3    H1 9612   5.400   3.533   4.469 -0.6343 -0.6685  1.0420
 3216TIP3    H2 9613   5.368   3.614   4.592  1.5025  0.0718  1.1621
 3217TIP3   OH2 9614   2.595   5.659   5.865 -0.7102 -0.2931  0.2933
 3217TIP3    H1 9615   2.683   5.681   5.833  0.0001 -0.8010  1.8125
 3217TIP3    H2 9616   2.579   5.571   5.830  0.2347 -1.0166  1.5810
 3218TIP3   OH2 9617   4.159   6.637   3.134  0.0358 -0.3638  0.1993
 3218TIP3    H1 9618   4.075   6.640   3.180 -0.0551  0.2209  0.0058
 3218TIP3    H2 9619   4.196   6.724   3.147  1.3199 -1.0720  1.5565
 3219TIP3   OH2 9620   5.769   5.066   3.352  0.1517 -0.1667 -0.2141
 3219TIP3    H1 9621   5.675   5.060   3.334 -0.1409  0.2414  1.1040
 3219TIP3    H2 9622   5.775   5.120   3.431  1.3481 -2.0828  1.0704
 3220TIP3   OH2 9623   7.068   3.070   0.890  0.3745 -0.0078 -0.1023
 3220TIP3    H1 9624   7.103   3.034   0.808  1.4564  0.2759  0.2151
 3220TIP3    H2 9625   7.146   3.089   0.942 -0.2980 -2.6026  2.0493
 3221TIP3   OH2 9626   3.532   2.871   3.018 -0.0152 -0.0681  0.5101
 3221TIP3    H1 9627   3.570   2.829   3.095  0.3809 -0.6821 -0.0053
 3221TIP3    H2 9628   3.469   2.807   2.985  0.2430 -0.0619 -0.0091
 3222TIP3   OH2 9629   1.685   1.894   2.912 -0.0444 -0.0227  0.7955
 3222TIP3    H1 9630   1.751   1.825   2.909 -0.3002 -0.2765  0.9702
 3222TIP3    H2 9631   1.632   1.880   2.833 -1.5129 -1.4503  1.9723
 3223TIP3   OH2 9632   0.379   4.651   1.199 -0.2415  0.5633 -0.4530
 3223TIP3    H1 9633   0.373   4.577   1.140  2.1369 -1.3863  1.5290
 3223TIP3    H2 9634   0.437   4.713   1.155  0.1031 -0.0753 -0.9085
 3224TIP3   OH2 9635   6.863   4.492   5.642  0.0477  0.8378 -0.4447
 3224TIP3    H1 9636   6.883   4.415   5.589  1.1426  1.7844 -1.4756
 3224TIP3    H2 9637   6.947   4.536   5.654 -0.3319  1.1720  1.3032
 3225TIP3   OH2 9638   1.698   5.737   5.530  0.3249 -0.6319 -0.0060
 3225TIP3    H1 9639   1.685   5.714   5.438 -2.2214  0.7883 -0.0891
 3225TIP3    H2 9640   1.688   5.832   5.533 -2.9148 -0.8744  2.0702
 3226TIP3   OH2 9641   1.630   2.265   4.073  0.0835  0.3077 -0.1139
 3226TIP3    H1 9642   1.624   2.248   3.979  0.1979 -0.4904  0.0114
 3226TIP3    H2 9643   1.571   2.200   4.113  1.6032 -0.7853  0.4816
 3227TIP3   OH2 9644   3.910   2.198   4.695 -0.4423 -0.1577  0.0026
 3227TIP3    H1 9645   3.971   2.141   4.741 -0.1272  0.8102  0.8203
 3227TIP3    H2 9646   3.898   2.156   4.610 -0.5396 -1.6426  0.7102
 3228TIP3   OH2 9647   1.651   5.942   4.333 -0.2750  0.2244  0.7448
 3228TIP3    H1 9648   1.675   5.977   4.247  0.1530 -1.2838  0.2195
 3228TIP3    H2 9649   1.694   5.999   4.396  0.2711  0.7273 -0.0778
 3229TIP3   OH2 9650   5.986   6.310   3.742 -0.4695  0.1202  0.1375
 3229TIP3    H1 9651   6.012   6.282   3.829 -1.1515 -0.4895  0.1562
 3229TIP3    H2 9652   5.931   6.239   3.709 -1.1484  0.8465 -0.3421
 3230TIP3   OH2 9653   1.753   3.135   3.402 -0.3342  0.5540  0.5253
 3230TIP3    H1 9654   1.800   3.059   3.435 -0.9196  0.1626  0.4778
 3230TIP3    H2 9655   1.799   3.158   3.321 -0.8441 -0.4690 -0.0800
 3231TIP3   OH2 9656   6.141   5.778   4.845  0.1208 -0.1337  0.4647
 3231TIP3    H1 9657   6.235   5.761   4.849  0.1719 -0.0386 -0.2061
 3231TIP3    H2 9658   6.107   5.715   4.781 -0.1824  0.1992  0.2888
 3232TIP3   OH2 9659   6.993   2.197   4.978  0.2719  0.2361  0.2560
 3232TIP3    H1 9660   6.903   2.211   4.947  0.7405 -0.9264 -1.8526
 3232TIP3    H2 9661   7.031   2.137   4.913  2.6976  1.0149  0.8739
 3233TIP3   OH2 9662   2.399   0.662   0.565 -0.5891  0.1072 -0.5641
 3233TIP3    H1 9663   2.414   0.721   0.639  0.5832 -1.4345  0.5124
 3233TIP3    H2 9664   2.473   0.678   0.506 -0.0733 -0.4911 -0.0992
 3234TIP3   OH2 9665   0.699   3.645   3.510  0.3954  0.3013 -0.0286
 3234TIP3    H1 9666   0.787   3.610   3.500 -0.5902 -2.1845 -0.5997
 3234TIP3    H2 9667   0.694   3.716   3.445  1.7903  0.1732 -0.3025
 3235TIP3   OH2 9668   3.741   4.576   3.578 -0.7635  0.0485  0.2666
 3235TIP3    H1 9669   3.819   4.624   3.608 -0.1101 -0.0843 -1.1241
 3235TIP3    H2 9670   3.734   4.502   3.638 -0.7116  0.8698  1.3236
 3236TIP3   OH2 9671   2.396   3.629   0.691 -0.7371  0.3740  0.2309
 3236TIP3    H1 9672   2.353   3.544   0.698  0.9491 -0.5965 -0.6393
 3236TIP3    H2 9673   2.490   3.609   0.685 -0.2808  2.2989  0.1294
 3237TIP3   OH2 9674   2.174   4.397   0.738  0.1660  0.1719  0.2523
 3237TIP3    H1 9675   2.165   4.493   0.737  0.4764  0.4053  4.0498
 3237TIP3    H2 9676   2.268   4.382   0.744  0.1563 -0.4636 -0.8406
 3238TIP3   OH2 9677   0.496   2.672   1.736 -0.4325 -0.0100 -0.5146
 3238TIP3    H1 9678   0.501   2.593   1.790  1.7455 -0.2265 -0.9474
 3238TIP3    H2 9679   0.464   2.641   1.652 -0.4356 -0.2875 -0.4141
 3239TIP3   OH2 9680   3.561   3.394   3.421  0.4703 -0.1026  0.0765
 3239TIP3    H1 9681   3.577   3.305   3.392 -0.5215 -0.4129  0.4433
 3239TIP3    H2 9682   3.620   3.406   3.496  0.3892 -0.5594  0.2162
 3240TIP3   OH2 9683   4.261   5.705   1.575  0.2042 -0.4648 -0.2724
 3240TIP3    H1 9684   4.219   5.729   1.658  1.6986  0.0744  0.3692
 3240TIP3    H2 9685   4.216   5.757   1.509 -0.4085 -0.2112  0.3365
 3241TIP3   OH2 9686   4.642   0.145   1.130  0.1377 -0.1366 -0.6479
 3241TIP3    H1 9687   4.659   0.185   1.215 -0.4789  0.4945 -0.8058
 3241TIP3    H2 9688   4.726   0.148   1.084  0.5744 -0.8701  0.0843
 3242TIP3   OH2 9689   5.827   0.407   1.182 -0.2989 -0.4832  0.0335
 3242TIP3    H1 9690   5.778   0.330   1.153  1.9411 -2.2943  0.7194
 3242TIP3    H2 9691   5.910   0.402   1.135  0.5221  0.6168  1.2949
 3243TIP3   OH2 9692   5.018   0.689   5.348  0.5395 -0.4785  0.3713
 3243TIP3    H1 9693   4.944   0.642   5.386  0.6659 -0.4760  0.6249
 3243TIP3    H2 9694   5.054   0.628   5.282  0.8202 -0.8232  0.8316
 3244TIP3   OH2 9695   3.344   1.155   3.968 -0.0084 -0.5311  0.2500
 3244TIP3    H1 9696   3.297   1.096   3.908  1.4279 -0.7575 -0.7180
 3244TIP3    H2 9697   3.355   1.235   3.917  1.0119 -0.6384  0.2874
 3245TIP3   OH2 9698   3.307   5.505   5.805 -0.1872  0.1227  0.2890
 3245TIP3    H1 9699   3.373   5.573   5.795  1.9578 -1.8672 -0.1697
 3245TIP3    H2 9700   3.306   5.460   5.721 -0.9273 -0.8927  0.8090
 3246TIP3   OH2 9701   4.221   2.553   3.049 -0.3652 -0.7468  0.3505
 3246TIP3    H1 9702   4.167   2.525   2.975  1.3328 -0.1297 -1.2013
 3246TIP3    H2 9703   4.305   2.511   3.035  0.4351  0.4992  1.1534
 3247TIP3   OH2 9704   4.225   1.673   4.639 -0.7881 -0.4244  0.2083
 3247TIP3    H1 9705   4.286   1.734   4.599  0.9665 -1.5976  0.9748
 3247TIP3    H2 9706   4.156   1.728   4.675 -1.3971  0.8136 -2.5732
 3248TIP3   OH2 9707   4.825   2.335   4.678 -1.1862  0.2973  0.0333
 3248TIP3    H1 9708   4.900   2.280   4.703 -1.8389 -0.9420 -0.6508
 3248TIP3    H2 9709   4.834   2.413   4.732  0.4018  0.0208  0.2279
 3249TIP3   OH2 9710   3.288   0.158   2.379 -0.1284  0.3876 -0.9051
 3249TIP3    H1 9711   3.365   0.102   2.372 -0.2143 -0.2422  2.0347
 3249TIP3    H2 9712   3.323   0.242   2.409 -0.4394  0.6105 -1.1597
 3250TIP3   OH2 9713   7.119   4.282   2.284  0.0195  0.2670 -0.5495
 3250TIP3    H1 9714   7.098   4.208   2.341 -0.1522 -1.2310 -2.4521
 3250TIP3    H2 9715   7.100   4.360   2.337 -3.1432 -1.0104  0.4095
 3251TIP3   OH2 9716   6.233   2.331   0.847  0.1677  0.4120 -0.2295
 3251TIP3    H1 9717   6.306   2.332   0.909  0.1819  0.1900 -0.2392
 3251TIP3    H2 9718   6.156   2.352   0.900  0.2358  0.6227 -0.2146
 3252TIP3   OH2 9719   6.226   2.083   2.552 -0.5927 -0.2211 -0.6129
 3252TIP3    H1 9720   6.213   1.996   2.592 -1.1949  0.0452 -0.2162
 3252TIP3    H2 9721   6.247   2.065   2.461 -0.8213 -0.7854 -0.5576
 3253TIP3   OH2 9722   0.703   3.550   5.079 -0.0916  0.0064 -0.2034
 3253TIP3    H1 9723   0.725   3.504   5.161  0.9626  1.0757  0.1348
 3253TIP3    H2 9724   0.732   3.490   5.010 -0.1846 -0.5240  0.2026
 3254TIP3   OH2 9725   1.956   3.529   5.036 -0.5251  0.5371  0.4629
 3254TIP3    H1 9726   1.984   3.566   5.119  1.0865 -0.8856  0.5836
 3254TIP3    H2 9727   1.995   3.587   4.970  0.1779  0.3014  0.6704
 3255TIP3   OH2 9728   0.309   1.359   4.075  0.2393 -0.0462  0.4773
 3255TIP3    H1 9729   0.305   1.455   4.072 -1.3980 -0.1009 -0.4011
 3255TIP3    H2 9730   0.389   1.337   4.029  0.8759  0.9074  1.0882
 3256TIP3   OH2 9731   1.322   4.647   0.525 -0.4884  0.1292 -0.0288
 3256TIP3    H1 9732   1.411   4.627   0.498 -1.0299 -0.7144 -1.2782
 3256TIP3    H2 9733   1.327   4.656   0.620  0.9567  0.2996 -0.1078
 3257TIP3   OH2 9734   0.782   2.970   3.547  0.3427  0.0632  0.0125
 3257TIP3    H1 9735   0.870   3.007   3.547 -0.6324  2.6455  1.4443
 3257TIP3    H2 9736   0.774   2.927   3.632 -0.0715  0.6956  0.3024
 3258TIP3   OH2 9737   6.999   3.420   1.200  0.4263  0.2421  0.1073
 3258TIP3    H1 9738   6.985   3.460   1.114  0.3101  1.9515  0.8824
 3258TIP3    H2 9739   7.085   3.378   1.193 -0.2967 -1.1351 -1.3398
 3259TIP3   OH2 9740   3.014   2.197   2.495  0.6152  0.4420  0.4521
 3259TIP3    H1 9741   2.932   2.165   2.533 -0.7324  1.3083 -1.5947
 3259TIP3    H2 9742   2.992   2.283   2.459  1.9297 -0.0527 -1.7102
 3260TIP3   OH2 9743   6.089   2.070   3.414 -0.0988  0.0906 -0.9205
 3260TIP3    H1 9744   6.156   2.024   3.364 -0.1294 -2.9215  1.5030
 3260TIP3    H2 9745   6.029   2.002   3.442 -0.7263  1.6995  2.1258
 3261TIP3   OH2 9746   2.325   3.226   1.343  0.0701 -0.4950 -0.3686
 3261TIP3    H1 9747   2.307   3.148   1.396 -1.9662  0.8840  1.1218
 3261TIP3    H2 9748   2.377   3.282   1.400 -1.3538  0.6234 -0.1245
 3262TIP3   OH2 9749   0.723   2.234   0.736  0.4208 -0.1918 -0.2178
 3262TIP3    H1 9750   0.695   2.312   0.784  0.5116  0.2808 -0.9101
 3262TIP3    H2 9751   0.776   2.269   0.664 -0.4923 -0.8086 -1.2175
 3263TIP3   OH2 9752   0.716   2.767   5.599  0.7852  0.2338 -0.1985
 3263TIP3    H1 9753   0.736   2.757   5.505  0.5239  0.7631 -0.3132
 3263TIP3    H2 9754   0.622   2.751   5.605  0.2674  2.7540 -0.4400
 3264TIP3   OH2 9755   3.625   6.310   2.322 -0.0367  0.4738 -0.2581
 3264TIP3    H1 9756   3.580   6.378   2.372  2.1077  2.7667 -1.2424
 3264TIP3    H2 9757   3.673   6.260   2.388 -0.5143  0.8144  0.3607
 3265TIP3   OH2 9758   4.599   5.001   2.632 -0.1050 -0.0627  0.3100
 3265TIP3    H1 9759   4.513   5.005   2.590 -0.5249  0.0214  1.1411
 3265TIP3    H2 9760   4.657   5.050   2.574 -0.7984  0.5792  0.1510
 3266TIP3   OH2 9761   2.511   2.058   1.041 -0.6302 -0.3180 -0.3487
 3266TIP3    H1 9762   2.499   2.021   1.129 -1.6258 -0.0440 -0.3568
 3266TIP3    H2 9763   2.596   2.025   1.012 -0.0578 -0.0068  0.9157
 3267TIP3   OH2 9764   7.093   0.275   1.123  0.3143 -0.1006  0.0437
 3267TIP3    H1 9765   7.110   0.244   1.034  0.2141 -1.0334  0.3444
 3267TIP3    H2 9766   7.004   0.246   1.142 -0.1957  1.3142 -0.0542
 3268TIP3   OH2 9767   2.346   4.158   4.922 -0.2180  0.4569 -0.0138
 3268TIP3    H1 9768   2.350   4.104   4.844 -2.6361  1.0677 -0.6471
 3268TIP3    H2 9769   2.297   4.106   4.986 -0.5065  0.9463  0.1780
 3269TIP3   OH2 9770   2.639   2.238   1.949  0.8471  0.3595  0.2314
 3269TIP3    H1 9771   2.682   2.171   2.002 -0.3693  0.1983  1.0615
 3269TIP3    H2 9772   2.546   2.213   1.950  0.5417  1.4160 -0.4137
 3270TIP3   OH2 9773   4.884   5.272   5.671 -0.0986  0.2676 -0.3158
 3270TIP3    H1 9774   4.940   5.223   5.731  2.0728  0.9534 -1.6647
 3270TIP3    H2 9775   4.803   5.221   5.666  1.3878 -2.2131 -0.2856
 3271TIP3   OH2 9776   0.659   1.084   4.583  0.6422 -0.6532  0.3566
 3271TIP3    H1 9777   0.610   1.051   4.506  0.7092 -1.5192  0.6719
 3271TIP3    H2 9778   0.596   1.079   4.655  0.8126 -0.5725  0.5118
 3272TIP3   OH2 9779   4.190   0.652   2.589  0.0135 -0.4467 -0.3229
 3272TIP3    H1 9780   4.158   0.738   2.561  0.8739  0.3498  0.9996
 3272TIP3    H2 9781   4.261   0.632   2.528  1.3267  0.8857  0.6770
 3273TIP3   OH2 9782   3.265   3.998   3.327  0.6260 -0.5553  0.4077
 3273TIP3    H1 9783   3.342   3.982   3.382  1.3302  2.3871  0.4534
 3273TIP3    H2 9784   3.192   3.963   3.378  1.5303  0.0186  2.1885
 3274TIP3   OH2 9785   5.141   1.462   5.240  0.2919  0.1197  0.3919
 3274TIP3    H1 9786   5.223   1.427   5.274 -0.1142  0.8438  2.3039
 3274TIP3    H2 9787   5.082   1.387   5.236  1.4496 -0.7569 -2.6514
 3275TIP3   OH2 9788   5.323   4.161   5.159  0.2107 -0.2586  0.2428
 3275TIP3    H1 9789   5.369   4.141   5.077  0.2472 -0.2814  0.2685
 3275TIP3    H2 9790   5.367   4.239   5.193  1.1498 -1.0776  0.9696
 3276TIP3   OH2 9791   0.870   0.351   5.269  0.3395 -0.6997 -0.3360
 3276TIP3    H1 9792   0.954   0.305   5.274  0.1216 -0.9460  1.4737
 3276TIP3    H2 9793   0.812   0.291   5.222  0.7871 -1.1232 -0.3466
 3277TIP3   OH2 9794   2.218   0.924   2.692 -0.1234 -0.0806 -0.4988
 3277TIP3    H1 9795   2.291   0.963   2.643 -0.4901  1.1876 -0.0883
 3277TIP3    H2 9796   2.153   0.994   2.696 -1.3614 -1.1943 -0.8391
 3278TIP3   OH2 9797   2.519   5.843   3.228  0.1190 -0.0495  0.7849
 3278TIP3    H1 9798   2.424   5.843   3.243 -0.1887 -2.6745 -0.5942
 3278TIP3    H2 9799   2.548   5.760   3.265  1.4893 -0.3863 -0.9676
 3279TIP3   OH2 9800   0.908   4.499   0.767  0.4333 -0.0789 -0.0447
 3279TIP3    H1 9801   0.860   4.479   0.848 -1.1535 -0.9701 -1.1637
 3279TIP3    H2 9802   0.942   4.587   0.781 -1.3805  0.5253  0.8760
 3280TIP3   OH2 9803   1.193   4.947   1.465 -0.0637 -0.3257  0.1850
 3280TIP3    H1 9804   1.240   4.989   1.536  1.8780  0.1881 -1.3263
 3280TIP3    H2 9805   1.261   4.914   1.406 -1.5701 -0.5600 -1.5328
 3281TIP3   OH2 9806   2.071   6.499   2.782  0.7221 -0.3487 -0.2693
 3281TIP3    H1 9807   2.044   6.447   2.857  2.9899 -0.9761  0.1887
 3281TIP3    H2 9808   2.095   6.435   2.715  1.6661  0.1170 -0.3972
 3282TIP3   OH2 9809   3.975   3.919   3.328 -0.6576 -0.3235  0.6750
 3282TIP3    H1 9810   3.947   3.923   3.236  2.6354 -0.6336 -0.4808
 3282TIP3    H2 9811   3.996   4.010   3.350 -0.7207 -0.3576  0.8764
 3283TIP3   OH2 9812   1.465   0.483   0.700  0.2769 -0.2131 -0.1909
 3283TIP3    H1 9813   1.431   0.429   0.628  0.6391 -1.6950  0.6963
 3283TIP3    H2 9814   1.405   0.465   0.772 -1.2262  2.7126 -0.5660
 3284TIP3   OH2 9815   3.404   4.036   2.059 -0.0692 -0.2257  0.4956
 3284TIP3    H1 9816   3.359   3.959   2.093 -0.2092 -0.9691 -1.2875
 3284TIP3    H2 9817   3.493   4.006   2.041 -0.0046  0.1428  0.1849
 3285TIP3   OH2 9818   4.246   3.257   2.327  0.1059  0.2297  0.2505
 3285TIP3    H1 9819   4.219   3.250   2.419 -1.2529 -1.8774 -0.2447
 3285TIP3    H2 9820   4.330   3.213   2.323  0.0374  0.0809  0.4386
 3286TIP3   OH2 9821   5.365   6.556   2.303 -0.0371  0.4529  0.1557
 3286TIP3    H1 9822   5.460   6.558   2.319  0.0807 -0.5319 -0.3467
 3286TIP3    H2 9823   5.347   6.638   2.257  0.8209 -0.0063 -1.0362
 3287TIP3   OH2 9824   4.716   4.476   5.515 -0.0583  0.3502  0.3717
 3287TIP3    H1 9825   4.647   4.543   5.513  0.4675  0.9305  1.0203
 3287TIP3    H2 9826   4.778   4.502   5.447 -1.2552 -1.0750 -1.3560
 3288TIP3   OH2 9827   4.005   5.912   1.111  0.5828 -0.8559 -0.0648
 3288TIP3    H1 9828   4.005   5.984   1.049  1.8894  1.1584  2.1268
 3288TIP3    H2 9829   3.996   5.833   1.057  0.9752  0.8124 -2.6939
 3289TIP3   OH2 9830   1.794   6.278   3.165  0.2665  0.2321 -0.0947
 3289TIP3    H1 9831   1.823   6.196   3.206 -2.0639 -0.1691  0.8601
 3289TIP3    H2 9832   1.762   6.331   3.238 -1.2880  0.6633 -1.0540
 3290TIP3   OH2 9833   0.746   1.365   2.447 -0.1200 -0.0548 -0.2654
 3290TIP3    H1 9834   0.767   1.402   2.532 -1.3199  0.5285 -0.1942
 3290TIP3    H2 9835   0.756   1.270   2.458  0.2313  0.0557  0.3755
 3291TIP3   OH2 9836   3.965   0.377   5.358 -0.1192 -0.3798 -0.4496
 3291TIP3    H1 9837   4.009   0.398   5.441  0.6187 -1.3269 -0.5862
 3291TIP3    H2 9838   3.923   0.459   5.332  1.1018  0.4126 -0.0237
 3292TIP3   OH2 9839   0.405   3.036   3.745  0.1569 -0.4102 -0.6581
 3292TIP3    H1 9840   0.468   3.033   3.674  0.2003 -1.1889 -0.5976
 3292TIP3    H2 9841   0.348   2.961   3.730 -0.7906  0.3103 -0.7391
 3293TIP3   OH2 9842   0.985   5.029   1.134  0.1202 -0.6862 -0.3591
 3293TIP3    H1 9843   0.953   4.966   1.199  0.1592 -0.1849  0.1615
 3293TIP3    H2 9844   0.923   5.102   1.139  1.3422  0.3354  0.7180
 3294TIP3   OH2 9845   1.367   3.907   4.552  0.2940  0.3202  0.0747
 3294TIP3    H1 9846   1.331   3.890   4.639 -0.9028  0.8591 -0.2933
 3294TIP3    H2 9847   1.311   3.976   4.516  0.5232 -0.1694 -1.2714
 3295TIP3   OH2 9848   6.487   0.474   3.949  0.1186 -0.7375 -0.1053
 3295TIP3    H1 9849   6.478   0.521   3.867  0.4637  0.4948  0.5368
 3295TIP3    H2 9850   6.455   0.386   3.930  1.7648 -0.9946 -2.0186
 3296TIP3   OH2 9851   2.421   5.733   0.642  0.4133  0.5530 -0.2443
 3296TIP3    H1 9852   2.404   5.771   0.556 -1.0246  1.0309  0.2148
 3296TIP3    H2 9853   2.346   5.677   0.659  0.9195  0.0838  0.5013
 3297TIP3   OH2 9854   4.874   1.081   4.292 -0.4132 -0.3177  0.0116
 3297TIP3    H1 9855   4.853   1.174   4.291  1.3291  0.1289 -2.2079
 3297TIP3    H2 9856   4.928   1.067   4.214  0.9405 -2.8186  1.2589
 3298TIP3   OH2 9857   6.283   6.445   5.045 -0.0700 -0.0823 -0.3760
 3298TIP3    H1 9858   6.268   6.518   4.985  3.1017 -0.4555 -1.7669
 3298TIP3    H2 9859   6.359   6.471   5.097 -1.4675 -0.6645  2.1508
 3299TIP3   OH2 9860   5.024   2.669   2.498 -0.0176 -0.4180 -0.3298
 3299TIP3    H1 9861   5.073   2.627   2.428  0.3211  0.7932 -0.8335
 3299TIP3    H2 9862   4.998   2.754   2.463  0.3785  0.3294  1.0843
 3300TIP3   OH2 9863   3.179   2.184   3.787 -0.1478  0.4172 -0.1424
 3300TIP3    H1 9864   3.197   2.266   3.741 -1.0638  1.1922  0.8204
 3300TIP3    H2 9865   3.089   2.163   3.763 -0.3331  0.3656  0.5839
 3301TIP3   OH2 9866   0.119   5.527   2.629  0.5148 -0.7898  0.4300
 3301TIP3    H1 9867   0.195   5.494   2.582  0.8634 -0.4430  0.7475
 3301TIP3    H2 9868   0.127   5.622   2.625 -0.8482 -0.7007 -1.0701
 3302TIP3   OH2 9869   4.958   0.797   4.033 -0.4622 -0.0996 -0.2103
 3302TIP3    H1 9870   5.030   0.852   4.001 -1.0919  0.6568 -0.3707
 3302TIP3    H2 9871   4.909   0.773   3.955  0.5045 -1.9513 -0.2806
 3303TIP3   OH2 9872   3.302   6.231   0.453 -0.2193 -0.2301  0.5022
 3303TIP3    H1 9873   3.241   6.161   0.474 -0.5482 -0.2250 -0.4119
 3303TIP3    H2 9874   3.349   6.247   0.535 -1.1840 -0.4816  1.1234
 3304TIP3   OH2 9875   5.511   2.220   0.565  0.6966 -0.1382  0.2548
 3304TIP3    H1 9876   5.505   2.315   0.559 -2.8149 -0.1500  1.1439
 3304TIP3    H2 9877   5.480   2.189   0.479  1.2314 -0.4718  0.1805
 3305TIP3   OH2 9878   3.719   5.191   2.441  0.3483  0.0594  0.3640
 3305TIP3    H1 9879   3.787   5.236   2.491 -0.2729  1.8070 -0.2679
 3305TIP3    H2 9880   3.758   5.178   2.354 -0.0923  1.1007 -0.0113
 3306TIP3   OH2 9881   0.935   5.985   0.042  0.7851  0.1026  0.2420
 3306TIP3    H1 9882   0.846   6.021   0.041  0.7050  0.0219  1.7709
 3306TIP3    H2 9883   0.985   6.045   0.096  1.7656  0.3191 -0.8721
 3307TIP3   OH2 9884   1.229   4.837   0.160  0.0264  0.1166 -0.0059
 3307TIP3    H1 9885   1.305   4.784   0.186 -0.8569 -0.1814  2.2100
 3307TIP3    H2 9886   1.252   4.926   0.186  0.2885  0.3132 -0.9033
 3308TIP3   OH2 9887   2.078   2.920   4.559  0.2814 -0.3855 -0.3625
 3308TIP3    H1 9888   1.984   2.935   4.550  0.0854 -1.4442 -0.1237
 3308TIP3    H2 9889   2.096   2.939   4.652  0.0580 -1.4253 -0.0942
 3309TIP3   OH2 9890   1.562   2.111   1.477 -0.4362  0.5204 -0.4911
 3309TIP3    H1 9891   1.478   2.078   1.445 -0.8340 -0.7436  1.6544
 3309TIP3    H2 9892   1.552   2.113   1.572  1.6756  1.1929 -0.2427
 3310TIP3   OH2 9893   2.166   1.961   4.754  0.0864  0.6670  0.0849
 3310TIP3    H1 9894   2.258   1.974   4.732  0.3014 -0.3540  0.3466
 3310TIP3    H2 9895   2.133   2.049   4.774  0.7673  1.1581 -0.8956
 3311TIP3   OH2 9896   6.831   1.665   3.389 -0.4489  0.1266  0.4319
 3311TIP3    H1 9897   6.769   1.651   3.317  0.2832 -0.7813 -0.0404
 3311TIP3    H2 9898   6.880   1.583   3.395 -0.1641  0.3673  1.6517
 3312TIP3   OH2 9899   4.475   4.371   2.289 -0.3779 -0.1565 -0.1032
 3312TIP3    H1 9900   4.470   4.334   2.201  0.0793 -1.4731  0.3917
 3312TIP3    H2 9901   4.465   4.295   2.347 -0.8589  0.7146  0.9794
 3313TIP3   OH2 9902   2.232   1.902   0.458  0.0822 -0.1334 -0.0110
 3313TIP3    H1 9903   2.229   1.815   0.417 -1.0981  0.3416 -0.9938
 3313TIP3    H2 9904   2.182   1.892   0.539  0.0273 -0.4069 -0.0766
 3314TIP3   OH2 9905   4.187   2.412   2.816  0.3070  0.0329  0.4815
 3314TIP3    H1 9906   4.239   2.435   2.739  0.0025 -0.7006  0.0433
 3314TIP3    H2 9907   4.229   2.333   2.851  0.3245  0.2483  0.9447
 3315TIP3   OH2 9908   3.867   5.952   2.727 -0.0546  0.0508 -0.0983
 3315TIP3    H1 9909   3.779   5.983   2.707 -0.0244  1.4051  1.6857
 3315TIP3    H2 9910   3.926   6.020   2.693  0.1351  0.6944  1.4534
 3316TIP3   OH2 9911   2.558   1.578   4.657  0.0790 -0.1369  0.1605
 3316TIP3    H1 9912   2.645   1.605   4.628 -0.3063  1.4733  0.4385
 3316TIP3    H2 9913   2.553   1.485   4.633  2.3123 -0.5944  1.2313
 3317TIP3   OH2 9914   1.870   5.015   1.187  0.0439  0.0659 -0.3963
 3317TIP3    H1 9915   1.865   5.090   1.246  3.0772 -0.1102  0.2593
 3317TIP3    H2 9916   1.838   5.048   1.103 -2.1463  0.9765  0.7130
 3318TIP3   OH2 9917   6.973   3.580   0.072 -0.1328  0.1891  0.4111
 3318TIP3    H1 9918   6.897   3.531   0.041 -1.1712  1.1288  1.3770
 3318TIP3    H2 9919   7.012   3.524   0.139 -1.8758  1.0171  2.2092
 3319TIP3   OH2 9920   6.446   4.793   1.270 -0.8258 -0.3861 -0.1857
 3319TIP3    H1 9921   6.368   4.812   1.218 -1.0626 -1.6481 -0.2988
 3319TIP3    H2 9922   6.465   4.876   1.314 -0.4767  0.7980 -2.4327
 3320TIP3   OH2 9923   6.980   6.272   3.373 -0.7048 -0.5577  0.3447
 3320TIP3    H1 9924   7.009   6.277   3.465 -0.0927 -0.4352  0.1524
 3320TIP3    H2 9925   7.038   6.207   3.334  0.7260  1.1627 -0.5543
 3321TIP3   OH2 9926   3.911   3.800   3.060  0.2353  0.4720 -0.0079
 3321TIP3    H1 9927   3.935   3.811   2.968  2.0550 -0.0505  0.3541
 3321TIP3    H2 9928   3.979   3.742   3.096 -0.1906  0.9920  1.7560
 3322TIP3   OH2 9929   1.906   3.961   1.991 -0.5667  0.2623  0.0728
 3322TIP3    H1 9930   1.943   3.877   2.018 -1.5642  0.3727  1.9736
 3322TIP3    H2 9931   1.981   4.013   1.964  0.6856  0.1836  2.9677
 3323TIP3   OH2 9932   5.829   5.099   1.222  0.1728  0.1420 -0.4004
 3323TIP3    H1 9933   5.846   5.055   1.139  0.4414  0.7069 -0.6477
 3323TIP3    H2 9934   5.769   5.040   1.268 -2.1432  1.0081 -2.0798
 3324TIP3   OH2 9935   4.109   6.096   5.476 -0.5765 -0.3698  0.5069
 3324TIP3    H1 9936   4.129   6.076   5.567  0.5386  1.0008  0.5833
 3324TIP3    H2 9937   4.099   6.191   5.473  0.4281 -0.2770 -0.9921
 3325TIP3   OH2 9938   5.706   2.439   4.636 -0.4215 -0.1435 -0.0095
 3325TIP3    H1 9939   5.667   2.352   4.638 -0.0853 -0.2812  0.4734
 3325TIP3    H2 9940   5.664   2.486   4.707  0.8382 -0.5300  1.0228
 3326TIP3   OH2 9941   2.232   3.859   0.606 -0.4942  0.0387  0.2980
 3326TIP3    H1 9942   2.252   3.926   0.672 -0.1862 -0.7055  0.9754
 3326TIP3    H2 9943   2.293   3.787   0.626 -0.0113  0.0271 -1.1524
 3327TIP3   OH2 9944   2.979   1.308   4.891  0.0424 -0.0056 -0.6443
 3327TIP3    H1 9945   2.920   1.259   4.949 -2.1307  1.3373 -1.5982
 3327TIP3    H2 9946   3.032   1.361   4.951 -0.7930 -0.1062  0.2201
 3328TIP3   OH2 9947   3.753   2.873   0.735 -0.2545 -0.0293 -0.1107
 3328TIP3    H1 9948   3.711   2.886   0.820  0.6886 -1.3006  0.5783
 3328TIP3    H2 9949   3.748   2.779   0.720 -0.1579  0.1474 -1.3470
 3329TIP3   OH2 9950   1.197   0.617   5.571  0.5985 -0.4981 -0.4498
 3329TIP3    H1 9951   1.214   0.621   5.665  0.4753 -0.6524 -0.4196
 3329TIP3    H2 9952   1.259   0.553   5.538  1.5844  0.5432 -0.6998
 3330TIP3   OH2 9953   5.158   5.269   3.079 -0.5741 -0.8686 -0.2059
 3330TIP3    H1 9954   5.200   5.312   3.004 -0.9024  1.5673  0.8962
 3330TIP3    H2 9955   5.066   5.262   3.054 -0.6118 -0.4166 -0.2072
 3331TIP3   OH2 9956   4.607   1.991   4.885 -0.1082 -0.2798  0.3770
 3331TIP3    H1 9957   4.538   2.056   4.900  0.2051  0.0515  0.3811
 3331TIP3    H2 9958   4.678   2.018   4.944  0.3878 -0.0833 -0.3078
 3332TIP3   OH2 9959   5.057   5.271   4.681  0.4405 -0.0242  0.1106
 3332TIP3    H1 9960   4.998   5.289   4.608  1.7425 -1.1076 -1.2862
 3332TIP3    H2 9961   5.039   5.340   4.744 -1.8432  0.0389 -0.5201
 3333TIP3   OH2 9962   4.069   1.084   1.837  0.0240 -0.1439 -0.1932
 3333TIP3    H1 9963   4.031   1.155   1.888 -0.6525  0.7500 -1.8733
 3333TIP3    H2 9964   4.089   1.016   1.902  0.2648  1.3744  1.3811
 3334TIP3   OH2 9965   2.891   6.097   0.411 -1.0296 -0.1206  0.0951
 3334TIP3    H1 9966   2.890   6.003   0.392 -3.0398 -0.6985  2.4066
 3334TIP3    H2 9967   2.843   6.137   0.339  0.8543 -0.6217 -1.5364
 3335TIP3   OH2 9968   3.859   6.029   5.078  0.2512  0.4000 -0.4336
 3335TIP3    H1 9969   3.927   6.078   5.125 -0.7057  0.2594  1.2011
 3335TIP3    H2 9970   3.895   6.014   4.991  3.7757 -2.5357  1.2479
 3336TIP3   OH2 9971   6.838   3.077   3.076  0.5647  0.0923 -0.0969
 3336TIP3    H1 9972   6.872   3.165   3.060  2.7140 -0.1638  2.3626
 3336TIP3    H2 9973   6.801   3.081   3.164 -0.9124 -1.0660 -0.6208
 3337TIP3   OH2 9974   1.252   6.194   2.426  0.3554 -0.0990 -0.1145
 3337TIP3    H1 9975   1.210   6.129   2.482  0.9743 -1.5853 -1.3201
 3337TIP3    H2 9976   1.190   6.208   2.354  0.7272 -0.2435 -0.4673
 3338TIP3   OH2 9977   1.048   4.707   3.978 -0.3786 -0.3122  0.3821
 3338TIP3    H1 9978   1.077   4.687   4.067  0.2552 -1.3161 -0.0241
 3338TIP3    H2 9979   1.038   4.621   3.937  1.3878  0.1393 -1.1405
 3339TIP3   OH2 9980   6.063   3.897   5.725  0.1810  0.2986  0.1673
 3339TIP3    H1 9981   6.025   3.925   5.642 -1.1655 -1.2127  0.2136
 3339TIP3    H2 9982   6.062   3.975   5.780 -1.4850  0.7002 -0.3650
 3340TIP3   OH2 9983   7.052  -0.008   2.842  0.4559  0.3404 -0.3302
 3340TIP3    H1 9984   6.987   0.058   2.820  0.2753  0.6494  1.0749
 3340TIP3    H2 9985   7.135   0.030   2.814  0.3250  1.0636  0.2312
 3341TIP3   OH2 9986   2.822   0.212   0.880  0.2121 -0.4340  0.0143
 3341TIP3    H1 9987   2.783   0.153   0.816  0.6991 -1.1869  0.4067
 3341TIP3    H2 9988   2.846   0.156   0.954  1.3669  0.1231  0.0863
 3342TIP3   OH2 9989   1.691   1.393   4.332 -0.0631  0.5528 -0.4372
 3342TIP3    H1 9990   1.759   1.438   4.383 -0.0939  0.2247 -0.1023
 3342TIP3    H2 9991   1.733   1.312   4.304 -0.6825 -0.2276  0.7947
 3343TIP3   OH2 9992   5.602   5.781   5.154 -0.3640 -0.6572 -0.0875
 3343TIP3    H1 9993   5.651   5.718   5.207  0.6051 -0.5946 -0.8972
 3343TIP3    H2 9994   5.628   5.866   5.188 -0.9386 -0.6556  0.3645
 3344TIP3   OH2 9995   4.405   0.646   2.775 -0.0519 -0.6934  0.0464
 3344TIP3    H1 9996   4.319   0.672   2.743 -0.6876 -0.8665  1.5558
 3344TIP3    H2 9997   4.409   0.552   2.759 -0.6073 -0.8836  1.0029
 3345TIP3   OH2 9998   3.365   0.546   5.867  0.0690  0.1826 -0.3624
 3345TIP3    H1 9999   3.308   0.564   5.792 -0.5930 -2.6705 -0.6454
 3345TIP3    H210000   3.306   0.513   5.935  1.1080 -0.6524  0.1579
 3346TIP3   OH210001   6.561   6.754   3.068 -0.4124 -0.0492  0.0809
 3346TIP3    H110002   6.577   6.662   3.089 -1.7929  0.1177  2.0827
 3346TIP3    H210003   6.510   6.751   2.987  1.1611 -0.9332 -0.9204
 3347TIP3   OH210004   3.288   5.962   2.797 -0.1169  0.0718  0.2945
 3347TIP3    H110005   3.262   5.871   2.784 -2.1369  0.5473  0.7018
 3347TIP3    H210006   3.317   5.992   2.711  2.8089 -1.5519  0.5849
 3348TIP3   OH210007   3.328   2.187   5.043  0.0018 -0.4396  0.1154
 3348TIP3    H110008   3.282   2.264   5.075 -0.3277 -0.7753  0.4641
 3348TIP3    H210009   3.365   2.146   5.121  1.3834  0.1216 -0.2134
 3349TIP3   OH210010   4.856   5.308   4.494 -0.0764  0.1336 -0.1799
 3349TIP3    H110011   4.863   5.403   4.494  1.4576  0.0453 -0.6006
 3349TIP3    H210012   4.834   5.285   4.404  0.2852  0.0522 -0.2488
 3350TIP3   OH210013   3.196   3.001   0.158  0.4293 -0.2715 -0.0761
 3350TIP3    H110014   3.258   3.044   0.098  3.7160 -0.2470  3.0179
 3350TIP3    H210015   3.135   3.070   0.183  3.0895  1.6565  1.5901
 3351TIP3   OH210016   3.362   3.357   2.981  0.7697  0.1644 -0.5807
 3351TIP3    H110017   3.400   3.285   3.031  1.2627  0.5144 -0.4358
 3351TIP3    H210018   3.351   3.427   3.046 -0.5330 -0.0668 -0.5269
 3352TIP3   OH210019   0.729   3.166   0.263  0.3997 -0.4130  0.5334
 3352TIP3    H110020   0.711   3.174   0.170  1.5520  0.2091  0.3546
 3352TIP3    H210021   0.807   3.109   0.268  0.1203 -0.7595  1.1394
 3353TIP3   OH210022   5.658   6.019   5.240  0.0407 -0.0444  0.4675
 3353TIP3    H110023   5.624   6.093   5.190  1.3600  0.1278 -0.2130
 3353TIP3    H210024   5.638   6.040   5.331 -0.2800  0.7716  0.2161
 3354TIP3   OH210025   3.851   3.678   3.351  0.0443  0.0903  0.0552
 3354TIP3    H110026   3.930   3.624   3.365 -0.0322 -0.0210  0.0590
 3354TIP3    H210027   3.883   3.768   3.353  0.4450  0.0194 -1.6383
 3355TIP3   OH210028   3.475   2.192   1.122 -0.3595 -0.4855 -0.0346
 3355TIP3    H110029   3.467   2.193   1.027  1.7994 -1.6224 -0.2831
 3355TIP3    H210030   3.386   2.176   1.154 -0.6294 -3.4904 -2.0053
 3356TIP3   OH210031   0.796   5.219   3.237  0.2845  0.0218 -0.6661
 3356TIP3    H110032   0.767   5.195   3.149 -0.3765 -0.6582 -0.2834
 3356TIP3    H210033   0.717   5.252   3.280  0.5599  0.1762 -0.2733
 3357TIP3   OH210034   0.737   5.598   2.156  0.3929  0.0783 -0.2403
 3357TIP3    H110035   0.663   5.539   2.141  0.0594  0.3418  0.3620
 3357TIP3    H210036   0.723   5.633   2.244  1.3021  0.0312 -0.0656
 3358TIP3   OH210037   6.032   3.103   0.296  0.3466  0.2101  0.2606
 3358TIP3    H110038   6.043   3.010   0.274 -1.1214 -0.0721  0.5986
 3358TIP3    H210039   5.952   3.129   0.249 -0.5970  0.6529  2.0283
 3359TIP3   OH210040   4.897   3.954   2.285  0.1485  0.3240  0.3277
 3359TIP3    H110041   4.985   3.940   2.320 -0.2012  0.2163  1.1836
 3359TIP3    H210042   4.865   3.866   2.265  0.4541  0.4016 -0.5682
 3360TIP3   OH210043   1.999   3.607   1.085  0.5789  0.0901 -0.4219
 3360TIP3    H110044   2.048   3.676   1.129  1.0595 -0.2233 -0.4619
 3360TIP3    H210045   2.016   3.528   1.136 -1.4596  0.3255  0.7281
 3361TIP3   OH210046   5.939   0.077   5.128 -0.0909 -0.1792  0.7015
 3361TIP3    H110047   5.899   0.138   5.065  1.6775  0.1627 -0.1652
 3361TIP3    H210048   5.955   0.131   5.206  0.9321  0.3488  0.1469
 3362TIP3   OH210049   6.867   0.187   3.101  0.5327  0.4608 -0.3942
 3362TIP3    H110050   6.954   0.148   3.111 -0.3334 -1.2667  0.9271
 3362TIP3    H210051   6.840   0.165   3.012  1.6571  1.5539 -1.0397
 3363TIP3   OH210052   6.399   6.671   2.860 -0.1633  0.7245  0.1028
 3363TIP3    H110053   6.341   6.712   2.796  0.3170  0.8521 -0.2573
 3363TIP3    H210054   6.346   6.603   2.900 -0.5346  0.7783 -0.2857
 3364TIP3   OH210055   5.369   3.060   1.253 -0.0964  0.3970 -0.9279
 3364TIP3    H110056   5.401   3.045   1.342  1.2108  2.6839 -0.9241
 3364TIP3    H210057   5.281   3.095   1.265 -0.2730 -0.1413 -0.5992
 3365TIP3   OH210058   1.690   6.737   2.424  0.5731  0.2742 -0.1268
 3365TIP3    H110059   1.660   6.781   2.504  2.7701  1.1902  0.2602
 3365TIP3    H210060   1.614   6.738   2.366 -0.5568  1.1537  1.3031
 3366TIP3   OH210061   5.671   2.006   0.629 -0.2619  0.5943 -0.2380
 3366TIP3    H110062   5.615   1.943   0.582  2.0718 -0.9357 -1.1516
 3366TIP3    H210063   5.634   2.091   0.607 -1.7667 -0.2999 -1.4210
 3367TIP3   OH210064   0.833   2.022   2.377 -0.4773 -0.1786 -0.1707
 3367TIP3    H110065   0.845   1.981   2.292  0.8877 -0.4908  0.1468
 3367TIP3    H210066   0.833   2.116   2.359 -1.1298 -0.2590 -0.6143
 3368TIP3   OH210067   2.996   5.061   4.848  0.3319  0.1609  0.1751
 3368TIP3    H110068   2.964   5.088   4.934 -1.0884 -0.9459  0.0347
 3368TIP3    H210069   3.019   4.969   4.860  1.3386  0.3393 -0.3248
 3369TIP3   OH210070   6.127   4.157   2.841 -0.2201 -0.5365 -0.9121
 3369TIP3    H110071   6.062   4.220   2.875  0.4703  0.0885 -0.7229
 3369TIP3    H210072   6.185   4.210   2.786  0.2453 -1.0526 -0.9244
 3370TIP3   OH210073   7.171   4.675   3.685 -0.4010 -0.6191  0.3748
 3370TIP3    H110074   7.135   4.586   3.693 -2.3312  0.2692  2.9015
 3370TIP3    H210075   7.181   4.688   3.591  0.2065 -3.5809 -0.0682
 3371TIP3   OH210076   5.013   3.108   2.875  0.2987 -0.3719  0.5233
 3371TIP3    H110077   5.093   3.056   2.866  1.6764  1.6545  0.3771
 3371TIP3    H210078   5.001   3.116   2.970 -0.5719 -1.8223  0.5688
 3372TIP3   OH210079   6.569   4.629   0.227 -0.6001 -0.3978 -0.7658
 3372TIP3    H110080   6.494   4.661   0.278 -1.4217  0.9839 -2.7211
 3372TIP3    H210081   6.604   4.557   0.279 -2.8504 -0.6216  0.5688
 3373TIP3   OH210082   2.662   2.527   1.700 -0.4678 -0.3941 -0.3049
 3373TIP3    H110083   2.670   2.572   1.784  0.3349 -0.2869 -0.4326
 3373TIP3    H210084   2.607   2.586   1.647 -0.7712 -0.3448  0.0582
 3374TIP3   OH210085   3.629   2.372   0.263 -0.0688  0.2450  0.2123
 3374TIP3    H110086   3.578   2.388   0.183  0.5317 -1.3430 -0.5287
 3374TIP3    H210087   3.600   2.440   0.324 -2.1311  0.1543 -0.6022
 3375TIP3   OH210088   5.150   6.297   3.069  0.5837 -0.3484 -0.1830
 3375TIP3    H110089   5.206   6.374   3.077 -0.1614  0.0544  1.6602
 3375TIP3    H210090   5.181   6.237   3.137 -1.4814  0.1046  1.2426
 3376TIP3   OH210091   2.855   4.804   4.327  0.1771  0.1433  0.4111
 3376TIP3    H110092   2.827   4.881   4.377 -2.6711 -0.5137  0.0043
 3376TIP3    H210093   2.868   4.736   4.393  1.4125  0.5853  0.6501
 3377TIP3   OH210094   2.764   5.052   4.723 -0.3439 -0.2705  0.3945
 3377TIP3    H110095   2.776   4.957   4.728  0.5978 -0.2063 -0.3342
 3377TIP3    H210096   2.846   5.088   4.757 -0.3432  0.2719 -0.1713
 3378TIP3   OH210097   6.420   1.628   0.805 -0.4911 -0.6955 -0.7943
 3378TIP3    H110098   6.430   1.720   0.779 -2.0870 -0.0970  0.5539
 3378TIP3    H210099   6.327   1.610   0.795 -0.5790 -1.4803  1.0407
 3379TIP3   OH210100   5.790   3.168   0.222 -0.0821 -0.0733 -0.1383
 3379TIP3    H110101   5.761   3.097   0.280 -1.2276  0.5914  0.1308
 3379TIP3    H210102   5.709   3.199   0.181  0.7500 -0.8927 -2.5463
 3380TIP3   OH210103   0.133   6.198   2.244  0.0542  0.0694 -0.2962
 3380TIP3    H110104   0.157   6.258   2.316  1.8067 -0.8528 -0.0575
 3380TIP3    H210105   0.114   6.256   2.170  0.9054  0.9666  0.1622
 3381TIP3   OH210106   4.558   3.609   5.098 -0.3321  0.9001 -0.0199
 3381TIP3    H110107   4.614   3.607   5.020 -0.5275 -0.6669 -0.1586
 3381TIP3    H210108   4.604   3.666   5.159  0.1181  1.6800 -1.0661
 3382TIP3   OH210109   0.372   6.534   3.763 -0.0864 -0.4655  0.1095
 3382TIP3    H110110   0.300   6.557   3.704 -0.4467 -1.4398  0.1393
 3382TIP3    H210111   0.387   6.441   3.747  2.1670 -0.0024 -0.9568
 3383TIP3   OH210112   2.864   6.362   0.601  0.2650 -0.5294 -0.5319
 3383TIP3    H110113   2.866   6.303   0.525 -1.6595 -0.3820 -0.7450
 3383TIP3    H210114   2.936   6.331   0.657 -0.0070 -2.3945 -1.1361
 3384TIP3   OH210115   1.030   5.600   2.878  0.1154 -0.5028 -0.4179
 3384TIP3    H110116   1.028   5.681   2.927 -0.5105 -0.3322 -0.7105
 3384TIP3    H210117   1.123   5.585   2.858  0.1741  0.4966 -0.9483
 3385TIP3   OH210118   5.337   1.874   0.969  0.4220 -0.0022 -0.1169
 3385TIP3    H110119   5.364   1.843   1.055 -0.4581  1.6157  0.7998
 3385TIP3    H210120   5.375   1.962   0.962 -0.6950  0.4598 -0.7569
 3386TIP3   OH210121   0.020   3.235   1.843  0.0161  0.8787 -0.2958
 3386TIP3    H110122  -0.010   3.195   1.762  0.1808  1.1765 -0.5062
 3386TIP3    H210123   0.076   3.308   1.815 -0.6653  1.5579  0.0705
 3387TIP3   OH210124   1.068   0.340   1.817  0.3288 -0.0099  0.2658
 3387TIP3    H110125   1.078   0.387   1.735 -1.5782  1.2720  0.7130
 3387TIP3    H210126   1.027   0.257   1.793  0.0842  0.2213 -0.1224
 3388TIP3   OH210127   3.110   6.132   5.712  0.0869  0.0146  0.7664
 3388TIP3    H110128   3.169   6.082   5.768 -0.0425  1.9274  2.7255
 3388TIP3    H210129   3.167   6.190   5.662  0.2601 -2.1027 -1.6979
 3389TIP3   OH210130   3.749   0.817   1.450 -0.0257 -0.6799 -0.1864
 3389TIP3    H110131   3.731   0.877   1.378 -2.7414  0.1852  1.0809
 3389TIP3    H210132   3.704   0.736   1.425  0.5779 -0.9976 -0.2626
 3390TIP3   OH210133   5.279   2.652   0.331  0.0582  0.8393  0.2287
 3390TIP3    H110134   5.216   2.716   0.298  0.1471  0.9365  0.2474
 3390TIP3    H210135   5.342   2.704   0.380  1.4340  1.0515 -1.6288
 3391TIP3   OH210136   3.536   5.719   3.154 -0.1407  0.4362  0.3589
 3391TIP3    H110137   3.506   5.799   3.110  0.6618  1.5354  1.7132
 3391TIP3    H210138   3.483   5.714   3.233  0.1594 -0.0972  0.5318
 3392TIP3   OH210139   3.204   5.963   0.497  0.0360 -0.3916 -0.5330
 3392TIP3    H110140   3.209   5.868   0.505 -0.0476 -0.4485 -1.1542
 3392TIP3    H210141   3.134   5.989   0.557 -0.0108 -0.7283 -0.4417
 3393TIP3   OH210142   3.955   2.716   1.431 -0.1986  0.3901  0.7130
 3393TIP3    H110143   3.962   2.773   1.508  0.3821 -1.3954  2.0397
 3393TIP3    H210144   3.882   2.657   1.452  1.2957 -1.4741  0.8707
 3394TIP3   OH210145   6.741   5.419   0.886 -0.4750 -0.0325 -0.2585
 3394TIP3    H110146   6.798   5.439   0.812 -0.3275  0.0231 -0.1324
 3394TIP3    H210147   6.667   5.478   0.876 -1.1764 -1.0331 -1.1693
 3395TIP3   OH210148   6.030   6.802   2.864 -0.2398  0.2418  0.2890
 3395TIP3    H110149   6.018   6.730   2.926 -1.4445  1.6507  1.7826
 3395TIP3    H210150   6.031   6.760   2.778 -0.0029 -1.6239  1.1570
 3396TIP3   OH210151   4.153   1.881   3.731  0.2734  0.0083 -0.1414
 3396TIP3    H110152   4.226   1.859   3.789  2.3815  0.9695 -2.2366
 3396TIP3    H210153   4.094   1.806   3.736  1.5192 -0.9230  1.4727
 3397TIP3   OH210154   4.796   5.634   3.690  0.0476 -0.4029  0.5565
 3397TIP3    H110155   4.827   5.681   3.614  0.6647 -0.5711  0.6972
 3397TIP3    H210156   4.703   5.618   3.673  0.4989 -1.7247 -0.8376
 3398TIP3   OH210157   2.148   3.625   5.677  0.0669 -0.2831  0.0874
 3398TIP3    H110158   2.194   3.655   5.598 -0.2788  1.2478  0.4276
 3398TIP3    H210159   2.056   3.648   5.661  0.1736  1.2558  1.4342
 3399TIP3   OH210160   5.745   6.419   2.828  0.2042  0.5468 -0.0625
 3399TIP3    H110161   5.710   6.330   2.842  2.5548 -0.7167 -1.5793
 3399TIP3    H210162   5.749   6.427   2.733  0.3794  2.1655  0.0678
 3400TIP3   OH210163   3.178   3.366   1.650 -0.0900  0.0796  0.6221
 3400TIP3    H110164   3.165   3.460   1.640  1.5057  0.3820  1.1252
 3400TIP3    H210165   3.092   3.332   1.675 -0.3393  1.6170  1.9905
 3401TIP3   OH210166   5.424   5.905   5.505 -0.7297 -0.0547 -0.0698
 3401TIP3    H110167   5.360   5.897   5.434 -1.3689  2.2048  0.1749
 3401TIP3    H210168   5.487   5.969   5.473  0.9859 -1.6189  0.0435
 3402TIP3   OH210169   1.729   2.472   5.230  0.4868  0.7489 -0.1086
 3402TIP3    H110170   1.824   2.463   5.236  0.5586 -1.6006 -2.7582
 3402TIP3    H210171   1.695   2.392   5.270 -0.1411 -0.1298 -2.2684
 3403TIP3   OH210172   3.298   1.936   5.376  0.1632  0.0189  0.7701
 3403TIP3    H110173   3.240   1.955   5.302 -1.0924  2.0615  2.1814
 3403TIP3    H210174   3.314   1.842   5.370 -2.0312 -0.3491 -0.5846
 3404TIP3   OH210175   6.797   5.621   1.149  0.5197 -0.5017 -0.3512
 3404TIP3    H110176   6.816   5.553   1.214 -0.6666 -2.1242 -1.6277
 3404TIP3    H210177   6.715   5.593   1.108  0.7091  0.9990 -1.8569
 3405TIP3   OH210178   0.616   0.087   2.382  0.0424 -0.3150 -0.7285
 3405TIP3    H110179   0.689   0.125   2.431  0.4608  0.4668 -1.9007
 3405TIP3    H210180   0.625   0.124   2.294 -1.7717 -0.1890 -0.8992
 3406TIP3   OH210181   5.662   4.949   2.165 -0.2730  0.3617  0.0427
 3406TIP3    H110182   5.620   4.916   2.245  0.3255  0.0144  0.2198
 3406TIP3    H210183   5.756   4.944   2.183 -0.0893 -0.8469 -1.1342
 3407TIP3   OH210184   2.119   0.687   4.581  0.4222 -0.2250 -0.0576
 3407TIP3    H110185   2.183   0.758   4.579 -0.2486  0.4262  0.7464
 3407TIP3    H210186   2.057   0.709   4.511  0.4759 -0.2718 -0.1200
 3408TIP3   OH210187   5.942   2.708   5.225  0.1023  0.3902 -0.0554
 3408TIP3    H110188   5.982   2.648   5.289  0.5708  0.7154 -0.0379
 3408TIP3    H210189   5.956   2.666   5.140  0.0786  0.2826 -0.0065
 3409TIP3   OH210190   4.676   4.189   2.570 -0.6576  0.1918  0.4858
 3409TIP3    H110191   4.682   4.284   2.574  0.5009  0.1310  0.3533
 3409TIP3    H210192   4.762   4.160   2.541 -1.1776 -0.8673 -0.0760
 3410TIP3   OH210193   7.095   2.202   1.352  0.2147  0.6251 -0.0802
 3410TIP3    H110194   7.006   2.238   1.353  0.7538  2.0411 -0.1478
 3410TIP3    H210195   7.097   2.146   1.274 -0.6037  0.5896 -0.0910
 3411TIP3   OH210196   5.642   2.721   2.049 -0.1223 -0.2329  0.6335
 3411TIP3    H110197   5.650   2.782   1.975  1.8250 -0.5038  0.5688
 3411TIP3    H210198   5.731   2.712   2.082 -0.5794 -2.0126  1.5040
 3412TIP3   OH210199   5.909   3.920   4.898  0.0297 -0.2518 -0.4608
 3412TIP3    H110200   5.887   4.005   4.860 -0.7503  0.3833  1.3071
 3412TIP3    H210201   6.004   3.926   4.915  0.2277 -0.2392 -1.5030
 3413TIP3   OH210202   0.103   6.200   5.386  0.4027 -0.1356  0.3127
 3413TIP3    H110203   0.182   6.183   5.437 -0.4225 -0.9339  1.3724
 3413TIP3    H210204   0.037   6.222   5.451 -0.0342  1.5088 -0.6240
 3414TIP3   OH210205   1.937   5.322   2.454 -0.3379  0.1522  0.3306
 3414TIP3    H110206   2.004   5.256   2.439  1.6447  2.1215  0.0656
 3414TIP3    H210207   1.908   5.348   2.366 -3.2124 -2.2170  0.3999
 3415TIP3   OH210208   6.850   2.215   4.530  0.3340  0.4568 -0.2576
 3415TIP3    H110209   6.776   2.275   4.527  2.2298  2.9653  0.2608
 3415TIP3    H210210   6.898   2.231   4.450 -0.5680 -2.5556 -1.5557
 3416TIP3   OH210211   5.825   2.126   3.597 -0.0112  0.4703 -0.0289
 3416TIP3    H110212   5.823   2.211   3.553  1.7123 -0.1325 -1.3981
 3416TIP3    H210213   5.896   2.132   3.660  0.6826 -0.2071 -0.7310
 3417TIP3   OH210214   2.149   0.123   1.508 -0.1895 -0.0868  0.1749
 3417TIP3    H110215   2.070   0.129   1.454  0.5900 -2.3255 -1.3546
 3417TIP3    H210216   2.216   0.168   1.456  0.4569 -1.8351 -0.5512
 3418TIP3   OH210217   3.313   5.051   5.653  0.7447  0.2556  0.0389
 3418TIP3    H110218   3.235   5.085   5.696  1.3711  2.3143 -0.3095
 3418TIP3    H210219   3.362   5.008   5.723 -0.1556 -0.0545  0.4982
 3419TIP3   OH210220   3.010   0.786   1.630 -0.3290 -0.8286 -0.5485
 3419TIP3    H110221   2.979   0.768   1.719  0.5960  0.9652  0.1995
 3419TIP3    H210222   2.998   0.881   1.620  4.1052 -0.0394 -0.4324
 3420TIP3   OH210223   5.302   1.823   0.308  0.3139  0.3981 -0.4016
 3420TIP3    H110224   5.367   1.786   0.367  1.1593  0.8757 -1.0075
 3420TIP3    H210225   5.251   1.883   0.362 -0.0497 -0.4504  0.2215
 3421TIP3   OH210226   1.730   2.786   0.417  0.6079 -0.0648  0.8278
 3421TIP3    H110227   1.729   2.777   0.321  0.8750 -1.8221  0.9711
 3421TIP3    H210228   1.657   2.845   0.436 -0.2508 -0.6964 -0.3784
 3422TIP3   OH210229   2.007   6.062   4.378 -0.4527 -0.3080  0.3097
 3422TIP3    H110230   2.069   6.080   4.449  0.6053  0.6943 -0.8112
 3422TIP3    H210231   1.969   6.147   4.358 -0.8464 -0.6039 -0.2259
 3423TIP3   OH210232   6.811   3.358   5.155 -0.4669 -0.0661  0.5347
 3423TIP3    H110233   6.724   3.324   5.133 -0.7521  1.8604 -1.6954
 3423TIP3    H210234   6.860   3.353   5.073  0.9721  0.5064  1.3206
 3424TIP3   OH210235   3.402   5.031   4.796  0.0988 -0.4186  0.2955
 3424TIP3    H110236   3.327   5.049   4.852  0.2603 -0.7026  0.6087
 3424TIP3    H210237   3.447   4.958   4.839  0.6266 -0.1645  0.1854
 3425TIP3   OH210238   6.934   5.932   2.930 -0.1371  0.3247  0.3801
 3425TIP3    H110239   6.952   6.025   2.916  0.1138  0.2608  0.2697
 3425TIP3    H210240   6.940   5.921   3.025 -0.5474  0.4964  0.4298
 3426TIP3   OH210241   0.213   0.338   3.680 -0.5451  0.1181 -0.0556
 3426TIP3    H110242   0.277   0.290   3.732  1.1404  0.0712 -2.0633
 3426TIP3    H210243   0.181   0.407   3.738 -0.6598 -1.4421  1.8351
 3427TIP3   OH210244   1.968   0.396   2.830  0.2612  0.4750  0.4948
 3427TIP3    H110245   1.925   0.338   2.893  2.1649 -2.4732 -0.7026
 3427TIP3    H210246   2.047   0.426   2.874  1.1254 -0.8497 -0.0979
 3428TIP3   OH210247   4.386   0.841   3.144  0.5552  0.4296 -0.2033
 3428TIP3    H110248   4.347   0.915   3.099  0.4424 -0.4533 -1.5997
 3428TIP3    H210249   4.323   0.770   3.134  1.8771 -0.6399 -1.3342
 3429TIP3   OH210250   1.628   3.103   0.282 -0.4257 -0.4928  0.6480
 3429TIP3    H110251   1.697   3.066   0.337  1.3007  2.0240  0.3545
 3429TIP3    H210252   1.587   3.170   0.337 -2.2945 -1.5224  0.5947
 3430TIP3   OH210253   1.152   3.439   2.948 -0.5183  0.2923 -0.1540
 3430TIP3    H110254   1.104   3.390   2.882  0.5022 -1.7477  0.5449
 3430TIP3    H210255   1.089   3.451   3.019 -0.8487  0.2205 -0.4321
 3431TIP3   OH210256   0.065   6.234   3.618  0.5977  0.1483 -0.1999
 3431TIP3    H110257   0.057   6.307   3.680  4.6133 -1.4696  2.6874
 3431TIP3    H210258   0.009   6.165   3.654  1.9874 -0.3663  1.0985
 3432TIP3   OH210259   4.381   4.901   0.817  0.2474 -0.1694  0.2550
 3432TIP3    H110260   4.406   4.809   0.827  0.0322 -0.0927  1.6346
 3432TIP3    H210261   4.393   4.939   0.903  0.2418  1.0905 -0.2762
 3433TIP3   OH210262   4.834   0.617   0.873  0.3559 -0.2049  0.3669
 3433TIP3    H110263   4.801   0.680   0.808  0.0096  1.6927  2.2719
 3433TIP3    H210264   4.756   0.577   0.909  0.2828  1.2779  1.9756
 3434TIP3   OH210265   5.095   3.403   2.003  0.0250  0.3166 -0.0352
 3434TIP3    H110266   5.067   3.330   1.948 -0.7142  0.1032  0.5992
 3434TIP3    H210267   5.075   3.481   1.952 -0.1733  0.1055 -0.2820
 3435TIP3   OH210268   5.935   4.987   2.762  1.1192 -0.1561  0.6502
 3435TIP3    H110269   5.859   4.934   2.740  1.5538 -0.9313  0.9423
 3435TIP3    H210270   5.961   4.955   2.849  2.7262 -1.0539 -0.1117
 3436TIP3   OH210271   0.799   0.851   5.438  0.1794  0.6384 -0.1348
 3436TIP3    H110272   0.709   0.880   5.423 -0.0318  0.6542  1.0589
 3436TIP3    H210273   0.801   0.760   5.407 -0.4306  0.4239  0.4405
 3437TIP3   OH210274   0.393   3.648   1.204  0.7614 -0.2766  0.5537
 3437TIP3    H110275   0.340   3.728   1.200 -1.2460 -1.5719 -0.9271
 3437TIP3    H210276   0.349   3.594   1.269  0.2060 -1.3732 -0.6870
 3438TIP3   OH210277   6.326   5.435   2.521  0.3910  0.2814  0.1186
 3438TIP3    H110278   6.288   5.439   2.609  2.5228  0.6162  1.1079
 3438TIP3    H210279   6.381   5.513   2.516  0.4253  0.1742 -1.4750
 3439TIP3   OH210280   4.517   6.248   3.813  0.2334  0.0573  0.1251
 3439TIP3    H110281   4.571   6.287   3.745 -1.3847  1.6257 -0.3350
 3439TIP3    H210282   4.557   6.277   3.895  0.4356  0.7168 -0.2023
 3440TIP3   OH210283   3.301   3.634   4.681  0.6251  0.1655  0.4255
 3440TIP3    H110284   3.331   3.716   4.643 -3.0506  1.2815 -0.4963
 3440TIP3    H210285   3.242   3.660   4.751  1.3169 -1.7964  1.8224
 3441TIP3   OH210286   2.972   5.921   1.411 -0.4373 -0.5908 -0.3930
 3441TIP3    H110287   2.927   5.846   1.450  1.2588 -1.1110  0.6463
 3441TIP3    H210288   3.065   5.901   1.418  0.0223  0.4656 -2.4483
 3442TIP3   OH210289   3.254   3.978   1.353 -0.0181 -0.4416  0.2799
 3442TIP3    H110290   3.310   3.938   1.286 -0.6239 -1.1405  0.1762
 3442TIP3    H210291   3.315   4.003   1.422  0.6505  0.5006 -0.6090
 3443TIP3   OH210292   0.878   0.120   4.999  0.3989  0.0603 -0.3594
 3443TIP3    H110293   0.850   0.035   4.965  1.5365 -0.4413 -0.0751
 3443TIP3    H210294   0.913   0.166   4.923  0.7801 -0.1498 -0.3130
 3444TIP3   OH210295   0.509   1.330   3.889 -0.4312 -0.6533 -0.5609
 3444TIP3    H110296   0.463   1.329   3.805  0.3669  0.2662 -1.0299
 3444TIP3    H210297   0.600   1.349   3.866  0.1707 -2.2569  0.3645
 3445TIP3   OH210298   2.055   6.580   3.324 -0.0119  0.4399 -0.2815
 3445TIP3    H110299   2.092   6.509   3.272 -0.9838 -0.0969 -0.2545
 3445TIP3    H210300   2.022   6.643   3.260  2.1454  1.6149 -0.3325
 3446TIP3   OH210301   5.466   1.571   0.390 -0.1091  0.2395  0.0969
 3446TIP3    H110302   5.395   1.510   0.409  0.0863 -0.4822 -1.4157
 3446TIP3    H210303   5.517   1.529   0.322  1.7293  0.8114  1.0577
 3447TIP3   OH210304   2.698   1.556   2.693  0.1712  0.4890  0.1530
 3447TIP3    H110305   2.753   1.491   2.737 -0.0656 -0.5099 -0.9914
 3447TIP3    H210306   2.760   1.612   2.646  0.3562  0.9245  0.9021
 3448TIP3   OH210307   0.190   0.102   4.502  0.1757  0.0010  0.5562
 3448TIP3    H110308   0.149   0.170   4.556  2.8667  0.4912  2.1502
 3448TIP3    H210309   0.199   0.142   4.416 -0.5114  0.7182  0.7994
 3449TIP3   OH210310   4.397   4.121   5.331 -0.0858 -0.2520 -0.0183
 3449TIP3    H110311   4.317   4.163   5.302 -0.8505 -0.8087  1.2062
 3449TIP3    H210312   4.418   4.163   5.415  0.0809 -1.1158  0.3832
 3450TIP3   OH210313   7.030   3.524   2.498  0.2673 -0.3484 -0.3538
 3450TIP3    H110314   7.039   3.600   2.555 -2.4954  1.4708 -2.0766
 3450TIP3    H210315   6.953   3.478   2.531  0.2674 -0.7873 -0.9494
 3451TIP3   OH210316   2.238   6.401   5.236  0.1154 -0.0887  0.1542
 3451TIP3    H110317   2.191   6.319   5.252 -2.4132  1.4923  1.5640
 3451TIP3    H210318   2.245   6.441   5.322 -1.0130  2.2943 -0.7878
 3452TIP3   OH210319   4.726   5.491   2.012 -0.4803 -0.1673  0.1287
 3452TIP3    H110320   4.656   5.519   1.953 -0.7635 -0.2414  0.4269
 3452TIP3    H210321   4.796   5.460   1.954 -0.8679 -0.5046 -0.1615
 3453TIP3   OH210322   2.575   3.023   1.580 -0.2747  0.0592 -0.2327
 3453TIP3    H110323   2.594   2.939   1.622 -1.2039 -0.2266 -0.3744
 3453TIP3    H210324   2.596   3.009   1.488  0.3972  0.2594 -0.1223
 3454TIP3   OH210325   4.600   6.254   0.776  0.2178 -0.2929 -0.1213
 3454TIP3    H110326   4.681   6.282   0.734  0.7207  0.4930  1.3236
 3454TIP3    H210327   4.549   6.215   0.705  1.5144 -0.0712 -1.2154
 3455TIP3   OH210328   3.214   4.825   1.881  0.0967  0.2947 -0.2588
 3455TIP3    H110329   3.304   4.798   1.896  0.4544  1.3488 -0.3953
 3455TIP3    H210330   3.211   4.846   1.787 -0.4857 -0.4286 -0.4078
 3456TIP3   OH210331   5.914   6.246   5.285 -0.3693 -0.1532  0.1647
 3456TIP3    H110332   5.870   6.165   5.308 -1.7034 -0.5780 -3.2723
 3456TIP3    H210333   5.994   6.218   5.240 -1.2324  0.2867 -1.7700
 3457TIP3   OH210334   2.385   0.414   1.816  0.7261  0.0177  0.0835
 3457TIP3    H110335   2.435   0.372   1.746  1.3767 -1.7080  1.5150
 3457TIP3    H210336   2.372   0.346   1.881 -2.2268  0.8075  0.4972
 3458TIP3   OH210337   1.014   2.642   3.222  0.1809  0.3109  0.5379
 3458TIP3    H110338   0.925   2.620   3.193  0.3333 -1.6068  1.3568
 3458TIP3    H210339   1.071   2.609   3.153  0.2941  1.4272  0.0733
 3459TIP3   OH210340   6.510   5.959   2.691 -0.0904  0.7576  0.2131
 3459TIP3    H110341   6.497   5.919   2.777  0.6359  0.1057  0.0307
 3459TIP3    H210342   6.443   5.919   2.636 -0.5882  1.2129  0.4848
 3460TIP3   OH210343   6.198   4.077   3.739 -0.3942  0.5551  0.1251
 3460TIP3    H110344   6.134   4.008   3.724  0.4142 -0.5125  1.3830
 3460TIP3    H210345   6.244   4.085   3.656 -0.0935 -0.8675  0.1282
 3461TIP3   OH210346   1.345   4.254   2.629  0.0409 -0.2914 -0.1349
 3461TIP3    H110347   1.317   4.298   2.709 -0.9601  0.2642 -0.7737
 3461TIP3    H210348   1.276   4.272   2.565  0.1921 -1.7906 -0.7702
 3462TIP3   OH210349   4.437   0.045   0.978  0.1540 -0.4677 -0.3681
 3462TIP3    H110350   4.400   0.133   0.971 -0.2933 -0.4491  1.6943
 3462TIP3    H210351   4.521   0.058   1.023  0.8228 -0.9567 -1.4277
 3463TIP3   OH210352   2.286   1.334   3.348 -0.0489  0.6032 -0.5432
 3463TIP3    H110353   2.375   1.310   3.323 -0.2203 -0.4306 -0.1984
 3463TIP3    H210354   2.253   1.259   3.396 -1.1067  0.9761 -0.6519
 3464TIP3   OH210355   6.289   6.421   5.627 -0.6045  0.1277  0.0719
 3464TIP3    H110356   6.328   6.354   5.684  0.9129  0.7466 -0.1968
 3464TIP3    H210357   6.318   6.398   5.539 -0.3751  0.9185 -0.0665
 3465TIP3   OH210358   0.757   3.352   1.467 -0.1089 -0.6951 -0.2447
 3465TIP3    H110359   0.711   3.281   1.512  0.2406 -0.4208  0.5739
 3465TIP3    H210360   0.691   3.419   1.451  0.0136 -0.2151  1.1069
 3466TIP3   OH210361   6.579   4.825   0.907  0.2158 -0.4610 -0.5552
 3466TIP3    H110362   6.612   4.771   0.835 -1.4717 -0.8460 -1.0759
 3466TIP3    H210363   6.490   4.794   0.921 -1.0867  2.6366 -1.3007
 3467TIP3   OH210364   6.421   0.660   3.732 -0.4634  0.2422  0.1391
 3467TIP3    H110365   6.444   0.616   3.650 -0.3843 -0.0660  0.3265
 3467TIP3    H210366   6.406   0.751   3.706  0.5486  0.3710 -0.0675
 3468TIP3   OH210367   6.720   5.755   0.389 -0.2545 -0.3172 -0.3638
 3468TIP3    H110368   6.637   5.720   0.358 -0.3039 -0.4033 -0.1397
 3468TIP3    H210369   6.712   5.755   0.485  1.2516 -3.6556 -0.0520
 3469TIP3   OH210370   5.444   1.745   5.506 -0.0921 -0.1580 -0.3290
 3469TIP3    H110371   5.382   1.817   5.491 -1.2816 -1.0299  0.2389
 3469TIP3    H210372   5.466   1.752   5.599 -1.6455 -1.5851  0.1917
 3470TIP3   OH210373   0.506   6.157   1.767  0.0619 -0.1866  0.0487
 3470TIP3    H110374   0.411   6.161   1.754  0.1679  0.4146 -0.5821
 3470TIP3    H210375   0.526   6.233   1.822  0.1510 -0.4523  0.3882
 3471TIP3   OH210376   4.799   5.730   2.378  0.1494  0.1742 -0.2350
 3471TIP3    H110377   4.766   5.792   2.442  2.4850  1.0981  0.1680
 3471TIP3    H210378   4.840   5.660   2.430  0.7267  0.1556 -0.7025
 3472TIP3   OH210379   0.686   1.759   5.031 -0.2631  0.0549 -0.0621
 3472TIP3    H110380   0.653   1.806   4.954 -0.6317 -0.0455  0.0350
 3472TIP3    H210381   0.762   1.810   5.059  0.1388 -0.1472 -0.7540
 3473TIP3   OH210382   5.284   0.531   0.071 -0.0264 -0.5516 -0.2796
 3473TIP3    H110383   5.333   0.604   0.031 -0.5205  0.6247  1.1763
 3473TIP3    H210384   5.338   0.454   0.053  1.5356  0.4604 -0.1695
 3474TIP3   OH210385   0.819   5.047   4.256 -0.4890  0.3498  0.3465
 3474TIP3    H110386   0.791   5.118   4.314  0.4625  1.5293 -0.5610
 3474TIP3    H210387   0.907   5.024   4.288 -0.6691 -0.2149  0.4425
 3475TIP3   OH210388   6.189   5.797   0.779  0.5383 -0.1913  0.1678
 3475TIP3    H110389   6.110   5.745   0.792 -0.3648  1.1168  0.1303
 3475TIP3    H210390   6.242   5.781   0.857 -0.4651  0.1032  0.9267
 3476TIP3   OH210391   2.163   1.874   0.089 -0.0396  0.0443  0.2992
 3476TIP3    H110392   2.107   1.947   0.113  1.2722  0.9706  0.6469
 3476TIP3    H210393   2.190   1.836   0.173  1.2918  0.7516  0.2178
 3477TIP3   OH210394   0.602   4.037   5.477  0.0277  0.3134  0.4454
 3477TIP3    H110395   0.594   4.118   5.528  0.3811 -0.3638  1.6236
 3477TIP3    H210396   0.636   4.065   5.392  3.3468  1.1441  1.8773
 3478TIP3   OH210397   3.980   4.603   4.415  0.0256  0.4726 -0.4644
 3478TIP3    H110398   3.888   4.602   4.391  0.1250  0.0010 -0.8371
 3478TIP3    H210399   4.017   4.525   4.373  0.6994  0.9315 -0.7299
 3479TIP3   OH210400   5.139   6.611   1.615 -0.4469  0.3184 -0.4051
 3479TIP3    H110401   5.064   6.562   1.580 -0.9277  1.4408 -1.0144
 3479TIP3    H210402   5.108   6.643   1.700 -0.2466 -0.1717 -0.1477
 3480TIP3   OH210403   5.010   3.730   3.746  0.1028 -0.0953 -0.1935
 3480TIP3    H110404   5.087   3.709   3.798  0.0035 -2.0488 -0.7241
 3480TIP3    H210405   4.954   3.782   3.803  0.4349 -1.3360  1.3180
 3481TIP3   OH210406   2.748   4.430   1.228 -0.9563  0.0721  0.2403
 3481TIP3    H110407   2.667   4.441   1.279 -1.0445 -0.9308  0.3365
 3481TIP3    H210408   2.779   4.343   1.252 -0.0287  0.3108 -0.0703
 3482TIP3   OH210409   0.553   1.593   5.271 -0.6625  0.1308 -0.4885
 3482TIP3    H110410   0.526   1.674   5.314 -1.9765 -0.4622 -0.1452
 3482TIP3    H210411   0.554   1.614   5.177 -1.6906  0.3610 -0.4556
 3483TIP3   OH210412   4.752   6.575   2.133  0.0583  0.3408  0.6141
 3483TIP3    H110413   4.832   6.571   2.080 -1.0993 -0.9961 -1.1680
 3483TIP3    H210414   4.685   6.606   2.072 -1.6243 -2.5454  0.8074
 3484TIP3   OH210415   2.544   4.314   3.866  0.3564  0.1731  0.1282
 3484TIP3    H110416   2.590   4.247   3.918  1.1730 -0.4356 -1.2882
 3484TIP3    H210417   2.524   4.384   3.928 -0.7445 -1.4716  1.7281
 3485TIP3   OH210418   2.327   3.189   0.756 -0.1174 -0.7121 -0.7124
 3485TIP3    H110419   2.268   3.128   0.711  1.5647 -2.1867 -1.0531
 3485TIP3    H210420   2.334   3.155   0.845 -1.1250  0.4822 -0.1550
 3486TIP3   OH210421   1.435   0.534   5.771  0.1305  0.3874 -0.3689
 3486TIP3    H110422   1.527   0.520   5.748  0.1792  2.0498 -1.3550
 3486TIP3    H210423   1.438   0.573   5.858  0.4537  1.2490 -0.7460
 3487TIP3   OH210424   7.068   2.187   2.485 -0.3243 -0.6253  0.6472
 3487TIP3    H110425   7.156   2.195   2.449 -0.5738  0.6380  0.2821
 3487TIP3    H210426   7.066   2.248   2.558 -1.0134 -0.3384  0.4017
 3488TIP3   OH210427   5.406   3.100   1.524 -0.1926  0.0635  0.0917
 3488TIP3    H110428   5.435   3.068   1.609 -0.2777  1.9179  0.8672
 3488TIP3    H210429   5.332   3.157   1.544 -0.4548  0.2457 -1.2711
 3489TIP3   OH210430   1.573   4.577   5.078  0.0542 -0.1622 -0.1158
 3489TIP3    H110431   1.600   4.488   5.058 -0.0964  0.0714 -1.5070
 3489TIP3    H210432   1.478   4.571   5.089  0.2610 -0.4697  1.6792
 3490TIP3   OH210433   1.621   0.066   0.496 -0.0101  0.5220  0.4950
 3490TIP3    H110434   1.594  -0.020   0.464  1.7829 -1.2126  3.1957
 3490TIP3    H210435   1.699   0.088   0.444 -0.8151  0.8734 -0.6085
 3491TIP3   OH210436   2.965   5.526   3.533  0.2847  0.0922  0.8459
 3491TIP3    H110437   3.031   5.532   3.464 -1.3350  0.0407 -0.7710
 3491TIP3    H210438   2.923   5.441   3.519 -3.7199  2.1820 -1.7069
 3492TIP3   OH210439   3.986   2.259   2.684 -0.0475 -0.6850 -0.8777
 3492TIP3    H110440   4.054   2.322   2.705  1.8447 -2.5829 -1.0033
 3492TIP3    H210441   3.934   2.301   2.615 -0.0967  1.4746  0.4045
 3493TIP3   OH210442   1.944   0.566   5.622 -0.4482 -0.0941 -0.1795
 3493TIP3    H110443   1.898   0.618   5.689 -0.0002  0.9819 -0.6940
 3493TIP3    H210444   1.892   0.578   5.543  0.0615  0.1667 -0.4772
 3494TIP3   OH210445   5.554   6.556   2.983  0.5528  0.0893 -0.0234
 3494TIP3    H110446   5.621   6.535   2.918  0.8915  2.1984 -0.4234
 3494TIP3    H210447   5.567   6.649   3.002 -1.5101  0.2704  0.7713
 3495TIP3   OH210448   2.098   1.376   4.064  0.0733  0.7175 -0.0962
 3495TIP3    H110449   2.142   1.294   4.046 -2.0436 -0.5227  0.0534
 3495TIP3    H210450   2.104   1.425   3.981  1.2115  0.3911 -0.2270
 3496TIP3   OH210451   5.027   4.809   5.764  0.4133 -0.1020 -0.3070
 3496TIP3    H110452   5.072   4.808   5.679  0.9837 -2.0158 -0.0103
 3496TIP3    H210453   4.934   4.817   5.742  0.2173 -3.5984 -1.3615
 3497TIP3   OH210454   2.887   5.925   2.659  0.0978  0.1617  0.0423
 3497TIP3    H110455   2.842   5.978   2.593 -1.2668 -1.3436 -0.2983
 3497TIP3    H210456   2.836   5.844   2.664  2.0828 -1.1433  0.5506
 3498TIP3   OH210457   5.652   3.062   4.233 -0.2294 -0.3790  0.9426
 3498TIP3    H110458   5.568   3.033   4.271  0.7576 -0.1686  3.4891
 3498TIP3    H210459   5.717   3.042   4.301  1.4993  1.3257 -0.1142
 3499TIP3   OH210460   2.661   5.777   3.024  0.2579  0.2749  0.0513
 3499TIP3    H110461   2.602   5.802   3.094 -0.3888 -2.4527  0.5800
 3499TIP3    H210462   2.613   5.795   2.943  0.2387  1.5691  0.3296
 3500TIP3   OH210463   1.470   6.500   4.165 -0.5007  0.8290  0.2030
 3500TIP3    H110464   1.451   6.588   4.132 -1.0492  1.1993  1.4335
 3500TIP3    H210465   1.396   6.448   4.136  0.0065  0.6648 -0.8511
 3501TIP3   OH210466   0.961   5.226   4.893 -0.8587 -0.2877  0.0415
 3501TIP3    H110467   1.025   5.260   4.955 -1.2657  0.2422  0.1805
 3501TIP3    H210468   0.993   5.139   4.870  1.2192  0.8512 -1.7731
 3502TIP3   OH210469   3.385   3.655   4.058 -0.4950 -0.2245 -0.1059
 3502TIP3    H110470   3.477   3.671   4.036 -0.0962  1.0393  2.2009
 3502TIP3    H210471   3.342   3.643   3.973  1.6174  0.1372 -1.2870
 3503TIP3   OH210472   0.658   4.645   0.402  0.1593  0.8155 -0.4594
 3503TIP3    H110473   0.744   4.627   0.441  0.4717  2.5521 -0.2820
 3503TIP3    H210474   0.676   4.656   0.309  0.4580  2.8606 -0.2089
 3504TIP3   OH210475   5.537   5.027   4.564 -0.4055  0.0121  0.1244
 3504TIP3    H110476   5.472   4.998   4.628 -0.2159 -0.4371  0.1205
 3504TIP3    H210477   5.614   4.973   4.582 -0.0442  0.5151  0.1074
 3505TIP3   OH210478   1.551   3.948   3.422  0.3674  0.0589  0.3208
 3505TIP3    H110479   1.608   4.021   3.445  2.5516 -1.8639  1.4050
 3505TIP3    H210480   1.467   3.969   3.463  0.8841  1.9602  0.5187
 3506TIP3   OH210481   3.203   1.201   2.838 -0.3534  0.2115 -0.0917
 3506TIP3    H110482   3.250   1.121   2.861  0.0452  0.4458 -0.0669
 3506TIP3    H210483   3.272   1.268   2.833 -0.8706  0.9149  1.5411
 3507TIP3   OH210484   4.555   2.800   1.737  0.1221 -0.1054  0.2067
 3507TIP3    H110485   4.620   2.803   1.807 -2.6306 -1.6702  3.0733
 3507TIP3    H210486   4.516   2.713   1.745  0.6692 -1.0290 -4.4016
 3508TIP3   OH210487   3.050   2.086   2.256  0.0758  0.7781 -0.1178
 3508TIP3    H110488   3.036   2.124   2.343  0.7232 -0.3723  0.5173
 3508TIP3    H210489   3.098   2.005   2.273 -0.0985  0.3531 -1.5302
 3509TIP3   OH210490   0.630   4.498   5.373  0.2905 -0.1512 -0.3527
 3509TIP3    H110491   0.542   4.460   5.373  0.2532 -0.0680 -0.1066
 3509TIP3    H210492   0.664   4.479   5.286  1.1588 -2.8232  0.4762
 3510TIP3   OH210493   0.189   2.081   3.069 -0.4649 -0.3595  0.2529
 3510TIP3    H110494   0.238   2.000   3.054  0.9233  0.2068  1.5473
 3510TIP3    H210495   0.239   2.148   3.025 -0.6174  0.0720  0.7272
 3511TIP3   OH210496   4.163   4.152   2.372 -0.2783  0.4259 -0.3056
 3511TIP3    H110497   4.162   4.122   2.281 -0.6703  0.8779 -0.4559
 3511TIP3    H210498   4.209   4.083   2.420  2.4012  1.3820 -1.2603
 3512TIP3   OH210499   0.584   0.241   1.165  0.1349 -0.0592  0.2218
 3512TIP3    H110500   0.639   0.301   1.114  0.5152  0.1110  0.8178
 3512TIP3    H210501   0.495   0.261   1.136  0.0676  2.0352  1.5779
 3513TIP3   OH210502   7.090   2.422   0.186 -0.4071 -0.4700 -0.2192
 3513TIP3    H110503   7.153   2.351   0.199  0.4128  0.4184  0.9450
 3513TIP3    H210504   7.093   2.472   0.268  1.3109  2.6367 -1.9749
 3514TIP3   OH210505   4.469   6.236   4.881 -0.3071 -0.1417  0.2530
 3514TIP3    H110506   4.409   6.242   4.806 -1.5086 -0.0582  1.1978
 3514TIP3    H210507   4.555   6.255   4.843 -0.8811 -0.1147 -1.1130
 3515TIP3   OH210508   5.236   6.258   5.673 -0.2854 -0.8020 -0.1241
 3515TIP3    H110509   5.329   6.237   5.678 -0.3890 -1.1088  0.9033
 3515TIP3    H210510   5.194   6.192   5.728 -0.9177  0.3797  0.8890
 3516TIP3   OH210511   2.902   6.273   0.016 -0.0180 -0.5630  0.1155
 3516TIP3    H110512   2.880   6.358   0.055 -1.5464 -1.1145  0.5166
 3516TIP3    H210513   2.970   6.293  -0.048 -0.7710  1.0643 -0.2192
 3517TIP3   OH210514   4.138   6.463   0.404 -0.1584 -0.8433  0.1061
 3517TIP3    H110515   4.189   6.383   0.417 -0.2038 -0.9672 -0.4297
 3517TIP3    H210516   4.173   6.525   0.468  1.2107 -0.6749 -0.7644
 3518TIP3   OH210517   5.410   2.728   1.351 -0.1616  0.3329 -0.1750
 3518TIP3    H110518   5.380   2.803   1.299 -0.0748 -0.2911 -1.1364
 3518TIP3    H210519   5.331   2.677   1.368 -0.1451  0.3898  0.0808
 3519TIP3   OH210520   1.378   4.032   0.179 -0.0254  0.6263 -0.7331
 3519TIP3    H110521   1.451   4.047   0.118 -0.2231 -0.4288 -1.2670
 3519TIP3    H210522   1.301   4.062   0.131  0.0043  1.3573 -0.3301
 3520TIP3   OH210523   1.583   5.209   0.992  0.0644 -1.0722  0.4541
 3520TIP3    H110524   1.679   5.212   0.997  0.0210  1.9239  1.4887
 3520TIP3    H210525   1.560   5.281   0.933 -1.5572 -2.0846 -0.2016
 3521TIP3   OH210526   5.043   3.103   5.505 -0.1125 -0.1335  0.2928
 3521TIP3    H110527   5.129   3.075   5.535  0.5544 -0.8149 -2.0269
 3521TIP3    H210528   5.061   3.155   5.427 -1.7996  0.0185 -0.0360
 3522TIP3   OH210529   5.347   1.520   1.656 -0.6612 -0.2215  0.2720
 3522TIP3    H110530   5.332   1.551   1.745 -2.0184  0.3175 -0.1214
 3522TIP3    H210531   5.271   1.465   1.637 -1.6879  1.6341 -1.3842
 3523TIP3   OH210532   4.162   4.554   2.625 -0.5392 -0.5285 -0.0953
 3523TIP3    H110533   4.087   4.612   2.633 -0.6335 -0.5416 -0.8149
 3523TIP3    H210534   4.209   4.564   2.708 -0.2377  1.0120 -0.4193
 3524TIP3   OH210535   1.136   3.626   5.473 -0.1153  0.2219 -0.0578
 3524TIP3    H110536   1.139   3.719   5.452 -0.5532 -0.1184 -1.8509
 3524TIP3    H210537   1.123   3.583   5.388 -0.0507 -1.4639  0.7417
 3525TIP3   OH210538   5.962   6.700   4.857 -0.4120 -0.3976 -0.3120
 3525TIP3    H110539   5.917   6.629   4.811 -1.2547 -0.5182  0.6516
 3525TIP3    H210540   5.996   6.756   4.788  0.9890 -2.1388 -1.1449
 3526TIP3   OH210541   7.167   1.954   3.052 -0.1591 -0.3816  0.0978
 3526TIP3    H110542   7.127   1.993   2.974 -0.7218 -1.7620 -0.3456
 3526TIP3    H210543   7.246   2.006   3.067 -0.7215  0.7225 -0.6146
 3527TIP3   OH210544   1.338   2.959   3.809 -0.4088  0.0371  0.1563
 3527TIP3    H110545   1.360   2.872   3.775  1.5572  1.2451 -1.9467
 3527TIP3    H210546   1.419   2.990   3.849 -1.6993  0.1087  2.9199
 3528TIP3   OH210547   4.685   0.611   2.216  0.2836  0.5969 -0.5299
 3528TIP3    H110548   4.664   0.522   2.245 -1.8332  0.6381 -1.7426
 3528TIP3    H210549   4.603   0.658   2.224  0.8132  1.8471 -2.0498
 3529TIP3   OH210550   1.150   3.236   1.952  0.3020 -0.0178 -0.0957
 3529TIP3    H110551   1.081   3.170   1.947 -1.4110  1.5956  0.9580
 3529TIP3    H210552   1.114   3.313   1.908  2.1390  0.3493 -1.0594
 3530TIP3   OH210553   2.022   1.816   1.282 -0.3100 -0.1803  0.0267
 3530TIP3    H110554   1.929   1.793   1.281  0.1552 -2.3657  0.9918
 3530TIP3    H210555   2.035   1.857   1.367 -0.2407 -0.6767  0.2606
 3531TIP3   OH210556   1.256   1.863   2.268 -0.3674 -0.3242 -0.1684
 3531TIP3    H110557   1.209   1.828   2.343 -1.0628  1.9677  0.5421
 3531TIP3    H210558   1.204   1.938   2.238  0.5065 -0.4422 -2.2129
 3532TIP3   OH210559   1.086   0.841   1.572  0.2896 -0.1689  0.3108
 3532TIP3    H110560   1.116   0.931   1.559 -1.9222  0.6808  0.7447
 3532TIP3    H210561   1.038   0.820   1.493 -2.0032  0.2819  1.5049
 3533TIP3   OH210562   0.797   4.373   5.853 -0.3186 -0.5253 -0.4445
 3533TIP3    H110563   0.716   4.380   5.802 -1.1690  1.2612  1.0471
 3533TIP3    H210564   0.825   4.463   5.866  0.9103 -1.0361  0.6187
 3534TIP3   OH210565   3.995   0.206   5.039 -0.2234 -0.5489 -0.3607
 3534TIP3    H110566   3.914   0.161   5.013 -0.3315 -0.2184 -0.6024
 3534TIP3    H210567   3.966   0.274   5.100 -0.0325 -0.9592  0.2070
 3535TIP3   OH210568   3.669   3.602   1.513 -0.3483  0.1820 -0.1971
 3535TIP3    H110569   3.726   3.629   1.585  0.1296 -0.9760 -0.1283
 3535TIP3    H210570   3.603   3.547   1.554 -0.3929 -0.0395 -0.5676
 3536TIP3   OH210571   6.099   4.759   3.381 -0.1370  0.0530 -0.0018
 3536TIP3    H110572   6.065   4.707   3.308  0.1141 -2.0040  1.2810
 3536TIP3    H210573   6.022   4.776   3.436 -0.0312  0.1397  0.1207
 3537TIP3   OH210574   6.459   4.203   3.287  0.1045  0.1214 -0.6396
 3537TIP3    H110575   6.500   4.288   3.271  2.4133 -1.0387 -1.2042
 3537TIP3    H210576   6.413   4.183   3.205  0.0450  0.5561 -0.7127
 3538TIP3   OH210577   5.942   3.752   0.457  0.0213 -0.2302 -0.6176
 3538TIP3    H110578   5.906   3.828   0.502  0.7092  0.2159 -0.8103
 3538TIP3    H210579   5.949   3.779   0.365  0.5356 -0.4241 -0.6387
 3539TIP3   OH210580   4.354   4.815   2.284  0.3162 -0.3122  0.3708
 3539TIP3    H110581   4.361   4.893   2.338  0.6328  0.0204 -0.1408
 3539TIP3    H210582   4.316   4.845   2.201 -0.5829 -0.8919  0.5594
 3540TIP3   OH210583   2.861   4.566   3.630  0.5149  0.7216 -0.1348
 3540TIP3    H110584   2.892   4.653   3.655 -1.6061  1.2236  0.9522
 3540TIP3    H210585   2.901   4.507   3.694  1.3890  0.9569 -0.4448
 3541TIP3   OH210586   4.613   5.661   3.366  0.2535  0.4771 -0.1671
 3541TIP3    H110587   4.636   5.578   3.408  0.7150  0.8761  0.3702
 3541TIP3    H210588   4.695   5.694   3.329  0.1794  0.9612  0.0933
 3542TIP3   OH210589   4.912   5.909   0.685 -0.1642  0.4263  0.6751
 3542TIP3    H110590   4.995   5.906   0.638  1.4724  0.8337  3.3806
 3542TIP3    H210591   4.866   5.985   0.648  1.3359  1.1234  0.1786
 3543TIP3   OH210592   1.486   2.384   1.303  0.2266  0.3621  0.0555
 3543TIP3    H110593   1.540   2.393   1.382 -0.4859 -1.2816  0.7720
 3543TIP3    H210594   1.458   2.292   1.303  0.2643  0.2871 -2.1693
 3544TIP3   OH210595   5.978   3.492   0.321 -0.0776  0.3375 -0.0246
 3544TIP3    H110596   5.975   3.575   0.367  0.6287 -0.3117  1.2255
 3544TIP3    H210597   6.068   3.462   0.330 -0.3450 -0.6163 -0.3617
 3545TIP3   OH210598   6.422   1.827   3.815  0.3900 -0.3843  0.1593
 3545TIP3    H110599   6.422   1.899   3.878  0.2116  0.4396 -0.7727
 3545TIP3    H210600   6.480   1.761   3.854 -0.1320 -0.1190  1.4358
 3546TIP3   OH210601   3.472   0.591   5.008  0.0623  0.5497 -0.4960
 3546TIP3    H110602   3.526   0.551   5.076 -0.4023 -0.3432 -0.6394
 3546TIP3    H210603   3.490   0.538   4.929  0.9662  1.8591 -1.2118
 3547TIP3   OH210604   0.033   3.719   1.099  0.0957 -0.0933 -0.5034
 3547TIP3    H110605  -0.061   3.737   1.099 -0.0321 -0.7562 -0.4775
 3547TIP3    H210606   0.060   3.735   1.008 -0.6129 -2.7376 -1.2745
 3548TIP3   OH210607   6.730   2.612   1.156  0.6184  0.8022  0.3611
 3548TIP3    H110608   6.740   2.519   1.135  0.0546  0.9370 -0.5436
 3548TIP3    H210609   6.814   2.651   1.130  0.3931  0.7530 -0.4456
 3549TIP3   OH210610   1.420   2.179   2.983  0.0272  0.1478 -0.2576
 3549TIP3    H110611   1.386   2.129   2.908  1.1615  0.3313 -0.9263
 3549TIP3    H210612   1.425   2.115   3.054 -0.3280 -0.2223 -0.5617
 3550TIP3   OH210613   2.324   1.184   0.079 -0.0368 -0.0211 -0.0279
 3550TIP3    H110614   2.229   1.174   0.091 -0.5307  1.0607 -2.4883
 3550TIP3    H210615   2.359   1.096   0.093 -1.5444 -0.6978 -0.2735
 3551TIP3   OH210616   2.136   5.050   4.136  0.0654 -0.3502 -0.0873
 3551TIP3    H110617   2.166   5.137   4.113 -0.3631 -0.3190 -0.5246
 3551TIP3    H210618   2.128   5.004   4.053 -0.2100 -0.6480  0.1009
 3552TIP3   OH210619   4.560   4.085   1.199  0.4344  0.0535  0.6760
 3552TIP3    H110620   4.560   4.093   1.295  0.0801  2.5713  0.5265
 3552TIP3    H210621   4.637   4.032   1.180  0.7436 -0.1603  2.3359
 3553TIP3   OH210622   5.303   2.211   0.754  0.1658  0.4427 -1.0411
 3553TIP3    H110623   5.322   2.124   0.789 -0.1026  0.4446 -0.8896
 3553TIP3    H210624   5.372   2.227   0.689 -0.2127 -0.1933 -1.6112
 3554TIP3   OH210625   2.632   3.407   0.119 -0.0989 -0.7056  0.3011
 3554TIP3    H110626   2.646   3.498   0.144  0.2569 -0.9013  0.8263
 3554TIP3    H210627   2.680   3.356   0.185  0.7812 -1.2350 -0.7174
 3555TIP3   OH210628   3.467   4.433   4.240  0.2568  0.2564  0.1660
 3555TIP3    H110629   3.433   4.507   4.189  1.0628 -0.2136 -1.1049
 3555TIP3    H210630   3.398   4.414   4.304 -0.7061  1.0100 -0.6085
 3556TIP3   OH210631   6.362   3.186   0.867  0.4184 -0.3336  0.2181
 3556TIP3    H110632   6.422   3.145   0.805  0.1634 -1.6579  0.8039
 3556TIP3    H210633   6.402   3.270   0.888  0.7326 -0.0591 -1.3790
 3557TIP3   OH210634   6.203   0.750   4.729 -0.0900  0.3418  0.2949
 3557TIP3    H110635   6.203   0.778   4.820 -0.0216 -1.4639  0.8862
 3557TIP3    H210636   6.283   0.698   4.719  0.5622  1.5420 -1.1575
 3558TIP3   OH210637   0.672   6.295   4.298 -0.6767 -0.3323  0.1026
 3558TIP3    H110638   0.587   6.316   4.259 -0.4720  1.0078  0.3369
 3558TIP3    H210639   0.656   6.298   4.392 -0.2886  0.3064  0.1509
 3559TIP3   OH210640   5.260   4.473   5.769 -0.3403 -0.2230 -0.2364
 3559TIP3    H110641   5.184   4.425   5.736  0.6684 -0.0276 -3.1407
 3559TIP3    H210642   5.226   4.526   5.840 -2.3368 -2.1495  0.3699
 3560TIP3   OH210643   3.967   0.161   4.287  0.6086 -0.0961  0.6441
 3560TIP3    H110644   3.904   0.192   4.222 -0.4972 -2.6032  0.4407
 3560TIP3    H210645   4.025   0.102   4.239  1.3967  0.0255  1.4135
 3561TIP3   OH210646   3.495   3.772   1.347  0.1339 -0.1490 -0.4208
 3561TIP3    H110647   3.535   3.815   1.271  0.5905  1.1706  0.5286
 3561TIP3    H210648   3.568   3.741   1.400 -0.1892 -1.8213 -0.8912
 3562TIP3   OH210649   1.175   1.384   3.938  0.2258 -0.5410 -0.2424
 3562TIP3    H110650   1.161   1.293   3.964 -2.4980  0.1496  1.0163
 3562TIP3    H210651   1.102   1.404   3.879  0.8143  0.8312 -0.5374
 3563TIP3   OH210652   0.212   3.010   0.808  0.7530  0.0701  0.0936
 3563TIP3    H110653   0.273   2.939   0.788 -0.7565 -1.2660  0.0011
 3563TIP3    H210654   0.265   3.089   0.805  2.4558 -1.0245 -0.0202
 3564TIP3   OH210655   0.366   2.669   2.847  0.1572 -0.4013 -0.4251
 3564TIP3    H110656   0.413   2.612   2.908  0.5873 -0.0775 -0.4474
 3564TIP3    H210657   0.360   2.753   2.893 -1.4161 -0.7342  0.0596
 3565TIP3   OH210658   4.191   4.676   5.144 -0.5408 -0.6506  0.3857
 3565TIP3    H110659   4.137   4.605   5.180 -1.2420 -0.2033  0.2322
 3565TIP3    H210660   4.139   4.755   5.159 -0.0941 -0.2633 -0.1107
 3566TIP3   OH210661   2.208   2.426   3.267 -0.2825 -0.0333 -0.0520
 3566TIP3    H110662   2.136   2.376   3.229 -1.6473  1.2537  0.7607
 3566TIP3    H210663   2.218   2.390   3.356  1.3351 -1.4327 -0.7374
 3567TIP3   OH210664   0.672   4.322   2.439  0.3646  0.2824  0.2833
 3567TIP3    H110665   0.624   4.254   2.392 -1.0825 -0.0451  2.1151
 3567TIP3    H210666   0.621   4.401   2.425 -0.6766 -0.0239  2.0645
 3568TIP3   OH210667   2.655   0.946   2.704 -0.5258  0.1802 -0.5132
 3568TIP3    H110668   2.584   0.971   2.763  0.1437 -0.0126  0.4027
 3568TIP3    H210669   2.733   0.989   2.740  0.1374 -1.0074 -0.4726
 3569TIP3   OH210670   6.535   4.875   2.584 -0.1189  0.2609  0.5091
 3569TIP3    H110671   6.510   4.807   2.646 -1.2094  0.7025  0.5765
 3569TIP3    H210672   6.472   4.868   2.512 -0.6270  1.5598  0.7953
 3570TIP3   OH210673   0.418   4.096   3.751 -0.0790 -0.0734  0.0884
 3570TIP3    H110674   0.371   4.056   3.825 -0.2872  0.3572  0.1953
 3570TIP3    H210675   0.503   4.052   3.750  0.6879  1.2218  1.7968
 3571TIP3   OH210676   6.876   4.947   3.097  0.6428  0.1374  0.0440
 3571TIP3    H110677   6.866   4.865   3.146  2.7574 -1.0318 -1.3322
 3571TIP3    H210678   6.935   4.925   3.025 -0.9057  2.2253 -2.0001
 3572TIP3   OH210679   4.740   5.951   2.107  0.4627  0.1289  0.1828
 3572TIP3    H110680   4.716   5.998   2.026 -0.4531  0.8203  0.8292
 3572TIP3    H210681   4.757   5.861   2.078 -2.4308 -0.3095 -0.4637
 3573TIP3   OH210682   6.842   5.902   4.509 -0.2065  0.0368 -0.0429
 3573TIP3    H110683   6.929   5.860   4.512 -1.0660 -1.8660 -0.0871
 3573TIP3    H210684   6.822   5.922   4.601 -0.4541 -1.1822  0.1850
 3574TIP3   OH210685   7.244   5.847   0.838 -0.1339  0.4743 -0.1055
 3574TIP3    H110686   7.167   5.793   0.820  0.2437  0.5389 -2.1377
 3574TIP3    H210687   7.211   5.937   0.832 -0.1519  0.4945  0.2827
 3575TIP3   OH210688   5.935   4.168   4.776  0.0414  0.5976 -0.1482
 3575TIP3    H110689   5.914   4.180   4.683  0.3486  0.6425 -0.2155
 3575TIP3    H210690   5.927   4.256   4.814  0.0993  0.6135 -0.1723
 3576TIP3   OH210691   4.036   3.484   5.105  0.1160  0.0314 -0.1186
 3576TIP3    H110692   4.113   3.505   5.159 -1.0108  0.1241  1.5081
 3576TIP3    H210693   4.060   3.515   5.017  1.5458  0.9860  0.5600
 3577TIP3   OH210694   6.024   1.528   1.607  0.7397  0.1447 -0.0762
 3577TIP3    H110695   5.982   1.445   1.628 -0.0796  1.2326  3.0326
 3577TIP3    H210696   6.084   1.507   1.535  1.9709 -3.5771  1.7920
 3578TIP3   OH210697   6.749   6.539   0.871 -0.0549 -0.2524 -0.0400
 3578TIP3    H110698   6.658   6.524   0.848 -0.7587  1.5481  1.3300
 3578TIP3    H210699   6.766   6.630   0.845  1.4490 -0.6347 -0.5340
 3579TIP3   OH210700   0.734   0.599   4.672 -0.2892 -0.8248 -0.3934
 3579TIP3    H110701   0.701   0.557   4.592 -2.4203 -0.8124  0.4159
 3579TIP3    H210702   0.680   0.564   4.742  1.2664 -0.5272  1.0321
 3580TIP3   OH210703   6.788   5.725   3.387  0.1580 -0.1264  0.2077
 3580TIP3    H110704   6.734   5.706   3.464  1.6536 -0.4333  1.2189
 3580TIP3    H210705   6.756   5.665   3.320  0.2640 -1.4068  1.2652
 3581TIP3   OH210706   5.053   4.534   2.098  0.0842  0.1735 -0.0676
 3581TIP3    H110707   5.112   4.525   2.173  1.7701  3.2594 -0.8338
 3581TIP3    H210708   4.965   4.531   2.136  0.8355  0.1112  1.7992
 3582TIP3   OH210709   3.417   0.318   1.263 -0.2105 -0.1553  0.5678
 3582TIP3    H110710   3.474   0.394   1.269  0.8329 -0.8004 -0.6058
 3582TIP3    H210711   3.476   0.243   1.267 -0.6156 -0.8406 -2.7416
 3583TIP3   OH210712   2.354   2.389   2.737 -0.0342  0.5553 -0.2827
 3583TIP3    H110713   2.368   2.367   2.645  1.1325  0.7929 -0.1809
 3583TIP3    H210714   2.436   2.431   2.764 -0.2972  0.3358  0.9086
 3584TIP3   OH210715   4.992   2.123   1.304 -0.4577 -0.1158 -0.3143
 3584TIP3    H110716   4.999   2.069   1.225  1.6992 -0.5491  0.0970
 3584TIP3    H210717   4.969   2.061   1.373 -0.7400 -0.0211 -0.3237
 3585TIP3   OH210718   4.736   1.705   4.678 -0.3296 -0.0135  0.4077
 3585TIP3    H110719   4.652   1.737   4.712 -0.6335 -1.6434  1.2977
 3585TIP3    H210720   4.719   1.687   4.586 -1.2915 -1.3533  0.8306
 3586TIP3   OH210721   5.571   6.232   0.462 -0.6127 -0.0053  0.3804
 3586TIP3    H110722   5.539   6.242   0.372 -2.5499 -0.3460  0.9840
 3586TIP3    H210723   5.600   6.141   0.467 -0.6924 -0.0435  0.1689
 3587TIP3   OH210724   4.571   3.768   0.929  0.8646 -0.9673  0.6049
 3587TIP3    H110725   4.569   3.860   0.905 -0.7330 -1.3021 -0.7192
 3587TIP3    H210726   4.664   3.746   0.934  1.2556  0.5149  0.1646
 3588TIP3   OH210727   6.104   0.922   5.229 -0.0230 -0.2176  0.9439
 3588TIP3    H110728   6.147   0.986   5.286 -0.2374  1.2173 -0.4129
 3588TIP3    H210729   6.010   0.936   5.244 -0.0786 -1.7456  2.2143
 3589TIP3   OH210730   5.123   4.797   5.496 -0.5376 -0.0979 -0.1054
 3589TIP3    H110731   5.140   4.710   5.460  0.0672  0.4374 -1.1728
 3589TIP3    H210732   5.055   4.833   5.439 -0.7486  0.1561  0.3020
 3590TIP3   OH210733   2.096   3.041   5.805  0.7077 -0.4792  0.0335
 3590TIP3    H110734   2.062   3.127   5.782  0.4405 -0.8594 -1.0869
 3590TIP3    H210735   2.019   2.983   5.802  0.8820 -0.7581  0.7706
 3591TIP3   OH210736   3.116   4.805   0.239  0.2496 -0.0972  0.3310
 3591TIP3    H110737   3.172   4.880   0.222  0.6970 -0.9664 -2.6099
 3591TIP3    H210738   3.027   4.840   0.234  0.4626  0.3741 -0.3585
 3592TIP3   OH210739   2.168   2.618   3.560  0.3724 -0.3275 -0.0835
 3592TIP3    H110740   2.151   2.682   3.629 -1.7379  1.1621 -1.8414
 3592TIP3    H210741   2.123   2.653   3.483  1.9722 -2.2766 -2.0529
 3593TIP3   OH210742   3.150   4.560   5.607 -0.7549  0.2056 -1.1011
 3593TIP3    H110743   3.061   4.590   5.589 -0.6999  1.5877  0.6687
 3593TIP3    H210744   3.206   4.620   5.559 -0.7370 -0.4473 -1.9266
 3594TIP3   OH210745   6.729   3.656   0.757  0.0283  0.6914  0.2044
 3594TIP3    H110746   6.712   3.717   0.685  0.0366 -0.8911 -1.1921
 3594TIP3    H210747   6.670   3.582   0.741  1.6915 -0.7629  0.4552
 3595TIP3   OH210748   3.799   2.057   0.852 -0.2008 -0.3040  0.0444
 3595TIP3    H110749   3.849   2.122   0.902  0.3066 -0.5980 -0.0790
 3595TIP3    H210750   3.822   2.074   0.760 -1.8892  0.8890 -0.2041
 3596TIP3   OH210751   7.071   0.454   0.831 -0.3060 -0.7848 -0.6824
 3596TIP3    H110752   7.143   0.492   0.880 -0.8471 -0.8473  0.1785
 3596TIP3    H210753   7.085   0.359   0.837 -0.7703 -0.8194 -0.0108
 3597TIP3   OH210754   0.626   5.484   5.176 -0.0338  0.0314  0.2300
 3597TIP3    H110755   0.565   5.540   5.128 -1.0223 -0.6764  0.6263
 3597TIP3    H210756   0.609   5.504   5.268 -0.1152 -0.6233  0.3629
 3598TIP3   OH210757   1.649   3.624   3.566  0.0712 -0.5766  0.4318
 3598TIP3    H110758   1.564   3.667   3.569  0.7187  1.1379 -2.3363
 3598TIP3    H210759   1.713   3.696   3.573  1.3058 -1.7243  1.5422
 3599TIP3   OH210760   5.695   0.723   5.683  0.4105  0.1339 -0.3724
 3599TIP3    H110761   5.652   0.756   5.604  0.3477 -0.9758 -0.8173
 3599TIP3    H210762   5.735   0.640   5.656  3.6559  1.5010 -0.2442
 3600TIP3   OH210763   6.327   0.294   4.116  0.2478  0.0963  0.6112
 3600TIP3    H110764   6.293   0.239   4.045  1.1035 -0.0967  0.3429
 3600TIP3    H210765   6.273   0.372   4.114 -0.0093 -0.0922  0.0205
 3601TIP3   OH210766   1.997   5.594   5.244  0.3291  0.2250 -0.1302
 3601TIP3    H110767   2.014   5.503   5.222 -0.8623 -0.0078 -0.1140
 3601TIP3    H210768   1.906   5.596   5.273 -0.6108  1.8809 -2.8314
 3602TIP3   OH210769   3.907   5.681   0.339 -0.5672  0.3797  0.0001
 3602TIP3    H110770   3.951   5.659   0.421 -0.7252 -0.2626 -0.0780
 3602TIP3    H210771   3.843   5.749   0.363  0.5639  1.4528  0.0747
 3603TIP3   OH210772   3.498   4.109   1.435  0.3072  0.5041 -0.1872
 3603TIP3    H110773   3.553   4.163   1.492  0.6839  0.6808 -0.7056
 3603TIP3    H210774   3.559   4.073   1.370 -0.3026  1.4243 -1.3217
 3604TIP3   OH210775   6.339   2.527   0.290 -0.0523 -0.2371 -0.6686
 3604TIP3    H110776   6.386   2.551   0.210 -1.7075  1.3307 -1.2393
 3604TIP3    H210777   6.349   2.602   0.348  0.2578 -0.9354  0.1980
 3605TIP3   OH210778   0.623   1.186   5.707 -0.3631  0.1375 -0.0265
 3605TIP3    H110779   0.573   1.253   5.754  1.7009  0.8330  1.3016
 3605TIP3    H210780   0.591   1.192   5.617 -3.1960 -0.0246  0.8499
 3606TIP3   OH210781   5.828   6.486   5.268  0.0654 -0.0526  0.0452
 3606TIP3    H110782   5.872   6.403   5.287 -0.9667 -0.4283  0.8484
 3606TIP3    H210783   5.738   6.461   5.248 -0.1301  0.8348 -0.1890
 3607TIP3   OH210784   5.982   4.615   1.148 -0.7855 -0.7297 -0.0840
 3607TIP3    H110785   5.907   4.597   1.091 -0.5191  1.3555 -1.2162
 3607TIP3    H210786   5.943   4.634   1.233 -1.5116 -0.3579 -0.4872
 3608TIP3   OH210787   0.444   5.933   0.769 -0.1652 -0.1379 -0.3120
 3608TIP3    H110788   0.501   5.912   0.695 -0.1644  0.2409 -0.4236
 3608TIP3    H210789   0.367   5.878   0.756 -0.2148  0.0085 -0.6598
 3609TIP3   OH210790   0.299   4.779   2.071 -0.2411  0.0635  0.0507
 3609TIP3    H110791   0.249   4.717   2.125 -0.8115 -0.9946 -1.6277
 3609TIP3    H210792   0.234   4.821   2.016  0.2425  1.6702  0.6282
 3610TIP3   OH210793   4.454   6.714   1.695  0.3036  0.1060  0.3671
 3610TIP3    H110794   4.479   6.694   1.785  0.8666  0.9902  0.4159
 3610TIP3    H210795   4.491   6.642   1.643 -0.0058 -0.3936  0.8260
 3611TIP3   OH210796   4.912   0.078   0.133 -0.2455 -0.0169 -0.2781
 3611TIP3    H110797   4.945   0.164   0.107  0.5073 -0.2892 -0.2435
 3611TIP3    H210798   4.929   0.022   0.058 -0.7712 -0.1328 -0.3155
 3612TIP3   OH210799   6.767   4.371   0.411 -0.1609 -0.1314 -0.1112
 3612TIP3    H110800   6.772   4.302   0.345 -1.2801  0.2639 -0.6317
 3612TIP3    H210801   6.856   4.407   0.414  0.3732 -1.3836 -0.0310
 3613TIP3   OH210802   6.291   0.667   2.288 -0.1903 -0.3247 -0.4098
 3613TIP3    H110803   6.367   0.641   2.237  0.0014 -1.0520  0.2190
 3613TIP3    H210804   6.295   0.762   2.291  1.3698 -0.3728  0.5753
 3614TIP3   OH210805   1.272   6.614   0.204 -0.1123 -0.0937 -0.2824
 3614TIP3    H110806   1.253   6.679   0.137 -0.0892  0.3965  0.1813
 3614TIP3    H210807   1.360   6.636   0.234 -0.2450 -0.1159  0.1265
 3615TIP3   OH210808   6.007   4.156   4.290 -0.4423 -0.1992  0.1605
 3615TIP3    H110809   6.002   4.137   4.196  3.0176 -1.3415  0.0735
 3615TIP3    H210810   6.019   4.071   4.331 -1.3354  0.3499  1.6315
 3616TIP3   OH210811   3.426   5.102   3.523  0.4767  0.7061  0.1758
 3616TIP3    H110812   3.428   5.068   3.433 -1.5792  1.1279 -0.0851
 3616TIP3    H210813   3.395   5.192   3.514  2.0347  1.3882  1.1908
 3617TIP3   OH210814   1.728   6.349   2.092  0.7171  0.0992  0.0716
 3617TIP3    H110815   1.770   6.267   2.115  1.8154  0.6327  0.0473
 3617TIP3    H210816   1.692   6.382   2.174  1.6057  0.3154  0.3896
 3618TIP3   OH210817   3.356   4.554   3.608  0.1592  0.7376  0.3554
 3618TIP3    H110818   3.349   4.650   3.603 -2.5729  0.7893  2.5962
 3618TIP3    H210819   3.343   4.524   3.518  1.0195  2.4166 -0.3877
 3619TIP3   OH210820   0.550   3.108   3.191 -0.2786 -0.0345  0.0104
 3619TIP3    H110821   0.614   3.156   3.139 -0.6026 -0.3686 -0.7123
 3619TIP3    H210822   0.504   3.176   3.241  1.0338  0.1622  1.0280
 3620TIP3   OH210823   5.604   6.177   5.448  0.0804 -0.0295 -0.2303
 3620TIP3    H110824   5.606   6.271   5.433 -0.5469 -0.1520 -1.2075
 3620TIP3    H210825   5.586   6.168   5.542 -1.2242  0.8339 -0.3684
 3621TIP3   OH210826   0.927   0.061   1.271  0.6898 -0.3712 -0.2040
 3621TIP3    H110827   0.835   0.057   1.295  0.9218  0.9930  1.0566
 3621TIP3    H210828   0.941  -0.015   1.215 -0.3474 -2.7514  2.5364
 3622TIP3   OH210829   4.606   6.602   3.022  0.6068  0.2491 -0.1268
 3622TIP3    H110830   4.646   6.679   2.981  0.5420 -0.3376 -1.3197
 3622TIP3    H210831   4.553   6.562   2.953  0.0718 -0.4773  0.6795
 3623TIP3   OH210832   6.905   4.115   3.718 -0.0392 -0.0959  0.4361
 3623TIP3    H110833   6.905   4.194   3.771 -1.6419  1.5560 -1.8619
 3623TIP3    H210834   6.852   4.052   3.768  0.8044  0.3972  2.0269
 3624TIP3   OH210835   1.093   2.363   1.716 -0.0326  0.0753  0.2310
 3624TIP3    H110836   1.049   2.369   1.800 -2.2290  0.4521 -0.8770
 3624TIP3    H210837   1.145   2.443   1.710 -0.9576  0.7167  0.6534
 3625TIP3   OH210838   2.720   1.801   0.532  0.0471 -0.1751 -0.1967
 3625TIP3    H110839   2.681   1.744   0.598 -1.4008  1.7244  0.6898
 3625TIP3    H210840   2.657   1.801   0.460 -1.0920  1.8830  0.7009
 3626TIP3   OH210841   2.801   5.795   4.899 -0.4543 -0.2033 -0.8067
 3626TIP3    H110842   2.711   5.826   4.885 -0.6979 -0.9879 -1.0086
 3626TIP3    H210843   2.810   5.721   4.840 -0.0748 -0.8975  0.1031
 3627TIP3   OH210844   5.466   5.127   1.858 -0.0089  0.3050  0.2839
 3627TIP3    H110845   5.498   5.088   1.777 -0.3226  0.1445  0.2346
 3627TIP3    H210846   5.376   5.095   1.866 -0.0526  0.4975  0.5805
 3628TIP3   OH210847   3.983   3.038   0.031 -0.3682  0.6091  0.6830
 3628TIP3    H110848   4.000   3.065   0.121  1.0716  0.3562  0.5100
 3628TIP3    H210849   4.028   2.954   0.022  2.7783  2.2825 -1.2691
 3629TIP3   OH210850   1.482   2.467   1.022 -0.2244 -0.4469  0.2794
 3629TIP3    H110851   1.494   2.436   1.112 -0.3052 -1.0037  0.1051
 3629TIP3    H210852   1.569   2.460   0.982 -0.1294  0.0610  0.3894
 3630TIP3   OH210853   5.651   0.488   3.085  0.1756 -0.1128  0.7544
 3630TIP3    H110854   5.691   0.424   3.026 -2.6417 -1.6066  0.2952
 3630TIP3    H210855   5.649   0.569   3.035  0.7428 -0.5150  0.0594
 3631TIP3   OH210856   6.587   4.583   0.787  0.3779 -0.1741  0.5351
 3631TIP3    H110857   6.611   4.502   0.832  1.9399  0.0660  0.2022
 3631TIP3    H210858   6.570   4.556   0.696 -0.6944 -0.3439  0.7703
 3632TIP3   OH210859   0.751   3.011   5.823  0.1385 -0.2384 -0.0338
 3632TIP3    H110860   0.832   3.061   5.833  0.7291 -1.0409 -0.6887
 3632TIP3    H210861   0.725   3.024   5.732 -0.6444  0.2496  0.2431
 3633TIP3   OH210862   3.328   1.293   0.294  0.1497  0.0836 -0.0461
 3633TIP3    H110863   3.281   1.340   0.363 -1.1465 -1.0261 -0.1233
 3633TIP3    H210864   3.262   1.280   0.226  0.5686 -1.4494 -0.1985
 3634TIP3   OH210865   5.569   4.055   2.535  0.0202  0.3286 -0.4640
 3634TIP3    H110866   5.599   4.097   2.454  1.4455  1.3871  0.5625
 3634TIP3    H210867   5.650   4.029   2.579 -0.7878 -1.8058 -0.1620
 3635TIP3   OH210868   4.145   3.704   0.106 -0.1714 -0.6350 -0.3738
 3635TIP3    H110869   4.123   3.792   0.077  0.3846 -0.2260  0.4200
 3635TIP3    H210870   4.108   3.647   0.039  0.0250  0.2218 -1.2302
 3636TIP3   OH210871   0.848   0.293   3.843  0.3396  0.1690 -0.5240
 3636TIP3    H110872   0.894   0.376   3.859 -0.6921  0.6503  0.0989
 3636TIP3    H210873   0.833   0.291   3.749  1.0076  0.3405 -0.6374
 3637TIP3   OH210874   3.190   2.331   1.506  0.7276  0.3617  0.2669
 3637TIP3    H110875   3.133   2.257   1.528 -0.1969  0.6701 -0.9720
 3637TIP3    H210876   3.153   2.405   1.555 -0.1876  0.6399 -0.8101
 3638TIP3   OH210877   3.768   3.237   4.722  0.4759  0.4945 -0.2334
 3638TIP3    H110878   3.741   3.148   4.697  1.8500 -0.5949  1.8413
 3638TIP3    H210879   3.709   3.294   4.674 -1.2316 -1.5717 -0.7660
 3639TIP3   OH210880   1.567   3.602   5.066  0.1884 -0.2571 -0.2032
 3639TIP3    H110881   1.618   3.549   5.128 -0.6497  0.1306  0.8359
 3639TIP3    H210882   1.487   3.552   5.052 -0.6793  0.7713  0.9043
 3640TIP3   OH210883   0.128   3.292   5.791  0.4157 -0.0874  0.4386
 3640TIP3    H110884   0.220   3.264   5.788 -0.0023 -1.5740  0.3857
 3640TIP3    H210885   0.082   3.215   5.824 -0.9236  0.3243 -0.4196
 3641TIP3   OH210886   2.088   3.757   2.075  0.1807  0.4811 -0.3670
 3641TIP3    H110887   2.167   3.801   2.106 -0.5470  0.8406  1.0892
 3641TIP3    H210888   2.050   3.718   2.154  0.0869 -1.6466 -1.3948
 3642TIP3   OH210889   5.215   6.756   2.142 -0.4843 -0.5484  0.0628
 3642TIP3    H110890   5.134   6.776   2.189 -1.1844  2.1772 -2.0082
 3642TIP3    H210891   5.257   6.841   2.129  1.2828 -1.5608 -1.3852
 3643TIP3   OH210892   6.421   4.391   2.535  0.4856  1.0787  0.5115
 3643TIP3    H110893   6.388   4.393   2.445  1.2409 -0.8476  0.1475
 3643TIP3    H210894   6.510   4.424   2.528  0.9579 -0.1616  0.3077
 3644TIP3   OH210895   7.156   4.772   3.447  0.2891 -0.0717  0.3412
 3644TIP3    H110896   7.168   4.762   3.352 -1.8360  0.6390 -0.0408
 3644TIP3    H210897   7.120   4.860   3.458  0.8735  0.0006  1.8662
 3645TIP3   OH210898   5.036   0.622   4.543 -0.0255  0.1354  0.4411
 3645TIP3    H110899   4.972   0.586   4.482 -0.3349 -0.4018  1.0570
 3645TIP3    H210900   5.108   0.559   4.543 -0.7217 -0.7112  1.7822
 3646TIP3   OH210901   2.423   0.044   1.195 -0.2965  0.3558 -0.0624
 3646TIP3    H110902   2.446  -0.036   1.242  0.8128  0.7066  0.0359
 3646TIP3    H210903   2.492   0.054   1.130 -0.3084  1.3228  0.0534
 3647TIP3   OH210904   1.578   5.272   5.535  0.2510  0.0141  0.4397
 3647TIP3    H110905   1.506   5.335   5.532  0.8955  0.7382 -0.2419
 3647TIP3    H210906   1.654   5.320   5.503  1.1271 -0.6404  1.4314
 3648TIP3   OH210907   2.867   3.305   5.607 -0.2755 -0.4592  0.0282
 3648TIP3    H110908   2.861   3.359   5.529 -1.6096  0.7839  0.9378
 3648TIP3    H210909   2.961   3.286   5.616  0.0373  0.3890 -1.1818
 3649TIP3   OH210910   3.869   0.333   0.226  0.3099 -0.1806  0.5009
 3649TIP3    H110911   3.787   0.287   0.244  0.7361 -0.1050  3.1036
 3649TIP3    H210912   3.935   0.263   0.221  0.2419 -0.1773 -0.6937
 3650TIP3   OH210913   4.299   6.462   2.153 -0.4797 -0.1995 -0.0970
 3650TIP3    H110914   4.273   6.486   2.242  0.5977 -0.7993  0.4008
 3650TIP3    H210915   4.250   6.381   2.135 -0.3532 -0.3257  0.1238
 3651TIP3   OH210916   5.263   1.367   2.400 -0.3583 -0.1379 -0.3518
 3651TIP3    H110917   5.352   1.361   2.434  0.2571  1.1037 -1.6594
 3651TIP3    H210918   5.235   1.456   2.421 -2.0572 -1.0798  1.7467
 3652TIP3   OH210919   5.087   6.241   1.651  0.3505  0.0284  0.3921
 3652TIP3    H110920   5.053   6.237   1.740  1.4566 -0.6467  0.7933
 3652TIP3    H210921   5.182   6.248   1.661  0.5939 -1.2877 -0.7403
 3653TIP3   OH210922   1.802   4.329   5.232 -0.3827 -0.4646 -0.3882
 3653TIP3    H110923   1.806   4.288   5.145 -1.7595  1.1412 -1.2635
 3653TIP3    H210924   1.852   4.409   5.223  0.1080 -0.6534  0.5478
 3654TIP3   OH210925   1.454   4.783   4.312 -0.0752 -0.2498  0.1989
 3654TIP3    H110926   1.418   4.696   4.330 -2.4710  0.1810 -2.0089
 3654TIP3    H210927   1.518   4.768   4.242  0.0791 -0.3210  0.3540
 3655TIP3   OH210928   2.344   5.469   0.059 -0.3845  0.1934 -0.2136
 3655TIP3    H110929   2.262   5.480   0.107  0.2149  0.0574  0.8723
 3655TIP3    H210930   2.342   5.377   0.030 -1.5608  0.7446 -2.0446
 3656TIP3   OH210931   4.853   5.693   4.156 -0.0072 -0.3816  0.1999
 3656TIP3    H110932   4.858   5.741   4.073 -0.1053 -0.4512  0.1529
 3656TIP3    H210933   4.767   5.650   4.153  0.0346 -0.4714  0.2901
 3657TIP3   OH210934   6.958   1.709   2.829 -0.0542 -0.4135  0.4957
 3657TIP3    H110935   6.955   1.753   2.914  0.6739  0.5164  0.0603
 3657TIP3    H210936   6.963   1.780   2.765  0.3136 -1.1151 -0.2749
 3658TIP3   OH210937   5.982   3.621   5.022  0.4527 -0.4326  0.2551
 3658TIP3    H110938   5.965   3.608   5.116  0.0553  0.0447  0.2479
 3658TIP3    H210939   6.075   3.641   5.017  0.4095 -0.1435  0.5834
 3659TIP3   OH210940   3.428   3.965   1.134  0.5075  0.5505  0.3234
 3659TIP3    H110941   3.388   4.043   1.094 -1.2799 -0.5423 -0.1553
 3659TIP3    H210942   3.518   3.966   1.104  0.3349  2.0579 -0.2477
 3660TIP3   OH210943   3.612   6.212   4.499  0.2609  0.0150 -0.9154
 3660TIP3    H110944   3.547   6.206   4.568  0.6905 -0.7922 -0.5703
 3660TIP3    H210945   3.567   6.181   4.420  0.4521 -1.3801 -0.5096
 3661TIP3   OH210946   2.018   4.731   3.625 -0.7151 -0.1097 -0.3744
 3661TIP3    H110947   2.057   4.816   3.604 -2.2688  1.4846  2.5097
 3661TIP3    H210948   2.076   4.693   3.691 -0.4459 -0.9638 -1.0830
 3662TIP3   OH210949   6.913   5.348   5.368  0.5931 -0.0686  0.0159
 3662TIP3    H110950   6.936   5.406   5.296  1.1517 -0.1998  0.0826
 3662TIP3    H210951   6.997   5.319   5.403  0.3255 -0.2692  0.5068
 3663TIP3   OH210952   6.071   0.390   3.337  0.1125 -0.4592  0.4073
 3663TIP3    H110953   6.139   0.380   3.404  0.0582  0.9335  0.6992
 3663TIP3    H210954   6.017   0.462   3.368 -1.2405 -1.2447 -0.0598
 3664TIP3   OH210955   1.043   4.429   3.953 -0.0234  0.3468 -0.5778
 3664TIP3    H110956   1.087   4.344   3.958  0.9708  0.7856 -1.3323
 3664TIP3    H210957   0.950   4.409   3.955  0.2025 -0.7223 -0.2912
 3665TIP3   OH210958   3.074   1.321   0.408 -0.1290  0.1430 -0.1870
 3665TIP3    H110959   3.070   1.226   0.407 -0.5136  0.1492  0.4276
 3665TIP3    H210960   3.102   1.343   0.497  1.1892  0.5681 -0.6750
 3666TIP3   OH210961   3.710   3.132   4.140 -0.2600  0.2156 -0.1873
 3666TIP3    H110962   3.701   3.210   4.195  0.2363  1.0437 -1.2559
 3666TIP3    H210963   3.619   3.106   4.122 -0.4282  0.2525  0.5701
 3667TIP3   OH210964   4.929   6.303   1.246  0.0887 -0.2300  0.2527
 3667TIP3    H110965   4.926   6.359   1.169  1.1086  1.4300  1.3644
 3667TIP3    H210966   4.938   6.214   1.211 -0.0055  0.4278 -1.5310
 3668TIP3   OH210967   1.469   0.987   4.518  0.0064  0.4075 -0.0595
 3668TIP3    H110968   1.414   0.909   4.524  0.7957 -0.1856 -0.3030
 3668TIP3    H210969   1.482   1.015   4.609  0.0029  0.0493  0.0502
 3669TIP3   OH210970   4.623   4.900   2.350  0.4933 -0.4343  0.8601
 3669TIP3    H110971   4.627   4.806   2.371  0.1268 -0.4741  0.7637
 3669TIP3    H210972   4.530   4.922   2.359  0.5187 -0.1730  0.4782
 3670TIP3   OH210973   1.909   2.382   3.305  0.0568 -0.0886  0.8294
 3670TIP3    H110974   1.833   2.328   3.282 -0.4058  0.4928  0.9472
 3670TIP3    H210975   1.905   2.388   3.401  0.2026  0.0069  0.8293
 3671TIP3   OH210976   3.632   0.551   4.626  0.2246 -0.1910 -0.1540
 3671TIP3    H110977   3.611   0.557   4.533 -0.1319 -0.5754 -0.0996
 3671TIP3    H210978   3.692   0.624   4.642  1.2922 -0.8705 -0.9487
 3672TIP3   OH210979   0.425   0.522   5.782  0.0726  0.2031  0.3457
 3672TIP3    H110980   0.491   0.477   5.729  0.6187  1.5501 -0.1624
 3672TIP3    H210981   0.350   0.464   5.780 -0.5534  0.8503 -3.3339
 3673TIP3   OH210982   3.334   1.436   3.525 -0.0697  0.6153 -0.3028
 3673TIP3    H110983   3.267   1.498   3.496  0.5340  1.2696 -0.3459
 3673TIP3    H210984   3.313   1.354   3.481 -1.0080  0.7339 -0.0804
 3674TIP3   OH210985   0.263   1.860   4.455  0.4700 -0.3492 -0.3726
 3674TIP3    H110986   0.207   1.786   4.431  0.0279  0.1395 -0.8746
 3674TIP3    H210987   0.256   1.920   4.381  0.2018  0.5576  0.3692
 3675TIP3   OH210988   5.609   5.320   0.766  0.0622 -0.4206 -0.0477
 3675TIP3    H110989   5.667   5.350   0.696 -1.0843  0.3777 -0.6840
 3675TIP3    H210990   5.572   5.238   0.732 -2.6220  1.2873 -1.7266
 3676TIP3   OH210991   3.855   1.039   5.058 -0.3654 -0.1176  0.3502
 3676TIP3    H110992   3.930   1.005   5.107 -0.4433 -1.4579 -0.4037
 3676TIP3    H210993   3.894   1.076   4.979 -0.4860 -0.9122 -0.0927
 3677TIP3   OH210994   4.826   6.479   5.362 -0.5836 -0.1575  0.4683
 3677TIP3    H110995   4.871   6.464   5.446 -0.2087 -1.8698 -0.0004
 3677TIP3    H210996   4.837   6.573   5.346  4.8344 -0.6543 -0.6437
 3678TIP3   OH210997   1.591   3.413   4.571  0.3210  0.6669  0.0115
 3678TIP3    H110998   1.594   3.498   4.615  0.7417  1.7431 -1.9503
 3678TIP3    H210999   1.625   3.431   4.483  0.8761 -1.6506 -0.3052
 3679TIP3   OH211000   5.838   2.018   4.302  0.1209  0.1409  0.4613
 3679TIP3    H111001   5.914   2.062   4.339  0.2339 -0.7800  1.3885
 3679TIP3    H211002   5.874   1.964   4.231  0.2727  0.0897  0.5748
 3680TIP3   OH211003   6.623   5.804   2.247  0.7292 -0.3726 -0.3457
 3680TIP3    H111004   6.632   5.740   2.176  0.9256 -2.1133  1.1623
 3680TIP3    H211005   6.556   5.865   2.216 -1.0418 -2.5207 -1.0284
 3681TIP3   OH211006   6.761   4.416   3.423 -0.4894  0.0835  0.1622
 3681TIP3    H111007   6.854   4.416   3.401  0.0209  3.0964  1.7357
 3681TIP3    H211008   6.750   4.338   3.478  1.2432 -0.0871  0.3326
 3682TIP3   OH211009   5.487   4.778   1.184  0.0409 -0.4064  0.1571
 3682TIP3    H111010   5.548   4.735   1.125  0.3621 -0.1823  0.3197
 3682TIP3    H211011   5.498   4.872   1.165 -1.2879 -0.4263 -0.8229
 3683TIP3   OH211012   0.383   1.333   0.609  0.0708  0.3399 -0.3273
 3683TIP3    H111013   0.390   1.418   0.652  1.2858  0.2547 -0.3108
 3683TIP3    H211014   0.290   1.313   0.609  0.0659 -0.3598  3.5975
 3684TIP3   OH211015   1.251   2.840   4.264 -0.2268 -0.3186  0.5268
 3684TIP3    H111016   1.176   2.791   4.298 -0.1238 -0.4308  0.5948
 3684TIP3    H211017   1.284   2.786   4.193 -0.6242  0.0613  0.0470
 3685TIP3   OH211018   6.381   6.434   2.519  0.4610  0.9281  0.5163
 3685TIP3    H111019   6.311   6.442   2.454  0.4301  0.2510  0.4504
 3685TIP3    H211020   6.357   6.355   2.568  0.3404  1.5868  1.5265
 3686TIP3   OH211021   1.530   6.212   3.070  0.3418 -0.1769 -0.7974
 3686TIP3    H111022   1.616   6.234   3.106  0.3171  1.5478 -1.6766
 3686TIP3    H211023   1.510   6.126   3.107  1.9123 -0.0982  0.3607
 3687TIP3   OH211024   5.750   3.108   1.234 -0.7007  0.8082  0.2373
 3687TIP3    H111025   5.786   3.033   1.281  1.6277  2.0312  0.5424
 3687TIP3    H211026   5.728   3.171   1.302  0.5016  1.6676 -0.1262
 3688TIP3   OH211027   1.490   3.952   4.269  0.4197  0.3714  0.4266
 3688TIP3    H111028   1.447   3.870   4.293  1.3998 -0.2265  0.2011
 3688TIP3    H211029   1.580   3.942   4.300  1.5009 -0.0348 -2.4702
 3689TIP3   OH211030   6.404   2.228   4.454  0.1872  0.0764  0.2601
 3689TIP3    H111031   6.417   2.315   4.493 -0.9713  1.2338 -1.7615
 3689TIP3    H211032   6.341   2.243   4.384 -0.9115 -2.6388  0.5680
 3690TIP3   OH211033   1.520   3.281   3.498  0.0320  0.6980  0.0863
 3690TIP3    H111034   1.592   3.232   3.458  0.1088  0.6820  0.2421
 3690TIP3    H211035   1.562   3.331   3.568 -0.3986 -0.7922  1.4715
 3691TIP3   OH211036   7.164   2.780   1.710  0.5416 -0.8127  0.2198
 3691TIP3    H111037   7.119   2.732   1.641  2.0422 -1.9912  0.0077
 3691TIP3    H211038   7.248   2.805   1.671 -0.3041  2.3878  0.1963
 3692TIP3   OH211039   3.787   2.833   4.519  0.2952 -0.2700 -0.3886
 3692TIP3    H111040   3.750   2.917   4.546  2.3562  0.7922 -0.6512
 3692TIP3    H211041   3.756   2.821   4.429  1.0842  0.9554 -0.8618
 3693TIP3   OH211042   2.332   3.774   1.575 -0.8254 -0.0492  0.1077
 3693TIP3    H111043   2.315   3.855   1.528  2.4791 -0.4305 -2.0309
 3693TIP3    H211044   2.333   3.706   1.507  0.6011 -1.2009  1.2043
 3694TIP3   OH211045   2.434   0.887   1.709 -0.2801 -0.2106  0.4593
 3694TIP3    H111046   2.411   0.800   1.676  1.0062 -0.3116 -0.2185
 3694TIP3    H211047   2.380   0.947   1.657  0.0096 -0.5144 -0.2042
 3695TIP3   OH211048   6.050   5.428   5.743 -0.1323 -0.2599  0.1259
 3695TIP3    H111049   6.122   5.450   5.803 -0.7212 -1.9283  1.5498
 3695TIP3    H211050   6.085   5.446   5.656  2.4132 -1.8397  0.6849
 3696TIP3   OH211051   2.022   2.586   0.987  0.2550  0.2575 -0.0522
 3696TIP3    H111052   2.066   2.562   1.069 -0.1398  1.0060  0.3851
 3696TIP3    H211053   1.975   2.667   1.007 -0.0316  0.3288 -0.9590
 3697TIP3   OH211054   2.875   3.460   2.423 -0.1608 -0.5106  0.3015
 3697TIP3    H111055   2.810   3.522   2.457  1.3036  0.1512  2.0375
 3697TIP3    H211056   2.918   3.508   2.353  1.6584  0.9428  2.2954
 3698TIP3   OH211057   0.525   5.720   1.115  0.1014  0.1832  0.0633
 3698TIP3    H111058   0.492   5.643   1.068 -1.5271 -0.7804  2.5960
 3698TIP3    H211059   0.447   5.773   1.133  0.9673  1.5800 -0.1170
 3699TIP3   OH211060   4.049   1.055   2.311 -0.3722 -0.7409 -0.0170
 3699TIP3    H111061   4.028   0.971   2.269 -0.4502  0.6917 -3.1093
 3699TIP3    H211062   4.144   1.063   2.304 -0.5636  0.4125 -1.9511
 3700TIP3   OH211063   4.539   4.395   3.265 -0.0867 -0.4179 -0.2034
 3700TIP3    H111064   4.599   4.469   3.275  1.3749 -1.2975 -1.9423
 3700TIP3    H211065   4.528   4.362   3.354  1.5973  0.1018  0.2365
 3701TIP3   OH211066   5.825   4.010   2.416 -0.5779  0.2887  0.0431
 3701TIP3    H111067   5.788   3.922   2.421  1.4646 -0.6889 -0.8668
 3701TIP3    H211068   5.794   4.044   2.332  0.0147 -0.2556 -0.4027
 3702TIP3   OH211069   2.873   3.856   0.263  0.2092  0.4103  0.7140
 3702TIP3    H111070   2.809   3.927   0.258  1.4164  1.4817 -0.1507
 3702TIP3    H211071   2.954   3.898   0.291  0.6473 -0.8631  1.4650
 3703TIP3   OH211072   5.025   0.810   3.418 -0.2107 -0.3183 -0.6014
 3703TIP3    H111073   5.067   0.739   3.369 -0.0221 -0.0717 -0.8039
 3703TIP3    H211074   5.091   0.880   3.419 -1.4324  1.0261 -3.0821
 3704TIP3   OH211075   6.454   0.677   2.827  0.3847 -0.4859 -0.6434
 3704TIP3    H111076   6.540   0.688   2.787  0.4924  0.3157 -0.2085
 3704TIP3    H211077   6.442   0.582   2.833  1.5116 -0.6055 -0.1177
 3705TIP3   OH211078   1.424   6.123   4.630  0.1855 -0.1652  0.0029
 3705TIP3    H111079   1.396   6.173   4.553 -1.1073  0.2361  0.7034
 3705TIP3    H211080   1.402   6.032   4.608  0.1198 -0.0935 -0.2316
 3706TIP3   OH211081   2.832   2.888   5.676 -0.6890  0.6040  0.4119
 3706TIP3    H111082   2.806   2.956   5.738 -0.8953 -0.3539  1.4048
 3706TIP3    H211083   2.842   2.809   5.730 -1.9963 -0.5404 -0.9415
 3707TIP3   OH211084   2.154   3.211   4.759  0.2547  0.1936  0.6031
 3707TIP3    H111085   2.141   3.124   4.796  0.1597  0.1351  0.4341
 3707TIP3    H211086   2.220   3.198   4.691  0.0535  0.2068  0.4044
 3708TIP3   OH211087   3.008   5.483   3.974  0.3633  0.1514  0.1389
 3708TIP3    H111088   2.952   5.538   3.919  0.3947 -0.3154 -0.3603
 3708TIP3    H211089   3.084   5.538   3.992  0.5347  0.1637 -0.6118
 3709TIP3   OH211090   6.275   6.731   2.619  0.3016  0.0472  0.6601
 3709TIP3    H111091   6.279   6.647   2.573 -0.4687  0.6649 -0.5966
 3709TIP3    H211092   6.309   6.795   2.556  1.1992  0.6600  1.7154
 3710TIP3   OH211093   3.636   3.955   1.944 -0.0793 -0.2529 -0.2470
 3710TIP3    H111094   3.724   3.991   1.948 -0.0999 -0.2523  2.2066
 3710TIP3    H211095   3.647   3.862   1.965 -0.8369  0.4596  4.6198
 3711TIP3   OH211096   5.744   2.254   1.647  0.0149  0.2511  0.1913
 3711TIP3    H111097   5.775   2.164   1.644 -0.2551  0.1887 -1.0940
 3711TIP3    H211098   5.649   2.247   1.645 -0.1012  0.5145  2.2135
 3712TIP3   OH211099   1.912   4.968   0.739 -0.0265 -0.1488 -0.5100
 3712TIP3    H111100   1.954   4.886   0.762  1.4211  0.3662 -1.1693
 3712TIP3    H211101   1.970   5.007   0.674 -0.7071  1.3714 -0.2545
 3713TIP3   OH211102   4.693   1.612   4.428  0.2858 -0.4398 -0.1457
 3713TIP3    H111103   4.626   1.560   4.472  0.1821 -0.5712 -0.4567
 3713TIP3    H211104   4.655   1.632   4.342  0.2506  0.2939  0.0294
 3714TIP3   OH211105   2.915   3.004   4.650  0.4902 -0.1988  0.0818
 3714TIP3    H111106   2.875   3.076   4.698 -0.4412 -0.8512  0.2897
 3714TIP3    H211107   2.881   3.013   4.561 -0.5717 -1.0669  0.3819
 3715TIP3   OH211108   3.787   0.851   3.409 -0.4292 -0.1455 -0.5256
 3715TIP3    H111109   3.821   0.763   3.392  0.4975  0.3956 -1.6782
 3715TIP3    H211110   3.784   0.858   3.504  0.2197 -1.1571 -0.4114
 3716TIP3   OH211111   4.450   4.603   4.417 -0.1705 -0.3660  0.1129
 3716TIP3    H111112   4.428   4.510   4.419  1.1074 -0.6793  1.3039
 3716TIP3    H211113   4.488   4.621   4.503  1.8378  0.6886 -0.9148
 3717TIP3   OH211114   6.491   6.616   0.801  0.5178  0.2894  0.3124
 3717TIP3    H111115   6.448   6.552   0.858 -4.6818  3.5288  0.6977
 3717TIP3    H211116   6.545   6.669   0.859  1.3946 -1.0011  0.7218
 3718TIP3   OH211117   1.927   4.114   2.314 -0.0390 -0.2424  0.2758
 3718TIP3    H111118   1.882   4.054   2.255 -0.7843  0.0604  0.5208
 3718TIP3    H211119   1.947   4.190   2.261  1.8447 -1.0916 -0.3125
 3719TIP3   OH211120   4.855   5.140   1.792 -0.4665 -1.0170 -0.1254
 3719TIP3    H111121   4.868   5.084   1.716 -0.1771 -0.8752 -0.1797
 3719TIP3    H211122   4.938   5.138   1.839 -0.0967  0.2162 -0.6996
 3720TIP3   OH211123   6.693   4.339   0.958 -0.4865 -0.0152 -0.1448
 3720TIP3    H111124   6.647   4.261   0.927  0.1732 -0.9178  1.0602
 3720TIP3    H211125   6.783   4.309   0.973 -0.2505  0.9452  0.4250
 3721TIP3   OH211126   4.820   4.114   2.972  0.2735  0.1126 -0.0247
 3721TIP3    H111127   4.868   4.165   3.038  1.2634  0.5539 -1.0490
 3721TIP3    H211128   4.731   4.147   2.976  0.5788  0.9200  0.3289
 3722TIP3   OH211129   1.956   5.642   0.529  0.3660 -0.0658 -0.1829
 3722TIP3    H111130   1.927   5.732   0.515  0.8397 -0.0988 -1.6033
 3722TIP3    H211131   1.878   5.596   0.560  0.2656  0.9403  1.1059
 3723TIP3   OH211132   3.021   6.752   3.958  0.6935  0.3590 -0.3843
 3723TIP3    H111133   3.102   6.715   3.924  1.2952 -0.2771  1.5540
 3723TIP3    H211134   3.041   6.772   4.050 -1.1682  0.7202 -0.0175
 3724TIP3   OH211135   2.420   6.785   0.977  0.4187  0.2233 -0.0344
 3724TIP3    H111136   2.475   6.723   0.929 -0.5628 -0.4247 -0.3608
 3724TIP3    H211137   2.352   6.730   1.017 -0.4714  1.0822 -0.3318
 3725TIP3   OH211138   6.214   2.092   0.637 -0.8928  0.7427 -0.2799
 3725TIP3    H111139   6.272   2.154   0.591  0.8662  0.8170  1.9025
 3725TIP3    H211140   6.183   2.140   0.714 -1.8331 -0.1714 -0.0600
 3726TIP3   OH211141   3.306   2.713   4.634 -0.5441 -0.5642  0.6062
 3726TIP3    H111142   3.212   2.709   4.616 -0.3345 -0.9673 -0.4861
 3726TIP3    H211143   3.324   2.806   4.645 -0.6022 -0.1545 -2.0400
 3727TIP3   OH211144   6.855   1.919   4.482  0.2120 -0.1685 -0.5729
 3727TIP3    H111145   6.866   2.010   4.510 -0.9262  0.2365 -1.3920
 3727TIP3    H211146   6.800   1.880   4.550  0.3287 -0.1332 -0.4557
 3728TIP3   OH211147   4.191   1.518   1.593  0.0826  0.6892  0.0274
 3728TIP3    H111148   4.169   1.573   1.518  0.3508 -1.4438 -1.7183
 3728TIP3    H211149   4.109   1.506   1.640 -0.4514  0.6929 -0.8985
 3729TIP3   OH211150   2.007   2.506   2.646  0.0580 -0.9761 -0.4269
 3729TIP3    H111151   2.024   2.599   2.638  0.5940 -1.1494 -1.4423
 3729TIP3    H211152   2.053   2.480   2.727 -0.0095 -0.3885 -0.1963
 3730TIP3   OH211153   5.014   3.504   5.811  0.0010 -0.1468  0.2736
 3730TIP3    H111154   4.992   3.595   5.793 -2.3167 -0.5584  0.6501
 3730TIP3    H211155   5.041   3.469   5.726  0.2674  0.7114 -0.0078
 3731TIP3   OH211156   4.323  -0.015   2.309  0.2378  0.3051 -0.2147
 3731TIP3    H111157   4.304   0.072   2.274 -1.8236 -0.3584 -0.8685
 3731TIP3    H211158   4.240  -0.046   2.345  0.5262 -1.9433 -1.2729
 3732TIP3   OH211159   6.569   3.235   5.164  0.4249 -0.2132  0.4307
 3732TIP3    H111160   6.529   3.148   5.176 -0.4847  0.0876 -0.2547
 3732TIP3    H211161   6.514   3.277   5.098  1.3432  0.5875  0.1508
 3733TIP3   OH211162   6.859   6.278   0.994  0.0494 -0.8664  0.0220
 3733TIP3    H111163   6.805   6.356   1.011 -0.9173 -1.8757  2.0661
 3733TIP3    H211164   6.825   6.242   0.912 -0.3477  0.1624 -0.2773
 3734TIP3   OH211165   2.985   0.845   1.284 -0.0687 -0.5666 -0.1034
 3734TIP3    H111166   2.924   0.779   1.318  1.3310 -1.8092  0.1277
 3734TIP3    H211167   2.982   0.916   1.347  0.2065 -1.5106  1.0194
 3735TIP3   OH211168   2.209   5.888   3.009  0.3820  0.1927  0.0754
 3735TIP3    H111169   2.216   5.882   3.104 -0.7092 -0.3499  0.1327
 3735TIP3    H211170   2.228   5.800   2.977 -2.1155 -0.3905  0.0117
 3736TIP3   OH211171   5.362   3.335   4.413 -0.4513  0.6023 -0.0107
 3736TIP3    H111172   5.431   3.313   4.350  0.5348 -1.0381  1.5306
 3736TIP3    H211173   5.280   3.318   4.366  0.2598 -0.9687 -0.7721
 3737TIP3   OH211174   2.030   1.673   3.121 -0.2401  0.0270  0.0071
 3737TIP3    H111175   2.118   1.669   3.158 -0.9954 -0.1009  1.9203
 3737TIP3    H211176   1.973   1.690   3.196 -2.0682 -1.8664 -0.8360
 3738TIP3   OH211177   3.681   0.693   0.036  0.1561  0.2308  0.0422
 3738TIP3    H111178   3.692   0.788   0.034  1.3626  0.1965  2.1163
 3738TIP3    H211179   3.608   0.678   0.096 -0.8846 -0.1482 -1.2689
 3739TIP3   OH211180   4.970   3.688   1.580 -0.2922  0.1016  0.3089
 3739TIP3    H111181   4.883   3.696   1.620  0.1642  1.7941  1.0338
 3739TIP3    H211182   4.987   3.774   1.541  0.3183 -0.7562 -1.4277
 3740TIP3   OH211183   6.933   1.948   2.682 -0.0076 -0.1674 -0.4444
 3740TIP3    H111184   6.881   1.971   2.758  0.5762  1.9821 -0.6500
 3740TIP3    H211185   7.013   2.001   2.690 -0.0406  0.2937 -2.6507
 3741TIP3   OH211186   4.522   6.299   3.023  0.2392 -0.1332  0.4637
 3741TIP3    H111187   4.600   6.344   2.992  1.3767 -1.1774  1.6978
 3741TIP3    H211188   4.536   6.287   3.116 -1.3473 -0.4782  0.6923
 3742TIP3   OH211189   6.073   5.623   1.116  0.1258 -0.3041 -0.3875
 3742TIP3    H111190   6.025   5.547   1.083  1.7501 -1.9523  0.8274
 3742TIP3    H211191   6.026   5.649   1.195  0.6886 -1.3527  0.3112
 3743TIP3   OH211192   0.068   4.681   3.227  0.2282 -0.1321 -0.3041
 3743TIP3    H111193   0.086   4.591   3.202 -0.0409 -0.2449 -0.1033
 3743TIP3    H211194   0.113   4.693   3.310  1.0688  0.2219 -0.8010
 3744TIP3   OH211195   0.896   0.271   2.299  0.5686 -0.1672  0.0920
 3744TIP3    H111196   0.886   0.209   2.372  1.6563 -0.6724 -0.1581
 3744TIP3    H211197   0.845   0.233   2.228 -1.1241  0.7105  0.7808
 3745TIP3   OH211198   0.977   5.346   0.023  0.1713  0.0225 -0.1753
 3745TIP3    H111199   1.068   5.360   0.051  0.4582 -1.8848 -0.0261
 3745TIP3    H211200   0.942   5.284   0.086 -1.0640  0.2522 -0.6138
 3746TIP3   OH211201   5.248   3.632   0.258 -0.3723 -0.0812 -0.1944
 3746TIP3    H111202   5.313   3.625   0.189 -1.5154  0.6371 -1.3940
 3746TIP3    H211203   5.298   3.627   0.339  1.2005  0.7149 -1.0765
 3747TIP3   OH211204   1.528   0.798   1.456  0.6402 -0.3742  0.4959
 3747TIP3    H111205   1.615   0.797   1.416  0.3557 -1.0226 -0.1245
 3747TIP3    H211206   1.492   0.711   1.438 -0.7384  0.3777 -0.6396
 3748TIP3   OH211207   6.345   6.027   4.867 -0.0860  0.1202 -0.0739
 3748TIP3    H111208   6.294   6.055   4.791 -2.1065 -0.6324  0.9205
 3748TIP3    H211209   6.291   5.960   4.909  1.3469 -0.0877  1.5633
 3749TIP3   OH211210   0.299   3.089   5.250 -0.8186 -0.0133  0.5885
 3749TIP3    H111211   0.350   3.170   5.243 -0.8697 -0.1203 -2.4812
 3749TIP3    H211212   0.248   3.086   5.169 -1.8432 -2.4840  1.2262
 3750TIP3   OH211213   1.352   0.757   1.694 -0.1566 -0.6085  0.1666
 3750TIP3    H111214   1.265   0.784   1.665 -0.3663 -0.8988  0.5080
 3750TIP3    H211215   1.408   0.770   1.618 -0.4036  0.0225  0.0858
 3751TIP3   OH211216   0.532   1.423   1.692  0.2573 -0.2577  0.2776
 3751TIP3    H111217   0.587   1.494   1.725  1.8527 -1.3802  0.1640
 3751TIP3    H211218   0.443   1.459   1.692  0.9220  1.4829  0.8730
 3752TIP3   OH211219   6.135   3.539   3.726 -0.1908  0.0295  0.3200
 3752TIP3    H111220   6.153   3.592   3.804 -1.7296 -0.4741  1.0564
 3752TIP3    H211221   6.062   3.483   3.752 -1.4431  0.5733 -1.8420
 3753TIP3   OH211222   4.554   2.306   2.235 -0.2400  0.0462 -0.9295
 3753TIP3    H111223   4.621   2.353   2.185 -0.1973  0.7033 -0.2719
 3753TIP3    H211224   4.500   2.375   2.273 -1.7823 -0.4691 -2.0694
 3754TIP3   OH211225   3.217   2.069   4.152  0.3514  0.5614  0.4404
 3754TIP3    H111226   3.258   2.125   4.218  1.3787  2.2104 -1.4845
 3754TIP3    H211227   3.124   2.071   4.173  0.6215  1.1957  1.6969
 3755TIP3   OH211228   1.833   1.473   5.639  0.1598  0.6475 -0.6394
 3755TIP3    H111229   1.904   1.517   5.685  0.2734  0.4584 -0.6308
 3755TIP3    H211230   1.753   1.509   5.678  0.2394 -0.7778  0.9999
 3756TIP3   OH211231   3.848   3.370   0.672 -0.4740 -0.0840 -0.0245
 3756TIP3    H111232   3.823   3.284   0.638 -2.4746 -0.2393  1.6725
 3756TIP3    H211233   3.843   3.428   0.596  0.8933 -1.4022 -1.1915
 3757TIP3   OH211234   2.226   6.455   5.500 -0.1473  0.3113 -0.1605
 3757TIP3    H111235   2.209   6.397   5.574 -0.2714 -1.6087 -1.6106
 3757TIP3    H211236   2.150   6.514   5.498 -1.8457 -1.7424 -0.6550
 3758TIP3   OH211237   3.586   6.155   4.847  0.1357 -0.3626  0.2341
 3758TIP3    H111238   3.586   6.177   4.940 -1.7194 -1.2881  0.4919
 3758TIP3    H211239   3.527   6.219   4.807  0.4335 -0.3563 -0.2006
 3759TIP3   OH211240   5.781   3.499   2.340 -0.2196  0.3883  0.0370
 3759TIP3    H111241   5.833   3.419   2.351 -1.7100 -1.1431 -2.8436
 3759TIP3    H211242   5.696   3.478   2.380  0.3522  1.8219  2.1695
 3760TIP3   OH211243   5.354   3.224   4.798 -0.6536 -0.0263  0.1887
 3760TIP3    H111244   5.365   3.161   4.870  2.2570 -0.6582 -0.6629
 3760TIP3    H211245   5.440   3.267   4.791 -1.3626  1.1549 -1.8632
 3761TIP3   OH211246   0.579   5.827   5.415  0.0598  0.2713  0.0316
 3761TIP3    H111247   0.523   5.840   5.339  0.8817  1.1409 -0.4576
 3761TIP3    H211248   0.586   5.732   5.424  0.3228  0.1358 -1.2859
 3762TIP3   OH211249   6.607   1.587   2.110  0.0861  0.2566  0.1949
 3762TIP3    H111250   6.680   1.625   2.158  1.0955 -0.1886 -0.9359
 3762TIP3    H211251   6.560   1.535   2.175 -0.4115  2.1259  1.3916
 3763TIP3   OH211252   4.575   4.031   4.613  0.1324  1.1532 -0.0791
 3763TIP3    H111253   4.664   4.062   4.600  0.2839  0.9549  0.4349
 3763TIP3    H211254   4.581   3.973   4.689 -0.1149 -0.2510 -1.0897
 3764TIP3   OH211255   2.077   2.645   4.480  0.1623  0.0387 -0.2589
 3764TIP3    H111256   2.068   2.740   4.470 -3.0705 -0.3482 -2.2322
 3764TIP3    H211257   2.141   2.620   4.414 -1.2838  0.5607 -1.9159
 3765TIP3   OH211258   2.633   3.505   4.802 -0.3230  0.1022  0.3310
 3765TIP3    H111259   2.546   3.497   4.763 -0.7681  1.0855  1.0778
 3765TIP3    H211260   2.683   3.554   4.737 -0.6065  0.3783  0.3159
 3766TIP3   OH211261   6.235   1.797   1.437 -0.1677  0.3575 -0.0140
 3766TIP3    H111262   6.193   1.879   1.462 -0.3216  0.7432 -1.4804
 3766TIP3    H211263   6.219   1.789   1.343 -1.2506 -1.9921  0.3105
 3767TIP3   OH211264   6.885   6.020   4.261 -0.1514 -0.2508  0.3985
 3767TIP3    H111265   6.980   6.032   4.254 -0.3995  0.9946 -1.8660
 3767TIP3    H211266   6.866   6.028   4.355  2.0085 -0.9685  0.9431
 3768TIP3   OH211267   5.311   4.900   3.610 -0.1797 -0.1685  0.1304
 3768TIP3    H111268   5.339   4.873   3.523  0.8495  2.1557 -0.3507
 3768TIP3    H211269   5.385   4.877   3.667 -1.0496 -2.1322  0.5334
 3769TIP3   OH211270   3.250   4.035   2.574  0.1305 -0.2349  0.0082
 3769TIP3    H111271   3.223   4.007   2.661  1.1922 -0.6022  0.2354
 3769TIP3    H211272   3.285   3.955   2.534 -0.3530 -0.0695 -0.7633
 3770TIP3   OH211273   5.207   3.856   1.423  0.1466  0.7721  0.1892
 3770TIP3    H111274   5.147   3.826   1.356  1.4231 -1.0334 -0.2236
 3770TIP3    H211275   5.153   3.906   1.484 -1.5158  0.2115 -0.7819
 3771TIP3   OH211276   0.715   3.633   4.151 -0.0611  0.0375 -0.4227
 3771TIP3    H111277   0.660   3.581   4.209 -0.3509 -1.3074 -1.8453
 3771TIP3    H211278   0.802   3.593   4.157  0.3025  0.8991  0.2826
 3772TIP3   OH211279   1.829   4.501   3.561  0.6921  0.0135  0.3831
 3772TIP3    H111280   1.915   4.468   3.535  0.6198 -0.1849  0.3945
 3772TIP3    H211281   1.844   4.593   3.581  0.9020 -0.0194  0.3800
 3773TIP3   OH211282   7.090   6.033   3.665 -0.0096 -0.5664 -0.2082
 3773TIP3    H111283   7.031   6.017   3.592 -0.7394  0.0931  0.2116
 3773TIP3    H211284   7.037   6.017   3.743 -0.0958  1.4386  0.2006
 3774TIP3   OH211285   4.873   0.371   2.258  0.4145 -0.1978 -0.5539
 3774TIP3    H111286   4.823   0.293   2.235  1.3422 -1.6539  1.9619
 3774TIP3    H211287   4.901   0.356   2.348  0.8754  2.9518 -0.0488
 3775TIP3   OH211288   2.386   1.055   1.368 -0.4826 -0.3998  0.1655
 3775TIP3    H111289   2.301   1.038   1.326 -1.5632  1.1429  1.6032
 3775TIP3    H211290   2.450   1.016   1.308 -2.1564 -1.3092 -1.1453
 3776TIP3   OH211291   1.256   1.789   4.161 -0.5304 -0.8642  0.0122
 3776TIP3    H111292   1.171   1.802   4.204 -0.4470  0.8419 -0.2583
 3776TIP3    H211293   1.310   1.748   4.228 -1.2278 -0.8741  0.5890
 3777TIP3   OH211294   1.431   6.139   1.163  0.2231 -0.2247 -0.3623
 3777TIP3    H111295   1.448   6.049   1.137  1.9243 -0.0371  0.0161
 3777TIP3    H211296   1.433   6.189   1.081  2.5466 -0.0784 -0.2616
 3778TIP3   OH211297   1.013   6.371   0.481  0.5896  0.3146 -0.6802
 3778TIP3    H111298   1.062   6.349   0.402  0.1209 -0.2780 -0.8204
 3778TIP3    H211299   0.954   6.441   0.453  0.6038  0.2830 -0.7911
 3779TIP3   OH211300   3.473   5.706   5.325 -0.3070  0.5135  0.3190
 3779TIP3    H111301   3.508   5.746   5.245  0.5471 -2.2799 -0.8196
 3779TIP3    H211302   3.548   5.702   5.384  0.4214 -1.8331 -0.6412
 3780TIP3   OH211303   6.036   4.287   3.218  0.7291 -0.4881 -0.3237
 3780TIP3    H111304   6.009   4.286   3.126 -0.8292 -0.5420  0.1201
 3780TIP3    H211305   6.101   4.216   3.224  1.0713 -0.2852 -1.4405
 3781TIP3   OH211306  -0.010   4.041   0.683 -0.2011 -0.5222  0.5055
 3781TIP3    H111307   0.052   4.111   0.701 -1.5282  1.6970 -2.6322
 3781TIP3    H211308   0.024   3.999   0.603 -1.2301 -1.1619  0.3738
 3782TIP3   OH211309   4.763   5.557   0.943 -0.1755 -0.4954  0.0932
 3782TIP3    H111310   4.803   5.531   1.026 -2.7695  3.0771  2.8348
 3782TIP3    H211311   4.683   5.505   0.938 -0.1952 -0.4600  0.0470
 3783TIP3   OH211312   2.209   3.835   2.339  0.0772  0.1552 -0.6399
 3783TIP3    H111313   2.164   3.754   2.318  2.0896 -0.5989 -2.4968
 3783TIP3    H211314   2.296   3.825   2.299  1.3990  2.0777  1.4890
 3784TIP3   OH211315   6.223   4.419   2.752 -0.4060  0.0728  0.7288
 3784TIP3    H111316   6.285   4.406   2.824  0.5786  1.3207  0.1580
 3784TIP3    H211317   6.278   4.421   2.674 -1.3886 -0.6075  0.0014
 3785TIP3   OH211318   3.301   6.278   5.600  0.5668 -0.1200 -0.0294
 3785TIP3    H111319   3.344   6.297   5.683  1.4194  0.1154 -0.5065
 3785TIP3    H211320   3.324   6.353   5.544  1.3634 -1.0385 -0.9671
 3786TIP3   OH211321   3.188   3.951   2.830 -0.4019 -0.4321 -0.3951
 3786TIP3    H111322   3.153   3.871   2.870 -0.5377 -0.4697 -0.5844
 3786TIP3    H211323   3.158   4.022   2.887 -1.1171 -0.4297 -0.7622
 3787TIP3   OH211324   2.605   6.057   3.374  0.5739 -0.4364 -0.4305
 3787TIP3    H111325   2.647   6.128   3.325  0.9767 -0.3418  0.0309
 3787TIP3    H211326   2.558   6.006   3.309  0.2709  0.2613 -0.7732
 3788TIP3   OH211327   6.684   1.507   4.074 -0.3612  0.0249  0.2998
 3788TIP3    H111328   6.595   1.544   4.074 -1.6310 -2.7662 -0.2416
 3788TIP3    H211329   6.672   1.416   4.048  2.6462 -0.6004  0.7358
 3789TIP3   OH211330   3.892   4.267   4.393  0.5734  0.3164  0.3929
 3789TIP3    H111331   3.877   4.300   4.481  0.4011 -0.6936  0.7461
 3789TIP3    H211332   3.958   4.198   4.403  1.3731  0.9223 -0.4208
 3790TIP3   OH211333   5.773   0.003   0.392  0.1289  0.5326 -0.3430
 3790TIP3    H111334   5.833   0.077   0.401 -1.3257  1.8331 -0.8146
 3790TIP3    H211335   5.693   0.031   0.437 -0.1597 -1.1315  0.2375
 3791TIP3   OH211336   2.741   2.653   1.931  0.1899 -0.2223  0.2313
 3791TIP3    H111337   2.788   2.691   2.005  0.8958  0.6323 -0.6183
 3791TIP3    H211338   2.649   2.657   1.956  0.4774 -0.7499  1.4035
 3792TIP3   OH211339   1.461   0.765   2.679  0.7804  0.2935  0.7508
 3792TIP3    H111340   1.495   0.807   2.600  1.5345 -0.9305  0.3916
 3792TIP3    H211341   1.465   0.671   2.660  1.3677 -0.0514  2.3900
 3793TIP3   OH211342   1.514   1.336   1.609 -0.2899  0.7742  0.2871
 3793TIP3    H111343   1.543   1.335   1.517 -0.2527 -0.1571  0.3005
 3793TIP3    H211344   1.424   1.367   1.605 -0.1093  1.2682 -0.0106
 3794TIP3   OH211345   7.157   3.993   4.642  0.0598  0.3450 -0.5418
 3794TIP3    H111346   7.157   3.908   4.599  1.1317 -0.3519  0.7362
 3794TIP3    H211347   7.085   3.989   4.704  0.6893 -0.0257  0.1888
 3795TIP3   OH211348   2.376   6.093   5.040 -0.0664  0.8083 -0.5330
 3795TIP3    H111349   2.328   6.036   4.979  0.0350  0.5773 -0.3976
 3795TIP3    H211350   2.329   6.176   5.036  0.7479  1.2371 -1.9853
 3796TIP3   OH211351   6.412   4.530   4.130  0.3862 -0.1192 -0.6328
 3796TIP3    H111352   6.412   4.487   4.044  0.9125 -1.0006 -0.2036
 3796TIP3    H211353   6.493   4.500   4.172  1.3180  2.0825 -0.6941
 3797TIP3   OH211354   7.039   1.724   4.562  0.7162  0.0918 -0.2356
 3797TIP3    H111355   7.083   1.679   4.490  2.6746  3.3752 -1.2883
 3797TIP3    H211356   6.970   1.776   4.520  0.4231  0.3583  0.5476
 3798TIP3   OH211357   3.583   2.812   2.368 -0.2458  0.3160 -0.2287
 3798TIP3    H111358   3.517   2.874   2.398 -0.4018 -0.0015  0.0932
 3798TIP3    H211359   3.547   2.726   2.390  0.6493  0.1635  0.7325
 3799TIP3   OH211360   3.171   0.475   4.731  0.3651 -0.3608 -0.2703
 3799TIP3    H111361   3.266   0.474   4.745  0.3718  0.3716 -0.2255
 3799TIP3    H211362   3.161   0.478   4.636  0.4294  1.1294 -0.2627
 3800TIP3   OH211363   0.545   0.212   2.124 -0.4556 -0.2388 -0.0066
 3800TIP3    H111364   0.560   0.306   2.114 -2.5195  0.2081  0.4825
 3800TIP3    H211365   0.620   0.171   2.081  1.4188  1.6011  1.2856
 3801TIP3   OH211366   5.299   1.629   2.442 -0.1600  0.1343 -0.5713
 3801TIP3    H111367   5.389   1.660   2.439 -0.5848  1.5138 -0.0571
 3801TIP3    H211368   5.270   1.648   2.532 -0.6388 -1.2627 -0.4096
 3802TIP3   OH211369   0.776   3.263   4.208  0.1652  0.5066 -0.1795
 3802TIP3    H111370   0.683   3.284   4.221  0.1252  0.3725 -0.2471
 3802TIP3    H211371   0.777   3.168   4.193  0.4375  0.3122  1.0113
 3803TIP3   OH211372   3.168   0.095   3.601 -0.0797  0.9630  0.2040
 3803TIP3    H111373   3.087   0.054   3.631 -0.0146  0.6023 -0.1117
 3803TIP3    H211374   3.203   0.036   3.535  0.1721  1.3778 -0.0417
 3804TIP3   OH211375   1.083   3.752   5.103 -0.2856 -0.3037  0.3307
 3804TIP3    H111376   0.996   3.779   5.074  0.5106  0.5793 -1.4163
 3804TIP3    H211377   1.105   3.676   5.048  0.2994 -0.1051  0.2797
 3805TIP3   OH211378   3.748   6.338   2.971 -0.1289 -0.5783  0.8730
 3805TIP3    H111379   3.770   6.255   3.014  2.9186 -0.0612  0.5972
 3805TIP3    H211380   3.793   6.405   3.023 -1.2853  0.7359  0.2468
 3806TIP3   OH211381   3.402   3.859   4.486  1.0157 -0.4593  0.7352
 3806TIP3    H111382   3.450   3.781   4.457 -1.1192 -1.8281  0.6165
 3806TIP3    H211383   3.424   3.926   4.422  2.7803 -0.9909  0.7314
 3807TIP3   OH211384   6.466   1.671   3.091  0.0518 -0.0645 -0.1015
 3807TIP3    H111385   6.391   1.628   3.049 -0.1396 -1.0647  1.1814
 3807TIP3    H211386   6.429   1.747   3.135  0.7235  3.0535 -4.3344
 3808TIP3   OH211387   2.103   4.978   1.461  0.3369 -0.1264  0.2639
 3808TIP3    H111388   2.139   5.018   1.381  0.9876 -0.7289  0.2450
 3808TIP3    H211389   2.062   4.897   1.432  0.9462 -0.5622  0.5833
 3809TIP3   OH211390   3.493   4.040   3.544  0.1553  0.3470  0.1968
 3809TIP3    H111391   3.471   3.947   3.540  1.5310  0.0269 -1.0464
 3809TIP3    H211392   3.488   4.062   3.637  0.0481 -1.0302  0.5392
 3810TIP3   OH211393   2.210   5.572   3.053  0.4581  0.0481 -1.0414
 3810TIP3    H111394   2.298   5.547   3.026  0.3470 -0.5735 -0.8259
 3810TIP3    H211395   2.152   5.528   2.990  0.0458 -3.3757  1.4646
 3811TIP3   OH211396   0.589   6.484   5.347  0.0471  0.7140 -0.1516
 3811TIP3    H111397   0.522   6.475   5.279 -1.2648  0.3190  1.1334
 3811TIP3    H211398   0.577   6.572   5.382 -1.1744 -0.0112  1.3988
 3812TIP3   OH211399   3.743   5.934   3.935  0.4936 -0.1723 -0.1363
 3812TIP3    H111400   3.708   6.004   3.880 -0.4872 -1.1863 -0.8413
 3812TIP3    H211401   3.818   5.974   3.980  1.4601  0.6553 -2.3477
 3813TIP3   OH211402   3.114   0.237   0.760  0.1391 -0.0020 -0.3838
 3813TIP3    H111403   3.035   0.230   0.814 -0.1916  2.3821 -0.4860
 3813TIP3    H211404   3.180   0.188   0.810 -0.4231  1.2065  1.6732
 3814TIP3   OH211405   2.439   2.044   5.198  0.5244 -0.0724 -0.4226
 3814TIP3    H111406   2.474   2.116   5.250  0.7479 -0.0238 -0.6408
 3814TIP3    H211407   2.360   2.017   5.245 -0.9739  1.9249 -1.6319
 3815TIP3   OH211408   4.220   6.462   2.407 -0.2005 -0.4960 -0.4351
 3815TIP3    H111409   4.193   6.547   2.441 -0.3168 -1.2046  1.3448
 3815TIP3    H211410   4.284   6.430   2.471  1.6622 -0.7298 -2.3249
 3816TIP3   OH211411   4.310   6.302   5.525  0.1894  0.0427  0.1092
 3816TIP3    H111412   4.306   6.337   5.436  1.6130  0.9643  0.3639
 3816TIP3    H211413   4.361   6.222   5.517  0.0520 -0.0395  0.0523
 3817TIP3   OH211414   6.651   3.400   0.362 -0.7461  0.1886  0.6128
 3817TIP3    H111415   6.618   3.315   0.331 -1.1452  1.1489 -1.8137
 3817TIP3    H211416   6.628   3.461   0.292  0.8032  2.0470  1.6453
 3818TIP3   OH211417   5.183   3.753   4.441  0.5466 -0.2432  0.3033
 3818TIP3    H111418   5.274   3.733   4.418  0.7245 -0.0151  0.7855
 3818TIP3    H211419   5.138   3.758   4.357  1.0806  0.1043  0.0285
 3819TIP3   OH211420   5.810   0.498   0.364  0.8902  0.1886 -0.0374
 3819TIP3    H111421   5.839   0.414   0.400  3.2167  0.4947 -1.0236
 3819TIP3    H211422   5.773   0.544   0.439 -1.3358 -2.0242  0.3478
 3820TIP3   OH211423   7.040   4.395   0.545  0.2638  0.5548  0.2239
 3820TIP3    H111424   7.070   4.323   0.490  0.5180  0.3928  0.5650
 3820TIP3    H211425   6.962   4.361   0.588 -0.5481  1.0459 -0.8152
 3821TIP3   OH211426   1.518   6.279   4.827  0.0941 -0.5979 -0.3358
 3821TIP3    H111427   1.570   6.327   4.763 -0.3648  1.4595  0.7661
 3821TIP3    H211428   1.470   6.215   4.774  1.9897 -1.0565 -1.6403
 3822TIP3   OH211429   5.056   4.995   4.746 -0.4508 -0.2490  0.4878
 3822TIP3    H111430   4.979   4.998   4.689  0.9513 -0.2471 -1.4928
 3822TIP3    H211431   5.097   5.080   4.735  0.0268 -0.3721  1.2795
 3823TIP3   OH211432   5.231   1.236   4.939  0.1364 -0.2194 -0.1355
 3823TIP3    H111433   5.235   1.258   5.032  1.7262  0.3089 -0.2945
 3823TIP3    H211434   5.194   1.315   4.898  1.4957  0.4361 -0.1709
 3824TIP3   OH211435   4.081   3.374   0.143  0.3870  0.3115  0.1922
 3824TIP3    H111436   3.989   3.362   0.166  0.8179 -0.6526  1.5572
 3824TIP3    H211437   4.129   3.332   0.215  1.8548 -1.1981 -1.5539
 3825TIP3   OH211438   1.473   5.299   2.000 -0.1418 -0.1440 -0.4100
 3825TIP3    H111439   1.558   5.279   2.041  0.7935 -0.9017 -2.6075
 3825TIP3    H211440   1.409   5.281   2.069  1.4586  0.9746  1.5043
 3826TIP3   OH211441   4.229   1.413   4.951 -0.4385  0.0700 -0.1874
 3826TIP3    H111442   4.240   1.336   5.006  1.7865  0.8510  0.5624
 3826TIP3    H211443   4.309   1.418   4.899 -1.0882  1.1725 -1.1308
 3827TIP3   OH211444   7.069   2.367   3.589 -0.8010 -0.0953 -0.0428
 3827TIP3    H111445   7.011   2.351   3.663 -0.1005 -1.1601  0.3093
 3827TIP3    H211446   7.085   2.280   3.552  0.8936  0.1009  0.1352
 3828TIP3   OH211447   0.641   0.402   4.908  0.5799 -0.5707 -0.5713
 3828TIP3    H111448   0.678   0.325   4.951  0.2557 -2.3720 -3.2496
 3828TIP3    H211449   0.594   0.367   4.832 -1.6994  2.0919 -0.5720
 3829TIP3   OH211450   1.611   6.422   4.590  0.0404 -0.0168 -0.1568
 3829TIP3    H111451   1.650   6.406   4.504  0.9810 -0.5616  0.3430
 3829TIP3    H211452   1.533   6.473   4.573  0.6670  0.6003 -1.2657
 3830TIP3   OH211453   2.873   0.490   2.639 -0.3210 -0.3699  0.2772
 3830TIP3    H111454   2.871   0.575   2.595 -0.4123  0.0939  1.1497
 3830TIP3    H211455   2.782   0.460   2.637 -0.1351 -0.9333 -0.9098
 3831TIP3   OH211456   6.513   0.490   5.297 -0.1697  0.1310  0.1168
 3831TIP3    H111457   6.589   0.434   5.308 -0.0770  0.1413 -0.4338
 3831TIP3    H211458   6.536   0.547   5.224 -0.3202  0.7911  0.5778
 3832TIP3   OH211459   0.036   2.184   3.742 -0.0425  0.0773  0.3615
 3832TIP3    H111460  -0.052   2.212   3.764 -0.6271  0.0799 -1.7867
 3832TIP3    H211461   0.092   2.225   3.808 -1.4804  1.3258  0.8528
 3833TIP3   OH211462   3.104   4.432   3.723  0.1797  0.1878  0.0206
 3833TIP3    H111463   3.047   4.362   3.690 -0.0522 -0.2551  1.3223
 3833TIP3    H211464   3.191   4.409   3.690  0.0991 -0.6893  0.3989
 3834TIP3   OH211465   0.054   1.849   5.754 -0.0744 -0.5605  0.3969
 3834TIP3    H111466   0.054   1.854   5.658  1.5598 -2.4576  0.2443
 3834TIP3    H211467   0.139   1.884   5.780 -0.9552  1.0497  1.2969
 3835TIP3   OH211468   0.795   1.323   3.160  0.4402 -0.2718  0.1319
 3835TIP3    H111469   0.789   1.411   3.122  1.2485 -0.5529 -0.6862
 3835TIP3    H211470   0.705   1.301   3.185 -0.4927 -0.7447 -3.2051
 3836TIP3   OH211471   6.906   5.152   5.634  0.7877  0.0504  0.7101
 3836TIP3    H111472   6.874   5.211   5.565 -0.2459 -1.2943  0.0014
 3836TIP3    H211473   6.863   5.183   5.714 -1.6246 -1.0827 -0.0437
 3837TIP3   OH211474   0.359   6.531   1.280  0.1746  0.3147  0.6895
 3837TIP3    H111475   0.375   6.578   1.198  0.2727  2.0439  1.6373
 3837TIP3    H211476   0.443   6.490   1.301  0.7547  1.5422  0.9005
 3838TIP3   OH211477  -0.009   5.561   1.735  0.4360  0.3778 -0.2791
 3838TIP3    H111478   0.080   5.593   1.746  0.0480  0.9507  1.3577
 3838TIP3    H211479  -0.000   5.465   1.738  1.2527  0.3135 -2.5440
 3839TIP3   OH211480   0.461   0.619   3.739 -0.3840  0.1965  0.3123
 3839TIP3    H111481   0.445   0.588   3.828 -1.4299  2.4952  1.0021
 3839TIP3    H211482   0.556   0.631   3.734 -0.0743 -1.8653  0.3765
 3840TIP3   OH211483   3.415   3.196   0.635  0.1425 -0.2357 -0.6185
 3840TIP3    H111484   3.327   3.179   0.668 -0.1725 -0.0394 -1.3399
 3840TIP3    H211485   3.450   3.110   0.613  0.2580 -0.3435 -0.0244
 3841TIP3   OH211486   7.128   1.880   1.308 -0.2212  0.2503 -0.3784
 3841TIP3    H111487   7.077   1.895   1.388  1.0058  0.6278  0.3431
 3841TIP3    H211488   7.093   1.797   1.274  0.5700 -0.9990  1.6451
 3842TIP3   OH211489   6.866   2.066   2.030  0.3687  0.1697  0.0040
 3842TIP3    H111490   6.894   2.112   2.109  1.5630 -0.0606 -0.2556
 3842TIP3    H211491   6.947   2.056   1.979  0.1456 -2.0906  0.0001
 3843TIP3   OH211492   0.820   6.651   0.544 -0.2273 -0.1122  0.4779
 3843TIP3    H111493   0.892   6.664   0.483  0.6156  0.4761  1.5527
 3843TIP3    H211494   0.756   6.719   0.522  0.1233  0.1699  0.3363
 3844TIP3   OH211495   6.808   5.666   4.911 -0.3352 -0.2329 -0.4819
 3844TIP3    H111496   6.819   5.755   4.879 -1.1388  0.5966  1.4250
 3844TIP3    H211497   6.888   5.621   4.883  0.4064  1.2658 -0.8751
 3845TIP3   OH211498   6.467   2.407   4.031  0.5950  0.1739 -0.6187
 3845TIP3    H111499   6.373   2.407   4.015  0.8682  0.1941 -2.4163
 3845TIP3    H211500   6.501   2.481   3.981  1.8485 -1.3281 -2.1632
 3846TIP3   OH211501   2.524   5.968   0.199  0.3648 -0.0308  0.4293
 3846TIP3    H111502   2.609   5.987   0.158 -0.3887  1.7774 -0.3964
 3846TIP3    H211503   2.475   6.050   0.193 -1.4014 -0.9790  1.0221
 3847TIP3   OH211504   3.099   0.308   4.003  0.2457 -0.3740 -0.1691
 3847TIP3    H111505   3.147   0.380   4.044 -2.3517  2.0506 -1.0606
 3847TIP3    H211506   3.142   0.297   3.918  1.2335 -0.5457  0.3334
 3848TIP3   OH211507   2.796   6.580   5.367  0.5671 -0.0793 -0.4563
 3848TIP3    H111508   2.712   6.624   5.382  1.1046  0.8062  0.1089
 3848TIP3    H211509   2.790   6.499   5.417 -0.1683 -0.3102 -0.9014
 3849TIP3   OH211510   2.466   6.684   0.326 -0.3439 -0.2831  0.2907
 3849TIP3    H111511   2.422   6.714   0.406  0.5367  0.3106  0.5663
 3849TIP3    H211512   2.468   6.762   0.270  0.4295 -0.2769  0.3232
 3850TIP3   OH211513   2.637   1.457   1.963  0.3179 -0.5659 -0.6231
 3850TIP3    H111514   2.689   1.510   1.904 -0.5458 -0.6687 -1.4936
 3850TIP3    H211515   2.548   1.489   1.953  0.0286 -1.1247  0.0270
 3851TIP3   OH211516   7.028   5.350   2.308 -0.0297 -0.2981 -0.3286
 3851TIP3    H111517   6.936   5.324   2.298  0.1123 -0.8386 -0.2672
 3851TIP3    H211518   7.034   5.434   2.264 -0.6587 -0.0442  0.0632
 3852TIP3   OH211519   2.508   3.385   0.663 -0.5058 -0.0923  0.3375
 3852TIP3    H111520   2.467   3.419   0.584 -0.0450 -1.0473 -0.3235
 3852TIP3    H211521   2.443   3.327   0.701 -0.8588  0.6268  0.8613
 3853TIP3   OH211522   2.875   4.938   3.390 -0.0805  0.0980  0.1083
 3853TIP3    H111523   2.871   4.898   3.303  0.7350 -0.5499  0.3550
 3853TIP3    H211524   2.879   5.032   3.374 -2.5046  0.1688 -0.4811
 3854TIP3   OH211525   0.212   5.869   0.578 -0.2755 -0.7647  0.6673
 3854TIP3    H111526   0.226   5.819   0.659 -2.0737 -0.0692  1.4764
 3854TIP3    H211527   0.129   5.835   0.544 -1.0922  1.0097  0.7700
 3855TIP3   OH211528   3.576   1.583   3.550  0.0161  0.4921  0.2998
 3855TIP3    H111529   3.613   1.575   3.462  0.8008 -1.5267  0.7665
 3855TIP3    H211530   3.489   1.545   3.543 -0.2901  1.2003  0.1966
 3856TIP3   OH211531   6.386   0.008   0.982 -0.0870  0.5290 -0.1299
 3856TIP3    H111532   6.438  -0.029   0.910 -0.2527  0.7788 -0.3790
 3856TIP3    H211533   6.438   0.080   1.015  0.5031 -0.2791  0.7373
 3857TIP3   OH211534   4.615   0.488   1.018 -0.1682 -0.0712  0.1115
 3857TIP3    H111535   4.653   0.406   0.986  0.2332  0.3585 -0.5393
 3857TIP3    H211536   4.669   0.512   1.093  1.0108  0.6306 -0.9176
 3858TIP3   OH211537   6.114   6.103   0.494 -0.0936  0.2314  0.1092
 3858TIP3    H111538   6.110   6.018   0.448 -0.6949  0.2877  0.0589
 3858TIP3    H211539   6.024   6.133   0.498  0.0249  0.5093  0.8257
 3859TIP3   OH211540   0.023   5.741   1.405 -0.2466  0.2771  0.5965
 3859TIP3    H111541   0.000   5.828   1.438 -1.8452 -0.1452  0.7086
 3859TIP3    H211542   0.032   5.688   1.484  1.3343  0.4545  0.5560
 3860TIP3   OH211543   1.252   5.144   3.261  0.0698 -0.0687  0.1934
 3860TIP3    H111544   1.323   5.154   3.198 -0.1694  0.3922 -0.0099
 3860TIP3    H211545   1.194   5.080   3.222  0.5232 -0.6761  0.5003
 3861TIP3   OH211546   3.328   0.946   1.422  0.6052 -0.6263 -0.0429
 3861TIP3    H111547   3.336   1.005   1.346 -1.0466  0.0534  0.2534
 3861TIP3    H211548   3.303   1.004   1.494 -0.1308 -1.5537  0.4756
 3862TIP3   OH211549   5.222   6.807   5.225  0.4316 -0.0510  0.5727
 3862TIP3    H111550   5.190   6.824   5.313  1.2515  2.4166  0.4750
 3862TIP3    H211551   5.159   6.746   5.187 -1.4192  0.8945  1.9841
 3863TIP3   OH211552   7.197   1.218   4.576  0.3355  0.5949  0.0327
 3863TIP3    H111553   7.201   1.182   4.665 -1.0898  0.6196  0.1210
 3863TIP3    H211554   7.210   1.312   4.589 -1.6900  0.8629  0.4590
 3864TIP3   OH211555   3.837   3.525   2.235 -0.3852 -0.2241 -0.5340
 3864TIP3    H111556   3.923   3.532   2.193  0.5787 -0.9091  1.2176
 3864TIP3    H211557   3.821   3.612   2.272 -1.1201  0.3077 -2.0489
 3865TIP3   OH211558   0.241   3.827   5.403 -0.6529 -0.4169  0.7360
 3865TIP3    H111559   0.170   3.797   5.347 -0.3195 -0.4606  0.3293
 3865TIP3    H211560   0.312   3.764   5.389 -0.0203  0.4225  0.0207
 3866TIP3   OH211561   4.155   3.162   3.632 -0.7348 -0.1182  0.0868
 3866TIP3    H111562   4.228   3.201   3.583 -0.8702 -0.5253 -0.4481
 3866TIP3    H211563   4.191   3.145   3.719 -0.3337  0.1204 -0.0288
 3867TIP3   OH211564   3.496   0.411   4.791  0.2761  0.1302  0.3261
 3867TIP3    H111565   3.541   0.460   4.722 -2.2602  0.8607 -0.9329
 3867TIP3    H211566   3.535   0.323   4.787 -0.3464 -0.1139 -2.6772
 3868TIP3   OH211567   6.977   5.950   1.558 -0.2574  0.0027  0.1671
 3868TIP3    H111568   6.963   6.036   1.597  0.1949  0.0172  0.3017
 3868TIP3    H211569   7.066   5.952   1.525  0.2114 -0.8365  1.2911
 3869TIP3   OH211570   3.672   5.972   2.981  0.5144  0.4796 -0.1652
 3869TIP3    H111571   3.636   6.060   2.974  0.5291  0.4641 -0.4480
 3869TIP3    H211572   3.625   5.921   2.914 -2.5753 -0.7833  2.7033
 3870TIP3   OH211573   0.130   2.237   2.428 -0.5746 -0.9749 -0.0240
 3870TIP3    H111574   0.165   2.325   2.433 -1.6166 -0.5686  0.4833
 3870TIP3    H211575   0.159   2.204   2.343  1.0600 -0.7069  0.3928
 3871TIP3   OH211576   3.744   5.108   2.739 -0.3940 -0.0822  0.5390
 3871TIP3    H111577   3.768   5.156   2.818  0.0675  0.2363  0.2042
 3871TIP3    H211578   3.787   5.154   2.667 -1.9189  0.4640 -0.0740
 3872TIP3   OH211579   3.991   3.155   1.007  0.6846  0.3755 -0.0721
 3872TIP3    H111580   3.997   3.244   0.972 -0.7883  0.6535  0.3237
 3872TIP3    H211581   4.007   3.165   1.101  0.5575  0.2202 -0.0332
 3873TIP3   OH211582   3.861   5.152   2.208  0.3368  0.4508  0.2225
 3873TIP3    H111583   3.853   5.149   2.113 -0.1117  0.4204  0.2595
 3873TIP3    H211584   3.948   5.187   2.224  0.8605 -0.5979 -0.2089
 3874TIP3   OH211585   6.505   4.192   0.471  0.4258  0.1296  0.3817
 3874TIP3    H111586   6.480   4.153   0.555  0.3265 -0.1555  0.2191
 3874TIP3    H211587   6.563   4.128   0.431  0.3948  0.2222  0.1878
 3875TIP3   OH211588   3.383   0.266   3.751  0.0916  0.4167 -0.2037
 3875TIP3    H111589   3.456   0.205   3.740 -1.2100 -1.2250 -0.3060
 3875TIP3    H211590   3.313   0.229   3.697 -1.0719  1.4754  0.5256
 3876TIP3   OH211591   4.382   5.328   0.391  0.8676  0.6808 -0.3857
 3876TIP3    H111592   4.287   5.331   0.393  0.7528 -0.7721 -1.8938
 3876TIP3    H211593   4.408   5.341   0.483 -0.8003  0.2600  0.1861
 3877TIP3   OH211594   6.523   6.629   5.783  0.5366 -0.4371  0.5037
 3877TIP3    H111595   6.529   6.683   5.863 -0.6022  2.4180 -1.1982
 3877TIP3    H211596   6.474   6.552   5.810  1.0242 -0.0356  2.7703
 3878TIP3   OH211597   3.896   3.824   5.397 -0.4615 -0.2053 -0.2824
 3878TIP3    H111598   3.957   3.852   5.328 -2.2693 -2.0372 -2.8244
 3878TIP3    H211599   3.818   3.796   5.349 -1.9633 -1.3120  2.6010
 3879TIP3   OH211600   6.031   6.418   5.514 -0.2309  0.5383  0.4664
 3879TIP3    H111601   5.952   6.383   5.472  0.8999 -0.2838 -1.0679
 3879TIP3    H211602   6.058   6.350   5.575  0.0560  0.2017 -0.0282
 3880TIP3   OH211603   3.952   1.706   5.715 -0.1808 -0.9338  0.2000
 3880TIP3    H111604   4.017   1.668   5.656 -0.3286  2.0329 -2.1520
 3880TIP3    H211605   4.002   1.734   5.791  0.8920 -0.8805 -0.5004
 3881TIP3   OH211606   1.472   4.504   2.833 -0.2421  0.1808 -0.6296
 3881TIP3    H111607   1.395   4.447   2.839 -0.1491 -0.0705 -1.6096
 3881TIP3    H211608   1.547   4.445   2.837 -0.1340  0.2770 -1.1033
 3882TIP3   OH211609   4.832   2.179   3.126  0.2828  0.0414  0.4961
 3882TIP3    H111610   4.752   2.223   3.156  0.2826 -0.6772  1.6269
 3882TIP3    H211611   4.903   2.240   3.148 -0.0941  2.5436 -4.0635
 3883TIP3   OH211612   1.003   4.034   0.595  0.3913  0.0761  0.1691
 3883TIP3    H111613   0.974   4.101   0.656  0.0779  0.6807 -0.6332
 3883TIP3    H211614   1.013   4.079   0.511  0.9887 -0.6985 -0.1993
 3884TIP3   OH211615   0.106   0.428   4.264  0.4446 -0.3823 -0.8942
 3884TIP3    H111616   0.084   0.491   4.332  0.1741  0.4219 -1.7040
 3884TIP3    H211617   0.061   0.348   4.290  1.4233 -0.4962  0.5555
 3885TIP3   OH211618   2.382   2.117   1.997 -0.3435 -0.1786  0.4431
 3885TIP3    H111619   2.390   2.085   2.087  0.7255  0.2228  0.4999
 3885TIP3    H211620   2.335   2.200   2.006 -0.8544 -0.4757  0.5541
 3886TIP3   OH211621   5.370   2.732   0.570 -0.0192  0.0587 -0.7959
 3886TIP3    H111622   5.291   2.750   0.622 -1.4178  1.5739 -3.2455
 3886TIP3    H211623   5.431   2.803   0.594  0.2121 -0.4759  0.2773
 3887TIP3   OH211624   4.974   6.255   1.924  0.0328 -0.3922 -0.3632
 3887TIP3    H111625   4.879   6.246   1.926 -0.0691  0.5600  0.7779
 3887TIP3    H211626   5.004   6.201   1.997  0.1254  1.2504  0.8712
 3888TIP3   OH211627   5.055   1.695   3.646 -0.0909  0.0389  0.1762
 3888TIP3    H111628   5.093   1.607   3.649 -0.0711  0.0644  0.7939
 3888TIP3    H211629   4.990   1.690   3.576  0.2727 -0.3182 -0.1444
 3889TIP3   OH211630   3.295   3.693   1.144  0.0276  0.0678  0.5939
 3889TIP3    H111631   3.210   3.720   1.178 -0.3021  0.3627 -0.4345
 3889TIP3    H211632   3.350   3.770   1.153 -0.3842  0.5147 -0.5890
 3890TIP3   OH211633   2.017   3.752   4.483  0.2041  0.3915 -0.2515
 3890TIP3    H111634   2.065   3.787   4.558  0.5525  0.3263 -0.4389
 3890TIP3    H211635   2.076   3.686   4.446 -0.0065  0.3546 -0.5230
 3891TIP3   OH211636   6.452   3.963   2.898 -0.1947  0.0903  1.2668
 3891TIP3    H111637   6.395   3.911   2.955 -2.0823 -0.4809 -0.9642
 3891TIP3    H211638   6.527   3.907   2.881 -1.2153 -1.1338  0.5755
 3892TIP3   OH211639   1.349   5.011   4.807 -0.9025 -0.3252 -0.6983
 3892TIP3    H111640   1.429   4.974   4.771  0.1493  0.7414  0.4522
 3892TIP3    H211641   1.331   5.087   4.751 -0.7453 -0.2049 -0.5884
 3893TIP3   OH211642   0.281   6.713   4.693 -0.2666  0.0481  0.7100
 3893TIP3    H111643   0.295   6.775   4.765 -1.0406 -0.7575  1.5768
 3893TIP3    H211644   0.314   6.759   4.616  1.0645  0.7305  1.6411
 3894TIP3   OH211645   3.262   3.722   3.805  0.0516  0.1304 -0.1718
 3894TIP3    H111646   3.305   3.724   3.720 -0.5319  0.4797 -0.4623
 3894TIP3    H211647   3.250   3.814   3.828  1.2084  0.0721  0.8149
 3895TIP3   OH211648   1.429   5.585   4.548  0.1850 -0.3453 -0.2462
 3895TIP3    H111649   1.524   5.573   4.557  0.0245 -0.8105  1.0293
 3895TIP3    H211650   1.401   5.509   4.497  0.5166 -0.1112 -0.7854
 3896TIP3   OH211651   1.798   0.074   5.537  0.0535 -0.0269  0.3706
 3896TIP3    H111652   1.875   0.111   5.493 -1.0199  0.7341 -0.9427
 3896TIP3    H211653   1.834   0.010   5.598  1.8588  1.6783  1.2055
 3897TIP3   OH211654   5.227   6.770   2.518  0.2398 -0.3951  0.4584
 3897TIP3    H111655   5.311   6.784   2.476  0.2175 -1.6944 -0.0659
 3897TIP3    H211656   5.189   6.695   2.472 -2.1409  1.4032 -0.7239
 3898TIP3   OH211657   6.656   6.355   3.570  0.6730 -0.2370  0.0935
 3898TIP3    H111658   6.750   6.339   3.580  1.1427 -1.9679 -4.4256
 3898TIP3    H211659   6.650   6.408   3.490 -2.2166 -0.4539  0.0689
 3899TIP3   OH211660   3.881   0.069   1.346  0.8167  0.1219 -0.0106
 3899TIP3    H111661   3.944   0.069   1.274  1.3651 -1.4319  0.4241
 3899TIP3    H211662   3.924   0.016   1.414 -0.9251 -0.9004  0.3340
 3900TIP3   OH211663   5.861   1.244   3.694  0.5224 -0.2781 -0.0008
 3900TIP3    H111664   5.853   1.337   3.671  1.9672  0.2768  1.5519
 3900TIP3    H211665   5.904   1.244   3.779  0.6269 -2.3914 -0.0091
 3901TIP3   OH211666   5.959   0.743   4.124  0.2609  0.3229 -0.2334
 3901TIP3    H111667   6.000   0.801   4.059  1.5594 -0.4088 -0.0872
 3901TIP3    H211668   5.913   0.678   4.071 -0.0411  0.6752 -0.4086
 3902TIP3   OH211669   0.467   4.442   0.454  0.2306  0.3418  0.3040
 3902TIP3    H111670   0.491   4.533   0.466  0.5360  0.3742 -0.5119
 3902TIP3    H211671   0.543   4.392   0.484 -0.0916  0.3294  1.1398
 3903TIP3   OH211672   4.629   5.649   3.002 -0.0468 -0.2275  0.2201
 3903TIP3    H111673   4.601   5.632   3.092 -1.3432  1.9562  0.2977
 3903TIP3    H211674   4.708   5.703   3.012 -0.5910  0.6126  0.0853
 3904TIP3   OH211675   6.975   6.214   2.891 -0.4516  0.2169  0.0490
 3904TIP3    H111676   6.928   6.296   2.871 -0.1178  0.7118  1.1954
 3904TIP3    H211677   7.013   6.229   2.977  2.4876  0.1289 -1.1257
 3905TIP3   OH211678   6.221   3.672   5.267  0.9710 -0.2434  0.1774
 3905TIP3    H111679   6.263   3.606   5.323  1.2219 -0.6739 -0.4996
 3905TIP3    H211680   6.252   3.652   5.179  2.1141  1.6337  0.1172
 3906TIP3   OH211681   3.773   4.825   0.948 -0.2311  0.1749 -0.1221
 3906TIP3    H111682   3.747   4.832   1.040  0.6774 -0.2114  0.1697
 3906TIP3    H211683   3.769   4.731   0.929 -0.5622  0.2660 -0.5317
 3907TIP3   OH211684   2.523   1.844   3.830 -0.1781  0.0781  0.2362
 3907TIP3    H111685   2.511   1.899   3.752  2.0050  0.0879 -0.1655
 3907TIP3    H211686   2.537   1.906   3.901  0.3946  0.0767  0.1329
 3908TIP3   OH211687   2.321   0.566   3.853  0.3986 -0.1504 -0.2639
 3908TIP3    H111688   2.292   0.512   3.927  1.7748 -1.9536 -0.9676
 3908TIP3    H211689   2.414   0.581   3.868  0.3812  0.7075 -0.9044
 3909TIP3   OH211690   0.457   5.059   4.988  0.2689  0.3221 -0.0085
 3909TIP3    H111691   0.396   5.066   5.062 -0.2308 -1.1735 -0.2446
 3909TIP3    H211692   0.412   5.102   4.916 -0.4970 -0.6964 -0.1567
 3910TIP3   OH211693   6.354   4.179   5.030 -0.3665 -0.5700  0.0053
 3910TIP3    H111694   6.332   4.270   5.051  0.8172 -0.4947  1.0636
 3910TIP3    H211695   6.270   4.134   5.026 -0.8779  0.2134  1.2551
 3911TIP3   OH211696   4.182   5.483   2.277  0.1833 -0.0443  0.2273
 3911TIP3    H111697   4.203   5.484   2.184  0.1932  0.4923  0.2291
 3911TIP3    H211698   4.260   5.518   2.320 -0.9813  3.0457  0.1464
 3912TIP3   OH211699   0.061   1.209   4.313  0.0304 -0.2981 -0.2124
 3912TIP3    H111700   0.009   1.213   4.394 -1.1248  0.3891 -0.9522
 3912TIP3    H211701   0.067   1.301   4.284  0.6875 -0.5047 -0.7532
 3913TIP3   OH211702   4.295   0.955   2.237  0.0557 -0.5102 -0.0593
 3913TIP3    H111703   4.318   0.971   2.328  1.4075 -0.6500 -0.3518
 3913TIP3    H211704   4.374   0.978   2.188 -0.8525  0.2014 -1.2658
 3914TIP3   OH211705   3.697   2.058   5.776  0.2584 -0.0330  0.0304
 3914TIP3    H111706   3.660   2.145   5.760 -1.2537 -0.5196  0.7096
 3914TIP3    H211707   3.708   2.021   5.688 -0.3937  0.3415 -0.2221
 3915TIP3   OH211708   6.021   5.688   1.426  0.7571  0.3669 -0.2701
 3915TIP3    H111709   6.041   5.771   1.470 -0.4972  1.2397 -1.2860
 3915TIP3    H211710   6.100   5.635   1.438  0.9478  1.0535  1.8737
 3916TIP3   OH211711   4.122   0.082   4.634 -0.0510  0.2642 -0.0177
 3916TIP3    H111712   4.123   0.021   4.561 -0.9652  1.1960 -0.8476
 3916TIP3    H211713   4.113   0.168   4.594 -2.1961  0.6978  1.1913
 3917TIP3   OH211714   0.699   6.479   2.295  0.3289 -0.2472  0.0978
 3917TIP3    H111715   0.688   6.392   2.333 -2.6748  0.2828  0.6616
 3917TIP3    H211716   0.785   6.509   2.326  0.6465 -2.2979  1.3199
 3918TIP3   OH211717   6.996   0.991   0.871 -0.2444 -0.2389  0.6016
 3918TIP3    H111718   7.087   1.003   0.842 -0.6754  2.1848  0.0023
 3918TIP3    H211719   6.946   0.978   0.791 -0.4998 -1.0303  0.8870
 3919TIP3   OH211720   6.225   3.316   5.616  0.2177  0.0773  0.3540
 3919TIP3    H111721   6.321   3.308   5.620  0.2271 -0.4239 -0.6474
 3919TIP3    H211722   6.209   3.368   5.537 -0.4235 -2.1765 -1.0944
 3920TIP3   OH211723   2.993   4.529   0.862 -0.3188  0.3212 -0.7790
 3920TIP3    H111724   2.988   4.556   0.954  0.2169  0.4810 -0.7893
 3920TIP3    H211725   2.930   4.585   0.816 -0.9801 -0.1303 -0.4280
 3921TIP3   OH211726   6.366   5.221   3.627 -0.6455 -0.1666 -0.3018
 3921TIP3    H111727   6.298   5.285   3.607 -1.1192 -1.0472 -1.6801
 3921TIP3    H211728   6.332   5.174   3.703  0.4659  2.2312  1.8207
 3922TIP3   OH211729   4.799   1.119   1.803 -0.0927 -0.2250 -0.0878
 3922TIP3    H111730   4.777   1.196   1.751 -0.5979 -0.5215 -0.3323
 3922TIP3    H211731   4.838   1.058   1.740 -1.0940 -0.7494 -0.2297
 3923TIP3   OH211732   2.529   2.219   5.371  0.2648  0.3249 -0.3396
 3923TIP3    H111733   2.610   2.261   5.398 -0.1024  0.4553  0.6139
 3923TIP3    H211734   2.515   2.150   5.436  0.8787 -1.3386 -1.9074
 3924TIP3   OH211735   4.865   6.315   2.995 -0.5198 -0.1178 -0.2004
 3924TIP3    H111736   4.862   6.221   3.007  1.4131 -0.3127 -0.8575
 3924TIP3    H211737   4.949   6.341   3.033 -0.6388  1.2060 -0.7881
 3925TIP3   OH211738   3.516   2.253   4.554  0.1566  0.3642 -0.2536
 3925TIP3    H111739   3.515   2.257   4.650  1.8870 -1.0199 -0.1472
 3925TIP3    H211740   3.492   2.342   4.527 -1.9320  0.3962  1.4121
 3926TIP3   OH211741   0.352   5.818   5.830 -0.2123  0.2824  0.0915
 3926TIP3    H111742   0.369   5.828   5.737  0.0718 -1.2672 -0.0430
 3926TIP3    H211743   0.369   5.726   5.848 -2.0916  0.1151  1.2974
 3927TIP3   OH211744   0.924   3.720   0.054 -0.4441  0.1566  0.1155
 3927TIP3    H111745   0.876   3.787   0.007 -0.3165  2.1139  2.5819
 3927TIP3    H211746   1.015   3.749   0.052 -0.5834  0.9092  2.4110
 3928TIP3   OH211747   4.551   2.712   2.106 -0.1975  0.3299  0.4457
 3928TIP3    H111748   4.513   2.640   2.156 -0.0895  0.2614  0.4311
 3928TIP3    H211749   4.483   2.779   2.103 -0.2379  0.2952  0.6027
 3929TIP3   OH211750   4.021   2.705   5.337 -0.7662 -0.3350  0.5339
 3929TIP3    H111751   3.934   2.686   5.305 -0.5849 -0.1221 -0.0848
 3929TIP3    H211752   4.046   2.626   5.386 -0.8718 -0.8319 -0.2014
 3930TIP3   OH211753   5.082   4.608   1.097  0.2210 -0.2203  0.2249
 3930TIP3    H111754   5.027   4.607   1.019 -0.6975  0.8225  0.8235
 3930TIP3    H211755   5.163   4.651   1.068 -0.1176  0.1689 -0.1556
 3931TIP3   OH211756   4.749   2.304   5.578  0.0895  0.0983 -0.4778
 3931TIP3    H111757   4.759   2.362   5.503  0.3721 -0.3493 -0.7931
 3931TIP3    H211758   4.815   2.235   5.564 -1.5781 -1.4445 -1.1909
 3932TIP3   OH211759   4.103   6.501   5.011  0.2643  0.1344  0.2457
 3932TIP3    H111760   4.100   6.563   4.939  1.1724  0.5604  0.5620
 3932TIP3    H211761   4.027   6.522   5.065 -0.0742  0.2091 -0.2591
 3933TIP3   OH211762   5.224   0.443   4.578  0.0027 -0.0148  0.2918
 3933TIP3    H111763   5.301   0.423   4.526  2.4430 -0.1311  3.5958
 3933TIP3    H211764   5.186   0.357   4.597  0.2350 -0.1229  0.2730
 3934TIP3   OH211765   6.660   0.853   0.392 -0.4278  0.0347  0.3514
 3934TIP3    H111766   6.587   0.904   0.428 -0.1872 -0.2706  1.3172
 3934TIP3    H211767   6.725   0.852   0.463  0.8427  0.9437 -0.7551
 3935TIP3   OH211768   4.011   1.607   0.565  0.6005 -0.1228 -0.2243
 3935TIP3    H111769   4.038   1.677   0.505  2.4352  0.3212  1.0177
 3935TIP3    H211770   4.065   1.621   0.643  0.9854 -2.9114  0.0941
 3936TIP3   OH211771   6.150   5.388   4.487  0.4745  0.2080 -0.0521
 3936TIP3    H111772   6.077   5.350   4.439  1.2114  0.4643 -1.4361
 3936TIP3    H211773   6.228   5.349   4.448  1.1341  0.9312  0.4958
 3937TIP3   OH211774   5.873   1.076   5.219 -0.1000  0.0792  0.2577
 3937TIP3    H111775   5.911   1.142   5.278  0.1063  0.9223 -0.7817
 3937TIP3    H211776   5.790   1.114   5.191  0.3377  0.2320 -0.8914
 3938TIP3   OH211777   6.695   5.194   2.498 -0.0453  0.1720  0.0872
 3938TIP3    H111778   6.680   5.280   2.460 -0.1220 -0.1740 -0.6654
 3938TIP3    H211779   6.648   5.133   2.442  1.0351 -0.5074 -0.1197
 3939TIP3   OH211780   2.358   6.581   4.295  0.2876  0.7399  0.5125
 3939TIP3    H111781   2.340   6.497   4.253  0.0766  0.9849  0.1074
 3939TIP3    H211782   2.320   6.646   4.236 -0.4650  1.0628  1.3279
 3940TIP3   OH211783   4.618   2.501   5.156 -0.4434  0.0487  0.0945
 3940TIP3    H111784   4.530   2.534   5.139 -0.1497  0.3980 -0.7702
 3940TIP3    H211785   4.659   2.569   5.210 -0.5659  0.0720  0.1598
 3941TIP3   OH211786   0.114   1.685   3.856  0.9686  0.0397 -0.5120
 3941TIP3    H111787   0.057   1.716   3.785  1.9602 -2.2230 -2.3968
 3941TIP3    H211788   0.059   1.624   3.906  0.8833  0.0639 -0.5760
 3942TIP3   OH211789   4.656   0.868   3.102 -0.3763 -0.2019 -0.3208
 3942TIP3    H111790   4.568   0.837   3.122  0.1420 -1.6497 -0.1848
 3942TIP3    H211791   4.661   0.869   3.007 -0.0836 -1.5632 -0.3431
 3943TIP3   OH211792   3.009   0.963   5.612  0.2709 -0.3782 -0.0889
 3943TIP3    H111793   3.001   0.893   5.548  0.2855 -0.9215  0.5000
 3943TIP3    H211794   2.960   0.933   5.689  0.4780  0.1424  0.2589
 3944TIP3   OH211795   3.122   0.353   3.145 -0.2000 -0.3228  0.0890
 3944TIP3    H111796   3.123   0.314   3.058  1.0385  1.3312 -0.6801
 3944TIP3    H211797   3.106   0.279   3.204  1.4842 -1.9350 -1.3370
 3945TIP3   OH211798   2.568   3.057   2.914  0.6291  0.0963  0.1739
 3945TIP3    H111799   2.571   3.043   2.820  1.0170 -0.6085  0.2868
 3945TIP3    H211800   2.485   3.019   2.942  0.7403 -0.1431  0.1832
 3946TIP3   OH211801   6.033   5.041   2.526 -0.4904  0.2493  0.6189
 3946TIP3    H111802   6.012   5.027   2.618  0.0419  1.0999  0.8773
 3946TIP3    H211803   6.122   5.076   2.526  0.8811 -2.8001 -0.4148
 3947TIP3   OH211804   3.844   2.227   2.926  0.0526  0.0537  0.5089
 3947TIP3    H111805   3.929   2.200   2.961  0.8771  1.8893  0.0326
 3947TIP3    H211806   3.862   2.253   2.836 -0.7675  1.5389  0.7341
 3948TIP3   OH211807   4.001   2.935   3.626  0.4091  0.0751  0.2294
 3948TIP3    H111808   4.058   3.011   3.643  0.2058 -0.3004  3.1053
 3948TIP3    H211809   3.913   2.972   3.621  0.3041  0.0596  1.6790
 3949TIP3   OH211810   1.099   4.202   4.707  0.4403 -0.5703  0.6037
 3949TIP3    H111811   1.147   4.200   4.623 -1.3590 -0.7412 -0.4700
 3949TIP3    H211812   1.044   4.123   4.704 -0.2684 -0.1255  1.5835
 3950TIP3   OH211813   2.319   0.262   2.022 -0.3492 -0.2655 -0.4084
 3950TIP3    H111814   2.228   0.250   2.048 -0.3972  0.3755 -0.2733
 3950TIP3    H211815   2.368   0.204   2.081 -0.5464  0.4525  0.4843
 3951TIP3   OH211816   1.712   5.655   3.239 -0.2214 -0.1082 -0.0521
 3951TIP3    H111817   1.669   5.700   3.166  0.8777  0.5945 -0.3000
 3951TIP3    H211818   1.700   5.714   3.313  1.9731  1.1260 -0.5695
 3952TIP3   OH211819   0.881   5.631   1.460  0.2902 -0.3551 -0.0883
 3952TIP3    H111820   0.931   5.707   1.488 -2.4152  1.0420  1.3983
 3952TIP3    H211821   0.847   5.655   1.374 -2.6523  1.4129  1.4036
 3953TIP3   OH211822   6.079   4.649   4.975 -0.9820  0.4796 -0.0238
 3953TIP3    H111823   6.040   4.686   5.054 -0.2811  0.1915  0.4701
 3953TIP3    H211824   6.171   4.673   4.980 -0.7291 -0.3965 -0.2383
 3954TIP3   OH211825   5.878   2.601   1.543 -0.3103  0.6970  0.0500
 3954TIP3    H111826   5.788   2.618   1.515 -0.1215  2.7871  0.4808
 3954TIP3    H211827   5.929   2.673   1.504  1.1409 -0.3346 -0.0184
 3955TIP3   OH211828   3.216   4.129   0.099  0.4850  0.1197 -0.3493
 3955TIP3    H111829   3.122   4.110   0.106  0.4486  0.3198 -0.2876
 3955TIP3    H211830   3.224   4.181   0.019  0.5996 -0.2526 -0.5800
 3956TIP3   OH211831   0.553   3.091   3.523 -0.0718  0.6110  0.3650
 3956TIP3    H111832   0.636   3.043   3.514 -0.6968 -0.1035 -2.5545
 3956TIP3    H211833   0.575   3.181   3.498 -0.3626  0.1556 -1.6738
 3957TIP3   OH211834   0.436   5.390   3.259  0.4374 -0.0619  0.0191
 3957TIP3    H111835   0.502   5.460   3.259 -0.7855  1.1491 -0.9855
 3957TIP3    H211836   0.419   5.372   3.167 -0.7172 -0.2601  0.2550
 3958TIP3   OH211837   4.046   4.856   0.945  0.3763 -0.2449 -0.5838
 3958TIP3    H111838   3.956   4.835   0.968  0.5248 -1.2347 -0.8551
 3958TIP3    H211839   4.081   4.899   1.023 -0.6567  1.2185 -0.8893
 3959TIP3   OH211840   6.716   5.943   5.253 -0.1845  0.7557 -0.2094
 3959TIP3    H111841   6.674   5.969   5.171 -0.1105 -0.2249 -0.5678
 3959TIP3    H211842   6.646   5.949   5.318 -0.2977  1.3275 -0.3714
 3960TIP3   OH211843   3.955   2.266   3.526 -0.2234  0.1384  0.4681
 3960TIP3    H111844   3.940   2.172   3.534  0.5218 -0.2291 -1.7451
 3960TIP3    H211845   3.874   2.306   3.559 -0.6777 -1.2564  1.1506
 3961TIP3   OH211846   4.906   5.945   2.845  0.3696  0.4236  0.1026
 3961TIP3    H111847   4.978   6.008   2.843 -0.3301  1.2294 -0.9953
 3961TIP3    H211848   4.846   5.978   2.911 -0.7408  1.8060 -1.5373
 3962TIP3   OH211849   5.915   1.848   1.387 -0.1295 -0.0285 -0.1739
 3962TIP3    H111850   5.983   1.849   1.319  1.0252 -1.6710  0.8813
 3962TIP3    H211851   5.935   1.924   1.442  1.7450 -1.1920  0.8775
 3963TIP3   OH211852   3.906   2.535   4.820  0.0336 -0.3638 -0.0005
 3963TIP3    H111853   3.976   2.574   4.872 -0.5230 -0.1592  0.6121
 3963TIP3    H211854   3.951   2.473   4.762  0.7239 -0.1857  0.3285
 3964TIP3   OH211855   6.536   5.221   0.305 -0.4258 -0.1540 -0.2923
 3964TIP3    H111856   6.569   5.238   0.216  1.1752  0.4843  0.3824
 3964TIP3    H211857   6.599   5.159   0.342 -0.7568  0.0243  0.5882
 3965TIP3   OH211858   4.373   0.590   1.118 -0.3185  0.0057 -0.4130
 3965TIP3    H111859   4.307   0.561   1.055 -1.1501  0.1065  0.3964
 3965TIP3    H211860   4.453   0.543   1.093 -1.4126 -2.4737  0.4070
 3966TIP3   OH211861   3.116   4.814   2.829 -0.4760 -0.0751 -0.1487
 3966TIP3    H111862   3.193   4.867   2.851 -0.6596 -0.2348  0.9330
 3966TIP3    H211863   3.138   4.726   2.858 -0.7523 -0.2920 -0.5833
 3967TIP3   OH211864   5.544   3.641   0.840 -0.4486 -0.3343 -0.5585
 3967TIP3    H111865   5.474   3.667   0.781  0.1085 -0.9642 -1.5292
 3967TIP3    H211866   5.578   3.559   0.803  0.7994 -0.0450 -0.1177
 3968TIP3   OH211867   5.987   1.712   2.717  0.2525  0.0867 -0.3603
 3968TIP3    H111868   6.081   1.704   2.737  0.2670 -1.2938 -0.8937
 3968TIP3    H211869   5.970   1.643   2.653 -1.3125 -0.2893  0.4067
 3969TIP3   OH211870   3.115   2.631   1.513 -0.3146 -0.2200  0.0486
 3969TIP3    H111871   3.125   2.598   1.424 -0.6999  1.0702 -0.4869
 3969TIP3    H211872   3.031   2.676   1.513 -0.2136 -0.0110  0.9989
 3970TIP3   OH211873   0.289   5.307   0.094 -0.3915 -0.4010 -0.3416
 3970TIP3    H111874   0.324   5.313   0.182  1.1958  2.3441 -1.0395
 3970TIP3    H211875   0.366   5.304   0.037 -1.2979  0.5572 -1.7062
 3971TIP3   OH211876   1.219   6.168   3.223  0.1106  0.3961 -0.0797
 3971TIP3    H111877   1.133   6.125   3.222 -0.4474  1.0422  3.6264
 3971TIP3    H211878   1.276   6.107   3.270  1.0403  0.9844 -0.4107
 3972TIP3   OH211879   1.424   4.567   2.552 -0.5834  0.0468 -0.6055
 3972TIP3    H111880   1.447   4.506   2.622 -0.3737 -0.3605 -1.0250
 3972TIP3    H211881   1.357   4.623   2.590  0.9580  1.1537  0.5955
 3973TIP3   OH211882   3.618   3.049   1.167 -0.1944  0.1885  0.7624
 3973TIP3    H111883   3.674   3.126   1.170 -0.6558  0.6108 -0.5959
 3973TIP3    H211884   3.550   3.065   1.232  0.3785  0.3917  1.3089
 3974TIP3   OH211885   2.270   1.599   3.293  0.6277  0.1804  0.8770
 3974TIP3    H111886   2.261   1.508   3.323  1.1903 -0.2727 -0.2713
 3974TIP3    H211887   2.357   1.603   3.253  0.3169  1.0314  0.2593
 3975TIP3   OH211888   5.712   3.486   0.233 -0.4102 -0.1879 -0.0977
 3975TIP3    H111889   5.804   3.475   0.257 -0.5100  0.4580  0.6075
 3975TIP3    H211890   5.677   3.397   0.230  0.0853 -0.3976  0.2342
 3976TIP3   OH211891   2.578   3.952   1.434  0.0406 -0.1697 -0.0343
 3976TIP3    H111892   2.614   4.029   1.478  0.5975 -0.4776  0.0587
 3976TIP3    H211893   2.484   3.968   1.432  0.2351  0.9836 -0.9247
 3977TIP3   OH211894   5.601   1.647  -0.000  1.0797 -0.2256 -0.3875
 3977TIP3    H111895   5.694   1.632   0.018  0.6452 -1.1378  1.3303
 3977TIP3    H211896   5.583   1.732   0.039  0.7351 -1.0262  1.2778
 3978TIP3   OH211897   4.299   3.532   5.217 -0.5015  0.3938  0.0135
 3978TIP3    H111898   4.358   3.600   5.184  1.2498 -0.1770  1.8074
 3978TIP3    H211899   4.342   3.499   5.296 -2.5724 -1.0260  0.6210
 3979TIP3   OH211900   6.846   3.483   5.399  0.0376 -0.1549  0.2539
 3979TIP3    H111901   6.818   3.422   5.467  0.9752 -0.7073  0.1598
 3979TIP3    H211902   6.843   3.431   5.318  0.5436  0.0081  0.1269
 3980TIP3   OH211903   4.422   6.200   4.088 -0.0840 -0.6685 -0.0218
 3980TIP3    H111904   4.360   6.179   4.158  0.0510  1.7533  0.9258
 3980TIP3    H211905   4.484   6.128   4.089 -1.3592 -1.8101  0.8193
 3981TIP3   OH211906   3.413   0.173   0.256  0.3262 -0.1064 -0.0064
 3981TIP3    H111907   3.419   0.090   0.303 -0.7952 -0.7927 -1.0392
 3981TIP3    H211908   3.499   0.214   0.269  0.0596 -0.1985  2.6937
 3982TIP3   OH211909   1.884   3.202   4.216  0.0970 -0.3399 -0.1539
 3982TIP3    H111910   1.917   3.194   4.306  0.9815 -1.1137 -0.5347
 3982TIP3    H211911   1.910   3.121   4.173  2.4829  1.2793 -2.0073
 3983TIP3   OH211912   5.018   2.407   5.870  0.5907  0.1691  0.4055
 3983TIP3    H111913   5.042   2.338   5.932 -0.8438  0.4149  1.2800
 3983TIP3    H211914   5.069   2.387   5.791  0.0466 -2.0364  0.5396
 3984TIP3   OH211915   7.189   5.826   4.001  0.0274 -0.3158  0.7075
 3984TIP3    H111916   7.169   5.732   4.002 -0.2487 -0.3390 -1.2553
 3984TIP3    H211917   7.116   5.865   3.951  0.5654  0.8192  0.7745
 3985TIP3   OH211918   6.655   2.653   5.337  0.2384  0.4538 -0.3843
 3985TIP3    H111919   6.576   2.620   5.293  0.4923 -1.7400  0.6346
 3985TIP3    H211920   6.623   2.684   5.422  0.5818 -2.0349  0.7477
 3986TIP3   OH211921   5.634   4.105   5.336 -0.2645 -0.4354  0.0186
 3986TIP3    H111922   5.573   4.169   5.372  0.0943 -0.0929  0.0261
 3986TIP3    H211923   5.622   4.110   5.241 -0.2216 -0.3421  0.0180
 3987TIP3   OH211924   2.938   3.886   3.715 -0.0465  0.2326 -0.9400
 3987TIP3    H111925   2.994   3.877   3.792 -0.0000  0.9809 -0.8825
 3987TIP3    H211926   2.871   3.819   3.726  0.0136  0.2748 -0.2966
 3988TIP3   OH211927   2.363   6.650   2.735 -0.4007  0.1532  0.3242
 3988TIP3    H111928   2.274   6.620   2.719 -0.9912  2.0002 -0.0607
 3988TIP3    H211929   2.402   6.655   2.648 -0.1026 -0.1134  0.4412
 3989TIP3   OH211930   4.273   4.862   3.777 -0.1118 -0.3742 -0.4226
 3989TIP3    H111931   4.288   4.767   3.772  0.9104 -0.2042 -0.7332
 3989TIP3    H211932   4.339   4.900   3.720  1.2471  0.6722  1.6980
 3990TIP3   OH211933   4.686   4.807   5.371 -0.0009 -0.3206 -0.3214
 3990TIP3    H111934   4.719   4.756   5.296  0.1901  1.3947 -1.4693
 3990TIP3    H211935   4.612   4.857   5.335  0.3376  0.8324  0.5226
 3991TIP3   OH211936   0.735   4.048   3.716  0.1574 -0.2726  0.0558
 3991TIP3    H111937   0.733   3.981   3.784  0.3410 -2.5456 -2.0106
 3991TIP3    H211938   0.748   3.999   3.635 -2.4510  1.9736 -1.9455
 3992TIP3   OH211939   1.422   3.059   0.710  0.4611  0.1952 -0.0966
 3992TIP3    H111940   1.367   3.110   0.770  0.6679 -0.8188  0.9808
 3992TIP3    H211941   1.506   3.106   0.709  0.0805  0.8834 -0.5399
 3993TIP3   OH211942   4.300   2.229   3.812  0.5898 -0.2079  0.2406
 3993TIP3    H111943   4.220   2.184   3.837  0.7767 -0.9459 -0.4189
 3993TIP3    H211944   4.304   2.219   3.717  1.4944 -0.2573  0.2710
 3994TIP3   OH211945   2.956   6.323   2.588  0.0075  0.5856 -0.2400
 3994TIP3    H111946   3.012   6.283   2.521 -1.5489  0.2678 -1.4117
 3994TIP3    H211947   2.907   6.391   2.541 -1.1703  0.3198  0.5577
 3995TIP3   OH211948   4.491   5.013   3.621  0.1968 -0.0069 -0.0751
 3995TIP3    H111949   4.526   4.924   3.626 -0.8623 -0.4753 -0.5457
 3995TIP3    H211950   4.556   5.068   3.664  0.1706 -1.2170  1.5801
 3996TIP3   OH211951   2.656   6.751   1.875  0.0425 -0.3748  0.9850
 3996TIP3    H111952   2.676   6.834   1.918  1.4795 -0.6151  0.8217
 3996TIP3    H211953   2.560   6.747   1.874 -0.1248  2.0329 -0.4237
 3997TIP3   OH211954   1.134   4.407   0.432 -0.6992  0.1900 -0.0963
 3997TIP3    H111955   1.169   4.462   0.501  0.8274 -0.5275 -0.2648
 3997TIP3    H211956   1.182   4.432   0.354 -2.0687  0.6529 -0.8240
 3998TIP3   OH211957   0.474   2.319   4.073 -0.2763 -0.5951 -0.5453
 3998TIP3    H111958   0.545   2.323   4.009  1.7471 -1.4856  1.5152
 3998TIP3    H211959   0.457   2.410   4.097  1.6756 -0.4513  0.4450
 3999TIP3   OH211960   7.156   0.459   0.344  0.5585  0.2069 -0.6352
 3999TIP3    H111961   7.223   0.430   0.406  1.5888  0.2462 -1.7059
 3999TIP3    H211962   7.075   0.418   0.376  1.3569 -1.0797 -0.1790
 4000TIP3   OH211963   0.636   3.122   1.544  0.7209  0.2026 -0.5600
 4000TIP3    H111964   0.632   3.127   1.639  0.8250  2.2454 -0.6066
 4000TIP3    H211965   0.657   3.031   1.525 -0.5798 -0.5361  1.3063
 4001TIP3   OH211966   2.561   0.035   1.711 -0.2258  0.4350  0.0624
 4001TIP3    H111967   2.572  -0.003   1.798 -2.9369  2.4624  1.4587
 4001TIP3    H211968   2.479  -0.000   1.678  0.8655 -0.4887 -1.8842
 4002TIP3   OH211969   4.587   2.519   0.185 -0.4770 -0.1018 -0.0122
 4002TIP3    H111970   4.552   2.433   0.207 -0.2503 -0.3086 -0.4444
 4002TIP3    H211971   4.659   2.501   0.124  0.5025  0.2967  0.9939
 4003TIP3   OH211972   3.255   3.300   4.391  0.2523  0.5915 -0.5172
 4003TIP3    H111973   3.300   3.218   4.412 -1.2440  0.3043  2.0608
 4003TIP3    H211974   3.268   3.311   4.297  3.3181 -0.8266 -0.3773
 4004TIP3   OH211975   2.740   1.180   4.368  0.1194 -0.2181 -0.0386
 4004TIP3    H111976   2.727   1.140   4.282 -0.1688 -0.8787  0.3016
 4004TIP3    H211977   2.827   1.220   4.363  1.0564 -2.1083  0.0426
 4005TIP3   OH211978   3.871   0.519   4.268 -0.1542  0.3104 -0.1020
 4005TIP3    H111979   3.936   0.467   4.220  0.1634 -0.3281  0.9858
 4005TIP3    H211980   3.801   0.457   4.288  1.2041 -0.3881  3.1378
 4006TIP3   OH211981   4.285   6.143   3.726 -0.5185  0.0385 -0.1321
 4006TIP3    H111982   4.246   6.228   3.701 -0.7181  0.0649  0.2524
 4006TIP3    H211983   4.370   6.166   3.762 -0.3131  0.0185 -0.6021
 4007TIP3   OH211984   0.826   0.969   2.150 -0.5172 -0.2617 -0.5776
 4007TIP3    H111985   0.836   1.060   2.178  1.2989 -0.7510  0.5142
 4007TIP3    H211986   0.864   0.967   2.062 -0.3269 -0.0142 -0.5035
 4008TIP3   OH211987   5.665   5.165   4.300  0.1572  0.0677 -0.8129
 4008TIP3    H111988   5.678   5.237   4.362 -0.1475 -0.0623 -0.5945
 4008TIP3    H211989   5.620   5.098   4.351 -0.2310  0.0174 -1.2199
 4009TIP3   OH211990   1.439   2.931   5.100 -0.2154 -1.0153 -0.5648
 4009TIP3    H111991   1.501   2.967   5.163 -1.1806 -0.8360  0.3209
 4009TIP3    H211992   1.474   2.845   5.077  0.2155 -1.0235  0.1179
 4010TIP3   OH211993   6.620   2.876   4.963 -0.6763 -0.4950  0.4030
 4010TIP3    H111994   6.574   2.903   5.042  0.9591  1.9285  0.6168
 4010TIP3    H211995   6.606   2.947   4.901 -0.3522 -1.4867 -0.8601
 4011TIP3   OH211996   3.349   0.693   2.170  0.2618  0.1865  0.5169
 4011TIP3    H111997   3.420   0.629   2.170  0.9908  0.9500 -0.8067
 4011TIP3    H211998   3.392   0.778   2.161 -0.8347  0.5362 -2.7794
 4012TIP3   OH211999   3.096   3.244   4.964  0.2479 -0.0062 -0.1050
 4012TIP3    H112000   3.037   3.312   4.932 -0.4944 -1.1197 -1.2447
 4012TIP3    H212001   3.070   3.230   5.055  0.3244  1.1268  0.0970
 4013TIP3   OH212002   2.477   6.621   5.483 -0.2377 -0.6326  0.1170
 4013TIP3    H112003   2.400   6.564   5.478 -1.6250  1.1338  0.3912
 4013TIP3    H212004   2.464   6.686   5.414  0.2158  0.6078  1.1550
 4014TIP3   OH212005   2.034   3.652   5.254 -0.5023  0.7263  0.0816
 4014TIP3    H112006   2.109   3.711   5.246  0.4356 -0.2669  1.1879
 4014TIP3    H212007   1.968   3.704   5.300  0.4385  0.8565  1.3579
 4015TIP3   OH212008   5.403   4.296   1.019  0.7575  0.6394  0.3544
 4015TIP3    H112009   5.318   4.305   0.976  1.4834 -0.1781 -1.3545
 4015TIP3    H212010   5.397   4.215   1.069  0.6537  0.3530 -0.1148
 4016TIP3   OH212011   3.114   5.933   4.446  0.0481 -0.3754 -0.1219
 4016TIP3    H112012   3.205   5.944   4.416 -0.5569 -0.0900 -1.9955
 4016TIP3    H212013   3.083   6.023   4.460 -0.5012 -0.3571 -1.3501
 4017TIP3   OH212014   6.455   0.880   1.017 -0.1923 -0.1497  0.4835
 4017TIP3    H112015   6.523   0.916   1.074 -0.5243  0.0760  0.7432
 4017TIP3    H212016   6.494   0.880   0.930  0.8074 -1.6973  0.8902
 4018TIP3   OH212017   6.379   4.539   5.392  0.1415 -0.2912 -0.0871
 4018TIP3    H112018   6.358   4.632   5.387  1.0032 -0.0275  0.8377
 4018TIP3    H212019   6.311   4.501   5.447 -0.0110 -0.1400 -0.1715
 4019TIP3   OH212020   3.469   0.384   0.818 -0.1818 -0.7429 -0.1443
 4019TIP3    H112021   3.526   0.309   0.835 -1.9367 -2.3050 -0.7101
 4019TIP3    H212022   3.444   0.375   0.726 -0.8901  0.2163 -0.0643
 4020TIP3   OH212023   4.565   5.392   4.825 -0.4590 -0.0632 -0.0856
 4020TIP3    H112024   4.482   5.366   4.785 -1.2689  1.0470  0.7867
 4020TIP3    H212025   4.589   5.473   4.780 -0.3581  0.1234  0.2944
 4021TIP3   OH212026   5.003   0.628   1.244  0.0009 -0.7019 -0.0704
 4021TIP3    H112027   5.050   0.613   1.326  1.0566  1.4088 -0.2014
 4021TIP3    H212028   4.941   0.699   1.264 -0.2305 -0.6501 -0.9132
 4022TIP3   OH212029   4.217   4.402   3.215  0.0673 -0.2718 -0.0272
 4022TIP3    H112030   4.175   4.396   3.129  0.5420  2.7175 -0.5857
 4022TIP3    H212031   4.308   4.377   3.199 -0.3456 -2.0056  0.1573
 4023TIP3   OH212032   6.885   1.048   5.690  0.1838  0.4685  0.2380
 4023TIP3    H112033   6.898   1.045   5.785 -3.5872 -1.8215  0.8907
 4023TIP3    H212034   6.944   0.981   5.656  2.0516  1.7559  0.7917
 4024TIP3   OH212035   2.623   0.483   1.919 -0.2207  0.2788 -0.0548
 4024TIP3    H112036   2.572   0.423   1.865  1.1966  0.6553 -1.9116
 4024TIP3    H212037   2.562   0.555   1.938 -1.5814 -1.1446  1.2492
 4025TIP3   OH212038   2.506   5.623   1.422  0.6346 -0.7230  0.6076
 4025TIP3    H112039   2.586   5.617   1.370 -0.4939  0.5016 -1.3997
 4025TIP3    H212040   2.470   5.709   1.401 -1.9840 -1.8108  0.2446
 4026TIP3   OH212041   1.931   3.633   1.726 -0.6099  0.0266  0.1013
 4026TIP3    H112042   1.880   3.681   1.660 -0.5884 -2.4858 -1.8886
 4026TIP3    H212043   1.869   3.616   1.796 -0.9466  1.7967  0.2823
 4027TIP3   OH212044   5.076   3.197   3.623 -0.2956  0.0952 -0.2915
 4027TIP3    H112045   5.032   3.282   3.625  1.4976  1.0704 -0.2347
 4027TIP3    H212046   5.077   3.168   3.715  0.0730  0.5613 -0.1438
 4028TIP3   OH212047   1.004   5.390   3.165 -0.3615  0.1732  0.5559
 4028TIP3    H112048   0.949   5.312   3.160 -1.4856  1.0219 -1.7248
 4028TIP3    H212049   0.958   5.449   3.225 -0.2491 -0.3359  1.1540
 4029TIP3   OH212050   6.167   2.538   0.648 -0.3406 -0.0836 -0.1932
 4029TIP3    H112051   6.187   2.492   0.729 -0.5298  0.6938  0.3075
 4029TIP3    H212052   6.085   2.498   0.617 -0.7088  0.1647  0.4384
 4030TIP3   OH212053   0.775   1.536   2.995  0.0379 -0.0791 -0.1518
 4030TIP3    H112054   0.721   1.491   2.930  0.3371  0.4188 -0.7570
 4030TIP3    H212055   0.714   1.594   3.040 -0.0636 -0.0182 -0.3668
 4031TIP3   OH212056   1.903   1.333   1.636 -0.0788 -0.5054  0.1230
 4031TIP3    H112057   1.827   1.390   1.628  0.5770  0.1796 -1.6558
 4031TIP3    H212058   1.946   1.360   1.718  0.1106  1.4335 -0.5871
 4032TIP3   OH212059   6.329   1.693   5.025 -0.4176 -0.1970  0.5847
 4032TIP3    H112060   6.283   1.625   5.074 -1.2581  0.0197  0.1245
 4032TIP3    H212061   6.413   1.654   5.002  0.4222  0.0051  2.9686
 4033TIP3   OH212062   3.426   3.099   3.544 -0.3706  0.0786  0.3658
 4033TIP3    H112063   3.497   3.075   3.483  0.3664  0.3675  1.0893
 4033TIP3    H212064   3.346   3.081   3.496  0.1890 -1.0946 -0.1691
 4034TIP3   OH212065   3.354   1.455   3.221  0.2637  0.5006 -0.2737
 4034TIP3    H112066   3.291   1.513   3.264  1.0977  1.6148 -0.5025
 4034TIP3    H212067   3.394   1.509   3.153  1.2636 -0.2614 -0.3240
 4035TIP3   OH212068   6.557   3.667   1.069 -0.1676 -0.3159  0.1238
 4035TIP3    H112069   6.576   3.579   1.101 -0.8833 -0.2100  0.8667
 4035TIP3    H212070   6.642   3.711   1.068  0.3544 -1.2670 -1.1093
 4036TIP3   OH212071   6.314   2.349   4.742 -0.2077  0.1243  0.5120
 4036TIP3    H112072   6.394   2.379   4.701 -0.1374 -0.1446  0.4521
 4036TIP3    H212073   6.343   2.286   4.808 -0.3149  0.5695  0.9900
 4037TIP3   OH212074   0.420   5.213   1.191 -0.0951  0.7395 -0.3680
 4037TIP3    H112075   0.336   5.258   1.193 -0.1987  0.7849 -2.7517
 4037TIP3    H212076   0.476   5.263   1.251 -1.3641  1.4941  0.2311
 4038TIP3   OH212077   2.323   1.336   5.374  0.7287  0.1156 -0.2428
 4038TIP3    H112078   2.238   1.333   5.331  0.0969 -1.4990  1.0172
 4038TIP3    H212079   2.379   1.384   5.313 -0.2102 -1.6244 -2.6370
 4039TIP3   OH212080   1.988   5.004   5.065  0.5605 -0.4027  0.1375
 4039TIP3    H112081   2.005   5.097   5.048  1.6809 -0.4880  0.6867
 4039TIP3    H212082   2.029   4.987   5.150 -2.1404 -0.7304  1.4849
 4040TIP3   OH212083   2.679  -0.009   2.693 -0.3113  0.3745 -0.9327
 4040TIP3    H112084   2.586   0.014   2.696 -0.4883 -0.4100  0.4878
 4040TIP3    H212085   2.724   0.064   2.735 -0.4171  0.2012 -0.5125
 4041TIP3   OH212086   0.129   1.193   3.895  0.0955  0.2166 -0.7164
 4041TIP3    H112087   0.182   1.266   3.927  0.9542 -0.2323 -1.0832
 4041TIP3    H212088   0.048   1.199   3.945  1.2316 -0.2241  1.2764
 4042TIP3   OH212089   6.892   2.406   1.325 -0.6370  0.5852  0.0815
 4042TIP3    H112090   6.950   2.481   1.333 -0.6290  0.4875  1.1746
 4042TIP3    H212091   6.827   2.418   1.395  1.2847 -2.0411  2.5745
 4043TIP3   OH212092   1.651   5.936   5.927  0.2258 -0.3984 -0.1229
 4043TIP3    H112093   1.729   5.894   5.889  0.5678  0.3970 -0.3105
 4043TIP3    H212094   1.601   5.967   5.852  1.3625  2.0146  0.0115
 4044TIP3   OH212095   7.035   2.184   2.867 -0.4897  0.2208  0.1169
 4044TIP3    H112096   7.124   2.167   2.837 -0.5235  0.2148  0.0193
 4044TIP3    H212097   7.007   2.261   2.818  0.0035  1.1579  1.2571
 4045TIP3   OH212098   1.399   6.618   4.543 -0.1595 -0.0313  0.0546
 4045TIP3    H112099   1.441   6.649   4.624  0.8481 -0.9862 -0.0819
 4045TIP3    H212100   1.368   6.698   4.501  2.6721  0.9240 -0.4660
 4046TIP3   OH212101   1.187   5.517   5.055  0.1341  0.5296  0.2660
 4046TIP3    H112102   1.158   5.436   5.098 -2.5518  0.9821 -0.5105
 4046TIP3    H212103   1.242   5.487   4.983 -0.7506 -0.6376  0.0374
 4047TIP3   OH212104   3.901   4.313   2.758 -0.0006 -0.1507  0.1741
 4047TIP3    H112105   3.937   4.235   2.716 -1.6701 -0.8494 -0.0487
 4047TIP3    H212106   3.847   4.354   2.690 -0.4762  0.2543  0.7846
 4048TIP3   OH212107   5.829   2.509   5.419  0.0743 -0.1341  0.1556
 4048TIP3    H112108   5.911   2.492   5.372 -0.1752  0.2533 -0.4327
 4048TIP3    H212109   5.794   2.422   5.438 -0.9923 -0.3709 -2.4653
 4049TIP3   OH212110   1.470   4.170   0.409 -0.2917  0.5051  0.6590
 4049TIP3    H112111   1.411   4.216   0.349  0.5910  0.8520  0.0339
 4049TIP3    H212112   1.412   4.120   0.466 -1.1575  0.1512 -0.4936
 4050TIP3   OH212113   1.687   6.359   0.893  0.8387 -0.0309 -0.1495
 4050TIP3    H112114   1.701   6.440   0.941 -1.4361  1.4861 -1.8494
 4050TIP3    H212115   1.615   6.316   0.939  0.2739  0.2410 -0.7650
 4051TIP3   OH212116   2.214   0.517   5.724  0.2038  0.7149  0.2402
 4051TIP3    H112117   2.127   0.544   5.696  0.2726  1.8468  1.0241
 4051TIP3    H212118   2.274   0.557   5.662  0.2251  1.0320  0.4628
 4052TIP3   OH212119   5.678   0.560   5.012 -1.0414 -0.4693 -0.9239
 4052TIP3    H112120   5.587   0.535   4.994 -1.9985  1.4118  0.8690
 4052TIP3    H212121   5.706   0.605   4.932 -1.5784 -1.2993 -1.5965
 4053TIP3   OH212122   7.149   1.247   0.223  0.5025  0.4578 -0.6298
 4053TIP3    H112123   7.079   1.309   0.244 -0.7702 -0.5577 -1.6862
 4053TIP3    H212124   7.209   1.252   0.298 -0.7167  1.3370  0.3349
 4054TIP3   OH212125   4.363   3.602   5.663 -0.0800 -0.0393  0.3502
 4054TIP3    H112126   4.324   3.524   5.702  1.1609 -1.0473 -0.3667
 4054TIP3    H212127   4.353   3.669   5.731 -1.0120 -0.8509  1.0522
 4055TIP3   OH212128   0.499   0.475   3.453 -0.1516 -0.3074  0.2052
 4055TIP3    H112129   0.502   0.538   3.525  1.6127  0.2823 -0.3414
 4055TIP3    H212130   0.571   0.501   3.395 -0.9185 -1.3645 -1.2795
 4056TIP3   OH212131   5.489   0.065   0.744 -0.3189 -0.2209  0.4572
 4056TIP3    H112132   5.495   0.054   0.649  1.9640  0.4939  0.4576
 4056TIP3    H212133   5.403   0.030   0.767  0.1555 -2.9559 -1.5136
 4057TIP3   OH212134   1.634   1.773   1.679  0.3971  0.7659 -0.5417
 4057TIP3    H112135   1.591   1.698   1.722 -0.2491  0.1483 -2.2014
 4057TIP3    H212136   1.727   1.749   1.677  0.3542  0.5291 -0.0655
 4058TIP3   OH212137   4.774   5.988   5.762  0.6183  0.6285  0.1585
 4058TIP3    H112138   4.770   5.943   5.846 -0.5188  1.6349  0.6750
 4058TIP3    H212139   4.866   5.982   5.736  0.7688 -0.6858  0.9091
 4059TIP3   OH212140   4.901   4.350   1.217  0.1748 -0.4458  0.0705
 4059TIP3    H112141   4.919   4.352   1.311 -1.4038 -0.5292  0.3935
 4059TIP3    H212142   4.984   4.375   1.177  0.7415  0.0724  1.4986
 4060TIP3   OH212143   5.269   0.153   1.891  0.1091  0.1672 -0.7451
 4060TIP3    H112144   5.237   0.241   1.872  0.7032  0.5694  0.0631
 4060TIP3    H212145   5.312   0.126   1.809  1.6881  1.4500 -0.3900
 4061TIP3   OH212146   6.851   0.554   2.102  0.3396 -0.3538  0.1248
 4061TIP3    H112147   6.813   0.527   2.185 -0.7406 -0.5118 -0.4067
 4061TIP3    H212148   6.817   0.492   2.038  0.8637 -0.0116 -0.5015
 4062TIP3   OH212149   2.671   4.551   4.852 -0.0462 -0.1279  0.0850
 4062TIP3    H112150   2.638   4.462   4.840 -0.1857 -0.1968  0.9316
 4062TIP3    H212151   2.593   4.606   4.858  0.0455  0.2585 -1.7989
 4063TIP3   OH212152   3.835   6.096   5.426  0.2507 -0.6257  0.3498
 4063TIP3    H112153   3.930   6.105   5.419  0.2570 -0.9881 -0.1141
 4063TIP3    H212154   3.804   6.184   5.446  0.6018 -0.2854 -0.5380
 4064TIP3   OH212155   3.403   6.546   0.029  0.2090 -0.0112 -0.0930
 4064TIP3    H112156   3.449   6.628   0.048 -0.5876 -0.0592  2.3094
 4064TIP3    H212157   3.404   6.498   0.111 -4.1900  0.0382  0.2199
 4065TIP3   OH212158   5.158   0.220   2.193  0.0402 -0.0726  0.4688
 4065TIP3    H112159   5.243   0.176   2.184  0.9129  1.3163  1.4271
 4065TIP3    H212160   5.168   0.302   2.144 -1.8464 -1.1973 -2.0227
 4066TIP3   OH212161   4.402   6.158   1.907  0.2766 -0.7226  0.1221
 4066TIP3    H112162   4.392   6.253   1.897  0.6759 -0.7294 -0.3247
 4066TIP3    H212163   4.342   6.136   1.979  0.5665 -0.0539  0.5830
 4067TIP3   OH212164   4.670   2.958   1.519 -0.0830 -0.2126 -0.1782
 4067TIP3    H112165   4.596   3.010   1.487 -0.8337 -0.6840  0.7380
 4067TIP3    H212166   4.631   2.899   1.583  0.9472 -1.1109 -0.3574
 4068TIP3   OH212167   1.443   6.506   1.169  0.7724 -0.2494 -0.1972
 4068TIP3    H112168   1.366   6.483   1.116 -1.0278  2.0296  1.1956
 4068TIP3    H212169   1.496   6.561   1.112 -0.2672  0.7633 -0.2145
 4069TIP3   OH212170   0.623   0.988   3.864  0.1874  0.1492  0.1242
 4069TIP3    H112171   0.590   0.949   3.945 -2.0011  1.7419  0.0821
 4069TIP3    H212172   0.549   0.984   3.804  2.4371 -3.3834 -2.8448
 4070TIP3   OH212173   4.027   5.732   4.426  0.5586  0.1706 -0.3675
 4070TIP3    H112174   4.087   5.677   4.376  1.5579  1.0590 -0.1684
 4070TIP3    H212175   3.999   5.676   4.498  0.6880 -0.4426 -0.7763
 4071TIP3   OH212176   3.892   3.089   0.614  0.0981 -0.1447 -1.3941
 4071TIP3    H112177   3.883   2.999   0.646  2.3521  0.0606  0.0445
 4071TIP3    H212178   3.985   3.109   0.624  0.1397  1.4896 -4.1801
 4072TIP3   OH212179   2.115   6.457   4.609  0.1919 -0.3437  0.1114
 4072TIP3    H112180   2.187   6.478   4.669 -0.1055 -0.7241  0.6068
 4072TIP3    H212181   2.087   6.541   4.575  0.2150 -0.1031  0.6787
 4073TIP3   OH212182   1.781   5.873   2.432 -0.2088  0.1337  0.7978
 4073TIP3    H112183   1.848   5.846   2.494  0.8689  0.6751 -0.0991
 4073TIP3    H212184   1.698   5.857   2.478  0.3870 -3.1191  0.9188
 4074TIP3   OH212185   7.153   6.681   4.905 -0.1609  0.7197 -0.3159
 4074TIP3    H112186   7.162   6.679   4.809  0.0487  1.0542 -0.3044
 4074TIP3    H212187   7.155   6.589   4.931  0.8711  0.6681 -0.5371
 4075TIP3   OH212188   1.074   4.241   4.199 -0.3989  0.3873 -0.3142
 4075TIP3    H112189   1.001   4.189   4.164  0.3223 -0.7917 -0.1400
 4075TIP3    H212190   1.139   4.241   4.128  0.4821 -0.7955  0.4557
 4076TIP3   OH212191   1.788   5.517   1.680 -0.2142 -0.6872  0.1242
 4076TIP3    H112192   1.821   5.606   1.673  0.0826 -0.8146 -0.1415
 4076TIP3    H212193   1.697   5.527   1.707 -0.2504 -0.2981 -0.1413
 4077TIP3   OH212194   4.910   4.424   1.591  0.4572 -0.0776 -0.3355
 4077TIP3    H112195   4.970   4.406   1.664 -0.7338 -1.3969  0.3843
 4077TIP3    H212196   4.955   4.489   1.538  1.8293  0.1353  1.0153
 4078TIP3   OH212197   4.088   6.559   2.884 -0.1806 -0.6560 -0.1195
 4078TIP3    H112198   4.145   6.486   2.862  0.5645  0.4384 -2.0566
 4078TIP3    H212199   4.112   6.581   2.974  0.8308 -1.6790 -0.1109
 4079TIP3   OH212200   1.465   1.348   3.814  0.0875 -0.1009 -0.0699
 4079TIP3    H112201   1.462   1.302   3.730 -1.8703  1.2224 -0.8049
 4079TIP3    H212202   1.374   1.344   3.846  0.7764 -0.5394  2.0011
 4080TIP3   OH212203   4.226   4.489   3.497 -0.7644 -0.1428  0.2179
 4080TIP3    H112204   4.203   4.464   3.407  0.5655 -0.7912  0.0285
 4080TIP3    H212205   4.205   4.582   3.502 -3.3273 -0.6256  0.0886
 4081TIP3   OH212206   0.696   4.408   4.161  0.2297 -0.4695  0.4297
 4081TIP3    H112207   0.728   4.361   4.084 -0.2698  0.7106 -0.5272
 4081TIP3    H212208   0.621   4.458   4.129  0.2958  0.4128  1.5900
 4082TIP3   OH212209   2.399   0.660   1.971  1.0210 -0.1146  0.0510
 4082TIP3    H112210   2.334   0.703   2.026  0.3244  1.0281 -1.5874
 4082TIP3    H212211   2.361   0.573   1.954 -1.3897  1.3052 -2.7954
 4083TIP3   OH212212   2.454   1.008   2.879  0.6272  0.1938 -0.1885
 4083TIP3    H112213   2.448   0.964   2.963  3.1793 -0.5911 -0.3083
 4083TIP3    H212214   2.368   1.048   2.865  0.3858  1.0928  3.1566
 4084TIP3   OH212215   4.859   2.754   4.941 -0.2849  0.1784  0.4286
 4084TIP3    H112216   4.844   2.848   4.949  1.5553  0.6318 -0.8986
 4084TIP3    H212217   4.954   2.746   4.931 -0.3927 -1.8459  0.6660
 4085TIP3   OH212218   3.630   3.128   3.367 -0.5857 -0.0565 -0.6687
 4085TIP3    H112219   3.605   3.085   3.285 -1.0652  1.3701 -1.2943
 4085TIP3    H212220   3.713   3.171   3.348 -1.8548  2.3431 -1.2352
 4086TIP3   OH212221   7.068   0.498   5.436 -0.1773 -0.5566  0.1521
 4086TIP3    H112222   7.030   0.583   5.459  0.5577  0.4944 -2.2514
 4086TIP3    H212223   7.128   0.479   5.508 -0.5917  0.7917  0.9027
 4087TIP3   OH212224   1.158   4.497   1.044  0.0909  0.6703 -0.0819
 4087TIP3    H112225   1.125   4.566   1.101 -1.5178 -0.2086  0.1291
 4087TIP3    H212226   1.232   4.459   1.092  0.0139  1.2390  0.4949
 4088TIP3   OH212227   3.162   5.636   1.248 -0.0316 -0.1826 -0.3176
 4088TIP3    H112228   3.075   5.602   1.228 -0.1764 -0.1114  0.1650
 4088TIP3    H212229   3.219   5.597   1.182 -0.5511  0.3825 -1.1203
 4089TIP3   OH212230   4.929   5.010   5.387 -0.4681 -0.3947 -0.1649
 4089TIP3    H112231   4.900   5.094   5.349 -0.1582  0.8740  2.1839
 4089TIP3    H212232   4.848   4.967   5.413 -0.6411 -0.9527 -1.5536
 4090TIP3   OH212233   4.406   3.362   0.325  0.1076  0.2335  0.1056
 4090TIP3    H112234   4.493   3.324   0.331 -0.1559 -0.3630  0.1456
 4090TIP3    H212235   4.410   3.440   0.382  0.6098  0.2093  0.1024
 4091TIP3   OH212236   2.781   2.682   2.555 -0.0184  0.3256 -0.0784
 4091TIP3    H112237   2.823   2.619   2.496 -1.0536 -2.4312  1.8813
 4091TIP3    H212238   2.839   2.687   2.630 -1.0184 -0.0690  0.7457
 4092TIP3   OH212239   3.846   4.783   3.326 -0.0690 -0.0058 -1.0241
 4092TIP3    H112240   3.756   4.756   3.345  0.5351 -1.1822  0.4000
 4092TIP3    H212241   3.887   4.706   3.288  0.6663  0.0854 -0.4524
 4093TIP3   OH212242   4.718   4.183   0.316  0.5599 -0.0332  0.5445
 4093TIP3    H112243   4.754   4.225   0.394 -1.8709  1.3710  1.0405
 4093TIP3    H212244   4.623   4.193   0.325  0.0909 -1.7396 -1.5707
 4094TIP3   OH212245   3.911   3.190   5.256  0.3634 -0.0288 -0.2003
 4094TIP3    H112246   3.822   3.168   5.280 -0.7026  2.3170 -1.6850
 4094TIP3    H212247   3.909   3.200   5.161  2.3168 -0.2536 -0.3265
 4095TIP3   OH212248   2.610   6.148   1.177  0.5391  0.0978  0.4652
 4095TIP3    H112249   2.591   6.156   1.270  0.5114 -0.3662  0.5001
 4095TIP3    H212250   2.674   6.078   1.171  2.7861  2.0350  0.4136
 4096TIP3   OH212251   5.220   5.106   2.212  0.5671 -0.1351 -0.7821
 4096TIP3    H112252   5.156   5.167   2.250  0.3760  0.1840 -1.6029
 4096TIP3    H212253   5.305   5.146   2.232  0.4818 -0.1473 -0.3896
 4097TIP3   OH212254   4.622   5.442   0.341  0.1623 -0.0251 -0.7126
 4097TIP3    H112255   4.578   5.364   0.373 -0.4573  0.5975 -0.0055
 4097TIP3    H212256   4.713   5.432   0.368 -0.0510 -0.1981 -0.0525
 4098TIP3   OH212257   4.354   0.177   2.097 -0.6057  0.3222  0.2572
 4098TIP3    H112258   4.282   0.230   2.061 -0.6041  0.2053  0.0855
 4098TIP3    H212259   4.349   0.094   2.051  0.0150  0.5242 -0.1901
 4099TIP3   OH212260   1.334   0.366   0.483  0.0386 -0.1827  0.4405
 4099TIP3    H112261   1.238   0.362   0.481  0.0866 -2.4381 -0.5761
 4099TIP3    H212262   1.361   0.332   0.398  1.7567  1.4140  0.2946
 4100TIP3   OH212263   2.516   5.141   0.713  0.3234 -0.7731  0.7663
 4100TIP3    H112264   2.533   5.074   0.647 -0.5920  0.7057 -1.0608
 4100TIP3    H212265   2.421   5.146   0.719  0.1633  2.5725 -1.6855
 4101TIP3   OH212266   6.985   5.600   3.066  0.5309  0.4952  0.0767
 4101TIP3    H112267   6.907   5.655   3.078 -0.3473 -0.1269 -2.2335
 4101TIP3    H212268   6.972   5.526   3.126 -0.2277  0.8422  0.3473
 4102TIP3   OH212269   6.721   4.062   4.923  0.3928  0.4214 -0.0093
 4102TIP3    H112270   6.633   4.029   4.942  0.9111  0.1358  2.2147
 4102TIP3    H212271   6.713   4.157   4.933  0.4226  0.3545  0.7782
 4103TIP3   OH212272   0.557   4.647   4.691  0.1529  1.0007 -0.2136
 4103TIP3    H112273   0.515   4.663   4.776 -0.3137  1.0450 -0.4503
 4103TIP3    H212274   0.636   4.701   4.693 -1.0582  2.8815 -0.7387
 4104TIP3   OH212275   2.256   3.756   0.240  0.2692  0.7790  0.2092
 4104TIP3    H112276   2.273   3.679   0.187  0.4336  0.0998  1.2080
 4104TIP3    H212277   2.190   3.727   0.303 -0.3428  1.7241  0.0168
 4105TIP3   OH212278   7.130   6.388   2.155 -0.0538 -0.4132  0.5304
 4105TIP3    H112279   7.074   6.351   2.224 -1.0782  2.5046  1.4173
 4105TIP3    H212280   7.081   6.373   2.074 -0.3073 -1.1882  0.8200
 4106TIP3   OH212281   4.580  -0.011   5.483  0.3485 -0.1021 -0.0344
 4106TIP3    H112282   4.664   0.012   5.442  0.0285  3.6018  1.1054
 4106TIP3    H212283   4.514   0.013   5.418  0.0636 -0.2862  0.1833
 4107TIP3   OH212284   3.257   0.782   0.877  0.3064  0.3781 -0.5037
 4107TIP3    H112285   3.222   0.694   0.863  2.4818 -0.6053 -0.1158
 4107TIP3    H212286   3.322   0.793   0.807  1.2494  1.0056  0.4549
 4108TIP3   OH212287   5.914   2.904   2.831  0.3880 -0.0971  0.2806
 4108TIP3    H112288   5.895   2.881   2.740  0.5299 -0.0538  0.2409
 4108TIP3    H212289   5.997   2.952   2.827 -1.1133  2.7054  0.0387
 4109TIP3   OH212290   3.763   3.933   4.329  0.3649  0.2932  0.5102
 4109TIP3    H112291   3.686   3.877   4.320  0.3742  0.1728  1.1512
 4109TIP3    H212292   3.745   3.987   4.406  0.9360  0.2387  0.6848
 4110TIP3   OH212293   6.279   0.057   4.339 -0.3652 -0.0476 -0.5378
 4110TIP3    H112294   6.334   0.075   4.415  0.1827  0.5408 -1.0617
 4110TIP3    H212295   6.279  -0.039   4.332 -0.8930 -0.1380  0.5297
 4111TIP3   OH212296   4.146   1.010   5.469  0.1044  0.1311  0.0710
 4111TIP3    H112297   4.204   0.962   5.411 -0.3598  1.6388 -1.7316
 4111TIP3    H212298   4.185   1.000   5.556 -0.0589 -3.5307 -0.1426
 4112TIP3   OH212299   0.189   6.463   4.803  0.7792 -0.3876  0.0366
 4112TIP3    H112300   0.259   6.434   4.745  1.4380  1.6413 -0.2931
 4112TIP3    H212301   0.177   6.556   4.781 -2.3291 -0.7379 -0.1945
 4113TIP3   OH212302   3.877   6.603   4.671  0.4877  0.0921 -0.2360
 4113TIP3    H112303   3.833   6.667   4.726  0.5502 -1.6572  1.9659
 4113TIP3    H212304   3.822   6.597   4.593 -0.2617  1.7629  0.1303
 4114TIP3   OH212305   3.982   4.869   0.116 -0.3479 -0.1881  0.1630
 4114TIP3    H112306   4.058   4.909   0.158  0.0433 -1.0620  0.3025
 4114TIP3    H212307   3.908   4.892   0.172 -0.0973  0.1427  0.3623
 4115TIP3   OH212308   4.681   2.151   1.371 -0.0293 -0.0790 -0.2698
 4115TIP3    H112309   4.602   2.117   1.412 -0.7433  1.3447 -0.4170
 4115TIP3    H212310   4.747   2.149   1.440 -0.7322  0.5664  0.4404
 4116TIP3   OH212311   0.587   5.946   2.298 -0.0677  0.3839 -0.2772
 4116TIP3    H112312   0.506   5.969   2.252 -0.6597 -1.0949 -0.0193
 4116TIP3    H212313   0.577   5.853   2.319  1.2894  0.4179  0.6085
 4117TIP3   OH212314   1.393   0.701   4.580  0.3285  0.2108  0.2222
 4117TIP3    H112315   1.472   0.698   4.634 -0.6609  1.1954  1.8195
 4117TIP3    H212316   1.331   0.644   4.627 -0.1186 -0.0334 -0.6556
 4118TIP3   OH212317   5.838   0.206   0.755 -0.4877  0.0656 -0.4434
 4118TIP3    H112318   5.870   0.123   0.721  1.3016  0.1041  0.9591
 4118TIP3    H212319   5.754   0.220   0.711  0.3858 -1.1802 -2.6449
 4119TIP3   OH212320   5.541   0.474   5.812 -0.2382 -0.2449  0.2651
 4119TIP3    H112321   5.525   0.445   5.723 -1.8608  0.8651  0.1629
 4119TIP3    H212322   5.545   0.570   5.807 -0.0190 -0.1756  1.3325
 4120TIP3   OH212323   6.091   0.855   2.434 -0.5053 -0.7222 -0.4164
 4120TIP3    H112324   6.150   0.783   2.457  1.9319  0.9284 -1.2176
 4120TIP3    H212325   6.135   0.902   2.363 -0.9131  2.8023  1.4295
 4121TIP3   OH212326   4.949   4.560   3.415 -0.2230 -0.0185  0.0522
 4121TIP3    H112327   5.014   4.568   3.485 -0.7137 -1.4232  0.7116
 4121TIP3    H212328   4.965   4.474   3.377 -1.7707 -0.4571  0.3349
 4122TIP3   OH212329   3.304   5.603   2.644  0.3485  0.1139 -0.3464
 4122TIP3    H112330   3.336   5.681   2.597  1.9588 -0.3893 -0.1429
 4122TIP3    H212331   3.324   5.530   2.586 -0.5664 -0.2319 -0.2484
 4123TIP3   OH212332   1.302   2.202   5.844 -0.2242  0.1697  0.0358
 4123TIP3    H112333   1.228   2.168   5.792 -1.6286  0.2498  1.8978
 4123TIP3    H212334   1.356   2.125   5.861 -1.0278 -0.3121  0.4615
 4124TIP3   OH212335   5.421   3.003   2.561 -0.3083  0.0497 -0.1627
 4124TIP3    H112336   5.436   2.909   2.559  0.7666  0.2156 -0.9755
 4124TIP3    H212337   5.451   3.030   2.648 -0.0522 -0.2694 -0.1510
 4125TIP3   OH212338   4.739   6.284   2.405  0.0838  0.3662 -0.1603
 4125TIP3    H112339   4.722   6.322   2.319  0.2654 -0.4194 -0.5497
 4125TIP3    H212340   4.768   6.194   2.387  1.0774  0.4948  0.6606
 4126TIP3   OH212341   7.175   0.294   2.934 -0.7471  0.1021  0.0427
 4126TIP3    H112342   7.130   0.307   2.851 -0.1492  0.5575 -0.2114
 4126TIP3    H212343   7.267   0.309   2.915 -0.3717 -1.5522  0.4043
 4127TIP3   OH212344   6.837   5.808   1.979 -0.2700 -0.1866 -0.2346
 4127TIP3    H112345   6.906   5.828   2.041 -0.1105  1.0220 -0.7667
 4127TIP3    H212346   6.864   5.852   1.898 -1.3991 -0.1290 -0.6004
 4128TIP3   OH212347   5.786   3.954   0.982  0.2953 -0.7858  0.2372
 4128TIP3    H112348   5.768   3.929   1.072  0.5227 -3.5278 -0.4001
 4128TIP3    H212349   5.709   3.927   0.933  0.7694 -0.6500 -0.6073
 4129TIP3   OH212350   7.113   1.969   1.656  0.2463 -0.4711  0.4260
 4129TIP3    H112351   7.116   1.873   1.651  1.5761 -0.4711  0.9727
 4129TIP3    H212352   7.161   1.991   1.735  0.1664  0.6746  0.1785
 4130TIP3   OH212353   2.752   5.244   0.822  0.4688  0.0042  0.2266
 4130TIP3    H112354   2.780   5.324   0.778 -0.9011  0.7520  0.6673
 4130TIP3    H212355   2.664   5.227   0.789 -0.5766  0.5293  2.5267
 4131TIP3   OH212356   0.708   1.718   1.552  0.0050 -0.1233  0.1268
 4131TIP3    H112357   0.779   1.776   1.578  0.9408 -0.5724 -1.3167
 4131TIP3    H212358   0.739   1.630   1.574  0.9702 -0.5596 -2.5461
 4132TIP3   OH212359   4.268   0.494   4.334  0.1648  0.0753  0.0923
 4132TIP3    H112360   4.232   0.557   4.397 -2.2848 -1.2690  0.1439
 4132TIP3    H212361   4.239   0.526   4.249 -0.9952 -0.8633  0.1096
 4133TIP3   OH212362   2.607   0.500   2.230 -0.2948  0.2813 -0.1699
 4133TIP3    H112363   2.638   0.515   2.141  0.4523  2.2150  0.3602
 4133TIP3    H212364   2.633   0.410   2.250  2.7698  0.9332 -0.6989
 4134TIP3   OH212365   2.904   6.005   3.464  0.7035  0.6429  0.1518
 4134TIP3    H112366   2.902   5.909   3.461  2.0713  0.6045 -0.6244
 4134TIP3    H212367   2.832   6.029   3.522 -0.5436 -0.7918 -0.7158
 4135TIP3   OH212368   1.507   2.449   0.290  0.3170 -0.2169  0.1063
 4135TIP3    H112369   1.521   2.398   0.210 -0.9587  0.1969 -0.4102
 4135TIP3    H212370   1.523   2.387   0.361 -1.7063 -1.5357 -0.5049
 4136TIP3   OH212371   5.766   0.110   3.091 -0.5224 -0.0182 -0.6264
 4136TIP3    H112372   5.801   0.193   3.061  0.5693 -0.2263  0.0258
 4136TIP3    H212373   5.726   0.070   3.013 -2.0477  1.5758 -0.7223
 4137TIP3   OH212374   3.041   4.338   2.191  0.1755 -0.5575 -0.3250
 4137TIP3    H112375   3.040   4.243   2.201 -0.4599 -0.4956  0.3168
 4137TIP3    H212376   3.129   4.365   2.217 -0.1168 -0.8286  0.9978
 4138TIP3   OH212377   7.049   2.568   4.431  0.3952  0.2943 -0.0905
 4138TIP3    H112378   6.955   2.564   4.449  0.4585  0.5981  0.3185
 4138TIP3    H212379   7.090   2.552   4.516  0.7121  0.5762 -0.1879
 4139TIP3   OH212380   5.426   2.538   3.948  0.1054 -0.0055 -0.3122
 4139TIP3    H112381   5.495   2.481   3.982  0.8005  1.4401  0.7760
 4139TIP3    H212382   5.470   2.620   3.929 -1.4322  1.2130  1.1333
 4140TIP3   OH212383   5.456   0.595   2.614 -0.2851  0.0357  0.2131
 4140TIP3    H112384   5.551   0.581   2.613 -0.4339 -1.4357  1.7528
 4140TIP3    H212385   5.420   0.516   2.573 -0.8872 -0.1796  1.1319
 4141TIP3   OH212386   6.726   0.662   3.836 -0.0654 -0.3252  0.6622
 4141TIP3    H112387   6.637   0.688   3.860  0.6124  2.3028  0.5854
 4141TIP3    H212388   6.720   0.639   3.743 -0.3728  1.6399  0.1534
 4142TIP3   OH212389   1.038   6.513   3.219 -0.2970  0.4838 -0.3915
 4142TIP3    H112390   0.992   6.562   3.151 -0.7545  1.3459  0.5102
 4142TIP3    H212391   0.969   6.469   3.269  0.0925 -0.9319 -1.0429
 4143TIP3   OH212392   1.185   2.404   1.303  0.3997  0.2507 -0.0633
 4143TIP3    H112393   1.193   2.318   1.262  3.0031  0.9027 -1.1085
 4143TIP3    H212394   1.255   2.406   1.368  0.3959  1.5865 -0.0794
 4144TIP3   OH212395   2.417   2.356   5.616 -0.2578  0.0874  0.1611
 4144TIP3    H112396   2.506   2.326   5.635  0.5111  1.7696 -0.6339
 4144TIP3    H212397   2.375   2.279   5.575  1.3373 -0.2678 -0.9268
 4145TIP3   OH212398  -0.010   4.215   1.406  0.1816 -0.5215  0.1650
 4145TIP3    H112399   0.079   4.213   1.369 -0.0659 -1.0909 -0.4296
 4145TIP3    H212400  -0.042   4.303   1.386 -0.1399 -0.9859 -1.4952
 4146TIP3   OH212401   6.153   0.095   5.793 -0.1567  0.2917 -0.0550
 4146TIP3    H112402   6.136   0.073   5.885 -1.0949 -0.1122 -0.3134
 4146TIP3    H212403   6.245   0.123   5.792  0.0536 -0.2897  0.8974
 4147TIP3   OH212404   2.474   5.958   2.919  0.6253 -0.0076 -0.1092
 4147TIP3    H112405   2.478   6.000   2.834  1.2496  0.3002  0.0737
 4147TIP3    H212406   2.386   5.919   2.922  1.2009 -1.5153 -1.5886
 4148TIP3   OH212407   2.642   3.010   5.080  0.1727 -0.1147 -0.4559
 4148TIP3    H112408   2.685   3.054   5.006  0.0621 -1.4771 -1.3572
 4148TIP3    H212409   2.549   3.033   5.070  0.1434 -0.3731 -0.8100
 4149TIP3   OH212410   4.192   6.121   1.084 -0.5248 -0.5523  0.0857
 4149TIP3    H112411   4.258   6.114   1.014 -0.9168 -1.3407 -0.2288
 4149TIP3    H212412   4.238   6.093   1.163 -0.6088 -1.6671 -0.2317
 4150TIP3   OH212413   1.410   0.231   1.979 -0.7292  0.1305  0.4855
 4150TIP3    H112414   1.439   0.143   1.956 -1.5210 -0.1085  0.3603
 4150TIP3    H212415   1.468   0.258   2.050  0.2028 -0.0651 -0.1715
 4151TIP3   OH212416   2.052   0.282   2.086  0.6207 -0.5999 -0.5525
 4151TIP3    H112417   2.038   0.363   2.134 -0.2915 -0.8082 -0.4481
 4151TIP3    H212418   1.977   0.226   2.110  0.0001 -0.6230 -2.3727
 4152TIP3   OH212419   6.961   6.377   3.715 -0.0596  0.2517  0.0075
 4152TIP3    H112420   6.984   6.288   3.742 -2.1496 -0.2061  0.4859
 4152TIP3    H212421   6.938   6.422   3.796 -0.5213  0.7287 -0.3723
 4153TIP3   OH212422   4.892   5.475   0.457 -0.4012  0.4962 -0.2788
 4153TIP3    H112423   4.970   5.419   0.465 -0.5509  0.4556  0.9475
 4153TIP3    H212424   4.892   5.528   0.536 -1.1445  1.1241 -0.6881
 4154TIP3   OH212425   5.778   3.715   2.711 -0.3665  0.3770  0.1952
 4154TIP3    H112426   5.855   3.712   2.655 -0.5416  0.3774 -0.0485
 4154TIP3    H212427   5.764   3.624   2.738 -0.5363  0.3105 -0.1132
 4155TIP3   OH212428   6.069   0.221   4.715 -0.1825  0.0945  0.4896
 4155TIP3    H112429   5.996   0.229   4.654  0.9750 -1.1463 -1.1938
 4155TIP3    H212430   6.135   0.282   4.682  0.5581 -0.7745  0.2941
 4156TIP3   OH212431   5.094   5.239   4.257 -0.8697 -0.1680  0.0900
 4156TIP3    H112432   5.062   5.162   4.209  2.2468 -1.1379 -0.6243
 4156TIP3    H212433   5.153   5.204   4.323  0.2690  1.5881  0.0525
 4157TIP3   OH212434   0.260   0.473   3.158  0.6388  0.3066  0.0453
 4157TIP3    H112435   0.257   0.547   3.097 -1.3829 -1.0913 -1.6451
 4157TIP3    H212436   0.327   0.415   3.122  0.5219  0.1906  0.0154
 4158TIP3   OH212437   0.298   2.705   3.882  0.6281 -0.0695  0.5170
 4158TIP3    H112438   0.327   2.678   3.969 -1.6882 -2.3651  0.6885
 4158TIP3    H212439   0.324   2.633   3.825  1.5405  1.1180 -0.6333
 4159TIP3   OH212440   1.481   6.096   2.085 -0.0559 -0.6599 -0.1809
 4159TIP3    H112441   1.492   6.171   2.143  1.7702 -0.8140 -0.2690
 4159TIP3    H212442   1.525   6.024   2.130 -1.3179 -1.5635 -0.3438
 4160TIP3   OH212443   4.826   2.780   0.915 -1.1796 -0.2404 -0.6679
 4160TIP3    H112444   4.839   2.831   0.995  0.4273  2.6511 -2.5465
 4160TIP3    H212445   4.906   2.727   0.908 -1.4529 -0.7139 -0.2226
 4161TIP3   OH212446   3.292  -0.013   0.047 -0.0193  0.7746 -0.1505
 4161TIP3    H112447   3.205   0.026   0.045 -1.5967 -2.3877  0.1867
 4161TIP3    H212448   3.323   0.002   0.137 -1.0855  0.2189  0.3180
 4162TIP3   OH212449   4.150   0.937   4.718  0.5586 -0.0958 -0.1755
 4162TIP3    H112450   4.197   0.979   4.646  0.0786  0.4994 -0.1511
 4162TIP3    H212451   4.090   0.876   4.675  0.1032  0.4337 -0.2897
 4163TIP3   OH212452   5.545   5.172   1.557  0.3730 -0.5678  0.2058
 4163TIP3    H112453   5.475   5.109   1.542 -0.4056 -0.6865  3.5175
 4163TIP3    H212454   5.508   5.256   1.528 -0.8658 -0.7674  1.1134
 4164TIP3   OH212455   1.120   3.478   1.274 -0.3014  0.4007 -0.2775
 4164TIP3    H112456   1.090   3.485   1.184 -0.2647  1.8017 -0.1968
 4164TIP3    H212457   1.112   3.385   1.294 -1.8840  0.2966 -1.1813
 4165TIP3   OH212458   5.206   4.583   3.518  0.2028  0.1870  0.6049
 4165TIP3    H112459   5.188   4.674   3.541  2.3128  0.6054  0.8444
 4165TIP3    H212460   5.225   4.585   3.425  1.0659  0.1511  0.7731
 4166TIP3   OH212461   6.926   3.130   0.271  0.0663 -0.3843 -0.2579
 4166TIP3    H112462   6.958   3.095   0.188  0.7617 -3.6677  1.2092
 4166TIP3    H212463   6.863   3.065   0.302  0.4576  0.2631  2.1592
 4167TIP3   OH212464   5.311   0.978   0.848  0.1900  0.3761  0.2286
 4167TIP3    H112465   5.257   1.046   0.808 -1.9615 -2.1276 -1.5288
 4167TIP3    H212466   5.248   0.915   0.883  1.9762 -1.8612 -0.3331
 4168TIP3   OH212467   0.836   2.917   1.502 -0.7272 -0.5470  0.3408
 4168TIP3    H112468   0.878   3.003   1.496  0.4854 -0.8891  2.9417
 4168TIP3    H212469   0.878   2.866   1.432  1.0975  0.0072  0.9603
 4169TIP3   OH212470   0.638   3.906   4.587  0.2505 -0.0758  0.2856
 4169TIP3    H112471   0.661   3.944   4.502  1.1889  0.3778  0.7308
 4169TIP3    H212472   0.594   3.977   4.634  0.9354  0.0891  0.6774
 4170TIP3   OH212473   2.865   1.762   1.544  0.5818  0.8704 -0.5008
 4170TIP3    H112474   2.869   1.689   1.482 -0.7193  0.7612 -0.4735
 4170TIP3    H212475   2.957   1.788   1.555  1.1542 -1.1466 -0.0409
 4171TIP3   OH212476   2.239   0.240   5.065  0.1794 -0.8995  0.9470
 4171TIP3    H112477   2.216   0.167   5.122 -0.9535 -0.5603  0.9408
 4171TIP3    H212478   2.278   0.199   4.988  0.0740 -1.4621  1.1900
 4172TIP3   OH212479   5.671   6.145   1.434  0.1524  0.4753  0.1714
 4172TIP3    H112480   5.582   6.179   1.449  0.1500  0.0113  1.3695
 4172TIP3    H212481   5.692   6.098   1.515  1.1446 -0.1897 -0.4509
 4173TIP3   OH212482   3.496   0.953   2.156 -0.1822  0.0187 -0.4921
 4173TIP3    H112483   3.537   0.955   2.242 -0.9488 -0.2453 -0.1047
 4173TIP3    H212484   3.416   1.005   2.167 -1.6802 -2.1942 -0.2648
 4174TIP3   OH212485   5.296   3.942   0.306 -0.0072  0.1840 -0.5010
 4174TIP3    H112486   5.204   3.951   0.331  0.2494  0.7505  0.2802
 4174TIP3    H212487   5.333   3.882   0.371  0.6857  1.7325  0.5850
 4175TIP3   OH212488   6.916   5.975   3.438 -0.0140  0.7743 -0.2925
 4175TIP3    H112489   6.970   5.971   3.359 -2.0640  1.6640 -1.8148
 4175TIP3    H212490   6.850   5.908   3.426  0.1643  0.3068  1.1249
 4176TIP3   OH212491   2.126   6.021   1.555  0.0548  0.6931  0.2689
 4176TIP3    H112492   2.193   6.053   1.614  1.3954 -0.6896 -0.4308
 4176TIP3    H212493   2.142   6.067   1.472  2.0187 -1.5963 -0.7547
 4177TIP3   OH212494   1.598   3.017   5.289  0.1450  0.2700  0.2411
 4177TIP3    H112495   1.616   3.095   5.341 -0.1066  0.8320 -0.5056
 4177TIP3    H212496   1.685   2.983   5.267  0.2970  1.3149 -0.8720
 4178TIP3   OH212497   6.022   1.132   0.306  0.3625  0.2392  0.4926
 4178TIP3    H112498   6.055   1.050   0.270 -1.1174 -0.4861  0.7123
 4178TIP3    H212499   6.003   1.112   0.398 -2.0612  0.1435  0.0335
 4179TIP3   OH212500   0.430   2.435   1.838  0.1973  0.2853 -0.1047
 4179TIP3    H112501   0.422   2.461   1.930  0.0588 -1.3737  0.3913
 4179TIP3    H212502   0.483   2.355   1.841 -0.8919 -0.5124 -1.3344
 4180TIP3   OH212503   1.288   4.288   1.242  0.3463  0.0072  0.1243
 4180TIP3    H112504   1.308   4.228   1.170  1.0905  0.1166  0.2339
 4180TIP3    H212505   1.364   4.282   1.300  0.2903  0.8245  0.2916
 4181TIP3   OH212506   0.268   0.920   2.172 -0.3184 -0.5139 -0.5515
 4181TIP3    H112507   0.220   0.857   2.118 -1.1095  0.9816 -1.6766
 4181TIP3    H212508   0.360   0.895   2.163 -0.6650 -1.9239 -0.3803
 4182TIP3   OH212509   1.362   2.856   3.367 -0.0380 -0.1133 -0.0238
 4182TIP3    H112510   1.297   2.814   3.424 -1.9726  0.5895 -1.5773
 4182TIP3    H212511   1.328   2.842   3.279  1.7279  0.6892 -0.8734
 4183TIP3   OH212512   4.725   3.701   4.557 -0.3181  0.1508  0.3335
 4183TIP3    H112513   4.652   3.642   4.538  0.4765 -0.5017 -0.8501
 4183TIP3    H212514   4.739   3.749   4.475  0.7743  0.0425  0.4367
 4184TIP3   OH212515   3.521   1.318   3.010 -0.2708 -0.2099  0.4149
 4184TIP3    H112516   3.477   1.305   2.926  1.6087 -1.3729 -0.4595
 4184TIP3    H212517   3.518   1.412   3.024 -1.0216 -0.0373 -0.7448
 4185TIP3   OH212518   3.208   4.502   3.385  0.2043 -0.2448 -0.2852
 4185TIP3    H112519   3.263   4.430   3.355 -0.4963 -0.4888 -1.0383
 4185TIP3    H212520   3.135   4.459   3.430  1.7895  0.1416  2.8803
 4186TIP3   OH212521   3.486   0.696   2.448 -0.1292  0.2898 -0.1549
 4186TIP3    H112522   3.581   0.692   2.460  0.3461  0.8692 -2.9417
 4186TIP3    H212523   3.466   0.626   2.386 -1.6707 -0.2528  0.8790
 4187TIP3   OH212524   5.238   1.088   1.774  0.5689  0.2670 -0.0970
 4187TIP3    H112525   5.215   1.150   1.844 -0.9346 -0.3951  0.0187
 4187TIP3    H212526   5.325   1.056   1.799  0.5057  0.8324  0.9123
 4188TIP3   OH212527   4.449   6.081   3.452  0.3274 -0.0956 -0.3393
 4188TIP3    H112528   4.375   6.026   3.425  0.3423 -0.6697  0.7653
 4188TIP3    H212529   4.410   6.168   3.463 -0.6053 -0.7452  1.9759
 4189TIP3   OH212530   3.794   5.375   0.534  0.6448  0.2400 -0.0556
 4189TIP3    H112531   3.742   5.449   0.565  0.2892  0.7809 -1.8314
 4189TIP3    H212532   3.763   5.359   0.445  2.1511 -0.7117 -0.4581
 4190TIP3   OH212533   0.666   4.856   0.753  0.1298 -0.0200 -0.1842
 4190TIP3    H112534   0.756   4.829   0.769  0.5490  0.3842 -1.6710
 4190TIP3    H212535   0.614   4.807   0.816  1.1631 -1.9454 -0.7439
 4191TIP3   OH212536   3.196   5.058   0.571  0.0305 -0.8895 -0.1590
 4191TIP3    H112537   3.283   5.022   0.586  0.0054 -1.4584 -1.3172
 4191TIP3    H212538   3.142   5.019   0.639  0.3141 -1.9186 -0.5134
 4192TIP3   OH212539   1.747   2.206   0.221  0.1968  0.4023  0.1055
 4192TIP3    H112540   1.683   2.231   0.155  0.3507 -0.1233 -0.2476
 4192TIP3    H212541   1.727   2.262   0.296 -1.4103 -0.5548  0.4221
 4193TIP3   OH212542   3.063   1.193   1.061 -0.2684 -0.1844  0.5347
 4193TIP3    H112543   3.125   1.133   1.020  1.7701  0.9172  1.8274
 4193TIP3    H212544   3.034   1.148   1.141 -1.0449 -0.6280  0.0166
 4194TIP3   OH212545   5.021   2.422   3.930 -0.5597 -0.2230  0.5452
 4194TIP3    H112546   5.067   2.469   4.000 -0.8190  0.8224  0.0311
 4194TIP3    H212547   5.023   2.482   3.856 -2.7655 -0.1320  0.4965
 4195TIP3   OH212548   2.311   2.163   2.466  0.7126  0.5875  0.1705
 4195TIP3    H112549   2.347   2.105   2.399  0.9673  0.1843  0.6462
 4195TIP3    H212550   2.376   2.233   2.473  1.3196 -0.0312  0.8801
 4196TIP3   OH212551   0.059   1.375   5.430 -0.0447  0.3016  0.0476
 4196TIP3    H112552   0.083   1.387   5.339 -1.8839 -2.3099 -0.9110
 4196TIP3    H212553  -0.031   1.407   5.435 -0.5554 -1.1285  0.4748
 4197TIP3   OH212554   4.198   4.588   2.237 -0.5165  0.1446  0.6017
 4197TIP3    H112555   4.259   4.659   2.256  1.3558 -0.9503 -0.9616
 4197TIP3    H212556   4.203   4.531   2.313 -1.7605  1.4207  1.7077
 4198TIP3   OH212557   5.332   0.549   1.162 -0.2156  0.0580 -0.0267
 4198TIP3    H112558   5.402   0.550   1.227  1.0241 -0.6404 -1.2762
 4198TIP3    H212559   5.262   0.498   1.202  0.7305 -0.8074  0.5683
 4199TIP3   OH212560   2.985   0.487   2.259  0.5513  0.1538  0.5647
 4199TIP3    H112561   2.963   0.505   2.167 -0.5922  2.3331  1.1930
 4199TIP3    H212562   2.922   0.421   2.286 -0.7369  1.2687  0.4045
 4200TIP3   OH212563   0.935   3.858   3.212  0.6166 -0.1705 -0.4442
 4200TIP3    H112564   0.910   3.775   3.171  1.0928  0.1807 -1.4749
 4200TIP3    H212565   1.024   3.843   3.245  0.3327 -0.3687  0.2634
 4201TIP3   OH212566   6.050   0.881   1.274 -0.0105  0.5608  0.4747
 4201TIP3    H112567   6.012   0.947   1.332 -0.2067  0.5008  0.4124
 4201TIP3    H212568   6.116   0.929   1.223  0.4016  0.5466  0.9816
 4202TIP3   OH212569   3.425   4.854   1.560  0.2385  0.1956 -0.1204
 4202TIP3    H112570   3.444   4.861   1.653  0.7975 -1.8022 -0.0444
 4202TIP3    H212571   3.368   4.777   1.553 -0.7604  1.0048 -1.3166
 4203TIP3   OH212572   6.564   3.206   2.591  0.0209  0.5611  0.0717
 4203TIP3    H112573   6.555   3.126   2.539  1.8323  0.6445 -0.4596
 4203TIP3    H212574   6.517   3.188   2.672 -0.2751 -0.7473 -0.3720
 4204TIP3   OH212575   5.489   0.434   1.636  0.0005 -0.2958  0.5692
 4204TIP3    H112576   5.521   0.501   1.697  0.1248 -0.2722  0.4795
 4204TIP3    H212577   5.503   0.352   1.682 -1.1535 -0.2020  1.1272
 4205TIP3   OH212578   5.566   5.920   4.205  0.1854  0.4730 -0.2483
 4205TIP3    H112579   5.655   5.940   4.235  0.4626  0.6108 -1.1296
 4205TIP3    H212580   5.539   5.845   4.258  1.2823 -0.3096 -0.7500
 4206TIP3   OH212581   7.203   1.768   2.140 -0.2964 -0.1710 -0.0886
 4206TIP3    H112582   7.226   1.679   2.167 -1.6530  0.1480  2.4289
 4206TIP3    H212583   7.154   1.803   2.214 -1.2204  2.1246 -1.6814
 4207TIP3   OH212584   5.924   6.688   2.593 -0.4252  0.1838  0.0251
 4207TIP3    H112585   5.988   6.655   2.529 -2.0082  0.4097 -1.7782
 4207TIP3    H212586   5.868   6.613   2.611 -1.5330  0.7684 -0.8761
 4208TIP3   OH212587   1.617   3.373   0.360  0.2868 -0.2055 -0.4417
 4208TIP3    H112588   1.628   3.377   0.265 -0.3604 -0.8728 -0.5579
 4208TIP3    H212589   1.619   3.465   0.388 -0.7881  0.1054 -1.2707
 4209TIP3   OH212590   3.673   0.537   5.228 -0.8446  0.0817 -0.5112
 4209TIP3    H112591   3.754   0.517   5.181 -0.2115 -1.4048  1.1188
 4209TIP3    H212592   3.694   0.615   5.280  0.0404 -1.0784  0.9503
 4210TIP3   OH212593   5.078   6.305   3.469  0.0080  0.7369  0.6187
 4210TIP3    H112594   4.991   6.308   3.429 -0.0134  1.8141  0.7227
 4210TIP3    H212595   5.062   6.313   3.563  0.2384  1.4890  0.6011
 4211TIP3   OH212596   2.560   5.254   4.069  0.6059  0.0779  0.5209
 4211TIP3    H112597   2.550   5.210   4.153 -0.0247 -0.4328  0.1869
 4211TIP3    H212598   2.655   5.260   4.057  0.8219 -3.3269 -0.4875
 4212TIP3   OH212599   6.921   3.498   3.450  0.3905  0.4894  0.2861
 4212TIP3    H112600   6.930   3.463   3.539  1.3061 -2.1254 -0.7425
 4212TIP3    H212601   6.987   3.567   3.445  1.4839 -0.4509  1.1431
 4213TIP3   OH212602   5.403   5.944   2.201 -0.4988  0.9831 -0.2352
 4213TIP3    H112603   5.334   5.895   2.244  1.1637 -0.0790  1.3590
 4213TIP3    H212604   5.405   6.029   2.247 -0.4371  0.8334  0.0402
 4214TIP3   OH212605   3.058   3.438   3.700 -0.1222  0.1090 -0.8932
 4214TIP3    H112606   3.022   3.395   3.622 -2.0121  1.2010 -0.6810
 4214TIP3    H212607   3.076   3.528   3.671 -0.6513  0.4660 -0.1319
 4215TIP3   OH212608   5.821   0.801   0.062 -0.4253  0.1908 -0.2293
 4215TIP3    H112609   5.765   0.873   0.034 -0.4249  0.4055  0.3056
 4215TIP3    H212610   5.821   0.740  -0.012 -0.4530  0.7210 -0.6681
 4216TIP3   OH212611   2.434   3.798   4.876 -0.3575  0.2578 -0.3421
 4216TIP3    H112612   2.473   3.719   4.913  1.2305  0.5527 -1.3102
 4216TIP3    H212613   2.343   3.774   4.859 -0.0575 -1.1689 -0.0707
 4217TIP3   OH212614   2.305   1.075   5.609 -0.1017 -0.2207 -0.6438
 4217TIP3    H112615   2.293   0.984   5.583  0.1963 -0.6837  0.7607
 4217TIP3    H212616   2.216   1.108   5.622 -0.2015 -0.3517 -0.9798
 4218TIP3   OH212617   7.040   4.721   2.660 -0.0071  0.2403  0.5289
 4218TIP3    H112618   6.960   4.756   2.622 -0.5307  0.0576  1.4219
 4218TIP3    H212619   7.104   4.724   2.589 -0.5885  1.1065  0.0206
 4219TIP3   OH212620   4.337   1.941   5.058  0.1159  0.3301 -0.1712
 4219TIP3    H112621   4.346   1.933   5.153  2.1685  2.1809 -0.1566
 4219TIP3    H212622   4.263   1.883   5.037  0.1637 -0.8120  2.4064
 4220TIP3   OH212623   3.443   0.387   5.263 -0.3276  0.4704 -0.1484
 4220TIP3    H112624   3.512   0.453   5.253  0.7271 -0.6781 -0.7336
 4220TIP3    H212625   3.489   0.304   5.256 -1.4009 -0.3715  2.1349
 4221TIP3   OH212626   2.747   6.429   1.953 -0.0316  0.0188 -0.2063
 4221TIP3    H112627   2.732   6.518   1.985 -0.2466 -0.5380  1.3393
 4221TIP3    H212628   2.752   6.438   1.858 -2.8122  1.3204 -0.3291
 4222TIP3   OH212629   2.791   5.157   1.408 -0.4664  0.1093  0.0644
 4222TIP3    H112630   2.759   5.129   1.494 -0.2002 -3.1564 -0.8022
 4222TIP3    H212631   2.723   5.130   1.347  0.8462 -0.7277 -1.0788
 4223TIP3   OH212632   0.191   0.846   2.486  0.6213  0.3286 -0.8173
 4223TIP3    H112633   0.232   0.870   2.570 -0.4035 -2.4302  0.5700
 4223TIP3    H212634   0.264   0.846   2.424  1.3482  2.7818 -0.0854
 4224TIP3   OH212635   0.869   0.021   0.606 -0.3498 -0.3534 -0.0705
 4224TIP3    H112636   0.958   0.045   0.581 -0.0383 -2.2251 -0.8672
 4224TIP3    H212637   0.815   0.054   0.535 -0.3288  0.7699  0.4053
 4225TIP3   OH212638   4.951   4.115   1.787 -0.2179 -0.0167  0.1249
 4225TIP3    H112639   4.902   4.064   1.852  0.7248  0.2920  1.1216
 4225TIP3    H212640   4.969   4.198   1.832 -1.3588  1.0508 -1.3084
 4226TIP3   OH212641   0.808   2.524   4.389  0.0129 -0.0179 -0.4101
 4226TIP3    H112642   0.816   2.458   4.458  0.9723 -1.4114 -1.8023
 4226TIP3    H212643   0.809   2.475   4.307 -1.2328  1.5775 -1.4673
 4227TIP3   OH212644   4.038   3.614   0.342  0.3277 -0.1968  0.0925
 4227TIP3    H112645   4.105   3.613   0.411  1.0146  1.7981 -0.4660
 4227TIP3    H212646   4.084   3.589   0.262  0.0491 -0.3008 -0.0381
 4228TIP3   OH212647   2.039   2.510   1.566 -0.3990  0.7326 -0.3543
 4228TIP3    H112648   1.979   2.462   1.624  0.1156  1.8150  1.1537
 4228TIP3    H212649   2.118   2.456   1.563 -0.7551  0.2302 -0.7970
 4229TIP3   OH212650   2.702   4.007   5.800 -0.0272  0.1425  0.1217
 4229TIP3    H112651   2.787   4.021   5.840  0.1690  0.2684 -0.3334
 4229TIP3    H212652   2.640   4.010   5.873  0.2797  0.7949  0.3631
 4230TIP3   OH212653   4.902   6.301   5.762  0.0968 -0.2386  0.6635
 4230TIP3    H112654   4.932   6.228   5.815 -4.4907 -1.4070  2.1586
 4230TIP3    H212655   4.898   6.375   5.823 -0.2262 -0.1839  0.5807
 4231TIP3   OH212656   6.000   4.971   1.573  0.8315 -0.0442 -0.4018
 4231TIP3    H112657   6.043   4.959   1.488  1.1515  3.5088 -0.8903
 4231TIP3    H212658   6.072   4.973   1.636  0.8015 -0.4116 -0.3555
 4232TIP3   OH212659   4.012   5.594   5.075 -0.1634  0.1519  0.1520
 4232TIP3    H112660   4.049   5.564   5.158 -0.0075  0.9736  0.3803
 4232TIP3    H212661   4.042   5.529   5.011 -0.2747 -0.4795  0.7308
 4233TIP3   OH212662   4.527   2.869   4.733 -0.2735 -0.3249 -0.0163
 4233TIP3    H112663   4.474   2.877   4.812  0.1677 -0.8177  0.3369
 4233TIP3    H212664   4.482   2.803   4.680 -0.2149 -0.4718  0.1168
 4234TIP3   OH212665   0.643   6.611   4.237  0.3931  0.1463 -0.2125
 4234TIP3    H112666   0.701   6.560   4.180  1.2859 -0.6308  1.3375
 4234TIP3    H212667   0.590   6.662   4.176  1.6648 -0.2455 -1.7381
 4235TIP3   OH212668   6.518   5.947   5.469  0.2377 -0.1877  0.0848
 4235TIP3    H112669   6.514   5.858   5.503  1.1556 -0.2101  0.1669
 4235TIP3    H212670   6.557   5.998   5.540  1.3603 -0.0706 -0.5898
 4236TIP3   OH212671   6.124   3.975   3.354 -0.0373  0.1926 -0.1450
 4236TIP3    H112672   6.082   3.931   3.280 -1.0595  0.7494  0.0941
 4236TIP3    H212673   6.121   3.910   3.425 -0.2759  0.1489 -0.1947
 4237TIP3   OH212674   4.367   5.122   3.410  0.3181 -0.0443  0.0449
 4237TIP3    H112675   4.420   5.082   3.478 -0.4413 -2.1129 -0.4988
 4237TIP3    H212676   4.303   5.055   3.386 -1.5668  1.7737 -0.4066
 4238TIP3   OH212677   1.683   3.655   1.877 -0.3944  0.1022  0.7424
 4238TIP3    H112678   1.628   3.717   1.925  1.4777  1.1422  1.6707
 4238TIP3    H212679   1.635   3.572   1.880 -1.0628  0.4973  3.1105
 4239TIP3   OH212680   0.964   3.869   3.832 -0.5625 -0.1157 -0.4104
 4239TIP3    H112681   0.909   3.791   3.822 -0.5586 -0.2771  0.7375
 4239TIP3    H212682   0.940   3.906   3.917  0.0817  0.6232 -0.5341
 4240TIP3   OH212683   2.839   1.667   3.474 -0.3647 -0.3162 -0.1869
 4240TIP3    H112684   2.847   1.754   3.434 -0.9646 -0.6011 -0.9565
 4240TIP3    H212685   2.755   1.670   3.521  0.2965 -0.0109  1.0146
 4241TIP3   OH212686   3.936   1.891   5.358  0.4406  0.4886 -0.3672
 4241TIP3    H112687   4.012   1.909   5.413 -0.1388  1.0915  0.2467
 4241TIP3    H212688   3.949   1.801   5.328  1.6546  0.7634 -0.6982
 4242TIP3   OH212689   4.699   3.673   1.621  0.2977  0.1189 -0.2022
 4242TIP3    H112690   4.626   3.733   1.638 -0.6098 -0.7814 -0.8459
 4242TIP3    H212691   4.659   3.597   1.579  0.9940 -2.0724  2.7641
 4243TIP3   OH212692   3.664   2.480   4.022 -1.0325  0.2769 -0.4395
 4243TIP3    H112693   3.665   2.384   4.025  2.3714  0.2385  0.2963
 4243TIP3    H212694   3.742   2.503   3.972 -1.5190  2.6957 -0.1791
 4244TIP3   OH212695   6.341   2.922   0.223 -0.0168 -0.1340 -0.1311
 4244TIP3    H112696   6.253   2.927   0.185  0.3942 -1.0523 -1.2685
 4244TIP3    H212697   6.389   2.863   0.165  0.7146 -1.4889  1.7428
 4245TIP3   OH212698   3.377   0.027   0.761  0.0102  0.1728 -0.0955
 4245TIP3    H112699   3.336  -0.022   0.690  0.9101  1.4985 -1.5830
 4245TIP3    H212700   3.471   0.024   0.741  0.7550 -2.2898  2.8960
 4246TIP3   OH212701   1.549   0.664   3.399  0.7233 -0.2646  0.1698
 4246TIP3    H112702   1.470   0.610   3.397  0.4546  0.1477 -0.7463
 4246TIP3    H212703   1.518   0.753   3.410  1.0574 -0.0949 -0.2226
 4247TIP3   OH212704   5.420   2.127   5.101  0.1532 -0.2630  0.3839
 4247TIP3    H112705   5.373   2.170   5.173 -0.2230 -1.7415  1.0508
 4247TIP3    H212706   5.351   2.086   5.049  0.4400  0.6130 -0.7338
 4248TIP3   OH212707   2.579   6.325   4.159  0.6434  0.0734 -0.4210
 4248TIP3    H112708   2.624   6.302   4.240 -1.3222  1.1539  1.0789
 4248TIP3    H212709   2.546   6.241   4.126  2.2170 -0.4904 -0.6178
 4249TIP3   OH212710   1.638   0.262   2.605  0.3835  0.2495  0.1247
 4249TIP3    H112711   1.555   0.227   2.637  1.1196  0.5922  2.6121
 4249TIP3    H212712   1.704   0.201   2.639  1.3330  1.4762  0.5658
 4250TIP3   OH212713   6.029   2.472   3.966 -0.3143  0.1749  0.0816
 4250TIP3    H112714   6.107   2.421   3.989 -1.0937 -0.1963  2.1707
 4250TIP3    H212715   6.061   2.563   3.963  0.0021  0.1921  2.2950
 4251TIP3   OH212716   3.959   6.102   1.316  0.3353 -0.4010  0.2815
 4251TIP3    H112717   3.929   6.060   1.397 -0.4330 -1.1570 -0.3665
 4251TIP3    H212718   3.987   6.029   1.260  1.3396  0.1501  0.0481
 4252TIP3   OH212719   5.239   6.489   2.047 -0.4994 -0.0302  0.4205
 4252TIP3    H112720   5.310   6.464   2.107  0.1332  0.8297  0.0408
 4252TIP3    H212721   5.218   6.579   2.071 -1.7084 -0.3835  0.7503
 4253TIP3   OH212722   0.188   1.821   0.433  0.2895  0.0313  0.2014
 4253TIP3    H112723   0.127   1.748   0.422  0.3537  0.0177 -0.0932
 4253TIP3    H212724   0.274   1.781   0.419  0.6112 -0.4892  3.1036
 4254TIP3   OH212725   2.462   1.789   3.387 -0.3788  0.1898 -0.4835
 4254TIP3    H112726   2.498   1.703   3.366  1.7784  0.5961  1.2055
 4254TIP3    H212727   2.370   1.773   3.407  0.2364 -1.9518  0.9305
 4255TIP3   OH212728   1.221   4.620   3.470  0.4726  0.3116 -0.5134
 4255TIP3    H112729   1.153   4.627   3.403 -0.2969 -0.8828  0.1228
 4255TIP3    H212730   1.298   4.589   3.423 -0.1285 -0.7425 -0.8179
 4256TIP3   OH212731   0.837   2.297   2.334 -0.3391 -0.2137  0.0484
 4256TIP3    H112732   0.918   2.341   2.311 -0.1507 -0.6740 -0.1715
 4256TIP3    H212733   0.776   2.320   2.264 -0.7406  1.0279  0.7693
 4257TIP3   OH212734   0.192   5.525   2.080  0.1830  0.2633 -0.5552
 4257TIP3    H112735   0.204   5.431   2.099  1.0420  0.6007  0.7012
 4257TIP3    H212736   0.240   5.538   1.998  0.1702 -0.3800 -0.6722
 4258TIP3   OH212737   6.536   0.369   1.305 -0.5474 -0.1334 -0.0381
 4258TIP3    H112738   6.459   0.313   1.319 -0.5179 -0.1440  0.0831
 4258TIP3    H212739   6.500   0.457   1.295 -0.4757  0.0879  1.5006
 4259TIP3   OH212740   7.149   0.800   2.281  0.4493  0.1469 -0.6377
 4259TIP3    H112741   7.210   0.852   2.333 -0.2501 -0.8593  1.2801
 4259TIP3    H212742   7.080   0.862   2.257  0.2693  0.4302  0.5383
 4260TIP3   OH212743   6.194   5.072   2.214  0.0307 -0.0977  0.7184
 4260TIP3    H112744   6.212   5.084   2.308 -1.1209  0.1516  0.9220
 4260TIP3    H212745   6.188   4.977   2.203  0.2083 -0.1295  0.8823
 4261TIP3   OH212746   0.154   1.418   1.922 -0.3858  0.1536 -0.2273
 4261TIP3    H112747   0.062   1.441   1.926 -0.5340 -0.4408 -0.1378
 4261TIP3    H212748   0.174   1.412   1.828 -0.0275  1.8645 -0.2804
 4262TIP3   OH212749   4.915   0.872   2.263  0.2865  0.4183  0.2006
 4262TIP3    H112750   4.961   0.942   2.218 -0.6205 -0.1774 -1.7360
 4262TIP3    H212751   4.862   0.918   2.329 -0.1804  1.5738 -0.9257
 4263TIP3   OH212752   0.089   5.848   4.739 -0.2916 -0.3105  0.1439
 4263TIP3    H112753   0.051   5.903   4.808 -0.0946 -0.3235  0.2611
 4263TIP3    H212754   0.081   5.902   4.660 -0.5942 -0.3296  0.1599
 4264TIP3   OH212755   6.324   5.518   5.832 -0.3284 -0.3239  1.0615
 4264TIP3    H112756   6.348   5.519   5.925  0.0440  0.0705  0.9594
 4264TIP3    H212757   6.396   5.474   5.789  0.4925  1.3186  0.6873
 4265TIP3   OH212758   2.154   5.817   5.370  0.5988 -0.7157  0.0239
 4265TIP3    H112759   2.105   5.748   5.326 -1.3664  0.8905 -0.4958
 4265TIP3    H212760   2.154   5.792   5.462 -2.0256 -0.4459  0.1931
 4266TIP3   OH212761   1.439   5.860   4.478  0.1087  0.5066 -0.0357
 4266TIP3    H112762   1.525   5.855   4.436 -0.0328  1.3673 -0.4393
 4266TIP3    H212763   1.445   5.800   4.552  0.7107 -0.2291 -0.6666
 4267TIP3   OH212764   7.154   1.281   3.542 -0.5815  0.2911 -0.2077
 4267TIP3    H112765   7.174   1.335   3.619  1.2811 -1.0055  0.2683
 4267TIP3    H212766   7.125   1.197   3.578  1.7862 -0.8695 -0.8173
 4268TIP3   OH212767   3.261   5.328   2.623 -0.5103  0.4250 -0.0787
 4268TIP3    H112768   3.255   5.242   2.580  0.2787  0.3689 -0.0929
 4268TIP3    H212769   3.311   5.311   2.703 -1.9269  0.5371  0.8658
 4269TIP3   OH212770   4.252   6.099   2.127 -0.3921 -0.2299 -0.0263
 4269TIP3    H112771   4.262   6.109   2.221 -0.5721 -0.6796  0.0421
 4269TIP3    H212772   4.214   6.012   2.115 -0.4371 -0.1509 -0.5094
 4270TIP3   OH212773   4.622   1.132   0.808 -0.0278 -0.5755  0.5762
 4270TIP3    H112774   4.543   1.129   0.754 -0.8630 -0.6111  1.7512
 4270TIP3    H212775   4.694   1.130   0.746 -0.9534 -0.3785 -0.5381
 4271TIP3   OH212776   0.068   3.130   3.723  0.5465 -0.0704  0.1579
 4271TIP3    H112777   0.144   3.141   3.666  0.8429 -0.7833  0.4019
 4271TIP3    H212778   0.078   3.042   3.759 -0.9315 -0.5829 -0.5954
 4272TIP3   OH212779   4.995   3.134   3.189 -0.5309  0.2309 -0.0319
 4272TIP3    H112780   5.057   3.080   3.238  1.5584  0.8904 -1.7642
 4272TIP3    H212781   4.985   3.213   3.242  0.1936  0.1501  0.2338
 4273TIP3   OH212782   0.630   1.230   5.436 -0.0562  0.1621  0.0848
 4273TIP3    H112783   0.548   1.279   5.429 -0.3384 -0.2778  0.2042
 4273TIP3    H212784   0.608   1.142   5.404  0.6017  0.2817 -0.7225
 4274TIP3   OH212785   4.681   2.106   2.044 -0.1473 -0.2743 -0.0951
 4274TIP3    H112786   4.757   2.110   1.986 -1.7776  2.3402 -2.2866
 4274TIP3    H212787   4.607   2.088   1.985 -1.6847  0.8275  1.4009
 4275TIP3   OH212788   0.144   5.792   1.967  0.3377 -0.5390  0.7798
 4275TIP3    H112789   0.158   5.743   2.048 -0.1031 -1.8053  0.1228
 4275TIP3    H212790   0.189   5.740   1.900  1.0217  0.6876  0.2682
 4276TIP3   OH212791   0.545   4.331   3.767  0.2489  0.2580 -0.0246
 4276TIP3    H112792   0.492   4.378   3.832 -0.4352 -1.3691  0.6529
 4276TIP3    H212793   0.504   4.245   3.760  1.1944 -0.1147 -1.5454
 4277TIP3   OH212794   1.121   5.705   5.867 -0.4568  0.2645 -0.0541
 4277TIP3    H112795   1.175   5.762   5.921  0.2501  0.8134 -1.2942
 4277TIP3    H212796   1.176   5.628   5.850 -1.4863 -0.9410  1.7964
 4278TIP3   OH212797   4.574   3.296   3.027 -0.0427  0.3154  0.2921
 4278TIP3    H112798   4.550   3.207   3.001 -1.3542  0.5509  0.6479
 4278TIP3    H212799   4.669   3.299   3.015 -0.0440 -0.9651 -0.2176
 4279TIP3   OH212800   5.518   3.310   1.167 -0.0110 -0.1199  0.2840
 4279TIP3    H112801   5.606   3.304   1.129  0.3576  3.7856  0.1004
 4279TIP3    H212802   5.513   3.236   1.227  3.1630 -0.8508 -0.1488
 4280TIP3   OH212803   2.357   5.377   1.154 -0.3267  0.2329  0.3083
 4280TIP3    H112804   2.293   5.310   1.130 -2.1537  1.8922  0.3292
 4280TIP3    H212805   2.428   5.328   1.196 -1.0250 -1.7925 -0.7153
 4281TIP3   OH212806   4.319   5.234   0.899  0.1634 -0.2660 -0.4530
 4281TIP3    H112807   4.346   5.170   0.965 -0.7604 -0.2376 -0.0374
 4281TIP3    H212808   4.224   5.230   0.900  0.1369 -0.2133 -1.7430
 4282TIP3   OH212809   4.745   2.764   1.920  0.3018 -0.8682 -0.0840
 4282TIP3    H112810   4.824   2.800   1.961  0.6046 -1.5860 -0.0160
 4282TIP3    H212811   4.693   2.732   1.994 -0.3599  0.1759 -0.0796
 4283TIP3   OH212812   5.655   3.500   5.045 -0.1592 -0.2405 -0.2563
 4283TIP3    H112813   5.723   3.433   5.054 -0.0090 -0.2022 -1.0320
 4283TIP3    H212814   5.647   3.537   5.133 -0.2528 -1.2775  0.1902
 4284TIP3   OH212815   5.645   4.065   0.632 -0.4601 -0.3104  0.0129
 4284TIP3    H112816   5.617   4.126   0.700  0.4937  0.0864  0.0597
 4284TIP3    H212817   5.734   4.093   0.609  0.3213 -2.1557  0.5900
 4285TIP3   OH212818   1.765   0.695   5.763  0.1634 -0.7911 -0.0506
 4285TIP3    H112819   1.698   0.722   5.700  1.8727  1.2376 -1.1167
 4285TIP3    H212820   1.759   0.761   5.833  0.2883 -1.2827  0.4315
 4286TIP3   OH212821   6.131   5.626   1.974 -0.2584 -0.5962 -0.3686
 4286TIP3    H112822   6.206   5.686   1.976 -0.1073 -0.8070  1.1192
 4286TIP3    H212823   6.096   5.628   2.063 -2.4231 -0.0218 -1.1709
 4287TIP3   OH212824   6.704   2.717   1.400  0.0594 -0.1256  0.1904
 4287TIP3    H112825   6.778   2.711   1.461  0.0685  0.1359  0.2063
 4287TIP3    H212826   6.734   2.670   1.322 -0.0278 -0.6353  0.4575
 4288TIP3   OH212827   6.891   3.351   3.151 -0.3108 -0.2456  0.3844
 4288TIP3    H112828   6.896   3.438   3.191  0.9790 -0.1054 -0.0385
 4288TIP3    H212829   6.817   3.309   3.196 -1.2889  1.2275  0.2333
 4289TIP3   OH212830   5.350   0.860   2.181  0.5612 -0.1060 -0.2226
 4289TIP3    H112831   5.324   0.889   2.269  0.7139  0.1632 -0.2635
 4289TIP3    H212832   5.285   0.900   2.123 -0.5139 -1.5931 -0.1090
 4290TIP3   OH212833   6.120   2.090   1.953  0.5644 -0.7329 -0.4006
 4290TIP3    H112834   6.117   2.181   1.981  1.9577 -1.0986  1.0374
 4290TIP3    H212835   6.210   2.077   1.922  0.3076 -1.5672 -0.8458
 4291TIP3   OH212836   3.346   6.624   3.412  0.0814  0.7165 -1.0963
 4291TIP3    H112837   3.367   6.630   3.319  2.3858  1.4342 -0.5857
 4291TIP3    H212838   3.374   6.708   3.449  0.3092  0.0021  0.4394
 4292TIP3   OH212839   1.114   2.046   3.504  0.0648 -0.4315  0.9524
 4292TIP3    H112840   1.061   2.122   3.529 -0.1427  0.0721 -0.9039
 4292TIP3    H212841   1.119   1.994   3.584 -2.4597 -0.0536  1.4444
 4293TIP3   OH212842   3.212   0.939   3.458  0.1212  0.1159  0.2113
 4293TIP3    H112843   3.235   1.003   3.390 -0.1558  1.5028  1.3589
 4293TIP3    H212844   3.265   0.863   3.438  0.6776  0.7946 -1.0647
 4294TIP3   OH212845   2.816   5.677   4.642  0.1031 -0.0089 -0.1222
 4294TIP3    H112846   2.811   5.771   4.661 -4.9529 -0.0989  0.3449
 4294TIP3    H212847   2.815   5.671   4.547  1.0617  0.3332 -0.1701
 4295TIP3   OH212848   4.723   4.088   4.177  0.3359 -0.3833 -0.6345
 4295TIP3    H112849   4.737   4.182   4.169  2.1408 -0.6208 -0.7093
 4295TIP3    H212850   4.663   4.066   4.106  0.0128  0.6776 -0.7053
 4296TIP3   OH212851   1.263   0.491   0.917  0.1830  0.1811 -0.0302
 4296TIP3    H112852   1.321   0.471   0.990  2.4318  0.8543 -1.5346
 4296TIP3    H212853   1.232   0.406   0.886  0.3592 -0.1881  0.8075
 4297TIP3   OH212854   3.034   2.846   4.298  0.3692 -0.2205 -0.1000
 4297TIP3    H112855   3.047   2.773   4.236  0.1172  0.3778 -0.8718
 4297TIP3    H212856   3.051   2.807   4.384 -0.9552 -1.5057 -0.3702
 4298TIP3   OH212857   0.570   6.529   4.686 -0.5555  0.5388  0.1367
 4298TIP3    H112858   0.571   6.437   4.659  0.2485  0.7392 -0.5625
 4298TIP3    H212859   0.494   6.566   4.642 -0.6345  0.3052  0.0780
 4299TIP3   OH212860   3.564   1.436   0.196 -0.1810  0.1614 -0.6556
 4299TIP3    H112861   3.554   1.490   0.275 -0.8235  0.1281 -0.7111
 4299TIP3    H212862   3.532   1.350   0.222 -0.3681  0.1432 -0.9459
 4300TIP3   OH212863   3.632   4.442   2.179  0.4069  0.1182  0.8000
 4300TIP3    H112864   3.591   4.487   2.253  1.5364  0.0631  1.4822
 4300TIP3    H212865   3.706   4.395   2.218  0.6353 -0.4279 -0.2714
 4301TIP3   OH212866   1.638   4.698   1.492  0.6886 -0.1183 -0.0195
 4301TIP3    H112867   1.651   4.668   1.582  0.8723  1.7662  0.6206
 4301TIP3    H212868   1.721   4.739   1.469  1.0395 -1.5400 -1.4903
 4302TIP3   OH212869   1.422   5.257   3.462 -0.1088  0.1916  0.2011
 4302TIP3    H112870   1.391   5.186   3.406  1.4812  0.9840 -1.8248
 4302TIP3    H212871   1.368   5.332   3.438  0.2296  0.4033  0.0860
 4303TIP3   OH212872   7.073   1.124  -0.021  0.4156 -0.0425  0.2244
 4303TIP3    H112873   7.059   1.031  -0.004 -0.8193  0.3388  1.4528
 4303TIP3    H212874   7.056   1.167   0.063 -1.1725  1.4811 -0.8083
 4304TIP3   OH212875   3.648   1.228   1.480  0.3050 -0.1111  0.0631
 4304TIP3    H112876   3.673   1.320   1.486 -0.6194  0.1539  0.1125
 4304TIP3    H212877   3.555   1.231   1.456 -0.1131 -1.0041  1.4473
 4305TIP3   OH212878   1.772   1.392   2.201  0.1478  0.3693  0.3514
 4305TIP3    H112879   1.767   1.468   2.143 -0.7698  0.6685  0.8009
 4305TIP3    H212880   1.830   1.331   2.155  0.5772  1.1744 -0.1991
 4306TIP3   OH212881   5.590   0.966   0.550  0.1811  0.1136  0.5272
 4306TIP3    H112882   5.573   0.977   0.644 -1.3235  0.9667  0.1735
 4306TIP3    H212883   5.625   1.050   0.522 -0.6331  0.3124  0.0707
 4307TIP3   OH212884   0.772   2.672   2.270 -0.3005 -0.8593 -0.2714
 4307TIP3    H112885   0.756   2.687   2.177  1.9109 -0.1513 -0.5979
 4307TIP3    H212886   0.853   2.621   2.273  1.1607  1.3443  1.2598
 4308TIP3   OH212887   6.929   4.413   4.247  0.3116 -0.1039 -0.3926
 4308TIP3    H112888   6.922   4.323   4.217  1.9720 -0.3685 -0.0704
 4308TIP3    H212889   6.839   4.438   4.269 -0.5545 -0.8369 -2.8275
 4309TIP3   OH212890   5.984   1.556   5.325  0.7265 -0.2004  0.4878
 4309TIP3    H112891   6.015   1.606   5.401 -1.1207  1.0140  0.4811
 4309TIP3    H212892   5.941   1.620   5.270 -0.8528 -1.6289 -0.0050
 4310TIP3   OH212893   2.925   3.413   1.235  0.6260  0.1416  0.1106
 4310TIP3    H112894   3.005   3.363   1.253  0.5254  0.3660  1.2643
 4310TIP3    H212895   2.860   3.378   1.297 -0.4089 -0.5560 -1.2983
 4311TIP3   OH212896   0.102   2.885   3.828 -0.0923 -0.0935 -0.1805
 4311TIP3    H112897   0.072   2.898   3.918 -0.3500  0.2353 -0.3128
 4311TIP3    H212898   0.175   2.824   3.836  1.0994  1.3499  0.4693
 4312TIP3   OH212899   5.262   1.613   1.903 -0.0235 -0.3318 -0.2313
 4312TIP3    H112900   5.271   1.684   1.967  2.0526 -1.1611  0.5182
 4312TIP3    H212901   5.235   1.538   1.956 -1.9798 -0.2048 -0.9820
 4313TIP3   OH212902   1.055   1.170   2.589 -0.7062  0.3280 -0.0523
 4313TIP3    H112903   0.979   1.129   2.546 -0.7478 -0.5110  0.7644
 4313TIP3    H212904   1.018   1.245   2.636 -1.1836 -0.4929  0.9310
 4314TIP3   OH212905   6.500   2.485   0.775  0.4152  0.4923  0.3852
 4314TIP3    H112906   6.590   2.467   0.802  0.1655  0.6625  1.3862
 4314TIP3    H212907   6.481   2.418   0.709  0.5501 -0.9573  1.7511
 4315TIP3   OH212908   4.295   2.272   5.309  0.0871  0.2321 -0.1164
 4315TIP3    H112909   4.289   2.367   5.305 -0.2736  0.1875 -0.9066
 4315TIP3    H212910   4.348   2.254   5.386  0.9259  1.0968 -0.4756
 4316TIP3   OH212911   7.159   4.810   1.509  0.6961 -0.0254 -0.0889
 4316TIP3    H112912   7.144   4.866   1.585  1.5352 -0.8325  0.7053
 4316TIP3    H212913   7.076   4.809   1.462  0.2944  0.8365  0.5904
 4317TIP3   OH212914   2.998   3.639   1.648  0.4338  0.1306  0.3395
 4317TIP3    H112915   2.940   3.706   1.685  0.2432 -1.4776  3.2328
 4317TIP3    H212916   2.941   3.585   1.594  0.2898  1.3415 -0.7777
 4318TIP3   OH212917   3.255   5.551   4.613  0.2537  0.4941  0.2294
 4318TIP3    H112918   3.229   5.571   4.523 -0.1155  0.9388  0.4286
 4318TIP3    H212919   3.350   5.550   4.611  0.2607  1.1100 -0.0484
 4319TIP3   OH212920   4.042   2.096   4.900  0.2565 -0.3434  0.4389
 4319TIP3    H112921   4.071   2.063   4.985 -0.2005 -1.3332  0.2232
 4319TIP3    H212922   4.059   2.190   4.904  2.3378 -0.6853  0.7713
 4320TIP3   OH212923   2.707   3.413   5.048 -0.2961 -0.1145 -0.3098
 4320TIP3    H112924   2.686   3.417   4.955 -1.0024  1.7662 -0.1045
 4320TIP3    H212925   2.623   3.403   5.091 -0.0109 -0.5348  0.1532
 4321TIP3   OH212926   0.211   2.816   1.404 -0.0347 -0.4210  1.0436
 4321TIP3    H112927   0.135   2.807   1.346  0.4418  3.1472 -0.3673
 4321TIP3    H212928   0.286   2.814   1.346  0.6715  0.2229  1.9043
 4322TIP3   OH212929   2.939   0.892   0.996 -0.5464 -0.3069 -0.2037
 4322TIP3    H112930   2.948   0.802   0.967  0.4580 -0.0652 -0.7037
 4322TIP3    H212931   2.951   0.889   1.091 -0.9260 -0.7412 -0.1679
 4323TIP3   OH212932   6.147   3.050   3.309 -0.1004 -0.6225 -0.0337
 4323TIP3    H112933   6.069   3.102   3.330  0.8469  2.1213 -2.5769
 4323TIP3    H212934   6.112   2.972   3.266 -1.5215  0.6023 -1.2397
 4324TIP3   OH212935   4.129   3.019   1.310  0.0442 -0.5720 -0.7291
 4324TIP3    H112936   4.122   3.114   1.309  3.0054 -0.2346 -3.4056
 4324TIP3    H212937   4.049   2.989   1.266 -0.0199  0.8159 -1.6236
 4325TIP3   OH212938   0.150   5.109   0.412  0.1708 -0.2328 -0.6474
 4325TIP3    H112939   0.101   5.142   0.487  2.0163  0.5320  0.2852
 4325TIP3    H212940   0.158   5.015   0.427  0.4310 -0.0995  0.0634
 4326TIP3   OH212941   3.363   5.019   4.479 -0.2615 -0.5621  0.1224
 4326TIP3    H112942   3.274   5.031   4.512 -0.7371 -0.7299 -1.0497
 4326TIP3    H212943   3.355   5.029   4.384  0.9178 -0.9199 -0.0310
 4327TIP3   OH212944   2.307   4.022   1.438  0.6057  0.4886 -0.3713
 4327TIP3    H112945   2.252   4.101   1.444 -0.2024 -0.0715 -0.1848
 4327TIP3    H212946   2.305   3.998   1.346  0.9955  0.7847 -0.4573
 4328TIP3   OH212947   1.860   0.965   2.151 -0.5050 -0.4074 -0.9413
 4328TIP3    H112948   1.771   0.978   2.183  0.8533  1.2915  2.6944
 4328TIP3    H212949   1.869   1.025   2.078 -2.0909 -0.0621 -0.8828
 4329TIP3   OH212950   6.752   0.165   2.296  0.0427  0.4499  0.0001
 4329TIP3    H112951   6.660   0.141   2.304  0.1336  0.5957  2.7015
 4329TIP3    H212952   6.752   0.261   2.301  0.3354  0.4235  0.8273
 4330TIP3   OH212953   1.919   4.691   2.472 -0.1722 -0.2710 -0.2658
 4330TIP3    H112954   1.991   4.712   2.412 -0.3167 -1.2134 -0.7901
 4330TIP3    H212955   1.958   4.635   2.539  0.6545  2.9696  2.2222
 4331TIP3   OH212956   5.695   2.298   1.935  0.3722  0.3279 -0.5860
 4331TIP3    H112957   5.722   2.241   1.864  3.1933  3.7802 -2.6368
 4331TIP3    H212958   5.646   2.368   1.891 -0.4056  1.0515  1.3396
 4332TIP3   OH212959   1.983   0.227   5.727 -0.4380  0.1520 -0.4879
 4332TIP3    H112960   1.968   0.157   5.790  0.2625 -0.5798 -1.0979
 4332TIP3    H212961   1.923   0.208   5.654  0.2013 -0.1908 -0.9353
 4333TIP3   OH212962   4.491   5.686   5.384  0.3637 -0.2346  0.6424
 4333TIP3    H112963   4.548   5.614   5.357  0.2561  0.5484 -1.9669
 4333TIP3    H212964   4.540   5.729   5.455  1.8173 -1.0915  0.2160
 4334TIP3   OH212965   2.648   0.225   3.184  0.6393 -0.3610 -0.0033
 4334TIP3    H112966   2.729   0.184   3.153 -0.0327 -1.7175 -0.0705
 4334TIP3    H212967   2.590   0.151   3.202 -0.5309  0.5801  0.2113
 4335TIP3   OH212968   6.256   1.981   5.334  0.3235  0.3548 -0.3364
 4335TIP3    H112969   6.305   1.933   5.268 -0.4123  0.9080 -1.3073
 4335TIP3    H212970   6.180   2.015   5.288 -2.1799 -2.2465  1.5303
 4336TIP3   OH212971   0.981   0.471   0.103  0.0584  0.3213  0.6982
 4336TIP3    H112972   0.934   0.506   0.180  1.4005  1.7487  0.9235
 4336TIP3    H212973   1.035   0.401   0.137  2.4018  2.4215  1.6000
 4337TIP3   OH212974   5.425   2.505   2.295 -0.2553 -0.4072 -0.1838
 4337TIP3    H112975   5.410   2.513   2.200  0.6000 -0.3437 -0.3241
 4337TIP3    H212976   5.509   2.459   2.301  0.1758  0.4633  0.5366
 4338TIP3   OH212977   1.683   6.347   4.004  0.3547  0.1206 -0.3471
 4338TIP3    H112978   1.622   6.273   4.000  2.2431 -1.4753 -0.8255
 4338TIP3    H212979   1.638   6.411   4.060 -1.1370 -1.5822  0.5199
 4339TIP3   OH212980   6.120   1.037   2.787 -0.1362  0.2810 -0.5599
 4339TIP3    H112981   6.156   0.952   2.811  0.5023  0.7165  0.0906
 4339TIP3    H212982   6.185   1.075   2.727 -0.5968  0.1549 -1.1372
 4340TIP3   OH212983   0.142   5.155   4.432 -0.1460  0.4655 -0.0039
 4340TIP3    H112984   0.057   5.186   4.465  0.6191 -0.0243  2.6565
 4340TIP3    H212985   0.199   5.155   4.509  1.0767 -3.4897 -0.6953
 4341TIP3   OH212986   4.559   3.163   4.982 -0.5451 -0.0434  0.2346
 4341TIP3    H112987   4.631   3.203   5.030 -0.4334 -0.1285  0.1407
 4341TIP3    H212988   4.480   3.203   5.017 -0.4645 -0.1102  0.4933
 4342TIP3   OH212989   4.178   4.626   5.527 -0.1447 -0.0641 -0.2359
 4342TIP3    H112990   4.147   4.679   5.454 -1.7516 -0.6127 -0.0056
 4342TIP3    H212991   4.098   4.605   5.577  0.2406 -3.2881 -0.7414
 4343TIP3   OH212992   3.683   3.893   5.881 -0.0894 -0.2485 -0.0040
 4343TIP3    H112993   3.607   3.836   5.887  1.0514 -1.8364  0.2873
 4343TIP3    H212994   3.723   3.872   5.797 -2.0807  3.5049 -2.1277
 4344TIP3   OH212995   4.807   3.975   1.150 -0.2524  0.4893  0.2243
 4344TIP3    H112996   4.817   3.879   1.151 -1.0292  0.3750 -1.0101
 4344TIP3    H212997   4.873   4.006   1.211  0.1719 -0.8250  0.4751
 4345TIP3   OH212998   0.977   6.306   4.496 -0.3796 -0.1615 -0.3530
 4345TIP3    H112999   0.926   6.367   4.548 -0.7609  2.1379 -3.1479
 4345TIP3    H213000   1.062   6.349   4.485 -0.2181 -0.6892 -1.3188
 4346TIP3   OH213001   3.579   2.195   3.323  0.0281 -0.0975 -0.0162
 4346TIP3    H113002   3.520   2.245   3.379  0.6530  0.1449  0.4524
 4346TIP3    H213003   3.604   2.119   3.376 -0.3743 -0.5392 -0.4586
 4347TIP3   OH213004   2.911   6.425   4.784  0.2987  1.2556 -0.1155
 4347TIP3    H113005   2.891   6.397   4.873  1.6343  1.3201  0.2268
 4347TIP3    H213006   2.828   6.456   4.749 -0.4137  0.4688  0.8246
 4348TIP3   OH213007   4.732   3.800   5.236 -0.1108  0.3949  0.1610
 4348TIP3    H113008   4.789   3.790   5.159 -1.0842  0.5070 -0.5856
 4348TIP3    H213009   4.792   3.797   5.310  0.6561 -1.7910 -0.4746
 4349TIP3   OH213010   6.272   5.867   2.526  0.2353  0.9936  0.0032
 4349TIP3    H113011   6.264   5.938   2.462  1.6702  0.1248 -1.2079
 4349TIP3    H213012   6.227   5.900   2.604 -1.4021  2.1840 -1.3504
 4350TIP3   OH213013   1.723   5.004   4.430  0.4302  0.2755  0.4614
 4350TIP3    H113014   1.759   4.996   4.341 -1.3416  0.6834 -0.3547
 4350TIP3    H213015   1.711   4.913   4.458  2.0214  0.1309  0.7603
 4351TIP3   OH213016   3.165   3.548   2.698 -0.2229  0.4859 -0.4741
 4351TIP3    H113017   3.103   3.614   2.667 -1.5351 -1.2012 -1.6209
 4351TIP3    H213018   3.130   3.519   2.782 -0.6634 -0.0467 -0.8406
 4352TIP3   OH213019   0.594   4.339   5.609 -0.5332 -0.0680 -0.5285
 4352TIP3    H113020   0.537   4.406   5.646  0.7073  0.3613  0.6642
 4352TIP3    H213021   0.656   4.387   5.554 -0.1683 -0.3156 -0.3389
 4353TIP3   OH213022   3.701   0.574   1.665 -0.1700 -0.1012  0.6414
 4353TIP3    H113023   3.719   0.505   1.729 -1.7345  0.4203  1.7109
 4353TIP3    H213024   3.608   0.594   1.677 -0.1483  1.0421 -0.8029
 4354TIP3   OH213025   2.944   0.637   5.769  0.2654 -0.2263 -0.5147
 4354TIP3    H113026   2.889   0.562   5.746  0.7097  0.2941 -3.8118
 4354TIP3    H213027   2.890   0.714   5.749  0.8523  0.3189 -0.0591
 4355TIP3   OH213028   5.358   5.431   4.274  0.0835 -0.1747 -0.2691
 4355TIP3    H113029   5.286   5.450   4.334  0.8011  0.9037  0.2739
 4355TIP3    H213030   5.345   5.339   4.250  0.0724 -0.8070  1.9618
 4356TIP3   OH213031   0.184   1.780   2.964 -0.0865 -0.7630 -0.2051
 4356TIP3    H113032   0.169   1.714   2.895 -1.0740 -1.3381  0.5387
 4356TIP3    H213033   0.104   1.778   3.016  0.2925  0.3231  0.4276
 4357TIP3   OH213034   6.237   0.704   3.281 -0.2518 -0.0672 -0.2559
 4357TIP3    H113035   6.232   0.794   3.247 -2.6427 -0.4166 -0.9817
 4357TIP3    H213036   6.321   0.672   3.250  0.7415  1.9456  0.1471
 4358TIP3   OH213037   7.185   5.319   1.373 -0.2726  0.2036 -0.1505
 4358TIP3    H113038   7.156   5.242   1.421 -0.2896 -0.6764 -1.5202
 4358TIP3    H213039   7.129   5.390   1.406 -0.0938 -0.2967  1.2958
 4359TIP3   OH213040   6.797   4.527   5.053 -0.1278  0.5820  0.2397
 4359TIP3    H113041   6.767   4.554   4.967  0.0171 -1.0494 -0.3430
 4359TIP3    H213042   6.785   4.605   5.108  0.6501  1.9409 -1.4436
 4360TIP3   OH213043   6.341   4.467   4.409  0.1060 -0.2358  0.0620
 4360TIP3    H113044   6.341   4.496   4.318 -1.4625  0.8622  0.3764
 4360TIP3    H213045   6.393   4.534   4.454 -0.3018 -0.0006  0.1871
 4361TIP3   OH213046   3.946   6.461   5.738  0.0858  0.2291 -0.0335
 4361TIP3    H113047   3.960   6.547   5.697 -1.5072 -0.0292 -1.1841
 4361TIP3    H213048   3.888   6.479   5.812  0.5089  0.2578  0.2975
 4362TIP3   OH213049   2.095   3.073   0.668 -0.4724  0.6092  0.9068
 4362TIP3    H113050   2.034   3.064   0.741 -0.2061 -0.5237  1.0015
 4362TIP3    H213051   2.065   3.011   0.602 -0.4380  1.2913  0.2230
 4363TIP3   OH213052   5.277   3.936   5.327 -0.1285 -0.2528 -0.2851
 4363TIP3    H113053   5.317   3.980   5.402 -1.8340  0.2817  0.3696
 4363TIP3    H213054   5.292   3.996   5.253  0.6905 -0.3092 -0.1697
 4364TIP3   OH213055   3.353   3.428   3.648 -0.3462 -0.2412 -0.0815
 4364TIP3    H113056   3.383   3.404   3.561 -0.8678 -1.7550  0.1267
 4364TIP3    H213057   3.258   3.424   3.643 -0.3816 -2.3270  1.0203
 4365TIP3   OH213058   6.820   0.345   5.573  0.3314 -0.4159  0.0507
 4365TIP3    H113059   6.779   0.413   5.627  0.3760 -0.9318  0.7535
 4365TIP3    H213060   6.782   0.264   5.606  0.7217 -0.7769 -0.3861
 4366TIP3   OH213061   3.908   4.727   5.412  0.0873 -0.0136 -0.2205
 4366TIP3    H113062   3.851   4.747   5.338 -0.6578  0.3971  0.4627
 4366TIP3    H213063   3.922   4.810   5.456  1.5961 -0.0204 -0.6278
 4367TIP3   OH213064   0.016   5.572   3.623  0.2681  0.2859 -0.2429
 4367TIP3    H113065   0.058   5.654   3.649 -0.4880  0.3206  0.9622
 4367TIP3    H213066  -0.060   5.600   3.571  0.3522  0.3201 -0.3481
 4368TIP3   OH213067   6.039   2.040   3.818  0.0318 -0.4189  0.6056
 4368TIP3    H113068   5.962   2.048   3.873  0.0218 -0.1674  0.5554
 4368TIP3    H213069   6.056   1.945   3.813  0.2131 -0.4274  1.2868
 4369TIP3   OH213070   0.658   3.004   0.801 -0.1886  0.3427  0.1754
 4369TIP3    H113071   0.611   3.026   0.720 -1.2852 -0.8584  0.4457
 4369TIP3    H213072   0.679   3.089   0.840  0.8179  0.9552 -1.5993
 4370TIP3   OH213073   2.416   6.541   2.257 -0.2641 -0.0834 -0.1205
 4370TIP3    H113074   2.494   6.590   2.230 -0.2467 -1.4126 -2.8144
 4370TIP3    H213075   2.352   6.609   2.281  1.1288  1.0781  0.4855
 4371TIP3   OH213076   1.935   6.361   5.437 -0.1495  0.4526  0.0938
 4371TIP3    H113077   2.002   6.297   5.458 -0.0639  0.3144 -0.5566
 4371TIP3    H213078   1.871   6.312   5.384 -0.6205  0.6489  0.4720
 4372TIP3   OH213079   0.558   2.427   5.678 -0.6887  0.3831 -0.7345
 4372TIP3    H113080   0.466   2.431   5.651 -0.6978  0.3143 -0.7133
 4372TIP3    H213081   0.555   2.436   5.774 -0.8139 -1.4950 -0.5314
 4373TIP3   OH213082   4.045   5.605   0.567 -0.4460  0.0117  0.0891
 4373TIP3    H113083   4.135   5.590   0.598 -0.8192  0.4186  1.4081
 4373TIP3    H213084   3.990   5.590   0.644 -1.4063  1.1527 -0.3442
 4374TIP3   OH213085   5.965   6.456   3.214  0.0763 -0.0318 -0.6076
 4374TIP3    H113086   5.889   6.398   3.209  0.5521 -0.7270 -0.0285
 4374TIP3    H213087   6.018   6.419   3.284  0.0938  1.4738  0.2096
 4375TIP3   OH213088   0.541   5.931   3.388  0.0482  0.3365  0.3055
 4375TIP3    H113089   0.506   5.976   3.465 -1.2453  0.4485 -0.3096
 4375TIP3    H213090   0.629   5.903   3.414  0.2944  1.8523  1.2323
 4376TIP3   OH213091   5.581   2.658   5.386 -0.2221  0.4459  0.3569
 4376TIP3    H113092   5.538   2.579   5.354  2.4238 -1.1474  0.4163
 4376TIP3    H213093   5.668   2.629   5.414  1.4158  3.5967 -0.8758
 4377TIP3   OH213094   0.212   4.067   1.220 -0.4426 -0.1049  0.0521
 4377TIP3    H113095   0.275   4.135   1.242 -1.5149  0.4078  1.7031
 4377TIP3    H213096   0.201   4.074   1.125  1.9021 -0.1799 -0.2891
 4378TIP3   OH213097   2.178   2.065   2.677  0.4160  0.6428 -0.1113
 4378TIP3    H113098   2.225   2.076   2.595 -0.6618 -0.5279 -0.9385
 4378TIP3    H213099   2.168   1.970   2.686  1.1946  0.6845  1.7975
 4379TIP3   OH213100   5.384   0.251   1.060 -0.2654  0.1522  0.0968
 4379TIP3    H113101   5.363   0.257   0.967 -0.7200 -0.3236  0.1657
 4379TIP3    H213102   5.340   0.326   1.099  0.8159  0.9864 -0.2133
 4380TIP3   OH213103   0.840   4.449   0.455 -0.3190 -0.1357 -0.2434
 4380TIP3    H113104   0.875   4.459   0.543 -1.8833 -0.2532  0.4088
 4380TIP3    H213105   0.917   4.455   0.398  0.5643  1.1804  1.0251
 4381TIP3   OH213106   3.236   1.028   3.203 -0.3586  0.2084  0.0423
 4381TIP3    H113107   3.157   1.038   3.149 -0.1713 -0.5989 -0.3936
 4381TIP3    H213108   3.304   1.000   3.142  0.8346  2.8573  0.0130
 4382TIP3   OH213109   0.891   4.785   3.723  0.1398  0.0343 -0.0734
 4382TIP3    H113110   0.805   4.821   3.701  1.0680  1.7021 -1.1394
 4382TIP3    H213111   0.899   4.707   3.668 -0.1555  0.6242 -0.9642
 4383TIP3   OH213112   1.320   2.054   2.770 -0.3855 -0.1662 -0.0712
 4383TIP3    H113113   1.386   1.991   2.740  0.4339  0.0252  1.2377
 4383TIP3    H213114   1.237   2.008   2.760  0.0049 -0.7073 -0.9971
 4384TIP3   OH213115   6.973   1.996   3.781 -0.2539  1.0071  0.2868
 4384TIP3    H113116   6.887   1.975   3.742  1.8149 -1.0181 -3.8833
 4384TIP3    H213117   6.977   2.092   3.778 -1.7852  1.0813 -0.9733
 4385TIP3   OH213118   5.573   0.067   1.016 -0.1611  0.5720  0.0795
 4385TIP3    H113119   5.526   0.146   1.043 -1.8807  0.0565 -1.2236
 4385TIP3    H213120   5.600   0.085   0.926  0.1104 -0.0260  0.0385
 4386TIP3   OH213121   5.954   5.673   0.797  0.2083 -0.2278  0.8310
 4386TIP3    H113122   5.948   5.584   0.761  0.4856  0.4031 -0.8579
 4386TIP3    H213123   5.886   5.677   0.864 -0.3378 -1.4597  0.3711
 4387TIP3   OH213124   0.442   1.604   3.433  0.3390 -0.4501 -0.7174
 4387TIP3    H113125   0.493   1.532   3.470  0.1495 -1.0275 -1.5471
 4387TIP3    H213126   0.446   1.673   3.499 -0.4851 -1.6455  0.6636
 4388TIP3   OH213127   2.655   4.983   0.514 -0.0532  0.0084 -0.2584
 4388TIP3    H113128   2.675   5.061   0.463  1.1338 -0.3442 -0.3653
 4388TIP3    H213129   2.577   4.946   0.472 -2.3458  2.5118  1.3906
 4389TIP3   OH213130   0.886   1.235   2.179 -0.4606 -0.1386 -0.2507
 4389TIP3    H113131   0.825   1.304   2.153 -0.7807 -0.5995 -0.7551
 4389TIP3    H213132   0.964   1.252   2.126 -0.6891 -0.3939 -0.6817
 4390TIP3   OH213133   4.840   3.392   1.027 -0.0939 -0.1135 -0.2834
 4390TIP3    H113134   4.873   3.406   1.115  2.1720 -0.7841 -0.9556
 4390TIP3    H213135   4.782   3.316   1.034 -1.1484  0.7563  0.8441
 4391TIP3   OH213136   3.638   1.821   1.868  0.3227  0.4449  0.6253
 4391TIP3    H113137   3.596   1.902   1.897 -0.0524  0.9982 -1.3258
 4391TIP3    H213138   3.651   1.833   1.774 -0.1778 -1.9632  0.1825
 4392TIP3   OH213139   3.742   3.282   2.733  0.1725 -0.2098  0.1095
 4392TIP3    H113140   3.767   3.307   2.822  0.3479 -0.4312  0.1226
 4392TIP3    H213141   3.811   3.318   2.677 -0.2757  0.4894 -0.0023
 4393TIP3   OH213142   2.222   3.222   3.407 -0.2886 -0.2980  0.1965
 4393TIP3    H113143   2.290   3.227   3.474 -1.0700  1.5534  0.9519
 4393TIP3    H213144   2.265   3.186   3.330  1.5793  0.9010  0.6257
 4394TIP3   OH213145   5.616   5.118   2.539 -0.0500  0.3050 -1.1190
 4394TIP3    H113146   5.648   5.115   2.629 -1.1739  1.1208 -0.6686
 4394TIP3    H213147   5.687   5.081   2.487  1.1476  0.9842 -0.0315
 4395TIP3   OH213148   1.707   2.621   1.279 -0.5737 -0.0992 -0.6371
 4395TIP3    H113149   1.695   2.577   1.363  0.1807 -1.1291 -1.0451
 4395TIP3    H213150   1.687   2.554   1.214  1.4808 -0.1739 -1.2823
 4396TIP3   OH213151   1.082   4.151   0.370  0.3821 -0.0294 -0.3742
 4396TIP3    H113152   1.064   4.171   0.278  2.5353  1.3388 -0.5627
 4396TIP3    H213153   1.128   4.229   0.403  1.4418 -1.2989  1.2985
 4397TIP3   OH213154   3.569   1.560   3.992  0.6314 -0.3632  0.2308
 4397TIP3    H113155   3.533   1.631   4.045  0.9104  0.2595 -0.4138
 4397TIP3    H213156   3.493   1.506   3.970  0.3541 -0.0292  0.3669
 4398TIP3   OH213157   0.682   1.654   0.999 -0.0313  0.0021 -0.2475
 4398TIP3    H113158   0.755   1.694   0.952 -0.7397  1.5348 -0.1209
 4398TIP3    H213159   0.718   1.572   1.034  1.3156  0.2167 -1.0392
 4399TIP3   OH213160   6.594   3.542   3.105  0.3614  0.4288 -0.1132
 4399TIP3    H113161   6.542   3.462   3.097  2.0618 -0.8130  0.5650
 4399TIP3    H213162   6.657   3.537   3.033  2.7011 -0.6560  1.8542
 4400TIP3   OH213163   0.575   5.472   1.873 -0.0931 -0.2617 -0.5724
 4400TIP3    H113164   0.561   5.565   1.895 -1.6199 -0.8707  1.2455
 4400TIP3    H213165   0.509   5.453   1.807 -0.1021 -0.1927 -0.5834
 4401TIP3   OH213166   4.138   4.948   4.810 -0.4157 -0.1397 -0.2367
 4401TIP3    H113167   4.069   4.948   4.744 -0.1093  0.5510 -0.5748
 4401TIP3    H213168   4.151   4.856   4.832 -1.0311 -0.3194 -0.5999
 4402TIP3   OH213169   3.207   6.360   4.146 -0.6092 -0.2229  0.4459
 4402TIP3    H113170   3.249   6.327   4.225 -0.8298  0.4104  0.8363
 4402TIP3    H213171   3.268   6.340   4.075 -0.2383 -0.4553  0.8308
 4403TIP3   OH213172   1.162   6.363   0.261 -0.1887  0.2468  0.2334
 4403TIP3    H113173   1.171   6.326   0.173  1.4415 -0.7408  0.7691
 4403TIP3    H213174   1.205   6.448   0.256 -2.9538  1.7459 -0.7018
 4404TIP3   OH213175   0.175   1.466   5.183  0.2301 -0.5626 -0.2449
 4404TIP3    H113176   0.258   1.427   5.211 -0.7378 -1.2682  1.7556
 4404TIP3    H213177   0.196   1.559   5.170  1.1778 -0.5815  0.9790
 4405TIP3   OH213178   3.713   3.740   3.648 -0.3639 -0.4128  0.2574
 4405TIP3    H113179   3.772   3.699   3.711  0.6712 -0.6671 -0.8515
 4405TIP3    H213180   3.744   3.710   3.563 -2.8470 -1.6062 -0.3479
 4406TIP3   OH213181   5.850   2.710   1.113  0.3454  0.0724  0.0356
 4406TIP3    H113182   5.938   2.747   1.116 -0.2283  1.4317  1.7151
 4406TIP3    H213183   5.818   2.716   1.204 -1.2953 -0.8528 -0.4346
 4407TIP3   OH213184   2.785   1.619   1.767 -0.7336 -0.3421 -0.6764
 4407TIP3    H113185   2.783   1.546   1.706 -2.1748 -0.1253 -0.9341
 4407TIP3    H213186   2.824   1.691   1.718  3.4255 -1.5777  0.4448
 4408TIP3   OH213187   3.952   2.691   2.186  0.0961 -0.4391 -0.2628
 4408TIP3    H113188   3.947   2.781   2.217 -0.3334 -0.4794 -0.2133
 4408TIP3    H213189   3.869   2.676   2.141  0.5428 -0.5116 -1.0919
 4409TIP3   OH213190   6.214   0.153   3.054 -0.2302 -0.4418  0.1965
 4409TIP3    H113191   6.234   0.168   2.962  1.4797 -0.4172  0.5380
 4409TIP3    H213192   6.237   0.235   3.098 -3.3781  0.4550  0.3826
 4410TIP3   OH213193   6.621   4.977   1.367  0.0799  0.0446  0.0786
 4410TIP3    H113194   6.638   5.067   1.393 -0.5177  0.3046 -0.4131
 4410TIP3    H213195   6.651   4.971   1.277 -0.0831 -0.1853  0.0373
 4411TIP3   OH213196   2.316   3.994   0.099  0.3345  0.7148  0.6494
 4411TIP3    H113197   2.334   3.914   0.148  1.3389  1.6565  1.8755
 4411TIP3    H213198   2.221   3.992   0.085  0.3243 -0.6319  0.7223
 4412TIP3   OH213199   0.305   2.075   2.554  0.1732  0.1344 -0.0212
 4412TIP3    H113200   0.262   1.991   2.571  2.2360 -1.4440 -1.8166
 4412TIP3    H213201   0.242   2.124   2.502 -0.6492 -0.8123  0.0459
 4413TIP3   OH213202   0.407   4.212   0.313 -0.2375 -0.1309  0.1354
 4413TIP3    H113203   0.493   4.177   0.290  0.4344 -0.4058  2.7007
 4413TIP3    H213204   0.426   4.294   0.359 -1.4928  0.7487 -0.8318
 4414TIP3   OH213205   6.926   0.789   4.698  0.0174  0.1038  0.3730
 4414TIP3    H113206   6.943   0.869   4.648 -1.8014  0.9214  1.0130
 4414TIP3    H213207   6.933   0.719   4.632  3.1961  0.5219  0.0924
 4415TIP3   OH213208   5.748   2.174   5.218 -0.3670 -0.1504  0.4704
 4415TIP3    H113209   5.709   2.088   5.206  1.8839 -1.5417  2.3172
 4415TIP3    H213210   5.795   2.169   5.301  0.3641  2.6765  0.3625
 4416TIP3   OH213211   6.874   3.826   0.370  0.1311  0.2786 -1.1228
 4416TIP3    H113212   6.968   3.818   0.385 -0.1066  0.5510  0.7522
 4416TIP3    H213213   6.837   3.745   0.404 -0.4737  0.9968  0.0066
 4417TIP3   OH213214   0.091   2.276   4.671  0.1474  0.8128  0.0392
 4417TIP3    H113215   0.149   2.243   4.740  1.8474  0.7867 -1.3161
 4417TIP3    H213216   0.006   2.284   4.713  0.8864 -0.1621  1.8542
 4418TIP3   OH213217   5.474   0.657   0.708  0.7751 -0.3055  0.6368
 4418TIP3    H113218   5.423   0.577   0.715  0.7211 -0.5626 -1.8471
 4418TIP3    H213219   5.416   0.718   0.662  2.2904 -0.3094 -1.4136
 4419TIP3   OH213220   4.453   5.516   0.138  0.3376 -1.3417  0.2947
 4419TIP3    H113221   4.492   5.472   0.214  0.1632 -2.4270 -0.2234
 4419TIP3    H213222   4.528   5.536   0.081  0.1840 -3.9964 -0.9962
 4420TIP3   OH213223   6.800   1.055   2.683  0.3749 -0.6641 -0.2714
 4420TIP3    H113224   6.715   1.073   2.723  0.1057  2.9328 -2.1027
 4420TIP3    H213225   6.863   1.063   2.756 -0.4335  2.0813  0.2469
 4421TIP3   OH213226   0.940   2.565   5.202 -0.3333 -0.4990  0.3185
 4421TIP3    H113227   1.019   2.573   5.148  0.4363 -0.7692  1.3691
 4421TIP3    H213228   0.881   2.511   5.149  0.4509 -0.8836 -0.1978
 4422TIP3   OH213229   0.323   5.834   5.555  0.1341  0.1591  0.4032
 4422TIP3    H113230   0.349   5.806   5.467 -1.7983 -1.2483  0.2061
 4422TIP3    H213231   0.259   5.769   5.582 -0.8895  1.7570  2.0101
 4423TIP3   OH213232   2.291   6.660   5.141  0.0239  0.3814 -0.1399
 4423TIP3    H113233   2.288   6.565   5.133  0.8632 -0.0001  2.8702
 4423TIP3    H213234   2.200   6.688   5.133 -0.2030 -0.5993 -1.3292
 4424TIP3   OH213235   3.831   6.428   1.099 -0.2578 -0.0596  0.2080
 4424TIP3    H113236   3.843   6.426   1.194 -0.5023  1.9192  0.3152
 4424TIP3    H213237   3.920   6.421   1.064 -0.1795 -1.0189  0.5361
 4425TIP3   OH213238   1.018   6.549   4.139  0.7583  0.1039 -0.0976
 4425TIP3    H113239   1.012   6.457   4.165 -0.1770 -0.1589 -1.1667
 4425TIP3    H213240   1.044   6.546   4.047  0.9063  0.9268 -0.0908
 4426TIP3   OH213241   2.598   4.569   4.456 -0.2713  0.3594  0.0511
 4426TIP3    H113242   2.537   4.585   4.528 -0.0073 -2.2311  0.9406
 4426TIP3    H213243   2.669   4.632   4.470 -0.0461 -0.3214  2.3208
 4427TIP3   OH213244   2.017  -0.022   1.269  0.1746  0.1310 -0.5205
 4427TIP3    H113245   2.064   0.052   1.229  0.7803  1.5794  2.5701
 4427TIP3    H213246   1.925  -0.002   1.255  0.3453  1.2322 -0.1680
 4428TIP3   OH213247   3.062   4.162   4.259 -0.1896  0.0091  0.3936
 4428TIP3    H113248   3.065   4.211   4.177 -0.8961  0.6052  0.7113
 4428TIP3    H213249   3.134   4.198   4.311  0.4339 -0.5615 -0.0594
 4429TIP3   OH213250   1.242   0.395   5.205 -0.6578 -0.2872  0.0073
 4429TIP3    H113251   1.183   0.323   5.182  1.8224 -2.2819 -0.5332
 4429TIP3    H213252   1.262   0.380   5.298 -1.8265  1.0830  0.5229
 4430TIP3   OH213253   1.063   3.453   0.104  0.4012  0.0482  0.6938
 4430TIP3    H113254   1.032   3.382   0.048 -1.7241 -1.4407  3.4966
 4430TIP3    H213255   1.001   3.525   0.087 -1.5191 -1.0872  2.3923
 4431TIP3   OH213256   3.062   5.897   4.929 -0.0433 -0.1716 -0.0486
 4431TIP3    H113257   2.983   5.843   4.918 -0.9362  1.2570 -0.9149
 4431TIP3    H213258   3.121   5.868   4.860  0.2712 -1.3489  0.6902
 4432TIP3   OH213259   5.308  -0.004   4.870  0.4949 -0.3601 -0.1959
 4432TIP3    H113260   5.345   0.078   4.836 -1.5219  1.2341  1.1831
 4432TIP3    H213261   5.234  -0.022   4.812  1.1638 -1.4512 -0.7257
 4433TIP3   OH213262   5.002   2.551   0.325 -0.0402 -0.5539  0.5907
 4433TIP3    H113263   5.078   2.496   0.344  1.0752  0.1937 -1.4041
 4433TIP3    H213264   4.987   2.540   0.231  0.1730  2.4150  0.1144
 4434TIP3   OH213265   4.005   0.918   1.620 -0.2661  0.0093 -0.4977
 4434TIP3    H113266   3.925   0.950   1.579 -0.5252  0.1233  0.0865
 4434TIP3    H213267   3.999   0.948   1.710  0.6262  0.3516 -0.5505
 4435TIP3   OH213268   5.773   5.676   1.308  0.8059  0.4708  0.3082
 4435TIP3    H113269   5.852   5.648   1.354 -0.1654  0.2942  1.9431
 4435TIP3    H213270   5.715   5.708   1.377 -0.8364 -0.0829 -0.7628
 4436TIP3   OH213271   3.174   5.555   4.892 -0.4234  0.2001 -0.3489
 4436TIP3    H113272   3.237   5.493   4.929  1.1953  2.1256  0.3061
 4436TIP3    H213273   3.191   5.554   4.798  0.6782  0.7325 -0.1749
 4437TIP3   OH213274   0.169   3.994   4.435 -0.0751  0.7195  0.1141
 4437TIP3    H113275   0.114   3.992   4.513 -0.6442  0.9841 -0.2743
 4437TIP3    H213276   0.240   3.932   4.454 -0.4760  0.4132  0.6357
 4438TIP3   OH213277   2.707   5.909   4.101  0.2004 -0.3380  0.9187
 4438TIP3    H113278   2.687   5.862   4.021 -2.1596 -1.0106  1.8102
 4438TIP3    H213279   2.700   6.002   4.078  2.8651 -0.3619 -0.3614
 4439TIP3   OH213280   7.052   3.432   1.481 -0.3125  0.1865  0.0046
 4439TIP3    H113281   7.017   3.417   1.394  1.4894 -1.6675 -0.4887
 4439TIP3    H213282   7.091   3.519   1.477 -1.7475  0.8369 -0.4603
 4440TIP3   OH213283   3.907   6.746   3.303  0.1735 -0.2451  0.6698
 4440TIP3    H113284   3.910   6.826   3.250  2.2609 -0.7960 -0.1188
 4440TIP3    H213285   3.932   6.775   3.391 -1.2313  0.3013  0.9261
 4441TIP3   OH213286   4.860   6.050   3.095  0.7044 -0.7167  0.1712
 4441TIP3    H113287   4.787   6.043   3.157  0.3472  1.8714  0.1268
 4441TIP3    H213288   4.938   6.038   3.149  0.4498  2.5011  1.4612
 4442TIP3   OH213289   2.337   0.680   2.804  0.4650 -0.2148 -0.1552
 4442TIP3    H113290   2.324   0.670   2.710 -0.3001  1.7584 -0.3101
 4442TIP3    H213291   2.302   0.767   2.824 -0.5775 -1.0859  2.1704
 4443TIP3   OH213292   4.401   5.409   3.317  0.6049 -0.0040  0.2619
 4443TIP3    H113293   4.362   5.325   3.340  1.8663 -0.3224  1.3937
 4443TIP3    H213294   4.327   5.468   3.302 -0.2946 -1.3167 -0.5962
 4444TIP3   OH213295   5.137   1.817   5.590 -0.3731 -0.2138 -0.3898
 4444TIP3    H113296   5.153   1.852   5.678  1.7464  0.9028 -1.1454
 4444TIP3    H213297   5.173   1.729   5.592 -1.4523 -0.6561  0.1868
 4445TIP3   OH213298   3.817   6.154   2.458 -0.1654  0.4142 -0.0709
 4445TIP3    H113299   3.909   6.138   2.479  0.6580  0.8317 -2.9000
 4445TIP3    H213300   3.781   6.068   2.438  0.1583  0.4456 -0.8168
 4446TIP3   OH213301   4.720   4.978   3.005 -0.0797 -0.5188  0.3226
 4446TIP3    H113302   4.805   4.999   3.045  0.2715 -3.2906  1.2374
 4446TIP3    H213303   4.660   4.971   3.079 -0.7219 -0.2306 -0.1627
 4447TIP3   OH213304   0.065   5.481   3.281  0.1383 -0.4859 -0.1082
 4447TIP3    H113305   0.128   5.416   3.313  1.0391  0.8612  0.9900
 4447TIP3    H213306   0.083   5.487   3.187  1.5804 -0.2601  0.1503
 4448TIP3   OH213307   2.125   5.505   0.962 -0.7988  0.4065 -0.4917
 4448TIP3    H113308   2.151   5.486   1.052 -1.8783 -2.2296 -0.6332
 4448TIP3    H213309   2.033   5.479   0.959 -0.7218  0.2718 -2.4115
 4449TIP3   OH213310   2.699   1.382   0.492  0.3572 -0.2248 -0.8738
 4449TIP3    H113311   2.764   1.328   0.538  0.5620 -0.2450 -1.1883
 4449TIP3    H213312   2.669   1.327   0.420 -0.3810 -0.4126 -0.4441
 4450TIP3   OH213313   5.941   1.485   2.964  0.7656 -0.0383 -0.4636
 4450TIP3    H113314   5.857   1.524   2.988  1.4717  1.0730  0.3205
 4450TIP3    H213315   6.001   1.511   3.035  1.9725 -0.0672 -1.4327
 4451TIP3   OH213316   0.223   3.669   1.540 -0.1421 -0.0733  0.1250
 4451TIP3    H113317   0.195   3.717   1.462  0.8211  2.3583  1.1801
 4451TIP3    H213318   0.143   3.626   1.571 -1.1354  1.0877 -0.7276
 4452TIP3   OH213319   3.009   1.318   2.587 -0.0749  0.0932 -0.2102
 4452TIP3    H113320   3.056   1.282   2.512  0.4805  0.7849 -0.2034
 4452TIP3    H213321   3.061   1.394   2.614 -1.8496  1.7132 -1.0464
 4453TIP3   OH213322   4.349   0.931   5.673  0.3164  0.2571  0.1004
 4453TIP3    H113323   4.292   0.867   5.715 -1.0873  0.7803 -0.9228
 4453TIP3    H213324   4.406   0.880   5.616 -0.3677 -0.1578 -0.2309
 4454TIP3   OH213325   2.236   4.353   3.943 -0.4317  0.1388  0.5927
 4454TIP3    H113326   2.280   4.346   4.028 -0.9248  0.4983  0.8861
 4454TIP3    H213327   2.151   4.312   3.957 -0.9225  1.1170  0.5766
 4455TIP3   OH213328   5.771   2.054   2.544  0.2941 -0.2775 -0.0889
 4455TIP3    H113329   5.808   2.034   2.630 -2.0531 -2.6851  0.4838
 4455TIP3    H213330   5.704   2.120   2.561  0.7548  0.2687 -0.3343
 4456TIP3   OH213331   4.695   1.314   4.111 -0.3776  0.2627 -0.0520
 4456TIP3    H113332   4.679   1.253   4.183  1.0753  0.0419  0.1186
 4456TIP3    H213333   4.784   1.347   4.127  0.4405 -0.6348 -2.3194
 4457TIP3   OH213334   4.031   3.978   0.580 -0.1447 -0.8056 -0.3003
 4457TIP3    H113335   4.118   3.963   0.617  1.0710 -2.0722 -3.3720
 4457TIP3    H213336   4.047   4.023   0.497 -2.6554  1.1353  0.1238
 4458TIP3   OH213337   1.888   5.962   5.361 -0.0161  0.4982  0.4667
 4458TIP3    H113338   1.982   5.942   5.361  0.2231  1.5359  1.5427
 4458TIP3    H213339   1.880   6.038   5.304 -0.3310 -0.0957 -0.2909
 4459TIP3   OH213340   0.238   5.911   3.997 -0.1864  0.4573 -0.2493
 4459TIP3    H113341   0.220   6.005   3.989 -1.6715  0.3490  1.2152
 4459TIP3    H213342   0.151   5.871   4.005  0.4659 -0.9495  0.0589
 4460TIP3   OH213343   5.029   5.390   5.465 -0.0433  1.2545  0.0819
 4460TIP3    H113344   5.106   5.347   5.501 -0.6520 -1.1872 -1.2944
 4460TIP3    H213345   4.955   5.340   5.500 -0.7768  0.8641 -1.9122
 4461TIP3   OH213346   6.498   1.032   2.381  0.8113 -0.5664 -0.4882
 4461TIP3    H113347   6.417   1.019   2.331 -0.4695  1.7894  0.7774
 4461TIP3    H213348   6.481   0.989   2.465  0.8807 -0.1467 -0.2546
 4462TIP3   OH213349   0.611   3.902   3.105  0.2444 -0.0498  0.3119
 4462TIP3    H113350   0.625   3.990   3.069  2.2562 -0.7497 -0.8039
 4462TIP3    H213351   0.603   3.916   3.200 -0.1459  1.3885  0.0865
 4463TIP3   OH213352   3.795   2.416   1.667 -0.0453 -0.0559 -0.1018
 4463TIP3    H113353   3.722   2.406   1.728 -1.6823  1.5865 -1.6467
 4463TIP3    H213354   3.763   2.478   1.602  2.2225 -0.4345 -1.6990
 4464TIP3   OH213355   5.795   1.286   1.106 -0.2888  0.0403 -0.1358
 4464TIP3    H113356   5.822   1.378   1.102 -0.3307  0.1135  0.9854
 4464TIP3    H213357   5.857   1.241   1.048 -0.6830  0.8505 -1.2346
 4465TIP3   OH213358   3.710   1.228   5.335 -0.1396 -0.3095  0.4256
 4465TIP3    H113359   3.771   1.263   5.269 -1.1107 -0.4857 -0.5931
 4465TIP3    H213360   3.754   1.150   5.369  1.5997  1.2544  1.9892
 4466TIP3   OH213361   0.448   6.159   5.833  0.2397 -0.2099 -0.2513
 4466TIP3    H113362   0.387   6.217   5.879 -2.0597 -3.2037  0.7744
 4466TIP3    H213363   0.441   6.185   5.741  0.7579  2.2894  0.3371
 4467TIP3   OH213364   4.358   6.099   1.641 -0.4056  0.0475  0.5707
 4467TIP3    H113365   4.263   6.088   1.632 -0.4520 -0.3269  1.3953
 4467TIP3    H213366   4.370   6.125   1.733  0.0915  2.5249 -0.1199
 4468TIP3   OH213367   0.608   0.046   1.766  0.4112  0.3948  0.1686
 4468TIP3    H113368   0.528   0.097   1.782 -0.0069 -0.2246  0.0878
 4468TIP3    H213369   0.652   0.093   1.695  0.9441  1.6534  1.2877
 4469TIP3   OH213370   2.983   0.939   2.460  0.4365 -0.0932  0.1422
 4469TIP3    H113371   3.024   1.025   2.460 -0.0363  0.2287  3.5310
 4469TIP3    H213372   3.049   0.881   2.500 -0.9874 -0.2740  2.3540
 4470TIP3   OH213373   5.028   4.810   2.601 -0.0638  0.3258  0.3534
 4470TIP3    H113374   4.971   4.881   2.630 -1.1939 -0.0841 -0.7666
 4470TIP3    H213375   5.115   4.850   2.596 -0.2385  0.9782  2.0412
 4471TIP3   OH213376   6.112   0.610   0.905  0.4350  0.3391  0.5307
 4471TIP3    H113377   6.039   0.563   0.945  1.4212 -0.1344  1.8551
 4471TIP3    H213378   6.111   0.582   0.814 -0.2603 -0.6539  0.8155
 4472TIP3   OH213379   1.526   0.840   3.671 -0.3433 -0.0459 -0.1728
 4472TIP3    H113380   1.507   0.893   3.593 -1.2574  0.1551  0.1883
 4472TIP3    H213381   1.620   0.852   3.685 -0.5492  1.5431 -0.0497
 4473TIP3   OH213382   1.354   5.335   0.896  0.5407 -0.0732  0.1471
 4473TIP3    H113383   1.263   5.357   0.916  0.6142 -0.2613  0.7283
 4473TIP3    H213384   1.367   5.250   0.939  0.6925 -0.5428 -0.7933
 4474TIP3   OH213385   2.204   0.868   1.980 -0.0630 -0.4069  0.0741
 4474TIP3    H113386   2.226   0.958   2.005 -0.2579 -0.6304  1.1005
 4474TIP3    H213387   2.223   0.864   1.886  2.0671  0.0705  0.4306
 4475TIP3   OH213388   2.673   2.073   2.360  0.0420 -0.2178 -0.4212
 4475TIP3    H113389   2.694   2.061   2.453  0.3013 -1.5951 -0.6451
 4475TIP3    H213390   2.695   2.165   2.343 -0.7068  0.2698  1.0481
 4476TIP3   OH213391   1.740   4.455   1.314  0.1274  0.1585 -0.2608
 4476TIP3    H113392   1.696   4.446   1.229  0.8265  3.3777 -1.0891
 4476TIP3    H213393   1.673   4.493   1.371  0.5601  1.0068 -0.3062
 4477TIP3   OH213394   4.596   0.655   4.050  0.1823  0.1989  0.2526
 4477TIP3    H113395   4.668   0.660   4.113  0.3900  0.9337 -0.0306
 4477TIP3    H213396   4.586   0.562   4.032 -0.6185 -0.1244  2.1966
 4478TIP3   OH213397   6.237   0.393   2.379  0.4583 -1.0598  0.2474
 4478TIP3    H113398   6.248   0.488   2.373  1.7489 -0.9515  2.8923
 4478TIP3    H213399   6.243   0.362   2.289 -0.4376  1.4002 -0.7112
 4479TIP3   OH213400   4.362   6.606   3.858  0.1706 -0.0802 -0.0579
 4479TIP3    H113401   4.435   6.569   3.809  0.2131  0.8989 -0.7629
 4479TIP3    H213402   4.319   6.530   3.898  0.3311 -0.8714 -1.3460
 4480TIP3   OH213403   3.363   3.010   3.829  0.3850  0.0545 -0.1516
 4480TIP3    H113404   3.398   3.050   3.749  1.6057  1.6200  1.0918
 4480TIP3    H213405   3.271   2.994   3.810  0.7616 -0.0562 -2.0267
 4481TIP3   OH213406   0.038   5.085   4.974  0.1013 -0.2649 -0.0091
 4481TIP3    H113407   0.010   5.006   4.927  1.5302 -0.4423 -0.6085
 4481TIP3    H213408   0.097   5.053   5.042  1.2881  0.3255 -0.7329
 4482TIP3   OH213409   3.434   3.218   5.310  0.2401 -0.1837  0.7684
 4482TIP3    H113410   3.349   3.211   5.353 -0.6200  0.6787 -0.7180
 4482TIP3    H213411   3.478   3.290   5.354 -1.4494  2.0888 -0.9733
 4483TIP3   OH213412   5.885   4.411   0.147  0.0006 -0.3808 -0.1435
 4483TIP3    H113413   5.832   4.333   0.159 -0.4587 -0.0713 -0.1262
 4483TIP3    H213414   5.972   4.387   0.180 -0.0486 -0.9795 -0.4292
 4484TIP3   OH213415   0.228   4.366   5.600  0.1931  0.1065 -0.2160
 4484TIP3    H113416   0.220   4.286   5.652  3.5827  0.4034  1.0241
 4484TIP3    H213417   0.254   4.433   5.663 -0.0384  1.5914 -1.6320
 4485TIP3   OH213418   3.523   0.497   2.231 -0.3571  0.5172  0.0941
 4485TIP3    H113419   3.585   0.453   2.288 -2.0465 -1.7721  0.2961
 4485TIP3    H213420   3.497   0.430   2.167 -1.1333  1.9839 -1.2054
 4486TIP3   OH213421   6.102   2.062   1.505  0.0126 -0.1712 -0.2492
 4486TIP3    H113422   6.111   2.097   1.417  0.5686  0.7680  0.1691
 4486TIP3    H213423   6.065   2.134   1.556  0.6067 -0.3738  0.4928
 4487TIP3   OH213424   2.893   1.240   0.693 -0.1122  0.1451 -0.5893
 4487TIP3    H113425   2.941   1.161   0.718 -0.0128 -0.2774 -2.0458
 4487TIP3    H213426   2.931   1.309   0.747 -1.7016 -1.1190  2.3425
 4488TIP3   OH213427   0.732   2.668   2.826  0.4127  0.1291 -0.4230
 4488TIP3    H113428   0.799   2.652   2.759  0.5911  1.0784 -0.4902
 4488TIP3    H213429   0.757   2.752   2.864  0.3320 -0.4071  0.8667
 4489TIP3   OH213430   4.459   3.673   3.195 -0.2092 -0.2206  0.0183
 4489TIP3    H113431   4.396   3.743   3.178  0.2165  0.1185 -0.1666
 4489TIP3    H213432   4.529   3.715   3.245  0.5657 -0.2688 -1.0030
 4490TIP3   OH213433   5.800   3.367   4.589 -0.5252 -0.2173 -0.0419
 4490TIP3    H113434   5.724   3.312   4.572 -0.3705 -0.2294 -0.7080
 4490TIP3    H213435   5.870   3.330   4.535 -0.3950  0.5619 -0.4276
 4491TIP3   OH213436   6.204   6.346   0.358  0.2445  0.0658 -0.3729
 4491TIP3    H113437   6.122   6.392   0.378  1.3091  0.7708  3.0119
 4491TIP3    H213438   6.183   6.254   0.370 -0.1406  0.2144  0.1247
 4492TIP3   OH213439   3.667   2.174   4.052  0.2026 -0.4742  0.0440
 4492TIP3    H113440   3.589   2.145   4.004 -0.6800  0.4296  0.8678
 4492TIP3    H213441   3.652   2.146   4.142  1.1302 -0.8284  0.0979
 4493TIP3   OH213442   2.779   1.972   5.786  0.0455  0.7447 -0.1217
 4493TIP3    H113443   2.819   1.886   5.776 -0.0359  0.9624 -3.4880
 4493TIP3    H213444   2.685   1.955   5.788  0.0674  0.6758  1.1715
 4494TIP3   OH213445   4.040   0.170   3.317 -0.1395 -0.5307  0.6472
 4494TIP3    H113446   4.078   0.249   3.354  0.9746 -0.6300 -0.2258
 4494TIP3    H213447   4.099   0.099   3.343 -0.5150 -0.9069  0.4941
 4495TIP3   OH213448   4.223   0.240   0.997 -0.1227  0.0813 -0.3188
 4495TIP3    H113449   4.257   0.330   0.993  0.7862 -0.2356  0.0093
 4495TIP3    H213450   4.175   0.229   0.915 -1.4051  1.3016  0.2337
 4496TIP3   OH213451  -0.004   3.058   5.195 -0.2245 -0.4968 -0.4181
 4496TIP3    H113452  -0.017   3.134   5.252 -1.4009  0.5533 -2.0078
 4496TIP3    H213453   0.035   3.094   5.115 -0.6363 -1.5763 -1.1346
 4497TIP3   OH213454   3.998   6.021   0.324 -0.4306  0.0052 -0.6742
 4497TIP3    H113455   3.936   5.955   0.354 -0.2810  0.2926  0.3014
 4497TIP3    H213456   4.069   5.970   0.284  0.9202 -0.6765  2.2649
 4498TIP3   OH213457   2.181   5.398   1.825  0.0541  0.0113  0.1189
 4498TIP3    H113458   2.195   5.360   1.738  0.2929 -1.1187  0.6228
 4498TIP3    H213459   2.157   5.489   1.809  2.1899  0.4263 -1.0432
 4499TIP3   OH213460   0.724   0.866   0.984  0.7594 -0.3443  0.8412
 4499TIP3    H113461   0.775   0.881   0.904 -1.2633  0.9030 -0.2908
 4499TIP3    H213462   0.779   0.901   1.054  0.8493  2.5938 -0.5275
 4500TIP3   OH213463   0.685   5.866   2.669  0.3725  0.8268 -0.8384
 4500TIP3    H113464   0.666   5.836   2.758 -0.2470  0.9028 -0.9338
 4500TIP3    H213465   0.689   5.962   2.677  0.5759  0.8190 -0.8468
 4501TIP3   OH213466   2.944   1.844   4.471  0.2846  0.2692  0.2968
 4501TIP3    H113467   3.025   1.796   4.458 -0.1532  0.0277 -1.7577
 4501TIP3    H213468   2.923   1.881   4.386 -1.9602  0.0172  0.6671
 4502TIP3   OH213469   4.032   4.999   2.773  0.0400 -0.0022  0.3129
 4502TIP3    H113470   3.938   5.017   2.778  0.0308  0.4841 -1.2877
 4502TIP3    H213471   4.048   4.978   2.681  1.3680 -0.8732  0.7172
 4503TIP3   OH213472   6.520   5.998   3.604  0.6325  0.4269 -0.2372
 4503TIP3    H113473   6.429   5.967   3.602  1.3655 -1.9304  0.1766
 4503TIP3    H213474   6.521   6.065   3.671 -0.2347 -1.6773  2.0380
 4504TIP3   OH213475   1.894   4.773   1.925  0.1746 -0.2190 -0.5311
 4504TIP3    H113476   1.987   4.781   1.944  0.1494 -1.6435  0.3556
 4504TIP3    H213477   1.881   4.823   1.845  1.7307 -0.1281 -0.7473
 4505TIP3   OH213478   5.660   5.483   3.010 -0.1478  0.0540  0.3028
 4505TIP3    H113479   5.740   5.439   2.981 -0.8841 -0.7033 -0.6462
 4505TIP3    H213480   5.643   5.445   3.096  1.1659  1.1254  1.0691
 4506TIP3   OH213481   6.257   6.266   1.635  0.0389  0.1934  0.3248
 4506TIP3    H113482   6.273   6.318   1.713 -0.2110 -1.8849  1.8500
 4506TIP3    H213483   6.217   6.185   1.668  0.5193 -1.0327 -1.8922
 4507TIP3   OH213484   6.430   4.642   3.117 -0.0880  0.0063 -0.0366
 4507TIP3    H113485   6.391   4.653   3.204  1.3517  1.3528  0.4910
 4507TIP3    H213486   6.516   4.603   3.134  0.2238  0.3197 -0.8393
 4508TIP3   OH213487   0.187   5.937   3.651 -0.1985  0.6296 -0.3676
 4508TIP3    H113488   0.116   5.884   3.616  2.0105 -0.8019 -3.0709
 4508TIP3    H213489   0.163   6.027   3.629 -1.5343  0.2946 -0.3952
 4509TIP3   OH213490   4.099   1.741   1.956  0.3825 -0.3464 -0.2530
 4509TIP3    H113491   4.019   1.698   1.924  1.3935 -3.1299  0.6310
 4509TIP3    H213492   4.070   1.793   2.030 -1.0823  1.5496 -2.0355
 4510TIP3   OH213493   1.423   3.157   0.065  0.6998 -0.3581 -0.4108
 4510TIP3    H113494   1.371   3.219   0.115 -0.1831 -0.0729 -1.6209
 4510TIP3    H213495   1.492   3.128   0.125 -0.4819 -0.2666  1.0319
 4511TIP3   OH213496   2.642   1.077   0.706 -0.2326 -0.2585  0.5808
 4511TIP3    H113497   2.566   1.021   0.714 -1.0765  0.4522 -1.6440
 4511TIP3    H213498   2.716   1.016   0.701 -0.8825 -1.0694  0.5828
 4512TIP3   OH213499   3.376   4.305   3.324 -0.3889 -0.0490  0.2498
 4512TIP3    H113500   3.463   4.288   3.361  0.3488  2.4594 -0.1437
 4512TIP3    H213501   3.343   4.218   3.300  1.1511 -1.2697  2.2244
 4513TIP3   OH213502   3.354   5.739   2.011 -0.2511  0.0982 -0.1348
 4513TIP3    H113503   3.322   5.828   1.994  0.0210 -0.1466 -2.1843
 4513TIP3    H213504   3.276   5.691   2.039 -0.4426  0.8909  0.7789
 4514TIP3   OH213505   5.895   3.410   5.518  0.2085  0.3362  0.6648
 4514TIP3    H113506   5.909   3.370   5.432 -2.8370  0.8457 -0.1929
 4514TIP3    H213507   5.938   3.495   5.512  3.0977 -0.9725  1.0170
 4515TIP3   OH213508   3.053   1.700   5.310 -0.1247  0.0742 -0.6155
 4515TIP3    H113509   2.964   1.682   5.279 -0.2902  0.2637 -0.2559
 4515TIP3    H213510   3.079   1.779   5.263 -0.1885  0.0829 -0.6373
 4516TIP3   OH213511   2.351   5.385   3.888 -0.1972 -0.3660  0.7326
 4516TIP3    H113512   2.436   5.348   3.913  0.2866  0.7765  0.8479
 4516TIP3    H213513   2.360   5.479   3.903 -1.1901 -0.1111 -0.0979
 4517TIP3   OH213514   3.294   6.259   3.103  0.0399 -0.1941 -0.0770
 4517TIP3    H113515   3.200   6.238   3.101 -0.0570  0.1267  0.7881
 4517TIP3    H213516   3.297   6.350   3.133  0.6440 -0.2643  0.0792
 4518TIP3   OH213517   5.137   4.117   0.099  0.5698  0.1550 -0.0585
 4518TIP3    H113518   5.152   4.157   0.184 -0.3127 -1.7380  1.0399
 4518TIP3    H213519   5.042   4.122   0.086  0.7798  1.4105 -1.4916
 4519TIP3   OH213520   1.612   0.178   3.914  0.0546  0.2561  0.3385
 4519TIP3    H113521   1.531   0.195   3.961 -0.7624 -1.6100 -0.3155
 4519TIP3    H213522   1.649   0.265   3.899 -1.8366  1.1639  0.6012
 4520TIP3   OH213523   0.133   2.661   2.006 -0.2721  0.3412 -0.0098
 4520TIP3    H113524   0.052   2.628   1.969 -0.8295  1.4099  0.2120
 4520TIP3    H213525   0.113   2.752   2.031 -0.1279 -0.4626  3.5141
 4521TIP3   OH213526   1.594   1.519   3.470 -0.0611 -0.3772  0.5091
 4521TIP3    H113527   1.602   1.561   3.556 -2.0493 -0.2665  0.6947
 4521TIP3    H213528   1.614   1.589   3.407  0.3604 -0.1704  0.8700
 4522TIP3   OH213529   6.966   5.708   1.730 -0.4857 -0.4824 -0.0988
 4522TIP3    H113530   6.985   5.795   1.697 -0.3695  0.5071  2.3701
 4522TIP3    H213531   7.051   5.672   1.753 -0.6688 -0.5294  0.5246
 4523TIP3   OH213532   6.096   6.559   3.871  0.4402 -0.5200  0.5337
 4523TIP3    H113533   6.042   6.546   3.793  0.7015 -0.1363  0.2836
 4523TIP3    H213534   6.148   6.637   3.851  0.8085 -0.6630  0.9274
 4524TIP3   OH213535   6.263   4.786   4.149  0.0657 -0.4651  0.1753
 4524TIP3    H113536   6.310   4.703   4.155 -1.3297 -1.2454  0.9391
 4524TIP3    H213537   6.186   4.773   4.204 -1.0766  0.7170 -1.0607
 4525TIP3   OH213538   2.806   0.494   4.870 -0.1676 -0.1406  0.6715
 4525TIP3    H113539   2.725   0.485   4.920 -0.9005  0.2696 -0.3886
 4525TIP3    H213540   2.852   0.411   4.883 -1.9680 -1.4443 -0.7369
 4526TIP3   OH213541   6.047   0.642   4.351  0.6675  0.7082 -0.2773
 4526TIP3    H113542   6.052   0.679   4.263 -0.0287  0.6317 -0.3492
 4526TIP3    H213543   6.122   0.582   4.356  1.0907  1.2021 -0.5854
 4527TIP3   OH213544   0.061   1.471   4.609  0.1942 -0.2459  0.3276
 4527TIP3    H113545   0.076   1.536   4.541 -0.3626 -0.1198  0.3192
 4527TIP3    H213546   0.064   1.520   4.691 -0.0350 -0.2430  0.3339
 4528TIP3   OH213547   7.063   3.119   1.304  0.3057  0.0006  0.6704
 4528TIP3    H113548   6.990   3.170   1.337 -0.1822 -0.5952  0.5221
 4528TIP3    H213549   7.025   3.061   1.238  0.9305 -0.2204  0.4963
 4529TIP3   OH213550   3.031   1.643   1.083 -0.0191  0.0007 -0.4300
 4529TIP3    H113551   3.066   1.727   1.054 -1.5049  0.6544 -0.3669
 4529TIP3    H213552   3.062   1.581   1.017  1.0860  0.5711 -0.4811
 4530TIP3   OH213553   4.908   1.259   3.809 -0.4855 -0.0842 -0.6553
 4530TIP3    H113554   4.842   1.198   3.776  0.6034 -0.5086 -2.1790
 4530TIP3    H213555   4.925   1.230   3.898 -2.3084  0.0243 -0.2388
 4531TIP3   OH213556   3.663   4.372   2.505 -0.0509  0.0722 -0.1163
 4531TIP3    H113557   3.629   4.297   2.553 -0.1657  0.3316  0.2047
 4531TIP3    H213558   3.615   4.447   2.539  0.2290  0.3248 -0.2719
 4532TIP3   OH213559   6.025   1.656   2.268 -1.0819  0.7365 -0.3430
 4532TIP3    H113560   5.982   1.710   2.334 -1.9380  1.6430 -1.6092
 4532TIP3    H213561   6.067   1.718   2.209  2.0257 -0.1088  0.8017
 4533TIP3   OH213562   2.016   1.554   1.519 -0.1926  0.1078 -0.2248
 4533TIP3    H113563   1.954   1.614   1.477 -1.7146  0.4834  2.3098
 4533TIP3    H213564   1.973   1.469   1.516  0.6190 -0.2825 -1.1937
 4534TIP3   OH213565   5.042   6.323   4.662 -0.1941 -0.2719  0.5288
 4534TIP3    H113566   5.136   6.307   4.672  0.0489  1.5955  1.6978
 4534TIP3    H213567   5.024   6.308   4.569  1.5189  0.5352  0.0416
 4535TIP3   OH213568   0.827   3.360   0.688 -0.0572  0.2391  0.2222
 4535TIP3    H113569   0.875   3.277   0.680 -2.0599 -0.9035 -0.6714
 4535TIP3    H213570   0.781   3.353   0.772 -1.4831 -0.3058 -0.5690
 4536TIP3   OH213571   4.429   4.271   5.561 -0.0302 -0.3311  0.3386
 4536TIP3    H113572   4.445   4.341   5.498  1.1914  0.2049  1.2025
 4536TIP3    H213573   4.347   4.295   5.604 -0.3316 -0.1624 -0.3289
 4537TIP3   OH213574   4.375   5.043   1.102 -0.0491  0.0915 -0.4318
 4537TIP3    H113575   4.464   5.078   1.110  0.2852 -0.6523 -0.7790
 4537TIP3    H213576   4.369   4.975   1.169 -0.3221  0.0695 -0.4766
 4538TIP3   OH213577   2.264   3.392   4.962  0.0212  0.1183  0.7611
 4538TIP3    H113578   2.177   3.353   4.950 -0.1119 -0.0210  2.0302
 4538TIP3    H213579   2.305   3.387   4.876  0.0936 -3.0435  0.8629
 4539TIP3   OH213580   1.428   0.709   4.286  0.3529  0.2318  0.3637
 4539TIP3    H113581   1.439   0.691   4.380 -0.0349 -1.2329  0.1421
 4539TIP3    H213582   1.481   0.643   4.242  0.8402  1.1499 -0.4652
 4540TIP3   OH213583   3.599   3.228   5.900  0.4835  0.9236 -0.1925
 4540TIP3    H113584   3.671   3.177   5.936 -0.7960 -0.8289  0.0320
 4540TIP3    H213585   3.613   3.226   5.805  0.5897  0.3289 -0.1698
 4541TIP3   OH213586   3.053   2.298   5.757  0.3370 -0.3844  0.0975
 4541TIP3    H113587   2.979   2.302   5.817  1.1497 -0.8189  1.1582
 4541TIP3    H213588   3.112   2.234   5.796  0.6272 -1.1368 -1.4816
 4542TIP3   OH213589   1.723   4.162   3.432  0.4218 -0.0988  0.3801
 4542TIP3    H113590   1.799   4.215   3.405 -0.2169  1.4437  1.4522
 4542TIP3    H213591   1.648   4.209   3.396 -0.3467  1.2109  3.3753
 4543TIP3   OH213592   6.988   0.655   4.247 -0.2627 -0.5024 -0.5909
 4543TIP3    H113593   7.083   0.655   4.259 -0.4495 -0.4658  1.1105
 4543TIP3    H213594   6.974   0.707   4.168  1.1322 -0.6683 -0.9805
 4544TIP3   OH213595   7.173   0.485   3.437  0.1407  0.1154  0.4560
 4544TIP3    H113596   7.149   0.477   3.345 -0.4215  0.7842  0.5306
 4544TIP3    H213597   7.268   0.497   3.436  0.0934  0.5015 -0.0672
 4545TIP3   OH213598   4.971   2.928   2.418 -0.6577  0.0216 -0.1702
 4545TIP3    H113599   4.973   3.021   2.441 -0.6040  0.3845 -1.5657
 4545TIP3    H213600   4.882   2.912   2.387  0.0284  0.2750 -2.4239
 4546TIP3   OH213601   3.499   2.362   2.617  0.1632 -0.0471  0.5047
 4546TIP3    H113602   3.407   2.337   2.616 -0.7624  2.9227 -1.1211
 4546TIP3    H213603   3.520   2.376   2.709 -0.7889 -1.3682  0.9430
 4547TIP3   OH213604   3.325   5.459   0.510 -0.8910 -0.3616 -0.1532
 4547TIP3    H113605   3.334   5.385   0.450 -0.0203  0.8777 -1.6417
 4547TIP3    H213606   3.370   5.432   0.590  0.6277 -0.9537 -1.1669
 4548TIP3   OH213607   0.427   4.158   0.719 -0.1760  0.3142  0.5896
 4548TIP3    H113608   0.502   4.205   0.682 -0.7533  0.9049  0.1554
 4548TIP3    H213609   0.455   4.066   0.721 -0.3059  0.1552 -1.8315
 4549TIP3   OH213610   4.989   3.440   3.679 -0.0421 -0.2109 -0.8357
 4549TIP3    H113611   5.004   3.535   3.685  1.2009 -0.4500  0.2125
 4549TIP3    H213612   4.911   3.425   3.732 -0.5240  0.2857 -1.3970
 4550TIP3   OH213613   2.755   0.388   4.623  0.2461  0.3131 -0.1249
 4550TIP3    H113614   2.784   0.425   4.706 -1.3483  0.3396  0.4496
 4550TIP3    H213615   2.829   0.337   4.592  1.5948  1.9028  0.3228
 4551TIP3   OH213616   6.374   3.810   2.535 -0.5981  0.4466  0.1800
 4551TIP3    H113617   6.454   3.826   2.485  0.3252 -1.7609  0.8144
 4551TIP3    H213618   6.375   3.875   2.605  0.6118  0.5068  0.1216
 4552TIP3   OH213619   2.395   6.291   2.643 -0.6869  0.1436 -0.1032
 4552TIP3    H113620   2.436   6.334   2.567  0.0534 -0.0663  0.1689
 4552TIP3    H213621   2.465   6.286   2.708 -1.6621  1.4575  1.0767
 4553TIP3   OH213622   5.740   5.904   2.851 -0.2142 -0.6863 -0.4988
 4553TIP3    H113623   5.815   5.863   2.895 -0.4555 -0.5478  0.0520
 4553TIP3    H213624   5.675   5.833   2.843  0.3435 -1.0717 -1.8868
 4554TIP3   OH213625   5.073   3.721   3.449 -0.3674 -0.3549 -0.0995
 4554TIP3    H113626   5.148   3.707   3.507 -1.0158 -1.0499  0.5900
 4554TIP3    H213627   5.102   3.791   3.390  0.6919 -0.3672  0.3725
 4555TIP3   OH213628   2.136   6.554   0.279 -0.3665 -0.4464  0.1400
 4555TIP3    H113629   2.096   6.471   0.253  2.2404 -1.3522 -1.4223
 4555TIP3    H213630   2.131   6.609   0.201 -2.1756  1.0197  1.1935
 4556TIP3   OH213631   1.733   0.517   0.275  0.1206 -0.1843  0.1540
 4556TIP3    H113632   1.794   0.447   0.298  0.6899  0.3494  0.2848
 4556TIP3    H213633   1.759   0.545   0.187  0.6754  0.6713  0.5701
 4557TIP3   OH213634   6.894   1.197   5.465 -0.0265  0.2910 -0.0368
 4557TIP3    H113635   6.864   1.139   5.535 -1.5897  0.0588 -0.8407
 4557TIP3    H213636   6.950   1.261   5.508 -2.3360  1.2542  1.7904
 4558TIP3   OH213637   6.396   3.666   4.602 -0.0232 -0.7330 -0.6826
 4558TIP3    H113638   6.410   3.756   4.631 -2.2745 -0.7031  0.5794
 4558TIP3    H213639   6.443   3.612   4.665 -0.7592 -0.4906  0.0945
 4559TIP3   OH213640   0.748   0.149   0.874 -0.0029 -0.5618  0.4054
 4559TIP3    H113641   0.759   0.082   0.807  1.1202 -1.9751  1.8993
 4559TIP3    H213642   0.667   0.194   0.850 -0.6789 -2.2983 -0.8088
 4560TIP3   OH213643   5.893   0.562   5.212  0.0071 -0.3433 -0.8401
 4560TIP3    H113644   5.890   0.470   5.238 -1.0030 -0.0356  0.2109
 4560TIP3    H213645   5.805   0.581   5.180  0.6803 -0.1784 -2.7116
 4561TIP3   OH213646   1.190   2.508   5.015 -0.1520 -0.4733  0.4738
 4561TIP3    H113647   1.262   2.458   5.055 -1.7404 -1.0047  2.8413
 4561TIP3    H213648   1.179   2.468   4.929  3.2632  0.5565 -0.6134
 4562TIP3   OH213649   0.368   1.734   1.843  0.1272 -0.4104 -0.4295
 4562TIP3    H113650   0.459   1.708   1.858  1.3008  1.5939 -3.1543
 4562TIP3    H213651   0.358   1.730   1.748 -2.2883  0.5436 -0.2717
 4563TIP3   OH213652   6.471   3.475   2.400  0.1780 -0.6972  0.4658
 4563TIP3    H113653   6.502   3.394   2.440  0.1337 -0.2452  1.4617
 4563TIP3    H213654   6.376   3.472   2.410  0.2602  0.0720  1.7488
 4564TIP3   OH213655   3.202   3.589   0.864 -0.0383 -0.3169 -0.8101
 4564TIP3    H113656   3.205   3.611   0.957  0.6749  0.6905 -1.0626
 4564TIP3    H213657   3.109   3.576   0.846 -0.2304 -0.0474 -0.0738
 4565TIP3   OH213658   5.294   1.278   3.358  0.0631  0.2870 -0.4538
 4565TIP3    H113659   5.296   1.183   3.372 -2.3455  0.3298  0.6391
 4565TIP3    H213660   5.201   1.299   3.349  0.5440  2.5554 -0.7540
 4566TIP3   OH213661   2.160   3.259   0.206 -0.4331  0.5499  0.4589
 4566TIP3    H113662   2.112   3.341   0.211  0.3688  1.0578  0.0487
 4566TIP3    H213663   2.092   3.192   0.201 -1.0977  1.2333  0.0758
 4567TIP3   OH213664   0.867   2.136   2.791 -0.0292 -0.1628  0.2535
 4567TIP3    H113665   0.772   2.135   2.781  0.0531 -0.2366 -0.5695
 4567TIP3    H213666   0.881   2.177   2.877 -0.7483  1.6146 -0.4246
 4568TIP3   OH213667   2.538   2.057   4.003  0.1610 -0.1377  0.1285
 4568TIP3    H113668   2.597   2.132   3.998 -1.2302  0.8903 -3.0988
 4568TIP3    H213669   2.481   2.077   4.077  1.5082  0.5948  1.0284
 4569TIP3   OH213670   1.561   4.883   2.582 -0.2993  0.2886 -0.2496
 4569TIP3    H113671   1.507   4.805   2.570 -0.7801  0.7394 -1.1404
 4569TIP3    H213672   1.601   4.898   2.497  0.7486  0.3232  0.2354
 4570TIP3   OH213673   1.381   0.972   3.085  0.0275 -0.4752 -0.3079
 4570TIP3    H113674   1.285   0.972   3.084  0.0079  1.4897 -0.8155
 4570TIP3    H213675   1.403   0.968   3.178 -0.5025 -1.5535 -0.2021
 4571TIP3   OH213676   4.620   4.819   3.414 -0.4361 -0.0504 -0.3247
 4571TIP3    H113677   4.683   4.837   3.483 -0.2782 -0.4950 -0.3505
 4571TIP3    H213678   4.645   4.734   3.379 -1.2135 -0.3646 -0.1496
 4572TIP3   OH213679   5.768   0.003   2.582  0.1655  0.2646  0.3855
 4572TIP3    H113680   5.762   0.034   2.491 -0.9418 -0.2684  0.2500
 4572TIP3    H213681   5.677  -0.002   2.611  0.5188  0.5631  1.5822
 4573TIP3   OH213682   0.366   5.683   2.948  0.0123  0.2134  0.0918
 4573TIP3    H113683   0.424   5.611   2.920  0.0219  0.7206 -1.2640
 4573TIP3    H213684   0.410   5.720   3.024  0.6226 -0.4532  0.0815
 4574TIP3   OH213685   1.872   0.413   4.885  0.0441  0.3845 -0.4157
 4574TIP3    H113686   1.795   0.465   4.909 -0.7029 -0.6785 -0.4072
 4574TIP3    H213687   1.867   0.336   4.942 -0.2498 -0.8809 -2.0843
 4575TIP3   OH213688   0.256   5.273   4.070  0.0493 -0.1422  0.4597
 4575TIP3    H113689   0.250   5.240   3.980  1.3307  2.2752 -0.5990
 4575TIP3    H213690   0.168   5.261   4.105 -0.8769  0.0505 -1.5995
 4576TIP3   OH213691   4.072   4.765   3.511  0.7291  0.1825 -0.1921
 4576TIP3    H113692   4.042   4.807   3.592  0.6085 -0.9274  0.3459
 4576TIP3    H213693   3.992   4.750   3.461  0.9220  2.1671 -1.1860
 4577TIP3   OH213694   3.382   5.400   3.102 -0.1643  0.0282 -0.2477
 4577TIP3    H113695   3.438   5.346   3.046 -1.2408 -0.8479 -0.5267
 4577TIP3    H213696   3.368   5.480   3.051  0.3610  0.0091 -0.4244
 4578TIP3   OH213697   2.463   1.754   2.310  0.1191  0.2423  0.1845
 4578TIP3    H113698   2.556   1.733   2.321 -0.0963 -1.6521 -1.0669
 4578TIP3    H213699   2.423   1.733   2.394  0.6808  0.1390  0.4298
 4579TIP3   OH213700   6.814   1.445   2.716  0.2250 -0.4197  0.5337
 4579TIP3    H113701   6.813   1.411   2.805  0.0233 -0.2999  0.5781
 4579TIP3    H213702   6.825   1.540   2.727 -1.7739 -0.1503  0.5124
 4580TIP3   OH213703   0.168   6.178   3.975  0.2301 -0.3989  0.3593
 4580TIP3    H113704   0.167   6.259   4.027  1.2545  0.7226 -1.2775
 4580TIP3    H213705   0.084   6.177   3.931  0.0960 -0.4034  0.6093
 4581TIP3   OH213706   0.347   3.004   0.174 -0.2893  0.1279 -0.0841
 4581TIP3    H113707   0.260   2.989   0.136 -0.8469  0.8020  0.8798
 4581TIP3    H213708   0.408   2.985   0.103 -1.2566  0.2713 -0.9745
 4582TIP3   OH213709   4.479   6.660   2.026  0.4619  0.1727  0.5431
 4582TIP3    H113710   4.417   6.637   2.096  1.2640  2.3536  2.0647
 4582TIP3    H213711   4.486   6.756   2.030  0.9664  0.3352 -2.2006
 4583TIP3   OH213712   5.009   3.362   3.359 -0.1426  0.0535 -0.4084
 4583TIP3    H113713   5.043   3.339   3.445 -0.0078  1.1933 -0.1378
 4583TIP3    H213714   4.958   3.442   3.374 -0.8431 -0.2156 -1.2403
 4584TIP3   OH213715   0.484   2.133   2.251 -0.4247 -0.2726 -0.4946
 4584TIP3    H113716   0.472   2.047   2.291 -0.6684  0.6124  1.4531
 4584TIP3    H213717   0.512   2.189   2.323  0.6597  1.0910 -1.9100
 4585TIP3   OH213718   5.943   6.049   4.739 -0.3086 -0.7107  1.0389
 4585TIP3    H113719   5.947   5.989   4.665 -2.0996 -0.5773  0.8095
 4585TIP3    H213720   6.030   6.089   4.741 -0.9308  1.3430 -2.7753
 4586TIP3   OH213721   0.904   1.926   1.602  0.1143  0.6386  0.2530
 4586TIP3    H113722   0.998   1.909   1.603  0.2264  1.2225 -0.0377
 4586TIP3    H213723   0.896   2.017   1.573 -0.6044  0.1344 -1.2142
 4587TIP3   OH213724   2.415   4.422   3.482  1.1414 -0.1602 -0.5510
 4587TIP3    H113725   2.456   4.497   3.524 -0.2376 -0.9706  2.5390
 4587TIP3    H213726   2.468   4.347   3.508  0.7324 -0.6097 -0.9855
 4588TIP3   OH213727   6.484   4.671   2.185 -0.4887  0.5757  0.1402
 4588TIP3    H113728   6.467   4.688   2.092 -0.0659  1.6994  0.2595
 4588TIP3    H213729   6.575   4.644   2.189 -0.9257 -1.0108  0.0583
 4589TIP3   OH213730   1.168   1.660   1.546  0.2237  0.0476  0.4597
 4589TIP3    H113731   1.228   1.717   1.593  1.4234 -1.1914  0.4683
 4589TIP3    H213732   1.157   1.702   1.461  1.8134 -0.1331  0.1330
 4590TIP3   OH213733   1.004   5.359   3.799 -0.0882 -0.2339 -0.7052
 4590TIP3    H113734   0.929   5.399   3.844 -0.8143  2.7894 -4.0689
 4590TIP3    H213735   0.964   5.303   3.732  0.8692 -2.2574  0.3419
 4591TIP3   OH213736   5.627   6.015   4.759  0.0313 -0.4166  0.3654
 4591TIP3    H113737   5.686   5.968   4.817  0.3319 -0.8319 -0.2722
 4591TIP3    H213738   5.674   6.096   4.737  0.3276 -0.7068 -0.0724
 4592TIP3   OH213739   4.946   1.934   4.396  0.1838  0.6524  0.3134
 4592TIP3    H113740   4.990   1.855   4.426  0.0506  0.5758  0.3077
 4592TIP3    H213741   4.886   1.957   4.467 -1.0840 -0.2627 -0.4080
 4593TIP3   OH213742   0.617   5.970   5.148 -0.8503 -0.4567  0.3067
 4593TIP3    H113743   0.613   6.037   5.216 -0.1055 -0.7276  0.6354
 4593TIP3    H213744   0.688   5.912   5.177  0.1167 -0.0637 -1.1640
 4594TIP3   OH213745   1.842   4.728   0.398 -0.5239  0.0533  0.1158
 4594TIP3    H113746   1.841   4.711   0.304 -0.6221  2.6173 -0.4355
 4594TIP3    H213747   1.883   4.815   0.406 -0.3884 -0.1531  2.4649
 4595TIP3   OH213748   5.727   0.068   4.133  0.2689 -0.2640 -0.1006
 4595TIP3    H113749   5.755   0.005   4.199 -0.2166 -0.7444 -0.3445
 4595TIP3    H213750   5.700   0.014   4.059 -2.2734  0.1071  0.4866
 4596TIP3   OH213751   3.632   5.387   5.567  0.2065 -0.0419 -0.2367
 4596TIP3    H113752   3.644   5.476   5.601  0.0978 -0.0285 -0.2356
 4596TIP3    H213753   3.549   5.357   5.604 -0.1362  0.1423 -0.8447
 4597TIP3   OH213754   3.308   1.811   1.909  0.4463 -0.1629  0.2768
 4597TIP3    H113755   3.364   1.889   1.901  1.0062 -0.4353  1.3727
 4597TIP3    H213756   3.219   1.845   1.907  0.6851  0.4839  0.5129
 4598TIP3   OH213757   2.731   1.077   4.775  0.0239 -0.3145 -0.7206
 4598TIP3    H113758   2.822   1.071   4.744  0.7447  3.4991  0.1969
 4598TIP3    H213759   2.737   1.119   4.860 -2.6059 -0.0109 -0.6082
 4599TIP3   OH213760   4.514   3.445   2.310 -0.6072 -0.4499  0.1373
 4599TIP3    H113761   4.476   3.401   2.386  0.4485 -0.8699  0.4497
 4599TIP3    H213762   4.608   3.430   2.320 -0.2141  1.7557  0.1651
 4600TIP3   OH213763   5.419   3.445   3.773  0.0869  0.0148  0.1371
 4600TIP3    H113764   5.465   3.363   3.757  0.1333  0.0354  0.1628
 4600TIP3    H213765   5.368   3.429   3.853 -2.7344 -1.1922 -1.7336
 4601TIP3   OH213766   3.212   4.677   2.313  0.5309 -0.6700 -0.2596
 4601TIP3    H113767   3.244   4.760   2.280  0.5205 -0.1304  1.0055
 4601TIP3    H213768   3.131   4.699   2.359 -0.5122 -1.6781 -1.5224
 4602TIP3   OH213769   1.240   6.629   2.840  0.2878  0.1899  0.2470
 4602TIP3    H113770   1.311   6.592   2.787  0.5761 -0.3268  0.9779
 4602TIP3    H213771   1.213   6.557   2.896  0.4943  0.9375  1.3237
 4603TIP3   OH213772   1.626   6.049   0.085 -0.2187  0.7148 -0.3716
 4603TIP3    H113773   1.554   6.007   0.131  1.0407 -1.0968  0.0636
 4603TIP3    H213774   1.585   6.097   0.013 -1.9336  0.7778  0.5902
 4604TIP3   OH213775   6.213   2.838   1.447 -0.9118  0.4081 -0.0918
 4604TIP3    H113776   6.289   2.847   1.504 -0.4281 -0.6593 -0.5520
 4604TIP3    H213777   6.185   2.928   1.431  1.5863  0.9910 -1.6903
 4605TIP3   OH213778   2.112   4.371   3.078 -0.3224  0.4718 -0.6999
 4605TIP3    H113779   2.166   4.422   3.139  0.6017 -0.0658 -1.0423
 4605TIP3    H213780   2.122   4.416   2.994  0.3688 -0.1525 -0.9681
 4606TIP3   OH213781   4.964   0.387   1.935  0.9672 -0.0889 -0.1566
 4606TIP3    H113782   4.991   0.479   1.929  1.3725 -0.2265 -0.4087
 4606TIP3    H213783   4.957   0.371   2.030  0.7463  0.2415 -0.1135
 4607TIP3   OH213784   5.250   5.568   0.343 -0.2417  0.5515 -0.1559
 4607TIP3    H113785   5.289   5.484   0.365  0.6144  1.5792  2.7529
 4607TIP3    H213786   5.184   5.582   0.411 -1.6752  1.4219 -1.6733
 4608TIP3   OH213787   4.265   1.381   1.351  0.0700  0.3868 -0.6083
 4608TIP3    H113788   4.345   1.362   1.400  0.5222  2.0090 -0.6795
 4608TIP3    H213789   4.202   1.407   1.418  0.5406  2.1183 -0.7975
 4609TIP3   OH213790   7.033   1.180   2.024 -0.7061 -0.2355  0.2968
 4609TIP3    H113791   7.004   1.271   2.017  0.5382  0.1650  0.0707
 4609TIP3    H213792   7.126   1.187   2.045 -0.7815 -1.4639  1.1194
 4610TIP3   OH213793   5.325   3.642   5.504  0.0991  0.1704  0.3830
 4610TIP3    H113794   5.289   3.702   5.439  1.9868 -0.0980 -0.9956
 4610TIP3    H213795   5.262   3.569   5.507 -0.1699  0.3167 -0.9686
 4611TIP3   OH213796   0.271   6.379   5.595  0.1467  0.1845 -0.5912
 4611TIP3    H113797   0.185   6.350   5.624 -0.0999  1.9914  0.6388
 4611TIP3    H213798   0.310   6.302   5.553 -0.3739 -1.9576  2.5678
 4612TIP3   OH213799   2.649   5.854   0.704  0.2144 -0.5584 -0.2659
 4612TIP3    H113800   2.592   5.803   0.645  0.4378 -1.4548  0.2701
 4612TIP3    H213801   2.598   5.932   0.725 -0.0253 -0.4104 -1.3368
 4613TIP3   OH213802   2.058   5.437   2.706  0.3242  0.3181  0.3155
 4613TIP3    H113803   1.968   5.420   2.734  0.8157 -2.7155  0.4404
 4613TIP3    H213804   2.059   5.412   2.614  0.8108  1.4266  0.0067
 4614TIP3   OH213805   0.174   2.201   3.492 -0.4189 -0.0131  0.1415
 4614TIP3    H113806   0.158   2.294   3.506 -1.0493  0.0326 -0.7996
 4614TIP3    H213807   0.116   2.157   3.553  0.1566  0.2039  0.8589
 4615TIP3   OH213808   1.729   5.515   3.677 -0.6536 -0.6608 -0.0842
 4615TIP3    H113809   1.683   5.431   3.683 -0.3245 -0.7493  1.5397
 4615TIP3    H213810   1.777   5.509   3.594  1.1799 -3.0645  1.0082
 4616TIP3   OH213811   5.507   6.588   1.814 -0.2361  0.3292  0.3336
 4616TIP3    H113812   5.483   6.678   1.789  1.9886  0.8303 -0.2648
 4616TIP3    H213813   5.574   6.600   1.881 -0.5901 -0.9231  0.9232
 4617TIP3   OH213814   3.601   4.394   1.035  0.7851 -0.2172 -0.1815
 4617TIP3    H113815   3.618   4.327   0.968 -0.9505 -2.0672  1.1020
 4617TIP3    H213816   3.510   4.420   1.021  0.1714 -1.1141  1.7701
 4618TIP3   OH213817   6.600   1.747   2.782  0.0827 -0.0312 -0.0913
 4618TIP3    H113818   6.657   1.735   2.706  1.0726 -2.6203  0.9462
 4618TIP3    H213819   6.658   1.777   2.852 -0.4160  0.3022  0.1862
 4619TIP3   OH213820   2.797   0.106   1.153 -0.5972  0.5026  0.1328
 4619TIP3    H113821   2.810   0.167   1.226 -1.0215 -1.8158  2.2851
 4619TIP3    H213822   2.865   0.039   1.166 -1.1454 -0.3440 -1.2002
 4620TIP3   OH213823   2.171   1.050   1.560  0.2316  0.4311  0.0861
 4620TIP3    H113824   2.114   1.111   1.512 -1.0236 -1.1856 -0.6256
 4620TIP3    H213825   2.249   1.043   1.505 -1.0497 -1.1431 -1.7089
 4621TIP3   OH213826   4.279   5.916   4.090  0.2469 -0.5610  0.4285
 4621TIP3    H113827   4.204   5.911   4.030  0.5775 -0.5601  0.0144
 4621TIP3    H213828   4.262   5.994   4.142  0.4682  0.0304 -0.3598
 4622TIP3   OH213829   3.507   2.051   5.232 -0.5076 -0.1624  0.2771
 4622TIP3    H113830   3.588   2.000   5.222 -1.1233 -1.0562 -0.3694
 4622TIP3    H213831   3.447   1.991   5.277 -1.3048 -0.0875 -0.6546
 4623TIP3   OH213832   6.600   0.240   4.833 -0.4460  0.0111  0.0541
 4623TIP3    H113833   6.534   0.242   4.903  0.8566 -1.3919  1.4152
 4623TIP3    H213834   6.666   0.304   4.861  0.0677 -0.5394  0.1312
 4624TIP3   OH213835   7.170   0.722   4.815 -0.1763  0.6454  0.3457
 4624TIP3    H113836   7.114   0.728   4.738 -0.9928  0.3722  0.9037
 4624TIP3    H213837   7.163   0.809   4.856  1.6937  1.4158 -0.8270
 4625TIP3   OH213838   6.426   4.082   4.191 -0.1292 -0.1129 -0.1729
 4625TIP3    H113839   6.419   4.003   4.244 -0.6250  0.1422  0.1653
 4625TIP3    H213840   6.477   4.142   4.245 -1.0735  0.3283  0.2659
 4626TIP3   OH213841   4.377   4.802   4.229 -0.0022 -0.3321 -0.0286
 4626TIP3    H113842   4.398   4.724   4.279  3.3940  0.5458  0.1794
 4626TIP3    H213843   4.325   4.856   4.288 -0.7436 -1.5812  0.4959
 4627TIP3   OH213844   5.923   1.177   3.095 -0.1063 -0.2130  0.8703
 4627TIP3    H113845   5.961   1.264   3.082 -1.3297  0.1362 -0.8623
 4627TIP3    H213846   5.908   1.170   3.189 -0.6024  1.7564  0.9832
 4628TIP3   OH213847   6.585   3.888   1.626 -0.7458  0.4943  0.5178
 4628TIP3    H113848   6.658   3.834   1.656 -1.0442 -1.3120 -1.7282
 4628TIP3    H213849   6.517   3.825   1.601 -1.6262  1.9679 -0.9883
 4629TIP3   OH213850   3.206   0.805   2.551 -0.3358  0.0202  0.1114
 4629TIP3    H113851   3.229   0.725   2.503 -0.8238  0.4285 -0.8185
 4629TIP3    H213852   3.283   0.861   2.542  0.3763 -0.6837  1.5498
 4630TIP3   OH213853   2.014   3.960   4.916 -0.0414 -0.1707 -0.1189
 4630TIP3    H113854   2.075   3.998   4.980  1.8869  0.3770 -2.1747
 4630TIP3    H213855   2.059   3.883   4.883 -0.5135  0.1735 -1.6101
 4631TIP3   OH213856   3.695   3.984   1.253  0.0482  0.0928  0.3938
 4631TIP3    H113857   3.767   4.017   1.199  0.3541 -0.8572  0.2056
 4631TIP3    H213858   3.738   3.944   1.329 -0.2529 -0.7207  0.1467
 4632TIP3   OH213859   2.776   2.622   0.441  0.1519 -0.0479 -0.1304
 4632TIP3    H113860   2.869   2.645   0.454  1.1471 -2.9325 -1.4206
 4632TIP3    H213861   2.766   2.539   0.486 -1.6707 -0.0964 -0.5751
 4633TIP3   OH213862   1.765   0.859   1.291  0.1504  0.5606  0.0956
 4633TIP3    H113863   1.790   0.928   1.230 -0.1538  0.3471 -0.2771
 4633TIP3    H213864   1.827   0.866   1.363  0.3583  0.9750 -0.1244
 4634TIP3   OH213865   5.771   4.263   5.664  0.9163 -0.4730  0.0433
 4634TIP3    H113866   5.714   4.186   5.656 -0.0057  0.1652  0.2417
 4634TIP3    H213867   5.723   4.322   5.722  0.7971  0.9482 -1.4131
 4635TIP3   OH213868   4.512   3.387   4.127  0.4018 -0.5976  0.0546
 4635TIP3    H113869   4.457   3.360   4.200  0.3083  2.2881  1.1816
 4635TIP3    H213870   4.596   3.343   4.142 -0.4760 -2.2577  0.2655
 4636TIP3   OH213871   4.940   1.736   1.349  0.2117 -0.2147  0.4516
 4636TIP3    H113872   4.967   1.644   1.354 -0.3629 -0.5106 -1.3989
 4636TIP3    H213873   4.856   1.739   1.395 -0.2513 -0.8411 -0.3227
 4637TIP3   OH213874   6.456   1.046   3.038 -0.2645  0.0829  0.1091
 4637TIP3    H113875   6.496   0.991   3.106 -0.3725  0.0659  0.1594
 4637TIP3    H213876   6.517   1.118   3.026 -1.1683  1.1590  1.6292
 4638TIP3   OH213877   0.325   1.206   2.943  0.3125  0.2521  0.6688
 4638TIP3    H113878   0.347   1.282   2.995  1.1250 -0.1764  0.9625
 4638TIP3    H213879   0.409   1.164   2.924  0.4579  1.9694 -3.4791
 4639TIP3   OH213880   0.592   3.941   1.127 -0.3021 -0.2914  0.2380
 4639TIP3    H113881   0.565   3.963   1.217  0.4404  2.1709 -0.0508
 4639TIP3    H213882   0.518   3.893   1.091 -1.1082 -0.3014  1.8029
 4640TIP3   OH213883   6.640   3.065   3.310  0.0360  0.0372 -0.8907
 4640TIP3    H113884   6.597   3.108   3.384 -0.4880  0.2159 -1.2896
 4640TIP3    H213885   6.580   2.994   3.286 -0.8764  1.3029 -2.5050
 4641TIP3   OH213886   3.912   2.208   4.179 -0.6716 -0.0001  0.2128
 4641TIP3    H113887   3.829   2.210   4.131  0.1810  2.0413 -1.2916
 4641TIP3    H213888   3.970   2.155   4.124 -0.9123 -1.4375  1.2698
 4642TIP3   OH213889   4.875   6.545   3.571  0.0004  0.3146 -0.4067
 4642TIP3    H113890   4.887   6.628   3.524  0.0289  1.1966  1.0957
 4642TIP3    H213891   4.962   6.522   3.603 -0.2486  0.4990  0.4346
 4643TIP3   OH213892   4.396   2.482   5.620 -0.1306 -0.3380 -0.0761
 4643TIP3    H113893   4.452   2.406   5.600 -1.4544 -0.5828 -3.6626
 4643TIP3    H213894   4.400   2.536   5.541 -0.8860  2.3359  1.5805
 4644TIP3   OH213895   3.274   2.842   5.047  0.4280  0.2281 -0.2868
 4644TIP3    H113896   3.185   2.855   5.081  0.8074 -0.0221  0.8497
 4644TIP3    H213897   3.310   2.931   5.038 -1.1031  0.6745 -4.2450
 4645TIP3   OH213898   1.775   2.118   4.871 -0.0327  0.0572  0.1363
 4645TIP3    H113899   1.778   2.214   4.879  1.1322  0.2539 -1.9822
 4645TIP3    H213900   1.845   2.088   4.930 -1.8150  0.2814  2.5248
 4646TIP3   OH213901   6.314   4.084   3.481 -0.5962  0.2402  0.0036
 4646TIP3    H113902   6.243   4.056   3.422 -1.1891  0.8607  0.4052
 4646TIP3    H213903   6.372   4.136   3.425 -1.1100  0.7538 -0.0638
 4647TIP3   OH213904   5.132   4.200   2.757 -0.0877  0.2691  0.1678
 4647TIP3    H113905   5.079   4.123   2.776  0.7839 -1.2272 -2.8937
 4647TIP3    H213906   5.203   4.197   2.821 -0.5897 -0.9056  0.6858
 4648TIP3   OH213907   2.924   1.576   1.350 -0.8753  0.3941 -0.4114
 4648TIP3    H113908   2.979   1.600   1.275 -0.9681  0.4581 -0.4586
 4648TIP3    H213909   2.856   1.520   1.313 -0.4191 -0.2958 -0.2370
 4649TIP3   OH213910   1.043   4.539   2.284  0.0761  0.1288  0.0242
 4649TIP3    H113911   1.034   4.634   2.274  0.5119  0.1579 -0.1201
 4649TIP3    H213912   0.970   4.503   2.235  0.8222  0.3424 -1.2975
 4650TIP3   OH213913   1.143   0.450   1.297  0.4683 -0.4392 -0.1956
 4650TIP3    H113914   1.109   0.382   1.355 -1.2712  0.2112 -0.3923
 4650TIP3    H213915   1.065   0.499   1.270  1.5140  0.6956 -1.2460
 4651TIP3   OH213916   5.497   3.599   0.105  0.3697  0.0568  0.2451
 4651TIP3    H113917   5.455   3.551   0.033 -0.7992 -0.3810  1.1798
 4651TIP3    H213918   5.563   3.540   0.139  1.4332  0.5434 -0.9044
 4652TIP3   OH213919   6.219   1.292   5.528 -0.9701  0.1845 -0.1240
 4652TIP3    H113920   6.228   1.366   5.587 -0.9938 -0.4724  0.7352
 4652TIP3    H213921   6.225   1.215   5.586  0.4395 -0.5133 -1.1493
 4653TIP3   OH213922   2.873   6.456   0.936  0.5180  0.7098  0.0867
 4653TIP3    H113923   2.968   6.444   0.927  0.5238  0.0005  0.9634
 4653TIP3    H213924   2.861   6.551   0.928  0.9285  0.6033 -2.9752
 4654TIP3   OH213925   4.301   5.612   0.660 -0.2206  0.2987  0.3339
 4654TIP3    H113926   4.351   5.656   0.590  1.5701 -1.1940  0.5860
 4654TIP3    H213927   4.346   5.528   0.671 -1.8598 -0.4369  1.7441
 4655TIP3   OH213928   1.337   5.364   4.354 -0.2200 -0.4261 -0.2236
 4655TIP3    H113929   1.393   5.288   4.371  0.2644 -0.5827 -2.2186
 4655TIP3    H213930   1.362   5.392   4.266 -0.8287  1.6862  0.2254
 4656TIP3   OH213931   1.873   2.556   3.068  0.1171  0.1490  0.0727
 4656TIP3    H113932   1.868   2.503   3.147  0.1412  1.2122  0.8198
 4656TIP3    H213933   1.795   2.612   3.072  1.5406  2.2001  0.8557
 4657TIP3   OH213934   3.563   4.961   3.720 -0.3701  0.6889 -0.1921
 4657TIP3    H113935   3.507   5.030   3.685 -0.0691  0.4994 -1.0899
 4657TIP3    H213936   3.652   4.997   3.716 -0.2812  0.4868 -0.0907
 4658TIP3   OH213937   4.014   1.098   2.842 -0.5753  0.0593  0.3038
 4658TIP3    H113938   3.993   1.185   2.877 -2.4304 -1.0040  2.0168
 4658TIP3    H213939   4.025   1.112   2.748 -1.8038  1.9981  0.3982
 4659TIP3   OH213940   5.737   5.712   3.178 -0.4782  0.1824 -0.9788
 4659TIP3    H113941   5.660   5.671   3.141 -0.8681  0.6228 -0.6663
 4659TIP3    H213942   5.779   5.644   3.231 -0.7904  0.0223 -0.9406
 4660TIP3   OH213943   4.294   4.842   4.522 -0.0963  0.2560  0.0489
 4660TIP3    H113944   4.323   4.929   4.546 -1.9043  0.3071  2.4269
 4660TIP3    H213945   4.359   4.783   4.560  0.6411  0.5054 -0.7913
 4661TIP3   OH213946   6.563   5.469   4.522  0.1682  0.2203 -0.1845
 4661TIP3    H113947   6.623   5.515   4.463  2.0016 -2.2264 -0.3811
 4661TIP3    H213948   6.617   5.446   4.597 -1.4074  0.7397  1.1651
 4662TIP3   OH213949   4.180   3.577   1.550 -0.5972 -0.5431 -0.8311
 4662TIP3    H113950   4.115   3.527   1.599 -1.3755  0.4487 -0.8194
 4662TIP3    H213951   4.253   3.587   1.611 -0.3071 -1.8754 -0.9296
 4663TIP3   OH213952   4.318   2.851   0.808 -0.4333 -0.2370 -0.0567
 4663TIP3    H113953   4.231   2.811   0.794 -0.8950  0.6884  0.0871
 4663TIP3    H213954   4.299   2.930   0.858  0.4260  0.3798 -0.7063
 4664TIP3   OH213955   6.215   1.182   4.803 -0.0442  0.1381 -0.4590
 4664TIP3    H113956   6.126   1.210   4.827 -0.4004  0.1596 -1.7181
 4664TIP3    H213957   6.236   1.113   4.865 -1.9364 -1.5921 -1.5819
 4665TIP3   OH213958   2.033   5.262   0.258 -0.4650 -0.0425 -0.4120
 4665TIP3    H113959   2.100   5.302   0.314 -1.2844  0.0041  0.5617
 4665TIP3    H213960   1.954   5.314   0.274 -0.9989 -0.7290 -0.7670
 4666TIP3   OH213961   2.569   3.973   5.042  0.2865 -0.5326  0.6928
 4666TIP3    H113962   2.515   4.022   4.980  0.1576 -1.1281  0.3332
 4666TIP3    H213963   2.555   3.881   5.020  2.7884 -0.6988 -0.6055
 4667TIP3   OH213964   4.595   0.041   1.594  0.1606  0.1600  0.1659
 4667TIP3    H113965   4.513  -0.009   1.597  0.7035 -0.7707  2.9122
 4667TIP3    H213966   4.663  -0.026   1.588  0.7764  0.8254 -0.3544
 4668TIP3   OH213967   3.336   1.783   4.968  0.6703  0.0699 -0.7267
 4668TIP3    H113968   3.350   1.859   4.911  2.7034  0.1797 -0.1626
 4668TIP3    H213969   3.406   1.722   4.944  0.4781 -0.6319  0.4244
 4669TIP3   OH213970   5.535   2.069   0.892 -0.2380  0.1185  0.2375
 4669TIP3    H113971   5.598   2.055   0.963 -0.1849 -1.6414 -0.1324
 4669TIP3    H213972   5.587   2.066   0.812  0.0123  3.8496  0.0438
 4670TIP3   OH213973   0.096   5.686   5.669  0.4241 -0.0160 -0.0330
 4670TIP3    H113974   0.069   5.740   5.595 -0.2552 -0.0468  0.1812
 4670TIP3    H213975   0.041   5.608   5.663  0.7101 -0.2423  0.2202
 4671TIP3   OH213976   0.831   4.842   1.274 -0.1294  0.1171  0.1325
 4671TIP3    H113977   0.757   4.863   1.331 -0.4056 -2.0429  0.6468
 4671TIP3    H213978   0.892   4.796   1.332  0.5574 -0.2123 -0.8420
 4672TIP3   OH213979   6.449   3.366   4.653  0.7285  0.3059 -0.1513
 4672TIP3    H113980   6.374   3.366   4.593  0.2631 -0.2123  0.4122
 4672TIP3    H213981   6.517   3.316   4.608  0.0698 -0.8644  0.1066
 4673TIP3   OH213982   5.281   4.258   4.407  0.5648 -0.6441 -0.0155
 4673TIP3    H113983   5.242   4.344   4.425  0.5774 -0.6209 -0.1020
 4673TIP3    H213984   5.227   4.197   4.458  0.9188 -0.5193  0.5193
 4674TIP3   OH213985   5.134   0.189   4.584 -0.4553 -0.3125  0.1012
 4674TIP3    H113986   5.219   0.155   4.557 -0.2722 -0.5749  0.9938
 4674TIP3    H213987   5.096   0.120   4.637 -0.4023  0.5490  1.3108
 4675TIP3   OH213988   7.205   1.350   0.915 -0.0296 -0.4443  0.2589
 4675TIP3    H113989   7.222   1.443   0.929 -2.4008  0.2622 -0.9278
 4675TIP3    H213990   7.149   1.325   0.989 -0.3532 -0.5911 -0.0303
 4676TIP3   OH213991   0.025   6.342   1.798 -0.1443  0.2546 -0.3572
 4676TIP3    H113992   0.045   6.387   1.880 -1.5905  3.0256 -1.4160
 4676TIP3    H213993  -0.060   6.301   1.813 -1.0890  1.9461 -0.8322
 4677TIP3   OH213994   4.759   4.703   4.018 -0.3293 -0.1155 -0.4820
 4677TIP3    H113995   4.667   4.697   3.991 -0.5594  0.5382  0.1209
 4677TIP3    H213996   4.808   4.678   3.940 -1.0090 -0.2353 -0.8859
 4678TIP3   OH213997   0.009   0.432   5.666  0.4624 -0.1569  0.3116
 4678TIP3    H113998   0.094   0.409   5.702  0.4840  1.1092  1.1306
 4678TIP3    H213999  -0.032   0.348   5.646  2.0582 -0.7820 -0.5201
 4679TIP3   OH214000   5.451   1.090   3.160 -0.1355  0.7007  0.6678
 4679TIP3    H114001   5.506   1.071   3.083 -1.0165 -1.6413  0.5355
 4679TIP3    H214002   5.475   1.022   3.223 -1.9158  0.4360  1.1068
 4680TIP3   OH214003   1.180   6.012   2.613 -0.1402 -0.0386  0.2294
 4680TIP3    H114004   1.106   5.993   2.670  1.5009 -3.4840  1.5304
 4680TIP3    H214005   1.251   6.035   2.673  0.2426  1.9083 -0.8891
 4681TIP3   OH214006   6.134   4.300   0.220  0.3902  0.1443  0.0258
 4681TIP3    H114007   6.177   4.225   0.262 -1.2740 -1.5285 -1.0771
 4681TIP3    H214008   6.160   4.293   0.128  2.1052  2.3749  0.2622
 4682TIP3   OH214009   2.605   0.681   3.124  0.1872 -0.2598  0.2586
 4682TIP3    H114010   2.670   0.737   3.081  0.3418  1.3840  2.4713
 4682TIP3    H214011   2.644   0.661   3.209 -0.2666 -3.0992 -0.1276
 4683TIP3   OH214012   3.010   1.934   1.853  0.1574  0.1611 -0.3232
 4683TIP3    H114013   3.062   1.977   1.920 -0.3115 -0.0823  0.2059
 4683TIP3    H214014   2.968   2.006   1.805  0.9310  0.3569 -0.7269
 4684TIP3   OH214015   4.108   4.568   0.420 -0.3481  0.5864 -0.2747
 4684TIP3    H114016   4.034   4.582   0.360  0.5797 -0.1930 -1.6438
 4684TIP3    H214017   4.066   4.545   0.503 -1.6586  0.7423 -0.8600
 4685TIP3   OH214018   5.122   5.924   2.234 -0.0482 -0.0051  0.0739
 4685TIP3    H114019   5.125   5.886   2.322 -0.0531 -1.1593 -0.4006
 4685TIP3    H214020   5.117   5.848   2.176 -0.4841  0.7527 -0.9059
 4686TIP3   OH214021   3.039   5.366   1.419 -0.1826  0.9335  0.2286
 4686TIP3    H114022   3.119   5.313   1.421 -0.1484  1.0029  1.1443
 4686TIP3    H214023   3.025   5.385   1.326 -0.7565 -1.5116 -0.2403
 4687TIP3   OH214024   2.287   2.860   1.735  0.1672 -0.1078  0.0714
 4687TIP3    H114025   2.194   2.872   1.754  0.1989 -0.8943  0.7997
 4687TIP3    H214026   2.327   2.944   1.753 -0.5401  0.5386 -1.2077
 4688TIP3   OH214027   1.111   4.931   3.132  0.7503  0.1215  0.3959
 4688TIP3    H114028   1.145   4.976   3.056 -1.8288  0.0431 -0.9026
 4688TIP3    H214029   1.085   4.845   3.100  3.0442 -1.4094  2.2389
 4689TIP3   OH214030   3.301   1.148   2.125  0.1953 -0.0763  0.1926
 4689TIP3    H114031   3.360   1.210   2.083  0.1757 -0.9222 -1.1400
 4689TIP3    H214032   3.213   1.181   2.103  0.1806  0.0470  0.4370
 4690TIP3   OH214033   5.235   0.744   5.054  0.7186  0.5458  0.1091
 4690TIP3    H114034   5.176   0.683   5.097 -0.8108 -0.2646 -2.8603
 4690TIP3    H214035   5.253   0.705   4.969 -0.4893  4.2305 -2.0867
 4691TIP3   OH214036   6.831   2.821   2.990 -0.1385  0.3074  0.0028
 4691TIP3    H114037   6.847   2.914   3.003  0.9654  0.2340 -0.6743
 4691TIP3    H214038   6.866   2.780   3.070 -0.0299  0.4243  0.0167
 4692TIP3   OH214039   4.533   0.532   0.718  0.9668  0.3791  0.1794
 4692TIP3    H114040   4.546   0.450   0.766 -0.0386 -0.6175 -1.1883
 4692TIP3    H214041   4.559   0.600   0.780  2.0544 -0.9713  1.2690
 4693TIP3   OH214042   6.493   2.853   3.264  0.0105 -0.1580 -0.0799
 4693TIP3    H114043   6.433   2.856   3.339 -1.2615  0.2334 -1.0678
 4693TIP3    H214044   6.543   2.772   3.277 -3.4234 -2.7001 -1.1219
 4694TIP3   OH214045   5.786   4.427   3.307 -0.0541 -0.1045 -0.6558
 4694TIP3    H114046   5.848   4.353   3.306  0.5011  0.2994  0.9176
 4694TIP3    H214047   5.770   4.443   3.400  1.2074  2.8522 -0.8497
 4695TIP3   OH214048   4.272   3.611   2.385 -0.4674  0.3687 -0.0645
 4695TIP3    H114049   4.224   3.548   2.332 -1.3852  0.4244  0.6725
 4695TIP3    H214050   4.327   3.557   2.442  0.1888  0.2993 -0.7478
 4696TIP3   OH214051   2.717   3.370   2.674 -0.2861  0.1930 -0.1586
 4696TIP3    H114052   2.644   3.374   2.613  0.6040 -1.4328 -1.3957
 4696TIP3    H214053   2.795   3.369   2.619  0.6846  1.3968  1.1099
 4697TIP3   OH214054   2.458   6.600   1.251  0.2928  0.1576  0.5438
 4697TIP3    H114055   2.525   6.564   1.193  1.8069  1.8159  1.1357
 4697TIP3    H214056   2.381   6.610   1.195  1.3379  0.6099 -0.9030
 4698TIP3   OH214057   1.325   6.414   3.421  0.1405 -0.1196  0.2448
 4698TIP3    H114058   1.394   6.438   3.358  0.2466  1.6828  0.9961
 4698TIP3    H214059   1.250   6.390   3.366  1.0224 -1.1365 -0.5749
 4699TIP3   OH214060   5.963   3.789   3.179  0.2520  0.2683 -0.3981
 4699TIP3    H114061   5.878   3.823   3.152  0.9035 -0.2494 -3.5400
 4699TIP3    H214062   5.942   3.714   3.236 -1.3816  0.3299 -0.8736
 4700TIP3   OH214063   1.766   3.000   3.047 -0.8494 -0.2905 -0.3895
 4700TIP3    H114064   1.803   3.079   3.088  2.3879 -1.8847  0.0772
 4700TIP3    H214065   1.711   2.962   3.116  0.4290 -0.2474  0.7126
 4701TIP3   OH214066   5.119   2.398   0.694  0.1882 -0.7279  0.2131
 4701TIP3    H114067   5.188   2.338   0.722 -0.7377 -2.2187 -0.5689
 4701TIP3    H214068   5.136   2.413   0.601 -0.4322 -1.0106  0.0417
 4702TIP3   OH214069   0.937   5.334   0.470 -0.1167 -0.0661 -0.1986
 4702TIP3    H114070   0.914   5.413   0.421 -1.3894  0.9482  1.9216
 4702TIP3    H214071   0.990   5.366   0.543 -0.2329 -1.2498  0.4233
 4703TIP3   OH214072   5.943   5.944   1.852  0.1566 -0.1328 -0.0608
 4703TIP3    H114073   6.001   5.932   1.926  1.0699  1.2685 -0.5136
 4703TIP3    H214074   5.893   6.023   1.873  0.2650  0.1495 -0.8177
 4704TIP3   OH214075   0.734   0.482   2.149  0.8232 -0.1838  0.1302
 4704TIP3    H114076   0.795   0.417   2.183  1.5101  0.2499 -0.2548
 4704TIP3    H214077   0.773   0.512   2.068 -0.2865 -0.4510 -0.5268
 4705TIP3   OH214078   0.407   5.418   2.304  0.5507 -0.0687 -0.2443
 4705TIP3    H114079   0.328   5.383   2.264  0.1097  0.5600  0.0464
 4705TIP3    H214080   0.472   5.418   2.234  0.5651 -1.4437 -0.2475
 4706TIP3   OH214081   4.667   1.380   5.152  0.4465  0.2545  0.0728
 4706TIP3    H114082   4.660   1.288   5.128  0.5548  0.3486 -0.3217
 4706TIP3    H214083   4.611   1.426   5.090 -1.8040  0.2028  1.9119
 4707TIP3   OH214084   1.288   1.062   4.295 -0.4930 -0.9682 -0.2198
 4707TIP3    H114085   1.364   1.051   4.351 -1.2318 -0.4399  0.9178
 4707TIP3    H214086   1.303   1.144   4.248 -0.2775 -0.9726 -0.1579
 4708TIP3   OH214087   4.043   0.088   1.595 -0.1599 -0.4939 -0.0819
 4708TIP3    H114088   4.063   0.169   1.546 -0.6272 -0.2504  0.1210
 4708TIP3    H214089   3.971   0.113   1.653 -0.2555 -1.0401  0.0363
 4709TIP3   OH214090   0.358   3.646   2.157 -0.3484 -0.1962 -0.0327
 4709TIP3    H114091   0.445   3.643   2.116 -2.1249 -1.7305 -4.1795
 4709TIP3    H214092   0.365   3.589   2.233  1.9226 -1.4125 -1.0714
 4710TIP3   OH214093   1.057   6.817   1.489 -0.3336  0.1138 -0.6038
 4710TIP3    H114094   1.026   6.734   1.454  1.5147 -1.2291  0.7534
 4710TIP3    H214095   1.122   6.847   1.425 -0.2457 -0.0172 -0.5763
 4711TIP3   OH214096   1.393   3.989   2.488  0.1941  0.2469 -0.2522
 4711TIP3    H114097   1.351   3.999   2.402  1.2229  2.3359 -0.5611
 4711TIP3    H214098   1.335   4.035   2.549 -0.4004 -1.0123  0.1665
 4712TIP3   OH214099   2.058   1.328   5.131  0.5768  0.1335 -0.0868
 4712TIP3    H114100   2.120   1.261   5.102 -0.4809 -1.0975  0.3896
 4712TIP3    H214101   2.036   1.303   5.221 -1.6430 -0.3000 -0.6798
 4713TIP3   OH214102   2.781   6.089   1.893 -0.4349 -0.3936 -0.4710
 4713TIP3    H114103   2.695   6.132   1.884 -0.0398  0.3254 -0.8622
 4713TIP3    H214104   2.767   6.000   1.860 -1.0716 -0.3335 -0.3786
 4714TIP3   OH214105   4.145   0.286   0.054 -0.5026 -0.7455 -0.0796
 4714TIP3    H114106   4.131   0.379   0.036 -1.3766 -0.6724  0.8496
 4714TIP3    H214107   4.186   0.284   0.140 -1.2325 -1.2323  0.2721
 4715TIP3   OH214108   3.363   2.112   5.571 -0.6997 -0.0366  0.3261
 4715TIP3    H114109   3.352   2.070   5.486 -2.7402  1.3836 -0.1597
 4715TIP3    H214110   3.446   2.077   5.604  0.7365  0.2129 -2.7077
 4716TIP3   OH214111   1.976   0.859   0.018 -0.1176 -0.0138  0.1890
 4716TIP3    H114112   1.993   0.950  -0.007 -0.4103  0.2249  0.8367
 4716TIP3    H214113   1.976   0.860   0.114 -1.1275 -0.5056  0.2060
 4717TIP3   OH214114   2.795   5.549   3.139  0.8177 -0.0299  0.1478
 4717TIP3    H114115   2.765   5.628   3.094  1.3038  0.2403  0.2993
 4717TIP3    H214116   2.758   5.477   3.087  0.8254  0.2883 -0.3051
 4718TIP3   OH214117   3.858   3.347   2.448  0.5379  0.5419 -0.0277
 4718TIP3    H114118   3.841   3.391   2.366  1.3606  0.5014 -0.2303
 4718TIP3    H214119   3.900   3.413   2.503  0.5413  0.4021  0.1403
 4719TIP3   OH214120   2.722   5.392   3.363 -0.5006  0.5611  0.1388
 4719TIP3    H114121   2.798   5.335   3.372 -0.7639  0.1379 -0.3169
 4719TIP3    H214122   2.734   5.435   3.279 -0.8382  0.3882  0.0015
 4720TIP3   OH214123   1.522   6.744   0.299  0.0537  0.8432  0.4032
 4720TIP3    H114124   1.533   6.815   0.363  1.5886  1.4054 -0.4241
 4720TIP3    H214125   1.538   6.786   0.215 -1.8850  0.1022 -0.3823
 4721TIP3   OH214126   4.972   1.610   1.657  0.3751 -0.0323  0.0421
 4721TIP3    H114127   4.913   1.634   1.585 -1.0479 -1.9217  0.4856
 4721TIP3    H214128   4.988   1.692   1.703 -1.7232  0.6247 -0.2768
 4722TIP3   OH214129   0.438   1.612   4.887 -0.7450 -0.4090 -0.1914
 4722TIP3    H114130   0.516   1.666   4.873 -0.0050 -1.1148  0.9891
 4722TIP3    H214131   0.417   1.576   4.801 -0.4233  0.6433 -0.7228
 4723TIP3   OH214132   6.508   6.243   5.213  0.2390 -0.0345  0.1603
 4723TIP3    H114133   6.456   6.307   5.262  0.8610 -0.6204  1.6621
 4723TIP3    H214134   6.494   6.266   5.121 -3.3502 -0.7092  0.4008
 4724TIP3   OH214135   5.416   0.112   2.122 -0.3844  0.0671  0.0674
 4724TIP3    H114136   5.492   0.165   2.149  0.4103 -0.9846 -0.0411
 4724TIP3    H214137   5.393   0.145   2.035  1.1273 -0.7950 -0.7028
 4725TIP3   OH214138   0.939   6.629   1.843  0.4982  0.0079 -0.2097
 4725TIP3    H114139   0.904   6.656   1.758  1.4593  0.3740 -0.4940
 4725TIP3    H214140   1.030   6.605   1.825  0.4162 -0.9058  0.5284
 4726TIP3   OH214141   0.863   6.263   5.387  0.3298  0.1322 -0.3391
 4726TIP3    H114142   0.919   6.325   5.432  0.6118  1.4529 -2.3672
 4726TIP3    H214143   0.917   6.228   5.316  0.0300 -2.1334  0.4677
 4727TIP3   OH214144   6.875   4.704   2.429  0.0053  0.0636 -0.2819
 4727TIP3    H114145   6.927   4.712   2.350  2.7601  0.4080  1.4536
 4727TIP3    H214146   6.839   4.791   2.444  0.9984  0.4576 -0.1739
 4728TIP3   OH214147   2.716   2.258   4.950 -0.1480 -0.0639  0.4861
 4728TIP3    H114148   2.763   2.277   4.869 -1.1678 -0.0466 -0.1211
 4728TIP3    H214149   2.667   2.177   4.932 -0.8485  0.2599  0.8658
 4729TIP3   OH214150   4.209   6.614   5.483 -0.4245 -0.3641  0.3002
 4729TIP3    H114151   4.291   6.606   5.433 -0.5124  1.1111 -0.1119
 4729TIP3    H214152   4.237   6.610   5.575 -0.1260 -1.8172  0.1713
 4730TIP3   OH214153   4.028   3.703   1.341  0.2026 -0.1554  0.2445
 4730TIP3    H114154   3.993   3.780   1.387  1.5665  0.5131  0.2206
 4730TIP3    H214155   4.081   3.658   1.407  1.5856  0.4185 -0.4428
 4731TIP3   OH214156   2.685   0.893   3.434  0.7239  0.4686  0.1839
 4731TIP3    H114157   2.750   0.828   3.407  1.0817  1.1866 -0.6918
 4731TIP3    H214158   2.656   0.862   3.520  0.7754 -0.9375 -0.2731
 4732TIP3   OH214159   3.271   6.626   1.211  0.1534 -0.3968  0.1865
 4732TIP3    H114160   3.338   6.676   1.165  0.9112  0.0503  1.7407
 4732TIP3    H214161   3.234   6.568   1.143  0.3396  1.1267 -1.2739
 4733TIP3   OH214162   0.164   1.834   2.576  0.3244 -0.0226 -0.1682
 4733TIP3    H114163   0.165   1.819   2.482 -3.0742  0.6551 -0.4393
 4733TIP3    H214164   0.080   1.799   2.605  0.3699  1.6318  2.2427
 4734TIP3   OH214165   3.615   6.474   3.342 -0.2518  0.3317 -0.2948
 4734TIP3    H114166   3.555   6.505   3.273 -0.0637  1.3135 -0.0370
 4734TIP3    H214167   3.646   6.390   3.310 -2.5494 -0.7255  0.0393
 4735TIP3   OH214168   4.456   2.018   1.510  0.0515 -0.1691  0.1404
 4735TIP3    H114169   4.390   2.077   1.547 -0.2777 -1.4718  1.7518
 4735TIP3    H214170   4.431   2.009   1.418 -1.5930 -0.0596  0.5463
 4736TIP3   OH214171   0.399   3.221   0.803  0.2156  0.3421 -0.6889
 4736TIP3    H114172   0.438   3.183   0.725  1.7814 -2.0823  1.1409
 4736TIP3    H214173   0.473   3.248   0.857 -0.7707  0.7520  0.5138
 4737TIP3   OH214174   1.426   5.688   3.814  0.7100 -0.2221  0.9128
 4737TIP3    H114175   1.394   5.640   3.891 -0.7398 -0.1077  0.4049
 4737TIP3    H214176   1.354   5.746   3.790  0.9831 -0.5244 -0.7653
 4738TIP3   OH214177   3.761   0.229   3.243 -0.1630 -0.4241  0.2009
 4738TIP3    H114178   3.855   0.232   3.259 -0.2802  2.1540  0.7248
 4738TIP3    H214179   3.731   0.319   3.252 -2.6456 -1.1006 -0.3431
 4739TIP3   OH214180   0.209   3.029   5.558  0.4483 -0.1185  0.0148
 4739TIP3    H114181   0.304   3.035   5.548  0.4594  0.2562  0.3144
 4739TIP3    H214182   0.180   2.977   5.483  0.7157  1.0875 -0.9508
 4740TIP3   OH214183   3.838   4.260   4.084 -0.3686  0.5099 -0.2430
 4740TIP3    H114184   3.843   4.229   4.175 -1.2333  0.5753 -0.1719
 4740TIP3    H214185   3.822   4.354   4.091 -1.2621  0.3787 -0.4576
 4741TIP3   OH214186   4.131   3.181   0.702  0.0449  0.2764 -0.3990
 4741TIP3    H114187   4.220   3.147   0.705  0.1319  0.5574  0.3072
 4741TIP3    H214188   4.123   3.236   0.780 -0.8671 -0.0566 -0.2451
 4742TIP3   OH214189   4.135   3.273   1.217 -0.5857 -0.0881 -0.3465
 4742TIP3    H114190   4.228   3.288   1.201  0.2495 -0.4121  3.2592
 4742TIP3    H214191   4.097   3.361   1.225  0.0012  0.0914  0.6707
 4743TIP3   OH214192   2.251   2.347   2.030  0.3453 -0.0287  0.2907
 4743TIP3    H114193   2.185   2.335   1.962 -0.0031 -0.3606  0.6804
 4743TIP3    H214194   2.209   2.405   2.094 -0.6567 -2.3766  1.9207
 4744TIP3   OH214195   5.532   4.205   4.499  0.1001 -0.5811  0.1165
 4744TIP3    H114196   5.451   4.242   4.466 -1.0076 -1.0231  2.1890
 4744TIP3    H214197   5.546   4.127   4.444 -0.5362 -0.1847 -0.6381
 4745TIP3   OH214198   5.555   5.945   0.761  0.0692 -0.1434 -0.0319
 4745TIP3    H114199   5.591   5.975   0.677  0.9304 -0.4684  0.2097
 4745TIP3    H214200   5.580   5.853   0.766  0.4958  0.0108  0.8228
 4746TIP3   OH214201   1.825   1.328   3.918 -0.1602 -0.1167  0.4374
 4746TIP3    H114202   1.767   1.397   3.948 -0.7267 -0.0364 -0.8095
 4746TIP3    H214203   1.911   1.352   3.954  0.4383  3.1093 -2.6125
 4747TIP3   OH214204   4.229   0.509   1.349 -0.7688  0.1556  0.4224
 4747TIP3    H114205   4.277   0.536   1.271  1.1733  0.6207  1.6952
 4747TIP3    H214206   4.202   0.592   1.390 -0.5155 -0.0394  0.9856
 4748TIP3   OH214207   6.818   2.821   1.846 -0.3419  0.6176  0.0047
 4748TIP3    H114208   6.820   2.916   1.833  1.8649  0.8087  1.1298
 4748TIP3    H214209   6.779   2.810   1.932  0.8377  0.6659  0.5704
 4749TIP3   OH214210   6.716   4.039   2.531 -0.6930  0.2898 -0.3154
 4749TIP3    H114211   6.627   4.006   2.544 -1.1984  2.4774  3.6418
 4749TIP3    H214212   6.717   4.123   2.578  3.5545  0.1658  0.2269
 4750TIP3   OH214213   2.404   2.924   0.952 -0.5402  0.4189 -0.4026
 4750TIP3    H114214   2.379   2.854   1.012  0.7514  0.5334  0.3102
 4750TIP3    H214215   2.499   2.929   0.959 -0.5428  1.7672 -0.9771
 4751TIP3   OH214216   6.240   2.525   2.071  0.2404 -0.2728  0.3621
 4751TIP3    H114217   6.213   2.612   2.100  2.1580  0.5229 -0.0508
 4751TIP3    H214218   6.206   2.465   2.138 -1.3932  0.7226  0.4804
 4752TIP3   OH214219   4.725   5.810   2.689 -0.3169  0.0496  0.0036
 4752TIP3    H114220   4.691   5.891   2.651 -0.4686 -0.2473 -0.4993
 4752TIP3    H214221   4.803   5.837   2.739 -1.1689  0.7018  1.0172
 4753TIP3   OH214222   5.394   6.588   5.190  0.5930  0.2846  0.6694
 4753TIP3    H114223   5.395   6.644   5.112 -0.1010 -0.2744  0.2487
 4753TIP3    H214224   5.338   6.635   5.252  2.9699  1.8993  1.7622
 4754TIP3   OH214225   6.263   3.004   4.362  0.7191  0.6686  0.0667
 4754TIP3    H114226   6.215   2.955   4.428  0.6425 -1.3662 -1.4004
 4754TIP3    H214227   6.281   3.089   4.403 -1.4228  0.3880  1.7711
 4755TIP3   OH214228   2.823   2.336   2.807  0.2530  0.3430 -0.3804
 4755TIP3    H114229   2.827   2.399   2.879 -2.3851 -0.1042  0.2685
 4755TIP3    H214230   2.755   2.369   2.748 -1.2057 -1.7645 -0.0295
 4756TIP3   OH214231   4.039   1.646   5.290 -0.4626  0.1297  0.2547
 4756TIP3    H114232   4.125   1.631   5.251  0.5059 -0.7193  2.5838
 4756TIP3    H214233   4.048   1.619   5.381 -3.0896  0.4355  0.6918
 4757TIP3   OH214234   2.616   4.778   2.691 -0.2115  0.1754 -0.0006
 4757TIP3    H114235   2.709   4.783   2.670 -0.1399  2.4149  0.6291
 4757TIP3    H214236   2.597   4.684   2.692  1.7201 -0.3053 -1.4154
 4758TIP3   OH214237   0.654   1.952   2.588  0.0778 -0.1720  0.1668
 4758TIP3    H114238   0.619   2.004   2.660  0.1292  0.1699 -0.0496
 4758TIP3    H214239   0.715   2.011   2.543  1.1618 -0.8393  0.7097
 4759TIP3   OH214240   1.456   6.165   0.402 -0.4523 -0.1929 -0.1321
 4759TIP3    H114241   1.411   6.223   0.464  0.1796  0.5943 -0.4050
 4759TIP3    H214242   1.545   6.200   0.396 -0.5832 -0.0845 -1.7104
 4760TIP3   OH214243   1.723   5.157   3.252  0.4508 -0.2335 -0.0394
 4760TIP3    H114244   1.686   5.154   3.340  1.0117 -0.0407  0.2002
 4760TIP3    H214245   1.758   5.070   3.237  1.7794  0.1902  0.5398
 4761TIP3   OH214246   6.476   4.516   3.454  0.8186  0.3719 -0.4345
 4761TIP3    H114247   6.568   4.497   3.473  0.5162 -3.1526 -1.8023
 4761TIP3    H214248   6.477   4.605   3.418  3.6082  0.6068  0.0168
 4762TIP3   OH214249   2.479   2.041   3.613 -0.5178 -0.3979  0.1846
 4762TIP3    H114250   2.431   2.055   3.531  2.5115  1.2219 -1.4696
 4762TIP3    H214251   2.453   2.114   3.669 -0.7793 -0.1555 -0.2448
 4763TIP3   OH214252   0.930   4.981   3.329  0.8500  0.3196  0.5567
 4763TIP3    H114253   0.872   5.053   3.301 -0.8945 -1.8681 -2.0283
 4763TIP3    H214254   0.995   4.975   3.259 -0.2484 -1.7822 -0.3832
 4764TIP3   OH214255   1.026   4.011   3.602  0.7226  0.4414  0.1937
 4764TIP3    H114256   1.018   3.981   3.692 -0.3235  0.4161  0.1032
 4764TIP3    H214257   0.995   4.101   3.604  0.3676  0.3305 -0.1980
 4765TIP3   OH214258   6.996   5.469   4.880 -0.0948  0.3038  0.4416
 4765TIP3    H114259   6.928   5.404   4.894  0.3371 -0.5334 -1.0953
 4765TIP3    H214260   7.076   5.418   4.866  0.2616  1.1501 -0.7646
 4766TIP3   OH214261   3.751   0.960   5.844 -0.4524  0.1378  0.5431
 4766TIP3    H114262   3.793   0.874   5.849 -1.4396 -0.4431 -0.4675
 4766TIP3    H214263   3.684   0.949   5.776  0.1514  2.0491 -0.4154
 4767TIP3   OH214264   2.036   0.083   3.362  0.4003  0.4997  0.3613
 4767TIP3    H114265   2.062   0.175   3.370 -0.2719  0.6281  1.2641
 4767TIP3    H214266   2.060   0.059   3.273  0.3307  1.6368  0.0173
 4768TIP3   OH214267   1.359   1.440   2.782 -0.0744  0.0086  0.0096
 4768TIP3    H114268   1.336   1.422   2.873  0.6873  0.4729  0.2966
 4768TIP3    H214269   1.437   1.495   2.787 -0.1690  0.2409 -0.9203
 4769TIP3   OH214270   5.304   0.810   1.414  0.2133 -0.2477  0.4281
 4769TIP3    H114271   5.389   0.802   1.372  0.5130  0.0966  0.9465
 4769TIP3    H214272   5.288   0.904   1.417  0.1378 -0.2738  0.9486
 4770TIP3   OH214273   6.825   2.426   1.747 -0.5200  0.2832 -0.1192
 4770TIP3    H114274   6.824   2.443   1.841  0.4850  1.4934 -0.3000
 4770TIP3    H214275   6.899   2.367   1.734  0.9046  2.0486 -0.4037
 4771TIP3   OH214276   3.223   0.174   2.911  0.3412  0.7077 -0.1798
 4771TIP3    H114277   3.312   0.139   2.919 -0.7446 -2.5430 -0.8682
 4771TIP3    H214278   3.169   0.098   2.887 -2.4478  2.7811 -1.0091
 4772TIP3   OH214279   6.665   5.421   0.458  0.2937  0.6608 -0.1883
 4772TIP3    H114280   6.604   5.349   0.474 -0.4422  1.2707 -0.1964
 4772TIP3    H214281   6.717   5.427   0.538 -1.2592  1.6716  0.7689
 4773TIP3   OH214282   4.913   4.698   1.404 -0.0756  0.1232 -0.1812
 4773TIP3    H114283   4.941   4.744   1.483 -0.4568 -1.1014  0.6929
 4773TIP3    H214284   4.846   4.755   1.365 -1.0332  0.0202  1.2409
 4774TIP3   OH214285   6.837   4.355   1.486  0.2674 -0.9010  0.3618
 4774TIP3    H114286   6.743   4.360   1.503 -0.1247 -1.4317 -1.3437
 4774TIP3    H214287   6.854   4.262   1.474  1.5808 -1.1313  3.1853
 4775TIP3   OH214288   5.431   3.898   4.763 -0.6199  0.5823  0.9877
 4775TIP3    H114289   5.446   3.818   4.813 -0.3897 -0.8559 -1.2130
 4775TIP3    H214290   5.488   3.890   4.686 -1.3808  2.3609  0.1614
 4776TIP3   OH214291   4.244   3.191   4.760 -0.6503 -0.3772  0.2806
 4776TIP3    H114292   4.197   3.135   4.823 -1.4427 -0.2343 -0.1732
 4776TIP3    H214293   4.177   3.218   4.697 -0.1450  0.5725  0.1289
 4777TIP3   OH214294   2.030   1.124   2.686 -0.0727 -0.1963 -0.0285
 4777TIP3    H114295   1.939   1.140   2.711  0.1293 -0.2321  0.7665
 4777TIP3    H214296   2.070   1.211   2.684 -0.0283 -0.2154  0.0214
 4778TIP3   OH214297   6.884   0.691   1.415  0.2934 -0.1980  0.3939
 4778TIP3    H114298   6.944   0.706   1.341  0.7266  0.9956  0.9482
 4778TIP3    H214299   6.834   0.614   1.391  2.3354 -1.4986  0.0743
 4779TIP3   OH214300   5.596   5.319   4.059  0.8042  0.6264 -0.3969
 4779TIP3    H114301   5.634   5.303   4.145  0.3667 -1.5096 -0.5438
 4779TIP3    H214302   5.653   5.271   3.998 -1.5030 -1.9843 -0.7044
 4780TIP3   OH214303   6.503   1.088   5.563  0.0029  0.3459  0.6929
 4780TIP3    H114304   6.525   1.181   5.564  1.4068  0.0624 -0.3256
 4780TIP3    H214305   6.556   1.052   5.492 -0.4659 -1.2525  1.1164
 4781TIP3   OH214306   7.130   0.143   3.160 -0.3207  0.1187 -0.0200
 4781TIP3    H114307   7.216   0.104   3.177 -0.3502 -0.4670 -1.1488
 4781TIP3    H214308   7.142   0.194   3.079 -0.6032  1.4693  0.7467
 4782TIP3   OH214309   6.735   5.768   1.512 -0.3584  0.0907  0.5598
 4782TIP3    H114310   6.696   5.827   1.576 -1.2377 -0.8603  0.9379
 4782TIP3    H214311   6.780   5.825   1.450 -2.0209  1.2138  0.3383
 4783TIP3   OH214312   3.651   2.179   5.481  0.4875  0.6056  0.4117
 4783TIP3    H114313   3.670   2.272   5.490 -0.8172  1.1061 -1.4436
 4783TIP3    H214314   3.575   2.175   5.423  0.6598 -1.6258  0.2365
 4784TIP3   OH214315   1.449   0.270   1.360  0.0436 -0.1378 -0.4257
 4784TIP3    H114316   1.376   0.208   1.350 -0.0542 -0.4914  1.9015
 4784TIP3    H214317   1.419   0.331   1.429  1.4936  0.3852 -0.2361
 4785TIP3   OH214318   5.075   3.388   2.853 -0.2537 -0.2614 -0.5864
 4785TIP3    H114319   5.068   3.293   2.845  1.2498 -0.3209 -1.7507
 4785TIP3    H214320   5.168   3.406   2.840 -0.1782  1.2361  1.4494
 4786TIP3   OH214321   3.263   5.089   5.316 -0.1192 -0.3845  0.4847
 4786TIP3    H114322   3.207   5.040   5.377 -0.4189 -1.1322 -0.3604
 4786TIP3    H214323   3.352   5.073   5.348 -0.2236 -1.3553  0.3413
 4787TIP3   OH214324   5.572   0.327   0.663  0.0580 -0.8226  0.7195
 4787TIP3    H114325   5.535   0.240   0.680 -2.8011  0.7011  3.1350
 4787TIP3    H214326   5.520   0.362   0.590  0.5342 -0.7205  0.4195
 4788TIP3   OH214327   6.124   0.851   1.937 -0.0447  0.1107 -0.4546
 4788TIP3    H114328   6.086   0.770   1.970 -1.1420  0.6584 -0.3113
 4788TIP3    H214329   6.186   0.878   2.005 -0.5907  0.0264  0.0880
 4789TIP3   OH214330   0.769   6.464   3.211 -0.2052  0.6564  0.3635
 4789TIP3    H114331   0.742   6.494   3.124 -1.2253 -0.4241  0.2813
 4789TIP3    H214332   0.731   6.376   3.219  1.3789  0.0095  1.2030
 4790TIP3   OH214333   2.015   2.765   0.723  0.5817 -0.3911 -0.1291
 4790TIP3    H114334   2.009   2.849   0.767  0.3309 -0.6025  0.2452
 4790TIP3    H214335   2.007   2.700   0.793 -2.8700 -0.7939 -0.7381
 4791TIP3   OH214336   4.879   2.671   3.599  0.3700  0.3103 -0.1152
 4791TIP3    H114337   4.869   2.581   3.568  0.8768  0.2006  0.0412
 4791TIP3    H214338   4.891   2.723   3.520 -0.9439  0.3878 -0.2905
 4792TIP3   OH214339   6.341   5.974   3.913 -0.0832  0.1245  0.0226
 4792TIP3    H114340   6.362   6.054   3.962 -1.5801  0.7440 -0.2926
 4792TIP3    H214341   6.316   5.911   3.981 -2.3533  1.0447  0.1431
 4793TIP3   OH214342   3.581   0.938   1.895  0.0351  0.5490 -0.0491
 4793TIP3    H114343   3.514   0.956   1.961  0.8663  3.6807  0.1060
 4793TIP3    H214344   3.532   0.923   1.814 -0.9278  1.7855  0.2707
 4794TIP3   OH214345   4.269   3.494   3.744 -0.1793 -0.0375 -0.3763
 4794TIP3    H114346   4.343   3.492   3.684 -1.2589  2.8081 -1.9818
 4794TIP3    H214347   4.258   3.586   3.767 -0.8937 -0.8111  2.9344
 4795TIP3   OH214348   6.536   6.220   3.327 -0.2747 -0.0172  0.2437
 4795TIP3    H114349   6.555   6.230   3.420 -1.9835  0.5571  0.5623
 4795TIP3    H214350   6.622   6.209   3.286  0.4484 -1.2537  1.9803
 4796TIP3   OH214351   3.680   3.188   0.868 -0.5226 -0.3466  0.0306
 4796TIP3    H114352   3.662   3.150   0.782 -0.9251  0.1584 -0.1133
 4796TIP3    H214353   3.766   3.153   0.892 -0.2217 -0.1608 -0.7574
 4797TIP3   OH214354   0.611   5.225   1.456 -0.2962 -0.3238  0.0096
 4797TIP3    H114355   0.520   5.230   1.486 -0.1187 -0.4555  0.5683
 4797TIP3    H214356   0.652   5.304   1.489 -0.2219 -0.2298 -0.3031
 4798TIP3   OH214357   3.252   5.485   3.718  0.1173  0.1829  0.0804
 4798TIP3    H114358   3.193   5.550   3.679 -0.4382 -0.5254 -0.2722
 4798TIP3    H214359   3.305   5.535   3.780  0.5401  1.2141 -1.0593
 4799TIP3   OH214360   0.345   5.329   2.550 -0.2943  0.1899 -0.2314
 4799TIP3    H114361   0.373   5.354   2.462 -0.2817 -1.0662 -0.6013
 4799TIP3    H214362   0.324   5.236   2.543 -2.6864  0.6097  0.4831
 4800TIP3   OH214363   6.621   0.415   1.561 -0.1836 -0.0681 -0.2134
 4800TIP3    H114364   6.540   0.445   1.603  0.0690  0.1480  0.1168
 4800TIP3    H214365   6.592   0.383   1.475 -0.4270  1.3573 -0.6881
 4801TIP3   OH214366   5.022   1.680   2.641 -0.5581 -0.5399 -0.0905
 4801TIP3    H114367   5.005   1.645   2.729 -0.0858  0.4659  0.4188
 4801TIP3    H214368   4.957   1.749   2.631 -0.3115 -0.3497 -0.3526
 4802TIP3   OH214369   5.686   0.035   1.713 -0.0856 -0.1783 -0.0581
 4802TIP3    H114370   5.700  -0.016   1.792 -1.1412 -0.0291  0.2413
 4802TIP3    H214371   5.616  -0.012   1.667  1.5375 -1.1390 -1.6806
 4803TIP3   OH214372   3.434   0.627   1.688  0.1679  0.0771  0.0985
 4803TIP3    H114373   3.359   0.628   1.629  1.0125 -0.0054 -1.0123
 4803TIP3    H214374   3.458   0.719   1.699  0.5337  0.0420 -0.3842
 4804TIP3   OH214375   0.999   4.760   0.811 -0.4952  0.5665 -0.0026
 4804TIP3    H114376   1.073   4.813   0.841  0.7621 -1.3714  0.4470
 4804TIP3    H214377   0.958   4.728   0.891  1.3429 -2.5373 -0.1643
 4805TIP3   OH214378   5.643   5.803   4.462  0.0195  0.3603  0.0240
 4805TIP3    H114379   5.734   5.827   4.478 -0.0508  0.1982  0.6719
 4805TIP3    H214380   5.629   5.725   4.515 -0.9268  1.2320  1.1098
 4806TIP3   OH214381   5.509   5.687   2.497 -0.4416  0.6000 -0.2211
 4806TIP3    H114382   5.567   5.634   2.442  0.2225  0.8423  0.2172
 4806TIP3    H214383   5.549   5.682   2.585 -1.5846  0.0602  0.2819
 4807TIP3   OH214384   5.459   3.477   1.900 -0.1849  0.4914  0.1717
 4807TIP3    H114385   5.473   3.557   1.848  0.0661  1.3657  1.5382
 4807TIP3    H214386   5.421   3.508   1.982 -2.9223 -1.1058 -0.3819
 4808TIP3   OH214387   2.036   0.069   0.207  0.3560  0.0056 -0.2337
 4808TIP3    H114388   1.944   0.051   0.228  0.2932  1.3189  0.7664
 4808TIP3    H214389   2.060   0.001   0.144 -0.9796 -1.0147  0.3042
 4809TIP3   OH214390   3.276   6.100   3.459 -0.3875  0.5218 -0.2526
 4809TIP3    H114391   3.327   6.180   3.461 -1.6374  1.3469 -0.3428
 4809TIP3    H214392   3.206   6.116   3.395 -0.0113 -1.0601 -1.1183
 4810TIP3   OH214393   6.769   2.905   4.451  0.6055 -0.2907 -0.0129
 4810TIP3    H114394   6.717   2.986   4.444  3.3572  1.4880 -1.4005
 4810TIP3    H214395   6.850   2.932   4.493  1.1890 -2.6122  0.4896
 4811TIP3   OH214396   7.138   0.098   2.470 -0.0275 -0.5479 -0.2165
 4811TIP3    H114397   7.159   0.007   2.490  0.2140 -0.6683 -0.9947
 4811TIP3    H214398   7.223   0.143   2.475 -0.0045 -0.5361 -0.7508
 4812TIP3   OH214399   0.298   6.139   4.377 -0.2802 -0.0760 -0.4342
 4812TIP3    H114400   0.340   6.083   4.442  1.0418 -1.1106 -2.1023
 4812TIP3    H214401   0.321   6.228   4.404  1.4646 -0.5375 -0.2558
 4813TIP3   OH214402   2.328   5.216   2.091  0.0321 -0.5922  0.7645
 4813TIP3    H114403   2.365   5.266   2.018 -1.0073  2.3857  2.1163
 4813TIP3    H214404   2.311   5.129   2.055  0.5045  0.4496 -2.2133
 4814TIP3   OH214405   2.601   4.554   2.880  0.9563  0.2215 -0.2759
 4814TIP3    H114406   2.657   4.620   2.920  2.9146 -1.6204  0.2573
 4814TIP3    H214407   2.659   4.478   2.869 -0.9566 -1.1329 -1.6076
 4815TIP3   OH214408   5.460   2.460   1.213 -0.5279 -0.3735 -0.7254
 4815TIP3    H114409   5.398   2.406   1.263 -1.7676  0.4770 -1.2858
 4815TIP3    H214410   5.465   2.419   1.127 -0.8805 -0.0374 -0.9092
 4816TIP3   OH214411   0.221   4.131   3.210 -0.2218  0.2496 -0.4623
 4816TIP3    H114412   0.270   4.175   3.281  0.3152 -1.1692  0.0770
 4816TIP3    H214413   0.278   4.059   3.184 -1.6747 -0.9595 -0.3769
 4817TIP3   OH214414   1.101   5.856   1.807  0.3770  0.6614 -0.1454
 4817TIP3    H114415   1.009   5.831   1.809  0.3196  0.8785 -0.0729
 4817TIP3    H214416   1.116   5.902   1.889  0.5913  0.4860 -0.0832
 4818TIP3   OH214417   6.523   3.926   4.681 -0.4574 -0.2089 -0.1802
 4818TIP3    H114418   6.601   3.916   4.626  1.3599  4.0451  1.2240
 4818TIP3    H214419   6.456   3.960   4.622 -0.3773 -1.1112 -0.8158
 4819TIP3   OH214420   3.763   4.395   4.603  0.0965  0.4649 -0.7402
 4819TIP3    H114421   3.762   4.483   4.641 -1.5886  0.3905 -0.5277
 4819TIP3    H214422   3.671   4.369   4.602  0.6694 -1.8072  0.3396
 4820TIP3   OH214423   4.897   3.823   0.025 -0.0920  0.2038  0.0419
 4820TIP3    H114424   4.899   3.845  -0.068 -0.5659  0.4068  0.0766
 4820TIP3    H214425   4.989   3.810   0.049 -0.0518 -1.4660 -0.8364
 4821TIP3   OH214426   6.542   2.379   1.954  0.0436  0.1421 -0.0717
 4821TIP3    H114427   6.589   2.299   1.930  0.1226  0.6528 -1.8088
 4821TIP3    H214428   6.450   2.357   1.942  0.0556  0.2498 -0.3741
 4822TIP3   OH214429   4.811   2.466   2.439 -0.9188 -0.0836 -0.3043
 4822TIP3    H114430   4.900   2.497   2.456 -1.1451  1.0956 -1.0978
 4822TIP3    H214431   4.815   2.429   2.351 -1.4377  0.9802 -0.7895
 4823TIP3   OH214432   5.635   4.247   4.776 -0.4208  0.0695  0.4327
 4823TIP3    H114433   5.629   4.207   4.689 -0.5426  1.7927 -0.3883
 4823TIP3    H214434   5.658   4.339   4.759 -1.0458  0.5876  2.1887
 4824TIP3   OH214435   6.053   5.598   4.658  0.3754 -0.2995 -0.0717
 4824TIP3    H114436   6.109   5.546   4.600  1.8555  0.5647  0.5459
 4824TIP3    H214437   5.986   5.634   4.600  0.2547 -1.5812 -0.7739
 4825TIP3   OH214438   0.024   2.747   2.914 -0.3060 -0.0667  0.2461
 4825TIP3    H114439  -0.008   2.836   2.905 -1.0554 -0.2156  1.1742
 4825TIP3    H214440   0.113   2.757   2.948 -0.1549  0.3353 -0.2682
 4826TIP3   OH214441   2.944   4.602   4.499 -0.4931 -0.4330 -0.5434
 4826TIP3    H114442   2.944   4.519   4.546  1.4844  0.1392  0.5922
 4826TIP3    H214443   3.000   4.585   4.422 -1.9405 -0.7525 -1.5609
 4827TIP3   OH214444   2.142   6.276   5.694  0.6572  0.1133  0.6271
 4827TIP3    H114445   2.079   6.208   5.670  0.2615  0.8607 -0.5419
 4827TIP3    H214446   2.223   6.229   5.713  0.7863 -0.6154 -1.5284
 4828TIP3   OH214447   5.760   3.387   4.060 -0.3345 -0.1399 -0.2904
 4828TIP3    H114448   5.804   3.470   4.081 -1.8875 -0.0051  3.0899
 4828TIP3    H214449   5.822   3.320   4.088  0.0162 -0.1183 -0.9772
 4829TIP3   OH214450   0.592   0.309   5.715  0.0153  0.0369 -0.3844
 4829TIP3    H114451   0.624   0.303   5.626  1.9669 -2.9823  0.3971
 4829TIP3    H214452   0.560   0.221   5.736 -3.3001  1.3802  0.9700
 4830TIP3   OH214453   5.897   0.888   5.670  0.5610  0.1218  0.1485
 4830TIP3    H114454   5.980   0.840   5.669  0.1903 -0.5698 -1.4902
 4830TIP3    H214455   5.830   0.820   5.666 -0.0670  0.7052  0.6220
 4831TIP3   OH214456   5.296   4.238   2.956  0.1861  0.0525 -0.5784
 4831TIP3    H114457   5.365   4.267   2.897  0.2509  4.1075  1.1532
 4831TIP3    H214458   5.343   4.209   3.035 -0.0153  0.7815 -0.1844
 4832TIP3   OH214459   6.797   2.940   5.837  0.4992  0.0075 -0.0788
 4832TIP3    H114460   6.756   2.963   5.754 -0.9249 -1.0066  0.2999
 4832TIP3    H214461   6.867   2.879   5.814  0.3301 -0.0016 -0.5751
 4833TIP3   OH214462   4.953   5.036   1.311  0.2038 -0.1508 -0.2248
 4833TIP3    H114463   4.870   4.988   1.311  0.4621 -0.6056  0.4559
 4833TIP3    H214464   5.020   4.969   1.323  0.6525  0.2577 -0.3950
 4834TIP3   OH214465   2.619   4.988   1.037 -0.2898  0.3090 -0.0634
 4834TIP3    H114466   2.556   4.919   1.016  0.7586 -0.6072 -0.3303
 4834TIP3    H214467   2.696   4.966   0.985 -0.2064  2.1740 -0.7907
 4835TIP3   OH214468   5.898   1.452   1.982 -0.0103 -0.5381  0.0471
 4835TIP3    H114469   5.932   1.532   2.023 -1.0613 -0.4959  0.8687
 4835TIP3    H214470   5.879   1.478   1.892 -1.0601  0.3722  0.5083
 4836TIP3   OH214471   6.550   6.628   4.307  0.1569  0.0493 -0.9502
 4836TIP3    H114472   6.581   6.601   4.220 -0.1410 -0.5119 -0.8874
 4836TIP3    H214473   6.455   6.636   4.297  0.3679  2.9782 -1.4783
 4837TIP3   OH214474   1.843   2.143   4.165  1.0708  0.0012 -0.1090
 4837TIP3    H114475   1.767   2.181   4.121  2.3107  1.2994 -1.2554
 4837TIP3    H214476   1.825   2.049   4.166 -0.2720  0.2193 -0.8900
 4838TIP3   OH214477   6.758   5.285   0.105  0.4020  0.1138  0.6610
 4838TIP3    H114478   6.824   5.353   0.118 -0.4174  1.0171  0.2263
 4838TIP3    H214479   6.808   5.204   0.097  1.4440  0.7506  0.5556
 4839TIP3   OH214480   0.247   4.747   3.415 -0.4480 -0.2810  0.4185
 4839TIP3    H114481   0.250   4.720   3.506 -2.4728  1.5420  1.1148
 4839TIP3    H214482   0.314   4.815   3.408 -0.7319  0.0451  0.7654
 4840TIP3   OH214483   5.669   5.572   1.667 -0.0621 -0.1765 -0.1903
 4840TIP3    H114484   5.645   5.652   1.620 -0.4065  1.0693  1.9636
 4840TIP3    H214485   5.746   5.596   1.718 -0.0593 -1.2801  0.3655
 4841TIP3   OH214486   3.623   1.444   1.155 -0.4326 -0.0881  0.1909
 4841TIP3    H114487   3.534   1.419   1.180 -0.3468 -0.0277  0.5665
 4841TIP3    H214488   3.652   1.501   1.227 -0.0159 -0.2736  0.1682
 4842TIP3   OH214489   0.344   5.921   1.176 -0.0393 -0.4095 -0.7647
 4842TIP3    H114490   0.250   5.933   1.160 -0.7931 -1.2207  2.3687
 4842TIP3    H214491   0.366   5.988   1.240  1.9557  0.6946 -2.4789
 4843TIP3   OH214492   3.132   4.169   0.937  0.0136  0.4584  0.6247
 4843TIP3    H114493   3.044   4.150   0.967  1.2341 -2.1606  2.9555
 4843TIP3    H214494   3.172   4.217   1.010  1.1443 -0.3871  0.5891
 4844TIP3   OH214495   3.070   2.234   4.486 -0.4601  0.4065  0.1239
 4844TIP3    H114496   3.025   2.288   4.422  0.4756 -0.1366 -1.0216
 4844TIP3    H214497   3.135   2.186   4.436 -1.2738 -1.8313  1.0855
 4845TIP3   OH214498   5.943   4.692   1.661  0.3874 -0.3156  0.2497
 4845TIP3    H114499   5.985   4.777   1.671 -2.2829  1.1741 -0.1079
 4845TIP3    H214500   5.985   4.653   1.585  1.0237  1.1279 -0.1731
 4846TIP3   OH214501   5.951   1.694   1.805  0.0357  0.5352 -0.0850
 4846TIP3    H114502   6.028   1.748   1.818  0.0773  0.5480 -0.3895
 4846TIP3    H214503   5.972   1.639   1.729 -1.0100  1.9263 -1.4437
 4847TIP3   OH214504   3.086   2.970   3.840 -0.4200  0.3258 -0.6077
 4847TIP3    H114505   2.999   2.990   3.806 -1.2628 -0.0412  1.2301
 4847TIP3    H214506   3.102   3.038   3.906  0.4952  0.1103 -0.5925
 4848TIP3   OH214507   5.971   5.250   2.124  0.0955 -0.1994  0.1619
 4848TIP3    H114508   6.051   5.198   2.127 -0.6831 -1.4160  0.6765
 4848TIP3    H214509   5.954   5.262   2.030 -0.1386 -1.5936  0.0043
 4849TIP3   OH214510   0.534   0.383   2.729  0.3140  0.2313  0.1208
 4849TIP3    H114511   0.549   0.445   2.657 -1.3286  0.7950  0.2041
 4849TIP3    H214512   0.494   0.307   2.687  2.3250 -0.8254  0.0206
 4850TIP3   OH214513   6.846   1.905   3.031  0.0310  0.4601 -0.1532
 4850TIP3    H114514   6.806   1.860   3.106  0.1230 -0.0975 -0.4306
 4850TIP3    H214515   6.907   1.967   3.070 -0.3256  0.5635  0.2496
 4851TIP3   OH214516   2.927   4.991   0.697  0.3176 -0.3348  0.5798
 4851TIP3    H114517   2.940   4.958   0.786 -1.4098  0.0024  0.9992
 4851TIP3    H214518   2.858   5.058   0.706  1.2042  0.8255 -0.7816
 4852TIP3   OH214519   1.116   3.319   2.390  0.3527  0.1716 -0.1324
 4852TIP3    H114520   1.165   3.281   2.463 -0.9752  0.8461  1.1618
 4852TIP3    H214521   1.162   3.400   2.369 -0.7521  1.3603  1.8035
 4853TIP3   OH214522   6.016   3.899   1.395  0.0729  0.2009  0.0175
 4853TIP3    H114523   6.067   3.844   1.336 -0.2071  0.0081 -0.0481
 4853TIP3    H214524   6.032   3.863   1.482  0.0390  0.1360 -0.0037
 4854TIP3   OH214525   1.758   0.452   5.380 -0.7690 -0.1464 -0.2709
 4854TIP3    H114526   1.683   0.460   5.322  0.1565  1.3472 -1.3486
 4854TIP3    H214527   1.833   0.445   5.321 -0.0378 -1.8834  0.7685
 4855TIP3   OH214528   1.451   3.431   3.995  0.3694  0.1328  0.1053
 4855TIP3    H114529   1.494   3.502   3.948  0.5514 -0.0921 -0.0721
 4855TIP3    H214530   1.470   3.448   4.087 -0.7488  1.0813  0.1800
 4856TIP3   OH214531   6.225   0.992   1.114 -0.4521 -0.0310  0.1344
 4856TIP3    H114532   6.285   0.962   1.046 -0.1215  0.5200  0.1718
 4856TIP3    H214533   6.281   1.041   1.174 -0.5331 -1.4144  1.3957
 4857TIP3   OH214534   5.751   2.105   3.888  0.3613 -0.3027  0.4466
 4857TIP3    H114535   5.727   2.012   3.892  0.5742 -0.5538 -2.4295
 4857TIP3    H214536   5.679   2.147   3.842  0.1795  1.0401  1.8826
 4858TIP3   OH214537   2.391   4.726   5.675 -0.2612  0.1814 -0.4931
 4858TIP3    H114538   2.307   4.755   5.641 -0.3856  0.8807  0.3768
 4858TIP3    H214539   2.369   4.662   5.743 -0.1102  0.6143 -0.0306
 4859TIP3   OH214540   2.603   6.502   3.963  0.4615 -0.0088 -0.3967
 4859TIP3    H114541   2.664   6.465   3.898  3.3544  1.3031  1.3660
 4859TIP3    H214542   2.603   6.439   4.034  0.2750  0.3137 -0.1082
 4860TIP3   OH214543   2.555   0.571   4.996 -0.0162 -0.6827 -0.0087
 4860TIP3    H114544   2.472   0.572   5.044 -0.8821 -1.4043 -1.4247
 4860TIP3    H214545   2.557   0.654   4.949  1.3381  0.5223  1.9691
 4861TIP3   OH214546   3.534   5.354   1.105 -0.1853 -0.5782  0.0685
 4861TIP3    H114547   3.522   5.365   1.200 -0.4271  0.8029 -0.0947
 4861TIP3    H214548   3.628   5.362   1.092 -0.1593 -0.6925  0.1765
 4862TIP3   OH214549   6.746   0.450   4.928 -0.5865  0.1741  0.2318
 4862TIP3    H114550   6.765   0.496   5.010 -2.5133 -0.2366  0.9704
 4862TIP3    H214551   6.769   0.513   4.860  0.6189  0.6988  1.0734
 4863TIP3   OH214552   2.161   4.640   4.795  0.4050 -0.2688  0.4415
 4863TIP3    H114553   2.175   4.583   4.871  1.4741  0.2104  0.6266
 4863TIP3    H214554   2.102   4.591   4.738 -0.3147 -0.6831  1.5285
 4864TIP3   OH214555   3.712   4.581   4.352  0.0867  0.5659  0.7992
 4864TIP3    H114556   3.687   4.495   4.387 -0.0698  0.3320  0.1337
 4864TIP3    H214557   3.700   4.572   4.258  0.1797  1.2890  0.7161
 4865TIP3   OH214558   1.517   5.618   5.090  0.4677 -0.1841 -0.2857
 4865TIP3    H114559   1.504   5.537   5.040 -0.3279  0.9478 -2.0087
 4865TIP3    H214560   1.513   5.688   5.024  0.0882  1.3406  1.2756
 4866TIP3   OH214561   1.914   4.311   3.328 -0.5624  0.1787 -0.3745
 4866TIP3    H114562   1.948   4.316   3.238 -0.8634 -1.1358 -0.5746
 4866TIP3    H214563   1.990   4.330   3.383 -0.5824  1.9714 -0.8988
 4867TIP3   OH214564   5.880   6.629   3.011  0.0021  0.3662  0.0480
 4867TIP3    H114565   5.908   6.590   3.094 -1.4024  0.7699  0.7459
 4867TIP3    H214566   5.836   6.559   2.964  0.7194  0.1608 -0.3196
 4868TIP3   OH214567   1.894   5.456   1.942  0.0658 -0.1818 -0.2049
 4868TIP3    H114568   1.975   5.504   1.928 -0.1451  0.1579 -0.2824
 4868TIP3    H214569   1.849   5.460   1.858 -0.0324 -0.3621 -0.1605
 4869TIP3   OH214570   6.461   3.823   0.854 -0.3161 -0.1130  0.7629
 4869TIP3    H114571   6.444   3.879   0.930  0.8811 -0.4254  1.2842
 4869TIP3    H214572   6.472   3.735   0.891  0.7900 -0.1872  0.3121
 4870TIP3   OH214573   6.467   4.085   2.624  0.0572 -0.1444  0.4127
 4870TIP3    H114574   6.469   4.090   2.719  4.3044  1.3423  0.4710
 4870TIP3    H214575   6.455   4.176   2.596 -0.6431 -0.5030 -0.4880
 4871TIP3   OH214576   1.380   5.371   0.595  0.2535  0.0931 -0.1213
 4871TIP3    H114577   1.306   5.423   0.566  0.5159 -0.6264 -2.2442
 4871TIP3    H214578   1.348   5.326   0.673 -2.3861 -1.9198 -2.1652
 4872TIP3   OH214579   4.527   0.431   4.892 -0.0632  0.5045  0.0081
 4872TIP3    H114580   4.449   0.458   4.843  0.6413  0.5581 -1.1212
 4872TIP3    H214581   4.591   0.500   4.874  0.4631  0.1072  0.3614
 4873TIP3   OH214582   4.649   5.823   1.447  0.2406  0.4546  0.6485
 4873TIP3    H114583   4.616   5.747   1.398 -0.3593 -0.8752  2.9863
 4873TIP3    H214584   4.597   5.897   1.413  1.6965  0.1928 -2.5721
 4874TIP3   OH214585   0.698   4.876   3.136  0.2328 -0.6683 -0.2045
 4874TIP3    H114586   0.720   4.783   3.131 -0.2274 -0.8415  0.7565
 4874TIP3    H214587   0.679   4.892   3.228 -0.4300  0.2044 -0.4698
 4875TIP3   OH214588   3.860   0.936   4.298  0.6823 -0.3131 -0.7645
 4875TIP3    H114589   3.809   0.870   4.250 -0.2578 -1.2984  1.4542
 4875TIP3    H214590   3.807   1.015   4.294 -1.4421 -1.4397  1.9044
 4876TIP3   OH214591   2.255   3.958   2.870 -0.4813 -0.3565  0.1435
 4876TIP3    H114592   2.262   3.982   2.962 -1.5925 -1.3256  0.4986
 4876TIP3    H214593   2.189   4.018   2.834  0.7230  0.7552 -0.3221
 4877TIP3   OH214594   5.740   5.171   4.774 -0.3102 -0.6177 -0.6443
 4877TIP3    H114595   5.699   5.094   4.814  2.1856 -1.1450  1.1389
 4877TIP3    H214596   5.753   5.231   4.847  1.2169 -0.1286 -1.2875
 4878TIP3   OH214597   5.923   5.132   0.543  0.1380 -0.5996 -0.1380
 4878TIP3    H114598   6.017   5.130   0.561 -0.1527 -1.9298  1.4659
 4878TIP3    H214599   5.909   5.065   0.476  0.1987 -1.2931  0.5245
 4879TIP3   OH214600   5.174   0.067   1.093 -0.0711 -0.3441  0.1082
 4879TIP3    H114601   5.264   0.095   1.079 -0.6814  1.0556 -1.2218
 4879TIP3    H214602   5.120   0.142   1.067 -1.6086 -0.5507  2.3565
 4880TIP3   OH214603   0.620   3.650   2.080 -0.4350 -0.2295 -0.1512
 4880TIP3    H114604   0.684   3.648   2.151 -0.2241 -0.9370 -0.3532
 4880TIP3    H214605   0.673   3.662   2.000 -0.7772  2.2463 -0.0842
 4881TIP3   OH214606   2.375   3.445   4.720 -0.7571  0.1031  0.5343
 4881TIP3    H114607   2.303   3.493   4.679  0.1220 -0.3142 -1.6698
 4881TIP3    H214608   2.375   3.360   4.676  0.2035 -0.4254  1.5138
 4882TIP3   OH214609   1.587   6.462   1.864 -0.1309  0.2898 -0.0155
 4882TIP3    H114610   1.632   6.414   1.934 -1.2139 -0.1849  0.3696
 4882TIP3    H214611   1.535   6.528   1.910  0.1294  0.7982 -0.4530
 4883TIP3   OH214612   3.448   6.584   3.148  0.3947  1.0289 -0.3157
 4883TIP3    H114613   3.364   6.569   3.106  0.7545 -0.2923 -0.5910
 4883TIP3    H214614   3.473   6.672   3.120 -0.2930  0.9298 -1.2699
 4884TIP3   OH214615   2.136   4.367   0.093  0.6554  0.1021 -1.0206
 4884TIP3    H114616   2.220   4.412   0.085  0.3145  0.7601 -0.9644
 4884TIP3    H214617   2.159   4.275   0.105  1.3860  0.3622 -0.3694
 4885TIP3   OH214618   1.410   6.346   1.662  0.1707 -0.1120  0.1062
 4885TIP3    H114619   1.464   6.304   1.595  0.5231  0.2708  0.1481
 4885TIP3    H214620   1.472   6.396   1.715  0.3285 -2.5581  2.4388
 4886TIP3   OH214621   1.650   3.977   3.713  0.2613  0.6269 -0.3795
 4886TIP3    H114622   1.640   4.002   3.805  0.3964  1.3234 -0.5523
 4886TIP3    H214623   1.560   3.967   3.681  0.1915 -1.5743  0.3331
 4887TIP3   OH214624   6.369   3.976   5.702 -0.6660  0.1656 -0.1492
 4887TIP3    H114625   6.288   3.945   5.741 -1.2321  0.3828 -1.0999
 4887TIP3    H214626   6.423   3.898   5.692 -1.2350 -0.1806 -0.5908
 4888TIP3   OH214627   0.708   3.178   1.234 -0.4174  0.4925 -0.7381
 4888TIP3    H114628   0.743   3.232   1.163  1.8663 -2.0175 -1.7284
 4888TIP3    H214629   0.723   3.228   1.313 -1.7218  2.7673 -1.8365
 4889TIP3   OH214630   5.802   5.861   4.924 -0.2039 -0.2444 -0.6572
 4889TIP3    H114631   5.887   5.831   4.892  0.1664 -1.6107  1.3877
 4889TIP3    H214632   5.750   5.781   4.933 -0.9214  0.2981  0.2124
 4890TIP3   OH214633   1.260   2.966   5.572 -0.4834 -0.2253  0.5528
 4890TIP3    H114634   1.176   3.011   5.577 -0.1330  0.4460  0.5256
 4890TIP3    H214635   1.320   3.022   5.621 -0.0639 -0.7264  0.6140
 4891TIP3   OH214636   6.630   1.069   3.870  0.8014  0.0323 -0.4880
 4891TIP3    H114637   6.558   1.057   3.932  0.9292  2.6436  0.2831
 4891TIP3    H214638   6.595   1.037   3.787 -1.4802  1.6572 -0.2564
 4892TIP3   OH214639   4.251   1.911   5.323 -0.6655 -0.0163  0.3937
 4892TIP3    H114640   4.290   1.824   5.321  0.3066  0.4171  0.0090
 4892TIP3    H214641   4.224   1.922   5.414 -1.1438 -0.8591  0.3687
 4893TIP3   OH214642   2.672   3.619   0.847  0.1881 -0.1013  0.2308
 4893TIP3    H114643   2.650   3.565   0.922  2.0874  0.3193  1.1310
 4893TIP3    H214644   2.764   3.602   0.830  0.8884  2.7786  0.5505
 4894TIP3   OH214645   3.924   4.730   2.602 -0.2918 -0.1978 -0.1456
 4894TIP3    H114646   3.914   4.755   2.510 -1.4482 -0.6428 -0.1541
 4894TIP3    H214647   3.838   4.747   2.641  0.0312 -0.5229  0.7290
 4895TIP3   OH214648   2.104   6.380   1.993  0.1567  0.2961  0.0094
 4895TIP3    H114649   2.039   6.405   1.928 -0.3629 -1.9556 -0.4192
 4895TIP3    H214650   2.066   6.405   2.076 -0.5809  0.3913 -0.3480
 4896TIP3   OH214651   0.434   2.319   4.933 -0.3300 -0.3643 -0.5102
 4896TIP3    H114652   0.443   2.373   5.012  1.2398  0.7880 -1.4169
 4896TIP3    H214653   0.524   2.304   4.904 -0.8455 -1.4308 -1.6627
 4897TIP3   OH214654   6.646   6.078   0.720 -0.5797 -0.2055  0.6996
 4897TIP3    H114655   6.741   6.093   0.714 -0.6856  0.8353  1.4354
 4897TIP3    H214656   6.615   6.143   0.783 -1.8714 -0.2051  0.0883
 4898TIP3   OH214657   2.775   5.638   5.144 -0.3300 -0.0948 -0.5688
 4898TIP3    H114658   2.769   5.699   5.070  2.2056  0.6597 -0.2431
 4898TIP3    H214659   2.825   5.564   5.110 -0.2932 -0.3480  0.0269
 4899TIP3   OH214660   7.189   1.868   0.912  0.0563  0.0634  0.0739
 4899TIP3    H114661   7.210   1.951   0.953 -1.9919  0.7879 -0.2335
 4899TIP3    H214662   7.177   1.807   0.986 -0.5926  0.6000  0.4227
 4900TIP3   OH214663   0.552   2.131   3.613 -0.8334  0.2095 -0.0538
 4900TIP3    H114664   0.614   2.126   3.540 -1.0555 -0.3187 -0.2087
 4900TIP3    H214665   0.538   2.224   3.626 -0.3882  0.3210 -0.3453
 4901TIP3   OH214666   3.459   4.062   4.866  0.3825  0.7540 -0.1607
 4901TIP3    H114667   3.442   4.042   4.959  2.1133  0.9071  0.2162
 4901TIP3    H214668   3.498   4.149   4.867  1.0977  0.4484 -0.9636
 4902TIP3   OH214669   3.302   1.880   4.401  0.3451  1.0963  0.4303
 4902TIP3    H114670   3.359   1.865   4.476  1.4277  2.9987  0.0570
 4902TIP3    H214671   3.307   1.975   4.385 -0.3764  0.8494 -1.6119
 4903TIP3   OH214672   2.500   5.602   5.223  0.2277  0.0557  0.2017
 4903TIP3    H114673   2.575   5.544   5.214  0.4869  0.0557  2.1304
 4903TIP3    H214674   2.535   5.690   5.210  0.3478 -0.0090  0.0841
 4904TIP3   OH214675   6.101   6.151   0.152  0.3392  0.1262  0.2815
 4904TIP3    H114676   6.052   6.206   0.090  0.6901  0.3567  0.2107
 4904TIP3    H214677   6.033   6.102   0.199  0.1019 -0.8270 -0.9964
 4905TIP3   OH214678   4.961   5.884   4.362 -0.1483 -0.2590  0.4757
 4905TIP3    H114679   4.902   5.890   4.286  0.0876 -0.5464  0.2660
 4905TIP3    H214680   5.029   5.823   4.334  0.2088  0.0101  0.7452
 4906TIP3   OH214681   5.441   2.279   1.605  0.1944  0.1998 -0.0174
 4906TIP3    H114682   5.388   2.355   1.627 -0.1264  0.0887 -0.4022
 4906TIP3    H214683   5.379   2.207   1.600  0.7800 -0.6419  2.8536
 4907TIP3   OH214684   4.137   0.829   4.006 -0.1208  0.2308 -0.2793
 4907TIP3    H114685   4.228   0.857   3.994 -0.4626  1.2040 -0.6482
 4907TIP3    H214686   4.144   0.735   4.025  0.9123  0.1304 -1.0509
 4908TIP3   OH214687   4.595   0.702   5.856  0.9834 -0.3866 -1.0478
 4908TIP3    H114688   4.637   0.706   5.770  0.5417 -1.2897 -1.3203
 4908TIP3    H214689   4.611   0.612   5.886 -1.2612 -0.9721 -1.4371
 4909TIP3   OH214690   4.588   4.247   1.805 -0.1321 -0.3321  0.3166
 4909TIP3    H114691   4.628   4.266   1.721  0.0447 -1.0176  0.2441
 4909TIP3    H214692   4.540   4.166   1.792  0.0354 -0.5368  0.9222
 4910TIP3   OH214693   0.937   2.061   2.007  0.3048  0.1213  0.0223
 4910TIP3    H114694   0.873   1.994   1.984  0.5038 -0.1796  0.3269
 4910TIP3    H214695   0.889   2.143   2.004 -0.3322 -0.1902  1.1547
 4911TIP3   OH214696   1.490   6.051   5.726  0.0678  0.1598 -0.0824
 4911TIP3    H114697   1.407   6.098   5.724  0.0697  0.2410  1.0410
 4911TIP3    H214698   1.527   6.063   5.638 -0.3057  1.5771 -0.0736
 4912TIP3   OH214699   4.789   5.074   4.583  0.1997  0.3373  0.4675
 4912TIP3    H114700   4.810   5.166   4.563  0.1995 -0.0870 -1.7240
 4912TIP3    H214701   4.731   5.047   4.512  0.5608 -1.5091  0.8253
 4913TIP3   OH214702   2.172   5.728   4.135 -0.2712 -0.4100  0.3235
 4913TIP3    H114703   2.088   5.711   4.093  0.1559 -0.0995 -0.6689
 4913TIP3    H214704   2.237   5.692   4.075  0.4635  1.7074 -0.2355
 4914TIP3   OH214705   1.145   0.795   4.429 -0.1439  0.1514 -0.1444
 4914TIP3    H114706   1.092   0.745   4.492  0.0194 -0.1220 -0.2258
 4914TIP3    H214707   1.235   0.768   4.446 -0.2904 -1.9440 -2.2710
 4915TIP3   OH214708   5.741   1.427   2.201 -0.1643 -0.2141 -0.2888
 4915TIP3    H114709   5.650   1.453   2.182  0.4817  2.3624 -0.2395
 4915TIP3    H214710   5.783   1.421   2.115 -0.6967 -3.0515 -0.4388
 4916TIP3   OH214711   5.663   0.354   2.721 -0.1961  0.1737 -0.3018
 4916TIP3    H114712   5.718   0.369   2.798  0.3271  0.2562 -0.6856
 4916TIP3    H214713   5.601   0.286   2.749  0.1627  0.0098  0.1107
 4917TIP3   OH214714   3.759   2.601   3.435 -0.1605 -0.0968  0.2095
 4917TIP3    H114715   3.796   2.592   3.348 -0.8519  0.4074 -0.1472
 4917TIP3    H214716   3.720   2.516   3.454 -1.1716  0.1887 -0.5325
 4918TIP3   OH214717   1.156   2.921   1.113  0.0781  0.6537  0.0321
 4918TIP3    H114718   1.196   2.944   1.030  0.0137  0.5048 -0.0409
 4918TIP3    H214719   1.161   2.825   1.116 -1.9863  0.4800 -0.8446
 4919TIP3   OH214720   2.165   5.386   4.824  0.1279  0.3923 -0.1544
 4919TIP3    H114721   2.219   5.449   4.872  0.1205  0.5874 -0.4034
 4919TIP3    H214722   2.115   5.440   4.762  0.5285  0.0818 -0.7506
 4920TIP3   OH214723   0.607   2.278   2.465 -0.0470 -0.0843  0.0499
 4920TIP3    H114724   0.574   2.365   2.443  0.8712  0.1172 -0.5971
 4920TIP3    H214725   0.697   2.278   2.432  0.1103 -1.1206  0.4554
 4921TIP3   OH214726   2.044   2.082   4.351 -0.1515 -0.2907  0.2325
 4921TIP3    H114727   2.051   2.167   4.395 -0.1972  0.1484 -0.5857
 4921TIP3    H214728   1.966   2.091   4.296 -0.6682 -1.1809  0.8054
 4922TIP3   OH214729   4.025   3.210   4.575 -0.3299  0.1189 -0.1742
 4922TIP3    H114730   4.035   3.278   4.509 -1.1910 -1.0303 -1.5418
 4922TIP3    H214731   3.943   3.231   4.619  0.2421  0.8821  0.5498
 4923TIP3   OH214732   0.407   0.366   5.269 -0.1375 -0.2059  0.4822
 4923TIP3    H114733   0.456   0.298   5.222  0.4981  1.0467 -0.7427
 4923TIP3    H214734   0.343   0.318   5.321  2.4873 -1.9596  2.3544
 4924TIP3   OH214735   3.834   1.652   1.962  0.6603 -0.0375  0.8521
 4924TIP3    H114736   3.801   1.640   2.052 -1.0667 -1.1464  0.1294
 4924TIP3    H214737   3.766   1.703   1.918  0.8985 -0.5415 -0.1330
 4925TIP3   OH214738   1.855   5.644   2.266 -0.0221 -0.4631  0.1235
 4925TIP3    H114739   1.801   5.644   2.187  0.9774 -0.3881 -0.5694
 4925TIP3    H214740   1.828   5.723   2.314 -0.2694 -0.2388 -0.3839
 4926TIP3   OH214741   0.459   4.714   1.582  0.1469  0.5719 -0.0110
 4926TIP3    H114742   0.498   4.795   1.547 -0.4638  1.1998  0.7109
 4926TIP3    H214743   0.521   4.645   1.558  1.5813  1.5037  0.8579
 4927TIP3   OH214744   3.062   5.303   4.468  0.2475  0.4821  0.1139
 4927TIP3    H114745   2.983   5.338   4.509 -1.9084 -1.8321 -1.7365
 4927TIP3    H214746   3.107   5.380   4.433 -0.5774  1.9637  2.1234
 4928TIP3   OH214747   4.062   4.381   2.980 -0.3039  0.3961 -0.3924
 4928TIP3    H114748   4.118   4.333   2.920 -0.8656 -1.5529  0.5670
 4928TIP3    H214749   3.992   4.417   2.925  0.1109  0.0891 -1.1267
 4929TIP3   OH214750   5.582   0.984   5.776  0.4792 -0.7079 -0.5951
 4929TIP3    H114751   5.624   0.899   5.768  0.0459 -1.0660  0.6805
 4929TIP3    H214752   5.636   1.032   5.839  0.8794  0.0761 -1.5100
 4930TIP3   OH214753   0.348   0.225   2.613  0.3462  0.5150 -0.2407
 4930TIP3    H114754   0.293   0.267   2.547 -1.6298 -0.7897  0.4685
 4930TIP3    H214755   0.358   0.134   2.583  2.8387  0.8805 -0.7302
 4931TIP3   OH214756   3.784   1.049   2.060  0.0975  0.0725  0.0216
 4931TIP3    H114757   3.832   0.969   2.082 -2.2191 -1.4839 -0.2015
 4931TIP3    H214758   3.711   1.018   2.006 -0.3413  2.4832 -0.8536
 4932TIP3   OH214759   2.841   3.262   4.645 -0.2444  0.0271 -0.2414
 4932TIP3    H114760   2.936   3.277   4.648  0.2418 -2.5910 -0.5600
 4932TIP3    H214761   2.815   3.259   4.737 -0.1539  1.2377 -0.1524
 4933TIP3   OH214762   0.929   0.686   3.376  0.0407 -0.4183 -0.6479
 4933TIP3    H114763   1.005   0.637   3.408  1.6072  0.7007 -2.4415
 4933TIP3    H214764   0.930   0.768   3.426 -0.5523 -0.7588 -0.0535
 4934TIP3   OH214765   4.516   5.913   5.611  0.0398 -0.2091 -0.7695
 4934TIP3    H114766   4.585   5.950   5.666 -0.7365  0.8368 -0.4712
 4934TIP3    H214767   4.508   5.973   5.537 -0.9085 -0.0032 -0.5192
 4935TIP3   OH214768   7.033   3.558   0.974  0.0816  0.0723 -0.2062
 4935TIP3    H114769   7.114   3.585   0.930  0.4395 -0.5905  0.0288
 4935TIP3    H214770   6.982   3.516   0.905 -0.3052  0.9736 -0.4802
 4936TIP3   OH214771   1.496   0.395   1.025  0.2043 -0.1081  0.0220
 4936TIP3    H114772   1.552   0.371   1.099  1.1011 -0.1338 -0.6429
 4936TIP3    H214773   1.532   0.478   0.994 -0.0915 -0.1576 -0.4599
 4937TIP3   OH214774   0.914   1.192   4.071 -0.0742  0.2965 -0.6465
 4937TIP3    H114775   0.935   1.276   4.111 -0.7891  0.3067 -0.2687
 4937TIP3    H214776   0.881   1.213   3.984  0.9392  0.3152 -1.0332
 4938TIP3   OH214777   0.043   4.224   4.102  0.2183  0.1936  0.0393
 4938TIP3    H114778   0.004   4.202   4.186  1.0548  0.3144  0.4694
 4938TIP3    H214779   0.077   4.313   4.113 -0.6239  0.6311 -0.7789
 4939TIP3   OH214780   4.308   1.937   3.037  0.3412 -0.1855  0.2455
 4939TIP3    H114781   4.329   1.936   3.131 -0.2207 -1.7191  0.3826
 4939TIP3    H214782   4.386   1.973   2.995 -0.4108  3.3062  1.4744
 4940TIP3   OH214783   3.706   1.225   2.301  0.2054 -0.3049  0.8752
 4940TIP3    H114784   3.723   1.148   2.247 -1.6253 -0.0001 -0.2220
 4940TIP3    H214785   3.782   1.281   2.287  0.6919 -1.1006  0.2099
 4941TIP3   OH214786   6.899   0.769   4.017  0.4534  0.1560 -0.0325
 4941TIP3    H114787   6.844   0.723   3.955  1.6889  0.2477 -1.2486
 4941TIP3    H214788   6.840   0.795   4.088 -0.7580 -0.9640 -0.6008
 4942TIP3   OH214789   0.366   2.398   3.096 -0.1112  0.6495  0.1034
 4942TIP3    H114790   0.426   2.326   3.075 -0.1794  0.7653 -0.5063
 4942TIP3    H214791   0.300   2.394   3.027 -0.2974  1.0962  0.2573
 4943TIP3   OH214792   0.774   1.343   1.048 -0.6150  0.4337 -0.2411
 4943TIP3    H114793   0.755   1.304   1.134 -2.2653  0.5378 -0.5274
 4943TIP3    H214794   0.791   1.267   0.991  0.8297  0.3758  0.2114
 4944TIP3   OH214795   3.413   6.541   0.330  0.7161 -1.0156 -0.1939
 4944TIP3    H114796   3.392   6.635   0.331 -0.0878 -1.1715 -0.8707
 4944TIP3    H214797   3.356   6.504   0.397 -0.5041 -1.2983 -1.3475
 4945TIP3   OH214798   6.390   2.306   2.359  0.1060 -0.0936 -0.2970
 4945TIP3    H114799   6.435   2.258   2.290  1.3441 -0.2138  0.5577
 4945TIP3    H214800   6.298   2.305   2.333  0.2411 -2.0136 -0.8298
 4946TIP3   OH214801   3.213   6.115   3.732  0.2160 -0.1637  0.0911
 4946TIP3    H114802   3.280   6.054   3.762  0.3857  0.9635  2.1627
 4946TIP3    H214803   3.228   6.123   3.637  2.1314 -0.9575  0.2937
 4947TIP3   OH214804   4.658   5.463   5.410  0.2526  0.3701 -0.0444
 4947TIP3    H114805   4.716   5.496   5.479 -0.3529 -0.1036  0.7088
 4947TIP3    H214806   4.590   5.415   5.457 -0.5125  0.5457 -0.9374
 4948TIP3   OH214807   6.044   3.439   1.762  0.2311  0.5215 -0.6081
 4948TIP3    H114808   6.112   3.472   1.822 -0.6737 -0.1830  0.8804
 4948TIP3    H214809   5.974   3.504   1.767 -0.2945 -0.0659 -0.0156
 4949TIP3   OH214810   5.895   5.529   0.288 -0.4359  0.4698  0.1594
 4949TIP3    H114811   5.981   5.489   0.274  0.2604  1.1772  2.1639
 4949TIP3    H214812   5.835   5.455   0.297  0.2642 -0.0631  0.5162
 4950TIP3   OH214813   2.555   3.675   5.121 -0.2236  0.0405  0.3134
 4950TIP3    H114814   2.595   3.693   5.206 -2.5915 -3.2484  2.3843
 4950TIP3    H214815   2.596   3.593   5.093 -1.8180 -0.6847  0.0032
 4951TIP3   OH214816   2.070   3.392   3.841 -0.1450  0.5037 -1.0631
 4951TIP3    H114817   1.993   3.335   3.833 -0.5354  0.6182  1.2095
 4951TIP3    H214818   2.143   3.338   3.813 -0.8540 -0.0875 -1.8509
 4952TIP3   OH214819   2.164   6.035   4.833 -0.1843 -0.1754  0.1846
 4952TIP3    H114820   2.166   5.940   4.834  0.9790 -0.1817  1.6984
 4952TIP3    H214821   2.206   6.059   4.750 -0.0616 -0.9727  0.0080
 4953TIP3   OH214822   6.776   1.077   2.417  0.0923 -0.5863  0.0692
 4953TIP3    H114823   6.689   1.038   2.415 -0.6276  0.8729  1.3674
 4953TIP3    H214824   6.806   1.065   2.507  0.4356  0.5834  0.1266
 4954TIP3   OH214825   4.703   2.901   1.249  0.3135 -0.2058  0.4222
 4954TIP3    H114826   4.725   2.933   1.337  0.1397  2.1013 -0.3086
 4954TIP3    H214827   4.609   2.917   1.240  0.2161 -0.9573  0.0026
 4955TIP3   OH214828   4.172   6.344   3.205 -0.2414 -0.1762 -0.3168
 4955TIP3    H114829   4.239   6.354   3.272  0.3563 -0.8758 -0.7936
 4955TIP3    H214830   4.190   6.414   3.142 -0.5670  0.2407  0.0482
 4956TIP3   OH214831   6.514   2.052   3.590 -0.2643 -0.1191  0.7872
 4956TIP3    H114832   6.544   1.988   3.655  0.9163 -0.2844  0.1120
 4956TIP3    H214833   6.527   2.008   3.506 -3.1181 -0.4787  0.4347
 4957TIP3   OH214834   4.729   2.546   4.844  0.6164  0.4051  0.0436
 4957TIP3    H114835   4.781   2.626   4.844  0.6532  0.3930 -0.6666
 4957TIP3    H214836   4.700   2.535   4.934  2.1665  0.1883  0.5393
 4958TIP3   OH214837   4.539   6.116   0.360 -0.1496 -0.9625 -0.2810
 4958TIP3    H114838   4.611   6.158   0.314 -0.8577  0.4380 -0.1537
 4958TIP3    H214839   4.509   6.048   0.299  0.6833 -0.9658 -0.7032
 4959TIP3   OH214840   5.246   2.995   5.242  0.2543  0.2733  0.4885
 4959TIP3    H114841   5.325   3.046   5.259  0.4967  0.2385 -0.4685
 4959TIP3    H214842   5.254   2.918   5.298  1.3976 -0.2193 -0.2987
 4960TIP3   OH214843   0.590   0.833   4.096  0.0605 -0.0879  0.0255
 4960TIP3    H114844   0.515   0.829   4.156 -0.3894  3.4122 -0.1315
 4960TIP3    H214845   0.666   0.831   4.154 -0.2727  0.2692  0.4808
 4961TIP3   OH214846   0.265   1.683   0.969  0.2330 -0.9211  0.0027
 4961TIP3    H114847   0.277   1.773   1.002  0.0393 -1.7462  2.5622
 4961TIP3    H214848   0.170   1.673   0.965  0.2550 -1.0879 -0.0825
 4962TIP3   OH214849   3.939   5.738   4.094 -0.1771 -0.4152  0.1764
 4962TIP3    H114850   3.984   5.659   4.064 -0.9069 -0.2467 -1.4483
 4962TIP3    H214851   3.984   5.810   4.049 -0.4175 -0.0210  0.5541
 4963TIP3   OH214852   5.582   3.528   0.479 -0.1625  0.1326 -0.6169
 4963TIP3    H114853   5.647   3.526   0.408  1.1037  3.3290  0.2723
 4963TIP3    H214854   5.630   3.495   0.555 -0.7017 -0.7993 -0.6743
 4964TIP3   OH214855   0.501   4.941   1.848  0.1514 -0.1538 -0.0155
 4964TIP3    H114856   0.493   4.846   1.851 -0.7073 -0.0837  0.1551
 4964TIP3    H214857   0.585   4.957   1.804 -0.2067 -0.9883 -1.0555
 4965TIP3   OH214858   1.736   6.334   0.572 -0.0493  0.1705  0.4412
 4965TIP3    H114859   1.711   6.316   0.663 -1.2860 -1.4784 -0.1739
 4965TIP3    H214860   1.756   6.248   0.536 -0.4254  0.7060 -1.0923
 4966TIP3   OH214861   6.642   1.375   2.515 -0.6639  0.0765  0.6496
 4966TIP3    H114862   6.701   1.422   2.576  0.3202  1.6870 -1.4127
 4966TIP3    H214863   6.681   1.288   2.507 -0.4733  0.0314  1.8456
 4967TIP3   OH214864   0.715   0.509   1.024 -0.2397 -0.5307 -0.2377
 4967TIP3    H114865   0.781   0.440   1.016  1.7057  1.2863 -0.8575
 4967TIP3    H214866   0.695   0.533   0.934 -0.8992 -0.2858 -0.0257
 4968TIP3   OH214867   4.569   6.302   2.150  0.2236 -0.2591 -0.0691
 4968TIP3    H114868   4.585   6.395   2.168 -0.6388 -0.2435  0.6819
 4968TIP3    H214869   4.474   6.292   2.159  0.2229 -1.0753 -0.8304
 4969TIP3   OH214870   5.643   6.698   4.826 -0.6101  0.0442 -0.2544
 4969TIP3    H114871   5.719   6.643   4.845 -2.4188 -2.0763  1.3618
 4969TIP3    H214872   5.620   6.676   4.735 -0.8414 -1.3655  0.1222
 4970TIP3   OH214873   0.991   6.361   5.595  0.2460  0.1255  0.1326
 4970TIP3    H114874   1.017   6.334   5.683  2.5527  2.6560  0.3890
 4970TIP3    H214875   0.943   6.443   5.609 -0.1625  0.0730 -0.9034
 4971TIP3   OH214876   6.919   5.441   2.832  0.2537 -0.1846 -0.1191
 4971TIP3    H114877   6.850   5.495   2.871  0.2372 -0.6922  0.5639
 4971TIP3    H214878   6.960   5.498   2.767 -1.0129  0.0289 -0.7763
 4972TIP3   OH214879   3.470   2.920   5.288 -0.3041 -0.6937 -0.0926
 4972TIP3    H114880   3.407   2.854   5.260 -1.1990 -0.3127  0.9488
 4972TIP3    H214881   3.431   3.004   5.261 -1.5155 -0.2572  2.6892
 4973TIP3   OH214882   3.713   1.287   0.801 -0.1904  0.3619  0.4669
 4973TIP3    H114883   3.737   1.374   0.833  1.5763  0.2522 -0.4398
 4973TIP3    H214884   3.769   1.273   0.725 -1.1176 -1.2030  0.0217
 4974TIP3   OH214885   1.788   3.097   1.161  0.1194 -0.4072  0.1972
 4974TIP3    H114886   1.850   3.025   1.167 -0.0564 -0.5902 -0.1493
 4974TIP3    H214887   1.829   3.160   1.101  1.2170  0.7505  2.0739
 4975TIP3   OH214888   2.271   2.368   3.523 -0.5433  0.1705 -0.0841
 4975TIP3    H114889   2.253   2.458   3.550 -1.9873 -0.1592  0.0999
 4975TIP3    H214890   2.273   2.319   3.605  0.2173  0.0218 -0.1858
 4976TIP3   OH214891   0.321   0.349   0.697 -0.4588  0.1968 -0.3412
 4976TIP3    H114892   0.323   0.255   0.713  0.9510 -0.0388 -1.6543
 4976TIP3    H214893   0.247   0.362   0.637 -0.7972 -0.0271  0.0221
 4977TIP3   OH214894   2.599   5.661  -0.013  0.0872 -0.0213 -0.8350
 4977TIP3    H114895   2.554   5.710   0.055  1.0874 -0.9599  0.5620
 4977TIP3    H214896   2.690   5.658   0.016  0.1583 -2.2232 -1.1096
 4978TIP3   OH214897   1.658   4.803   0.071 -0.1037 -0.0875  0.0807
 4978TIP3    H114898   1.605   4.821  -0.006 -0.0195 -1.1138 -0.2433
 4978TIP3    H214899   1.738   4.855   0.058 -0.7217  0.9176  0.2311
 4979TIP3   OH214900   5.128   5.117   5.532  0.3493 -0.3074 -0.2810
 4979TIP3    H114901   5.074   5.128   5.611  0.0925 -0.1571 -0.4748
 4979TIP3    H214902   5.066   5.087   5.465  0.1226  1.6429 -1.0110
 4980TIP3   OH214903   7.001   4.119   0.517  0.1014  0.2270  0.1733
 4980TIP3    H114904   6.918   4.081   0.545  0.3068 -0.4164 -0.0726
 4980TIP3    H214905   7.061   4.103   0.590 -0.4730  2.4907  1.2378
 4981TIP3   OH214906   6.201  -0.000   5.127 -0.0341  0.0807  0.3199
 4981TIP3    H114907   6.109   0.019   5.147 -0.3366 -0.5764 -0.3726
 4981TIP3    H214908   6.214   0.035   5.039  0.2782 -0.1279  0.2824
 4982TIP3   OH214909   1.799   6.015   3.804 -0.0467  0.2998  0.3064
 4982TIP3    H114910   1.733   6.005   3.736  0.0889 -0.9637  0.3466
 4982TIP3    H214911   1.852   6.090   3.774  1.0027 -1.1904 -1.8296
 4983TIP3   OH214912   3.311   0.909   0.168  0.4649 -0.1294 -0.0300
 4983TIP3    H114913   3.223   0.944   0.150  0.4801  0.7854  1.5022
 4983TIP3    H214914   3.312   0.825   0.123 -1.7288 -0.8358  1.0766
 4984TIP3   OH214915   6.554   1.564   4.870  0.4078 -0.0584 -0.7738
 4984TIP3    H114916   6.577   1.572   4.777 -0.7675  0.1607 -1.0624
 4984TIP3    H214917   6.496   1.488   4.874  1.9431 -1.2296  0.0933
 4985TIP3   OH214918   5.585   3.362   4.815 -0.4195  0.0595 -0.2941
 4985TIP3    H114919   5.662   3.387   4.763  0.6579 -1.2234  0.6140
 4985TIP3    H214920   5.588   3.421   4.890  0.3290 -0.6753  0.2781
 4986TIP3   OH214921   1.580   0.956   2.461 -0.2904 -0.1416  0.3539
 4986TIP3    H114922   1.639   1.030   2.475  2.1799 -1.9319  0.0327
 4986TIP3    H214923   1.497   0.996   2.437  0.7463  2.5248  0.8537
 4987TIP3   OH214924   5.507   1.505   2.068  0.6656 -0.0153  0.3854
 4987TIP3    H114925   5.425   1.545   2.098  1.8759 -0.0118  4.3325
 4987TIP3    H214926   5.553   1.575   2.021 -1.4324  0.0045 -1.8024
 4988TIP3   OH214927   6.439   4.739   4.814 -0.1819 -0.1615 -1.0400
 4988TIP3    H114928   6.448   4.834   4.813 -0.9241 -0.0924 -1.8096
 4988TIP3    H214929   6.358   4.722   4.862  0.7822 -0.5029  0.5435
 4989TIP3   OH214930   3.423   3.085   4.400  0.0879  0.0744  0.1165
 4989TIP3    H114931   3.445   3.118   4.313  0.0788  1.5415  0.6435
 4989TIP3    H214932   3.409   2.991   4.387  0.0654  0.2673 -1.4625
 4990TIP3   OH214933   6.470   0.607   2.519 -0.5804  0.2474 -0.4925
 4990TIP3    H114934   6.449   0.546   2.589  1.6108 -0.1053 -0.0836
 4990TIP3    H214935   6.422   0.574   2.443  1.1925 -2.5737 -0.5247
 4991TIP3   OH214936   4.932   1.106   1.219  0.5691 -0.4066 -0.5601
 4991TIP3    H114937   4.900   1.120   1.130 -0.9866 -0.3568 -0.0229
 4991TIP3    H214938   5.018   1.150   1.220  0.4725 -0.1224 -1.9232
 4992TIP3   OH214939   7.112   2.585   4.696  0.2987 -0.0376 -0.2067
 4992TIP3    H114940   7.086   2.493   4.702  0.1334 -0.0886 -1.4982
 4992TIP3    H214941   7.046   2.632   4.749  1.2677 -0.7784  1.7455
 4993TIP3   OH214942   1.370   3.449   3.334 -0.2335 -0.1404  0.0337
 4993TIP3    H114943   1.294   3.415   3.380 -0.3288 -0.5726 -0.4286
 4993TIP3    H214944   1.445   3.412   3.381 -0.3396 -1.3004 -0.6709
 4994TIP3   OH214945   7.185   2.576   5.131 -0.0709  0.6440 -0.2799
 4994TIP3    H114946   7.122   2.504   5.140 -0.8977  1.5372  1.6088
 4994TIP3    H214947   7.141   2.651   5.171  1.7842  1.5456  0.1514
 4995TIP3   OH214948   3.908   5.120   1.950 -0.0468  0.1196 -0.1345
 4995TIP3    H114949   3.871   5.072   1.876  0.5836 -1.5606  0.5939
 4995TIP3    H214950   3.991   5.077   1.968  1.0416  2.1392 -0.0514
 4996TIP3   OH214951   0.229   0.963   1.096 -0.0733 -0.0285 -0.6822
 4996TIP3    H114952   0.250   0.904   1.023  0.2925 -0.5819 -0.1391
 4996TIP3    H214953   0.239   1.051   1.058  1.3749 -0.2848 -0.9820
 4997TIP3   OH214954   3.893   5.681   2.769 -0.2211 -0.4141  0.4456
 4997TIP3    H114955   3.889   5.773   2.741 -1.3353 -0.5468  0.1088
 4997TIP3    H214956   3.966   5.678   2.830  0.3694  0.5235 -0.1744
 4998TIP3   OH214957   5.310   3.055   5.587  0.5931 -0.3627  0.8146
 4998TIP3    H114958   5.370   2.981   5.578  0.6769 -0.2800  0.6919
 4998TIP3    H214959   5.361   3.122   5.632  0.1278 -0.8322  2.0758
 4999TIP3   OH214960   5.076   0.838   1.053 -0.6635  0.0373 -0.0065
 4999TIP3    H114961   4.997   0.811   1.008  0.8275 -2.0578 -1.5405
 4999TIP3    H214962   5.086   0.776   1.125 -0.1472 -0.0671 -0.1612
 5000TIP3   OH214963   6.290   3.937   4.499 -0.1088 -0.0493 -0.6206
 5000TIP3    H114964   6.221   3.948   4.433 -0.9888 -1.1048  0.0832
 5000TIP3    H214965   6.349   3.873   4.462 -0.4244 -0.3920 -0.5420
 5001TIP3   OH214966   4.448   6.569   2.792  0.2531  0.1439 -0.7846
 5001TIP3    H114967   4.386   6.497   2.789 -0.2654  0.1284  3.5940
 5001TIP3    H214968   4.394   6.647   2.808  1.1111  0.7313 -0.6610
 5002TIP3   OH214969   4.148   6.011   5.182 -0.4703 -0.0102 -0.5605
 5002TIP3    H114970   4.118   6.026   5.271 -1.1069 -0.9321 -0.6073
 5002TIP3    H214971   4.188   5.924   5.184  0.6992  0.4987 -0.8838
 5003TIP3   OH214972   0.882   2.941   2.752 -0.1222 -0.3282 -0.3401
 5003TIP3    H114973   0.911   2.927   2.662 -1.5885 -0.3174 -0.8348
 5003TIP3    H214974   0.963   2.951   2.802  0.7121 -0.2895 -1.6599
 5004TIP3   OH214975   6.615   4.178   4.358 -0.7035  0.1932  0.2287
 5004TIP3    H114976   6.697   4.161   4.311 -1.3095 -0.6540 -0.5618
 5004TIP3    H214977   6.636   4.160   4.449 -0.4405 -1.7803 -0.1721
 5005TIP3   OH214978   2.985   4.518   1.121 -0.1517 -0.0834 -0.2317
 5005TIP3    H114979   2.898   4.479   1.134  0.5241 -1.6174 -0.1004
 5005TIP3    H214980   3.042   4.473   1.183  0.7782  0.7985 -0.4155
 5006TIP3   OH214981   3.841   3.749   0.874  0.4091 -0.1411  0.0946
 5006TIP3    H114982   3.797   3.665   0.882 -1.3158  0.7103 -0.0043
 5006TIP3    H214983   3.894   3.756   0.954 -0.0269 -0.9847  0.4729
 5007TIP3   OH214984   6.651   3.765   2.813  0.3772 -0.1385 -0.2993
 5007TIP3    H114985   6.696   3.713   2.879 -0.7755  0.6346  1.1381
 5007TIP3    H214986   6.620   3.700   2.749 -0.3877 -1.1565  1.0579
 5008TIP3   OH214987   4.615   1.482   2.499 -0.4087  0.3387  0.3453
 5008TIP3    H114988   4.665   1.483   2.417 -0.9935 -1.2708 -0.0809
 5008TIP3    H214989   4.679   1.508   2.566 -0.0259  2.0899 -0.6321
 5009TIP3   OH214990   3.520   3.545   2.071 -0.2063 -0.0465  0.0632
 5009TIP3    H114991   3.552   3.496   2.147  1.1453 -1.2362 -1.2182
 5009TIP3    H214992   3.466   3.614   2.109  0.7659 -0.3317  2.1404
 5010TIP3   OH214993   3.674   4.888   5.614 -0.1375  0.0117 -0.4069
 5010TIP3    H114994   3.768   4.907   5.612 -0.2808  0.7698 -0.3720
 5010TIP3    H214995   3.667   4.800   5.651  0.6148 -0.4448 -1.3078
 5011TIP3   OH214996   1.326   4.064   0.613 -0.2734  0.0315 -0.2277
 5011TIP3    H114997   1.321   3.993   0.677  0.8771  0.0838 -0.0480
 5011TIP3    H214998   1.303   4.143   0.663 -0.1941 -0.0375 -0.0819
 5012TIP3   OH214999   5.519   5.311   4.605 -0.0500 -0.0107 -0.5413
 5012TIP3    H115000   5.555   5.250   4.669  0.8755  1.0156 -0.0498
 5012TIP3    H215001   5.509   5.259   4.525  0.8993 -0.7648 -0.1894
 5013TIP3   OH215002   6.585   3.442   3.900 -0.0454  0.2543 -0.3006
 5013TIP3    H115003   6.660   3.384   3.892 -0.1759  0.1291 -0.6402
 5013TIP3    H215004   6.526   3.398   3.961 -0.1239  0.0521 -0.5238
 5014TIP3   OH215005   3.316   2.801   1.169 -0.2684 -0.3555 -0.3177
 5014TIP3    H115006   3.321   2.876   1.229  1.7581 -0.1742 -0.6535
 5014TIP3    H215007   3.236   2.755   1.196 -0.1644  0.4795  1.6243
 5015TIP3   OH215008   6.491   5.622   0.373  0.0264  0.6650  0.0222
 5015TIP3    H115009   6.416   5.601   0.429 -0.0357  0.8482  0.0078
 5015TIP3    H215010   6.554   5.552   0.389 -1.4657 -1.4344 -2.4281
 5016TIP3   OH215011   0.397   0.888   3.694  0.0933  0.1428  0.4367
 5016TIP3    H115012   0.393   0.802   3.737  0.5676  0.6997  1.6299
 5016TIP3    H215013   0.305   0.916   3.687 -0.1238 -0.7286 -0.5755
 5017TIP3   OH215014   4.371   0.044   1.413 -0.5510  0.0351 -0.0128
 5017TIP3    H115015   4.317   0.122   1.424 -1.1828 -0.0029 -2.2303
 5017TIP3    H215016   4.438   0.071   1.350 -0.3280 -0.9917 -0.2301
 5018TIP3   OH215017   4.206   3.749   5.384  0.0178 -0.0590  0.3813
 5018TIP3    H115018   4.146   3.729   5.456 -1.5031 -0.6998 -1.0118
 5018TIP3    H215019   4.208   3.669   5.331  3.1797 -0.5750  1.0307
 5019TIP3   OH215020   5.590   2.412   4.107 -0.6406  0.5247  0.3590
 5019TIP3    H115021   5.682   2.392   4.094 -0.4745  2.1821 -1.4846
 5019TIP3    H215022   5.579   2.418   4.202  0.5316 -2.1419  0.7562
 5020TIP3   OH215023   0.342   1.292   4.873  0.3742 -0.1332  0.3053
 5020TIP3    H115024   0.376   1.367   4.823  1.1569 -0.7221 -0.0805
 5020TIP3    H215025   0.256   1.320   4.904 -0.1194  0.2927 -1.3291
 5021TIP3   OH215026   4.547   2.137   4.590 -0.6684  0.4862  0.3361
 5021TIP3    H115027   4.549   2.075   4.518 -1.1822  1.8972 -0.9286
 5021TIP3    H215028   4.455   2.159   4.601 -0.7697 -0.6290  2.2938
 5022TIP3   OH215029   4.815   1.077   0.610 -0.4061 -0.0491  0.4767
 5022TIP3    H115030   4.785   1.095   0.521  0.5989 -0.9783 -0.0647
 5022TIP3    H215031   4.910   1.083   0.605 -0.3746  1.3022  1.8247
 5023TIP3   OH215032   2.040   0.905   2.352 -0.2464  0.4079  0.1027
 5023TIP3    H115033   2.074   0.990   2.380  0.7431  0.5387 -1.3593
 5023TIP3    H215034   1.993   0.924   2.271 -1.2701 -0.2416  0.5235
 5024TIP3   OH215035   4.097   2.819   0.132  0.2591  0.2657  0.2235
 5024TIP3    H115036   4.188   2.845   0.117  0.4283 -1.2207 -1.7411
 5024TIP3    H215037   4.104   2.739   0.185  0.2043 -0.5456 -0.9510
 5025TIP3   OH215038   0.720   2.341   4.223 -0.1921 -0.0702  0.7153
 5025TIP3    H115039   0.753   2.259   4.187 -2.0388 -1.1523  1.3251
 5025TIP3    H215040   0.630   2.321   4.248 -0.2388  1.7505  2.2025
 5026TIP3   OH215041   5.835   6.076   3.642  0.1176 -0.0246  0.5126
 5026TIP3    H115042   5.875   6.000   3.685  2.0323 -0.0854 -1.2397
 5026TIP3    H215043   5.760   6.097   3.698  0.5934 -2.0442  2.0712
 5027TIP3   OH215044   4.144   1.771   2.240  0.0681  0.2164 -0.3055
 5027TIP3    H115045   4.099   1.816   2.311  0.6887  1.1762 -0.4934
 5027TIP3    H215046   4.237   1.786   2.258  0.3444 -1.6481  0.0381
 5028TIP3   OH215047   6.451   0.278   1.884 -0.3995 -0.5929  0.0452
 5028TIP3    H115048   6.411   0.364   1.875  1.4371  0.5869  2.1002
 5028TIP3    H215049   6.386   0.225   1.930 -1.5251 -0.3221 -1.1876
 5029TIP3   OH215050   3.441   1.322   2.723 -0.3456  0.2696  0.2149
 5029TIP3    H115051   3.440   1.309   2.628  2.8675 -0.3526  0.1495
 5029TIP3    H215052   3.451   1.416   2.735  1.9874  0.1429 -0.2482
 5030TIP3   OH215053   1.395   3.082   4.844  0.5913  0.3859  0.2220
 5030TIP3    H115054   1.393   3.045   4.932 -2.5649 -0.2370  0.0054
 5030TIP3    H215055   1.466   3.146   4.846  0.5158  0.5115  3.2574
 5031TIP3   OH215056   1.728   3.520   1.358  0.2014 -0.0822 -0.1576
 5031TIP3    H115057   1.634   3.503   1.367  0.4938 -1.0328  1.4209
 5031TIP3    H215058   1.740   3.539   1.265 -1.8653  2.1570 -0.0656
 5032TIP3   OH215059   0.175   2.021   1.308 -0.2085  0.0493 -0.6128
 5032TIP3    H115060   0.227   2.021   1.389 -1.1280 -0.4932 -0.0123
 5032TIP3    H215061   0.103   1.961   1.325 -1.2461  1.0512 -1.3003
 5033TIP3   OH215062   2.810   3.904   2.248 -0.5136  0.0336 -0.5234
 5033TIP3    H115063   2.835   3.970   2.183 -0.4672 -0.4474 -0.9961
 5033TIP3    H215064   2.867   3.921   2.323 -1.0790  1.0721 -0.3068
 5034TIP3   OH215065   3.858   0.383   4.754  0.3587  0.2500  0.2745
 5034TIP3    H115066   3.828   0.292   4.750  0.0710  0.3519  0.0960
 5034TIP3    H215067   3.784   0.434   4.722  0.4164  0.5708  0.6409
 5035TIP3   OH215068   6.260   4.599   1.662 -0.0992 -0.1910  0.2818
 5035TIP3    H115069   6.354   4.599   1.645 -0.4558 -0.8141 -2.0657
 5035TIP3    H215070   6.252   4.590   1.757  2.1819 -1.3614  0.4190
 5036TIP3   OH215071   6.130   2.808   1.067  0.0860  0.2436  0.0203
 5036TIP3    H115072   6.222   2.787   1.052 -0.4150 -1.4407 -0.8753
 5036TIP3    H215073   6.111   2.878   1.005  0.7833  0.7444  0.3462
 5037TIP3   OH215074   5.736   2.546   5.048 -0.2499  0.7921  0.1093
 5037TIP3    H115075   5.646   2.520   5.068 -0.3379  1.6281  0.8037
 5037TIP3    H215076   5.779   2.464   5.023 -0.8847  0.1944  0.9346
 5038TIP3   OH215077   5.177   2.634   4.738  0.1220  0.1071  0.1749
 5038TIP3    H115078   5.180   2.685   4.819  1.4441  1.4928 -0.7050
 5038TIP3    H215079   5.088   2.649   4.705 -0.2788 -0.0956  1.1149
 5039TIP3   OH215080   1.863   3.912   3.510  0.8763  0.5481 -0.1560
 5039TIP3    H115081   1.789   3.929   3.567  0.1746 -1.4213 -0.4144
 5039TIP3    H215082   1.838   3.949   3.425 -0.0809 -0.5489 -0.3829
 5040TIP3   OH215083   7.089   5.853   2.087 -0.5388  0.0414  0.1611
 5040TIP3    H115084   7.057   5.879   2.000 -0.3952  1.7117  0.5775
 5040TIP3    H215085   7.183   5.836   2.073 -0.7084 -0.6274 -0.1938
 5041TIP3   OH215086   5.991   5.972   1.329 -0.0009  0.1784  0.0755
 5041TIP3    H115087   6.058   6.033   1.360 -0.2360  0.1121  0.7398
 5041TIP3    H215088   5.971   5.917   1.406  0.5591 -1.0657 -0.6319
 5042TIP3   OH215089   3.337   0.387   0.577 -0.2204  0.2756  0.4674
 5042TIP3    H115090   3.256   0.420   0.539  1.2546  1.5903 -1.7684
 5042TIP3    H215091   3.361   0.312   0.523  0.8252  0.8514  0.1070
 5043TIP3   OH215092   3.470   4.441   0.668  0.3665  0.0767 -0.2170
 5043TIP3    H115093   3.383   4.404   0.659 -0.1536  0.4022  2.5069
 5043TIP3    H215094   3.529   4.368   0.647 -0.5878 -0.8022  0.0425
 5044TIP3   OH215095   1.188   6.302   2.764  0.5515 -0.2442  0.1498
 5044TIP3    H115096   1.178   6.326   2.856 -0.4600 -0.1899  0.0478
 5044TIP3    H215097   1.235   6.219   2.765 -2.5608 -2.1630  0.9539
 5045TIP3   OH215098   2.929   3.684   2.658 -0.0995  0.1780  0.1838
 5045TIP3    H115099   2.893   3.733   2.732  1.7010 -1.0121  1.9464
 5045TIP3    H215100   2.858   3.628   2.629 -1.5338  2.2357 -0.5040
 5046TIP3   OH215101   4.210   5.965   3.341  0.3237  0.5053  0.0589
 5046TIP3    H115102   4.238   5.985   3.251  2.1338 -0.1322  0.4449
 5046TIP3    H215103   4.178   5.875   3.337  0.6242  0.3968  0.0998
 5047TIP3   OH215104   0.421   2.198   0.995 -0.0712 -0.0118 -0.5116
 5047TIP3    H115105   0.504   2.169   1.033 -0.5030 -0.1817  0.3366
 5047TIP3    H215106   0.433   2.189   0.901  0.8168 -0.1881 -0.3890
 5048TIP3   OH215107   1.773   6.476   2.336  0.2517  0.3183  0.1453
 5048TIP3    H115108   1.759   6.425   2.416  0.7318  1.3325  0.8992
 5048TIP3    H215109   1.743   6.564   2.358  0.1663  0.5534 -0.8784
 5049TIP3   OH215110   2.450   1.927   0.629 -0.4484  0.5840  0.0761
 5049TIP3    H115111   2.442   1.904   0.537  0.0178  1.0214 -0.0739
 5049TIP3    H215112   2.456   1.842   0.674  0.2103  0.3897 -0.3741
 5050TIP3   OH215113   1.014   3.280   2.759  0.0308 -0.2015 -0.0891
 5050TIP3    H115114   0.928   3.238   2.746  1.0149 -2.1022 -0.8810
 5050TIP3    H215115   1.075   3.206   2.768  1.5734  1.1052  0.6103
 5051TIP3   OH215116   4.396   1.714   5.441  0.3579 -0.1093  0.0978
 5051TIP3    H115117   4.452   1.771   5.495  0.5728 -1.1764  1.0329
 5051TIP3    H215118   4.457   1.659   5.392  0.1697 -1.4831  1.3403
 5052TIP3   OH215119   0.056   1.632   0.113  0.2393 -0.2031 -0.8573
 5052TIP3    H115120   0.100   1.566   0.060 -0.0221 -0.8450 -0.2968
 5052TIP3    H215121   0.067   1.601   0.203  0.8886  0.9865 -0.5058
 5053TIP3   OH215122   0.424   5.770   3.834  0.3327 -0.3581 -0.1573
 5053TIP3    H115123   0.356   5.828   3.868  0.5489 -1.5184  2.5007
 5053TIP3    H215124   0.404   5.684   3.872  2.1169 -1.1779 -0.9479
 5054TIP3   OH215125   6.472   4.042   0.111  0.2456  0.0422 -0.3189
 5054TIP3    H115126   6.447   3.957   0.148 -2.0418  0.9870  0.4998
 5054TIP3    H215127   6.526   4.082   0.180 -1.4062  0.5330  0.7424
 5055TIP3   OH215128   5.157   4.314   3.359  0.1122 -0.3626 -0.3243
 5055TIP3    H115129   5.169   4.260   3.437 -0.0218  0.1584  0.0531
 5055TIP3    H215130   5.239   4.363   3.351 -0.4980  0.7968  0.4207
 5056TIP3   OH215131   4.974   1.246   5.217  0.0676 -0.5412 -0.7454
 5056TIP3    H115132   4.986   1.151   5.222  2.0764 -0.4762 -2.6006
 5056TIP3    H215133   4.880   1.258   5.203 -0.1219 -2.3033 -1.1879
 5057TIP3   OH215134   2.006   4.245   4.408 -0.0214 -0.3242 -0.1466
 5057TIP3    H115135   2.035   4.225   4.497  0.9405 -0.5712 -0.5013
 5057TIP3    H215136   2.004   4.161   4.364 -1.7368 -0.3860 -0.0392
 5058TIP3   OH215137   4.599   2.289   0.727 -0.0814 -0.0799  0.1092
 5058TIP3    H115138   4.600   2.265   0.820 -1.1837 -2.7972 -0.4905
 5058TIP3    H215139   4.684   2.260   0.693 -0.2538 -0.4546 -0.0104
 5059TIP3   OH215140   2.115   2.629   1.255  0.6779 -0.1297  0.0942
 5059TIP3    H115141   2.120   2.669   1.342  0.8238 -0.7916  0.3948
 5059TIP3    H215142   2.094   2.537   1.272 -3.3895  0.4311 -0.6734
 5060TIP3   OH215143   5.522   5.564   0.605  0.2081 -0.4180 -0.2600
 5060TIP3    H115144   5.613   5.558   0.576  0.3588  2.4416 -0.6868
 5060TIP3    H215145   5.527   5.570   0.700  0.4598 -0.2639 -0.2831
 5061TIP3   OH215146   5.907   0.982   2.591 -0.1550 -0.4051  0.6259
 5061TIP3    H115147   5.945   0.968   2.677 -0.0149  0.1793  0.6668
 5061TIP3    H215148   5.971   0.947   2.530 -1.0297 -2.4638  0.7952
 5062TIP3   OH215149   2.876   3.808   3.271  0.1480 -0.2291 -0.4824
 5062TIP3    H115150   2.868   3.721   3.233 -1.8469  0.0434 -0.7858
 5062TIP3    H215151   2.810   3.811   3.340  2.1037  0.1039  1.4894
 5063TIP3   OH215152   6.899   0.114   0.710  0.0745  0.1442  0.5069
 5063TIP3    H115153   6.891   0.172   0.634  1.4246  0.0397  0.2688
 5063TIP3    H215154   6.810   0.111   0.746 -1.2066 -1.6301 -2.3793
 5064TIP3   OH215155   2.291   0.358   4.044  0.6340  0.2083 -0.4202
 5064TIP3    H115156   2.264   0.406   4.123  2.6608 -0.2190  0.6152
 5064TIP3    H215157   2.227   0.288   4.035 -1.1643  1.8164 -0.7423
 5065TIP3   OH215158   3.807   5.568   4.372  0.8947  0.3929 -0.0563
 5065TIP3    H115159   3.756   5.555   4.452 -1.1329 -1.5912 -1.5240
 5065TIP3    H215160   3.837   5.480   4.349  1.1391  0.8561 -1.6165
 5066TIP3   OH215161   6.785   6.144   3.934 -0.3134  0.3496 -0.3431
 5066TIP3    H115162   6.778   6.176   4.024  0.9015  0.9160 -0.4319
 5066TIP3    H215163   6.702   6.169   3.893 -0.6167  0.6560  0.4386
 5067TIP3   OH215164   4.010   3.764   2.226 -0.5610 -0.0257 -0.0811
 5067TIP3    H115165   3.968   3.844   2.255  0.5626  0.2504  0.8689
 5067TIP3    H215166   4.077   3.793   2.164  0.0754 -0.1875  0.5231
 5068TIP3   OH215167   0.084   2.927   0.346 -0.1357 -0.4038 -0.5128
 5068TIP3    H115168   0.000   2.882   0.337 -0.7884  0.6750 -0.1338
 5068TIP3    H215169   0.085   2.989   0.273 -0.1627  0.3017  0.0632
 5069TIP3   OH215170   6.255   0.225   2.759 -0.3697 -0.1035 -0.1855
 5069TIP3    H115171   6.164   0.203   2.740 -0.0077 -0.8276 -1.2147
 5069TIP3    H215172   6.306   0.169   2.700  0.7357  0.4598  0.1957
 5070TIP3   OH215173   7.246   4.851   5.278  0.2357 -0.0691  0.5339
 5070TIP3    H115174   7.165   4.877   5.323 -0.2552  0.1035 -0.4116
 5070TIP3    H215175   7.234   4.757   5.260  0.5861 -0.2205  1.0619
 5071TIP3   OH215176   6.856   4.644   3.570 -0.3956  0.4238  0.1155
 5071TIP3    H115177   6.929   4.583   3.564  0.5397  1.4908  0.2268
 5071TIP3    H215178   6.792   4.600   3.626  1.0165  0.2589  1.6657
 5072TIP3   OH215179   1.670   1.939   1.949  0.5985  0.1999  0.0469
 5072TIP3    H115180   1.639   1.885   2.022  0.2161 -1.9652 -1.5938
 5072TIP3    H215181   1.614   1.913   1.876  1.8710  1.2552 -1.3477
 5073TIP3   OH215182   2.888   4.200   3.751 -0.0612  0.0679 -0.3741
 5073TIP3    H115183   2.901   4.136   3.682 -3.1412 -1.2144  0.0919
 5073TIP3    H215184   2.793   4.207   3.761  0.2216  1.8197  2.2549
 5074TIP3   OH215185   4.679   0.131   0.395 -0.1303  0.3067  0.8193
 5074TIP3    H115186   4.765   0.171   0.409  0.3850 -0.0450 -1.0799
 5074TIP3    H215187   4.649   0.166   0.312 -0.6842 -1.4634  0.2166
 5075TIP3   OH215188   4.170   4.326   5.686 -0.2277  0.1255 -0.8783
 5075TIP3    H115189   4.091   4.357   5.641  0.3244  2.5591 -0.3324
 5075TIP3    H215190   4.138   4.289   5.768 -0.9192 -0.6471 -1.4762
 5076TIP3   OH215191   6.946   0.808   3.687 -0.8786 -0.3166 -0.2815
 5076TIP3    H115192   6.885   0.797   3.760  1.7978 -1.4560  2.0176
 5076TIP3    H215193   7.001   0.729   3.690 -0.6586 -0.4070 -3.6226
 5077TIP3   OH215194   1.208   6.153   5.674  0.2459 -0.0711  0.0689
 5077TIP3    H115195   1.255   6.136   5.592  0.3255  2.4720 -0.4733
 5077TIP3    H215196   1.146   6.081   5.681  0.1091 -0.2481 -2.3264
 5078TIP3   OH215197   4.014   6.274   0.159  0.0850  0.0619  0.4926
 5078TIP3    H115198   4.060   6.198   0.195  0.0185 -0.8834 -1.3144
 5078TIP3    H215199   3.926   6.269   0.198 -0.2505 -1.4102 -0.3640
 5079TIP3   OH215200   0.887   6.407   1.560  0.5429 -0.7488  0.5237
 5079TIP3    H115201   0.927   6.411   1.647  0.0041 -0.1195  0.7531
 5079TIP3    H215202   0.827   6.482   1.558  0.9182 -0.4571 -0.5736
 5080TIP3   OH215203   0.098   4.711   3.904 -0.5833 -0.2587 -0.0011
 5080TIP3    H115204   0.114   4.622   3.936  0.8096 -1.0184 -2.4878
 5080TIP3    H215205   0.061   4.699   3.817  0.4999  1.5597 -0.7798
 5081TIP3   OH215206   2.478   6.102   4.057 -0.3618  0.0878  0.6594
 5081TIP3    H115207   2.425   6.151   3.994 -0.6504 -1.1243 -0.0868
 5081TIP3    H215208   2.415   6.053   4.109 -0.0213 -0.6796  0.3609
 5082TIP3   OH215209   5.939   5.767   4.469  0.0097 -0.2624  0.0972
 5082TIP3    H115210   5.906   5.714   4.396 -0.3748 -0.4867  0.4330
 5082TIP3    H215211   6.032   5.777   4.451 -0.0312 -0.5469 -0.2839
 5083TIP3   OH215212   4.145   6.538   0.134 -0.5603 -0.1331  0.3775
 5083TIP3    H115213   4.127   6.552   0.227  1.2363  1.5729  0.5421
 5083TIP3    H215214   4.119   6.448   0.117 -0.7637 -0.5304  2.5849
 5084TIP3   OH215215   5.601   3.158   2.218 -0.1062 -0.0148 -0.1025
 5084TIP3    H115216   5.529   3.173   2.278 -0.1204  0.1515 -0.1598
 5084TIP3    H215217   5.667   3.112   2.270 -0.5646 -0.8680 -0.2549
 5085TIP3   OH215218   2.878   0.545   4.039  0.5156  0.2179  0.2601
 5085TIP3    H115219   2.958   0.501   4.010 -0.8698 -2.8788  0.7687
 5085TIP3    H215220   2.895   0.567   4.131  1.5272  1.6485 -0.2250
 5086TIP3   OH215221   2.846   2.481   1.377  0.0676  0.3626 -0.5545
 5086TIP3    H115222   2.867   2.459   1.468  2.2506  1.6480 -0.6839
 5086TIP3    H215223   2.767   2.536   1.384 -0.1293 -0.0207  0.5049
 5087TIP3   OH215224   2.524   2.093   3.067 -0.1557  0.2908  0.2244
 5087TIP3    H115225   2.455   2.090   3.001 -0.0692  1.0665  0.0847
 5087TIP3    H215226   2.545   2.186   3.074  1.1708  0.0287 -0.0470
 5088TIP3   OH215227   0.974   0.688   1.351 -0.0666 -0.0590 -0.2960
 5088TIP3    H115228   0.880   0.670   1.358 -0.5089  2.1722  0.5401
 5088TIP3    H215229   0.981   0.743   1.273  0.2766  1.1170  0.5410
 5089TIP3   OH215230   5.420   0.483   4.910  0.0863 -0.4447  0.0468
 5089TIP3    H115231   5.414   0.578   4.895 -0.5971 -0.6136 -0.7938
 5089TIP3    H215232   5.336   0.448   4.880  0.5331 -1.3847 -0.1498
 5090TIP3   OH215233   4.045   3.250   2.125 -0.2943 -0.4213  0.5772
 5090TIP3    H115234   4.097   3.260   2.204 -1.8585  0.8957  1.4793
 5090TIP3    H215235   4.079   3.169   2.085  2.4665  0.4028  1.0443
 5091TIP3   OH215236   3.158   5.801   4.685  0.0508 -0.5755 -0.4653
 5091TIP3    H115237   3.140   5.853   4.607 -0.8740 -0.8981 -0.4762
 5091TIP3    H215238   3.137   5.711   4.660 -1.8657 -0.4701  0.6377
 5092TIP3   OH215239   5.622   6.606   2.257  0.5332  0.9594 -0.2900
 5092TIP3    H115240   5.641   6.567   2.172 -1.7661  2.3525 -1.5732
 5092TIP3    H215241   5.680   6.562   2.318  1.4368 -0.9438 -2.3898
 5093TIP3   OH215242   5.902   2.439   5.725 -0.2580 -0.3184  0.3161
 5093TIP3    H115243   5.854   2.447   5.643  1.3134  1.6590 -0.4831
 5093TIP3    H215244   5.852   2.490   5.788  1.0001  2.2933 -0.6708
 5094TIP3   OH215245   4.835   3.568   5.395 -0.2497  0.5403  1.2504
 5094TIP3    H115246   4.891   3.574   5.318 -0.8638 -0.7998  0.6766
 5094TIP3    H215247   4.854   3.648   5.444 -1.4172  2.5597 -1.3562
 5095TIP3   OH215248   3.492   0.369   3.144  0.2137 -0.1952  0.2464
 5095TIP3    H115249   3.411   0.347   3.191  0.1955  0.9837  0.8034
 5095TIP3    H215250   3.495   0.307   3.071 -1.5056  0.1051 -0.1357
 5096TIP3   OH215251   5.753   3.741   2.421  0.0565 -0.6207  0.1361
 5096TIP3    H115252   5.806   3.668   2.389  0.4667  0.4690 -1.8465
 5096TIP3    H215253   5.673   3.701   2.454  0.7846 -2.0439  0.2129
 5097TIP3   OH215254   6.225   6.341   4.315  0.1655 -0.3684 -0.1254
 5097TIP3    H115255   6.285   6.415   4.318 -0.1568 -0.1273  2.0636
 5097TIP3    H215256   6.140   6.379   4.291  0.7212 -0.6775 -2.9889
 5098TIP3   OH215257   3.951   2.318   1.430  0.2220  0.4711 -0.0151
 5098TIP3    H115258   3.908   2.301   1.514  1.3252 -1.1125  0.2661
 5098TIP3    H215259   4.036   2.356   1.454  1.1812 -1.3927 -0.3111
 5099TIP3   OH215260   5.395   2.781   2.774 -0.0148 -0.5910  0.4879
 5099TIP3    H115261   5.453   2.730   2.830  1.1677  0.4030  0.2223
 5099TIP3    H215262   5.356   2.847   2.831  2.0961  1.1808  0.0047
 5100TIP3   OH215263   6.960   1.116   2.913 -0.3104 -0.2697  0.5481
 5100TIP3    H115264   7.010   1.154   2.985 -0.5342 -0.9873  1.0882
 5100TIP3    H215265   7.026   1.070   2.860 -0.4931 -1.9910  1.7597
 5101TIP3   OH215266   1.756   3.838   0.753 -0.4236  0.0685  0.5077
 5101TIP3    H115267   1.840   3.834   0.799  0.2870  0.8024 -0.6675
 5101TIP3    H215268   1.764   3.914   0.696 -0.7147 -1.5202 -1.7923
 5102TIP3   OH215269   4.723   5.333   0.760  0.1479  0.2816 -0.4446
 5102TIP3    H115270   4.741   5.257   0.816 -0.9832 -0.6169 -1.2572
 5102TIP3    H215271   4.795   5.394   0.779 -0.4222  0.2362  2.3335
 5103TIP3   OH215272   2.635   4.104   4.024 -0.3107 -0.1024 -0.0471
 5103TIP3    H115273   2.587   4.079   4.103 -1.3263 -2.2925 -1.2561
 5103TIP3    H215274   2.718   4.057   4.031 -0.6873 -0.8683 -0.5713
 5104TIP3   OH215275   0.893   2.259   5.103 -0.1762 -0.1226  0.1955
 5104TIP3    H115276   0.964   2.271   5.166 -0.3321 -0.0720  0.3635
 5104TIP3    H215277   0.859   2.171   5.122 -0.7263  0.1948  0.6984
 5105TIP3   OH215278   2.847   0.413   2.028 -0.0475 -0.2075 -0.0602
 5105TIP3    H115279   2.767   0.447   1.989 -0.9348 -3.1687 -1.1268
 5105TIP3    H215280   2.889   0.364   1.957  0.7649 -1.7890  1.4279
 5106TIP3   OH215281   0.260   5.612   1.297 -0.3174 -0.1093  0.5270
 5106TIP3    H115282   0.194   5.680   1.311  0.2826  0.9094 -1.2794
 5106TIP3    H215283   0.343   5.654   1.321  0.2104  0.2742 -1.7901
 5107TIP3   OH215284   1.699   5.821   3.452  0.0916 -0.3187  0.3325
 5107TIP3    H115285   1.666   5.867   3.529 -0.1627 -0.6726  0.4371
 5107TIP3    H215286   1.793   5.811   3.469 -0.1009 -1.1350  0.9905
 5108TIP3   OH215287   6.623   2.861   3.955  0.2686 -0.1832  0.0108
 5108TIP3    H115288   6.641   2.796   4.022  0.2291  0.7286  0.9372
 5108TIP3    H215289   6.625   2.945   4.002  3.2370  0.8156 -1.5889
 5109TIP3   OH215290   4.442   2.771   2.488  0.5433 -0.1114 -0.1934
 5109TIP3    H115291   4.427   2.764   2.582  0.9883  0.9079 -0.0318
 5109TIP3    H215292   4.371   2.827   2.457  0.4591 -0.3573 -0.4407
 5110TIP3   OH215293   3.581   4.784   3.516  0.1682  0.2419  0.3253
 5110TIP3    H115294   3.641   4.724   3.561 -0.8439 -0.7140  0.4488
 5110TIP3    H215295   3.541   4.835   3.586  1.1524  1.2282  0.2088
 5111TIP3   OH215296   2.059   5.076   2.958  0.4215  0.3685 -0.7375
 5111TIP3    H115297   2.030   5.093   2.869 -0.0541 -2.1306 -1.1384
 5111TIP3    H215298   2.124   5.005   2.949  0.9597  0.6172  0.8267
 5112TIP3   OH215299   1.968   3.666   3.466 -0.5895  0.2982  0.0742
 5112TIP3    H115300   1.926   3.744   3.501 -1.3692 -0.7940  1.7458
 5112TIP3    H215301   2.022   3.633   3.538  0.8962  0.0873 -1.0898
 5113TIP3   OH215302   1.529   2.696   0.702  0.3654 -0.0331  0.2262
 5113TIP3    H115303   1.551   2.776   0.654  1.1466 -0.6726 -0.5101
 5113TIP3    H215304   1.611   2.646   0.703 -0.4477 -1.4390 -0.5219
 5114TIP3   OH215305   2.779   0.834   5.716 -0.2193 -0.0717  0.0345
 5114TIP3    H115306   2.793   0.883   5.635  1.4471  2.2462  1.6088
 5114TIP3    H215307   2.703   0.875   5.756 -0.8199 -0.9782 -0.1405
 5115TIP3   OH215308   0.065   3.734   5.872 -0.2780  0.0016 -0.0290
 5115TIP3    H115309   0.062   3.662   5.809  0.0386 -0.4871  0.4967
 5115TIP3    H215310  -0.018   3.779   5.862 -0.8355 -0.9399  0.1986
 5116TIP3   OH215311   6.486   1.876   5.201  0.0005 -0.9155 -0.4954
 5116TIP3    H115312   6.565   1.867   5.254  1.3338  0.0963 -2.1654
 5116TIP3    H215313   6.491   1.966   5.166 -1.3280 -1.1916 -1.4798
 5117TIP3   OH215314   4.277   6.360   2.888  0.2517  0.4132 -0.9370
 5117TIP3    H115315   4.356   6.366   2.943  0.6755  0.7650 -1.5722
 5117TIP3    H215316   4.270   6.267   2.868 -0.6761  0.0597  0.7918
 5118TIP3   OH215317   2.879   3.518   5.389  0.0836 -0.0909 -0.2245
 5118TIP3    H115318   2.819   3.591   5.374 -2.2330 -1.3830  2.0320
 5118TIP3    H215319   2.878   3.468   5.307 -1.9745 -0.0880 -0.2326
 5119TIP3   OH215320   2.040   4.021   0.065 -0.6710 -0.6012 -0.8637
 5119TIP3    H115321   1.964   4.068   0.033 -0.0270  0.8100 -0.4070
 5119TIP3    H215322   2.004   3.952   0.122 -1.5906  0.4634 -0.1094
 5120TIP3   OH215323   5.513   0.609   1.994 -0.1074  0.5144  0.0721
 5120TIP3    H115324   5.603   0.581   1.977 -0.7893 -1.5636 -0.4294
 5120TIP3    H215325   5.502   0.595   2.089 -0.1440 -0.0328 -0.0091
 5121TIP3   OH215326   4.048   0.039   2.718  0.6672 -0.1685 -0.8462
 5121TIP3    H115327   3.999   0.099   2.774 -0.2995 -0.8310 -0.9552
 5121TIP3    H215328   4.081  -0.027   2.777 -0.1516 -0.7358 -0.9977
 5122TIP3   OH215329   3.372   6.080   2.521  0.8991 -0.2813  0.0355
 5122TIP3    H115330   3.399   6.010   2.461 -0.7536 -0.7167 -0.2371
 5122TIP3    H215331   3.295   6.119   2.480  1.4309  1.3273  0.4887
 5123TIP3   OH215332   5.229   1.054   1.146  0.2253  0.5496 -0.3046
 5123TIP3    H115333   5.308   1.005   1.168 -0.2402  0.0888  0.3660
 5123TIP3    H215334   5.172   0.989   1.104 -0.1599  0.6525  0.0536
 5124TIP3   OH215335   6.804   0.347   3.646  0.1653 -0.2640 -0.2250
 5124TIP3    H115336   6.878   0.403   3.669 -0.1288 -0.0777  0.2851
 5124TIP3    H215337   6.822   0.320   3.556  0.5588  0.2507 -0.3092
 5125TIP3   OH215338   6.942   3.171   3.622  0.0608  0.2977  0.1135
 5125TIP3    H115339   6.921   3.082   3.592 -0.1102  0.1547  0.6367
 5125TIP3    H215340   6.866   3.196   3.675  0.0457  0.8137 -0.1550
 5126TIP3   OH215341   2.343   3.547   2.733  0.6110 -0.2006  0.7332
 5126TIP3    H115342   2.431   3.559   2.767  1.0382  1.2375 -0.7475
 5126TIP3    H215343   2.311   3.635   2.715 -0.6465 -0.7554  0.0708
 5127TIP3   OH215344   3.642   3.217   5.595  0.2299 -0.2828  0.4340
 5127TIP3    H115345   3.640   3.269   5.515 -0.2184  1.2794  1.4081
 5127TIP3    H215346   3.575   3.150   5.581 -0.6533  0.6646 -0.0818
 5128TIP3   OH215347   3.203   5.681   4.034 -0.7074  0.5173  0.3413
 5128TIP3    H115348   3.220   5.763   4.080  1.2700  0.0122  0.6066
 5128TIP3    H215349   3.285   5.662   3.988 -2.2065  0.3897 -2.5126
 5129TIP3   OH215350   6.042   2.451   2.547  0.3919 -0.2848  0.4888
 5129TIP3    H115351   6.136   2.472   2.542  0.6428 -1.0605  1.7003
 5129TIP3    H215352   6.009   2.503   2.620 -0.0409 -0.3103  0.3140
 5130TIP3   OH215353   5.948   1.865   4.066  0.2524  0.1306  0.2880
 5130TIP3    H115354   5.886   1.792   4.066  0.3409 -0.1637 -3.6492
 5130TIP3    H215355   6.032   1.824   4.087  0.1088 -0.7197 -0.7118
 5131TIP3   OH215356   6.205   5.506   5.068  0.3794  0.4428  0.0139
 5131TIP3    H115357   6.237   5.419   5.044 -1.0372  0.1505 -0.9492
 5131TIP3    H215358   6.284   5.559   5.076  1.4592 -1.2870  2.3606
 5132TIP3   OH215359   0.453   6.165   0.436 -0.0682  0.1070 -0.1198
 5132TIP3    H115360   0.477   6.221   0.510  0.2304  0.0909 -0.2013
 5132TIP3    H215361   0.519   6.185   0.370  1.3124 -1.8534  0.5923
 5133TIP3   OH215362   4.004   5.599   1.038  0.2342 -0.5078  0.4688
 5133TIP3    H115363   4.017   5.517   1.086 -0.6778 -0.5663  0.6349
 5133TIP3    H215364   3.939   5.577   0.971  1.5634 -0.4582 -0.9057
 5134TIP3   OH215365   1.675   2.721   3.897  0.3595 -0.2363  0.1070
 5134TIP3    H115366   1.627   2.732   3.815 -0.2471 -0.4384  0.4253
 5134TIP3    H215367   1.635   2.644   3.937  0.6833 -0.1626  0.5735
 5135TIP3   OH215368   0.848   4.907   2.012  0.2343 -0.4941 -0.7484
 5135TIP3    H115369   0.894   4.890   1.930  1.1829  0.7186 -0.4996
 5135TIP3    H215370   0.898   4.859   2.078  1.2837  0.9045 -0.4623
 5136TIP3   OH215371   4.171   0.554   0.044  0.4599 -0.7119  0.0704
 5136TIP3    H115372   4.155   0.640   0.004  2.6230  0.3157  1.2406
 5136TIP3    H215373   4.264   0.539   0.033  0.1041 -3.0319 -0.2276
 5137TIP3   OH215374   2.646   3.058   3.389  0.7588 -0.0924  0.2718
 5137TIP3    H115375   2.666   2.965   3.375  1.5376 -0.2109  1.8726
 5137TIP3    H215376   2.728   3.095   3.423 -0.5637  0.2402  3.5361
 5138TIP3   OH215377   0.746   6.389   0.121 -0.1377  0.3669  0.2796
 5138TIP3    H115378   0.831   6.430   0.108  0.5469 -0.9286  0.4151
 5138TIP3    H215379   0.682   6.453   0.090  0.9817  0.5494 -1.8025
 5139TIP3   OH215380   6.584   5.267   1.841  0.0123 -0.0393  0.2279
 5139TIP3    H115381   6.667   5.312   1.859 -0.2683  0.8811 -0.6925
 5139TIP3    H215382   6.522   5.307   1.901  0.2064 -0.6342  0.8243
 5140TIP3   OH215383   3.986   3.504   3.676 -0.6184  0.0234  0.1236
 5140TIP3    H115384   4.069   3.470   3.709 -0.4682  0.3915  0.1274
 5140TIP3    H215385   3.995   3.599   3.680 -0.8251  0.0737 -0.3991
 5141TIP3   OH215386   3.196   5.400   1.642  0.1230 -0.1113  0.7832
 5141TIP3    H115387   3.146   5.401   1.561 -1.0897 -1.2202  1.4900
 5141TIP3    H215388   3.162   5.474   1.692  0.3444  0.1179  0.5984
 5142TIP3   OH215389   5.562   1.614   3.717  0.7824 -0.6398 -0.1666
 5142TIP3    H115390   5.595   1.531   3.752  1.5463 -0.3429 -0.1729
 5142TIP3    H215391   5.475   1.624   3.757  1.0551 -1.0065  0.5291
 5143TIP3   OH215392   0.276   5.722   0.809  0.4568  0.1876  0.1899
 5143TIP3    H115393   0.292   5.653   0.874  0.1388  0.8621  1.0028
 5143TIP3    H215394   0.188   5.753   0.830  1.2834  2.0994  1.0239
 5144TIP3   OH215395   0.298   5.914   1.649 -0.0043 -0.3789 -0.4166
 5144TIP3    H115396   0.386   5.890   1.678 -0.5456 -2.6191 -0.4634
 5144TIP3    H215397   0.312   5.967   1.571  1.3008 -0.2684 -0.1360
 5145TIP3   OH215398   5.956   4.664   5.420  0.0734  0.2463  0.2263
 5145TIP3    H115399   5.893   4.630   5.484  0.6073  1.0153  1.1767
 5145TIP3    H215400   6.040   4.627   5.448  0.2940  0.4972 -0.1046
 5146TIP3   OH215401   6.380   4.300   3.630  0.0686 -0.5072 -0.3861
 5146TIP3    H115402   6.322   4.231   3.598 -0.8647  0.2956 -0.5150
 5146TIP3    H215403   6.366   4.373   3.569 -1.2689  0.8373  1.4049
 5147TIP3   OH215404   4.573   4.446   5.029  0.0650  0.0311 -0.0038
 5147TIP3    H115405   4.562   4.541   5.027 -0.5369 -0.0484 -1.4843
 5147TIP3    H215406   4.654   4.433   5.079  1.1041  1.4237 -1.2027
 5148TIP3   OH215407   4.742   6.682   4.192  0.1642 -0.2345  0.8369
 5148TIP3    H115408   4.828   6.644   4.207  0.0941  0.0001  1.9584
 5148TIP3    H215409   4.730   6.680   4.097  1.2118 -0.6757  0.7062
 5149TIP3   OH215410   4.833   3.243   1.380  0.5607  0.1773  0.5841
 5149TIP3    H115411   4.738   3.230   1.376  0.4451  1.2696 -1.6323
 5149TIP3    H215412   4.844   3.338   1.386  1.5422  0.0363  1.3890
 5150TIP3   OH215413   5.023   3.728   1.235  0.3942 -0.1438 -0.4650
 5150TIP3    H115414   5.098   3.676   1.204 -0.1249  0.7906 -3.6126
 5150TIP3    H215415   4.959   3.663   1.263  2.3802 -0.9632  2.5703
 5151TIP3   OH215416   5.612   4.642   5.054 -0.2875 -0.2932 -0.9096
 5151TIP3    H115417   5.570   4.651   4.969 -1.7772 -2.4083 -0.4828
 5151TIP3    H215418   5.638   4.550   5.059  1.0681  0.1137  0.3621
 5152TIP3   OH215419   5.436   5.359   2.920  0.0499 -0.2932  0.4772
 5152TIP3    H115420   5.481   5.302   2.982 -1.5112 -1.9858  0.1614
 5152TIP3    H215421   5.506   5.407   2.875  1.5024 -2.3507  0.4246
 5153TIP3   OH215422   2.728   1.305   2.497 -0.2785  0.1383 -0.0926
 5153TIP3    H115423   2.819   1.319   2.522 -0.2649  1.2344 -0.6974
 5153TIP3    H215424   2.680   1.302   2.580  0.0841  1.2668  0.1659
 5154TIP3   OH215425   4.028   1.867   2.462 -0.2100 -0.0808  0.1208
 5154TIP3    H115426   4.067   1.914   2.536  3.7157 -1.2760 -0.9682
 5154TIP3    H215427   3.981   1.795   2.502  1.4590 -0.4530  1.5490
 5155TIP3   OH215428   2.153   6.421   1.622  0.3262 -0.0192 -0.4024
 5155TIP3    H115429   2.189   6.471   1.549 -0.9870 -0.3599 -1.3227
 5155TIP3    H215430   2.195   6.335   1.615  0.9317  0.2508 -0.1532
 5156TIP3   OH215431   0.416   2.703   2.565 -0.5364 -0.0589 -0.1475
 5156TIP3    H115432   0.398   2.796   2.579 -0.6717 -0.3024  1.5555
 5156TIP3    H215433   0.420   2.666   2.653 -0.3760 -1.6547 -0.7877
 5157TIP3   OH215434   0.684   6.750   2.844 -0.2766  0.4968 -0.1168
 5157TIP3    H115435   0.728   6.707   2.771  0.0775  1.2192 -0.3338
 5157TIP3    H215436   0.606   6.790   2.805 -0.9134 -0.3914  0.1852
 5158TIP3   OH215437   2.325   4.179   3.690 -0.5175  0.3131  0.0976
 5158TIP3    H115438   2.231   4.168   3.676 -0.5997 -0.1291  0.9301
 5158TIP3    H215439   2.332   4.233   3.769 -0.1068 -2.0997  1.8147
 5159TIP3   OH215440   2.978   3.315   0.335 -0.1504  0.0530  0.0007
 5159TIP3    H115441   3.025   3.335   0.416  2.0133 -0.5501 -1.0090
 5159TIP3    H215442   2.893   3.356   0.345 -0.1775 -0.5223  2.8177
 5160TIP3   OH215443   4.707   1.819   4.126  0.5187 -0.0383 -0.0302
 5160TIP3    H115444   4.791   1.777   4.109  0.9806  0.8782 -0.0749
 5160TIP3    H215445   4.643   1.763   4.082  1.4403  1.1056 -3.0347
 5161TIP3   OH215446   6.453   2.987   5.140  0.2467 -0.1804  0.8071
 5161TIP3    H115447   6.393   2.912   5.139 -1.6252  1.1688  2.6442
 5161TIP3    H215448   6.484   2.991   5.231  2.6645 -0.4124  0.0496
 5162TIP3   OH215449   5.903   4.946   4.479  0.4056 -0.1064  0.2114
 5162TIP3    H115450   5.933   5.021   4.530  1.6560 -1.3244  1.3480
 5162TIP3    H215451   5.830   4.910   4.530 -1.5151  1.3926 -1.3036
 5163TIP3   OH215452   1.027   2.700   4.321  0.1913 -0.0586 -0.2672
 5163TIP3    H115453   0.957   2.635   4.321 -0.8816  0.9930  1.7839
 5163TIP3    H215454   0.990   2.775   4.368  2.0383  1.3150 -0.8758
 5164TIP3   OH215455   2.177   5.594   0.709 -0.7781  0.6263  0.0771
 5164TIP3    H115456   2.153   5.579   0.801 -0.3458  1.5981  0.3529
 5164TIP3    H215457   2.095   5.620   0.668 -0.7008  1.5582  0.4954
 5165TIP3   OH215458   6.005   3.664   5.470  0.2748  0.1520  0.3246
 5165TIP3    H115459   6.075   3.672   5.405 -1.3372  0.4976 -1.4568
 5165TIP3    H215460   5.987   3.754   5.497 -0.4382  0.2160 -0.3250
 5166TIP3   OH215461   2.401   4.990   4.954 -0.4147 -0.4515  0.6098
 5166TIP3    H115462   2.476   4.933   4.970 -1.0859 -1.0637  1.7019
 5166TIP3    H215463   2.346   4.941   4.893 -0.6901 -0.7163  1.0631
 5167TIP3   OH215464   4.129   4.041   3.030 -0.3372  0.2881  0.2891
 5167TIP3    H115465   4.159   4.096   2.958 -2.5046  0.7946 -0.2956
 5167TIP3    H215466   4.046   4.079   3.056 -0.2094 -0.6590  2.2460
 5168TIP3   OH215467   4.367   2.923   2.180 -0.8241  0.2283 -0.1019
 5168TIP3    H115468   4.376   2.968   2.264 -1.7194  0.7444 -0.2656
 5168TIP3    H215469   4.319   2.985   2.125 -2.7058 -1.1456 -0.1305
 5169TIP3   OH215470   0.667   0.729   0.314 -0.0019 -0.0065 -0.1101
 5169TIP3    H115471   0.762   0.733   0.327 -0.0832  0.7224  0.3124
 5169TIP3    H215472   0.656   0.688   0.229  0.6654 -0.9970  0.2619
 5170TIP3   OH215473   2.169   0.795   3.289 -0.1557  0.2206  0.3232
 5170TIP3    H115474   2.164   0.721   3.350 -2.1772  0.1256  0.1044
 5170TIP3    H215475   2.209   0.865   3.340  1.1194 -0.7793  0.7529
 5171TIP3   OH215476   3.698   6.253   1.956 -0.4986  0.1017 -0.3052
 5171TIP3    H115477   3.731   6.194   2.023  2.1698  0.1881 -1.4012
 5171TIP3    H215478   3.699   6.200   1.876  0.1268  1.0678 -0.9530
 5172TIP3   OH215479   0.240   0.692   5.587  0.0585 -0.1119 -0.1514
 5172TIP3    H115480   0.237   0.683   5.492 -0.3894 -0.6483 -0.0935
 5172TIP3    H215481   0.316   0.641   5.614 -0.9871 -1.6742 -0.0535
 5173TIP3   OH215482   3.594   6.190   4.095 -0.3655  0.1201  0.4526
 5173TIP3    H115483   3.554   6.128   4.156 -0.5634 -1.9903 -1.6535
 5173TIP3    H215484   3.524   6.211   4.032  0.4172  0.4782 -0.3213
 5174TIP3   OH215485   1.138   4.160   3.919 -0.3592 -0.1078 -0.6339
 5174TIP3    H115486   1.045   4.155   3.940 -0.5576 -1.0126 -1.6421
 5174TIP3    H215487   1.165   4.069   3.910  0.7173  0.1322  0.0160
 5175TIP3   OH215488   1.290   4.921   1.844  0.1325  0.5106  0.2085
 5175TIP3    H115489   1.245   4.983   1.901  1.7410  0.6017  1.4373
 5175TIP3    H215490   1.357   4.973   1.800 -0.2378  0.1633 -0.8025
 5176TIP3   OH215491   2.770   4.048   1.995  0.3807  0.0004  0.2139
 5176TIP3    H115492   2.675   4.061   1.995  0.1443 -1.4801 -0.9417
 5176TIP3    H215493   2.801   4.102   1.923  0.3033 -0.1795  0.0445
 5177TIP3   OH215494   1.701   6.393   3.418  0.2649 -0.7749  0.2703
 5177TIP3    H115495   1.629   6.455   3.432  0.1587 -0.7415 -0.3951
 5177TIP3    H215496   1.680   6.319   3.475 -1.0935 -1.4213 -1.0132
 5178TIP3   OH215497   4.416   4.926   1.554 -0.5009  0.0321  0.1249
 5178TIP3    H115498   4.327   4.901   1.576 -0.2006 -0.9818  0.2313
 5178TIP3    H215499   4.471   4.870   1.609  0.2091  1.9800  1.5361
 5179TIP3   OH215500   0.756   4.350   2.946  0.7953  0.5712  0.0856
 5179TIP3    H115501   0.756   4.327   2.853  0.1183 -0.1005  0.2304
 5179TIP3    H215502   0.689   4.292   2.984 -0.8400  2.6297  0.5445
 5180TIP3   OH215503   4.875   0.850   1.320 -0.3819  0.0839 -0.2872
 5180TIP3    H115504   4.926   0.930   1.308 -0.8980  0.7564  1.7395
 5180TIP3    H215505   4.797   0.864   1.267 -0.1752  0.6297 -0.4587
 5181TIP3   OH215506   3.380   2.046   1.616  0.5706  0.2756 -0.3583
 5181TIP3    H115507   3.439   2.090   1.555  0.8943 -0.1330 -0.3396
 5181TIP3    H215508   3.346   2.117   1.670 -0.9445  0.8606 -2.0095
 5182TIP3   OH215509   3.768   1.597   5.133 -0.4140  0.0976 -0.4039
 5182TIP3    H115510   3.790   1.504   5.141  0.4244  0.3481  0.3924
 5182TIP3    H215511   3.847   1.643   5.163 -1.0717  1.0599 -0.1065
 5183TIP3   OH215512   1.404   4.179   5.634  0.1508 -0.2553  0.2764
 5183TIP3    H115513   1.371   4.106   5.687  0.0635 -0.7704 -0.4644
 5183TIP3    H215514   1.406   4.144   5.545 -2.5251  1.4951 -0.5805
 5184TIP3   OH215515   4.780   4.537   0.008 -0.3161  0.0549  0.4260
 5184TIP3    H115516   4.737   4.621  -0.005 -0.1808  0.1350  0.5003
 5184TIP3    H215517   4.708   4.474   0.011 -0.2961 -0.1720 -2.0776
 5185TIP3   OH215518   6.816   5.476   5.622 -0.4328  0.3966  0.0838
 5185TIP3    H115519   6.826   5.452   5.530  0.5387  1.2883 -0.0611
 5185TIP3    H215520   6.896   5.524   5.643  0.1886 -1.2747  1.8800
 5186TIP3   OH215521   3.473   4.742   4.484 -0.4840  0.2564  0.2210
 5186TIP3    H115522   3.444   4.833   4.492  2.0753  1.0749  0.9868
 5186TIP3    H215523   3.522   4.739   4.402 -3.8682 -1.5306 -1.9721
 5187TIP3   OH215524   5.025   3.279   1.778 -0.0730  0.6093  0.4812
 5187TIP3    H115525   5.073   3.286   1.696 -1.3294  0.0847 -0.3149
 5187TIP3    H215526   4.953   3.218   1.760  0.0465 -0.1113  2.1713
 5188TIP3   OH215527   0.150   3.122   4.027  0.5725 -0.1559 -0.1645
 5188TIP3    H115528   0.084   3.055   4.045 -0.1154  0.5278 -0.1208
 5188TIP3    H215529   0.123   3.162   3.945 -0.0193  1.2486  0.6727
 5189TIP3   OH215530   4.850   6.159   5.047  0.2498 -0.1705  0.3436
 5189TIP3    H115531   4.809   6.199   4.970 -0.6044 -1.0480  0.3171
 5189TIP3    H215532   4.776   6.129   5.100  0.8461 -0.4226  1.0548
 5190TIP3   OH215533   5.480   5.645   3.546 -0.0028  0.5503  0.2008
 5190TIP3    H115534   5.525   5.617   3.625 -0.3855 -0.2876  0.1328
 5190TIP3    H215535   5.391   5.665   3.575 -0.0565  0.5526  0.0371
 5191TIP3   OH215536   1.991   5.667   1.341 -0.1514  0.0487  0.7378
 5191TIP3    H115537   2.010   5.675   1.434  1.5089  0.3326  0.4109
 5191TIP3    H215538   2.075   5.641   1.302 -0.5700  0.8929 -0.7953
 5192TIP3   OH215539   6.396   5.652   2.085 -0.6664 -0.1143 -1.2378
 5192TIP3    H115540   6.372   5.583   2.146 -0.2534  1.1516  0.4279
 5192TIP3    H215541   6.491   5.646   2.077 -0.6205  0.3059 -1.0266
 5193TIP3   OH215542   2.973   3.220   1.833 -0.4262 -0.2850 -0.1310
 5193TIP3    H115543   2.909   3.180   1.774 -0.5806  0.4682 -0.4789
 5193TIP3    H215544   2.926   3.230   1.916 -0.3832 -0.8161 -0.0347
 5194TIP3   OH215545   1.670   5.349   0.738 -0.4041 -0.0586 -0.1694
 5194TIP3    H115546   1.657   5.260   0.705 -0.5456 -1.1599  2.5401
 5194TIP3    H215547   1.763   5.352   0.761 -0.4056  0.4743 -0.2398
 5195TIP3   OH215548   1.010   4.809   2.241 -0.0994  0.7873 -0.1192
 5195TIP3    H115549   0.925   4.842   2.271 -0.3695  0.0692 -0.0941
 5195TIP3    H215550   1.074   4.859   2.292 -0.5161  0.9164  0.2811
 5196TIP3   OH215551   6.626   2.235   0.561 -0.1182  0.1837  0.3718
 5196TIP3    H115552   6.663   2.181   0.492  0.1823  1.3703 -0.4274
 5196TIP3    H215553   6.546   2.272   0.522 -0.0121  0.7635  0.6989
 5197TIP3   OH215554   4.127   1.413   3.277  0.0564 -0.4339  0.0699
 5197TIP3    H115555   4.153   1.438   3.189 -0.6398  2.1882  0.5099
 5197TIP3    H215556   4.193   1.452   3.334 -0.0210 -1.2971  0.7773
 5198TIP3   OH215557   5.424   4.245   5.532 -1.1552  0.0990 -0.0862
 5198TIP3    H115558   5.486   4.314   5.556 -1.5965  0.3491  0.3403
 5198TIP3    H215559   5.399   4.267   5.442 -0.2562 -0.2837 -0.4436
 5199TIP3   OH215560   1.085   0.307   0.296  0.2301 -0.6995  0.3857
 5199TIP3    H115561   1.061   0.279   0.384  2.7516 -1.9871  0.7583
 5199TIP3    H215562   1.117   0.227   0.253 -0.2993  0.0313 -1.4851
 5200TIP3   OH215563   1.178   1.678   1.014 -0.3420  0.0103  0.1971
 5200TIP3    H115564   1.198   1.590   0.982 -2.0814  0.2427 -1.7974
 5200TIP3    H215565   1.120   1.663   1.089  0.4937 -0.5358  0.7487
 5201TIP3   OH215566   6.233   4.830   4.492 -0.0330 -0.2084  0.6491
 5201TIP3    H115567   6.267   4.919   4.487 -0.1466 -0.2465 -1.8679
 5201TIP3    H215568   6.154   4.831   4.437  0.5221 -2.0793 -0.2517
 5202TIP3   OH215569   0.765   1.464   4.294  0.1497  0.3505 -0.1931
 5202TIP3    H115570   0.816   1.389   4.326  1.9306  1.6653  0.2445
 5202TIP3    H215571   0.802   1.483   4.208 -0.6685  0.4023 -0.5401
 5203TIP3   OH215572   6.620   2.009   1.921 -0.4247  0.5356  0.7310
 5203TIP3    H115573   6.645   1.989   1.831  1.1635 -1.0483  1.4541
 5203TIP3    H215574   6.701   2.036   1.964 -0.5696 -1.2681  2.2889
 5204TIP3   OH215575   1.968   5.559   4.745 -0.5561  0.0110  0.4866
 5204TIP3    H115576   1.935   5.580   4.658 -2.7263 -0.8450  1.0561
 5204TIP3    H215577   1.926   5.622   4.803  0.0027 -0.1349  1.0598
 5205TIP3   OH215578   2.992   6.105   0.662  0.1395 -0.0974 -0.3507
 5205TIP3    H115579   2.952   6.104   0.575  0.5395 -0.5586 -0.5365
 5205TIP3    H215580   2.952   6.032   0.708 -0.4505  0.4623  0.0343
 5206TIP3   OH215581   3.777   2.533   4.515  0.5379  0.7901  0.4239
 5206TIP3    H115582   3.794   2.627   4.505  0.8828  0.7983  1.0615
 5206TIP3    H215583   3.804   2.496   4.431 -2.3324  1.5901 -0.9890
 5207TIP3   OH215584   2.312   6.205   1.666  0.3349 -0.4568  0.0227
 5207TIP3    H115585   2.325   6.124   1.715  1.2151 -0.3875 -0.0853
 5207TIP3    H215586   2.354   6.273   1.719  1.1324 -0.3511 -0.7091
 5208TIP3   OH215587   3.943   6.340   3.805 -0.7150  0.0712  0.2744
 5208TIP3    H115588   3.925   6.404   3.736  0.7815 -0.0114 -0.2300
 5208TIP3    H215589   4.026   6.369   3.843 -1.3997 -0.0288  1.8839
 5209TIP3   OH215590   2.734   2.094   0.352  0.3572  0.0785 -0.4916
 5209TIP3    H115591   2.763   2.034   0.421  0.6961  0.1917 -0.5327
 5209TIP3    H215592   2.707   2.173   0.399 -0.8938 -0.3982 -0.3677
 5210TIP3   OH215593   3.146   1.904   5.123 -0.1514  0.6880  0.1530
 5210TIP3    H115594   3.094   1.960   5.065  0.8584  1.6850  0.1860
 5210TIP3    H215595   3.224   1.882   5.071 -0.0080  0.2318  0.5517
 5211TIP3   OH215596   3.342   1.211   5.874  0.1899  0.4742  0.5028
 5211TIP3    H115597   3.368   1.139   5.932 -0.4102  0.9048  1.3237
 5211TIP3    H215598   3.424   1.239   5.833  0.1787 -2.0765 -1.5191
 5212TIP3   OH215599   7.049   2.992   4.390 -0.0010  0.0795 -0.4296
 5212TIP3    H115600   7.009   2.960   4.309 -1.8478 -2.2579  1.2247
 5212TIP3    H215601   7.131   2.944   4.396  0.6038  0.9647 -1.3200
 5213TIP3   OH215602   5.116   6.057   3.614 -0.4911  0.4209 -0.3972
 5213TIP3    H115603   5.050   6.029   3.678  1.0239 -1.2499  0.5427
 5213TIP3    H215604   5.066   6.104   3.547 -2.4207  0.4486  0.9692
 5214TIP3   OH215605   5.227   0.337   2.899  0.4402  0.3011 -0.4695
 5214TIP3    H115606   5.192   0.402   2.837  1.0877  1.6486  0.5387
 5214TIP3    H215607   5.152   0.281   2.919 -0.1920  0.8609 -1.2126
 5215TIP3   OH215608   2.570   3.491   3.155 -0.1629 -0.6725 -0.3259
 5215TIP3    H115609   2.481   3.524   3.142 -1.6473 -3.5524  1.3488
 5215TIP3    H215610   2.588   3.440   3.076  0.0940  0.0265 -0.7282
 5216TIP3   OH215611   6.363   0.918   0.423  0.1722 -0.0821  0.3111
 5216TIP3    H115612   6.404   1.004   0.438 -0.5842  0.3847 -0.2543
 5216TIP3    H215613   6.306   0.931   0.348  0.5081 -1.2512 -0.1690
 5217TIP3   OH215614   0.955   0.855   0.467  0.2248  0.0744  0.5028
 5217TIP3    H115615   1.017   0.786   0.444 -1.2886 -1.1779 -0.0109
 5217TIP3    H215616   0.923   0.889   0.384  0.5452  1.0334  0.7565
 5218TIP3   OH215617   0.369   4.968   0.777 -0.2916 -0.4051 -0.0934
 5218TIP3    H115618   0.410   5.011   0.701  1.7768  0.6891  1.5252
 5218TIP3    H215619   0.429   4.987   0.850 -2.5962 -0.7039  2.0039
 5219TIP3   OH215620   3.508   4.275   4.615  0.1617 -0.5294  0.4461
 5219TIP3    H115621   3.438   4.249   4.555  0.6020  0.8987 -0.7539
 5219TIP3    H215622   3.464   4.326   4.683 -0.0392  0.0428 -0.0990
 5220TIP3   OH215623   2.929   5.197   3.046 -0.4047  0.5520  0.1060
 5220TIP3    H115624   2.933   5.132   2.975  0.1688  1.0897 -0.3547
 5220TIP3    H215625   3.020   5.214   3.068 -0.5795  0.4691  0.9106
 5221TIP3   OH215626   5.945   2.975   5.198 -0.1039  0.2913 -0.1048
 5221TIP3    H115627   5.925   2.882   5.196  0.0693  0.2579 -0.3469
 5221TIP3    H215628   5.978   2.995   5.110  0.8238  0.3585  0.2392
 5222TIP3   OH215629   6.834   2.320   0.131 -0.3864 -0.2613 -0.0921
 5222TIP3    H115630   6.917   2.365   0.144 -0.7029  0.7668 -1.4409
 5222TIP3    H215631   6.773   2.365   0.190 -0.1891 -0.4598  0.2691
 5223TIP3   OH215632   0.679   0.474   1.507  0.1662  0.5474  0.3130
 5223TIP3    H115633   0.709   0.511   1.424 -0.2993 -1.4613 -0.8344
 5223TIP3    H215634   0.586   0.454   1.492 -0.0379  0.5483  1.4796
 5224TIP3   OH215635   1.054   6.095   0.299 -0.2883 -0.0170  0.0887
 5224TIP3    H115636   1.076   6.089   0.392  0.6923  0.6290 -0.0846
 5224TIP3    H215637   1.122   6.152   0.262  0.3944 -1.6696 -1.3619
 5225TIP3   OH215638   0.476   4.911   0.098  0.5332  0.0642 -0.4148
 5225TIP3    H115639   0.517   4.996   0.115  2.1661 -0.6412 -0.6163
 5225TIP3    H215640   0.531   4.849   0.146 -0.3073 -0.9381 -0.7329
 5226TIP3   OH215641   2.955   3.721   5.815 -0.0294  0.0347  0.0866
 5226TIP3    H115642   3.005   3.693   5.739  0.2745 -3.1640  1.3145
 5226TIP3    H215643   2.864   3.703   5.791 -0.1677  1.2612 -0.3552
 5227TIP3   OH215644   4.605   1.224   1.103  0.0075  0.5119 -0.3060
 5227TIP3    H115645   4.593   1.284   1.030 -0.4371  0.6858 -0.0916
 5227TIP3    H215646   4.537   1.157   1.091 -0.0789  0.5506 -0.0474
 5228TIP3   OH215647   3.391   0.382   3.413 -0.4981 -0.5111 -0.0773
 5228TIP3    H115648   3.393   0.289   3.391  0.1938 -0.9136  1.5541
 5228TIP3    H215649   3.316   0.390   3.473 -0.3396 -0.0905  0.0642
 5229TIP3   OH215650   2.586   6.080   0.467  0.0353 -0.7985 -0.2490
 5229TIP3    H115651   2.670   6.124   0.451  0.1212 -0.3952  1.1969
 5229TIP3    H215652   2.564   6.040   0.383  1.7917 -1.1222 -0.5906
 5230TIP3   OH215653   6.271   5.835   3.390 -0.4320 -0.8008  0.7215
 5230TIP3    H115654   6.224   5.868   3.467 -2.1576 -0.2891 -0.5017
 5230TIP3    H215655   6.262   5.740   3.396  0.2088 -0.8234  1.5867
 5231TIP3   OH215656   4.805   4.922   4.202 -0.4586 -0.2129 -0.0361
 5231TIP3    H115657   4.896   4.951   4.198 -1.0883  1.7844 -0.8691
 5231TIP3    H215658   4.795   4.863   4.127 -0.7044  2.3632 -2.1775
 5232TIP3   OH215659   5.286   3.541   4.773 -0.0546  0.6252  0.0529
 5232TIP3    H115660   5.256   3.460   4.814  0.6899  1.0969  1.5830
 5232TIP3    H215661   5.381   3.532   4.767 -0.0342  1.0755 -0.4768
 5233TIP3   OH215662   1.796   1.604   4.894  0.2249 -0.0907 -0.2832
 5233TIP3    H115663   1.879   1.651   4.890  1.4021 -2.0633  0.0020
 5233TIP3    H215664   1.739   1.651   4.833  2.4006 -0.3226 -2.6494
 5234TIP3   OH215665   2.251   6.524   1.413 -0.4380 -0.0796  0.1993
 5234TIP3    H115666   2.312   6.584   1.370  1.9086 -1.6680  1.0834
 5234TIP3    H215667   2.207   6.480   1.341  1.7412 -1.0546 -0.6418
 5235TIP3   OH215668   4.076   0.690   0.877  0.1408 -0.2899  0.1024
 5235TIP3    H115669   4.110   0.732   0.798  0.7609 -1.0545 -0.0531
 5235TIP3    H215670   4.100   0.750   0.948 -0.7927  0.6054 -0.3159
 5236TIP3   OH215671   7.071   4.655   0.450  0.2902 -0.2502 -0.0589
 5236TIP3    H115672   7.044   4.631   0.361  1.1022 -0.0759 -0.3650
 5236TIP3    H215673   7.067   4.574   0.500  0.2613 -0.4399 -0.3680
 5237TIP3   OH215674   4.419   3.563   3.546  0.1279 -0.5299  0.2399
 5237TIP3    H115675   4.510   3.592   3.546  0.0361 -0.1402 -1.2858
 5237TIP3    H215676   4.368   3.644   3.540 -0.2163 -0.8335 -1.4131
 5238TIP3   OH215677   2.850   5.324   1.762  0.2447  0.4188 -0.8691
 5238TIP3    H115678   2.924   5.373   1.799  0.1870  0.5322 -0.9013
 5238TIP3    H215679   2.824   5.375   1.685 -0.9277  1.3012  0.0647
 5239TIP3   OH215680   4.640   6.528   2.601  0.3657  0.1979 -0.5789
 5239TIP3    H115681   4.582   6.535   2.677  0.1845  0.5100 -0.7446
 5239TIP3    H215682   4.716   6.582   2.623  0.3141  0.2869 -0.6191
 5240TIP3   OH215683   4.631   0.615   3.318  0.3171  0.0822  0.5456
 5240TIP3    H115684   4.711   0.653   3.282 -0.0246  1.1963  0.9260
 5240TIP3    H215685   4.565   0.629   3.251  0.2252  0.0211  0.6221
 5241TIP3   OH215686   3.815   5.907   0.769  0.2550 -0.0283 -0.5103
 5241TIP3    H115687   3.729   5.917   0.729 -0.4150  2.7210  1.3364
 5241TIP3    H215688   3.820   5.977   0.834  2.6630 -2.0020  1.6698
 5242TIP3   OH215689   6.939   2.621   5.487 -0.2716  0.0989 -0.1517
 5242TIP3    H115690   6.994   2.699   5.474 -0.0713 -0.4226 -3.4212
 5242TIP3    H215691   6.853   2.646   5.450  0.1850 -1.5214 -2.5931
 5243TIP3   OH215692   4.829   4.975   1.575 -0.1884 -0.0354 -0.3407
 5243TIP3    H115693   4.761   4.912   1.599 -1.2211  1.2732  0.2912
 5243TIP3    H215694   4.788   5.031   1.510  1.0502 -0.5828 -1.6431
 5244TIP3   OH215695   5.014   5.231   3.892 -0.1806  0.7699  0.2938
 5244TIP3    H115696   5.065   5.303   3.929  0.4467  0.3238  0.3128
 5244TIP3    H215697   4.994   5.260   3.802  0.6933  0.6670  0.0527
 5245TIP3   OH215698   5.204   4.597   3.227  0.5578  0.2268  0.3057
 5245TIP3    H115699   5.295   4.613   3.202 -0.0644  3.0716 -0.4626
 5245TIP3    H215700   5.169   4.543   3.156  1.0124  1.2278 -0.7137
 5246TIP3   OH215701   7.139   1.216   0.688  0.2660 -0.2609  0.2601
 5246TIP3    H115702   7.157   1.258   0.772 -0.6552  1.2786 -0.2656
 5246TIP3    H215703   7.048   1.239   0.669  0.7762  0.3504 -1.6731
 5247TIP3   OH215704   3.348   2.142   4.389 -0.0069  0.1373 -0.5465
 5247TIP3    H115705   3.408   2.154   4.462 -0.3157  0.4782 -0.3457
 5247TIP3    H215706   3.394   2.178   4.313 -0.3356  1.2740 -0.2192
 5248TIP3   OH215707   0.267   6.035   3.261  0.2547  0.9960  0.2728
 5248TIP3    H115708   0.296   6.123   3.240  0.7932  1.0800  1.2781
 5248TIP3    H215709   0.317   6.012   3.340 -2.3579  1.1474  2.1251
 5249TIP3   OH215710   2.756   2.417   5.183 -0.0496  0.4442 -0.8810
 5249TIP3    H115711   2.755   2.360   5.107  0.3935  0.6268 -1.0308
 5249TIP3    H215712   2.668   2.456   5.186 -0.2414  0.0173 -0.9721
 5250TIP3   OH215713   5.868   6.263   0.454 -0.1730  0.1276  0.5164
 5250TIP3    H115714   5.899   6.333   0.511  0.7142  1.2982 -1.3178
 5250TIP3    H215715   5.773   6.261   0.469 -0.4234  2.5806 -0.1957
 5251TIP3   OH215716   4.501   4.679   4.680  0.4808  0.1559  0.2637
 5251TIP3    H115717   4.569   4.744   4.697 -0.6336  0.8227  2.5668
 5251TIP3    H215718   4.436   4.693   4.749 -0.8950 -1.9566 -0.4907
 5252TIP3   OH215719   3.408   2.116   3.983 -0.1851  0.1953 -0.4617
 5252TIP3    H115720   3.350   2.082   4.051  0.2593  2.3048  1.0871
 5252TIP3    H215721   3.360   2.190   3.945 -0.0150 -0.3464 -1.7942
 5253TIP3   OH215722   1.225   4.108   4.968  0.2920 -0.4360  0.1415
 5253TIP3    H115723   1.244   4.199   4.945 -0.7605  0.3052  1.9883
 5253TIP3    H215724   1.193   4.069   4.886 -1.5119  1.5233 -0.1654
 5254TIP3   OH215725   3.397   6.237   0.185 -0.2328  0.1419 -0.1100
 5254TIP3    H115726   3.368   6.236   0.276  1.1628 -2.3032  0.3908
 5254TIP3    H215727   3.461   6.308   0.180 -1.7360  1.5893  0.2582
 5255TIP3   OH215728   2.588   6.214   4.738  0.1893 -0.6513  0.3627
 5255TIP3    H115729   2.507   6.163   4.726  0.7025 -1.0544 -1.7422
 5255TIP3    H215730   2.643   6.158   4.792  0.8132 -2.5539 -2.0563
 5256TIP3   OH215731   3.152   6.190   2.394  0.2233  0.2518 -0.6739
 5256TIP3    H115732   3.178   6.253   2.327  0.5095  0.1435 -0.6667
 5256TIP3    H215733   3.072   6.150   2.360  0.5786 -0.0789 -1.1349
 5257TIP3   OH215734   3.712   0.721   4.182 -0.1649 -0.0549  0.3800
 5257TIP3    H115735   3.781   0.656   4.198 -2.6102 -3.3389 -1.1097
 5257TIP3    H215736   3.729   0.752   4.093 -0.9052 -1.4425 -0.2866
 5258TIP3   OH215737   1.647   6.615   3.645  0.4158 -0.0137 -0.6394
 5258TIP3    H115738   1.742   6.617   3.633  0.8674  1.3645  2.3513
 5258TIP3    H215739   1.630   6.529   3.685  0.2184 -0.6739 -2.0873
 5259TIP3   OH215740   6.616   3.133   1.456  0.1395  0.2375  0.1184
 5259TIP3    H115741   6.565   3.164   1.382  0.0132 -0.2005  0.0192
 5259TIP3    H215742   6.686   3.198   1.466 -1.0498  1.4214  0.9435
 5260TIP3   OH215743   6.092   0.449   4.029  0.2951 -0.3002 -0.2815
 5260TIP3    H115744   6.007   0.418   4.061  0.1319  0.5491  0.1317
 5260TIP3    H215745   6.094   0.424   3.937 -1.8124  2.4343 -1.2135
 5261TIP3   OH215746   3.033   3.950   5.430 -0.1989  0.1685  0.2620
 5261TIP3    H115747   3.106   3.893   5.455  0.2779  0.7632  0.2492
 5261TIP3    H215748   2.972   3.945   5.504  0.5281  0.7849  0.9196
 5262TIP3   OH215749   3.613   6.299   0.958 -0.2685  0.2039  0.2997
 5262TIP3    H115750   3.533   6.350   0.942 -0.9890 -1.1320 -0.5435
 5262TIP3    H215751   3.661   6.351   1.023 -1.7116  1.1485  0.6846
 5263TIP3   OH215752   0.876   1.809   3.907  0.0769  0.0979  0.2170
 5263TIP3    H115753   0.839   1.724   3.933  0.0776  0.3063  0.9318
 5263TIP3    H215754   0.813   1.873   3.940 -0.7666  0.3337 -1.7413
 5264TIP3   OH215755   0.764   2.781   5.325  0.2663  0.2071  0.1307
 5264TIP3    H115756   0.790   2.719   5.257 -0.8240 -0.8348  0.6193
 5264TIP3    H215757   0.676   2.808   5.300  0.9978  2.1691 -0.4708
 5265TIP3   OH215758   2.840   4.192   1.311  0.8361  0.2461 -0.2826
 5265TIP3    H115759   2.924   4.160   1.345  1.1833  2.1340  0.7762
 5265TIP3    H215760   2.776   4.164   1.376  0.7909 -0.2404 -0.5297
 5266TIP3   OH215761   1.717   2.714   5.565 -0.9930 -0.0707  0.0520
 5266TIP3    H115762   1.693   2.624   5.542  0.0097 -0.0224 -1.2641
 5266TIP3    H215763   1.772   2.744   5.493 -1.3796  1.6437  0.4239
 5267TIP3   OH215764   4.135   3.615   3.117  0.0268 -0.2224  0.4878
 5267TIP3    H115765   4.187   3.552   3.068  0.1628 -0.5436  1.0463
 5267TIP3    H215766   4.109   3.570   3.197  0.8892  0.7150  1.3281
 5268TIP3   OH215767   3.706   1.258   0.502 -0.2377 -0.2423  0.0239
 5268TIP3    H115768   3.660   1.190   0.452 -0.3832 -1.3590  1.5949
 5268TIP3    H215769   3.785   1.275   0.452  1.0759 -3.4360  0.7694
 5269TIP3   OH215770   5.977   0.645   1.539 -0.6510 -0.3496  0.1850
 5269TIP3    H115771   5.902   0.665   1.596 -2.9501  0.6045 -2.8719
 5269TIP3    H215772   6.039   0.716   1.555 -2.4662  1.4538 -0.3171
 5270TIP3   OH215773   4.985   3.520   5.141  0.3078 -0.4425 -0.1938
 5270TIP3    H115774   5.041   3.486   5.072  2.1981 -2.2642  2.0469
 5270TIP3    H215775   5.016   3.610   5.155  2.7367 -1.3676  0.8985
 5271TIP3   OH215776   0.881   3.998   1.937 -0.0479 -0.5646  0.1869
 5271TIP3    H115777   0.900   4.041   1.854  1.6662  0.3047  0.9883
 5271TIP3    H215778   0.787   3.978   1.932 -1.1621  3.6909 -0.0870
 5272TIP3   OH215779   4.035   1.749   4.211  0.2674  0.9131 -0.5567
 5272TIP3    H115780   4.089   1.718   4.138 -0.3277 -1.3261 -0.1199
 5272TIP3    H215781   3.953   1.701   4.202 -0.3416  1.6589  0.7951
 5273TIP3   OH215782   0.958   5.214   5.431 -0.1340  0.6989  0.0831
 5273TIP3    H115783   0.920   5.291   5.473 -0.9772  0.2055  0.2637
 5273TIP3    H215784   1.017   5.177   5.496  0.6469  1.4640 -0.1868
 5274TIP3   OH215785   7.109   1.217   5.183 -0.5269  0.5105  0.3797
 5274TIP3    H115786   7.103   1.174   5.269 -0.0384  0.3056  0.3131
 5274TIP3    H215787   7.073   1.304   5.197 -0.9670  0.2900  0.6620
 5275TIP3   OH215788   5.187   2.346   5.684 -0.1177  0.1239  0.4774
 5275TIP3    H115789   5.282   2.359   5.683 -0.2667  1.5116  1.2455
 5275TIP3    H215790   5.174   2.256   5.653  1.5242 -0.5482  1.5947
 5276TIP3   OH215791   5.489   5.680   2.178  0.2775 -0.0656 -0.4410
 5276TIP3    H115792   5.471   5.659   2.087  1.2649  1.3487 -0.9962
 5276TIP3    H215793   5.466   5.772   2.187  0.1002 -0.2044  0.7780
 5277TIP3   OH215794   6.405   1.488   4.295  0.2251  0.4126  0.5331
 5277TIP3    H115795   6.425   1.562   4.238 -2.0211  0.5720 -0.1292
 5277TIP3    H215796   6.338   1.520   4.355  1.3547 -0.2451  2.2459
 5278TIP3   OH215797   7.175   0.794   3.921 -0.1087 -0.2214 -1.2685
 5278TIP3    H115798   7.192   0.794   4.016  1.3816 -0.4476 -1.5036
 5278TIP3    H215799   7.081   0.780   3.913 -0.0978 -1.3900  0.1723
 5279TIP3   OH215800   3.070   6.141   4.087  0.4708 -0.2037 -0.3580
 5279TIP3    H115801   3.082   6.235   4.103 -2.4335  0.1056  0.7078
 5279TIP3    H215802   3.000   6.137   4.021  0.1537 -1.5897  0.0272
 5280TIP3   OH215803   6.365   4.749   3.381  0.3192  0.2085  0.2821
 5280TIP3    H115804   6.270   4.764   3.375  0.2242 -0.4870 -0.0986
 5280TIP3    H215805   6.389   4.782   3.468  0.1239  2.3444 -0.4179
 5281TIP3   OH215806   3.392   6.278   4.694  0.1746  0.6011  0.6511
 5281TIP3    H115807   3.396   6.373   4.682 -0.5167  0.6639  0.8454
 5281TIP3    H215808   3.319   6.265   4.754  1.0668  0.0174  1.6269
 5282TIP3   OH215809   2.895   1.443   2.821  0.4567 -0.1464 -0.5364
 5282TIP3    H115810   2.912   1.370   2.761  0.9895  1.1103 -1.9863
 5282TIP3    H215811   2.981   1.463   2.858  0.0362 -1.2700  1.1120
 5283TIP3   OH215812   1.099   0.100   1.656 -0.5945  0.7660  0.0916
 5283TIP3    H115813   1.090   0.031   1.722 -3.0813  0.2045 -0.7044
 5283TIP3    H215814   1.168   0.068   1.597 -0.6385 -0.3012  0.5953
 5284TIP3   OH215815   3.227   5.084   5.042 -0.3237  0.5246 -0.1980
 5284TIP3    H115816   3.231   5.091   5.137 -2.4790  1.6015 -0.1178
 5284TIP3    H215817   3.173   5.007   5.026 -0.7457  0.8750 -0.5036
 5285TIP3   OH215818   0.505   3.827   3.812  0.1274  0.3640  0.4783
 5285TIP3    H115819   0.448   3.761   3.852  1.6020 -1.7452 -0.6865
 5285TIP3    H215820   0.583   3.829   3.868  0.0100  1.2651  0.6138
 5286TIP3   OH215821   2.244   3.377   5.503 -0.2209 -0.0506  0.1438
 5286TIP3    H115822   2.243   3.464   5.543  0.0594 -0.7020  1.6683
 5286TIP3    H215823   2.204   3.388   5.417  0.1616  1.6468  0.1632
 5287TIP3   OH215824   4.849   1.171   0.969 -0.3819 -0.2914 -0.3349
 5287TIP3    H115825   4.756   1.166   0.951 -0.5056 -2.3271  0.6347
 5287TIP3    H215826   4.867   1.265   0.980 -2.1435  0.1792 -1.2070
 5288TIP3   OH215827   4.389   2.919   4.980 -0.3120  0.3970  0.3277
 5288TIP3    H115828   4.455   2.982   5.009 -0.6307  0.8953 -0.0262
 5288TIP3    H215829   4.306   2.968   4.982 -0.8859 -0.5538  1.9740
 5289TIP3   OH215830   1.239   1.579   0.233 -0.1274 -0.3636 -0.0448
 5289TIP3    H115831   1.149   1.548   0.222 -0.2456 -0.9805  2.1984
 5289TIP3    H215832   1.233   1.674   0.223 -0.6746 -0.5296 -1.7064
 5290TIP3   OH215833   1.718   1.069   3.286  0.0455  0.0206  0.2984
 5290TIP3    H115834   1.628   1.046   3.310  0.1097 -1.2788 -0.6050
 5290TIP3    H215835   1.738   1.145   3.340 -1.4921  0.1547  0.7325
 5291TIP3   OH215836   6.855   1.737   2.194 -0.3166 -0.0143 -0.1078
 5291TIP3    H115837   6.896   1.709   2.112  0.2226 -0.4643  0.3005
 5291TIP3    H215838   6.903   1.688   2.261 -1.6404 -0.6836  0.3763
 5292TIP3   OH215839   6.549   0.805   4.370 -0.0800 -0.0559  0.2013
 5292TIP3    H115840   6.513   0.839   4.451 -2.9058 -1.8827 -0.1255
 5292TIP3    H215841   6.589   0.721   4.395  0.4555  0.1221 -0.0511
 5293TIP3   OH215842   0.761   4.479   5.120  0.3345  0.4226 -0.2695
 5293TIP3    H115843   0.702   4.439   5.055 -2.6483 -0.9727  3.0008
 5293TIP3    H215844   0.745   4.573   5.113 -1.4824  0.1395 -0.2258
 5294TIP3   OH215845   4.696   4.409   2.014 -0.0449  0.0900  0.2197
 5294TIP3    H115846   4.630   4.356   1.969 -1.7397  2.4834 -0.3289
 5294TIP3    H215847   4.739   4.348   2.075 -1.9875 -1.8361 -0.2271
 5295TIP3   OH215848   4.233   3.866   3.454 -0.0831 -0.2205 -0.1973
 5295TIP3    H115849   4.259   3.875   3.362 -0.0270 -1.4603 -0.3167
 5295TIP3    H215850   4.141   3.893   3.455  0.1184  0.5009 -0.4735
 5296TIP3   OH215851   6.301   6.610   4.247  0.0480  0.0103  0.1752
 5296TIP3    H115852   6.327   6.664   4.172 -1.0749  0.5900  0.1913
 5296TIP3    H215853   6.240   6.665   4.296  1.5979  0.0824  2.1393
 5297TIP3   OH215854   0.386   2.006   4.673  0.2450  0.0558 -0.4851
 5297TIP3    H115855   0.312   2.063   4.690 -0.3625 -0.6395 -0.7644
 5297TIP3    H215856   0.360   1.953   4.598  0.3258 -1.3921  0.4644
 5298TIP3   OH215857   5.592   4.189   3.877  0.0605  0.0965  0.3645
 5298TIP3    H115858   5.685   4.173   3.860  0.5301  1.3821  1.4852
 5298TIP3    H215859   5.578   4.154   3.965 -0.5691 -0.2600  0.1263
 5299TIP3   OH215860   4.327   1.111   1.197  0.2978  0.3452 -0.1578
 5299TIP3    H115861   4.390   1.077   1.261  1.3339  2.7479  0.2080
 5299TIP3    H215862   4.249   1.133   1.249  0.7051  1.2016  0.1032
 5300TIP3   OH215863   3.253   5.935   4.074 -0.1111 -0.2414  0.3199
 5300TIP3    H115864   3.210   6.019   4.060  0.3938 -0.3212 -2.3266
 5300TIP3    H215865   3.313   5.951   4.147  1.2678  2.3008 -1.1903
 5301TIP3   OH215866   4.127   2.533   2.395  0.2824  0.1735  0.9012
 5301TIP3    H115867   4.146   2.582   2.475 -0.0117  0.2518  0.9271
 5301TIP3    H215868   4.046   2.574   2.361 -1.2991 -1.7647  2.1409
 5302TIP3   OH215869   1.678   4.316   2.856  0.2867  0.2185  0.0381
 5302TIP3    H115870   1.747   4.257   2.885 -1.0392 -1.5184 -0.2307
 5302TIP3    H215871   1.652   4.282   2.770  0.6594  2.2460 -0.9578
 5303TIP3   OH215872   5.924   4.664   0.305 -0.1301  0.6853 -0.2728
 5303TIP3    H115873   5.994   4.608   0.338 -0.3693  0.8169  0.4593
 5303TIP3    H215874   5.883   4.612   0.235 -2.0191 -1.2244  2.0632
 5304TIP3   OH215875   3.616   4.871   2.760 -0.1743 -0.4841  0.4333
 5304TIP3    H115876   3.655   4.955   2.736 -0.8980  0.3413  1.9808
 5304TIP3    H215877   3.680   4.830   2.818 -0.6930 -0.0498  1.3335
 5305TIP3   OH215878   5.603   4.284   0.814 -0.4738  0.7458  0.2297
 5305TIP3    H115879   5.535   4.305   0.878 -1.2000  1.4963 -0.7572
 5305TIP3    H215880   5.593   4.350   0.745  0.2083 -0.1038 -0.7211
 5306TIP3   OH215881   3.358   2.628   3.049 -0.4063 -0.6642  0.2631
 5306TIP3    H115882   3.410   2.575   3.110  0.8048  0.9457  0.6913
 5306TIP3    H215883   3.333   2.566   2.980  2.1949 -1.5364 -0.0141
 5307TIP3   OH215884   5.335   0.802   0.452 -0.3524 -0.0449  0.2582
 5307TIP3    H115885   5.385   0.756   0.385  0.9218 -0.7252  1.6141
 5307TIP3    H215886   5.383   0.883   0.467 -2.1233  1.4326 -1.5151
 5308TIP3   OH215887   4.686   4.440   4.780  0.1664  0.4444  1.1479
 5308TIP3    H115888   4.621   4.496   4.737 -0.3670  0.2230  1.6544
 5308TIP3    H215889   4.645   4.414   4.863  0.5161 -0.4620  1.0517
 5309TIP3   OH215890   2.572   5.023   5.452  0.5930  0.0114 -0.0467
 5309TIP3    H115891   2.571   4.936   5.411  0.7706 -0.2889  0.5748
 5309TIP3    H215892   2.482   5.036   5.482  0.5648  0.0472 -0.1451
 5310TIP3   OH215893   5.448   3.450   5.375 -0.3115  0.6016  0.1768
 5310TIP3    H115894   5.403   3.519   5.425  1.8655  1.0856  1.6448
 5310TIP3    H215895   5.524   3.494   5.337  0.0671 -0.5920 -0.5014
 5311TIP3   OH215896   3.573   1.064   3.504  0.2869 -0.3504  0.2726
 5311TIP3    H115897   3.557   1.123   3.431 -0.0564 -2.2187 -1.2416
 5311TIP3    H215898   3.488   1.025   3.523  0.4832 -0.2973  1.3128
 5312TIP3   OH215899   3.795   5.134   3.700  0.1578 -0.0455 -0.0558
 5312TIP3    H115900   3.882   5.095   3.693  0.1078 -0.0643 -0.6558
 5312TIP3    H215901   3.808   5.226   3.679 -0.2160 -0.3670 -1.9458
 5313TIP3   OH215902   3.084   0.895   5.038 -0.0577  0.2976  0.2880
 5313TIP3    H115903   3.081   0.806   5.002  0.1272  0.5742 -0.4368
 5313TIP3    H215904   3.070   0.952   4.962  0.7820  0.9158  0.5828
 5314TIP3   OH215905   3.398   5.636   0.325 -0.1767 -0.9456 -0.0193
 5314TIP3    H115906   3.441   5.584   0.256  0.1177  0.8285 -1.2624
 5314TIP3    H215907   3.365   5.571   0.387  0.9226 -2.5597 -1.0273
 5315TIP3   OH215908   3.176   2.566   4.374 -0.2969 -0.1758 -0.5190
 5315TIP3    H115909   3.216   2.627   4.436 -0.1053  0.0267 -0.8344
 5315TIP3    H215910   3.103   2.527   4.421  0.8278 -1.2436  0.3961
 5316TIP3   OH215911   5.860   2.065   1.857 -0.3701 -0.8560  0.3681
 5316TIP3    H115912   5.831   1.985   1.812 -0.7437 -0.0231 -0.9051
 5316TIP3    H215913   5.952   2.049   1.878  0.0601 -0.9486 -1.4614
 5317TIP3   OH215914   2.423   2.015   2.254  0.0323 -0.1390 -0.4677
 5317TIP3    H115915   2.424   1.920   2.250 -0.5476 -0.1972  0.3748
 5317TIP3    H215916   2.500   2.037   2.307 -1.0723 -0.2948  1.2860
 5318TIP3   OH215917   7.032   3.131   2.752 -0.2700 -0.4324  0.0303
 5318TIP3    H115918   7.106   3.188   2.728 -0.2595 -0.2946  0.3838
 5318TIP3    H215919   7.070   3.068   2.813 -0.6916  0.3461  1.1169
 5319TIP3   OH215920   6.427   5.431   1.186 -0.1644  0.6111  0.0302
 5319TIP3    H115921   6.355   5.369   1.178  0.5641 -0.0988 -1.2251
 5319TIP3    H215922   6.384   5.515   1.204 -1.4516  0.5518 -2.3901
 5320TIP3   OH215923   6.962   4.937   4.491  0.3755 -0.0027  0.1615
 5320TIP3    H115924   7.046   4.895   4.475  0.7180  1.0463 -0.9349
 5320TIP3    H215925   6.984   5.027   4.517 -0.4001  0.7715 -1.6835
 5321TIP3   OH215926   1.878   0.201   1.579  0.6555  0.6529  0.6325
 5321TIP3    H115927   1.903   0.207   1.671  0.9903 -0.5496  0.6278
 5321TIP3    H215928   1.822   0.124   1.574 -0.9435  1.7698  0.1521
 5322TIP3   OH215929   0.112   2.135   0.751 -0.6736  0.0414 -0.2938
 5322TIP3    H115930   0.103   2.125   0.846  0.4666  0.7094 -0.1020
 5322TIP3    H215931   0.205   2.147   0.737 -0.7548 -0.6547 -1.5735
 5323TIP3   OH215932   0.957   5.325   2.562  0.4396  0.0300  0.6179
 5323TIP3    H115933   0.932   5.336   2.470  0.2422 -0.4550  0.6073
 5323TIP3    H215934   1.052   5.335   2.563  0.4660 -0.1787  0.3273
 5324TIP3   OH215935   6.625   3.666   2.519  0.0234 -0.0897 -0.0088
 5324TIP3    H115936   6.606   3.737   2.458  2.4617 -0.7387 -1.6888
 5324TIP3    H215937   6.584   3.589   2.480 -0.8594 -0.0043  0.7233
 5325TIP3   OH215938   1.221   5.564   1.911 -0.6105  0.5921  0.3060
 5325TIP3    H115939   1.144   5.540   1.962 -0.6849  1.2794  0.5197
 5325TIP3    H215940   1.254   5.644   1.951 -0.7364  1.2182 -0.7806
 5326TIP3   OH215941   2.670   4.759   1.343 -0.3369 -0.1236  0.5619
 5326TIP3    H115942   2.756   4.764   1.385 -1.3135 -0.9638  2.8162
 5326TIP3    H215943   2.688   4.721   1.257  1.6958  1.1065  0.3694
 5327TIP3   OH215944   3.411   6.181   0.724 -0.1430  0.7373  0.9551
 5327TIP3    H115945   3.344   6.184   0.792  0.2657  0.0761  1.3985
 5327TIP3    H215946   3.484   6.230   0.761 -0.3200  1.3314  0.5321
 5328TIP3   OH215947   6.203   0.994   0.778  0.5128  0.4067 -0.3426
 5328TIP3    H115948   6.227   0.920   0.722  2.3586  0.0732  0.8079
 5328TIP3    H215949   6.137   0.958   0.838 -0.9791  0.5945 -1.8001
 5329TIP3   OH215950   0.255  -0.032   1.838  0.2238 -0.3722 -0.0025
 5329TIP3    H115951   0.188   0.026   1.801 -1.3251 -0.7294  2.0409
 5329TIP3    H215952   0.303   0.023   1.900  0.0896 -0.7671  0.4534
 5330TIP3   OH215953   1.046   2.372   2.704  0.6577  0.8390  0.5751
 5330TIP3    H115954   1.112   2.330   2.759  0.4245  1.6698  1.5101
 5330TIP3    H215955   0.964   2.327   2.726  0.5698  1.1502  0.8897
 5331TIP3   OH215956   2.781   3.931   5.537 -0.3130  0.0773  0.2197
 5331TIP3    H115957   2.771   3.942   5.631  3.3552  0.6146  0.6684
 5331TIP3    H215958   2.740   4.009   5.499 -2.1041 -0.2996  1.2516
 5332TIP3   OH215959   6.308   0.223   3.860 -0.0149  0.0089 -0.4227
 5332TIP3    H115960   6.398   0.226   3.830  0.1346  3.4032 -0.0414
 5332TIP3    H215961   6.268   0.152   3.810  1.9898  0.7327 -3.3090
 5333TIP3   OH215962   3.216   0.510   0.826  0.0059 -0.1993 -0.2527
 5333TIP3    H115963   3.309   0.513   0.850  0.0021  1.6171 -0.3247
 5333TIP3    H215964   3.195   0.417   0.823  2.0780 -0.6873 -1.2336
 5334TIP3   OH215965   3.472   2.509   3.741  0.2153  0.5559  0.2233
 5334TIP3    H115966   3.435   2.470   3.821 -0.9059 -2.3713 -1.5577
 5334TIP3    H215967   3.397   2.548   3.697  0.5114  0.6433 -0.2074
 5335TIP3   OH215968   0.829   4.114   1.702  0.3421 -0.6920 -0.0757
 5335TIP3    H115969   0.834   4.208   1.717  1.5821 -1.1374  3.0104
 5335TIP3    H215970   0.737   4.092   1.714 -0.0852  0.1400 -1.5046
 5336TIP3   OH215971   7.199   0.145   4.283  0.9487 -0.4706 -0.4208
 5336TIP3    H115972   7.107   0.161   4.261  0.6207  1.5853  1.9769
 5336TIP3    H215973   7.200   0.056   4.319 -0.4122 -0.0580  0.7545
 5337TIP3   OH215974   0.046   0.990   0.793  0.5134 -0.0565  0.0431
 5337TIP3    H115975   0.113   1.037   0.842 -0.4074  0.0593  1.2370
 5337TIP3    H215976   0.020   1.050   0.723  2.1262 -0.3819 -0.8853
 5338TIP3   OH215977   2.145   0.041   5.229  0.1139  0.2917  0.0450
 5338TIP3    H115978   2.078   0.054   5.296  0.4614  0.1276  0.4299
 5338TIP3    H215979   2.125  -0.044   5.191  0.4384 -0.0146  0.5527
 5339TIP3   OH215980   4.650   6.024   2.523  0.3595  0.1634 -0.5006
 5339TIP3    H115981   4.628   6.116   2.542  0.1758  0.1975 -0.8739
 5339TIP3    H215982   4.732   6.029   2.473  1.4387  0.0217  1.1817
 5340TIP3   OH215983   1.961   6.545   0.649 -0.1713  0.1511  0.1179
 5340TIP3    H115984   2.054   6.563   0.633 -0.5789  0.4284 -2.4819
 5340TIP3    H215985   1.949   6.454   0.621 -0.9824  0.6959 -1.4867
 5341TIP3   OH215986   6.731   3.498   2.851  0.9835  0.3329  0.1647
 5341TIP3    H115987   6.698   3.461   2.769  0.5997  0.3920  0.2885
 5341TIP3    H215988   6.824   3.516   2.834  1.5127 -1.8534  0.5030
 5342TIP3   OH215989   2.634   0.162   5.428  0.0053  0.4776 -0.1665
 5342TIP3    H115990   2.714   0.172   5.376 -0.5417  0.3703 -1.0427
 5342TIP3    H215991   2.661   0.107   5.502  0.8989  1.0104 -0.0812
 5343TIP3   OH215992   2.760   2.404   1.129 -0.1428  0.2549  0.5273
 5343TIP3    H115993   2.665   2.396   1.137 -0.5976  1.8809 -2.1829
 5343TIP3    H215994   2.789   2.427   1.217 -2.1745 -0.6682  1.5064
 5344TIP3   OH215995   0.043   5.036   0.036 -0.7587  0.0451  0.5735
 5344TIP3    H115996   0.081   4.949   0.033  0.4336  0.4076  2.9669
 5344TIP3    H215997   0.114   5.093   0.066 -1.3774  1.9651 -1.3190
 5345TIP3   OH215998   2.013   3.324   3.565  0.6712 -0.1752  0.5720
 5345TIP3    H115999   2.078   3.297   3.500 -0.6496 -0.1578 -0.7864
 5345TIP3    H216000   1.965   3.243   3.585  0.1382  0.1054  0.4375
 5346TIP3   OH216001   4.454   1.921   2.576 -0.0742  0.2699  0.6595
 5346TIP3    H116002   4.478   1.983   2.506  0.0005 -0.4851 -0.0039
 5346TIP3    H216003   4.431   1.841   2.529  0.7246 -0.4971  1.5406
 5347TIP3   OH216004   4.209   0.527   4.050 -0.4323 -0.6441  0.4182
 5347TIP3    H116005   4.252   0.543   3.966 -0.1755 -0.3530  0.6018
 5347TIP3    H216006   4.167   0.442   4.040 -0.3240 -0.6516  0.0259
 5348TIP3   OH216007   4.146   1.680   1.326 -0.2369  0.1232 -0.4966
 5348TIP3    H116008   4.080   1.621   1.290  0.5966  0.2774 -2.3635
 5348TIP3    H216009   4.141   1.758   1.271 -1.2861  1.8702  1.8851
 5349TIP3   OH216010   4.869   4.521   5.302  0.0455 -0.0980 -0.5220
 5349TIP3    H116011   4.963   4.528   5.319  0.1257  0.3514 -1.1493
 5349TIP3    H216012   4.861   4.445   5.244 -0.2297 -1.6388  1.4140
 5350TIP3   OH216013   2.876   6.621   4.514 -0.6303  0.4479 -0.5194
 5350TIP3    H116014   2.939   6.554   4.489 -0.8814  0.7654 -2.1274
 5350TIP3    H216015   2.791   6.585   4.488 -0.9825  0.5550  0.4517
 5351TIP3   OH216016   2.165   4.930   0.535 -0.2760 -0.2003  0.0173
 5351TIP3    H116017   2.171   5.002   0.597  0.8252 -0.3158  0.0704
 5351TIP3    H216018   2.145   4.971   0.452  1.0679  0.2684 -0.1018
 5352TIP3   OH216019   6.469   1.747   1.944 -0.3403  0.0627  0.1326
 5352TIP3    H116020   6.515   1.831   1.943 -0.3028  0.0491  0.6083
 5352TIP3    H216021   6.530   1.687   1.987 -1.2271  0.2990  1.7869
 5353TIP3   OH216022   4.916   4.829   2.148 -0.5034 -0.5269 -0.3016
 5353TIP3    H116023   4.879   4.811   2.062  0.0590 -1.8642 -0.2834
 5353TIP3    H216024   4.887   4.757   2.203  0.1742 -0.3551  0.3053
 5354TIP3   OH216025   6.149   5.851   0.347  0.2551  0.3756 -0.3246
 5354TIP3    H116026   6.106   5.854   0.261 -1.0519 -0.2860  0.2761
 5354TIP3    H216027   6.232   5.808   0.331 -0.6985 -1.3042 -0.9990
 5355TIP3   OH216028   7.106   1.504   2.939  0.1722 -0.0682  0.2968
 5355TIP3    H116029   7.112   1.568   3.010  1.0060 -0.0593  0.2271
 5355TIP3    H216030   7.044   1.542   2.877 -2.4351 -1.0961  2.0680
 5356TIP3   OH216031   5.332   4.592   1.539  0.0784  0.3854 -0.3226
 5356TIP3    H116032   5.278   4.593   1.460 -0.0638  0.8809 -0.2278
 5356TIP3    H216033   5.298   4.665   1.591 -0.4170 -0.4600  0.5901
 5357TIP3   OH216034   2.655   3.319   2.961 -0.9613 -0.2442  0.1411
 5357TIP3    H116035   2.630   3.231   2.935  0.4174 -0.3095 -1.1016
 5357TIP3    H216036   2.662   3.368   2.879  0.3155  0.4450  0.6184
 5358TIP3   OH216037   3.417   4.657   1.985 -0.0451  0.0340 -1.0252
 5358TIP3    H116038   3.342   4.615   2.028  0.8283 -0.4843  0.0211
 5358TIP3    H216039   3.465   4.584   1.945  1.7211 -0.0784  1.1663
 5359TIP3   OH216040   2.228   1.810   2.179  0.5317 -0.0018  0.9689
 5359TIP3    H116041   2.247   1.904   2.181  2.2142 -0.2762 -0.1751
 5359TIP3    H216042   2.293   1.771   2.238  1.0819 -0.6122 -0.0243
 5360TIP3   OH216043   5.945   2.856   1.386  0.3551 -0.1613 -0.3761
 5360TIP3    H116044   6.009   2.927   1.389  0.0614  0.1239 -0.6850
 5360TIP3    H216045   5.979   2.796   1.319 -1.2504  1.5630 -2.9451
 5361TIP3   OH216046   3.093   0.093   3.243 -0.3722 -0.5525 -0.3996
 5361TIP3    H116047   3.142   0.020   3.281 -0.0429 -1.1733 -1.9373
 5361TIP3    H216048   3.015   0.101   3.298 -0.9287 -2.7461 -0.7652
 5362TIP3   OH216049   3.172   4.095   1.726  0.0281 -0.2536 -0.5627
 5362TIP3    H116050   3.266   4.113   1.723 -0.0310 -0.1349 -2.2795
 5362TIP3    H216051   3.166   4.001   1.745  0.4775 -0.2635 -0.4590
 5363TIP3   OH216052   2.234   4.265   0.421 -0.4657  0.5115 -0.0232
 5363TIP3    H116053   2.153   4.216   0.404  0.1137 -0.8409  0.8863
 5363TIP3    H216054   2.204   4.352   0.447 -1.7355 -0.2784  1.3673
 5364TIP3   OH216055   5.808   6.682   5.793 -0.1172 -0.3687  0.1316
 5364TIP3    H116056   5.766   6.766   5.774 -1.0575 -0.6402  0.8936
 5364TIP3    H216057   5.901   6.696   5.775  0.4329  2.0022  3.7530
 5365TIP3   OH216058   4.051   4.628   0.737 -0.2359 -0.5359  0.0575
 5365TIP3    H116059   4.101   4.564   0.788  0.4355 -0.3002 -0.2896
 5365TIP3    H216060   4.042   4.704   0.795  0.2806 -0.3762 -0.0645
 5366TIP3   OH216061   3.876   4.862   2.327  0.0476 -0.0948 -0.7405
 5366TIP3    H116062   3.877   4.790   2.264 -0.5792 -0.6894 -0.0818
 5366TIP3    H216063   3.839   4.936   2.279 -0.3283 -0.5126 -1.0988
 5367TIP3   OH216064   0.487   1.938   3.238  0.2413  0.3783 -0.5118
 5367TIP3    H116065   0.431   1.941   3.315  1.1767  2.2389  0.1502
 5367TIP3    H216066   0.554   1.873   3.260  0.8223  1.2916  0.5084
 5368TIP3   OH216067   3.086   0.034   3.965 -0.5084  0.0909  0.9550
 5368TIP3    H116068   3.173  -0.002   3.950 -0.2157  0.6457  1.3057
 5368TIP3    H216069   3.102   0.120   4.004 -1.1621  0.9813 -0.6118
 5369TIP3   OH216070   4.689   1.785   0.716 -0.0638 -0.4170  1.1025
 5369TIP3    H116071   4.755   1.717   0.729 -0.0327 -0.3325  1.3862
 5369TIP3    H216072   4.607   1.737   0.705  0.0135 -0.5139  0.9404
 5370TIP3   OH216073   5.167   1.773   1.477  0.1987  0.2102  0.1667
 5370TIP3    H116074   5.195   1.686   1.448  1.3962  0.7976 -0.5687
 5370TIP3    H216075   5.083   1.787   1.434  0.9316  0.1882 -1.3455
 5371TIP3   OH216076   4.845   2.261   4.405 -0.4488  0.2504  0.2820
 5371TIP3    H116077   4.770   2.313   4.378 -0.6704  0.1668  0.7222
 5371TIP3    H216078   4.850   2.273   4.500 -0.7789 -0.8737  0.4594
 5372TIP3   OH216079   4.495   0.954   3.745  0.4851 -0.4573 -0.0952
 5372TIP3    H116080   4.501   1.041   3.706 -2.1869 -0.1031  0.0932
 5372TIP3    H216081   4.535   0.896   3.681  1.2293  0.7598 -0.7736
 5373TIP3   OH216082   2.896   5.135   2.093 -0.2507  0.3647  0.0578
 5373TIP3    H116083   2.853   5.063   2.047 -0.6990  0.8870 -0.3608
 5373TIP3    H216084   2.976   5.150   2.043  0.3187 -0.4519  0.6976
 5374TIP3   OH216085   2.365   3.548   3.579  0.6704  0.1389  0.2246
 5374TIP3    H116086   2.298   3.547   3.511  0.0999 -0.6368  0.7914
 5374TIP3    H216087   2.447   3.555   3.530  0.1653  2.3304 -0.4333
 5375TIP3   OH216088   6.285   5.341   0.074 -0.2786 -0.3681 -0.1826
 5375TIP3    H116089   6.375   5.354   0.043 -0.3478 -1.8882 -1.1432
 5375TIP3    H216090   6.230   5.361  -0.001 -0.7551  0.5247  0.3927
 5376TIP3   OH216091   3.933   4.073   5.518  0.2618  0.6677 -0.1592
 5376TIP3    H116092   3.998   4.031   5.574  1.6977  2.2425 -0.5704
 5376TIP3    H216093   3.930   4.018   5.440  1.2916  0.7109 -0.2398
 5377TIP3   OH216094   3.147   0.359   1.851  0.0855 -0.2458 -0.1077
 5377TIP3    H116095   3.232   0.326   1.823 -0.0168  0.1296 -0.8967
 5377TIP3    H216096   3.166   0.443   1.892  0.0508  0.1276 -0.8291
 5378TIP3   OH216097   3.235   1.135   1.619 -0.1085 -0.0101  0.1057
 5378TIP3    H116098   3.294   1.194   1.666  0.9636 -0.3607 -0.7584
 5378TIP3    H216099   3.185   1.193   1.561 -0.7680  0.3053  0.9488
 5379TIP3   OH216100   1.832   0.036   2.711  0.3979 -0.4982 -1.0232
 5379TIP3    H116101   1.894   0.007   2.645  2.6066 -0.6225  0.9664
 5379TIP3    H216102   1.778  -0.041   2.729  2.5424 -1.8098  0.2256
 5380TIP3   OH216103   5.150   2.717   2.990  0.3829  0.1159  0.4283
 5380TIP3    H116104   5.058   2.715   2.965  0.8001  1.0934 -1.3426
 5380TIP3    H216105   5.179   2.626   2.982 -0.5113 -0.2943  1.5091
 5381TIP3   OH216106   5.710   4.180   4.233 -0.3435  0.3559 -0.2275
 5381TIP3    H116107   5.766   4.137   4.169 -0.9608 -0.7934 -0.0077
 5381TIP3    H216108   5.661   4.109   4.275  0.7403  0.9410  2.2141
 5382TIP3   OH216109   6.769   2.498   3.091 -0.1518  0.5610  0.0916
 5382TIP3    H116110   6.832   2.499   3.020 -1.1067 -1.0054 -0.8318
 5382TIP3    H216111   6.746   2.406   3.102 -1.0891  0.9244  1.4732
 5383TIP3   OH216112   0.137   1.101   2.345 -0.4141 -0.4462  0.2750
 5383TIP3    H116113   0.116   1.085   2.253  0.9695 -0.5690 -0.0549
 5383TIP3    H216114   0.198   1.031   2.367  0.0252  0.1527  0.9907
 5384TIP3   OH216115   1.250   5.863   3.730 -0.0022  0.3433 -0.0460
 5384TIP3    H116116   1.182   5.919   3.767  0.6375 -0.7146  3.0946
 5384TIP3    H216117   1.205   5.780   3.711  0.1486 -0.0745  1.2478
 5385TIP3   OH216118   0.084   2.717   0.986  0.4534  0.3818  0.2534
 5385TIP3    H116119   0.071   2.799   1.034  1.1494  1.7715 -1.8398
 5385TIP3    H216120   0.133   2.662   1.047 -0.9131  1.0873  2.0921
 5386TIP3   OH216121   0.513   0.776   1.144  0.2222  0.1435 -0.5506
 5386TIP3    H116122   0.584   0.806   1.088  0.4462  1.9632  0.6246
 5386TIP3    H216123   0.482   0.855   1.188 -1.4904 -0.8523  0.1466
 5387TIP3   OH216124   0.106   6.725   3.939  0.0367 -0.1589 -0.5242
 5387TIP3    H116125   0.189   6.723   3.988 -0.3338 -0.3165  0.1168
 5387TIP3    H216126   0.100   6.814   3.905  1.4462 -0.6908 -2.3286
 5388TIP3   OH216127   3.105   3.888   2.022  0.1503  0.5968 -0.2417
 5388TIP3    H116128   3.012   3.864   2.024  0.5221 -0.8750  0.0099
 5388TIP3    H216129   3.122   3.908   1.930 -0.4018  0.8618 -0.2920
 5389TIP3   OH216130   1.572   3.889   3.145  0.3796  0.2087  0.0862
 5389TIP3    H116131   1.567   3.905   3.240 -0.3505  0.6145 -0.0168
 5389TIP3    H216132   1.492   3.927   3.110  0.8567  0.4521 -0.7603
 5390TIP3   OH216133   5.199   3.560   1.493 -0.3707 -0.1313  0.0829
 5390TIP3    H116134   5.110   3.583   1.519 -0.3955  1.9152 -1.5711
 5390TIP3    H216135   5.246   3.643   1.488  1.1213 -0.9730 -0.9017
 5391TIP3   OH216136   5.860   3.605   0.900  0.1254  0.9262 -0.0803
 5391TIP3    H116137   5.769   3.634   0.893 -0.2197 -0.1296 -0.1889
 5391TIP3    H216138   5.871   3.585   0.993 -0.0218  0.2337 -0.2086
 5392TIP3   OH216139   6.874   4.026   3.422 -0.1064 -0.3911  0.5061
 5392TIP3    H116140   6.861   4.036   3.516 -0.2604 -0.9655  0.5486
 5392TIP3    H216141   6.970   4.026   3.411 -0.0873 -0.3916  0.6700
 5393TIP3   OH216142   0.537   5.001   2.784  0.2515  0.1125  1.0191
 5393TIP3    H116143   0.537   4.907   2.767  0.2290  0.0261  1.4840
 5393TIP3    H216144   0.624   5.030   2.757  0.2675 -0.0444  0.9000
 5394TIP3   OH216145   3.931   5.306   3.401 -0.2800 -0.3807  0.6815
 5394TIP3    H116146   3.903   5.215   3.401  0.0057 -0.4672  0.5010
 5394TIP3    H216147   4.020   5.305   3.367 -0.1470 -0.0729  1.0095
 5395TIP3   OH216148   0.721   3.373   3.803  0.2047  0.2744  0.1158
 5395TIP3    H116149   0.641   3.360   3.855  0.6917 -1.1040  0.5709
 5395TIP3    H216150   0.695   3.350   3.714  0.3306 -1.2612  0.4412
 5396TIP3   OH216151   6.969   3.771   0.768  0.1641  0.3289 -0.4990
 5396TIP3    H116152   6.935   3.850   0.726  1.0760 -0.0473 -2.0151
 5396TIP3    H216153   6.910   3.701   0.739  0.9444  0.0267 -1.4214
 5397TIP3   OH216154   5.109   2.262   2.002  0.3690  0.2070  0.4703
 5397TIP3    H116155   5.197   2.255   1.964  0.5461 -2.0237  1.1425
 5397TIP3    H216156   5.051   2.226   1.935 -0.0998  1.8579 -0.0522
 5398TIP3   OH216157   2.480   2.114   4.926  0.5129  0.5658 -0.4423
 5398TIP3    H116158   2.458   2.039   4.870 -2.2162  1.0281 -0.1043
 5398TIP3    H216159   2.461   2.085   5.015  2.0425  0.8002 -0.0130
 5399TIP3   OH216160   4.651   4.060   5.215 -0.2946  0.6518 -0.6616
 5399TIP3    H116161   4.667   3.966   5.211  0.5415  0.6786  1.0505
 5399TIP3    H216162   4.572   4.069   5.269  0.5452  0.9694  0.5507
 5400TIP3   OH216163   5.804   2.673   0.081  0.1773  0.7410  0.0562
 5400TIP3    H116164   5.835   2.643  -0.004 -0.3580 -1.4881  0.5772
 5400TIP3    H216165   5.708   2.676   0.072  0.0721 -0.1451  0.7443
 5401TIP3   OH216166   2.926   4.015   4.729  0.3964  0.1233 -0.6554
 5401TIP3    H116167   3.019   4.031   4.716  0.5554  0.6073  0.8298
 5401TIP3    H216168   2.888   4.017   4.641  1.9658 -1.4092 -1.4165
 5402TIP3   OH216169   4.641   6.393   4.014 -0.2428  0.5178  0.5667
 5402TIP3    H116170   4.651   6.478   3.971 -2.1544  0.9549  0.9116
 5402TIP3    H216171   4.579   6.409   4.085  0.1102 -0.9736  1.2631
 5403TIP3   OH216172   7.179   1.682   5.090 -0.0529 -0.0383  0.3187
 5403TIP3    H116173   7.251   1.675   5.027  0.2418  1.1664  0.5083
 5403TIP3    H216174   7.105   1.716   5.040 -0.1849 -0.2732  0.3532
 5404TIP3   OH216175   5.760   5.582   2.432 -0.3385 -0.2294 -0.0197
 5404TIP3    H116176   5.842   5.630   2.441  1.2475 -2.8567  0.5623
 5404TIP3    H216177   5.765   5.542   2.346  0.0684 -2.1851  0.8715
 5405TIP3   OH216178   0.246   3.406   4.901  0.2640  0.5901  0.4572
 5405TIP3    H116179   0.285   3.492   4.917  0.7480  0.4609 -0.0142
 5405TIP3    H216180   0.276   3.381   4.814  0.3664 -0.1859  0.7001
 5406TIP3   OH216181   2.519   6.140   1.446 -0.5664  0.7225  0.3524
 5406TIP3    H116182   2.533   6.046   1.457 -0.6969  0.7832  1.0823
 5406TIP3    H216183   2.473   6.167   1.525 -0.8316  1.3418 -0.0059
 5407TIP3   OH216184   4.852   2.806   0.076  0.1987  0.5459 -0.2422
 5407TIP3    H116185   4.794   2.800   0.152  1.7814  0.8189  1.0622
 5407TIP3    H216186   4.879   2.716   0.059 -0.8021  0.3827 -1.0386
 5408TIP3   OH216187   1.342   1.578   4.328 -0.1608  0.2597  0.6310
 5408TIP3    H116188   1.369   1.500   4.377 -0.4087  0.9922  1.9813
 5408TIP3    H216189   1.424   1.620   4.304  0.0711 -1.3941 -1.8679
 5409TIP3   OH216190   3.060   3.204   3.004  0.4155  0.4588 -0.0595
 5409TIP3    H116191   3.122   3.132   3.012  0.0299  0.2249  0.9964
 5409TIP3    H216192   3.052   3.238   3.093 -0.7615  0.6545 -0.2285
 5410TIP3   OH216193   6.307   6.382   3.864  0.2909 -0.1817 -0.2491
 5410TIP3    H116194   6.240   6.450   3.861  1.4007  1.0950  1.6241
 5410TIP3    H216195   6.293   6.330   3.785 -2.3767  0.5090 -0.3053
 5411TIP3   OH216196   4.458   4.414   2.827  0.2795  0.6159 -0.0470
 5411TIP3    H116197   4.397   4.485   2.848  0.3569  0.3040  1.2703
 5411TIP3    H216198   4.524   4.455   2.771  0.1929  1.5220  0.4990
 5412TIP3   OH216199   6.780   2.062   0.049 -0.4275  0.0624  0.3947
 5412TIP3    H116200   6.690   2.079   0.020  0.4384  1.0352 -2.0239
 5412TIP3    H216201   6.808   2.145   0.090  0.1811  0.7284 -1.2845
 5413TIP3   OH216202   1.376   5.469   4.087  0.0323  0.0020  0.1912
 5413TIP3    H116203   1.322   5.416   4.029 -1.1747  1.6122 -0.1942
 5413TIP3    H216204   1.460   5.475   4.042 -0.9164  1.3206 -1.4793
 5414TIP3   OH216205   6.694   1.525   1.804  0.1810  0.0607  0.3853
 5414TIP3    H116206   6.612   1.476   1.802  0.1351  0.0916  1.0916
 5414TIP3    H216207   6.736   1.498   1.886  0.8609  0.0710  0.0490
 5415TIP3   OH216208   5.899   3.036   4.633 -0.8015  0.1959 -0.0413
 5415TIP3    H116209   5.870   3.029   4.542 -0.3725 -2.6872 -0.0530
 5415TIP3    H216210   5.819   3.029   4.685 -0.8484 -0.3327 -0.1807
 5416TIP3   OH216211   2.489   5.352   2.299  0.2092  0.4123 -0.3426
 5416TIP3    H116212   2.542   5.277   2.272 -0.0597 -0.1720  0.6763
 5416TIP3    H216213   2.407   5.343   2.251  0.3733  0.3457 -0.6108
 5417TIP3   OH216214   3.077   3.814   0.692  0.9988  0.0962  0.1904
 5417TIP3    H116215   3.006   3.843   0.750  0.0076 -1.6341 -0.0998
 5417TIP3    H216216   3.033   3.782   0.614  2.0959 -1.0111 -0.0044
 5418TIP3   OH216217   4.759   3.324   5.095  0.9806  0.8868 -0.6803
 5418TIP3    H116218   4.840   3.366   5.122  1.2393  0.5896 -0.9920
 5418TIP3    H216219   4.705   3.396   5.062  0.4061  1.3582  1.1849
 5419TIP3   OH216220   3.333   6.544   2.748 -0.1046  0.2373 -0.2845
 5419TIP3    H116221   3.420   6.521   2.782 -0.6165  0.2805  1.1040
 5419TIP3    H216222   3.351   6.597   2.670  1.1053 -0.5119 -0.5375
 5420TIP3   OH216223   6.368   1.596   3.585  0.6895 -0.4256  0.3513
 5420TIP3    H116224   6.309   1.671   3.582  0.6993 -0.3676  1.3153
 5420TIP3    H216225   6.454   1.633   3.604  0.4653 -0.7752  2.1826
 5421TIP3   OH216226   5.220   2.574   2.686 -0.4944 -0.5547 -0.0492
 5421TIP3    H116227   5.156   2.591   2.617 -0.0178  1.1835 -0.1049
 5421TIP3    H216228   5.261   2.659   2.702  1.1095 -1.4298  0.6760
 5422TIP3   OH216229   1.576   4.512   4.743 -0.2177  0.7021  0.2671
 5422TIP3    H116230   1.572   4.447   4.813 -3.6008  0.4828  0.0305
 5422TIP3    H216231   1.548   4.594   4.785  0.4533  1.2157 -0.2568
 5423TIP3   OH216232   6.564   1.264   1.416 -0.1676 -0.0418  0.5055
 5423TIP3    H116233   6.498   1.333   1.405  1.2597  1.2538 -0.2622
 5423TIP3    H216234   6.631   1.304   1.470  1.0363 -0.5605 -0.5597
 5424TIP3   OH216235   5.233   6.452   4.855 -0.2900  0.3114  0.1479
 5424TIP3    H116236   5.282   6.371   4.867 -0.0983  0.6019  1.5076
 5424TIP3    H216237   5.157   6.444   4.913 -1.8544 -0.0864 -1.8502
 5425TIP3   OH216238   1.274   1.660   3.934 -0.2122  0.4265 -0.7813
 5425TIP3    H116239   1.265   1.566   3.949  0.4792  0.5739  0.7990
 5425TIP3    H216240   1.240   1.700   4.014 -0.3253  1.5248 -1.3579
 5426TIP3   OH216241   0.066   4.482   4.543 -0.0003  0.1484 -0.0867
 5426TIP3    H116242   0.078   4.522   4.457  1.0488 -0.7648 -0.3924
 5426TIP3    H216243   0.007   4.408   4.527  0.1625  0.0029 -0.0207
 5427TIP3   OH216244   6.032   5.469   3.547 -0.3927 -1.0288 -0.1647
 5427TIP3    H116245   6.037   5.416   3.626  0.8331 -1.8903 -0.8028
 5427TIP3    H216246   5.956   5.526   3.562  0.9338  0.2337  2.4695
 5428TIP3   OH216247   1.423   0.208   2.763 -0.4547 -0.0722 -0.2640
 5428TIP3    H116248   1.384   0.288   2.798 -0.6261 -0.8086  1.3113
 5428TIP3    H216249   1.366   0.138   2.795 -0.2579 -0.8525 -1.5518
 5429TIP3   OH216250   3.451   0.085   4.435 -0.0705 -0.0461  0.8563
 5429TIP3    H116251   3.499   0.014   4.477 -0.0686 -0.6223 -0.0811
 5429TIP3    H216252   3.370   0.045   4.405  0.1495  0.2007 -0.1264
 5430TIP3   OH216253   4.301   3.389   2.838 -0.0232 -0.2914  0.0997
 5430TIP3    H116254   4.368   3.321   2.828 -0.0516 -0.3854  0.5078
 5430TIP3    H216255   4.226   3.343   2.878 -0.1320 -0.0728  0.1509
 5431TIP3   OH216256   6.815   4.153   1.780 -0.2492 -0.3128 -0.0482
 5431TIP3    H116257   6.837   4.233   1.733  1.4750 -0.8166 -0.1329
 5431TIP3    H216258   6.753   4.108   1.722 -0.4710  0.4735 -0.4437
 5432TIP3   OH216259   3.208   6.416   3.499 -0.1441  0.3683 -0.4026
 5432TIP3    H116260   3.149   6.374   3.437  0.4478 -1.4719  0.2046
 5432TIP3    H216261   3.238   6.495   3.455 -1.2321  0.1133 -1.6500
 5433TIP3   OH216262   3.534   6.775   0.647 -0.2039 -0.3511 -0.0775
 5433TIP3    H116263   3.527   6.771   0.552  0.2290  1.5126 -0.2429
 5433TIP3    H216264   3.621   6.740   0.666 -0.3621 -0.8959 -0.3501
 5434TIP3   OH216265   6.363   1.751   2.267  0.4797  0.3253 -0.4342
 5434TIP3    H116266   6.432   1.777   2.205 -1.1034  0.9130 -2.0285
 5434TIP3    H216267   6.368   1.656   2.269  0.3992  0.2755 -1.7034
 5435TIP3   OH216268   3.661   5.474   2.677 -0.1579 -0.6276 -0.3445
 5435TIP3    H116269   3.594   5.418   2.716  0.2492 -0.7263  0.2271
 5435TIP3    H216270   3.734   5.471   2.739  0.3931 -0.5535 -0.9762
 5436TIP3   OH216271   0.664   4.629   2.091  0.5027 -0.0919  0.0181
 5436TIP3    H116272   0.588   4.636   2.034 -0.3639 -1.3364  0.9721
 5436TIP3    H216273   0.718   4.704   2.067 -0.6997  0.4521 -1.1420
 5437TIP3   OH216274   6.757   5.638   4.050  0.3228  0.3253  0.1745
 5437TIP3    H116275   6.823   5.605   4.110 -0.8857 -0.1070  1.3262
 5437TIP3    H216276   6.749   5.731   4.072 -0.3153  0.1096  0.9214
 5438TIP3   OH216277   5.713   6.629   1.137 -0.3325  0.1468 -0.4324
 5438TIP3    H116278   5.669   6.582   1.066  0.5957  0.4435 -1.2407
 5438TIP3    H216279   5.806   6.608   1.126 -0.4002 -3.2210  3.2813
 5439TIP3   OH216280   7.002   4.946   5.402 -0.0047  0.3142  0.3034
 5439TIP3    H116281   7.028   5.013   5.339  1.9580 -2.1406 -1.7403
 5439TIP3    H216282   6.934   4.896   5.357  1.1413 -1.2350  0.2006
 5440TIP3   OH216283   5.126   6.172   2.169 -0.2713 -0.4246 -0.2092
 5440TIP3    H116284   5.207   6.186   2.219 -0.7805  1.9912  0.0722
 5440TIP3    H216285   5.102   6.081   2.187  0.0839  0.0254  3.2189
 5441TIP3   OH216286   5.075   5.145   1.963 -0.4098 -0.1912  0.3253
 5441TIP3    H116287   5.109   5.223   2.007 -0.6407 -0.7266  1.4736
 5441TIP3    H216288   5.045   5.088   2.033 -0.9857 -0.9869 -0.5378
 5442TIP3   OH216289   1.764   6.153   3.526  0.7181  0.4132  0.1173
 5442TIP3    H116290   1.722   6.103   3.455 -0.5718  1.5398  0.0571
 5442TIP3    H216291   1.857   6.156   3.500  0.6566 -1.0364 -0.3998
 5443TIP3   OH216292   4.614   6.037   1.666 -0.3193  0.1145 -0.0012
 5443TIP3    H116293   4.645   6.101   1.602  0.2740 -0.8089 -0.6580
 5443TIP3    H216294   4.518   6.040   1.657 -0.3610  1.4955  0.5840
 5444TIP3   OH216295   0.564   1.039   0.302 -0.0865 -0.1218  0.1130
 5444TIP3    H116296   0.483   1.001   0.270 -0.9430  2.4503 -1.0458
 5444TIP3    H216297   0.633   0.981   0.269 -1.3341 -1.4252 -0.3064
 5445TIP3   OH216298   1.153   0.665   0.429  0.3782 -0.4786  0.4751
 5445TIP3    H116299   1.231   0.715   0.453  0.5969  0.0091 -1.0950
 5445TIP3    H216300   1.161   0.654   0.334 -0.2836 -2.4749  0.6113
 5446TIP3   OH216301   5.725   1.542   4.396 -0.4479  0.2442 -0.5120
 5446TIP3    H116302   5.706   1.585   4.480 -0.4250 -2.0435  0.7458
 5446TIP3    H216303   5.639   1.522   4.359 -0.4656  1.7535 -1.3555
 5447TIP3   OH216304   1.561   2.299   3.774  0.7572 -0.2562 -0.4472
 5447TIP3    H116305   1.492   2.332   3.716 -0.4288  0.3225  1.2358
 5447TIP3    H216306   1.595   2.222   3.727 -1.4762 -0.9695 -1.0712
 5448TIP3   OH216307   4.225   6.786   2.781 -0.3623 -0.1237 -0.3572
 5448TIP3    H116308   4.192   6.806   2.694 -0.8490  2.6193  0.3622
 5448TIP3    H216309   4.162   6.724   2.818 -0.9008 -0.2513 -1.4599
 5449TIP3   OH216310   1.585   2.237   5.278 -0.0436 -0.9814 -0.6748
 5449TIP3    H116311   1.505   2.279   5.310  0.9165  1.5443 -1.3140
 5449TIP3    H216312   1.559   2.195   5.196 -0.7794 -0.3831 -0.7648
 5450TIP3   OH216313   2.847   6.434   1.373 -0.7876  0.0470 -0.1959
 5450TIP3    H116314   2.759   6.462   1.348 -1.3602 -0.7650  0.8257
 5450TIP3    H216315   2.850   6.341   1.350 -1.4591 -0.8439  2.8383
 5451TIP3   OH216316   1.499   0.618   0.063  0.5967  0.3474  0.2187
 5451TIP3    H116317   1.419   0.570   0.043  0.8574  0.4932 -1.3581
 5451TIP3    H216318   1.526   0.586   0.149 -1.7897  1.1940  1.3559
 5452TIP3   OH216319   5.943   4.563   2.674 -0.1503 -0.0533 -0.0758
 5452TIP3    H116320   5.885   4.488   2.681 -2.0183  1.2173 -1.1541
 5452TIP3    H216321   6.027   4.532   2.710 -0.2963 -3.1613 -2.0648
 5453TIP3   OH216322   1.842   5.278   1.589  0.5230 -0.1821  0.4219
 5453TIP3    H116323   1.832   5.367   1.623  0.7971 -0.7145  1.9914
 5453TIP3    H216324   1.791   5.224   1.649 -0.5081 -0.9890 -1.1272
 5454TIP3   OH216325   6.109   5.992   2.748  0.6373 -0.1267 -0.0135
 5454TIP3    H116326   6.160   6.074   2.748  0.2978  0.0854  0.0649
 5454TIP3    H216327   6.027   6.015   2.705  0.7060 -0.5342 -0.3606
 5455TIP3   OH216328   0.032   4.621   5.085  0.1073  0.0026  0.1992
 5455TIP3    H116329   0.118   4.602   5.123 -0.2648 -1.0627  0.5336
 5455TIP3    H216330   0.036   4.586   4.997 -0.8167 -2.4296  1.0451
 5456TIP3   OH216331   3.835   1.977   1.609 -0.4594 -0.5553 -0.7570
 5456TIP3    H116332   3.905   1.926   1.569  1.0454  1.6676 -1.1139
 5456TIP3    H216333   3.759   1.961   1.554  0.3201 -1.3352 -1.6463
 5457TIP3   OH216334   6.112   0.034   3.774  0.4489 -0.0678  0.0770
 5457TIP3    H116335   6.047  -0.032   3.751  0.5777 -0.2942  0.3554
 5457TIP3    H216336   6.060   0.108   3.806  0.2005  0.7044 -1.9738
 5458TIP3   OH216337   0.235   6.198   1.721 -0.0744  0.0110 -0.0334
 5458TIP3    H116338   0.212   6.105   1.726  0.4050 -0.1418 -0.6008
 5458TIP3    H216339   0.155   6.244   1.748  0.0808 -0.5853  1.5139
 5459TIP3   OH216340   0.581   1.291   5.027 -0.0341 -0.3716 -0.6514
 5459TIP3    H116341   0.509   1.308   4.967 -0.8792 -0.8325  0.2012
 5459TIP3    H216342   0.637   1.368   5.021 -1.9624  1.2217  0.5950
 5460TIP3   OH216343   3.705   1.130   3.742  0.3554  0.3478 -0.4317
 5460TIP3    H116344   3.663   1.088   3.817  0.6301 -0.6700 -0.8408
 5460TIP3    H216345   3.645   1.115   3.669 -0.0172  1.5211 -0.4026
 5461TIP3   OH216346   0.323   3.265   0.067 -0.1284 -0.4027 -0.1325
 5461TIP3    H116347   0.271   3.230   0.140 -0.4169  0.8677  0.2960
 5461TIP3    H216348   0.285   3.223  -0.011 -3.2319  1.9492 -0.0779
 5462TIP3   OH216349   6.523   3.258   1.196  0.6313  0.0524  0.4199
 5462TIP3    H116350   6.551   3.291   1.111  1.9352 -0.4234  0.6530
 5462TIP3    H216351   6.440   3.213   1.178  1.5152 -1.1587 -0.8373
 5463TIP3   OH216352   6.975   4.270   5.018  0.1279  0.0868 -0.0233
 5463TIP3    H116353   6.910   4.200   5.014 -2.2752  1.9852  2.2564
 5463TIP3    H216354   6.924   4.351   5.019  2.6063  1.7821  0.5420
 5464TIP3   OH216355   4.059   4.123   1.466 -0.1358  0.1389  0.0607
 5464TIP3    H116356   4.090   4.087   1.383 -0.7752 -0.0589 -0.1062
 5464TIP3    H216357   4.060   4.218   1.454 -1.7942  0.0977 -0.8064
 5465TIP3   OH216358   1.391   4.057   1.896  0.1296 -0.2793 -0.0138
 5465TIP3    H116359   1.486   4.051   1.898  0.2057  0.7260 -0.2456
 5465TIP3    H216360   1.363   3.979   1.849  0.9661  0.4711 -1.8443
 5466TIP3   OH216361   6.226   6.458   0.687 -0.4878 -0.2247  0.2242
 5466TIP3    H116362   6.270   6.532   0.728 -0.8061  0.5461 -0.7799
 5466TIP3    H216363   6.289   6.386   0.692  0.3509  0.4874  0.0060
 5467TIP3   OH216364   5.232   3.343   1.106  0.6377  0.1815  0.6086
 5467TIP3    H116365   5.201   3.253   1.106 -2.5772  1.1265  2.3990
 5467TIP3    H216366   5.320   3.338   1.142  0.2338 -2.1663  1.4561
 5468TIP3   OH216367   5.992   6.716   5.135 -0.0206 -0.1779  0.0191
 5468TIP3    H116368   5.920   6.666   5.173  0.7055 -1.5124 -0.2922
 5468TIP3    H216369   5.975   6.715   5.041  0.2449 -0.2539 -0.0296
 5469TIP3   OH216370   5.361   1.143   0.363 -0.4214  0.4042 -0.2014
 5469TIP3    H116371   5.454   1.149   0.341 -0.0077 -0.7216  1.0594
 5469TIP3    H216372   5.349   1.204   0.435 -0.7581  0.8519 -0.6342
 5470TIP3   OH216373   6.469   2.123   0.218 -0.1596  0.9144 -0.0519
 5470TIP3    H116374   6.460   2.100   0.125 -1.7682  1.5120 -0.0770
 5470TIP3    H216375   6.549   2.079   0.246  2.5507  3.6846 -2.6411
 5471TIP3   OH216376   4.745   5.633   1.615  0.7135 -0.1401  0.2804
 5471TIP3    H116377   4.770   5.706   1.557 -1.0965  0.6666  0.4430
 5471TIP3    H216378   4.663   5.600   1.577 -0.5560  0.4492  2.3646
 5472TIP3   OH216379   1.092   3.879   2.086  0.1569  0.1184  0.4550
 5472TIP3    H116380   1.039   3.841   2.157  0.1514  1.1871  1.0514
 5472TIP3    H216381   1.029   3.892   2.014 -0.4017  1.2468  1.1090
 5473TIP3   OH216382   5.457   4.178   3.190 -0.4297  0.3061 -0.4983
 5473TIP3    H116383   5.413   4.226   3.260 -2.4477 -1.3238 -0.5442
 5473TIP3    H216384   5.537   4.228   3.172 -0.3980  1.3593  2.1931
 5474TIP3   OH216385   4.307   2.530   4.786  0.1339  0.3430 -0.7701
 5474TIP3    H116386   4.322   2.576   4.704 -0.9431 -0.6792 -1.5698
 5474TIP3    H216387   4.351   2.445   4.776  0.1880  0.2939 -0.2031
 5475TIP3   OH216388   4.651   6.516   1.347 -0.2623  0.1214  0.1709
 5475TIP3    H116389   4.590   6.490   1.415 -0.2045 -0.3556  0.0440
 5475TIP3    H216390   4.725   6.456   1.356  0.0448  0.4827  0.1172
 5476TIP3   OH216391   1.610   3.195   2.416  0.2787 -0.3486 -0.0645
 5476TIP3    H116392   1.663   3.271   2.439 -0.5192  0.4394 -0.7339
 5476TIP3    H216393   1.520   3.224   2.430 -0.0615 -0.9904 -0.8159
 5477TIP3   OH216394   6.900   0.663   1.698 -0.3854  0.0585 -0.1174
 5477TIP3    H116395   6.811   0.663   1.733 -0.0544 -0.2564  0.7492
 5477TIP3    H216396   6.888   0.665   1.603 -1.3054  0.7642 -0.0077
 5478TIP3   OH216397   0.697   1.964   1.331 -0.2834  0.2919  0.0358
 5478TIP3    H116398   0.631   1.895   1.320 -0.9841  0.8945  0.3502
 5478TIP3    H216399   0.740   1.944   1.414  1.2413 -1.1612 -1.0513
 5479TIP3   OH216400   0.458   6.570   5.716 -0.1242  0.1403  0.0035
 5479TIP3    H116401   0.532   6.510   5.717  0.0168  0.3092 -0.1008
 5479TIP3    H216402   0.384   6.518   5.687  0.1200  0.1566 -0.6720
 5480TIP3   OH216403   3.478   4.932   5.836 -0.0202 -0.3585 -0.1390
 5480TIP3    H116404   3.490   4.855   5.780  2.6271 -1.4514  1.7134
 5480TIP3    H216405   3.413   4.904   5.901  1.0481 -1.1759  0.6259
 5481TIP3   OH216406   4.334   0.983   3.370 -0.4491  0.0377 -0.3445
 5481TIP3    H116407   4.395   1.053   3.348 -0.7184  1.0555  1.8721
 5481TIP3    H216408   4.367   0.906   3.323  1.3958  1.0061 -0.7264
 5482TIP3   OH216409   0.372   5.276   0.383  0.6493 -0.4833 -0.0939
 5482TIP3    H116410   0.366   5.313   0.471  0.8511  1.5620 -0.8695
 5482TIP3    H216411   0.303   5.211   0.379  0.8819 -0.8816  1.6879
 5483TIP3   OH216412   6.467   3.933   4.974 -0.4075 -0.2084  0.3783
 5483TIP3    H116413   6.464   3.925   4.878  0.1951 -0.4204  0.3697
 5483TIP3    H216414   6.430   4.019   4.992  0.5046  0.3156 -0.1327
 5484TIP3   OH216415   0.750   3.677   3.069  0.3858  0.0993 -0.0924
 5484TIP3    H116416   0.713   3.765   3.069 -0.4770 -0.1904  1.9048
 5484TIP3    H216417   0.704   3.631   2.999  0.0622  0.9423 -0.4408
 5485TIP3   OH216418   1.139   2.987   5.138  0.0698  0.6227  0.3015
 5485TIP3    H116419   1.065   2.956   5.086 -0.3474 -0.3881  1.4586
 5485TIP3    H216420   1.215   2.941   5.102 -0.0425  0.7341 -0.0854
 5486TIP3   OH216421   5.297   3.909   0.858 -0.4168  0.2946  0.2410
 5486TIP3    H116422   5.362   3.949   0.915 -0.9478 -0.0479  1.1138
 5486TIP3    H216423   5.306   3.956   0.774  1.2160 -0.0360  0.1994
 5487TIP3   OH216424   4.508   5.473   2.153  0.3958 -0.6694 -0.1036
 5487TIP3    H116425   4.459   5.523   2.086  0.5320 -1.0146 -0.4651
 5487TIP3    H216426   4.597   5.468   2.118  0.0631 -2.4206 -0.7895
 5488TIP3   OH216427   5.955   2.436   4.745 -0.1070  0.3738 -0.4733
 5488TIP3    H116428   5.984   2.346   4.756 -1.1442  0.2105  1.3749
 5488TIP3    H216429   5.870   2.429   4.701 -0.2674  0.4309 -0.1755
 5489TIP3   OH216430   6.914   0.339   0.460  0.0937  0.4542 -0.4385
 5489TIP3    H116431   6.873   0.343   0.374  0.6716  0.0491 -0.7474
 5489TIP3    H216432   6.844   0.360   0.521 -0.5189 -0.0160 -0.9595
 5490TIP3   OH216433   6.218   0.437   3.080  0.0573  0.1485  0.2211
 5490TIP3    H116434   6.147   0.486   3.038 -0.6100 -1.1922 -0.3072
 5490TIP3    H216435   6.192   0.432   3.172  0.4194  1.2453  0.3944
 5491TIP3   OH216436   5.731   4.108   5.891  0.2566 -0.1713  0.1535
 5491TIP3    H116437   5.822   4.098   5.863  0.2798 -2.1531  0.7743
 5491TIP3    H216438   5.680   4.062   5.824 -0.0756 -1.0467  0.9897
 5492TIP3   OH216439   0.152   4.448   4.236 -0.4684 -0.8741  0.1927
 5492TIP3    H116440   0.203   4.523   4.266  0.5497 -0.6098 -2.0623
 5492TIP3    H216441   0.064   4.484   4.223 -0.3328 -0.4279  0.4606
 5493TIP3   OH216442   1.743   2.839   0.939  0.6190  0.0660 -0.1020
 5493TIP3    H116443   1.649   2.824   0.930  0.4240  1.9174 -1.7234
 5493TIP3    H216444   1.757   2.849   1.033 -0.4565 -2.0075  0.3523
 5494TIP3   OH216445   0.759   0.217   2.850 -0.4294  0.3732  0.7875
 5494TIP3    H116446   0.671   0.193   2.819 -0.3776  0.4192  0.6024
 5494TIP3    H216447   0.774   0.160   2.926  0.5471 -1.8038 -0.9089
 5495TIP3   OH216448   5.670   2.632   1.362  0.6393  0.2607 -0.2627
 5495TIP3    H116449   5.595   2.691   1.372 -0.7420 -1.6266  1.4557
 5495TIP3    H216450   5.639   2.564   1.301  1.3505  0.0267 -0.3745
 5496TIP3   OH216451   6.773   3.812   0.984 -0.1862 -0.4189  0.0856
 5496TIP3    H116452   6.867   3.799   0.998  0.5430  3.4920 -0.0749
 5496TIP3    H216453   6.762   3.806   0.889  0.3701  1.2190 -0.1073
 5497TIP3   OH216454   0.414   4.918   3.045  0.2984 -0.2508  0.4855
 5497TIP3    H116455   0.498   4.948   3.009  0.3434  0.3907  1.0996
 5497TIP3    H216456   0.351   4.934   2.975  0.5655 -0.0625  0.2839
 5498TIP3   OH216457   5.866   0.863   2.901 -0.2238 -0.0324 -0.6093
 5498TIP3    H116458   5.949   0.871   2.853  0.5483  0.3986  0.7307
 5498TIP3    H216459   5.892   0.832   2.988 -1.5635 -0.6549 -0.4003
 5499TIP3   OH216460   2.390   6.807   4.463 -0.3222  0.4150 -0.0589
 5499TIP3    H116461   2.480   6.834   4.443 -0.9128  1.3960 -1.5614
 5499TIP3    H216462   2.368   6.744   4.395  0.0467 -1.8419  1.7782
 5500TIP3   OH216463   1.538   5.569   2.216 -0.2652 -0.2457  0.4205
 5500TIP3    H116464   1.445   5.554   2.200  0.0675 -1.3937 -0.5835
 5500TIP3    H216465   1.565   5.499   2.275 -0.1796  0.5139  1.3083
 5501TIP3   OH216466   5.825   0.693   1.269 -0.2425  0.4990  0.3208
 5501TIP3    H116467   5.843   0.619   1.211  0.2660  1.0563 -0.2502
 5501TIP3    H216468   5.888   0.760   1.243 -1.1087  1.3715  0.3941
 5502TIP3   OH216469   3.790   0.776   4.971 -0.0981  0.2568  0.0795
 5502TIP3    H116470   3.805   0.863   5.008  0.9055 -0.1860  0.7568
 5502TIP3    H216471   3.769   0.722   5.048  3.1453 -0.9448  0.2788
 5503TIP3   OH216472   3.617   0.164   4.719 -0.7639  0.3305  0.1747
 5503TIP3    H116473   3.654   0.164   4.631  0.7471 -1.8327  0.7586
 5503TIP3    H216474   3.538   0.110   4.712 -2.0951  2.2089 -0.3215
 5504TIP3   OH216475   1.513   2.299   0.077  0.1035  0.4067  0.3171
 5504TIP3    H116476   1.427   2.270   0.046  0.3064  1.0118 -0.8443
 5504TIP3    H216477   1.567   2.305  -0.001  1.2948 -0.2130  1.0654
 5505TIP3   OH216478   7.021   1.441   5.519 -0.2446 -0.2925  0.0215
 5505TIP3    H116479   7.047   1.510   5.580  0.8608  1.1045 -1.9080
 5505TIP3    H216480   6.962   1.484   5.458 -0.7211 -1.4520 -0.3588
 5506TIP3   OH216481   7.088   1.269   3.092 -0.4534 -0.0903  0.4578
 5506TIP3    H116482   7.082   1.353   3.047  0.0778 -1.2133 -1.9124
 5506TIP3    H216483   7.164   1.277   3.149 -0.0433  0.8360 -0.2034
 5507TIP3   OH216484   4.353   3.038   0.588 -0.0651 -0.0761 -0.1589
 5507TIP3    H116485   4.338   2.965   0.649 -1.9716  1.0668  0.8438
 5507TIP3    H216486   4.309   3.012   0.508 -0.6028 -0.1063  0.1423
 5508TIP3   OH216487   0.403   5.004   3.342 -0.0771  0.2888 -0.0183
 5508TIP3    H116488   0.401   4.972   3.252  0.8085 -0.6784  0.2876
 5508TIP3    H216489   0.311   5.019   3.364 -0.2256  1.8207 -1.5035
 5509TIP3   OH216490   3.426   5.612   3.434 -0.0156 -0.5947 -0.3442
 5509TIP3    H116491   3.356   5.630   3.370  1.0192  1.3511 -1.0285
 5509TIP3    H216492   3.431   5.692   3.486 -0.8490 -2.1477  2.2840
 5510TIP3   OH216493   6.251   5.559   0.950  0.0974 -0.2636  0.0920
 5510TIP3    H116494   6.189   5.527   0.884  1.4059  0.5120 -1.5946
 5510TIP3    H216495   6.197   5.579   1.026 -1.5528 -0.7648 -0.8932
 5511TIP3   OH216496   0.066   2.307   1.908 -0.1130  0.1225 -0.6370
 5511TIP3    H116497   0.144   2.331   1.958 -0.8307  0.3097  0.4317
 5511TIP3    H216498   0.055   2.378   1.845 -0.2878  0.8998  0.2436
 5512TIP3   OH216499   0.075   1.272   3.287 -0.3786  0.6528  0.0419
 5512TIP3    H116500   0.020   1.278   3.365 -1.3381  1.4907 -0.6633
 5512TIP3    H216501   0.133   1.198   3.304 -1.9904 -0.5371  0.6829
 5513TIP3   OH216502   0.052   1.873   4.686  0.0004  0.6223 -0.2760
 5513TIP3    H116503  -0.011   1.839   4.622 -1.1213  1.1319  0.5075
 5513TIP3    H216504   0.125   1.906   4.634 -0.2987 -0.1500 -1.2109
 5514TIP3   OH216505   5.277   2.414   2.950 -0.0902 -0.8293 -0.2892
 5514TIP3    H116506   5.366   2.398   2.982 -0.0277 -0.9904 -0.5410
 5514TIP3    H216507   5.286   2.420   2.855 -0.5046 -1.9117 -0.4121
 5515TIP3   OH216508   3.329   5.353   5.550  0.3069  0.3419 -0.0782
 5515TIP3    H116509   3.324   5.262   5.520  0.2439  0.0134  0.8796
 5515TIP3    H216510   3.281   5.403   5.485 -0.6540 -0.4711 -0.0195
 5516TIP3   OH216511   0.150   6.615   5.721  0.5052 -0.4437  0.5309
 5516TIP3    H116512   0.056   6.598   5.732  0.1006  1.3278  0.2436
 5516TIP3    H216513   0.168   6.590   5.630  0.6896 -2.2152  1.0279
 5517TIP3   OH216514   2.647   5.147   2.183  0.1858  0.1238  0.0259
 5517TIP3    H116515   2.637   5.056   2.211 -2.1917  0.5656  0.8377
 5517TIP3    H216516   2.734   5.150   2.143 -0.2765 -2.8968 -1.5401
 5518TIP3   OH216517   5.037   4.586   0.796 -0.1457 -0.0677 -0.1059
 5518TIP3    H116518   5.071   4.588   0.707 -0.0629  3.1273 -0.1295
 5518TIP3    H216519   4.945   4.610   0.788  0.2843  2.2028  0.6762
 5519TIP3   OH216520   4.066   6.723   4.849  0.6518 -0.9320 -0.0880
 5519TIP3    H116521   4.066   6.800   4.905  1.3893 -2.0685  1.5519
 5519TIP3    H216522   3.988   6.732   4.795  1.0052  1.2092 -0.3142
 5520TIP3   OH216523   4.370   2.351   1.473 -0.0361 -0.6580  0.1456
 5520TIP3    H116524   4.388   2.399   1.553  0.7706 -0.6786 -0.0223
 5520TIP3    H216525   4.291   2.300   1.494 -1.5694  1.5008 -0.0165
 5521TIP3   OH216526   5.402   3.311   5.668 -0.2121  0.7849 -0.0477
 5521TIP3    H116527   5.474   3.374   5.669  0.6469 -0.1499  2.0423
 5521TIP3    H216528   5.336   3.352   5.612  1.6769  1.9388 -1.5786
 5522TIP3   OH216529   6.967   4.573   0.836 -0.1854  0.0110  0.5335
 5522TIP3    H116530   6.973   4.562   0.930  2.8589  0.4051  0.4869
 5522TIP3    H216531   6.990   4.665   0.821  2.0240 -0.6524 -0.6560
 5523TIP3   OH216532   0.028   4.712   2.489 -0.3223  0.0757  0.4969
 5523TIP3    H116533   0.101   4.741   2.544  1.0768 -1.4548 -0.4539
 5523TIP3    H216534   0.023   4.777   2.419  2.4327 -1.4633 -1.3297
 5524TIP3   OH216535   2.409   5.627   5.636  0.0943  0.1591 -0.6155
 5524TIP3    H116536   2.326   5.639   5.681  0.6980 -0.2048  0.6483
 5524TIP3    H216537   2.475   5.629   5.706  1.2158  1.1048 -1.6441
 5525TIP3   OH216538   0.095   4.436   3.857  0.6130 -0.5157 -0.2312
 5525TIP3    H116539   0.000   4.439   3.870  0.8192 -0.4140  1.3367
 5525TIP3    H216540   0.110   4.349   3.820 -0.0597 -0.6362 -0.2448
 5526TIP3   OH216541   6.247   5.950   3.020 -0.3034 -0.1897 -0.2774
 5526TIP3    H116542   6.218   5.890   3.090 -0.0280 -0.7634 -0.6453
 5526TIP3    H216543   6.184   5.935   2.949 -0.8999  0.7796  0.0325
 5527TIP3   OH216544   2.941   2.424   4.307  0.0740 -0.2051 -0.6838
 5527TIP3    H116545   2.994   2.496   4.273  1.4949 -0.5790  0.6363
 5527TIP3    H216546   2.850   2.453   4.296  0.6193  1.7896 -0.1638
 5528TIP3   OH216547   0.729   1.890   4.140  0.1157  0.1881  0.0242
 5528TIP3    H116548   0.676   1.824   4.183 -1.0956  0.4350 -1.0441
 5528TIP3    H216549   0.686   1.973   4.161 -0.2603  0.3446 -1.2994
 5529TIP3   OH216550   5.085   4.794   3.658 -0.0798  0.7417 -0.3364
 5529TIP3    H116551   5.017   4.860   3.647 -0.3776  0.8318  1.5701
 5529TIP3    H216552   5.166   4.840   3.638 -0.2325  1.8939  1.4013
 5530TIP3   OH216553   4.957   5.391   1.879  0.4273  0.0025  0.0686
 5530TIP3    H116554   4.950   5.299   1.854  1.1515 -0.0114 -0.0946
 5530TIP3    H216555   4.977   5.437   1.796  1.4053  0.1339  0.3620
 5531TIP3   OH216556   5.464   2.686   1.644 -0.1609  0.5870  0.3038
 5531TIP3    H116557   5.433   2.717   1.559 -2.5714 -1.2982  0.3843
 5531TIP3    H216558   5.457   2.763   1.701 -0.7862  1.2761 -0.6681
 5532TIP3   OH216559   2.431   5.998   1.006 -0.1244  0.1278  0.5062
 5532TIP3    H116560   2.487   6.068   1.041 -1.1124  0.7635  0.8723
 5532TIP3    H216561   2.459   5.986   0.916  0.3521  0.6944  0.5783
 5533TIP3   OH216562   3.907   3.088   2.492  0.3038 -0.0127  0.1694
 5533TIP3    H116563   4.003   3.080   2.496  0.4435  0.5322 -1.2982
 5533TIP3    H216564   3.891   3.182   2.483 -0.4504  0.0142  1.6064
 5534TIP3   OH216565   5.612   4.850   5.800  0.4389  0.0986 -0.1266
 5534TIP3    H116566   5.541   4.885   5.747 -1.0080 -0.6041  1.2731
 5534TIP3    H216567   5.657   4.928   5.834  1.1077  0.5522 -1.9404
 5535TIP3   OH216568   1.478   4.571   5.556  0.0709 -0.7183 -0.3344
 5535TIP3    H116569   1.542   4.580   5.484  0.7913 -1.5714  0.1713
 5535TIP3    H216570   1.393   4.586   5.515  0.6770  2.7099 -0.6163
 5536TIP3   OH216571   0.110   1.570   1.335  0.3103 -0.3828  0.3686
 5536TIP3    H116572   0.063   1.499   1.378  0.3296 -0.5200  0.1666
 5536TIP3    H216573   0.111   1.641   1.399 -0.1422 -0.3894  0.3859
 5537TIP3   OH216574   3.169   1.746   4.216 -0.4192  0.0364 -0.4022
 5537TIP3    H116575   3.206   1.797   4.288  0.7457 -1.7574  0.3303
 5537TIP3    H216576   3.121   1.810   4.164 -0.3716  1.5831  1.3494
 5538TIP3   OH216577   6.074   6.269   4.014  0.5177 -0.3429  0.4632
 5538TIP3    H116578   6.028   6.329   4.073 -0.1331 -0.0916 -0.2904
 5538TIP3    H216579   6.151   6.319   3.985  0.6017 -0.3046  0.7429
 5539TIP3   OH216580  -0.014   5.298   4.814  0.0100  0.3631 -0.1441
 5539TIP3    H116581   0.050   5.300   4.742  0.6802 -0.6364  0.4111
 5539TIP3    H216582   0.017   5.229   4.872 -0.7226  0.9203  0.9359
 5540TIP3   OH216583   5.497   5.138   3.390  0.6346  0.6322  0.3749
 5540TIP3    H116584   5.402   5.133   3.397  0.6823 -1.2338  0.3330
 5540TIP3    H216585   5.529   5.121   3.478  0.9430  1.2212  0.3817
 5541TIP3   OH216586   6.713   2.072   5.691 -0.0489 -0.3670 -0.5385
 5541TIP3    H116587   6.684   2.121   5.614 -0.2098  0.8886  0.3067
 5541TIP3    H216588   6.684   2.124   5.766  1.7321 -0.6014  0.3670
 5542TIP3   OH216589   6.325   2.305   2.906  0.2826 -0.0305 -0.1556
 5542TIP3    H116590   6.377   2.270   2.978 -0.1238  0.6645  0.4905
 5542TIP3    H216591   6.373   2.280   2.827  2.2547  1.6069  0.4444
 5543TIP3   OH216592   3.742   4.018   0.448 -0.3547  0.1332  0.2405
 5543TIP3    H116593   3.815   3.959   0.432  1.0748  2.1124 -0.9479
 5543TIP3    H216594   3.732   4.018   0.543  1.5924  0.2463  0.4807
 5544TIP3   OH216595   2.826   1.549   4.524  0.7898 -0.8077 -0.1534
 5544TIP3    H116596   2.903   1.603   4.505  1.5435 -1.3828  1.1438
 5544TIP3    H216597   2.859   1.478   4.580 -1.2231  1.0224  3.8070
 5545TIP3   OH216598   1.165   0.713   4.182 -0.2009  0.2176  0.0170
 5545TIP3    H116599   1.133   0.775   4.247 -0.4431  0.1986 -0.0805
 5545TIP3    H216600   1.259   0.710   4.195  0.0103  1.7149 -0.9492
 5546TIP3   OH216601   3.277   4.410   2.292  0.2322 -0.2010 -0.4111
 5546TIP3    H116602   3.240   4.497   2.305  0.1866 -0.5344  2.1574
 5546TIP3    H216603   3.372   4.422   2.297  0.2096 -0.3564  0.5142
 5547TIP3   OH216604   0.234   0.293   4.721 -0.6102 -0.4550  0.1794
 5547TIP3    H116605   0.288   0.220   4.751  0.6019  0.1894 -0.3594
 5547TIP3    H216606   0.233   0.354   4.794 -0.9215 -0.6330  0.3243
 5548TIP3   OH216607   3.686   1.723   2.929  0.1931 -0.0797  0.0809
 5548TIP3    H116608   3.614   1.704   2.989 -0.0763  1.0124  0.1370
 5548TIP3    H216609   3.713   1.638   2.895 -2.2038 -0.4436 -1.1569
 5549TIP3   OH216610   0.677   1.833   2.171  0.4921 -0.0259  0.1737
 5549TIP3    H116611   0.591   1.791   2.174  0.6373 -0.2635  2.4974
 5549TIP3    H216612   0.705   1.822   2.080 -2.6431  1.6139 -1.1675
 5550TIP3   OH216613   2.722   5.679   2.581  0.4755 -0.5911 -0.2929
 5550TIP3    H116614   2.792   5.658   2.520 -0.1240  0.4239 -1.3860
 5550TIP3    H216615   2.642   5.671   2.529  0.0193  1.3792  0.0247
 5551TIP3   OH216616   2.763   1.506   4.055 -0.0289 -0.7330 -0.1937
 5551TIP3    H116617   2.724   1.541   4.135  0.0697 -2.5211  0.6892
 5551TIP3    H216618   2.825   1.573   4.027 -0.8036  0.3775  0.6251
 5552TIP3   OH216619   5.074   5.539   2.749 -0.0297 -0.3670  0.1973
 5552TIP3    H116620   5.012   5.468   2.768  0.3825 -0.8983 -0.3906
 5552TIP3    H216621   5.059   5.559   2.657  1.2466 -1.0891 -0.1866
 5553TIP3   OH216622   1.096   1.884   5.839  0.2338  0.2856  0.3073
 5553TIP3    H116623   1.169   1.822   5.831  0.3131  0.2879  0.9702
 5553TIP3    H216624   1.120   1.956   5.782  1.2673  0.7711  1.3087
 5554TIP3   OH216625   6.864   0.081   4.869  0.2014 -0.5706 -0.0566
 5554TIP3    H116626   6.788   0.139   4.866 -0.6715 -1.7079 -0.7704
 5554TIP3    H216627   6.896   0.079   4.779  0.0572 -1.3856 -0.0981
 5555TIP3   OH216628   2.223   4.128   3.391  0.8279  0.1374 -0.4274
 5555TIP3    H116629   2.158   4.106   3.457  1.4260 -0.3874  0.0016
 5555TIP3    H216630   2.286   4.183   3.437  1.5319 -0.6647 -0.4110
 5556TIP3   OH216631   0.397   1.784   0.693  0.2980  0.6900 -0.2357
 5556TIP3    H116632   0.306   1.793   0.664  0.5162 -0.6386 -1.4561
 5556TIP3    H216633   0.397   1.817   0.783 -1.0057  2.3805 -0.8075
 5557TIP3   OH216634   6.091   2.850   4.509  0.1298  0.1279  0.3269
 5557TIP3    H116635   6.051   2.797   4.578 -1.2833 -0.3718 -0.8263
 5557TIP3    H216636   6.111   2.788   4.439  0.7649  0.7520 -0.0653
 5558TIP3   OH216637   4.769   2.470   5.779 -0.3566  0.2485 -0.0235
 5558TIP3    H116638   4.862   2.457   5.796 -0.5546 -0.9309  0.3096
 5558TIP3    H216639   4.749   2.408   5.708 -1.1350 -0.4492  0.7801
 5559TIP3   OH216640   6.499   0.264   4.351 -0.2031  0.3388 -0.4068
 5559TIP3    H116641   6.455   0.215   4.281 -2.0489  0.0687  0.8654
 5559TIP3    H216642   6.556   0.200   4.392 -2.0537 -0.6579  0.7724
 5560TIP3   OH216643   2.672   0.746   2.256 -0.7932 -0.1581  0.0885
 5560TIP3    H116644   2.765   0.764   2.272 -1.0690  0.7751  0.6849
 5560TIP3    H216645   2.665   0.651   2.264  0.1427 -0.2559 -0.1374
 5561TIP3   OH216646   5.345   1.772   3.882 -0.1128 -0.5998 -0.2608
 5561TIP3    H116647   5.278   1.705   3.880  0.5656 -1.2963 -0.1798
 5561TIP3    H216648   5.305   1.848   3.841 -0.9923 -0.9564 -0.0724
 5562TIP3   OH216649   1.357   4.193   4.163  0.4673 -0.1377  0.5714
 5562TIP3    H116650   1.381   4.109   4.203  0.7707 -0.4355 -0.2198
 5562TIP3    H216651   1.386   4.186   4.072  1.2730  1.1432  0.6922
 5563TIP3   OH216652   2.837   4.761   1.778  0.1534  0.0215 -0.1730
 5563TIP3    H116653   2.820   4.714   1.696  1.3204  0.1203 -0.4832
 5563TIP3    H216654   2.903   4.708   1.822  0.5458  0.7051  0.0688
 5564TIP3   OH216655   5.268   1.689   3.370  0.3024 -0.3334 -0.1194
 5564TIP3    H116656   5.227   1.603   3.365  1.5381 -1.0450  1.3101
 5564TIP3    H216657   5.206   1.747   3.326 -1.8594 -1.4725  1.2253
 5565TIP3   OH216658   5.190   0.277   4.235  0.3222  0.1538  0.0158
 5565TIP3    H116659   5.185   0.368   4.205  0.8364  0.2877  0.3256
 5565TIP3    H216660   5.284   0.257   4.234  0.3289  0.0742  1.2660
 5566TIP3   OH216661   2.679   2.708  -0.004  0.1652 -0.1952  0.1015
 5566TIP3    H116662   2.687   2.725   0.090  2.1951  0.3673 -0.1325
 5566TIP3    H216663   2.742   2.639  -0.022  1.8333  1.5702 -1.2527
 5567TIP3   OH216664   3.524   4.713   0.747  0.0855 -0.8657  0.1999
 5567TIP3    H116665   3.613   4.744   0.730 -0.5172  1.1421  0.3479
 5567TIP3    H216666   3.523   4.623   0.715  2.0447 -0.8107 -0.1619
 5568TIP3   OH216667   6.266   6.671   1.006  0.0491 -0.4688 -0.4850
 5568TIP3    H116668   6.187   6.618   0.997 -0.5272  0.5884 -2.1799
 5568TIP3    H216669   6.235   6.762   1.006  1.1707 -0.0583  0.1171
 5569TIP3   OH216670   3.019   4.915   4.070  0.0090 -0.1021  0.0850
 5569TIP3    H116671   3.035   4.829   4.111 -0.5239 -0.7745 -1.0746
 5569TIP3    H216672   3.034   4.978   4.141  0.0669 -1.1691  1.0597
 5570TIP3   OH216673   6.563   3.857   2.333 -0.1984 -0.5917 -0.2158
 5570TIP3    H116674   6.628   3.813   2.279  1.1532 -0.6355  1.3510
 5570TIP3    H216675   6.555   3.945   2.296  1.7862 -0.1417  0.3196
 5571TIP3   OH216676   3.402   3.660   1.837 -0.2459 -0.0007  0.3566
 5571TIP3    H116677   3.449   3.620   1.911  0.7864  0.8971  0.2042
 5571TIP3    H216678   3.470   3.706   1.788 -0.8660 -0.8580 -1.3501
 5572TIP3   OH216679   5.391   3.918   3.150  0.1455 -0.0159 -0.3150
 5572TIP3    H116680   5.464   3.857   3.163 -0.8598 -1.0197  0.9269
 5572TIP3    H216681   5.428   4.005   3.165  1.2551 -0.4427 -0.5228
 5573TIP3   OH216682   0.861   5.242   0.933  0.6577  0.3815  0.6871
 5573TIP3    H116683   0.863   5.230   0.838  1.5940 -1.8402  0.9171
 5573TIP3    H216684   0.952   5.261   0.957  0.6839 -0.3750  1.2430
 5574TIP3   OH216685   1.821   5.286   2.938 -0.1409  0.3431  0.3968
 5574TIP3    H116686   1.743   5.235   2.961  0.6215 -0.4238  1.3667
 5574TIP3    H216687   1.866   5.233   2.873  0.2476  0.1524  0.8201
 5575TIP3   OH216688   5.099   4.546   0.516 -0.2729  0.1726  0.3711
 5575TIP3    H116689   5.044   4.600   0.459  0.7810  1.5022  0.5756
 5575TIP3    H216690   5.165   4.508   0.458 -1.1884 -1.2301  0.1704
 5576TIP3   OH216691   5.387   0.121   5.124 -0.5846  0.3218  0.0875
 5576TIP3    H116692   5.396   0.064   5.048  0.3758  0.8865 -0.2402
 5576TIP3    H216693   5.386   0.062   5.199  2.5034 -0.1120 -0.0622
 5577TIP3   OH216694   6.993   4.872   3.726 -1.1068  0.7924 -0.0036
 5577TIP3    H116695   6.943   4.822   3.661 -0.7916 -0.5387  0.7390
 5577TIP3    H216696   7.083   4.840   3.716 -1.0415  0.6271  1.0194
 5578TIP3   OH216697   0.397   5.913   0.380 -0.1964 -0.0141  0.2084
 5578TIP3    H116698   0.422   6.003   0.402  0.1636  0.1035 -0.6466
 5578TIP3    H216699   0.314   5.899   0.426  0.0685  0.5254  0.8803
 5579TIP3   OH216700   2.590   0.033   0.994 -0.2212  0.3305  0.8748
 5579TIP3    H116701   2.631  -0.006   0.917 -1.1719 -2.3973  1.6256
 5579TIP3    H216702   2.663   0.061   1.049  0.5096 -0.2470  0.2198
 5580TIP3   OH216703   5.206   4.551   4.449 -0.6206 -0.2110 -0.4416
 5580TIP3    H116704   5.202   4.616   4.519  3.1666  0.1550 -0.3959
 5580TIP3    H216705   5.122   4.561   4.403 -1.1540  3.0623  0.9470
 5581TIP3   OH216706   4.046   4.000   5.225 -0.6176  0.2991 -0.3852
 5581TIP3    H116707   3.983   4.006   5.154 -1.3959  1.0984  0.3410
 5581TIP3    H216708   4.125   3.964   5.185 -0.8148  1.3515 -1.7830
 5582TIP3   OH216709   7.031   1.332   2.542 -0.0669  0.3805 -0.0824
 5582TIP3    H116710   7.117   1.371   2.558  0.5116 -1.1170  0.6018
 5582TIP3    H216711   6.974   1.369   2.610  0.9947 -1.5485  1.9633
 5583TIP3   OH216712   6.774   6.282   3.203 -0.1753 -0.2011 -0.0170
 5583TIP3    H116713   6.787   6.191   3.174  0.4689 -0.0256 -0.3060
 5583TIP3    H216714   6.837   6.294   3.273 -1.2677 -0.4104  1.0432
 5584TIP3   OH216715   4.043   5.335   1.390  0.4218  0.1917  0.4861
 5584TIP3    H116716   4.099   5.366   1.319 -0.1215  2.2279  0.8846
 5584TIP3    H216717   4.103   5.307   1.459  0.9528  0.7356  0.2470
 5585TIP3   OH216718   6.318   4.435   4.751 -0.4088 -0.2098 -0.0166
 5585TIP3    H116719   6.373   4.396   4.820  0.0030 -2.5752 -1.5771
 5585TIP3    H216720   6.367   4.419   4.670 -0.1730  3.7676 -0.8453
 5586TIP3   OH216721   0.442   4.467   2.762 -0.6847  0.3318 -0.4647
 5586TIP3    H116722   0.436   4.456   2.857  0.3716  0.0012 -0.4300
 5586TIP3    H216723   0.368   4.417   2.727  0.8338 -2.4139 -0.0006
 5587TIP3   OH216724   2.686   4.966   3.112  0.4126 -0.4990 -0.8236
 5587TIP3    H116725   2.606   5.011   3.140  0.3746 -1.1661  0.1821
 5587TIP3    H216726   2.715   5.014   3.034  0.4060  1.3083  0.2455
 5588TIP3   OH216727   0.796   1.652   5.663  0.5919  0.2065 -0.3692
 5588TIP3    H116728   0.791   1.591   5.590 -1.2702 -0.6290  0.4079
 5588TIP3    H216729   0.875   1.626   5.711 -0.1046 -1.5144 -0.1183
 5589TIP3   OH216730   0.054   1.904   5.240  0.1893 -0.3127 -0.0447
 5589TIP3    H116731   0.141   1.943   5.229  0.4745 -0.5115  1.2953
 5589TIP3    H216732   0.052   1.832   5.176  1.1555 -0.5335  0.1613
 5590TIP3   OH216733   4.619   0.826   2.819  0.5717  0.1231  1.0754
 5590TIP3    H116734   4.601   0.915   2.790 -0.1234 -1.2603 -3.7233
 5590TIP3    H216735   4.543   0.776   2.789  2.7640 -2.6466 -0.4444
 5591TIP3   OH216736   3.675   2.827   4.283  0.4829  0.1898  0.3712
 5591TIP3    H116737   3.603   2.771   4.254  0.0440 -0.1157  1.9291
 5591TIP3    H216738   3.654   2.913   4.248  1.3794 -0.6248 -2.4158
 5592TIP3   OH216739   4.124   0.363   5.784  0.2200  0.3211 -0.2478
 5592TIP3    H116740   4.130   0.390   5.693 -1.8774  0.0349 -0.5148
 5592TIP3    H216741   4.215   0.365   5.816  1.1808 -0.8935 -2.6881
 5593TIP3   OH216742   6.048   3.700   2.620 -0.2374 -0.2761  0.4992
 5593TIP3    H116743   6.071   3.767   2.684 -1.4170  0.4618  0.1857
 5593TIP3    H216744   6.066   3.740   2.536 -0.2999 -0.6080  0.3267
 5594TIP3   OH216745   3.378   5.406   0.149 -0.5781 -0.4021 -0.0326
 5594TIP3    H116746   3.414   5.363   0.071 -0.6879  0.5219 -0.6112
 5594TIP3    H216747   3.421   5.363   0.222 -0.0581 -0.9194 -0.6272
 5595TIP3   OH216748   4.749   2.992   4.845 -0.6593  0.0874  0.0412
 5595TIP3    H116749   4.681   3.059   4.842  0.0932  0.8410 -0.5946
 5595TIP3    H216750   4.710   2.916   4.801 -2.2940 -0.6819  2.5713
 5596TIP3   OH216751   3.549   6.537   3.824 -0.4390  0.0014  0.1800
 5596TIP3    H116752   3.592   6.534   3.739  0.9076  0.5170  0.8087
 5596TIP3    H216753   3.619   6.519   3.887 -0.8951  1.8998  1.3207
 5597TIP3   OH216754   5.622   5.901   3.760 -0.0040 -0.0402 -0.3797
 5597TIP3    H116755   5.586   5.908   3.671 -1.8113 -0.2693  0.2932
 5597TIP3    H216756   5.611   5.808   3.782  1.4433 -0.2121 -0.2995
 5598TIP3   OH216757   2.379   5.820   0.392 -0.2642  0.2407 -0.1088
 5598TIP3    H116758   2.419   5.873   0.323 -1.0785 -0.4830 -1.1699
 5598TIP3    H216759   2.394   5.730   0.364 -1.4434 -0.0532  0.1554
 5599TIP3   OH216760   3.510   4.854   1.830  0.0327  0.7652  0.3136
 5599TIP3    H116761   3.506   4.785   1.896  1.3812 -1.1171 -1.4441
 5599TIP3    H216762   3.531   4.934   1.880 -1.5607 -0.0306  2.4081
 5600TIP3   OH216763   0.565   1.534   0.778 -0.1503 -0.1703  0.5881
 5600TIP3    H116764   0.608   1.580   0.850  0.4268  0.7948 -0.3468
 5600TIP3    H216765   0.503   1.598   0.741 -0.2642 -0.5667  0.0705
 5601TIP3   OH216766   3.373   4.770   2.560  0.6672  0.4940  0.4412
 5601TIP3    H116767   3.285   4.804   2.544  0.4218 -0.8513 -1.4520
 5601TIP3    H216768   3.432   4.839   2.530  0.1968  0.0905 -1.5363
 5602TIP3   OH216769   0.386   4.715   5.146 -0.0079  0.0100 -0.3402
 5602TIP3    H116770   0.407   4.644   5.207 -0.9360 -1.1686 -1.3538
 5602TIP3    H216771   0.362   4.788   5.203 -0.5209 -0.9431  0.7172
 5603TIP3   OH216772   3.452   1.436   0.931 -0.0961  0.1292  0.0377
 5603TIP3    H116773   3.532   1.454   0.980  0.4654  0.4827 -0.9760
 5603TIP3    H216774   3.409   1.365   0.980 -0.6754  1.8680  2.2533
 5604TIP3   OH216775   4.872   1.045   3.100 -0.0886 -0.1865 -0.5491
 5604TIP3    H116776   4.802   0.991   3.136 -0.1149  0.0735 -0.2022
 5604TIP3    H216777   4.936   0.983   3.067 -1.0261 -0.4343 -1.9557
 5605TIP3   OH216778   1.053   4.314   1.351  0.3671 -0.5549  0.1178
 5605TIP3    H116779   1.120   4.301   1.283  1.2321 -1.6419  1.1281
 5605TIP3    H216780   1.041   4.227   1.389  1.6114  0.3723  2.8777
 5606TIP3   OH216781   0.936   0.593   0.691 -0.1227  0.5244  0.4941
 5606TIP3    H116782   0.987   0.633   0.761 -1.2969  0.8434  1.1910
 5606TIP3    H216783   0.982   0.616   0.611 -0.3162  2.6112  0.9353
 5607TIP3   OH216784   6.587   3.515   1.450  0.5657  0.9178 -0.6731
 5607TIP3    H116785   6.577   3.597   1.403  1.3173  1.3605 -0.0788
 5607TIP3    H216786   6.513   3.512   1.511  0.7434  1.3349 -0.4362
 5608TIP3   OH216787   1.576   1.232   2.660  0.6627 -0.0256 -0.2051
 5608TIP3    H116788   1.614   1.300   2.715  1.8657 -0.5141 -0.4057
 5608TIP3    H216789   1.630   1.230   2.581  0.5661 -1.0979 -0.2697
 5609TIP3   OH216790   1.827   6.798   0.406 -0.0287 -0.1670  0.0807
 5609TIP3    H116791   1.808   6.745   0.483  0.9370 -0.0514  0.4146
 5609TIP3    H216792   1.775   6.759   0.336 -0.8515 -0.3190  0.7687
 5610TIP3   OH216793   3.272   4.410   1.943  0.2094  0.1441  0.4549
 5610TIP3    H116794   3.258   4.331   1.995 -1.2249 -1.0761 -1.6196
 5610TIP3    H216795   3.360   4.399   1.907  1.0398  0.7932  2.2089
 5611TIP3   OH216796   6.761   5.229   5.862 -0.4240 -0.3401  0.2539
 5611TIP3    H116797   6.713   5.306   5.832  1.2864  0.4306 -0.6755
 5611TIP3    H216798   6.821   5.263   5.929  1.1440 -0.5889 -0.9606
 5612TIP3   OH216799   3.105   1.909   1.271 -0.2867 -0.4645 -0.1105
 5612TIP3    H116800   3.128   1.826   1.313  0.0560  0.1819  1.0324
 5612TIP3    H216801   3.170   1.918   1.201  1.8273  0.3601  1.8035
 5613TIP3   OH216802   3.909   0.143   2.018 -0.0204 -1.0107 -0.7906
 5613TIP3    H116803   3.840   0.202   2.048 -1.4226 -2.2535 -1.4574
 5613TIP3    H216804   3.990   0.183   2.050 -1.0719  0.2099  0.4867
 5614TIP3   OH216805   0.575   2.324   4.648 -0.1145  0.1026 -0.4140
 5614TIP3    H116806   0.575   2.245   4.703 -0.2877 -0.1897 -0.8346
 5614TIP3    H216807   0.667   2.346   4.638 -0.1078  0.6186  0.6575
 5615TIP3   OH216808   4.096   0.819   2.854 -0.5067 -0.6540 -0.0707
 5615TIP3    H116809   4.027   0.842   2.792  0.6758 -2.3963 -2.1815
 5615TIP3    H216810   4.172   0.869   2.824 -0.0970 -0.9714  0.4242
 5616TIP3   OH216811   7.246   2.862   2.554  0.0886 -0.5659  0.3009
 5616TIP3    H116812   7.205   2.949   2.556 -2.0440 -1.5133  0.4226
 5616TIP3    H216813   7.174   2.801   2.568  1.6023 -2.3668  0.6494
 5617TIP3   OH216814   4.116   0.311   4.479 -0.0051 -0.0287  0.3899
 5617TIP3    H116815   4.058   0.271   4.415  0.0189  1.6499 -0.7538
 5617TIP3    H216816   4.174   0.367   4.427 -0.0565  1.4874  1.8688
 5618TIP3   OH216817   5.258   0.495   2.086  0.1117 -0.9314  0.0710
 5618TIP3    H116818   5.245   0.543   2.168  2.0476 -1.3209  0.6548
 5618TIP3    H216819   5.340   0.529   2.050  0.0138 -1.7485 -1.0005
 5619TIP3   OH216820   4.002   3.884   4.250 -0.0045 -0.1553 -0.0233
 5619TIP3    H116821   4.019   3.791   4.261  1.3971  0.2037  1.2120
 5619TIP3    H216822   3.913   3.897   4.282  0.4834 -0.7886  1.6928
 5620TIP3   OH216823   6.512   5.704   5.612  0.0465  0.0439 -0.0723
 5620TIP3    H116824   6.566   5.673   5.684  0.6603 -1.7275 -1.2373
 5620TIP3    H216825   6.424   5.674   5.633 -0.2150  1.4315  0.9706
 5621TIP3   OH216826   5.830   5.681   3.561  0.3721 -0.0624 -0.5347
 5621TIP3    H116827   5.828   5.735   3.482 -2.4693 -2.3644 -2.2198
 5621TIP3    H216828   5.763   5.719   3.618  0.7422  0.1642 -0.2439
 5622TIP3   OH216829   6.693   4.727   1.594  0.5778 -0.6183  0.3823
 5622TIP3    H116830   6.635   4.766   1.528  0.6818 -0.6876  0.2502
 5622TIP3    H216831   6.754   4.797   1.615 -0.9268  0.2394  2.1933
 5623TIP3   OH216832   3.199   0.282   1.032  0.6080 -0.0777 -0.4405
 5623TIP3    H116833   3.268   0.304   1.094  0.2125  0.5795 -0.2300
 5623TIP3    H216834   3.134   0.351   1.042 -0.6039 -1.2506  0.1470
 5624TIP3   OH216835   6.825   6.570   2.066  0.2036  0.0190  0.3862
 5624TIP3    H116836   6.767   6.610   2.002  1.8326  1.2765 -0.3852
 5624TIP3    H216837   6.854   6.488   2.025  0.6482  0.4543 -0.1799
 5625TIP3   OH216838   3.577   3.692   0.496 -0.2675  0.1152  0.3972
 5625TIP3    H116839   3.576   3.706   0.402 -3.2392  0.6782  0.4307
 5625TIP3    H216840   3.585   3.597   0.506  2.5018  0.2064 -0.2801
 5626TIP3   OH216841   1.909   6.619   0.900 -0.6165  0.0368 -0.1367
 5626TIP3    H116842   1.940   6.706   0.928 -0.1127 -0.2507  0.2129
 5626TIP3    H216843   1.932   6.615   0.807  0.4924 -0.2001  0.1339
 5627TIP3   OH216844   0.138   4.297   0.297 -0.3697 -0.5362  0.7422
 5627TIP3    H116845   0.049   4.264   0.288  0.7182 -3.3261 -0.9823
 5627TIP3    H216846   0.184   4.231   0.349  0.6549  1.0125  1.8930
 5628TIP3   OH216847   0.906   4.576   1.988 -0.0572  0.4479 -0.3688
 5628TIP3    H116848   0.847   4.545   2.056 -0.6456 -0.7141 -1.3634
 5628TIP3    H216849   0.857   4.567   1.907  0.9871  0.8058 -1.0683
 5629TIP3   OH216850   4.602   0.178   4.972  0.4426  0.1036 -0.1752
 5629TIP3    H116851   4.595   0.257   4.918  0.5128  0.9687  1.0570
 5629TIP3    H216852   4.511   0.157   4.995  0.4418 -0.0446 -0.3117
 5630TIP3   OH216853   4.847   4.019   5.772  0.1913 -0.4440 -0.4310
 5630TIP3    H116854   4.843   4.101   5.722 -1.5782 -0.3709 -0.2432
 5630TIP3    H216855   4.805   4.040   5.856 -0.5995 -1.6077 -0.5059
 5631TIP3   OH216856   0.622   6.158   1.521  0.0208  0.0896 -0.1671
 5631TIP3    H116857   0.710   6.153   1.558  0.2352  0.8736 -0.5398
 5631TIP3    H216858   0.569   6.200   1.589  0.0856  0.2101 -0.1903
 5632TIP3   OH216859   0.863   2.815   0.179  0.0042 -0.0693 -0.7150
 5632TIP3    H116860   0.770   2.825   0.202 -0.3420  1.4136 -2.4579
 5632TIP3    H216861   0.872   2.723   0.156 -1.2410 -0.1030 -1.1960
 5633TIP3   OH216862   0.983   1.529   5.831 -0.2183 -0.1234  0.3740
 5633TIP3    H116863   1.078   1.536   5.823 -0.2255  0.6998  0.8587
 5633TIP3    H216864   0.962   1.443   5.795  0.4485  0.6041 -1.9832
 5634TIP3   OH216865   7.020   0.149   1.548  0.1611  0.0815 -0.0777
 5634TIP3    H116866   6.997   0.075   1.605 -2.2787 -0.0622 -1.0920
 5634TIP3    H216867   7.033   0.222   1.608  0.5950 -0.7093  0.8282
 5635TIP3   OH216868   1.617   1.641   0.581 -0.3180  0.0859  0.0327
 5635TIP3    H116869   1.703   1.612   0.611  0.1155  0.8789 -0.4119
 5635TIP3    H216870   1.588   1.704   0.648 -1.4025 -1.5431  1.1710
 5636TIP3   OH216871   2.643   3.925   0.476  0.2173 -0.1323  0.1936
 5636TIP3    H116872   2.637   4.018   0.499 -0.2704  0.2259 -1.2808
 5636TIP3    H216873   2.678   3.883   0.555 -1.8830  0.9176  1.8064
 5637TIP3   OH216874   1.792   5.488   1.222 -0.3931  0.3010 -0.3069
 5637TIP3    H116875   1.872   5.520   1.264 -0.5132 -1.4021  1.3404
 5637TIP3    H216876   1.724   5.548   1.252 -0.0379  0.7100 -0.2953
 5638TIP3   OH216877   0.882   5.694   3.593 -0.6012 -0.4225  0.5866
 5638TIP3    H116878   0.864   5.767   3.535 -0.3512 -1.4024 -0.7804
 5638TIP3    H216879   0.802   5.684   3.645 -1.5643 -0.6539 -0.8790
 5639TIP3   OH216880   2.013   3.594   5.920 -0.2632  0.1863  0.5422
 5639TIP3    H116881   2.073   3.566   5.851 -0.3379 -0.8632  0.8756
 5639TIP3    H216882   1.926   3.567   5.888 -0.3799  0.3444  0.7249
 5640TIP3   OH216883   5.970   3.232   4.413 -0.3160  0.2144 -0.8855
 5640TIP3    H116884   6.064   3.226   4.432 -0.3411  1.6881 -0.1049
 5640TIP3    H216885   5.966   3.246   4.319  0.2581  0.3088 -0.9043
 5641TIP3   OH216886   3.595   2.774   3.280  0.4627  0.8857 -0.1558
 5641TIP3    H116887   3.510   2.753   3.319  0.0392  1.6784 -0.6464
 5641TIP3    H216888   3.652   2.703   3.309 -0.5026  0.0355 -0.2904
 5642TIP3   OH216889   3.709   5.394   3.583 -0.0235 -0.3025 -0.2252
 5642TIP3    H116890   3.671   5.353   3.505  1.6627 -0.7085 -0.8848
 5642TIP3    H216891   3.730   5.483   3.556 -0.0338 -0.2453 -0.0446
 5643TIP3   OH216892   0.756   6.403   5.094 -0.2850 -0.0195 -0.2687
 5643TIP3    H116893   0.684   6.410   5.157 -0.0174 -0.6927  0.1247
 5643TIP3    H216894   0.748   6.481   5.040 -0.5121  0.5899  0.6199
 5644TIP3   OH216895   2.100   2.067   3.457  0.1667 -0.1727  0.2572
 5644TIP3    H116896   2.083   2.150   3.501  0.1209  0.4063 -0.8393
 5644TIP3    H216897   2.192   2.071   3.431 -0.2014  0.1525 -1.0594
 5645TIP3   OH216898   6.985   6.784   3.128  0.5993  0.4470  0.4288
 5645TIP3    H116899   7.003   6.861   3.075 -0.2086  1.4072  1.5085
 5645TIP3    H216900   6.950   6.720   3.066 -0.8080  1.7078 -0.1329
 5646TIP3   OH216901   2.410   2.265   0.899  0.4073 -0.0120 -0.0249
 5646TIP3    H116902   2.432   2.275   0.806  0.7274  0.0454  0.0551
 5646TIP3    H216903   2.445   2.180   0.923 -2.5737 -1.5795 -0.7793
 5647TIP3   OH216904   4.028   2.167   0.196 -0.2018 -0.3970 -0.1663
 5647TIP3    H116905   4.086   2.133   0.265  0.5334 -2.0501 -1.5347
 5647TIP3    H216906   4.073   2.245   0.163  0.3652 -0.6581 -0.0189
 5648TIP3   OH216907   1.161   3.907   3.358 -0.3279  0.3777  0.1244
 5648TIP3    H116908   1.110   3.961   3.418 -1.1492  0.1598 -0.3532
 5648TIP3    H216909   1.197   3.837   3.412 -1.7123 -0.2724  0.2531
 5649TIP3   OH216910   0.560   0.203   0.220 -0.5847  0.2156  0.3145
 5649TIP3    H116911   0.518   0.276   0.266  0.0346  0.6375  0.2151
 5649TIP3    H216912   0.580   0.238   0.133  0.9358  0.3738  0.6987
 5650TIP3   OH216913   0.668   1.975   0.807  0.1570 -0.1862  0.0424
 5650TIP3    H116914   0.703   1.970   0.896 -1.4205  0.9488  0.7616
 5650TIP3    H216915   0.710   2.052   0.769  0.0880 -0.1063  0.1297
 5651TIP3   OH216916   0.928   2.443   1.480 -0.0754  0.1604 -0.6079
 5651TIP3    H116917   0.959   2.450   1.571 -0.0408  0.6735 -0.6583
 5651TIP3    H216918   1.005   2.463   1.427  0.4105 -1.9732 -0.7994
 5652TIP3   OH216919   0.854   3.251   3.217  0.6963  0.4370 -0.2621
 5652TIP3    H116920   0.798   3.199   3.160  0.4558  0.2102  0.1806
 5652TIP3    H216921   0.934   3.199   3.228  0.6346  0.3616 -0.1753
 5653TIP3   OH216922   3.430   4.717   0.327 -0.9444 -0.5347 -0.0784
 5653TIP3    H116923   3.409   4.676   0.243 -1.5216 -1.2078  0.3822
 5653TIP3    H216924   3.505   4.667   0.360 -0.2824  0.1582 -0.4853
 5654TIP3   OH216925   1.531   6.053   1.811  0.3082 -0.3314 -0.6443
 5654TIP3    H116926   1.525   6.081   1.902  1.8326 -1.4467 -0.1636
 5654TIP3    H216927   1.604   6.103   1.776  0.0267 -0.2556 -1.1288
 5655TIP3   OH216928   6.581   1.034   3.588 -0.4608  0.2718 -0.1074
 5655TIP3    H116929   6.502   0.996   3.628 -0.5415 -0.1591 -0.6573
 5655TIP3    H216930   6.584   0.995   3.501  1.1348 -0.8009  0.3930
 5656TIP3   OH216931   7.092   4.221   0.264  0.1967 -0.0817 -0.2893
 5656TIP3    H116932   7.053   4.188   0.345  0.6416  0.1674  0.0365
 5656TIP3    H216933   7.048   4.173   0.194 -0.9876  0.4873  0.0405
 5657TIP3   OH216934   4.176   3.989   2.639  0.4394 -0.2013  0.0630
 5657TIP3    H116935   4.227   3.952   2.711 -0.2708 -1.1846  0.0709
 5657TIP3    H216936   4.185   3.926   2.568 -0.3587 -0.1338 -0.1027
 5658TIP3   OH216937   1.922   3.339   4.726  0.4615 -0.0293 -0.1164
 5658TIP3    H116938   1.867   3.324   4.803 -1.5035  2.3734 -0.9657
 5658TIP3    H216939   2.009   3.310   4.754 -0.2621  0.3509  2.8631
 5659TIP3   OH216940   6.556   4.475   0.522  0.0764 -0.8696 -0.4209
 5659TIP3    H116941   6.640   4.467   0.477  0.3805 -0.8115  0.1253
 5659TIP3    H216942   6.504   4.402   0.488  0.9152 -1.8992  0.4207
 5660TIP3   OH216943   6.138   2.596   3.462  0.4748  0.3218 -0.7166
 5660TIP3    H116944   6.135   2.506   3.494  0.4601  0.3403 -0.6650
 5660TIP3    H216945   6.166   2.588   3.371 -0.4929  0.1915 -1.0125
 5661TIP3   OH216946   1.553   1.093   5.727 -0.5147  0.6964 -0.3593
 5661TIP3    H116947   1.508   1.123   5.807  0.8702 -2.8702  2.0294
 5661TIP3    H216948   1.642   1.130   5.735  0.2306 -1.2126  0.9320
 5662TIP3   OH216949   5.826   5.553   4.865 -0.1126 -0.9656  0.2715
 5662TIP3    H116950   5.874   5.493   4.922  0.6924 -2.1390 -1.5382
 5662TIP3    H216951   5.878   5.555   4.784 -1.8876 -0.4101 -0.9077
 5663TIP3   OH216952   5.276   0.971   4.525 -0.1174 -0.2088 -0.2498
 5663TIP3    H116953   5.201   0.952   4.582  0.1447  1.8059  0.8821
 5663TIP3    H216954   5.352   0.953   4.580  0.1483  1.1526 -0.1367
 5664TIP3   OH216955   2.107   5.914   2.700 -0.3987  0.2362 -0.5193
 5664TIP3    H116956   2.097   5.874   2.614  0.0112  0.4533 -0.6674
 5664TIP3    H216957   2.126   5.841   2.759 -0.7722  0.0762 -0.5939
 5665TIP3   OH216958   7.148   5.544   3.980  0.8571 -0.0804 -0.0208
 5665TIP3    H116959   7.199   5.557   3.900  0.5480  0.8328 -0.0925
 5665TIP3    H216960   7.132   5.450   3.984  2.5577 -0.3898  0.0231
 5666TIP3   OH216961   1.343   6.643   5.282 -0.2223 -0.0026 -0.6645
 5666TIP3    H116962   1.342   6.728   5.327 -1.4167 -0.1365 -0.4206
 5666TIP3    H216963   1.264   6.598   5.312 -0.0201 -0.8835 -1.4015
 5667TIP3   OH216964   4.865   5.976   1.745 -0.2318 -0.4485 -0.3447
 5667TIP3    H116965   4.815   5.942   1.818  0.1421  0.6457  0.4540
 5667TIP3    H216966   4.800   6.016   1.687 -0.8492 -3.4661 -1.9600
 5668TIP3   OH216967   5.774   2.920   1.655  0.2236 -0.1015 -0.4791
 5668TIP3    H116968   5.861   2.899   1.690  0.7227  1.9777 -0.3412
 5668TIP3    H216969   5.786   2.919   1.560  0.1867 -0.6426 -0.4787
 5669TIP3   OH216970   0.225   1.740   2.314  0.2371 -0.2227  0.0138
 5669TIP3    H116971   0.310   1.784   2.318 -0.2633  0.8907 -0.8644
 5669TIP3    H216972   0.237   1.673   2.247  0.6774 -0.6727  0.5351
 5670TIP3   OH216973   4.323   0.141   3.860  0.0948  0.4077  0.0720
 5670TIP3    H116974   4.332   0.147   3.955  1.5531 -0.2606 -0.0065
 5670TIP3    H216975   4.394   0.194   3.825  0.0328  0.0318 -0.6452
 5671TIP3   OH216976   1.426   1.726   1.206  0.3135 -0.0391  0.1829
 5671TIP3    H116977   1.369   1.796   1.173 -2.1592 -0.7593  2.5263
 5671TIP3    H216978   1.501   1.771   1.243 -0.4643  1.2791  0.2253
 5672TIP3   OH216979   1.182   5.584   1.610 -0.2587 -0.3996  0.0514
 5672TIP3    H116980   1.127   5.661   1.626 -1.4742 -0.9341 -1.3451
 5672TIP3    H216981   1.125   5.509   1.624  0.8549 -1.0734  1.1709
 5673TIP3   OH216982   5.402   6.607   1.550  0.0791  0.0715  0.2623
 5673TIP3    H116983   5.439   6.592   1.637 -1.0660 -0.7870  0.6278
 5673TIP3    H216984   5.309   6.621   1.565 -0.3552 -1.2966 -0.9222
 5674TIP3   OH216985   0.649   4.119   0.050 -0.3898 -0.0534 -0.1409
 5674TIP3    H116986   0.576   4.162   0.006 -1.2469  0.3398  1.5711
 5674TIP3    H216987   0.614   4.036   0.080 -0.1506  0.1337  0.6894
 5675TIP3   OH216988   6.203   6.230   3.065  0.1220  0.0510 -0.6865
 5675TIP3    H116989   6.229   6.141   3.042  0.1911  0.0798 -0.7193
 5675TIP3    H216990   6.111   6.222   3.092  0.9715 -0.5685  2.3957
 5676TIP3   OH216991   4.367   2.173   4.953 -0.2399 -0.1429  0.0834
 5676TIP3    H116992   4.447   2.197   5.001 -0.6090  0.7559  0.2617
 5676TIP3    H216993   4.341   2.089   4.992 -0.3295  0.3911  1.2116
 5677TIP3   OH216994   1.699   3.299   2.812 -0.0254 -0.2694 -0.7052
 5677TIP3    H116995   1.703   3.284   2.717  0.1679  0.1594 -0.7666
 5677TIP3    H216996   1.644   3.228   2.845 -1.1037  0.2623 -1.2972
 5678TIP3   OH216997   5.487   2.448   4.915 -0.2475 -0.2822 -0.0263
 5678TIP3    H116998   5.416   2.390   4.887 -1.1857  0.5410  0.5877
 5678TIP3    H216999   5.565   2.393   4.914 -0.6179 -0.8503 -2.0800
 5679TIP3   OH217000   7.182   3.789   3.018  0.4927 -0.1820 -0.0291
 5679TIP3    H117001   7.240   3.715   3.001 -0.0024 -0.4368 -0.6675
 5679TIP3    H217002   7.204   3.852   2.949 -0.4054 -0.5424 -0.6699
 5680TIP3   OH217003   2.459   4.745   0.948  0.1219 -0.3984  0.5309
 5680TIP3    H117004   2.455   4.716   0.857 -1.2498  0.5304  0.2758
 5680TIP3    H217005   2.376   4.716   0.987  0.1113  0.3866  1.1175
 5681TIP3   OH217006   6.858   2.737   0.166  0.4626 -0.6906 -0.7630
 5681TIP3    H117007   6.803   2.776   0.098 -1.6750 -0.9129  0.7484
 5681TIP3    H217008   6.799   2.681   0.216  2.1256 -1.1210  0.8288
 5682TIP3   OH217009   3.274   3.508   2.203 -0.1287  0.1934 -0.3637
 5682TIP3    H117010   3.265   3.420   2.169 -1.8284 -0.0111  0.5112
 5682TIP3    H217011   3.337   3.500   2.274 -0.3912 -0.3500 -0.1888
 5683TIP3   OH217012   5.811   4.186   1.229  0.3110 -0.2572  0.4890
 5683TIP3    H117013   5.890   4.209   1.278 -0.5107  3.3820  0.4312
 5683TIP3    H217014   5.803   4.256   1.164 -1.9469 -1.5824 -0.7797
 5684TIP3   OH217015   0.119   6.451   3.263 -0.2334 -0.0917 -0.0900
 5684TIP3    H117016   0.059   6.489   3.327  0.0118  0.4645 -0.1894
 5684TIP3    H217017   0.063   6.396   3.207 -0.5689  0.0407  0.1141
 5685TIP3   OH217018   1.339   4.480   3.979  0.0422 -0.2798 -0.1776
 5685TIP3    H117019   1.295   4.467   3.895 -1.2957 -0.1760  0.4830
 5685TIP3    H217020   1.270   4.512   4.038  1.0741  0.1825  0.8195
 5686TIP3   OH217021   0.231   4.503   1.394 -0.1374 -0.3532  0.0599
 5686TIP3    H117022   0.280   4.571   1.349 -1.7255  1.1559  0.5321
 5686TIP3    H217023   0.164   4.476   1.332 -0.7398 -0.0775  0.5862
 5687TIP3   OH217024   5.606   1.434   1.642  0.4574  0.3082 -0.5214
 5687TIP3    H117025   5.517   1.413   1.670  0.7707  0.7693  0.8748
 5687TIP3    H217026   5.607   1.529   1.634  0.8472  0.3082 -0.4768
 5688TIP3   OH217027   0.176   6.605   3.035 -0.0315  0.6260 -0.0966
 5688TIP3    H117028   0.158   6.557   3.116 -0.3248  0.2047 -0.4053
 5688TIP3    H217029   0.190   6.695   3.063  2.7187  0.0307  0.7714
 5689TIP3   OH217030   3.018   1.280   4.390 -0.2733  0.5492  0.2459
 5689TIP3    H117031   3.084   1.212   4.374 -1.8648 -0.9222 -0.4126
 5689TIP3    H217032   3.024   1.337   4.313 -1.5379 -1.1405 -1.1974
 5690TIP3   OH217033   3.682   3.216   1.796  0.1205 -0.3554  0.3841
 5690TIP3    H117034   3.747   3.245   1.859  1.0817 -2.1128  0.2552
 5690TIP3    H217035   3.728   3.213   1.712 -0.9026  1.0775 -0.2719
 5691TIP3   OH217036   4.472   2.753   0.221  0.0277  0.0164  0.1251
 5691TIP3    H117037   4.546   2.804   0.254  0.0220 -0.2395  0.5405
 5691TIP3    H217038   4.509   2.667   0.203  0.1287  0.2804 -0.9621
 5692TIP3   OH217039   0.164   2.353   2.904 -0.2768 -0.0752  0.4539
 5692TIP3    H117040   0.160   2.427   2.843  1.6508  1.1160  1.6691
 5692TIP3    H217041   0.084   2.304   2.887 -0.5820  1.0906 -1.8964
 5693TIP3   OH217042   2.305   5.958   3.479 -0.3242  0.7425 -0.6299
 5693TIP3    H117043   2.356   6.032   3.512  1.0489  0.3294 -1.7470
 5693TIP3    H217044   2.218   5.995   3.463 -0.4536  1.4444  1.3817
 5694TIP3   OH217045   4.433   2.531   3.417  0.6529 -0.5191 -0.1836
 5694TIP3    H117046   4.351   2.556   3.374  0.8061 -0.8031 -0.6615
 5694TIP3    H217047   4.426   2.564   3.506  0.1701 -0.2287 -0.3298
 5695TIP3   OH217048   1.877   5.002   0.071 -0.1345  0.0337 -0.1439
 5695TIP3    H117049   1.879   5.090   0.031  0.4471  0.1149  0.0524
 5695TIP3    H217050   1.946   4.954   0.026  0.9763  0.3216  1.1853
 5696TIP3   OH217051   3.177   3.350   1.327  0.1816  0.0716  0.1357
 5696TIP3    H117052   3.194   3.288   1.398  0.3585 -0.6837 -0.5408
 5696TIP3    H217053   3.192   3.436   1.365 -0.3191 -0.2863  1.1748
 5697TIP3   OH217054   6.258   3.169   5.208 -0.7106 -0.2464  0.3516
 5697TIP3    H117055   6.323   3.107   5.176 -2.0759 -2.2162  1.1881
 5697TIP3    H217056   6.194   3.175   5.137 -0.2223  0.8126 -0.0181
 5698TIP3   OH217057   0.101   0.091   5.648 -0.3271 -0.0061  0.2426
 5698TIP3    H117058   0.091   0.007   5.692 -0.5338  0.6536  1.4862
 5698TIP3    H217059   0.012   0.124   5.639 -0.0989  1.2384  2.1099
 5699TIP3   OH217060   0.916   3.805   1.416 -0.4098 -0.2178 -0.1313
 5699TIP3    H117061   0.881   3.814   1.505  1.0106 -1.2117  0.5592
 5699TIP3    H217062   0.858   3.742   1.374 -1.4987  0.7580 -0.1709
 5700TIP3   OH217063   1.334   2.706   4.038 -0.4991 -0.0331  0.1578
 5700TIP3    H117064   1.411   2.649   4.043 -0.5764 -0.1817 -0.3598
 5700TIP3    H217065   1.261   2.647   4.024 -1.1151 -0.1825  3.2802
 5701TIP3   OH217066   0.649   5.876   2.951 -0.5698 -0.0173 -0.1399
 5701TIP3    H117067   0.686   5.856   3.038 -1.5377 -0.7246  0.1380
 5701TIP3    H217068   0.622   5.967   2.957  0.6247  0.3537 -0.1736
 5702TIP3   OH217069   3.125   4.443   1.636  0.2800 -0.0711  0.4983
 5702TIP3    H117070   3.209   4.398   1.646  0.6350  0.7225  1.2087
 5702TIP3    H217071   3.123   4.505   1.709 -1.4412 -0.8797  1.1744
 5703TIP3   OH217072   4.648   5.949   3.560 -0.8305  0.0988 -0.3305
 5703TIP3    H117073   4.636   5.928   3.652 -0.5671  0.6859 -0.1599
 5703TIP3    H217074   4.567   5.994   3.534 -0.2736  1.3581  0.0378
 5704TIP3   OH217075   1.552   5.168   5.007  0.0566 -0.4145 -0.0603
 5704TIP3    H117076   1.608   5.090   5.005 -0.2799 -0.6670  0.2855
 5704TIP3    H217077   1.498   5.160   4.928 -0.2520 -0.7424  0.1773
 5705TIP3   OH217078   2.018   3.977   0.443  0.0781  0.0793 -0.6699
 5705TIP3    H117079   2.096   3.937   0.482 -0.5587 -0.0496  0.5072
 5705TIP3    H217080   1.949   3.911   0.453 -0.1007  0.0063 -2.1188
 5706TIP3   OH217081   5.494   5.463   1.480 -0.4888  0.0765  0.1919
 5706TIP3    H117082   5.409   5.490   1.514 -0.4512 -1.7029  1.8777
 5706TIP3    H217083   5.558   5.504   1.539 -0.2949 -0.6210  0.4779
 5707TIP3   OH217084   4.151   6.519   1.167  0.3050 -0.2650 -0.0807
 5707TIP3    H117085   4.125   6.611   1.175  0.6357 -0.2811  1.4567
 5707TIP3    H217086   4.097   6.473   1.231 -0.1564 -1.2152 -1.1384
 5708TIP3   OH217087   7.026   6.715   2.176  0.0254 -0.0584 -0.1482
 5708TIP3    H117088   6.933   6.703   2.156 -0.5055 -0.6332  2.3180
 5708TIP3    H217089   7.059   6.626   2.191  0.6344  0.2447  0.3341
 5709TIP3   OH217090   5.753   2.725   4.825  0.4044  0.1487  0.8383
 5709TIP3    H117091   5.667   2.701   4.790 -0.7023  1.1897  2.6791
 5709TIP3    H217092   5.756   2.684   4.912  2.5141 -1.2838  0.1747
 5710TIP3   OH217093   4.230   2.176   1.629 -0.1385 -0.2634 -0.3237
 5710TIP3    H117094   4.159   2.232   1.660 -0.2270 -0.2938 -0.4701
 5710TIP3    H217095   4.248   2.117   1.703  0.9981  0.9426  0.4050
 5711TIP3   OH217096   2.420   3.600   1.758 -0.5501 -0.1752 -0.1646
 5711TIP3    H117097   2.409   3.665   1.688 -2.0300  0.5540  0.7075
 5711TIP3    H217098   2.466   3.647   1.828 -2.2844  0.2110  0.7662
 5712TIP3   OH217099   1.625   3.692   5.866  0.1603  0.7107  0.3888
 5712TIP3    H117100   1.538   3.687   5.906  0.0851  0.4294  0.1919
 5712TIP3    H217101   1.648   3.785   5.872 -0.2951  0.8461  0.1461
 5713TIP3   OH217102   2.794   1.952   3.939 -0.9229 -0.3847 -0.3848
 5713TIP3    H117103   2.752   1.942   3.853  0.3938  0.5880 -1.1835
 5713TIP3    H217104   2.721   1.952   4.001 -1.8265 -2.1525 -1.3844
 5714TIP3   OH217105   2.340   6.117   4.591  0.0992 -0.7471 -0.4379
 5714TIP3    H117106   2.283   6.138   4.516 -1.7509 -4.3306 -0.2227
 5714TIP3    H217107   2.400   6.051   4.557 -0.5027 -2.1303  1.0734
 5715TIP3   OH217108   6.434   2.257   2.668  0.3055 -0.4766 -0.0405
 5715TIP3    H117109   6.380   2.183   2.640 -1.0122  0.7147 -0.8625
 5715TIP3    H217110   6.430   2.318   2.594  2.5731 -0.1934  0.0025
 5716TIP3   OH217111   2.231   1.428   0.555 -0.4121  0.1134 -0.3230
 5716TIP3    H117112   2.148   1.399   0.517  0.0535 -0.0862 -1.2161
 5716TIP3    H217113   2.215   1.431   0.649 -1.5540  0.4779 -0.5203
 5717TIP3   OH217114   5.914   1.118   1.312 -0.1779 -0.5158 -0.2422
 5717TIP3    H117115   5.989   1.174   1.293  0.1904 -0.5524  1.0364
 5717TIP3    H217116   5.847   1.145   1.249  1.1441 -1.0161 -1.9361
 5718TIP3   OH217117   1.446   1.964   3.150  0.1210  0.2602 -0.1968
 5718TIP3    H117118   1.458   1.879   3.107 -1.0695  0.3685 -0.7799
 5718TIP3    H217119   1.429   1.943   3.241  0.0436 -0.1152 -0.2968
 5719TIP3   OH217120   2.651   6.310   3.774 -0.7774  0.4254 -0.2626
 5719TIP3    H117121   2.680   6.336   3.687 -0.0313 -1.1552 -0.5377
 5719TIP3    H217122   2.566   6.267   3.759 -1.3350  1.4199 -0.0054
 5720TIP3   OH217123   0.411   5.300   1.696 -0.3530 -0.2888  0.3217
 5720TIP3    H117124   0.350   5.299   1.622 -0.1672 -0.1566  0.1643
 5720TIP3    H217125   0.367   5.251   1.765 -0.7398  0.0040  0.2877
 5721TIP3   OH217126   2.887   5.052   5.114  0.4419  0.5346 -0.5336
 5721TIP3    H117127   2.914   5.139   5.144 -0.3998  0.7393 -0.3240
 5721TIP3    H217128   2.894   4.996   5.191  0.4912  0.5320 -0.5400
 5722TIP3   OH217129   2.567   4.773   5.324  0.0720 -0.1816 -0.2316
 5722TIP3    H117130   2.586   4.783   5.231  1.6558  2.1209  0.2569
 5722TIP3    H217131   2.522   4.689   5.330  0.9179 -0.9397 -2.9215
 5723TIP3   OH217132   6.082   4.845   2.331  0.2064 -0.2811  0.0156
 5723TIP3    H117133   6.049   4.886   2.411  0.9112  1.0739 -0.3614
 5723TIP3    H217134   6.003   4.813   2.286 -0.2571 -0.3553  0.8690
 5724TIP3   OH217135   2.978   0.210   4.554 -0.1418 -0.0081 -0.3665
 5724TIP3    H117136   3.023   0.180   4.475 -0.1923 -1.3107  0.0738
 5724TIP3    H217137   3.039   0.190   4.625 -0.2553  0.8019 -0.0366
 5725TIP3   OH217138   6.473   1.285   1.116  0.3229 -0.0184 -0.0717
 5725TIP3    H117139   6.479   1.221   1.188  1.4384  2.7063  2.5102
 5725TIP3    H217140   6.558   1.330   1.118 -0.4730  1.6658 -1.6338
 5726TIP3   OH217141   1.054   5.309   1.305 -0.3405  0.4238 -0.5018
 5726TIP3    H117142   0.964   5.278   1.292 -0.3030 -0.0099  0.2243
 5726TIP3    H217143   1.059   5.327   1.399 -0.1181  1.8806 -0.7693
 5727TIP3   OH217144   4.500   0.250   3.689 -0.1219  0.2615  0.1450
 5727TIP3    H117145   4.532   0.198   3.616 -0.2025 -0.7449  0.8028
 5727TIP3    H217146   4.507   0.341   3.659 -0.6597 -0.1477 -1.2950
 5728TIP3   OH217147   3.351   0.965   4.211 -0.2028  0.1588  0.4971
 5728TIP3    H117148   3.358   0.995   4.120 -0.7736  0.5754  0.5839
 5728TIP3    H217149   3.292   1.029   4.253  0.4691  0.2786  1.2912
 5729TIP3   OH217150   3.684   1.988   4.897  0.3125 -0.0507  0.0022
 5729TIP3    H117151   3.713   1.971   4.986 -0.3636 -0.9355  0.0633
 5729TIP3    H217152   3.671   2.083   4.893 -1.1897 -0.1570  1.3373
 5730TIP3   OH217153   5.956   5.631   5.452 -0.1601 -0.3557  0.2156
 5730TIP3    H117154   6.028   5.574   5.423  0.0549  0.5773 -1.1615
 5730TIP3    H217155   5.955   5.702   5.388 -0.5878  1.0719  1.7505
 5731TIP3   OH217156   2.750   2.015   3.634 -0.3650  0.3597 -0.7835
 5731TIP3    H117157   2.655   2.018   3.630 -0.5590 -2.3394 -0.5096
 5731TIP3    H217158   2.775   1.963   3.558  0.7418 -0.2442 -0.0385
 5732TIP3   OH217159   3.084   6.535   2.837 -0.4698 -0.1416 -0.1517
 5732TIP3    H117160   3.173   6.530   2.804  0.4819  2.9167  1.5930
 5732TIP3    H217161   3.038   6.590   2.775 -0.6213 -0.1425 -0.0409
 5733TIP3   OH217162   3.699   1.835   4.364  0.3587  0.0410  0.3467
 5733TIP3    H117163   3.755   1.800   4.433  0.4190 -0.3698  0.0960
 5733TIP3    H217164   3.614   1.792   4.377  0.8317 -1.3477 -0.8325
 5734TIP3   OH217165   6.005   4.830   2.962  0.4892 -0.0190 -0.7436
 5734TIP3    H117166   6.094   4.798   2.977 -0.2599 -0.9996  2.1252
 5734TIP3    H217167   5.953   4.750   2.949 -0.5507  0.2623  1.3505
 5735TIP3   OH217168   3.316   1.429   3.814  0.1861  1.0813 -0.1264
 5735TIP3    H117169   3.260   1.506   3.811 -0.2702  0.7388 -2.7418
 5735TIP3    H217170   3.342   1.414   3.723  2.1472 -0.5102  0.6103
 5736TIP3   OH217171   3.946   0.853   4.556 -0.4531  0.0607  0.3976
 5736TIP3    H117172   3.916   0.918   4.492  0.2617 -0.3734 -0.3898
 5736TIP3    H217173   3.865   0.818   4.595 -0.9672 -0.6745 -1.2694
 5737TIP3   OH217174   4.793   0.494   5.031 -0.1315 -0.2345  0.0719
 5737TIP3    H117175   4.772   0.448   4.950  1.5664  1.0141 -1.1403
 5737TIP3    H217176   4.816   0.425   5.093 -0.9037 -1.1773 -0.6594
 5738TIP3   OH217177   0.765   6.206   2.306  0.0329 -0.1105 -0.0737
 5738TIP3    H117178   0.722   6.121   2.296  1.5306 -0.9792  0.5700
 5738TIP3    H217179   0.815   6.198   2.387  1.7771  0.6535 -1.0189
 5739TIP3   OH217180   2.051   1.811   2.879 -0.3001 -0.0163  0.1373
 5739TIP3    H117181   2.130   1.866   2.875  1.0205 -1.8013  0.5249
 5739TIP3    H217182   2.052   1.774   2.967  0.2873 -2.6190 -0.8666
 5740TIP3   OH217183   5.624   0.288   5.169 -0.0053 -0.5528  0.7221
 5740TIP3    H117184   5.558   0.224   5.142 -1.1040  0.9773 -0.3612
 5740TIP3    H217185   5.650   0.332   5.088  1.0831  0.0601  1.3806
 5741TIP3   OH217186   0.453   6.662   4.440  0.5229 -0.0980  0.4969
 5741TIP3    H117187   0.461   6.757   4.447  1.2453 -0.1245  0.1878
 5741TIP3    H217188   0.507   6.640   4.363  1.5337 -0.9023  1.4048
 5742TIP3   OH217189   6.818   5.194   3.790 -0.8108  0.1149 -0.2044
 5742TIP3    H117190   6.760   5.253   3.838 -0.2397  0.7858 -0.3271
 5742TIP3    H217191   6.874   5.155   3.858  0.0045  1.0723 -0.3060
 5743TIP3   OH217192   6.816   2.870   5.306 -0.2135  0.0988  0.1663
 5743TIP3    H117193   6.893   2.830   5.266  1.3074  1.6756  1.3318
 5743TIP3    H217194   6.752   2.800   5.311  0.7878 -1.0442 -1.6883
 5744TIP3   OH217195   6.842   1.005   5.093  0.1980  0.2003  0.2929
 5744TIP3    H117196   6.769   1.046   5.048  0.5039  1.6940  1.0927
 5744TIP3    H217197   6.909   1.073   5.098  2.2178 -1.4754 -1.5514
 5745TIP3   OH217198   0.686   3.269   2.997  0.0594  0.5049  0.1659
 5745TIP3    H117199   0.719   3.340   2.942  1.5232  1.0380  1.6368
 5745TIP3    H217200   0.674   3.196   2.937 -0.8289  1.7815 -1.2698
 5746TIP3   OH217201   4.138   3.950   5.663  0.1487  0.0749  0.0534
 5746TIP3    H117202   4.226   3.945   5.627 -1.0126 -1.1532 -2.9332
 5746TIP3    H217203   4.117   3.860   5.688 -0.6997  0.1070 -0.4952
 5747TIP3   OH217204   1.786   2.986   4.537 -0.3879  0.0400  0.1197
 5747TIP3    H117205   1.727   3.051   4.500  1.4908  1.6103 -0.2331
 5747TIP3    H217206   1.760   2.979   4.629 -2.7800 -1.2875 -0.5571
 5748TIP3   OH217207   0.130   2.375   3.931 -0.1766 -0.0833  0.0464
 5748TIP3    H117208   0.143   2.456   3.880 -1.4136 -0.7925 -1.4714
 5748TIP3    H217209   0.133   2.404   4.022 -1.3390  1.8127 -0.4655
 5749TIP3   OH217210   2.810   0.039   4.133 -0.2364 -1.1429  0.3209
 5749TIP3    H117211   2.886   0.075   4.087  0.3962 -2.2143  0.5097
 5749TIP3    H217212   2.809  -0.053   4.109  0.3021 -1.8172  2.6770
 5750TIP3   OH217213   1.033   0.294   5.768  0.3030 -0.0718  0.4331
 5750TIP3    H117214   1.023   0.222   5.705  0.7057  0.2366  0.0088
 5750TIP3    H217215   1.127   0.313   5.769  0.1328  0.8354  0.0954
 5751TIP3   OH217216   1.191   0.796   3.508  0.2013  0.4563  0.2683
 5751TIP3    H117217   1.250   0.830   3.440  0.8597 -0.3336  0.4370
 5751TIP3    H217218   1.106   0.835   3.487  0.1929 -0.4445 -1.5328
 5752TIP3   OH217219   4.404   0.563   1.922  0.0402  0.3552 -0.1043
 5752TIP3    H117220   4.356   0.612   1.855  0.9710 -0.9216 -1.8158
 5752TIP3    H217221   4.467   0.512   1.872  0.5758 -0.9028  1.7673
 5753TIP3   OH217222   3.263   4.765   3.326 -0.1593  0.1464 -0.1198
 5753TIP3    H117223   3.248   4.674   3.351 -0.0997  0.3542  0.7105
 5753TIP3    H217224   3.234   4.816   3.402 -0.2875  0.8255 -0.6119
 5754TIP3   OH217225   4.064   5.954   1.723  0.8289 -0.5410  0.3750
 5754TIP3    H117226   4.006   5.931   1.651  3.1699 -1.1866 -1.4255
 5754TIP3    H217227   4.060   6.050   1.728  1.6542 -0.3556 -1.6139
 5755TIP3   OH217228   7.179   1.995   0.532 -0.1522 -0.5368 -0.9356
 5755TIP3    H117229   7.207   2.051   0.605 -0.1093  0.5372 -1.7383
 5755TIP3    H217230   7.230   2.027   0.458 -0.4449 -1.3805 -1.5070
 5756TIP3   OH217231   0.484   3.306   5.259  0.2996 -0.6273  0.1092
 5756TIP3    H117232   0.576   3.321   5.234  0.5363 -0.5211  1.0259
 5756TIP3    H217233   0.475   3.347   5.344 -0.7759 -0.0991 -0.2424
 5757TIP3   OH217234   2.327   4.736   2.792  0.1208  0.5059 -0.4250
 5757TIP3    H117235   2.405   4.749   2.739 -0.1181  0.3328 -0.8212
 5757TIP3    H217236   2.311   4.822   2.832 -0.7118  1.1502 -2.0407
 5758TIP3   OH217237   3.822   1.215   5.896 -0.3127  0.2166  0.4517
 5758TIP3    H117238   3.829   1.233   5.802 -1.1147  1.0121  0.5402
 5758TIP3    H217239   3.802   1.122   5.901 -1.2812  0.3780 -0.2113
 5759TIP3   OH217240   3.682   4.635   1.240 -0.6559  0.0200  0.0374
 5759TIP3    H117241   3.705   4.542   1.237 -0.0489  0.1605  0.1818
 5759TIP3    H217242   3.588   4.637   1.224 -1.0068 -0.7639  1.7152
 5760TIP3   OH217243   6.973   1.871   3.474 -0.5499 -0.4217  0.1541
 5760TIP3    H117244   6.921   1.891   3.551  0.7225  0.1709  0.8905
 5760TIP3    H217245   6.914   1.820   3.417 -2.4779  1.6579  0.1705
 5761TIP3   OH217246   0.610   1.314   1.434  0.0237  0.1218 -0.5252
 5761TIP3    H117247   0.593   1.353   1.520 -0.5710 -0.7370 -0.2508
 5761TIP3    H217248   0.526   1.317   1.389  0.0978 -0.3841 -0.6951
 5762TIP3   OH217249   1.146   1.149   3.390  0.5478  0.2751 -0.2391
 5762TIP3    H117250   1.221   1.092   3.371  1.0575  0.9588 -0.2970
 5762TIP3    H217251   1.147   1.160   3.485  1.0943  1.0497 -0.3272
 5763TIP3   OH217252   2.073   3.139   5.098 -0.3100 -0.0568 -0.7621
 5763TIP3    H117253   2.048   3.066   5.154  0.5608  0.5732  0.4898
 5763TIP3    H217254   2.090   3.100   5.013  1.0065 -1.4747  0.1066
 5764TIP3   OH217255   6.129  -0.014   2.005 -0.1368  0.1379 -0.2740
 5764TIP3    H117256   6.039   0.017   1.992 -0.6453 -1.5624 -1.1579
 5764TIP3    H217257   6.176   0.019   1.928 -0.4110 -0.2959 -0.6396
 5765TIP3   OH217258   3.141   6.504   4.458 -0.0422  0.4702  0.5179
 5765TIP3    H117259   3.226   6.470   4.489  1.7099  2.2433 -1.9542
 5765TIP3    H217260   3.130   6.587   4.505 -0.4139  0.2593  0.8087
 5766TIP3   OH217261   0.773   1.019   5.873 -0.6981 -0.2207  0.3572
 5766TIP3    H117262   0.806   0.959   5.806  0.3495  1.1745 -0.4279
 5766TIP3    H217263   0.703   1.068   5.829 -0.3567  0.3392  0.4260
 5767TIP3   OH217264   5.314   5.906   5.262 -0.1268 -0.0621 -0.0719
 5767TIP3    H117265   5.280   5.980   5.212  0.9221 -0.0775 -0.8280
 5767TIP3    H217266   5.385   5.871   5.209  1.2653  0.1379  1.5929
 5768TIP3   OH217267   0.146   3.816   1.321  0.4268  0.4678 -0.5820
 5768TIP3    H117268   0.094   3.772   1.255 -2.7265  0.4249  1.6844
 5768TIP3    H217269   0.143   3.909   1.296 -2.3417  0.7150  0.3153
 5769TIP3   OH217270   4.749   3.482   5.821 -0.4842  0.5643 -0.5550
 5769TIP3    H117271   4.833   3.496   5.866 -1.2184 -1.0795  1.4912
 5769TIP3    H217272   4.706   3.567   5.824  0.9271  1.3481 -1.3262
 5770TIP3   OH217273   4.401   5.920   2.548  0.0504 -0.2369 -0.5163
 5770TIP3    H117274   4.495   5.940   2.549 -0.0503  0.3785 -1.8187
 5770TIP3    H217275   4.391   5.857   2.477 -0.5811  0.0079 -0.6502
 5771TIP3   OH217276   3.408   5.243   0.357  0.0608 -0.2555  0.8551
 5771TIP3    H117277   3.483   5.190   0.382 -0.6059 -1.0760  1.1797
 5771TIP3    H217278   3.340   5.180   0.333 -0.3152  0.4730 -0.0911
 5772TIP3   OH217279   1.177   2.563   3.426  0.2937 -0.3396 -0.5993
 5772TIP3    H117280   1.120   2.577   3.350 -0.2952 -0.9892 -0.2822
 5772TIP3    H217281   1.127   2.594   3.501 -0.1914 -2.1116 -0.1560
 5773TIP3   OH217282   6.536   6.542   2.101 -0.3940 -0.5037  0.0254
 5773TIP3    H117283   6.596   6.609   2.066  0.7984 -1.8852 -0.6731
 5773TIP3    H217284   6.576   6.515   2.183 -1.2878  0.1519  0.6992
 5774TIP3   OH217285   1.950   2.369   5.472  0.0422 -0.0108 -0.0920
 5774TIP3    H117286   1.905   2.406   5.548  1.3576  1.2709  0.1080
 5774TIP3    H217287   1.900   2.290   5.451 -2.9421  1.8537 -0.5836
 5775TIP3   OH217288   4.549   6.489   4.606 -0.7580 -0.3891  0.1176
 5775TIP3    H117289   4.556   6.562   4.545  0.6760 -1.2967 -0.8480
 5775TIP3    H217290   4.489   6.521   4.674 -0.9444  1.3066 -0.7874
 5776TIP3   OH217291   0.229   6.549   0.723  0.1846 -0.4504 -0.2682
 5776TIP3    H117292   0.146   6.595   0.715  0.4397 -0.2149 -1.7056
 5776TIP3    H217293   0.245   6.546   0.818 -1.9318 -1.4035  0.1104
 5777TIP3   OH217294   1.064   5.930   5.745  0.3763 -0.0599 -0.7013
 5777TIP3    H117295   1.051   5.892   5.658  0.9123 -1.1761 -0.3199
 5777TIP3    H217296   1.071   5.854   5.803 -0.8728  0.6674  0.4617
 5778TIP3   OH217297   2.507   1.588   1.494  0.0901 -0.0662  0.3187
 5778TIP3    H117298   2.474   1.509   1.450  2.3055  0.0671 -1.8095
 5778TIP3    H217299   2.584   1.557   1.543  3.0835  1.0747 -3.2110
 5779TIP3   OH217300   0.527   3.936   0.227 -0.5288  0.4127 -0.0129
 5779TIP3    H117301   0.436   3.965   0.227 -0.3378  1.0243  0.5426
 5779TIP3    H217302   0.526   3.854   0.178 -1.6949 -0.5608  1.5396
 5780TIP3   OH217303   0.557   3.639   2.548  0.2787  0.1868  0.4002
 5780TIP3    H117304   0.584   3.728   2.568  0.2204  0.3443 -0.2064
 5780TIP3    H217305   0.566   3.592   2.631  0.5406  0.6961  0.6646
 5781TIP3   OH217306   3.703   2.801   1.641 -0.0161  0.0307  0.4986
 5781TIP3    H117307   3.623   2.754   1.620 -0.0153 -0.0552  0.6899
 5781TIP3    H217308   3.702   2.877   1.582 -1.2004  1.0843  1.8272
 5782TIP3   OH217309   3.618   6.577   2.828  0.3123  0.2548 -0.2853
 5782TIP3    H117310   3.633   6.483   2.833  0.8026  0.2993 -0.8654
 5782TIP3    H217311   3.662   6.613   2.905 -0.3723 -0.0412  0.2594
 5783TIP3   OH217312   5.631   0.895   3.857 -0.2049  0.7165 -0.2186
 5783TIP3    H117313   5.703   0.858   3.806 -0.4087  0.0771 -0.0578
 5783TIP3    H217314   5.668   0.975   3.896  0.5089  0.2566  0.0854
 5784TIP3   OH217315   5.707   2.059   1.096  0.2819 -0.5170  0.0880
 5784TIP3    H117316   5.800   2.048   1.075  0.2275  1.1441 -1.2355
 5784TIP3    H217317   5.706   2.082   1.189  1.0237 -2.1794  0.5562
 5785TIP3   OH217318   5.273   6.195   4.342 -0.2974 -0.1739  0.7141
 5785TIP3    H117319   5.249   6.113   4.298 -0.8797  0.3538  0.0401
 5785TIP3    H217320   5.324   6.244   4.277  1.5908 -0.7221  1.6932
 5786TIP3   OH217321   6.397   5.562   3.046  0.8278  0.4733  0.5814
 5786TIP3    H117322   6.410   5.496   2.978 -2.6209  0.2773 -0.0727
 5786TIP3    H217323   6.413   5.515   3.128 -2.4961 -1.6642  0.1966
 5787TIP3   OH217324   1.857   6.163   0.812 -0.1072  0.3849  0.5872
 5787TIP3    H117325   1.798   6.230   0.846 -1.4696 -0.1890 -0.5422
 5787TIP3    H217326   1.884   6.113   0.890  0.0850  1.5625  1.2997
 5788TIP3   OH217327   3.290   2.946   0.894  0.6354  0.5019  0.3881
 5788TIP3    H117328   3.320   2.878   0.954  2.2243  0.2808 -0.5770
 5788TIP3    H217329   3.214   2.984   0.937 -0.6553 -2.2071  0.7320
 5789TIP3   OH217330   4.121   3.824   1.860 -0.3251  0.1622 -0.4723
 5789TIP3    H117331   4.181   3.822   1.935 -1.3578  0.4563  0.3803
 5789TIP3    H217332   4.136   3.910   1.819  0.3720 -0.0744 -0.7240
 5790TIP3   OH217333   3.724   6.048   2.110 -0.6034  0.0620  0.2402
 5790TIP3    H117334   3.699   5.958   2.091 -1.6546  0.6454 -1.3927
 5790TIP3    H217335   3.690   6.064   2.198 -0.4608 -1.1025  0.5236
 5791TIP3   OH217336   2.262   4.403   1.580 -0.0015 -0.1565  0.0064
 5791TIP3    H117337   2.222   4.438   1.660  1.2946 -0.4720  0.8225
 5791TIP3    H217338   2.279   4.311   1.600 -0.1110 -0.3643 -0.8213
 5792TIP3   OH217339   7.021   4.618   3.113 -0.3397 -0.2451  0.0937
 5792TIP3    H117340   7.100   4.641   3.162 -1.3720 -0.6788  2.0776
 5792TIP3    H217341   6.949   4.641   3.171 -1.6354 -1.1249 -1.0909
 5793TIP3   OH217342   5.045   1.288   4.668 -0.1029 -0.1024  0.1720
 5793TIP3    H117343   4.983   1.253   4.732  3.1524 -1.5914  2.8578
 5793TIP3    H217344   5.055   1.380   4.692 -0.9126  0.0309  0.0161
 5794TIP3   OH217345   3.938   4.101   0.866  0.2129  0.4830  0.1997
 5794TIP3    H117346   3.843   4.108   0.852  0.0737 -0.1101  0.7694
 5794TIP3    H217347   3.971   4.058   0.787 -0.0940  0.0844  0.2842
 5795TIP3   OH217348   3.524   5.476   4.113  0.3462 -0.4927  0.8351
 5795TIP3    H117349   3.503   5.568   4.129  1.9697 -0.4815  3.4427
 5795TIP3    H217350   3.557   5.475   4.023 -2.4057  0.8928 -0.3045
 5796TIP3   OH217351   1.517   5.571   5.650  0.0855 -0.0880 -0.0334
 5796TIP3    H117352   1.442   5.615   5.690  1.5410  0.4415  2.2985
 5796TIP3    H217353   1.583   5.640   5.642  1.1293 -1.0458  0.1605
 5797TIP3   OH217354   3.732   5.402   0.257 -0.7582  0.1943  0.5505
 5797TIP3    H117355   3.750   5.455   0.180 -1.9485  0.4575  0.4362
 5797TIP3    H217356   3.699   5.319   0.222  0.4076 -0.3782  0.7470
 5798TIP3   OH217357   1.898   2.130   1.599  0.4539 -0.4822 -0.0270
 5798TIP3    H117358   1.833   2.147   1.667 -0.6929 -2.5904 -0.5089
 5798TIP3    H217359   1.855   2.157   1.518  0.9317 -0.1243 -0.1664
 5799TIP3   OH217360   2.677   6.458   4.649 -0.0822 -0.4585 -0.8561
 5799TIP3    H117361   2.661   6.469   4.556  0.7546 -1.4177 -1.1330
 5799TIP3    H217362   2.660   6.365   4.666 -0.8819 -0.1563  0.0916
 5800TIP3   OH217363   0.270   6.339   1.486  0.5078  0.3662 -0.2053
 5800TIP3    H117364   0.265   6.297   1.572  1.0691 -0.7390 -0.6919
 5800TIP3    H217365   0.339   6.405   1.495  0.4439  0.3760  0.2337
 5801TIP3   OH217366   4.587   3.983   4.937  0.7168 -0.3741  0.0469
 5801TIP3    H117367   4.620   4.067   4.967 -1.4570  0.1050  1.3367
 5801TIP3    H217368   4.664   3.936   4.905  2.2143  1.4696  0.8133
 5802TIP3   OH217369   3.285   5.897   2.263 -0.0450 -0.4338 -0.2261
 5802TIP3    H117370   3.191   5.881   2.269 -0.0851 -0.6913 -1.2372
 5802TIP3    H217371   3.297   5.936   2.176  0.6582  0.5781  0.3041
 5803TIP3   OH217372   2.372   6.014   2.659  0.5407 -0.1241 -0.0462
 5803TIP3    H117373   2.280   5.998   2.675  0.9380 -0.0357  2.8152
 5803TIP3    H217374   2.378   6.108   2.642  0.1288 -0.0883  0.0105
 5804TIP3   OH217375   6.601   4.316   5.119 -0.2194  0.1286  0.3821
 5804TIP3    H117376   6.569   4.293   5.032  0.4515  0.1980  0.1103
 5804TIP3    H217377   6.635   4.405   5.108 -0.1950  0.1618  0.7336
 5805TIP3   OH217378   4.021   1.875   4.724  0.3949 -0.4144 -0.2116
 5805TIP3    H117379   3.977   1.828   4.796  0.1546  1.1782  0.7232
 5805TIP3    H217380   4.055   1.955   4.765 -1.4983  1.5618 -2.2490
 5806TIP3   OH217381   5.516   6.576   0.578 -0.7271  0.1402  0.4430
 5806TIP3    H117382   5.579   6.646   0.598 -0.0712 -0.4477  0.4824
 5806TIP3    H217383   5.548   6.501   0.627  0.1123 -0.9465 -1.6179
 5807TIP3   OH217384   1.567   1.601   2.796  0.2734 -0.3706 -0.2469
 5807TIP3    H117385   1.661   1.586   2.811  0.2561  0.3358  0.6641
 5807TIP3    H217386   1.562   1.629   2.704  0.6241 -2.9372 -1.1316
 5808TIP3   OH217387   5.136   2.495   2.334  0.7262  0.5898  0.6062
 5808TIP3    H117388   5.231   2.499   2.336  0.8908 -1.4665 -0.4129
 5808TIP3    H217389   5.116   2.401   2.328 -1.2203  1.0540 -2.5586
 5809TIP3   OH217390   5.969   2.134   0.963 -0.2516 -0.0039  0.0389
 5809TIP3    H117391   5.983   2.225   0.987 -0.5362  0.0521 -0.0089
 5809TIP3    H217392   5.939   2.137   0.872  2.5977 -0.3067 -1.0243
 5810TIP3   OH217393   5.462   5.042   0.631 -0.1042 -0.5800  0.0934
 5810TIP3    H117394   5.417   5.094   0.697 -1.8608  0.0831 -1.5436
 5810TIP3    H217395   5.410   4.962   0.624 -2.2852  0.9042 -3.0388
 5811TIP3   OH217396   2.148   3.480   1.796 -0.7444 -0.1188 -0.3271
 5811TIP3    H117397   2.222   3.521   1.750 -0.5672  0.3414  0.3522
 5811TIP3    H217398   2.071   3.529   1.765 -0.6025  0.3269  0.0060
 5812TIP3   OH217399   3.823   2.301   3.218  0.0953 -0.2240  0.2152
 5812TIP3    H117400   3.787   2.245   3.149 -1.2190  1.4846 -0.5661
 5812TIP3    H217401   3.751   2.313   3.279  1.2105 -1.6179  1.9208
 5813TIP3   OH217402   1.868   2.889   5.763 -0.1126 -0.6121 -0.1201
 5813TIP3    H117403   1.818   2.823   5.715  1.0681 -1.9338  0.4068
 5813TIP3    H217404   1.872   2.856   5.853  1.2969 -0.3255 -0.0520
 5814TIP3   OH217405   3.043   1.945   3.607 -0.4134 -0.5850 -0.2816
 5814TIP3    H117406   2.964   1.946   3.662 -0.2372 -0.5461 -0.0268
 5814TIP3    H217407   3.012   1.970   3.520 -0.2958  1.9124  0.3198
 5815TIP3   OH217408   2.396   0.236   1.405  0.2936  0.3516 -0.5103
 5815TIP3    H117409   2.477   0.242   1.455  0.0998  1.8675 -0.3454
 5815TIP3    H217410   2.422   0.188   1.325  1.4547  1.1586 -0.6517
 5816TIP3   OH217411   1.843   0.046   0.926  0.0862 -0.0343 -0.3271
 5816TIP3    H117412   1.806   0.108   0.864  0.4628  1.5862  1.0139
 5816TIP3    H217413   1.932   0.031   0.893  0.0344  0.2206 -0.5945
 5817TIP3   OH217414   2.021   4.081   1.729  0.0426 -0.5780  0.3981
 5817TIP3    H117415   1.958   4.050   1.665  1.3741  0.2983 -1.4345
 5817TIP3    H217416   2.093   4.019   1.724  0.8931  0.4176 -0.2399
 5818TIP3   OH217417   1.587   0.540   4.153  0.3795 -0.3586 -0.1690
 5818TIP3    H117418   1.653   0.539   4.223  0.5327  0.0564 -0.3033
 5818TIP3    H217419   1.615   0.611   4.095  0.7504 -1.2502 -1.1204
 5819TIP3   OH217420   0.859   3.625   3.868 -0.2936  0.5232 -0.4319
 5819TIP3    H117421   0.817   3.541   3.847 -0.0753  0.5052 -0.8026
 5819TIP3    H217422   0.802   3.664   3.934 -0.1117 -0.1591  0.1455
 5820TIP3   OH217423   3.876   0.586   3.458 -0.4842 -0.2530 -0.4634
 5820TIP3    H117424   3.877   0.554   3.548 -1.1397 -0.2578 -0.4539
 5820TIP3    H217425   3.823   0.522   3.410  0.0904 -0.4016 -0.9149
 5821TIP3   OH217426   6.709   5.553   1.698 -0.3389 -0.1491  0.2622
 5821TIP3    H117427   6.680   5.611   1.628 -0.6132 -0.7212 -0.1067
 5821TIP3    H217428   6.775   5.603   1.745 -0.2055  0.2692 -0.3604
 5822TIP3   OH217429   4.728   4.589   1.164 -0.0335 -0.5520 -0.4934
 5822TIP3    H117430   4.777   4.562   1.241 -1.1673 -0.0894  0.4131
 5822TIP3    H217431   4.740   4.684   1.159 -2.1330 -0.1655  0.7219
 5823TIP3   OH217432   0.566   2.121   0.486 -0.0683 -0.5020 -0.4648
 5823TIP3    H117433   0.592   2.093   0.398  1.8813  2.1534 -0.8507
 5823TIP3    H217434   0.643   2.166   0.521 -1.5835  0.6197  1.6609
 5824TIP3   OH217435   3.572   1.850   3.251 -0.2964  0.3876 -0.2767
 5824TIP3    H117436   3.646   1.906   3.230  0.1206 -0.2549 -0.5594
 5824TIP3    H217437   3.496   1.908   3.245  0.0808  0.8254 -0.9695
 5825TIP3   OH217438   2.235   6.382   4.112 -0.4844 -0.0228  0.1680
 5825TIP3    H117439   2.153   6.405   4.067 -0.7589 -0.0210  0.6561
 5825TIP3    H217440   2.281   6.325   4.051 -1.4322 -1.0696  0.3929
 5826TIP3   OH217441   2.920   2.171   3.766 -0.4764 -0.1945 -0.5490
 5826TIP3    H117442   2.843   2.125   3.732 -0.1353 -1.4318  0.2533
 5826TIP3    H217443   2.890   2.212   3.847 -0.4668 -0.1005 -0.5936
 5827TIP3   OH217444   2.973   5.270   0.137 -0.0306 -0.0783  0.2783
 5827TIP3    H117445   3.019   5.350   0.112  0.0150  0.0933  0.8950
 5827TIP3    H217446   2.952   5.283   0.230 -0.4479 -0.5749  0.2540
 5828TIP3   OH217447   6.627   6.780   3.916 -0.3298 -0.3940  0.1111
 5828TIP3    H117448   6.594   6.706   3.864  1.3709 -0.6636 -0.6384
 5828TIP3    H217449   6.574   6.854   3.886 -1.3315 -1.0843  0.0958
 5829TIP3   OH217450   4.296   6.083   1.339  0.2589 -0.1675 -0.3845
 5829TIP3    H117451   4.338   6.120   1.417  0.9083 -2.9980  0.7293
 5829TIP3    H217452   4.210   6.054   1.370  0.6911 -1.7061 -0.5543
 5830TIP3   OH217453   1.658   2.384   1.542 -0.0101  0.4379  0.3946
 5830TIP3    H117454   1.688   2.452   1.603 -1.2429  0.2342  1.2667
 5830TIP3    H217455   1.607   2.324   1.597 -4.9434  2.5138 -1.3343
 5831TIP3   OH217456   5.234   5.088   3.307 -0.3709 -0.2177 -0.0858
 5831TIP3    H117457   5.239   5.127   3.220  0.1948 -1.7050 -0.7478
 5831TIP3    H217458   5.228   4.994   3.292 -1.7995 -0.4361  1.4577
 5832TIP3   OH217459   6.195   6.682   5.617  0.1815  0.0531  0.5357
 5832TIP3    H117460   6.169   6.698   5.526 -0.0251  1.1160  0.7697
 5832TIP3    H217461   6.241   6.598   5.614 -0.1668 -0.1173 -0.4823
 5833TIP3   OH217462   7.060   0.365   2.660  0.5076 -0.5534  0.3292
 5833TIP3    H117463   7.141   0.375   2.609 -0.0053 -0.5344 -0.5001
 5833TIP3    H217464   7.010   0.444   2.640  0.7427 -0.0104  1.7327
 5834TIP3   OH217465   3.347   4.619   1.420 -0.2340  0.2989 -0.3979
 5834TIP3    H117466   3.258   4.655   1.414 -0.5362 -0.2913  0.3865
 5834TIP3    H217467   3.373   4.605   1.329  0.3703  3.5519 -0.8221
 5835TIP3   OH217468   6.494   5.603   5.356  0.1564  0.2807  0.2418
 5835TIP3    H117469   6.523   5.512   5.354 -0.2229  0.0428  2.4173
 5835TIP3    H217470   6.514   5.632   5.445 -0.7264  1.9759 -0.0734
 5836TIP3   OH217471   5.187   0.338   5.779  0.1673 -0.5667  0.4288
 5836TIP3    H117472   5.216   0.258   5.735 -0.6995 -0.8941  0.4301
 5836TIP3    H217473   5.224   0.330   5.867  2.0648  0.1818 -0.2441
 5837TIP3   OH217474   1.162   1.254   3.009 -0.0234  0.5240  0.2707
 5837TIP3    H117475   1.229   1.278   3.074  0.4739 -0.6371  0.2052
 5837TIP3    H217476   1.121   1.338   2.986 -0.8408  0.9021  2.7463
 5838TIP3   OH217477   3.417   5.804   2.483 -0.1509  0.0587 -1.1594
 5838TIP3    H117478   3.480   5.738   2.453  0.3194  0.2495 -0.5958
 5838TIP3    H217479   3.385   5.844   2.403 -0.6974 -1.0853 -1.5388
 5839TIP3   OH217480   2.420   0.198   4.865  0.1939 -0.0425 -0.1966
 5839TIP3    H117481   2.492   0.149   4.826 -0.9797 -0.7434 -1.5805
 5839TIP3    H217482   2.425   0.284   4.824  2.0737  1.0018  2.0142
 5840TIP3   OH217483   1.901   4.992   2.128 -0.1622  0.1373  0.2281
 5840TIP3    H117484   1.969   5.057   2.147  0.2556  0.7457 -2.9075
 5840TIP3    H217485   1.868   5.015   2.041 -1.7375 -2.4147  0.0304
 5841TIP3   OH217486   7.055   3.647   4.181 -0.5155  0.2742 -0.0148
 5841TIP3    H117487   7.123   3.580   4.173 -0.8346 -0.0911  0.3010
 5841TIP3    H217488   7.103   3.730   4.183 -0.1305  0.0829 -0.7156
 5842TIP3   OH217489   5.438   5.098   4.018  0.0066  0.1761  0.2223
 5842TIP3    H117490   5.523   5.054   4.027  0.5487  0.5577 -2.1810
 5842TIP3    H217491   5.460   5.185   3.985 -1.2071  1.3095  2.2338
 5843TIP3   OH217492   4.724   4.600   3.289  0.1002 -0.3069 -0.1615
 5843TIP3    H117493   4.747   4.577   3.199 -1.6149 -3.2142  0.0502
 5843TIP3    H217494   4.801   4.574   3.341  0.2677 -0.5861 -0.5453
 5844TIP3   OH217495   6.831   6.163   0.135  0.3433 -0.1019 -0.2583
 5844TIP3    H117496   6.786   6.080   0.118  0.0989  0.0355 -0.2971
 5844TIP3    H217497   6.896   6.142   0.202  1.5436 -0.7230 -1.5773
 5845TIP3   OH217498   2.619   4.220   1.514  0.5242 -0.1453  0.3169
 5845TIP3    H117499   2.563   4.225   1.591 -2.6014  1.8715 -1.8118
 5845TIP3    H217500   2.678   4.295   1.522 -0.5631  0.7474  0.2958
 5846TIP3   OH217501   3.459   4.979   2.963  0.1249  0.5280 -0.2521
 5846TIP3    H117502   3.504   4.936   2.891 -0.0378 -0.6333  0.3104
 5846TIP3    H217503   3.514   4.961   3.039 -1.1614 -0.8210  0.4309
 5847TIP3   OH217504   5.782   3.928   1.258  0.1664 -0.1017 -0.0601
 5847TIP3    H117505   5.771   4.018   1.229  2.9459  0.0307 -1.0083
 5847TIP3    H217506   5.868   3.926   1.299  0.2654 -2.3632 -0.2290
 5848TIP3   OH217507   4.646   3.771   3.922 -0.5169  0.1236  0.1016
 5848TIP3    H117508   4.715   3.836   3.935  2.0119 -2.2360 -0.6471
 5848TIP3    H217509   4.612   3.789   3.835  0.9328 -0.1596 -0.5562
 5849TIP3   OH217510   3.093   1.530   0.209 -0.1872 -0.2706 -0.0184
 5849TIP3    H117511   3.043   1.590   0.264  0.6895 -0.4973  1.0581
 5849TIP3    H217512   3.079   1.444   0.249  0.0234 -0.5269 -0.4838
 5850TIP3   OH217513   4.290   0.234   0.295 -0.0065 -0.0061  0.7783
 5850TIP3    H117514   4.284   0.142   0.319 -0.1678  0.0046  0.7775
 5850TIP3    H217515   4.329   0.276   0.372  0.8422 -0.2066  0.4655
 5851TIP3   OH217516   4.820   0.050   5.885  0.2023 -0.1443  0.1639
 5851TIP3    H117517   4.732   0.088   5.885  0.1697 -0.1466 -1.3085
 5851TIP3    H217518   4.872   0.112   5.834  1.3273  0.3868  1.8686
 5852TIP3   OH217519   6.624   6.688   5.110 -0.4928 -0.1232  0.1351
 5852TIP3    H117520   6.709   6.644   5.105 -1.4393 -2.0586  0.1692
 5852TIP3    H217521   6.611   6.726   5.023  1.1346  1.7485  0.6311
 5853TIP3   OH217522   5.150   1.970   0.470  0.1190 -0.4832 -0.3634
 5853TIP3    H117523   5.096   2.003   0.398  0.5528  3.6046  0.9209
 5853TIP3    H217524   5.088   1.950   0.540 -0.0200 -0.5701 -0.5104
 5854TIP3   OH217525   0.576   5.702   4.344  0.2210  0.1986  0.3058
 5854TIP3    H117526   0.538   5.695   4.431 -0.0087 -0.7855  0.1321
 5854TIP3    H217527   0.640   5.773   4.352 -0.2983  0.5935  1.0845
 5855TIP3   OH217528   4.801   5.676   5.543  0.0634 -0.4373  0.1256
 5855TIP3    H117529   4.796   5.759   5.496 -1.3954 -0.6414 -0.1317
 5855TIP3    H217530   4.844   5.698   5.626 -0.2032  0.5540  0.0147
 5856TIP3   OH217531   0.192   2.283   4.380 -0.0685  0.1860  0.3057
 5856TIP3    H117532   0.152   2.312   4.462  1.5451 -2.5967  2.2577
 5856TIP3    H217533   0.134   2.214   4.347 -0.4610  0.9661 -0.7017
 5857TIP3   OH217534   6.964   3.497   5.811 -0.3172 -0.1367 -0.7632
 5857TIP3    H117535   6.944   3.587   5.786  1.0604  0.1238 -1.0176
 5857TIP3    H217536   7.051   3.481   5.775  0.7518 -0.5435  1.7693
 5858TIP3   OH217537   5.493   5.000   2.879 -0.3843  0.1700 -0.5799
 5858TIP3    H117538   5.576   5.041   2.854 -0.1812 -0.4721 -0.9792
 5858TIP3    H217539   5.469   5.042   2.961  0.8763 -0.3862  0.0984
 5859TIP3   OH217540   1.198   6.695   1.973  0.5629  0.2447  0.0441
 5859TIP3    H117541   1.161   6.756   1.909  2.3672 -1.2656 -2.6403
 5859TIP3    H217542   1.292   6.698   1.957  0.8562 -1.8604  1.0987
 5860TIP3   OH217543   3.195   1.311   0.668 -0.1666 -0.4137  0.0928
 5860TIP3    H117544   3.260   1.375   0.640  0.4798 -0.5512  1.2320
 5860TIP3    H217545   3.242   1.227   0.668 -0.5843 -0.6542  0.0923
 5861TIP3   OH217546   5.171   4.744   0.172 -0.1838  0.2597  0.0319
 5861TIP3    H117547   5.256   4.706   0.192 -1.3266 -1.8473  1.2708
 5861TIP3    H217548   5.161   4.816   0.235  0.8833  0.8776 -0.4913
 5862TIP3   OH217549   0.665   3.058   2.838 -0.3194 -0.0530 -0.1680
 5862TIP3    H117550   0.738   3.007   2.801  0.1987  1.0536 -0.7196
 5862TIP3    H217551   0.589   3.000   2.829  0.4588 -1.1785  0.3013
 5863TIP3   OH217552   1.044   0.894   1.151  0.5991 -0.6289  0.6438
 5863TIP3    H117553   1.130   0.894   1.192  1.4341  0.7669 -0.9702
 5863TIP3    H217554   1.007   0.979   1.172  0.0351 -0.8273  0.4806
 5864TIP3   OH217555   4.331   1.232   0.930  0.7502  0.1321  0.4895
 5864TIP3    H117556   4.343   1.172   1.004 -1.6662  1.9857  2.5509
 5864TIP3    H217557   4.376   1.312   0.957  0.4085  0.6169 -0.3580
 5865TIP3   OH217558   7.125   2.954   3.209 -0.0174  0.6971 -0.2178
 5865TIP3    H117559   7.196   2.911   3.257  0.0358 -1.2068 -1.8620
 5865TIP3    H217560   7.057   2.886   3.201 -0.6545  1.4499 -1.4657
 5866TIP3   OH217561   2.863   6.457   0.242  0.2162 -0.1818  0.2386
 5866TIP3    H117562   2.912   6.539   0.242 -0.0154  0.0495 -2.8215
 5866TIP3    H217563   2.931   6.389   0.242  0.6092  0.1243 -2.1172
 5867TIP3   OH217564   4.672   4.814   0.020 -0.7945  0.5487 -0.1285
 5867TIP3    H117565   4.701   4.794   0.109  0.8367  0.5869 -0.6091
 5867TIP3    H217566   4.719   4.894  -0.002 -1.2382  0.5761 -1.0084
 5868TIP3   OH217567   1.002   5.895   1.480 -0.0342 -0.2081  0.1301
 5868TIP3    H117568   0.951   5.972   1.452  1.2941  0.5007 -0.4340
 5868TIP3    H217569   1.090   5.929   1.495  0.4905 -1.5636  0.2384
 5869TIP3   OH217570   2.003   4.539   5.563  0.9495  0.3646  0.2547
 5869TIP3    H117571   2.076   4.483   5.589  1.3127  0.3997 -0.6229
 5869TIP3    H217572   1.991   4.520   5.469 -1.5116 -1.1409  0.7812
 5870TIP3   OH217573   6.615   1.462   0.786  0.1911  0.3975 -0.0761
 5870TIP3    H117574   6.670   1.529   0.827  0.4518  0.6976 -0.8975
 5870TIP3    H217575   6.526   1.497   0.793  0.1264  0.0613  0.9632
 5871TIP3   OH217576   4.787   0.066   1.820  0.6392 -0.7972  0.7069
 5871TIP3    H117577   4.745   0.146   1.851  0.1379 -1.2825  1.3039
 5871TIP3    H217578   4.715   0.004   1.808  0.9523 -0.9735 -0.3532
 5872TIP3   OH217579   0.899   4.323   2.568 -0.1060 -0.3735  0.2079
 5872TIP3    H117580   0.817   4.334   2.520 -0.5746 -0.9352  0.8480
 5872TIP3    H217581   0.884   4.246   2.623  0.6143 -0.0778  0.8360
 5873TIP3   OH217582   0.705   2.615   1.151  1.4884 -0.0231 -0.0910
 5873TIP3    H117583   0.692   2.617   1.246 -0.8980 -1.8825 -0.2671
 5873TIP3    H217584   0.705   2.707   1.124  1.7436  0.5156  1.6414
 5874TIP3   OH217585   0.228   3.352   1.672 -0.1014 -0.3631  0.7138
 5874TIP3    H117586   0.251   3.279   1.615  0.2375  0.7335 -0.6082
 5874TIP3    H217587   0.311   3.392   1.695 -0.3874  0.8954 -0.3619
 5875TIP3   OH217588   4.497   5.677   5.794  0.2048 -0.1295  0.2884
 5875TIP3    H117589   4.514   5.748   5.732 -0.1086 -1.0460 -0.8814
 5875TIP3    H217590   4.581   5.633   5.805  0.5699  0.8446  1.5914
 5876TIP3   OH217591   4.906   1.896   1.129 -0.6887  1.1221  0.1192
 5876TIP3    H117592   4.811   1.902   1.136 -0.7779 -1.2235  3.7994
 5876TIP3    H217593   4.933   1.849   1.208  3.5114  1.1454 -1.0463
 5877TIP3   OH217594   4.356   4.163   1.030  0.1410 -0.2098  0.0701
 5877TIP3    H117595   4.422   4.150   1.098 -0.2574 -1.4562  0.2442
 5877TIP3    H217596   4.403   4.209   0.960  0.7202  0.5147  0.9023
 5878TIP3   OH217597   5.191   6.109   0.445 -0.1562 -0.1240  0.0096
 5878TIP3    H117598   5.226   6.023   0.422 -1.6307 -0.3695 -1.4524
 5878TIP3    H217599   5.258   6.170   0.414  0.2668 -0.6879 -0.2133
 5879TIP3   OH217600   4.448   2.550   3.718 -0.7985  0.0862  0.4296
 5879TIP3    H117601   4.470   2.637   3.752  0.2316  0.3570 -0.8140
 5879TIP3    H217602   4.533   2.506   3.709 -0.8121  0.5244 -2.9637
 5880TIP3   OH217603   3.149   3.645   3.529  0.0346  0.1076  0.4146
 5880TIP3    H117604   3.095   3.601   3.464  2.1894  0.2276 -1.6081
 5880TIP3    H217605   3.143   3.738   3.506  1.8631  0.0401 -0.6204
 5881TIP3   OH217606   5.898   0.181   4.504  0.3929  0.0384  0.0462
 5881TIP3    H117607   5.969   0.196   4.443 -0.6737  2.8234 -0.6763
 5881TIP3    H217608   5.854   0.266   4.511 -1.0493 -0.8062  2.7679
 5882TIP3   OH217609   2.856   5.421   4.709 -0.0340 -0.0630 -0.2712
 5882TIP3    H117610   2.828   5.512   4.716 -1.4305 -0.1124 -3.2704
 5882TIP3    H217611   2.814   5.376   4.782  0.2420  1.5511  0.9352
 5883TIP3   OH217612   5.703   2.268   4.955  0.0407 -0.0026 -0.0919
 5883TIP3    H117613   5.717   2.218   5.035  0.6052 -0.4601 -0.4740
 5883TIP3    H217614   5.763   2.230   4.891  0.1493  0.8537 -0.5202
 5884TIP3   OH217615   2.073   5.207   2.208 -0.6621 -0.0818 -0.3880
 5884TIP3    H117616   2.150   5.237   2.160 -0.8035  2.4795  0.8094
 5884TIP3    H217617   2.002   5.265   2.177 -0.9063  1.1825  2.2484
 5885TIP3   OH217618   0.973   1.446   0.234 -0.3364  0.1265 -1.0223
 5885TIP3    H117619   0.915   1.504   0.183 -1.4601 -0.4932 -0.4887
 5885TIP3    H217620   0.958   1.471   0.325 -0.4550 -0.6605 -0.8199
 5886TIP3   OH217621   2.795   5.432   1.521  0.1872  0.1744 -0.0131
 5886TIP3    H117622   2.742   5.382   1.459  0.2612  0.0149  0.0505
 5886TIP3    H217623   2.885   5.417   1.493  0.1400  1.5607 -0.9544
 5887TIP3   OH217624   3.932   3.232   4.989 -0.2318 -0.0516  0.2909
 5887TIP3    H117625   3.862   3.250   4.927  0.7151 -0.1882 -0.8553
 5887TIP3    H217626   3.954   3.317   5.027 -1.1344 -0.0401  0.8118
 5888TIP3   OH217627   4.721   6.363   4.846  0.1486 -0.5554 -0.0492
 5888TIP3    H117628   4.685   6.438   4.893 -1.3218 -1.5081  0.4102
 5888TIP3    H217629   4.797   6.398   4.800 -2.4245  2.1177 -2.7413
 5889TIP3   OH217630   1.694   1.261   0.131  0.2612 -0.1410  0.0897
 5889TIP3    H117631   1.710   1.175   0.093 -0.1279  0.1949 -0.8677
 5889TIP3    H217632   1.690   1.320   0.056 -1.2321  0.4347  0.5847
 5890TIP3   OH217633   4.777   0.785   3.825 -0.4031  0.1965 -0.9555
 5890TIP3    H117634   4.807   0.758   3.738 -2.0874  0.0525 -1.5435
 5890TIP3    H217635   4.718   0.714   3.852 -0.8992  0.8631 -0.2601
 5891TIP3   OH217636   3.407   0.353   1.762 -0.2051  0.3032  0.4786
 5891TIP3    H117637   3.392   0.447   1.754 -3.4401 -0.1905 -0.7518
 5891TIP3    H217638   3.468   0.332   1.692 -1.7476  1.1505 -1.2199
 5892TIP3   OH217639   5.189   5.011   0.305 -0.4411 -0.0727 -0.3408
 5892TIP3    H117640   5.149   5.090   0.340  0.2563 -0.0987  0.5375
 5892TIP3    H217641   5.239   5.041   0.229 -0.2908  0.3114 -0.0932
 5893TIP3   OH217642   5.718   0.278   3.840 -0.0510  0.6431  0.0606
 5893TIP3    H117643   5.812   0.294   3.844  0.0792  0.5120 -1.5753
 5893TIP3    H217644   5.710   0.191   3.802 -0.8336 -0.8061  3.1892
 5894TIP3   OH217645   5.591   6.211   5.038  0.2940  0.2308 -0.0283
 5894TIP3    H117646   5.597   6.257   5.122  0.2209  2.9793 -1.4113
 5894TIP3    H217647   5.682   6.199   5.011  0.2988  1.0654 -0.4025
 5895TIP3   OH217648   0.204   2.915   4.772  0.0198 -0.2384  0.2614
 5895TIP3    H117649   0.169   2.835   4.733  1.1097 -1.3839  1.5302
 5895TIP3    H217650   0.296   2.895   4.790  0.3915  1.4038  0.3774
 5896TIP3   OH217651   4.573   2.102   2.442 -0.1082  0.9378  0.3845
 5896TIP3    H117652   4.571   2.183   2.391  2.2371  0.4549 -0.6219
 5896TIP3    H217653   4.644   2.115   2.505  2.1736 -1.2014 -1.5495
 5897TIP3   OH217654   5.662   6.160   2.933 -0.4325  0.7246 -0.1139
 5897TIP3    H117655   5.578   6.142   2.976 -0.2598 -1.3575 -0.5571
 5897TIP3    H217656   5.685   6.078   2.890  1.2697  1.6187 -0.9961
 5898TIP3   OH217657   1.854   2.218   0.637 -0.5793 -0.1159 -0.6649
 5898TIP3    H117658   1.779   2.161   0.657 -0.6535  0.3788  0.6095
 5898TIP3    H217659   1.861   2.275   0.714  2.4030 -1.5262  0.2580
 5899TIP3   OH217660   1.318   3.557   0.880  0.3299  0.8422 -0.3237
 5899TIP3    H117661   1.384   3.576   0.946 -0.0031 -1.3749  0.7391
 5899TIP3    H217662   1.237   3.594   0.916  0.1505 -0.3478  0.5600
 5900TIP3   OH217663   5.888   1.153   3.435 -0.3235 -0.2866  0.0026
 5900TIP3    H117664   5.816   1.216   3.427  1.5669  1.9042 -0.5584
 5900TIP3    H217665   5.919   1.162   3.525 -0.1285 -0.5378 -0.0364
 5901TIP3   OH217666   5.724   5.959   2.139  0.3542 -0.1190 -0.1840
 5901TIP3    H117667   5.780   5.882   2.147 -0.5920 -1.1682 -2.5257
 5901TIP3    H217668   5.653   5.945   2.201  1.6802  0.3410  1.4910
 5902TIP3   OH217669   2.611   2.304   0.466 -0.0579 -0.9812 -0.3573
 5902TIP3    H117670   2.590   2.361   0.392  0.0804 -0.0066  0.3373
 5902TIP3    H217671   2.562   2.340   0.539  0.3729 -1.5025  0.2022
 5903TIP3   OH217672   3.162   3.247   0.747 -0.0775  0.5051 -0.4539
 5903TIP3    H117673   3.160   3.176   0.811 -1.2799 -0.7196 -1.7843
 5903TIP3    H217674   3.089   3.303   0.772 -0.4835  0.0829 -0.6818
 5904TIP3   OH217675   6.625   6.543   3.368 -0.3788 -0.1014 -0.7109
 5904TIP3    H117676   6.609   6.634   3.394 -1.7675  0.0543 -1.9229
 5904TIP3    H217677   6.584   6.536   3.282 -2.2173 -2.4303  0.2403
 5905TIP3   OH217678   5.990   5.080   0.172 -0.1285  0.0825 -0.1171
 5905TIP3    H117679   6.038   5.007   0.209  0.6242  0.0516 -1.1100
 5905TIP3    H217680   6.031   5.158   0.210  0.9726  0.0703 -1.2147
 5906TIP3   OH217681   4.682   2.228   0.323 -0.0296 -0.3515  0.2368
 5906TIP3    H117682   4.617   2.180   0.272  1.7665 -0.5670 -2.0186
 5906TIP3    H217683   4.631   2.296   0.368 -1.9344 -1.1361 -0.5971
 5907TIP3   OH217684   0.890   6.158   4.964 -0.4294 -0.3517 -0.2559
 5907TIP3    H117685   0.819   6.096   4.951 -0.1385 -0.7201 -0.1316
 5907TIP3    H217686   0.904   6.158   5.059 -1.0353  0.5972 -0.1573
 5908TIP3   OH217687   4.704   2.027   3.655  0.3242  0.0799 -0.1659
 5908TIP3    H117688   4.629   1.973   3.627 -0.7158  1.3655  0.0386
 5908TIP3    H217689   4.779   1.968   3.649 -0.2075 -0.4438 -3.2200
 5909TIP3   OH217690   5.566   6.397   5.267 -0.2122  0.1502  0.3756
 5909TIP3    H117691   5.495   6.442   5.222  1.2094  1.5936 -0.5382
 5909TIP3    H217692   5.561   6.427   5.357 -1.7028 -1.0074  0.7097
 5910TIP3   OH217693   4.721   2.817   4.501 -0.1621  0.2071  0.0930
 5910TIP3    H117694   4.646   2.875   4.502 -0.6181 -0.3217 -0.8856
 5910TIP3    H217695   4.722   2.782   4.411  2.0983  1.3003 -0.3805
 5911TIP3   OH217696   4.827   1.239   2.914 -0.0647 -0.2964  0.7806
 5911TIP3    H117697   4.827   1.172   2.983 -0.3988 -0.5028  0.5822
 5911TIP3    H217698   4.788   1.316   2.955  0.7500 -0.0668  1.1523
 5912TIP3   OH217699   5.676   2.729   4.447  0.1013  0.1037 -0.2260
 5912TIP3    H117700   5.770   2.712   4.444  0.1804  0.5071 -0.1617
 5912TIP3    H217701   5.668   2.819   4.415 -0.1759  0.3759  0.5966
 5913TIP3   OH217702   0.568   2.164   2.736 -0.6392  0.7448  0.8153
 5913TIP3    H117703   0.571   2.253   2.770  0.4392  1.7566 -1.6912
 5913TIP3    H217704   0.541   2.174   2.644  0.1951 -1.4337  0.2764
 5914TIP3   OH217705   5.851   0.884   3.665 -0.2485 -0.5278  0.1859
 5914TIP3    H117706   5.904   0.894   3.586 -0.4536 -1.7208 -0.1364
 5914TIP3    H217707   5.910   0.908   3.736  0.5174 -1.1204 -0.2191
 5915TIP3   OH217708   2.133   2.643   0.362  0.2727  0.5779  0.1680
 5915TIP3    H117709   2.183   2.598   0.295  0.2972  1.8673 -0.7203
 5915TIP3    H217710   2.090   2.573   0.412 -0.8609 -0.4070 -2.0502
 5916TIP3   OH217711   1.194   3.883   0.416 -0.0141  0.1284  0.0536
 5916TIP3    H117712   1.168   3.972   0.439 -2.0682  0.1405 -1.9817
 5916TIP3    H217713   1.289   3.886   0.413 -0.0343  2.9020 -2.0816
 5917TIP3   OH217714   3.431   4.125   2.335 -0.1275  0.0488 -0.9117
 5917TIP3    H117715   3.510   4.106   2.386  0.3722  1.4573 -1.1283
 5917TIP3    H217716   3.450   4.089   2.248  0.0225 -0.1504 -0.7981
 5918TIP3   OH217717   2.059   0.302   0.644 -0.0761 -0.5150 -0.2860
 5918TIP3    H117718   2.004   0.380   0.654  1.4366  0.4349  1.4171
 5918TIP3    H217719   2.145   0.336   0.620  0.6015 -1.6493  0.4209
 5919TIP3   OH217720   6.758   2.568   2.579  0.2303  0.0074 -0.2354
 5919TIP3    H117721   6.694   2.558   2.509  1.1767 -1.3129 -0.9488
 5919TIP3    H217722   6.706   2.572   2.660 -0.7274 -1.9118 -0.7108
 5920TIP3   OH217723   3.075   6.598   4.191 -0.5897 -0.5553 -0.3036
 5920TIP3    H117724   3.110   6.537   4.126 -0.0488 -1.4884  0.8183
 5920TIP3    H217725   3.117   6.571   4.273 -0.3068  1.3645  0.2241
 5921TIP3   OH217726   0.507   1.013   2.660 -0.0086  0.1951 -0.5593
 5921TIP3    H117727   0.596   1.008   2.626 -0.0510  0.8371 -0.7821
 5921TIP3    H217728   0.464   1.077   2.604 -1.3336 -1.8557 -2.0619
 5922TIP3   OH217729   6.890   2.673   1.636  0.0886 -0.0535  0.2032
 5922TIP3    H117730   6.878   2.587   1.676  0.5995 -0.8923 -1.3707
 5922TIP3    H217731   6.902   2.732   1.711 -0.9460 -1.2107  1.3418
 5923TIP3   OH217732   2.091   4.745   4.282 -0.3079 -0.0742 -0.0774
 5923TIP3    H117733   2.099   4.731   4.188  1.2062 -0.7592  0.1124
 5923TIP3    H217734   2.123   4.663   4.321 -0.3139  0.4241  1.0280
 5924TIP3   OH217735   2.475   3.374   1.520  0.1989 -0.1325  0.0962
 5924TIP3    H117736   2.509   3.396   1.607  1.0972 -1.1306  0.0221
 5924TIP3    H217737   2.454   3.459   1.480 -0.2500  0.3270  1.2898
 5925TIP3   OH217738   5.130   3.909   2.406 -0.2508 -0.5255  0.2138
 5925TIP3    H117739   5.197   3.862   2.455  0.5807  0.6371  0.2430
 5925TIP3    H217740   5.162   4.000   2.402 -1.6204 -0.0283 -0.1369
 5926TIP3   OH217741   0.460   1.987   3.805 -0.5328 -0.1493 -0.3581
 5926TIP3    H117742   0.419   2.041   3.873 -1.6635 -0.1921 -0.9997
 5926TIP3    H217743   0.505   2.050   3.749  0.2459 -0.0966  0.2990
 5927TIP3   OH217744   2.368   2.149   3.350  0.4125 -0.1933 -0.2344
 5927TIP3    H117745   2.395   2.228   3.396 -1.9079  0.6675 -0.2226
 5927TIP3    H217746   2.397   2.162   3.260  1.9163 -0.3149  0.2193
 5928TIP3   OH217747   1.041   1.749   1.253  0.6174  0.2067  0.7104
 5928TIP3    H117748   0.958   1.708   1.275 -0.0693  1.0921 -0.1264
 5928TIP3    H217749   1.030   1.841   1.279  1.0654  0.4843 -0.0500
 5929TIP3   OH217750   1.379   0.269   0.189  0.3748  0.4950 -0.1191
 5929TIP3    H117751   1.355   0.316   0.109  1.8337  0.5476 -0.5509
 5929TIP3    H217752   1.456   0.218   0.164  0.7701  0.4172  1.2327
 5930TIP3   OH217753   1.349   5.989   0.127  0.6102 -0.2936 -0.1264
 5930TIP3    H117754   1.280   5.945   0.175  0.5489 -0.8287 -0.6942
 5930TIP3    H217755   1.308   6.069   0.094  0.6659  0.0978  0.7277
 5931TIP3   OH217756   5.546   3.321   4.206 -0.1809 -0.0975 -0.3448
 5931TIP3    H117757   5.612   3.373   4.160 -1.1875  0.2609 -1.4474
 5931TIP3    H217758   5.588   3.236   4.220 -0.0436 -0.4566 -2.5939
 5932TIP3   OH217759   4.122   5.284   4.437 -0.4088 -0.2849  0.0271
 5932TIP3    H117760   4.097   5.295   4.529 -0.9733 -0.5397 -0.0871
 5932TIP3    H217761   4.193   5.219   4.439 -1.7403 -1.8063  0.1396
 5933TIP3   OH217762   2.969   0.266   5.495  0.0172  0.6438 -0.5874
 5933TIP3    H117763   2.922   0.182   5.501 -0.3319  0.9163  1.1611
 5933TIP3    H217764   2.910   0.329   5.535  1.0823  1.3563 -0.0956
 5934TIP3   OH217765   1.041   3.469   5.238  0.1105  0.4815 -0.6323
 5934TIP3    H117766   1.096   3.399   5.274 -2.0450 -1.3200 -0.6432
 5934TIP3    H217767   1.070   3.478   5.148 -1.0806 -2.1509 -1.3830
 5935TIP3   OH217768   0.642   1.409   4.556  0.1892  0.8004  0.3950
 5935TIP3    H117769   0.663   1.316   4.562 -0.4123  0.6702  0.5377
 5935TIP3    H217770   0.650   1.429   4.462  1.0448  0.7877  0.4560
 5936TIP3   OH217771   0.160   4.032   0.452  0.3336  0.5788  0.0967
 5936TIP3    H117772   0.206   4.088   0.514 -0.9590  0.7070  0.9775
 5936TIP3    H217773   0.221   4.022   0.378  0.9487  2.3693  0.3253
 5937TIP3   OH217774   6.392   2.186   3.182  0.1435 -0.3681 -0.0906
 5937TIP3    H117775   6.407   2.102   3.226 -0.3749  0.0965  1.0347
 5937TIP3    H217776   6.317   2.171   3.125 -0.7972 -0.3620  1.0975
 5938TIP3   OH217777   5.837   6.005   2.634 -0.3302 -0.1615  0.2632
 5938TIP3    H117778   5.753   6.033   2.600 -0.9133 -0.9186  1.0305
 5938TIP3    H217779   5.815   5.941   2.702  0.8554 -0.2202  0.6097
 5939TIP3   OH217780   3.675   3.869   4.814  0.0253  0.3707 -0.1441
 5939TIP3    H117781   3.744   3.935   4.823 -0.4768  0.8864 -0.0321
 5939TIP3    H217782   3.594   3.916   4.835 -0.1017 -0.8731  2.4060
 5940TIP3   OH217783   5.675   6.438   3.182  0.4466 -0.5455 -0.1666
 5940TIP3    H117784   5.617   6.362   3.185  1.1444 -1.0768 -0.1524
 5940TIP3    H217785   5.654   6.480   3.098  0.2694 -0.9178 -0.3109
 5941TIP3   OH217786   2.604   5.126   5.721 -0.2593  0.4376 -0.3098
 5941TIP3    H117787   2.612   5.093   5.631  0.7950  2.6532 -1.0975
 5941TIP3    H217788   2.625   5.050   5.776  0.5503 -0.6113 -1.9691
 5942TIP3   OH217789   3.714   5.845   5.224  0.9393 -0.1754 -0.7481
 5942TIP3    H117790   3.763   5.879   5.299 -0.9008  0.4680  0.2284
 5942TIP3    H217791   3.746   5.896   5.149  1.2296  0.7531 -0.0119
 5943TIP3   OH217792   5.822   0.059   2.300 -0.0059  0.1243  0.1437
 5943TIP3    H117793   5.830   0.084   2.208  0.7553 -3.2110 -0.8551
 5943TIP3    H217794   5.897   0.101   2.343  2.2173 -1.6402 -1.7369
 5944TIP3   OH217795   2.199   0.908   5.898  0.0924 -0.0401 -0.0902
 5944TIP3    H117796   2.243   0.839   5.948 -1.3467 -0.1515  1.0690
 5944TIP3    H217797   2.173   0.865   5.817  1.9291 -0.0071 -0.7573
 5945TIP3   OH217798   5.856   3.638   1.730 -0.3268  0.1423  0.0119
 5945TIP3    H117799   5.818   3.673   1.810 -0.5354  0.4446 -0.2193
 5945TIP3    H217800   5.789   3.580   1.694 -1.1323  1.6980 -1.1001
 5946TIP3   OH217801   2.649   0.428   4.167  0.2969  0.0377 -0.4466
 5946TIP3    H117802   2.656   0.442   4.073  0.6266 -0.5798 -0.5205
 5946TIP3    H217803   2.733   0.457   4.202  0.3820 -0.2388 -0.4141
 5947TIP3   OH217804   3.091   3.168   2.316 -0.0387 -0.0865  0.4792
 5947TIP3    H117805   3.093   3.072   2.312  2.5286 -0.0705 -0.2793
 5947TIP3    H217806   3.140   3.196   2.239 -0.3440  1.8570  0.9428
 5948TIP3   OH217807   0.569   2.861   3.965  0.0198  0.3368  0.5225
 5948TIP3    H117808   0.498   2.921   3.944 -0.5587 -0.9591 -1.5717
 5948TIP3    H217809   0.535   2.806   4.035 -0.4347  0.7632  0.6409
 5949TIP3   OH217810   1.035   4.568   2.667 -0.5563  0.6242  0.1801
 5949TIP3    H117811   1.065   4.624   2.596 -0.7467  1.2397  0.5818
 5949TIP3    H217812   1.013   4.485   2.624 -2.4576  1.5701 -0.7927
 5950TIP3   OH217813   6.570   3.430   0.631  0.0845 -0.0055  0.4542
 5950TIP3    H117814   6.601   3.420   0.541  0.4062  0.2372  0.5394
 5950TIP3    H217815   6.477   3.452   0.621  0.1001 -0.0578  0.1816
 5951TIP3   OH217816   1.008   3.442   5.626  0.4229 -0.4848 -0.3393
 5951TIP3    H117817   1.068   3.501   5.580 -1.1383  0.4103 -1.3406
 5951TIP3    H217818   0.993   3.370   5.564 -0.3859 -0.1249 -0.5795
 5952TIP3   OH217819   0.804   4.721   4.382  0.0479 -0.2587 -0.5700
 5952TIP3    H117820   0.826   4.700   4.291  0.2105  0.9193 -0.8212
 5952TIP3    H217821   0.711   4.697   4.391 -0.1172  0.1297 -1.2107
 5953TIP3   OH217822  -0.008   3.326   5.298 -0.2544  0.7415 -1.0635
 5953TIP3    H117823   0.071   3.369   5.265  0.7653 -0.2187  0.0162
 5953TIP3    H217824  -0.063   3.397   5.330  0.2325  1.4237 -1.7100
 5954TIP3   OH217825   4.870   0.308   5.234 -0.3596 -0.2128 -0.2380
 5954TIP3    H117826   4.925   0.271   5.165 -1.4697 -0.0856 -1.2354
 5954TIP3    H217827   4.912   0.282   5.316  0.9394 -0.4450 -0.9658
 5955TIP3   OH217828   4.479   4.597   1.561  0.2555 -0.4233  0.0890
 5955TIP3    H117829   4.481   4.581   1.467 -0.2786  2.9114 -0.6130
 5955TIP3    H217830   4.395   4.561   1.590 -0.5525  0.3822 -1.1536
 5956TIP3   OH217831   1.980   0.756   1.777  0.2450  0.3059 -0.3517
 5956TIP3    H117832   1.923   0.755   1.854  0.5286 -0.4203 -0.1434
 5956TIP3    H217833   1.986   0.664   1.750  2.1471  0.2160  0.2470
 5957TIP3   OH217834   2.490   3.743   0.350  0.0439  0.1499  0.2957
 5957TIP3    H117835   2.535   3.820   0.384  0.1124  0.9632 -1.5135
 5957TIP3    H217836   2.397   3.765   0.353  0.1392  0.9478 -1.6031
 5958TIP3   OH217837   0.448   6.629   0.304 -0.1120 -0.3484  0.0433
 5958TIP3    H117838   0.453   6.646   0.210 -1.0823 -0.7328 -0.0907
 5958TIP3    H217839   0.381   6.561   0.312 -0.1740 -0.1775  1.0358
 5959TIP3   OH217840   3.241   0.081   1.706  0.1053  0.3518  0.5072
 5959TIP3    H117841   3.270   0.119   1.788  1.3680  0.6319 -0.0509
 5959TIP3    H217842   3.297   0.122   1.639  0.8566 -1.7628 -0.2240
 5960TIP3   OH217843   1.463   2.634   2.022  0.0420 -0.3265  0.6711
 5960TIP3    H117844   1.439   2.586   2.101  0.7279 -0.3278  0.8872
 5960TIP3    H217845   1.399   2.706   2.017 -1.0672 -1.3203  0.2735
 5961TIP3   OH217846   1.041   5.579   2.365 -0.0718  0.7649 -0.3879
 5961TIP3    H117847   0.967   5.580   2.426  0.3708 -2.5077  0.3724
 5961TIP3    H217848   1.089   5.659   2.385  0.3015 -0.3171  4.0182
 5962TIP3   OH217849   3.063   4.814   4.968  0.4792 -0.1592  0.1737
 5962TIP3    H117850   3.130   4.755   4.932  0.7664  0.2270  0.0720
 5962TIP3    H217851   3.050   4.783   5.058  1.1319  0.0485  0.3472
 5963TIP3   OH217852   2.093   1.371   2.034  0.0196 -0.6827  0.3512
 5963TIP3    H117853   2.086   1.388   1.941 -1.2698  1.1554  0.7426
 5963TIP3    H217854   2.187   1.375   2.052  0.4276 -2.5262 -1.0714
 5964TIP3   OH217855   2.366   2.527   1.384 -0.0544  0.5643  0.7238
 5964TIP3    H117856   2.422   2.481   1.322 -0.2739  0.7891  0.3461
 5964TIP3    H217857   2.337   2.460   1.446  0.6314  0.4501  0.9275
 5965TIP3   OH217858   2.360   2.604   5.476 -0.5634  0.3511 -0.0750
 5965TIP3    H117859   2.362   2.521   5.523 -0.2195  2.4312  4.0376
 5965TIP3    H217860   2.448   2.640   5.486 -1.5971  2.7244  1.6254
 5966TIP3   OH217861   6.182   2.022   2.244  0.0793 -0.3474  0.2397
 5966TIP3    H117862   6.233   1.941   2.253 -1.5072 -1.8500 -2.6292
 5966TIP3    H217863   6.243   2.085   2.206  1.1288 -0.3949  1.7718
 5967TIP3   OH217864   0.020   2.098   1.032  0.4573  0.3213 -0.1841
 5967TIP3    H117865   0.003   2.192   1.027 -1.1070  0.1840  1.5007
 5967TIP3    H217866   0.043   2.083   1.123 -2.2004 -1.2816  0.3442
 5968TIP3   OH217867   0.067   5.563   5.328 -0.1553  0.1324  0.1934
 5968TIP3    H117868   0.070   5.655   5.301  0.9906 -0.1852 -0.8169
 5968TIP3    H217869   0.006   5.522   5.267  1.9229 -0.4454 -1.6048
 5969TIP3   OH217870   5.533   3.654   3.468  0.1446  0.1823 -0.1828
 5969TIP3    H117871   5.525   3.611   3.383 -0.6103  0.4227 -0.2442
 5969TIP3    H217872   5.452   3.631   3.515  0.6991 -0.2111  0.5938
 5970TIP3   OH217873   0.230   4.397   3.454 -0.6537  0.0556  0.0204
 5970TIP3    H117874   0.135   4.408   3.448 -0.6389  0.1642 -0.0252
 5970TIP3    H217875   0.257   4.467   3.514 -0.5104  0.5145 -0.5663
 5971TIP3   OH217876   6.442   5.248   0.561  0.1432 -0.4686 -0.3403
 5971TIP3    H117877   6.503   5.191   0.608 -1.2389 -2.1910 -0.5344
 5971TIP3    H217878   6.447   5.220   0.470 -1.2698 -0.9977 -0.2815
 5972TIP3   OH217879   0.235   4.069   2.097 -0.3959  0.2407  0.2034
 5972TIP3    H117880   0.277   3.987   2.070  0.9908  0.8495  0.3823
 5972TIP3    H217881   0.142   4.053   2.088 -0.1027 -0.7207 -1.6222
 5973TIP3   OH217882   4.323   3.465   0.048  0.0552  0.0687  0.0363
 5973TIP3    H117883   4.235   3.444   0.078  0.2646  0.6753  1.1373
 5973TIP3    H217884   4.380   3.408   0.100  0.4001  0.8153  0.4933
 5974TIP3   OH217885   6.605   2.721   4.739  0.7681 -0.3639  0.0071
 5974TIP3    H117886   6.517   2.747   4.712  0.8036 -0.1304  0.1145
 5974TIP3    H217887   6.620   2.767   4.822  0.2688 -1.8554  0.9729
 5975TIP3   OH217888   5.231   5.262   2.770 -0.5065  0.1807  0.1801
 5975TIP3    H117889   5.269   5.212   2.699 -1.6625  0.7797 -0.8979
 5975TIP3    H217890   5.301   5.320   2.799 -0.3481  0.7396 -1.2575
 5976TIP3   OH217891   2.178   5.913   5.794  0.0764  0.0955 -0.5570
 5976TIP3    H117892   2.238   5.986   5.784 -0.2558  0.7625  1.7452
 5976TIP3    H217893   2.199   5.876   5.880 -2.9522  0.5624  0.5193
 5977TIP3   OH217894   7.044   2.746   0.504 -0.8453  0.1933 -0.7159
 5977TIP3    H117895   7.072   2.706   0.422 -2.1788 -0.7649 -0.7270
 5977TIP3    H217896   7.092   2.698   0.572 -0.0966  0.6776 -0.8848
 5978TIP3   OH217897   2.832   3.557   3.178 -0.0837 -0.6511 -0.1004
 5978TIP3    H117898   2.739   3.547   3.157 -0.0306  0.7615 -1.1445
 5978TIP3    H217899   2.878   3.509   3.109  0.0044  1.4623 -1.6197
 5979TIP3   OH217900   2.042   4.764   0.840 -0.2767  0.0173 -0.3523
 5979TIP3    H117901   2.102   4.760   0.765  0.1633  3.3724 -0.3235
 5979TIP3    H217902   2.100   4.767   0.916 -0.6347 -0.3076 -0.0660
 5980TIP3   OH217903   4.825   1.616   3.489 -0.6059 -0.2560 -0.3889
 5980TIP3    H117904   4.800   1.640   3.399  2.0221  1.2625 -0.8223
 5980TIP3    H217905   4.746   1.632   3.540 -0.8090  4.1090 -1.6402
 5981TIP3   OH217906   6.261   1.522   1.266 -0.0302 -0.0497  0.0453
 5981TIP3    H117907   6.273   1.470   1.186 -1.9637 -0.0199 -0.3161
 5981TIP3    H217908   6.214   1.600   1.237  0.9148  0.8758  0.9442
 5982TIP3   OH217909   4.477   2.376   1.931  0.2366 -0.2233 -0.1738
 5982TIP3    H117910   4.457   2.408   2.019 -1.9554 -0.5368 -0.4909
 5982TIP3    H217911   4.439   2.288   1.929  1.5945 -0.8063 -0.9619
 5983TIP3   OH217912   2.443   2.541   4.548  0.2755  0.4904  0.0179
 5983TIP3    H117913   2.519   2.502   4.503 -0.5621  0.2001 -1.1975
 5983TIP3    H217914   2.417   2.476   4.613  0.1887 -0.0454 -0.5435
 5984TIP3   OH217915   4.035   6.363   0.951  0.2200  0.2173  0.3228
 5984TIP3    H117916   4.047   6.365   0.856 -1.1782  0.6630  0.1203
 5984TIP3    H217917   4.015   6.272   0.971 -0.0843  0.2289  0.0898
 5985TIP3   OH217918   1.208   2.464   3.782 -0.3089 -0.6993 -0.5457
 5985TIP3    H117919   1.252   2.393   3.828 -0.5293 -0.6238 -0.2154
 5985TIP3    H217920   1.115   2.446   3.792 -0.4045  0.4113  0.8007
 5986TIP3   OH217921   7.069   3.819   5.453 -0.3733 -0.1433  0.1152
 5986TIP3    H117922   7.012   3.864   5.390  1.6585  0.9794 -1.0442
 5986TIP3    H217923   7.153   3.814   5.408  1.2052  0.7743  2.7652
 5987TIP3   OH217924   5.851   5.183   3.655  0.4222  0.6525  0.2988
 5987TIP3    H117925   5.892   5.250   3.710  1.1411 -0.4084  1.0847
 5987TIP3    H217926   5.900   5.103   3.674 -1.1074 -0.3481  0.2043
 5988TIP3   OH217927   3.216   4.269   5.065  0.6899 -0.8440  0.2074
 5988TIP3    H117928   3.172   4.264   5.150 -0.4316  0.9164 -0.2212
 5988TIP3    H217929   3.294   4.215   5.075  0.7849 -0.3700  2.4711
 5989TIP3   OH217930   6.578   4.892   3.314 -0.4026  0.4376 -0.5493
 5989TIP3    H117931   6.575   4.968   3.371 -1.4275  0.6772 -0.8936
 5989TIP3    H217932   6.494   4.848   3.328  0.6995 -1.4276  0.6722
 5990TIP3   OH217933   4.355   3.285   5.087  0.3253 -0.2366 -0.8027
 5990TIP3    H117934   4.301   3.233   5.146  0.0752 -0.0570 -0.8680
 5990TIP3    H217935   4.330   3.376   5.106  2.0963 -0.0028  0.6370
 5991TIP3   OH217936   5.298   5.989   5.766  0.5465  0.0507 -0.1594
 5991TIP3    H117937   5.341   6.003   5.682  0.5182  2.0121  0.0950
 5991TIP3    H217938   5.363   6.014   5.831  0.1513 -0.2240  0.3528
 5992TIP3   OH217939   4.228   0.840   1.462 -0.2386 -0.4959 -0.2684
 5992TIP3    H117940   4.193   0.885   1.386 -0.5528 -0.9652 -0.4036
 5992TIP3    H217941   4.160   0.848   1.529 -0.4558 -1.0885 -0.4130
 5993TIP3   OH217942   5.985   5.360   3.839  0.0575 -0.1652 -0.7596
 5993TIP3    H117943   6.055   5.423   3.821  0.1738 -0.8020 -2.9374
 5993TIP3    H217944   6.003   5.328   3.927 -0.5590  3.4516  0.8425
 5994TIP3   OH217945   3.854   1.953   3.203  0.0020 -0.0448 -0.0046
 5994TIP3    H117946   3.915   2.014   3.161  0.0507  1.3094  1.9296
 5994TIP3    H217947   3.896   1.868   3.195  0.9788  0.4940 -0.8349
 5995TIP3   OH217948   0.294   2.259   2.086  0.1390  0.1779  0.1259
 5995TIP3    H117949   0.240   2.183   2.106 -1.1301  1.2945  1.1432
 5995TIP3    H217950   0.383   2.232   2.108 -0.1896 -1.2312 -0.2159
 5996TIP3   OH217951   5.269   0.141   0.062  0.0401 -0.1590 -0.7820
 5996TIP3    H117952   5.186   0.125   0.017  0.3443 -1.0678 -1.0467
 5996TIP3    H217953   5.316   0.202   0.005 -0.7928  1.0810 -0.1885
 5997TIP3   OH217954   0.049   1.461   2.616 -0.0018  0.2526 -0.3396
 5997TIP3    H117955   0.139   1.487   2.597 -0.0812  0.3231 -0.6257
 5997TIP3    H217956   0.051   1.430   2.707 -0.1125  2.2046  0.3670
 5998TIP3   OH217957   0.275   4.792   5.536  0.4451  0.0776 -0.1517
 5998TIP3    H117958   0.314   4.832   5.614  1.1798 -0.7076 -0.1069
 5998TIP3    H217959   0.281   4.860   5.469  1.1921  0.2262  0.0622
 5999TIP3   OH217960   5.288   6.536   3.048 -0.1142 -0.2838  0.2062
 5999TIP3    H117961   5.382   6.534   3.028 -0.0399  0.4023  0.4647
 5999TIP3    H217962   5.284   6.541   3.144 -0.3925  0.8470  0.1390
 6000TIP3   OH217963   6.164   6.510   2.386  0.2669  0.1339  0.3000
 6000TIP3    H117964   6.090   6.474   2.337  1.8044 -0.8945 -1.4256
 6000TIP3    H217965   6.163   6.604   2.365  0.7464 -0.2379 -1.6449
 6001TIP3   OH217966   0.085   3.516   2.547  0.5263  0.1098  0.3505
 6001TIP3    H117967   0.105   3.427   2.518  0.0111  0.1084 -0.0024
 6001TIP3    H217968  -0.009   3.525   2.535  0.6385  0.8517 -0.0345
 6002TIP3   OH217969   4.988   1.705   0.680  0.2368  0.2256  0.5906
 6002TIP3    H117970   4.986   1.797   0.654  1.4367 -0.2332 -1.3091
 6002TIP3    H217971   5.035   1.705   0.764  1.5384  1.2019 -0.1190
 6003TIP3   OH217972   6.444   3.250   3.458 -0.6087 -0.0974 -0.6042
 6003TIP3    H117973   6.445   3.300   3.539 -1.3736 -0.6767 -0.2329
 6003TIP3    H217974   6.456   3.316   3.389 -1.1392  0.5378 -0.1004
 6004TIP3   OH217975   3.991   1.057   1.028 -0.3769  0.0762  0.1003
 6004TIP3    H117976   4.024   1.101   0.950  1.8087 -0.4618  0.6725
 6004TIP3    H217977   3.912   1.106   1.051 -0.5991  0.7699 -1.9370
 6005TIP3   OH217978   6.956   4.630   3.893 -0.9570 -0.2971  0.0434
 6005TIP3    H117979   6.999   4.683   3.826 -0.4026  0.3487  0.8873
 6005TIP3    H217980   6.865   4.625   3.864 -0.4852 -1.1133 -1.4143
 6006TIP3   OH217981   5.769   2.664   2.382 -0.0039  0.5446 -0.2579
 6006TIP3    H117982   5.796   2.584   2.426  2.5873  1.7726  0.5782
 6006TIP3    H217983   5.811   2.661   2.296  0.0370  0.9700 -0.2572
 6007TIP3   OH217984   3.390   1.873   1.037 -0.8146 -0.1348 -0.4669
 6007TIP3    H117985   3.467   1.824   1.008 -1.3718 -0.0602 -2.1666
 6007TIP3    H217986   3.420   1.964   1.043 -0.1649 -0.4339  1.2529
 6008TIP3   OH217987   2.574   5.611   3.359  0.3208 -0.0990 -0.2715
 6008TIP3    H117988   2.487   5.595   3.394  1.4331 -0.6539  2.5092
 6008TIP3    H217989   2.616   5.525   3.359  0.6330 -0.0014 -2.4598
 6009TIP3   OH217990   2.645   1.462   5.842  0.2794  0.0582  0.3546
 6009TIP3    H117991   2.588   1.417   5.779  0.6941  1.5487 -1.1630
 6009TIP3    H217992   2.693   1.391   5.885  0.8501 -1.0321 -1.8860
 6010TIP3   OH217993   5.489   1.848   2.646  0.0332  0.4686  0.4041
 6010TIP3    H117994   5.540   1.791   2.704  0.1384 -1.5864 -1.5820
 6010TIP3    H217995   5.535   1.844   2.562 -2.3014  0.0676 -0.9322
 6011TIP3   OH217996   3.731   5.107   0.068 -0.2131  0.3897  0.0795
 6011TIP3    H117997   3.695   5.050   0.001 -2.9530 -0.0119  1.7761
 6011TIP3    H217998   3.741   5.051   0.145 -0.0670  1.5293  0.9155
 6012TIP3   OH217999   1.874   5.790   4.357  0.4403  0.7688  0.0369
 6012TIP3    H118000   1.933   5.865   4.348 -0.3728  1.3815 -0.3895
 6012TIP3    H218001   1.786   5.828   4.345  0.0489 -0.3587 -0.7677
 6013TIP3   OH218002   3.228   1.728   4.717  0.0160  0.2303  0.2655
 6013TIP3    H118003   3.296   1.662   4.729  1.1178  1.4003  0.6393
 6013TIP3    H218004   3.167   1.688   4.654  1.3052 -0.6406 -0.4765
 6014TIP3   OH218005   4.905   6.760   3.402  0.2355 -1.0202  0.4217
 6014TIP3    H118006   4.943   6.797   3.322  0.2106  0.7911  1.1917
 6014TIP3    H218007   4.885   6.837   3.456  0.8376 -2.2131  2.4401
 6015TIP3   OH218008   0.513   1.798   1.173  0.3422  0.7100 -0.1328
 6015TIP3    H118009   0.579   1.786   1.105  1.6087  0.7993  1.0371
 6015TIP3    H218010   0.446   1.852   1.132  1.0692  0.7695 -1.2977
 6016TIP3   OH218011   1.294   5.432   2.290 -0.0695 -0.1179 -0.0482
 6016TIP3    H118012   1.300   5.338   2.301 -1.0527 -0.2342 -0.3882
 6016TIP3    H218013   1.200   5.450   2.285  0.1142  0.8297 -0.4142
 6017TIP3   OH218014   1.773   3.016   1.838  0.1211  0.0736  0.3734
 6017TIP3    H118015   1.707   2.958   1.874  1.8444 -0.4693  2.8710
 6017TIP3    H218016   1.766   3.096   1.890 -0.6619  1.3162 -1.5063
 6018TIP3   OH218017   1.228   2.818   0.787  0.1418  0.2503  0.2472
 6018TIP3    H118018   1.269   2.895   0.749  0.8268  0.3977  1.2492
 6018TIP3    H218019   1.291   2.786   0.851 -0.2317 -1.0059  0.0163
 6019TIP3   OH218020   4.083   5.956   0.705 -0.3188  0.1472 -0.0765
 6019TIP3    H118021   3.996   5.928   0.735  0.1486 -1.3235 -0.0125
 6019TIP3    H218022   4.140   5.940   0.781  0.5424 -1.8510 -1.0572
 6020TIP3   OH218023   4.243   2.977   3.861  0.4646 -0.3919 -0.1146
 6020TIP3    H118024   4.331   2.942   3.845  0.3917 -1.3386  1.3394
 6020TIP3    H218025   4.258   3.065   3.895  0.9674 -1.1387  1.6939
 6021TIP3   OH218026   0.748   2.595   3.118  0.0140 -0.3994  0.6269
 6021TIP3    H118027   0.767   2.589   3.024  1.7068 -0.0210  0.8994
 6021TIP3    H218028   0.687   2.669   3.126 -0.3194 -0.5790 -0.1901
 6022TIP3   OH218029   3.841   2.470   4.242  0.3789 -0.4423 -0.4298
 6022TIP3    H118030   3.771   2.502   4.184  0.8551  2.2983  0.3419
 6022TIP3    H218031   3.873   2.390   4.200 -1.2331 -0.1439 -2.3669
 6023TIP3   OH218032   0.466   6.497   3.411 -0.4155 -0.3708 -0.0633
 6023TIP3    H118033   0.466   6.549   3.331  0.2801 -0.5287 -0.1770
 6023TIP3    H218034   0.506   6.554   3.477 -0.4776 -0.4366  0.0319
 6024TIP3   OH218035   5.931   3.881   0.699  0.2148  0.0083 -0.3299
 6024TIP3    H118036   5.864   3.885   0.768  0.0989  0.5356 -0.4719
 6024TIP3    H218037   6.006   3.927   0.737  0.8373 -1.3885  0.1924
 6025TIP3   OH218038   4.918   4.417   4.649 -0.0887 -0.5979  0.6156
 6025TIP3    H118039   4.845   4.407   4.710 -0.4619 -2.1214 -0.0441
 6025TIP3    H218040   4.899   4.499   4.603 -0.2379  0.1377  1.9221
 6026TIP3   OH218041   0.333   1.504   2.578 -0.0971  0.6149 -0.2230
 6026TIP3    H118042   0.400   1.563   2.544 -0.2991  1.2364  0.4472
 6026TIP3    H218043   0.335   1.517   2.673 -1.1154  0.5905 -0.1899
 6027TIP3   OH218044   0.611   4.298   1.403 -0.1084  1.0482 -0.6917
 6027TIP3    H118045   0.589   4.294   1.496  0.9532 -0.6405 -0.4722
 6027TIP3    H218046   0.667   4.375   1.395  1.0755  0.3302  0.3853
 6028TIP3   OH218047   1.071   0.164   3.221 -0.7935  0.4753  0.0750
 6028TIP3    H118048   1.053   0.081   3.264  2.6665 -0.3950  0.0638
 6028TIP3    H218049   1.072   0.143   3.127  2.9328 -0.3105  0.1369
 6029TIP3   OH218050   4.056   6.672   2.168 -0.2917 -0.1790  0.0287
 6029TIP3    H118051   4.078   6.689   2.076  0.8384 -1.8903 -0.0724
 6029TIP3    H218052   3.997   6.596   2.165  1.5934 -1.7819  0.7506
 6030TIP3   OH218053   0.682   6.430   3.987  0.4709 -0.7549  0.2103
 6030TIP3    H118054   0.686   6.413   3.893  2.3575 -0.9574  0.2993
 6030TIP3    H218055   0.676   6.343   4.027  0.1671 -0.6891  0.3167
 6031TIP3   OH218056   1.729   6.715   0.643  0.0429  0.0082 -0.5021
 6031TIP3    H118057   1.788   6.641   0.656 -0.3444 -0.3428 -0.7382
 6031TIP3    H218058   1.642   6.681   0.664 -0.0599  0.5739  0.0225
 6032TIP3   OH218059   2.706   6.434   3.518 -0.0615 -0.2265 -0.0445
 6032TIP3    H118060   2.746   6.511   3.558 -0.6486 -0.3863  0.8837
 6032TIP3    H218061   2.730   6.439   3.426  1.0779  0.3227  0.2666
 6033TIP3   OH218062   5.918   4.558   4.479 -0.2836  0.0064 -0.1048
 6033TIP3    H118063   5.995   4.572   4.534 -0.4911 -1.2253  0.5286
 6033TIP3    H218064   5.951   4.507   4.405 -0.6594 -1.4777  0.7120
 6034TIP3   OH218065   5.849   0.337   4.165  0.4987  0.0547  0.3521
 6034TIP3    H118066   5.825   0.385   4.244  1.0394  0.5509  0.2229
 6034TIP3    H218067   5.811   0.250   4.177 -0.3946  0.4742  0.6407
 6035TIP3   OH218068   1.672   0.977   0.584 -0.3847 -0.1508  0.3315
 6035TIP3    H118069   1.621   1.002   0.661  0.4277  1.7754  0.2973
 6035TIP3    H218070   1.649   0.885   0.569 -1.6812 -0.1437  1.9716
 6036TIP3   OH218071   2.473   1.885   4.248  0.2232  0.3236 -0.3601
 6036TIP3    H118072   2.405   1.947   4.221  0.5064  1.5584  1.5883
 6036TIP3    H218073   2.425   1.814   4.289  0.0027  0.0546 -1.0563
 6037TIP3   OH218074   2.017   6.048   5.086 -0.2427 -0.2409 -0.0565
 6037TIP3    H118075   1.955   5.985   5.052  0.6005  0.2767 -2.7901
 6037TIP3    H218076   2.082   6.059   5.016  0.7557  2.1148  1.1042
 6038TIP3   OH218077   0.965   0.578   2.304 -0.0192  0.0846 -0.4655
 6038TIP3    H118078   0.951   0.485   2.287  0.2130  0.3547 -2.2505
 6038TIP3    H218079   1.014   0.610   2.228 -0.2336  1.7026  0.0407
 6039TIP3   OH218080   4.548   3.074   4.528 -0.1016  0.1008 -0.2473
 6039TIP3    H118081   4.605   3.065   4.604 -1.5021  3.0450  1.3221
 6039TIP3    H218082   4.488   2.999   4.533  1.1230 -0.8748  0.3049
 6040TIP3   OH218083   1.438   1.572   1.865 -0.0733  0.2679 -0.0158
 6040TIP3    H118084   1.360   1.519   1.848 -0.0258 -0.0830  0.7830
 6040TIP3    H218085   1.404   1.655   1.897 -0.1374 -0.3856  1.7368
 6041TIP3   OH218086   3.942   2.984   1.836  0.1805 -0.3398  0.0934
 6041TIP3    H118087   3.993   2.987   1.755  1.4354 -0.4632  0.8435
 6041TIP3    H218088   3.912   2.893   1.843 -0.7290 -0.1069 -0.6938
 6042TIP3   OH218089   4.956   2.702   4.592 -0.3985 -0.5408 -0.1383
 6042TIP3    H118090   4.870   2.716   4.554 -0.9704 -1.1658  0.8875
 6042TIP3    H218091   5.014   2.687   4.517 -0.8213  1.5401 -0.9500
 6043TIP3   OH218092   6.151   5.557   0.442  0.0704 -0.0874  0.1298
 6043TIP3    H118093   6.093   5.633   0.449 -1.0631 -1.0236  1.3441
 6043TIP3    H218094   6.215   5.569   0.512  0.7497  0.4236 -0.5594
 6044TIP3   OH218095   0.556   4.386   4.405 -0.4136  0.1047  0.3140
 6044TIP3    H118096   0.486   4.321   4.395  0.8238 -1.3946  0.8726
 6044TIP3    H218097   0.599   4.387   4.319  0.0447 -0.4244  0.5291
 6045TIP3   OH218098   0.730   6.130   4.011  0.4012 -0.6012 -0.4878
 6045TIP3    H118099   0.787   6.078   4.069  0.4299  0.4141  0.4352
 6045TIP3    H218100   0.642   6.101   4.031  0.2634  0.8380  1.3072
 6046TIP3   OH218101   4.180   2.005   5.560  0.3622 -1.1908 -0.4468
 6046TIP3    H118102   4.216   1.997   5.648 -1.9572 -0.9577  0.6080
 6046TIP3    H218103   4.123   2.082   5.564 -0.7874 -1.9129 -1.7441
 6047TIP3   OH218104   1.879   2.557   0.144 -0.2123 -0.6516 -0.0195
 6047TIP3    H118105   1.942   2.630   0.143  2.0284 -2.4085 -2.7608
 6047TIP3    H218106   1.799   2.594   0.106  1.3850  0.1400 -2.9642
 6048TIP3   OH218107   5.640   3.453   5.654 -0.6724  0.2714  0.2336
 6048TIP3    H118108   5.653   3.435   5.747 -1.6499 -0.8182  0.1859
 6048TIP3    H218109   5.720   3.421   5.612 -1.2029 -1.4802  0.4710
 6049TIP3   OH218110   3.280   3.814   5.339 -0.2047 -0.1876  0.2733
 6049TIP3    H118111   3.359   3.856   5.372  0.1723 -0.3299 -0.4220
 6049TIP3    H218112   3.308   3.725   5.318 -1.2699 -1.2404  2.8751
 6050TIP3   OH218113   2.550   1.259   2.707  0.2750  0.5996  0.2055
 6050TIP3    H118114   2.480   1.312   2.744 -0.5088  0.1246 -0.5761
 6050TIP3    H218115   2.579   1.203   2.780  1.9019  2.8180  1.3850
 6051TIP3   OH218116   4.352   3.635   3.981  0.6089 -0.3694  0.0174
 6051TIP3    H118117   4.287   3.565   3.969 -0.6691  1.0099 -1.6207
 6051TIP3    H218118   4.350   3.684   3.898  1.8417  1.2962  0.9202
 6052TIP3   OH218119   2.110   1.083   3.405 -0.3183  0.1112  0.3675
 6052TIP3    H118120   2.054   1.005   3.404 -0.1331 -0.0243  0.5632
 6052TIP3    H218121   2.137   1.094   3.314 -0.8776  0.3315  0.2261
 6053TIP3   OH218122   3.164   3.200   3.582  0.0343 -0.6140  0.1362
 6053TIP3    H118123   3.138   3.141   3.652  1.0271 -1.7962 -0.4705
 6053TIP3    H218124   3.259   3.203   3.587  0.0941 -0.4360 -0.9400
 6054TIP3   OH218125   1.033   0.829   5.276  0.0293  0.0589  0.1284
 6054TIP3    H118126   0.987   0.842   5.194 -1.4345  0.7684  1.0219
 6054TIP3    H218127   0.973   0.863   5.343  2.0573  1.5468  1.3096
 6055TIP3   OH218128   3.651   4.145   0.852  0.0728 -0.5987 -0.0484
 6055TIP3    H118129   3.620   4.057   0.828  0.7565 -0.7646 -0.3577
 6055TIP3    H218130   3.654   4.193   0.770 -1.5775  0.1526  0.2935
 6056TIP3   OH218131   5.919   2.940   5.521  0.2487  0.0063  0.2844
 6056TIP3    H118132   5.895   2.866   5.464 -0.3493 -0.0769  0.6384
 6056TIP3    H218133   6.004   2.968   5.488  1.2364 -1.8427  1.1212
 6057TIP3   OH218134   5.999   3.469   3.221  0.1331  0.8604  0.3315
 6057TIP3    H118135   6.045   3.469   3.137  0.3267 -0.6490  0.4158
 6057TIP3    H218136   6.057   3.421   3.280 -1.1676 -0.3716  0.6476
 6058TIP3   OH218137   3.329   3.825   0.534  0.5573  0.5560  0.0286
 6058TIP3    H118138   3.275   3.761   0.487  1.7713 -1.3672  1.1211
 6058TIP3    H218139   3.419   3.803   0.509  1.0485  1.4258  0.9428
 6059TIP3   OH218140   0.862   6.187   1.915 -0.2850 -0.6333 -0.7697
 6059TIP3    H118141   0.867   6.273   1.957  0.4721 -0.1525 -1.8140
 6059TIP3    H218142   0.808   6.135   1.975 -0.4260  0.4421  0.0775
 6060TIP3   OH218143   2.488   2.833   1.257 -0.1451 -0.2353  0.1632
 6060TIP3    H118144   2.450   2.778   1.188 -2.4484 -1.2345  2.0760
 6060TIP3    H218145   2.412   2.870   1.302  1.3099  1.2221  1.5246
 6061TIP3   OH218146   6.250   5.534   1.458  0.2442  0.1529 -0.0337
 6061TIP3    H118147   6.300   5.570   1.384 -0.2887 -1.5894 -1.3389
 6061TIP3    H218148   6.253   5.439   1.443 -1.9738 -0.0938  0.8095
 6062TIP3   OH218149   3.386   6.646   5.863 -0.3215  0.5124 -0.2231
 6062TIP3    H118150   3.381   6.550   5.870  2.3905  0.3210  0.6383
 6062TIP3    H218151   3.425   6.661   5.777 -1.1523  0.8959 -0.5401
 6063TIP3   OH218152   5.166   6.522   3.301 -0.5785  0.0845 -0.1623
 6063TIP3    H118153   5.162   6.597   3.361 -1.8293  0.0840 -0.2160
 6063TIP3    H218154   5.160   6.445   3.357 -1.3639  0.0774 -0.2393
 6064TIP3   OH218155   3.195   0.042   5.648 -0.7351 -0.2382  0.4583
 6064TIP3    H118156   3.118   0.040   5.705 -1.1888  0.7459 -0.0856
 6064TIP3    H218157   3.226   0.133   5.652  0.4162 -0.6253  0.6814
 6065TIP3   OH218158   1.752   2.017   1.315  0.0247  0.4642 -0.8356
 6065TIP3    H118159   1.690   2.081   1.351 -0.0357 -0.3426  0.5515
 6065TIP3    H218160   1.827   2.070   1.287 -0.2838  1.2054 -0.3052
 6066TIP3   OH218161   1.837   2.158   2.129  0.0011  0.2026 -0.1516
 6066TIP3    H118162   1.775   2.090   2.101 -0.9756  0.8753  0.3190
 6066TIP3    H218163   1.897   2.112   2.188  0.9062 -0.7932 -1.7491
 6067TIP3   OH218164   1.724   1.525   1.557  0.1292  0.6270 -0.1442
 6067TIP3    H118165   1.689   1.581   1.488 -0.4388 -0.2356 -0.5881
 6067TIP3    H218166   1.646   1.488   1.599  0.4888  0.2735  0.2208
 6068TIP3   OH218167   3.060   4.719   5.274  0.3228 -0.1922  0.4775
 6068TIP3    H118168   3.004   4.757   5.342  0.6708 -1.2920  1.4158
 6068TIP3    H218169   3.005   4.651   5.234 -0.1405  0.9360 -0.8830
 6069TIP3   OH218170   6.868   1.299   2.292  0.4298  0.5285  0.0296
 6069TIP3    H118171   6.869   1.214   2.336 -1.1595  0.6133  0.2667
 6069TIP3    H218172   6.938   1.349   2.334 -1.3349  0.7936  2.8693
 6070TIP3   OH218173   3.893   1.965   3.466 -0.3533 -0.0835 -0.3785
 6070TIP3    H118174   3.861   1.984   3.378 -1.6964  2.7888  0.6089
 6070TIP3    H218175   3.908   1.871   3.466  0.0840 -0.1502 -3.7678
 6071TIP3   OH218176   5.463   0.197   4.227 -0.1729 -0.1661  0.6042
 6071TIP3    H118177   5.550   0.173   4.195  0.2778 -1.1185  2.4430
 6071TIP3    H218178   5.446   0.137   4.299 -1.6769  1.0612  1.3274
 6072TIP3   OH218179   7.037   4.440   3.632  0.2033 -0.2252 -0.9767
 6072TIP3    H118180   7.005   4.394   3.710  0.7572 -0.1339 -0.6857
 6072TIP3    H218181   7.051   4.371   3.568  0.7226 -0.4272 -0.6493
 6073TIP3   OH218182   0.528   6.528   0.773 -0.1597  0.4950  0.0699
 6073TIP3    H118183   0.605   6.474   0.754  1.1460  0.8404  3.5030
 6073TIP3    H218184   0.465   6.507   0.704  2.8439 -0.0544 -2.7408
 6074TIP3   OH218185   5.341   5.890   4.495 -0.2500  0.5499  0.3224
 6074TIP3    H118186   5.428   5.851   4.484 -0.9109 -1.9754  2.9014
 6074TIP3    H218187   5.281   5.828   4.453 -0.9266  1.9716 -0.9109
 6075TIP3   OH218188   2.127   5.320   1.512  0.4715  0.5355  0.1717
 6075TIP3    H118189   2.038   5.291   1.535  0.1651  1.8477  0.7248
 6075TIP3    H218190   2.125   5.328   1.417 -0.1765  1.0591  0.2189
 6076TIP3   OH218191   4.257   2.555   5.313  0.3531 -0.3918 -0.3578
 6076TIP3    H118192   4.280   2.622   5.377  0.1578  0.4173 -1.1107
 6076TIP3    H218193   4.316   2.572   5.239  0.3165 -1.0706 -0.5502
 6077TIP3   OH218194   2.734   1.159   1.349 -0.2883  0.1041  0.7420
 6077TIP3    H118195   2.736   1.250   1.318  1.9918 -0.3229 -0.5791
 6077TIP3    H218196   2.677   1.114   1.287  1.4250 -0.0362 -0.7868
 6078TIP3   OH218197   1.476   2.578   1.762 -0.0037 -0.5186 -0.4442
 6078TIP3    H118198   1.429   2.502   1.730 -1.2064  0.5463 -1.3148
 6078TIP3    H218199   1.441   2.593   1.850 -0.9317 -0.0560 -0.8807
 6079TIP3   OH218200   3.884   5.734   3.615 -0.9812  0.2229  0.2787
 6079TIP3    H118201   3.864   5.759   3.525  1.4807 -0.8799 -0.6608
 6079TIP3    H218202   3.965   5.780   3.636 -1.8229  0.9373  2.1931
 6080TIP3   OH218203   1.506   3.876   4.843  0.5713  0.0543 -0.5402
 6080TIP3    H118204   1.575   3.856   4.907  0.6685  0.3557 -0.5468
 6080TIP3    H218205   1.541   3.951   4.794 -0.0212  0.5947 -0.1421
 6081TIP3   OH218206   3.957   0.103   0.079 -0.7241 -0.3580  0.3545
 6081TIP3    H118207   3.900   0.165   0.033 -1.1573  0.7190  2.2289
 6081TIP3    H218208   4.043   0.146   0.080 -1.0983  0.4303  1.9396
 6082TIP3   OH218209   2.335   0.852   5.359  0.4971 -0.6616 -0.1260
 6082TIP3    H118210   2.332   0.869   5.265  1.2618 -1.9894 -0.4140
 6082TIP3    H218211   2.271   0.783   5.373 -0.6064  0.4657  0.5741
 6083TIP3   OH218212   5.958   0.394   1.436  0.2326  0.3837 -1.0262
 6083TIP3    H118213   5.965   0.482   1.474 -1.1558  0.6099 -1.2229
 6083TIP3    H218214   5.884   0.400   1.376  0.7937 -0.6548 -1.8508
 6084TIP3   OH218215   2.583   0.318   1.650 -0.1580 -0.0457  0.3119
 6084TIP3    H118216   2.672   0.348   1.632 -0.1841 -1.2611 -2.4134
 6084TIP3    H218217   2.594   0.227   1.678 -0.5338 -0.3676 -0.5443
 6085TIP3   OH218218   2.941   5.047   0.409 -0.3457  0.4591  0.3361
 6085TIP3    H118219   2.910   4.995   0.483  0.7848 -0.8187 -0.0357
 6085TIP3    H218220   3.027   5.078   0.436 -0.7199  1.5794  0.2740
 6086TIP3   OH218221   0.619   3.922   2.586  0.0533 -0.1492 -0.4873
 6086TIP3    H118222   0.588   3.957   2.503 -1.0129 -0.1526 -0.1015
 6086TIP3    H218223   0.558   3.956   2.651  1.2043  0.3298  0.3850
 6087TIP3   OH218224   6.608   6.676   2.361 -0.0642  0.0804 -0.0423
 6087TIP3    H118225   6.678   6.720   2.409 -0.3030 -0.6860  1.0233
 6087TIP3    H218226   6.624   6.583   2.375 -0.4757 -0.1431 -0.9801
 6088TIP3   OH218227   0.400   2.562   2.110  0.0550  0.1822  0.2783
 6088TIP3    H118228   0.305   2.569   2.119 -0.5374 -1.1964 -3.4398
 6088TIP3    H218229   0.428   2.649   2.083 -0.0416  0.6566  1.6122
 6089TIP3   OH218230   3.114   1.310   1.454  0.0010 -0.4613 -0.2485
 6089TIP3    H118231   3.109   1.354   1.369 -0.5065 -1.2282 -0.6232
 6089TIP3    H218232   3.144   1.378   1.514  2.7967 -0.4449 -1.4619
 6090TIP3   OH218233   2.366   2.375   0.640 -0.1986 -0.3965  0.3898
 6090TIP3    H118234   2.315   2.431   0.698 -1.2275 -0.8658 -0.0468
 6090TIP3    H218235   2.309   2.360   0.564  1.2879  0.6508 -1.0233
 6091TIP3   OH218236   1.409   2.708   3.735 -0.2695  0.1148  0.0232
 6091TIP3    H118237   1.374   2.626   3.770  0.1776  0.2640  0.8420
 6091TIP3    H218238   1.423   2.690   3.642 -0.1624 -0.7467  0.1920
 6092TIP3   OH218239   5.587   4.155   2.258  0.0135  0.2618  0.0838
 6092TIP3    H118240   5.648   4.135   2.187  1.4815  0.9368  1.0944
 6092TIP3    H218241   5.508   4.105   2.237  0.9894 -0.8332 -1.1688
 6093TIP3   OH218242   6.162   3.405   3.427  0.0506 -0.7782  0.2174
 6093TIP3    H118243   6.194   3.492   3.451 -0.1292  0.5017 -3.5985
 6093TIP3    H218244   6.238   3.347   3.440  1.9074  0.9575 -2.0670
 6094TIP3   OH218245   2.923   1.670   2.580  0.4452 -0.2674  0.0589
 6094TIP3    H118246   2.985   1.619   2.632  2.9778  1.3177 -1.1970
 6094TIP3    H218247   2.940   1.644   2.490  0.0315  0.9979 -0.4001
 6095TIP3   OH218248   5.232   0.404   1.797 -0.5739  0.6343 -0.0273
 6095TIP3    H118249   5.218   0.496   1.777 -0.9465  0.1459 -2.2599
 6095TIP3    H218250   5.306   0.379   1.741 -0.8276 -0.5473  0.1510
 6096TIP3   OH218251   5.174   4.180   4.656  0.0429  0.4140 -0.1757
 6096TIP3    H118252   5.266   4.179   4.680 -0.0893  1.2666  0.4222
 6096TIP3    H218253   5.148   4.088   4.656  0.1505  0.2843  2.7029
 6097TIP3   OH218254   1.267   2.169   2.474 -0.2963  0.3989  0.0925
 6097TIP3    H118255   1.208   2.165   2.399 -0.6641 -0.9177  0.4262
 6097TIP3    H218256   1.246   2.092   2.526  0.5381  0.8286  1.1217
 6098TIP3   OH218257   2.403   5.748   2.080 -0.0161  0.1846 -0.1106
 6098TIP3    H118258   2.423   5.841   2.068 -0.0519  0.0619 -1.3272
 6098TIP3    H218259   2.489   5.706   2.089 -0.0042  0.3427  0.5299
 6099TIP3   OH218260   5.584   5.685   2.834 -0.6480  0.3461 -0.0584
 6099TIP3    H118261   5.618   5.613   2.887  0.1364 -1.2597 -2.5352
 6099TIP3    H218262   5.500   5.652   2.801  0.2088  0.0013 -2.0857
 6100TIP3   OH218263   3.170   0.518   3.799 -0.4591 -0.7638 -0.0947
 6100TIP3    H118264   3.249   0.517   3.853  0.5434 -0.2659 -1.5050
 6100TIP3    H218265   3.200   0.495   3.711 -1.3914  1.9314 -1.2308
 6101TIP3   OH218266   5.090   4.699   4.669  0.7870  0.2963 -0.5372
 6101TIP3    H118267   5.057   4.788   4.680 -1.3212 -0.2444 -1.8051
 6101TIP3    H218268   5.026   4.644   4.714  0.4264 -0.7410 -2.2191
 6102TIP3   OH218269   2.184   4.653   0.630  0.0847 -0.4630  0.2745
 6102TIP3    H118270   2.158   4.739   0.599 -0.7916 -0.1027  1.9045
 6102TIP3    H218271   2.275   4.644   0.601  0.0096  0.7524 -0.4151
 6103TIP3   OH218272   7.000   5.284   4.253  0.0005  0.0341 -0.8064
 6103TIP3    H118273   6.919   5.234   4.240 -0.5804  1.3019 -2.2476
 6103TIP3    H218274   6.973   5.375   4.251  1.1421  0.4854  1.2151
 6104TIP3   OH218275   6.591   5.920   5.001 -0.0892  0.8279  0.2107
 6104TIP3    H118276   6.584   5.827   5.022  1.4689  0.9979  1.7470
 6104TIP3    H218277   6.505   5.944   4.969 -0.3582 -1.2728 -0.8263
 6105TIP3   OH218278   0.532   0.965   5.385  0.2986 -0.3457 -0.3769
 6105TIP3    H118279   0.513   0.889   5.330 -0.3064 -0.1175 -0.4907
 6105TIP3    H218280   0.453   0.977   5.438 -0.6241  1.6696 -2.0606
 6106TIP3   OH218281   2.405   5.333   2.700 -0.0621  0.4489 -0.0387
 6106TIP3    H118282   2.411   5.342   2.795 -0.7907  0.3322  0.0277
 6106TIP3    H218283   2.496   5.327   2.670  0.1662  0.2360  0.6743
 6107TIP3   OH218284   5.862   3.229   0.802 -0.5313  0.1358 -0.0752
 6107TIP3    H118285   5.943   3.281   0.795 -1.3385  1.3095 -1.1673
 6107TIP3    H218286   5.877   3.154   0.745  0.1442 -0.1673  0.4827
 6108TIP3   OH218287   4.032   1.798   1.546 -0.1737  0.2674  0.6125
 6108TIP3    H118288   4.005   1.725   1.602 -0.0769 -0.2147  0.0436
 6108TIP3    H218289   4.044   1.758   1.459  1.8977  0.5474  0.7166
 6109TIP3   OH218290   2.877   3.040   0.303 -0.1076  0.0663  0.2714
 6109TIP3    H118291   2.882   3.020   0.397 -3.8810 -0.6963  0.4757
 6109TIP3    H218292   2.887   3.135   0.298 -1.1473  0.2717  1.6135
 6110TIP3   OH218293   0.703   5.460   1.062  0.5247 -0.0562  0.5526
 6110TIP3    H118294   0.679   5.528   1.000 -2.6174 -0.6847  0.9177
 6110TIP3    H218295   0.745   5.393   1.009 -1.3399 -0.2057 -0.8115
 6111TIP3   OH218296   3.699   2.766   2.103 -0.0240  0.0259 -0.0866
 6111TIP3    H118297   3.709   2.861   2.094 -0.6863  0.1318  0.2437
 6111TIP3    H218298   3.645   2.755   2.181  1.1512 -0.6772  0.6595
 6112TIP3   OH218299   0.041   2.353   4.970 -0.0834 -0.6531  0.1326
 6112TIP3    H118300  -0.019   2.308   5.029 -1.4435 -0.6621 -1.2093
 6112TIP3    H218301   0.050   2.441   5.008 -2.2803 -0.1013 -0.4675
 6113TIP3   OH218302   3.693   2.567   1.421 -0.8309  0.3312 -0.2601
 6113TIP3    H118303   3.643   2.519   1.354 -3.6772  0.7205  1.4078
 6113TIP3    H218304   3.643   2.647   1.435 -0.4012  0.2294  2.3694
 6114TIP3   OH218305   2.279   0.853   3.861  0.0234 -0.2154  0.3039
 6114TIP3    H118306   2.271   0.760   3.884  0.6916 -0.2271  0.5008
 6114TIP3    H218307   2.195   0.875   3.822 -0.3201 -0.7821  0.7050
 6115TIP3   OH218308   0.591   2.172   1.639  0.1102 -0.0922 -0.0094
 6115TIP3    H118309   0.507   2.192   1.597  0.6923 -1.1503 -1.7821
 6115TIP3    H218310   0.567   2.114   1.712 -0.9013  1.6673  1.1606
 6116TIP3   OH218311   7.061   2.510   0.894 -0.3842 -0.1601  0.0106
 6116TIP3    H118312   7.023   2.548   0.973 -0.5272 -1.1777  0.4422
 6116TIP3    H218313   7.134   2.567   0.873  1.3892 -1.3573  2.4656
 6117TIP3   OH218314   1.520   5.516   2.984 -0.4145  0.1932  0.1374
 6117TIP3    H118315   1.574   5.541   2.909  0.4993  0.7551  0.9649
 6117TIP3    H218316   1.506   5.598   3.032 -0.0720 -0.3422  1.1724
 6118TIP3   OH218317   2.598   2.392   5.855 -0.0473  0.7257 -0.1335
 6118TIP3    H118318   2.580   2.410   5.948 -1.1242  0.3045 -0.2401
 6118TIP3    H218319   2.675   2.336   5.856 -1.0457 -0.7059  0.6377
 6119TIP3   OH218320   6.915   5.063   0.116 -0.4042 -0.0119 -0.4751
 6119TIP3    H118321   7.005   5.041   0.094  0.2332 -1.0361  2.5585
 6119TIP3    H218322   6.867   4.981   0.104 -0.8299  0.3840 -1.5369
 6120TIP3   OH218323   5.767   6.275   0.987 -0.0177 -0.3945  0.4212
 6120TIP3    H118324   5.796   6.221   1.060 -1.5235 -0.6670  0.8386
 6120TIP3    H218325   5.678   6.300   1.009 -0.6569 -0.8122 -1.5124
 6121TIP3   OH218326   1.819   4.059   5.382  0.4850  0.3072 -0.0971
 6121TIP3    H118327   1.792   4.064   5.474  0.8895  0.3321  0.0234
 6121TIP3    H218328   1.808   4.148   5.349  0.2000  0.2664 -0.1123
 6122TIP3   OH218329   4.541   0.271   0.801 -0.4013  0.4865  0.7193
 6122TIP3    H118330   4.630   0.239   0.809 -0.1488  0.9029 -0.2919
 6122TIP3    H218331   4.487   0.192   0.805  0.3492 -0.8263 -5.1493
 6123TIP3   OH218332   3.596   5.308   1.954  0.4671  0.4149  0.7795
 6123TIP3    H118333   3.681   5.321   1.911  0.7743 -1.9371  0.5708
 6123TIP3    H218334   3.533   5.309   1.883  0.4501  0.9369  0.7976
 6124TIP3   OH218335   1.820   0.626   0.044  0.1588  0.7150 -0.4805
 6124TIP3    H118336   1.862   0.711   0.034 -1.3932  1.4784 -0.8085
 6124TIP3    H218337   1.769   0.615  -0.036 -0.0038 -0.3345 -0.2460
 6125TIP3   OH218338   5.404   0.959   5.154 -0.3408  0.3075 -0.7188
 6125TIP3    H118339   5.351   0.898   5.104  0.2948 -0.7133 -0.1906
 6125TIP3    H218340   5.468   0.904   5.199 -0.0803  1.3081  0.1946
 6126TIP3   OH218341   7.194   3.537   5.019 -0.3111  0.1353 -0.0375
 6126TIP3    H118342   7.157   3.556   4.933  1.0438  0.0483 -0.6816
 6126TIP3    H218343   7.286   3.515   5.000 -0.0843 -0.2312  1.3985
 6127TIP3   OH218344   3.485   6.325   3.639  0.1301 -0.1725  0.0731
 6127TIP3    H118345   3.399   6.359   3.665 -0.5174 -1.6367 -0.0268
 6127TIP3    H218346   3.495   6.351   3.548  0.9686  2.2060  0.7813
 6128TIP3   OH218347   2.912   5.875   0.787  0.2199  0.3833  0.0639
 6128TIP3    H118348   2.949   5.790   0.809  0.5806  0.5271  0.0198
 6128TIP3    H218349   2.824   5.856   0.756 -0.5062  0.2213  2.1379
 6129TIP3   OH218350   3.385   5.967   5.054  0.2695  0.3465 -0.3090
 6129TIP3    H118351   3.315   6.023   5.021 -1.0061  0.2270  1.9994
 6129TIP3    H218352   3.428   5.934   4.975 -0.4387  2.6570 -1.7646
 6130TIP3   OH218353   1.273   4.511   5.324 -0.1686  0.5928 -0.0246
 6130TIP3    H118354   1.181   4.489   5.311  0.0687 -0.4353 -0.0313
 6130TIP3    H218355   1.313   4.501   5.238 -0.1440  1.5571 -0.1352
 6131TIP3   OH218356   4.797   2.006   4.617  0.0765 -0.7522  0.2991
 6131TIP3    H118357   4.811   1.984   4.709  0.2257  0.7415  0.6513
 6131TIP3    H218358   4.737   2.080   4.619  0.8916 -0.0384 -0.7646
 6132TIP3   OH218359   0.940   3.871   2.326  0.2641 -0.2784 -0.3528
 6132TIP3    H118360   0.901   3.783   2.320  1.0691 -0.6705  0.0047
 6132TIP3    H218361   0.943   3.889   2.420 -1.5456  0.9112 -0.4610
 6133TIP3   OH218362   4.009   3.411   2.690  0.6120  0.2805  0.8066
 6133TIP3    H118363   4.077   3.475   2.669 -0.0201  1.1915  1.4680
 6133TIP3    H218364   3.960   3.450   2.762 -0.5916 -0.3682  0.3829
 6134TIP3   OH218365   0.261   0.310   5.761  0.3317 -0.3566  0.1218
 6134TIP3    H118366   0.242   0.298   5.854  0.8004 -0.6471  0.1804
 6134TIP3    H218367   0.307   0.231   5.735 -0.1765 -0.4650 -0.4659
 6135TIP3   OH218368   0.324   2.477   0.984 -0.0968  0.6578 -0.2087
 6135TIP3    H118369   0.288   2.389   0.978 -2.0069  1.4387 -1.0777
 6135TIP3    H218370   0.307   2.504   1.074  1.2759 -0.1349  0.3184
 6136TIP3   OH218371   6.319   5.014   5.054 -0.0914  0.6025 -0.0042
 6136TIP3    H118372   6.313   4.933   5.105 -1.2162  0.7219  0.0736
 6136TIP3    H218373   6.238   5.017   5.003  0.5464  1.0053 -1.0404
 6137TIP3   OH218374   3.029   1.031   4.754 -0.2118 -0.2097  0.5831
 6137TIP3    H118375   3.018   1.125   4.769 -1.0990  0.2636 -2.3244
 6137TIP3    H218376   3.123   1.020   4.737 -0.3668  0.5255 -0.8884
 6138TIP3   OH218377   4.267   5.793   5.285 -0.0915 -0.0110  0.7295
 6138TIP3    H118378   4.273   5.731   5.212  0.2936  0.5752  0.2486
 6138TIP3    H218379   4.343   5.774   5.339 -0.3032 -0.3573  0.9075
 6139TIP3   OH218380   6.775   0.075   5.360  0.2013 -0.1499  0.5907
 6139TIP3    H118381   6.817   0.106   5.280 -1.1641 -0.9692 -0.4890
 6139TIP3    H218382   6.784  -0.020   5.356 -1.2268 -0.3070  0.5963
 6140TIP3   OH218383   5.138   6.587   5.687 -0.6313  0.3559  0.1582
 6140TIP3    H118384   5.079   6.612   5.758 -0.5997  0.4677  0.1450
 6140TIP3    H218385   5.096   6.511   5.646 -1.7737  1.6276 -1.1204
 6141TIP3   OH218386   1.278   3.068   0.340 -0.7735  0.6050  0.2657
 6141TIP3    H118387   1.276   3.147   0.393 -1.5727  1.5698 -1.1622
 6141TIP3    H218388   1.202   3.075   0.283 -0.0772 -0.5173 -0.8435
 6142TIP3   OH218389   0.578   2.503   0.501  0.2234  0.1157  0.2756
 6142TIP3    H118390   0.545   2.585   0.539 -1.7855  0.0691 -1.2341
 6142TIP3    H218391   0.504   2.443   0.504 -0.1582  0.1314 -3.6453
 6143TIP3   OH218392   3.447   0.972   2.478 -0.1152  0.6435 -0.0027
 6143TIP3    H118393   3.460   0.883   2.446 -0.8733  0.4067  0.3196
 6143TIP3    H218394   3.490   0.973   2.563  0.7661  0.8880 -0.4428
 6144TIP3   OH218395   0.227   4.415   5.153  0.1341 -0.2045  0.2294
 6144TIP3    H118396   0.312   4.400   5.112 -0.4390  0.1904 -1.1336
 6144TIP3    H218397   0.177   4.335   5.137 -0.0122 -0.1395  0.3497
 6145TIP3   OH218398   6.110   4.421   4.296  0.0750  0.3275  0.1283
 6145TIP3    H118399   6.060   4.339   4.297 -1.6423  1.3093 -0.5620
 6145TIP3    H218400   6.181   4.406   4.359  0.4737 -2.0514 -0.7656
 6146TIP3   OH218401   3.694   0.665   2.065 -0.0094 -0.3676 -0.1443
 6146TIP3    H118402   3.635   0.616   2.122  0.6931 -1.3637 -0.2411
 6146TIP3    H218403   3.753   0.711   2.125 -0.6254  0.3262 -0.0545
 6147TIP3   OH218404   3.127   1.426   2.974  0.1214 -0.1515 -0.2136
 6147TIP3    H118405   3.192   1.487   2.940  0.5483 -1.1143 -1.1647
 6147TIP3    H218406   3.159   1.340   2.948 -0.9044 -0.7224  0.3724
 6148TIP3   OH218407   0.781   1.881   0.050  0.3187  0.2871  0.1443
 6148TIP3    H118408   0.840   1.923  -0.012  0.3453 -1.0224 -0.7576
 6148TIP3    H218409   0.710   1.847  -0.004  0.1166 -0.5051  0.8846
 6149TIP3   OH218410   0.244   6.674   0.070  0.1653 -0.3505 -0.0887
 6149TIP3    H118411   0.183   6.600   0.075 -0.7807  0.4189 -0.0716
 6149TIP3    H218412   0.193   6.745   0.031  1.8388 -0.4954 -2.7756
 6150TIP3   OH218413   6.426   1.082   4.062  0.4085  0.0436 -0.4164
 6150TIP3    H118414   6.346   1.107   4.016 -0.2617  0.1984  0.7943
 6150TIP3    H218415   6.414   1.114   4.151  0.0505 -3.3447  0.9277
 6151TIP3   OH218416   3.188   1.390   1.194 -0.2963 -0.3145  0.1694
 6151TIP3    H118417   3.129   1.335   1.143  0.8562 -1.9197  0.4923
 6151TIP3    H218418   3.197   1.470   1.142 -1.5773 -0.6353 -0.5945
 6152TIP3   OH218419   0.783   0.066   2.136 -0.1596  0.0657  0.6296
 6152TIP3    H118420   0.831   0.026   2.063 -0.5652 -0.3344  0.5768
 6152TIP3    H218421   0.785  -0.000   2.205 -1.0582 -0.1597  0.4496
 6153TIP3   OH218422   4.334   4.397   3.975  0.4434 -0.4861 -0.1608
 6153TIP3    H118423   4.326   4.459   3.902 -0.0669 -0.7333 -0.3147
 6153TIP3    H218424   4.372   4.319   3.936 -2.4169 -1.6803 -0.8054
 6154TIP3   OH218425   7.109   1.711   1.666 -0.0899  0.1089 -0.0343
 6154TIP3    H118426   7.060   1.705   1.584  0.0315  0.4834 -0.1404
 6154TIP3    H218427   7.179   1.645   1.657 -0.0739  0.1515 -0.2356
 6155TIP3   OH218428   1.746   2.699   2.585  0.2533 -0.1949 -0.1306
 6155TIP3    H118429   1.711   2.784   2.559 -0.6820 -0.7226 -0.6495
 6155TIP3    H218430   1.758   2.651   2.503 -0.7522 -1.1269  0.2448
 6156TIP3   OH218431   4.178   4.557   4.610 -0.5603 -0.6197 -0.1075
 6156TIP3    H118432   4.122   4.620   4.565 -0.1481  0.2822  0.5972
 6156TIP3    H218433   4.242   4.530   4.544 -0.3752  0.1690 -0.2636
 6157TIP3   OH218434   6.081   2.577   4.995 -0.3494  0.0519  0.3996
 6157TIP3    H118435   6.050   2.524   4.921  0.0527 -0.5388  0.6544
 6157TIP3    H218436   6.176   2.574   4.989 -0.2721  2.5721 -0.8936
 6158TIP3   OH218437   6.839   2.232   3.335  0.6773 -0.4732  0.0397
 6158TIP3    H118438   6.868   2.323   3.337 -0.1387 -0.2045  0.8344
 6158TIP3    H218439   6.911   2.182   3.373  0.9300 -0.0914  0.0628
 6159TIP3   OH218440   0.895   1.528   1.601  0.8431  0.2838  0.8021
 6159TIP3    H118441   0.910   1.516   1.695  1.4475  0.1316  0.6914
 6159TIP3    H218442   0.976   1.569   1.569  0.3732  0.9752  0.4649
 6160TIP3   OH218443   0.330   6.486   0.984  0.3942 -0.3970  0.3811
 6160TIP3    H118444   0.354   6.400   1.020  0.4654 -1.7184 -2.5511
 6160TIP3    H218445   0.409   6.517   0.941 -0.0854  0.4204  0.0817
 6161TIP3   OH218446   2.065   5.263   4.544 -0.3577 -0.3102 -0.0897
 6161TIP3    H118447   1.990   5.292   4.492 -0.4722 -1.0736 -0.3656
 6161TIP3    H218448   2.056   5.310   4.627 -1.4331 -0.7510  0.0701
 6162TIP3   OH218449   1.386   2.400   3.578 -0.4314 -0.3698  0.3358
 6162TIP3    H118450   1.376   2.456   3.502 -0.0279 -0.2851  0.3423
 6162TIP3    H218451   1.310   2.420   3.633  0.0248  0.6229  0.6231
 6163TIP3   OH218452   0.632   0.508   4.433 -0.7498 -0.0205 -0.7298
 6163TIP3    H118453   0.538   0.490   4.437 -0.6521 -0.5407 -0.7573
 6163TIP3    H218454   0.674   0.422   4.431 -0.1415  0.1092  2.1341
 6164TIP3   OH218455   4.114   2.138   5.182  0.1717 -0.2063  0.1590
 6164TIP3    H118456   4.165   2.066   5.218  1.3980 -0.3083 -1.6468
 6164TIP3    H218457   4.156   2.218   5.215  1.8770 -0.2759 -1.6424
 6165TIP3   OH218458   3.500   1.074   0.024  0.0180  0.3168  0.2147
 6165TIP3    H118459   3.477   1.132  -0.048  0.0978 -1.7903 -1.5883
 6165TIP3    H218460   3.417   1.037   0.053  0.2673 -1.6957 -1.4000
 6166TIP3   OH218461   7.158   5.743   0.119 -0.1748 -0.0332  0.4750
 6166TIP3    H118462   7.138   5.803   0.047 -2.7883 -1.3884 -0.0851
 6166TIP3    H218463   7.225   5.684   0.084  1.0376  1.3591  0.3841
 6167TIP3   OH218464   6.152   2.897   2.467 -0.3335  0.3303 -0.4051
 6167TIP3    H118465   6.194   2.943   2.540 -0.5006  0.2960 -0.2860
 6167TIP3    H218466   6.074   2.858   2.506  0.0228 -0.4088 -0.3969
 6168TIP3   OH218467   0.821   5.464   4.363 -0.2831 -0.1114 -0.5431
 6168TIP3    H118468   0.905   5.509   4.378 -0.4759  0.3069 -0.7010
 6168TIP3    H218469   0.765   5.494   4.435  0.6931 -3.0082  1.6059
 6169TIP3   OH218470   2.502   6.601   3.374  0.4243  0.4653 -0.4337
 6169TIP3    H118471   2.464   6.514   3.365  1.6592  0.0936 -3.0326
 6169TIP3    H218472   2.541   6.601   3.462 -0.9166 -1.0158  0.2052
 6170TIP3   OH218473   6.907   2.908   4.965  0.3527  0.4105  0.3008
 6170TIP3    H118474   6.818   2.912   5.000  0.5783  2.1126  0.7564
 6170TIP3    H218475   6.911   2.824   4.918 -2.0204  1.0294 -1.1711
 6171TIP3   OH218476   0.553   4.337   5.003 -0.2156 -0.3247 -0.3414
 6171TIP3    H118477   0.488   4.378   4.945 -0.0425 -0.0436 -0.3389
 6171TIP3    H218478   0.617   4.298   4.943  0.4884  0.8014 -0.3524
 6172TIP3   OH218479   1.150   1.075   1.479 -0.6079  0.0399 -0.3787
 6172TIP3    H118480   1.121   1.143   1.539  0.8174 -0.3797  0.8480
 6172TIP3    H218481   1.152   1.117   1.393  1.0534  1.8321  0.4684
 6173TIP3   OH218482   1.887   5.964   4.076 -0.0793  0.1942  0.1387
 6173TIP3    H118483   1.884   6.038   4.138 -1.3514  0.3932 -0.1429
 6173TIP3    H218484   1.838   5.994   4.000  0.0302 -0.6815 -0.2899
 6174TIP3   OH218485   5.158   0.707   0.230 -0.1197  0.1037  0.0499
 6174TIP3    H118486   5.131   0.759   0.155  0.1382 -0.0724 -0.1666
 6174TIP3    H218487   5.196   0.627   0.192 -1.3411 -0.6603  0.3926
 6175TIP3   OH218488   6.161   2.168   0.350  0.2333 -0.1048 -0.3770
 6175TIP3    H118489   6.130   2.239   0.406  0.4544 -0.7241  0.5532
 6175TIP3    H218490   6.255   2.185   0.340 -0.0142  0.6762 -1.5780
 6176TIP3   OH218491   1.672   1.152   4.127  0.1111  0.0876 -0.6862
 6176TIP3    H118492   1.685   1.225   4.066  0.0909  0.5653 -0.1338
 6176TIP3    H218493   1.761   1.130   4.157  0.1955 -0.6539 -1.4567
 6177TIP3   OH218494   5.730   4.058   3.094  0.0046  0.2799  0.1436
 6177TIP3    H118495   5.740   4.066   3.188 -1.4192 -0.5225  0.3957
 6177TIP3    H218496   5.683   3.975   3.082 -1.1613  1.0887 -1.1633
 6178TIP3   OH218497   2.207   2.052   5.313  0.4700 -0.3282  0.1766
 6178TIP3    H118498   2.153   1.974   5.305  1.2742 -1.0707  1.5093
 6178TIP3    H218499   2.177   2.094   5.394 -0.1439  0.9168 -0.6724
 6179TIP3   OH218500   1.489   6.620   0.751 -0.4679 -0.4830 -0.1744
 6179TIP3    H118501   1.538   6.658   0.823 -2.5487 -0.0231  1.0847
 6179TIP3    H218502   1.410   6.585   0.792 -1.9590  0.2275 -2.2996
 6180TIP3   OH218503   2.420   6.331   0.923 -0.6045  0.2024  0.4044
 6180TIP3    H118504   2.491   6.386   0.890  1.0891 -0.9391  2.0225
 6180TIP3    H218505   2.441   6.243   0.893 -1.2566 -0.1877  1.0677
 6181TIP3   OH218506   2.081   3.987   5.357  0.1763  0.5075  0.4091
 6181TIP3    H118507   2.109   3.967   5.447 -0.2036  1.7783  0.8371
 6181TIP3    H218508   1.990   4.014   5.366  0.1481  0.6926 -0.3526
 6182TIP3   OH218509   1.131   6.672   3.431  0.0003  0.1142  0.4382
 6182TIP3    H118510   1.087   6.618   3.367 -0.1433  1.7969 -0.9544
 6182TIP3    H218511   1.080   6.662   3.511 -1.2736 -0.1175 -0.3865
 6183TIP3   OH218512   0.545   3.800   5.572 -0.1704  0.8304 -0.5213
 6183TIP3    H118513   0.611   3.750   5.524 -0.1782  0.2389  0.0803
 6183TIP3    H218514   0.563   3.891   5.547  0.1692  0.5842 -1.2187
 6184TIP3   OH218515   4.259   3.822   4.620 -0.1748 -0.7419 -0.2059
 6184TIP3    H118516   4.273   3.873   4.700 -2.5510  0.4303 -0.4674
 6184TIP3    H218517   4.329   3.757   4.622  0.6784  0.1163  2.1071
 6185TIP3   OH218518   1.522   5.641   1.569 -0.1168 -0.1233 -0.6425
 6185TIP3    H118519   1.545   5.733   1.583  0.4829 -0.2097 -1.0295
 6185TIP3    H218520   1.555   5.621   1.482 -1.2358 -0.4034 -1.0235
 6186TIP3   OH218521   5.313   5.537   5.410 -0.4107  0.8859 -0.6506
 6186TIP3    H118522   5.393   5.570   5.450  0.3037 -0.7898 -0.6393
 6186TIP3    H218523   5.290   5.459   5.460 -1.1428  0.4206 -1.6606
 6187TIP3   OH218524   2.335   0.414   5.272  0.5664  0.0618  0.5014
 6187TIP3    H118525   2.364   0.495   5.229  1.9866 -1.1331 -0.9247
 6187TIP3    H218526   2.339   0.348   5.203  0.7823 -1.5096  1.9666
 6188TIP3   OH218527   1.231   4.838   3.716 -0.1356 -0.1250 -0.0444
 6188TIP3    H118528   1.215   4.771   3.650  0.9434 -0.6895  0.2443
 6188TIP3    H218529   1.323   4.826   3.741 -0.9631 -1.0927  2.8376
 6189TIP3   OH218530   3.128   1.276   3.449 -0.5552  0.8985  0.4193
 6189TIP3    H118531   3.078   1.196   3.431 -0.1779  0.7023  0.2140
 6189TIP3    H218532   3.064   1.338   3.482 -1.2674  1.2465 -1.4964
 6190TIP3   OH218533   5.028   6.765   0.328  0.0858 -0.0407  0.1519
 6190TIP3    H118534   5.069   6.837   0.375  0.5761 -0.1244 -0.1427
 6190TIP3    H218535   5.091   6.740   0.261 -0.1760 -0.5858  0.0960
 6191TIP3   OH218536   2.896   0.542   4.323 -0.4193 -0.4692  0.3459
 6191TIP3    H118537   2.968   0.514   4.379 -0.5751 -0.6679  0.4519
 6191TIP3    H218538   2.841   0.596   4.380  0.5121  1.0776 -0.1860
 6192TIP3   OH218539   6.645   1.904   2.178  0.0460 -0.1350  0.4053
 6192TIP3    H118540   6.652   1.933   2.087 -2.1625  0.9261  0.5182
 6192TIP3    H218541   6.735   1.885   2.203  0.7556 -0.2106 -1.9034
 6193TIP3   OH218542   0.321   3.699   4.953 -0.1004 -0.1816 -0.0206
 6193TIP3    H118543   0.388   3.705   5.020 -0.4116  0.0323  0.2745
 6193TIP3    H218544   0.314   3.788   4.917 -0.1334 -0.2313 -0.1394
 6194TIP3   OH218545   3.678   4.031   5.589 -0.1577 -0.2316  0.1482
 6194TIP3    H118546   3.634   4.107   5.626 -0.1248  1.2944 -2.6727
 6194TIP3    H218547   3.771   4.050   5.601 -0.1465  0.2725 -0.6342
 6195TIP3   OH218548   4.784   3.533   3.140  0.6494  0.0451 -0.2288
 6195TIP3    H118549   4.800   3.525   3.234  0.5067  0.9959 -0.1129
 6195TIP3    H218550   4.732   3.613   3.131 -0.2464 -0.6007 -1.0195
 6196TIP3   OH218551   0.805   4.316   3.904  0.0916 -0.1808 -0.2626
 6196TIP3    H118552   0.733   4.303   3.844  1.2875 -2.5892 -1.3202
 6196TIP3    H218553   0.820   4.230   3.943  2.3740  0.2099 -0.1155
 6197TIP3   OH218554   5.885   2.644   0.555  0.1232 -0.0925 -0.1793
 6197TIP3    H118555   5.850   2.591   0.626 -0.3583  0.5836  0.1043
 6197TIP3    H218556   5.936   2.713   0.598 -1.0669  0.9703 -0.3991
 6198TIP3   OH218557   6.826   0.431   2.914  0.1211 -0.7636  0.7453
 6198TIP3    H118558   6.873   0.376   2.976  0.3330 -2.2319 -0.6540
 6198TIP3    H218559   6.874   0.421   2.832  0.3937  1.8633  0.5177
 6199TIP3   OH218560   5.494   3.571   1.199  0.3383  0.1280  0.0790
 6199TIP3    H118561   5.574   3.582   1.250 -0.3085  0.6423  0.9959
 6199TIP3    H218562   5.498   3.479   1.170  1.0277  0.0099  0.5074
 6200TIP3   OH218563   2.718   1.949   0.129 -0.0937 -0.3279  0.4217
 6200TIP3    H118564   2.713   2.008   0.205  0.3526 -0.3280  0.4510
 6200TIP3    H218565   2.719   2.008   0.053  2.3048 -0.1682  0.4938
 6201TIP3   OH218566   6.040   5.935   1.604 -0.3438  0.0279  0.0004
 6201TIP3    H118567   6.135   5.922   1.609 -0.2856  0.8061  1.5093
 6201TIP3    H218568   6.012   5.941   1.695 -2.2015 -2.5083 -0.2939
 6202TIP3   OH218569   0.197   3.780   1.962  0.1298 -0.2362 -0.5113
 6202TIP3    H118570   0.245   3.762   1.881  0.0961 -0.3675 -0.5022
 6202TIP3    H218571   0.248   3.734   2.029  0.3712  0.1886 -0.4020
 6203TIP3   OH218572   4.869   2.493   5.426  0.3342  0.3054 -0.0869
 6203TIP3    H118573   4.938   2.489   5.360 -0.0896 -0.1723 -0.5140
 6203TIP3    H218574   4.883   2.576   5.471  0.9879  0.3612 -0.3859
 6204TIP3   OH218575   6.315   0.209   1.389 -0.1763 -0.4259  0.3104
 6204TIP3    H118576   6.292   0.119   1.367 -0.3702 -0.7271  1.6562
 6204TIP3    H218577   6.241   0.261   1.358 -0.2011 -0.7569 -0.1976
 6205TIP3   OH218578   0.938   2.414   1.048 -0.3357  0.0872 -0.4196
 6205TIP3    H118579   0.860   2.459   1.078 -1.0111 -1.7422  0.7378
 6205TIP3    H218580   0.997   2.484   1.020 -1.1514  1.7240  1.6660
 6206TIP3   OH218581   5.956   6.685   0.354  0.3874  0.4839  0.1187
 6206TIP3    H118582   5.916   6.681   0.441  0.4688  2.6874  0.2946
 6206TIP3    H218583   6.047   6.710   0.371  0.8694 -0.7352 -0.5285
 6207TIP3   OH218584   6.208   4.810   1.129  0.2929 -0.3450 -0.7393
 6207TIP3    H118585   6.203   4.807   1.033  0.3220 -0.6251 -0.7334
 6207TIP3    H218586   6.162   4.732   1.158  0.7907 -0.5740 -0.5458
 6208TIP3   OH218587   3.078   2.735   0.897  0.5264  0.0086 -0.4431
 6208TIP3    H118588   3.146   2.667   0.893  0.5482 -0.0960  1.0202
 6208TIP3    H218589   3.074   2.771   0.808  1.6753 -0.7794 -0.8342
 6209TIP3   OH218590   2.266   0.831   0.355 -0.4973 -0.0778  0.9941
 6209TIP3    H118591   2.315   0.800   0.431  1.5180  1.2034  0.3098
 6209TIP3    H218592   2.218   0.908   0.386 -0.6884 -0.2990  1.2506
 6210TIP3   OH218593   3.832   3.341   1.971  0.3448  0.4903  0.4211
 6210TIP3    H118594   3.913   3.310   2.011 -0.6676 -1.3341  1.1603
 6210TIP3    H218595   3.767   3.336   2.040 -0.8865 -0.2963 -0.7400
 6211TIP3   OH218596   3.550   0.509   0.336 -0.1010 -0.5948  0.0431
 6211TIP3    H118597   3.569   0.438   0.274 -1.2379 -1.1328  0.2767
 6211TIP3    H218598   3.633   0.555   0.346  0.6368 -1.8250 -0.2097
 6212TIP3   OH218599   4.563   0.131   3.455  0.6120 -0.0035  0.6926
 6212TIP3    H118600   4.650   0.157   3.423 -0.0612  0.2519 -1.0157
 6212TIP3    H218601   4.502   0.180   3.400 -0.6306  0.6110  2.5580
 6213TIP3   OH218602   3.227   0.585   2.377 -0.7514 -0.0473 -0.2156
 6213TIP3    H118603   3.155   0.524   2.364 -0.2011 -0.9832  0.9944
 6213TIP3    H218604   3.249   0.615   2.289 -3.0769  0.8440 -0.5642
 6214TIP3   OH218605   3.808   3.603   3.899  0.9357  0.3280  0.0207
 6214TIP3    H118606   3.713   3.591   3.899  0.7634  0.7206  3.2253
 6214TIP3    H218607   3.843   3.515   3.889  0.1741 -0.0167  0.2696
 6215TIP3   OH218608   4.107   2.587   0.278 -0.1782  0.0855  0.0709
 6215TIP3    H118609   4.018   2.554   0.269  0.0991 -1.3913  1.9029
 6215TIP3    H218610   4.155   2.515   0.320  2.0107  0.6527 -1.2720
 6216TIP3   OH218611   5.120   3.648   2.531 -0.3385 -0.5890 -0.2485
 6216TIP3    H118612   5.075   3.649   2.615  0.7687  0.4864  0.3530
 6216TIP3    H218613   5.068   3.707   2.476  0.6885  1.2241  0.6612
 6217TIP3   OH218614   5.982   1.039   0.582  0.0045  0.9291  0.0187
 6217TIP3    H118615   6.042   1.071   0.649  1.6023 -0.9651 -0.4080
 6217TIP3    H218616   5.932   0.970   0.625 -0.9342  1.5633 -0.0191
 6218TIP3   OH218617   1.858   6.151   1.456  0.0250  0.0588 -0.3005
 6218TIP3    H118618   1.860   6.062   1.421  0.2177 -0.0015 -0.1388
 6218TIP3    H218619   1.938   6.192   1.424 -0.2739  0.3105 -0.7277
 6219TIP3   OH218620   6.975   4.764   1.842  0.5099 -0.1799  0.0284
 6219TIP3    H118621   7.010   4.677   1.822  1.1215  0.0418  0.1002
 6219TIP3    H218622   6.881   4.751   1.853  0.3624 -0.5704 -1.4910
 6220TIP3   OH218623   1.032   2.727   3.598 -0.0453 -0.6845 -0.0372
 6220TIP3    H118624   1.021   2.715   3.693 -1.6493 -0.6176 -0.1759
 6220TIP3    H218625   1.021   2.821   3.584 -1.4777 -0.8891 -0.4434
 6221TIP3   OH218626   6.766   4.165   5.302 -0.0782  0.1270 -0.3601
 6221TIP3    H118627   6.728   4.078   5.313  1.0446 -0.7655 -2.9090
 6221TIP3    H218628   6.710   4.207   5.236 -0.1113  1.0558  0.2414
 6222TIP3   OH218629   5.859   5.970   5.535 -0.2374  0.7730  0.2341
 6222TIP3    H118630   5.862   5.937   5.445  3.2741 -1.9145  1.0979
 6222TIP3    H218631   5.886   6.062   5.528  1.5265  0.1938 -1.3819
 6223TIP3   OH218632   6.878   6.306   5.635 -0.0948 -0.2840 -0.2709
 6223TIP3    H118633   6.828   6.311   5.716 -0.3313 -3.4342 -0.0950
 6223TIP3    H218634   6.817   6.335   5.567 -0.6952  0.0459  0.3962
 6224TIP3   OH218635   5.590   2.785   5.126 -0.1308 -0.7106 -0.0710
 6224TIP3    H118636   5.680   2.772   5.097 -1.1359 -2.7027 -2.8974
 6224TIP3    H218637   5.580   2.727   5.202  1.0767 -0.0256  0.6297
 6225TIP3   OH218638   0.826   4.627   3.063 -0.1123 -0.1367  0.0280
 6225TIP3    H118639   0.913   4.618   3.026 -0.0289 -3.2996  0.7898
 6225TIP3    H218640   0.777   4.553   3.029 -1.7456  0.1181  1.6691
 6226TIP3   OH218641   6.311   2.760   4.721  0.7489  0.5796  0.4754
 6226TIP3    H118642   6.229   2.712   4.736  2.5586 -2.1322  2.5369
 6226TIP3    H218643   6.291   2.850   4.746 -2.4125  0.8147 -2.1947
 6227TIP3   OH218644   6.281   4.861   0.657  0.5223  0.1987  0.1650
 6227TIP3    H118645   6.242   4.929   0.602  1.7094  0.2069 -0.6885
 6227TIP3    H218646   6.362   4.838   0.613  0.5508 -1.1846  0.8961
 6228TIP3   OH218647   1.754   2.385   1.061  0.1751  0.3707 -0.4857
 6228TIP3    H118648   1.790   2.325   0.995 -1.4215 -1.8186  0.5065
 6228TIP3    H218649   1.753   2.333   1.141 -2.4127  1.2950  0.1605
 6229TIP3   OH218650   7.153   1.964   2.334 -0.6240  0.2991  0.5955
 6229TIP3    H118651   7.148   1.920   2.419  1.7472 -0.8318  0.2165
 6229TIP3    H218652   7.106   2.047   2.348  0.7612  0.7487  3.4268
 6230TIP3   OH218653   7.036   0.962   1.159 -0.1116  0.1122 -0.1222
 6230TIP3    H118654   7.076   0.875   1.161 -1.4139 -0.4936  0.4400
 6230TIP3    H218655   6.997   0.968   1.072 -0.9201 -0.2907  0.2084
 6231TIP3   OH218656   2.203   6.012   0.621 -0.4970  0.1747  0.0119
 6231TIP3    H118657   2.266   6.027   0.691  1.8295 -0.2480 -1.8819
 6231TIP3    H218658   2.236   5.935   0.575 -1.7871  0.5966 -1.7129
 6232TIP3   OH218659   4.183   6.397   3.655 -0.3184 -0.2511  0.7442
 6232TIP3    H118660   4.120   6.397   3.582  0.8064  0.8624 -0.2742
 6232TIP3    H218661   4.156   6.471   3.709 -0.2079 -0.0997  0.5937
 6233TIP3   OH218662   4.242   2.872   5.319 -0.1629  0.3425  0.5042
 6233TIP3    H118663   4.185   2.932   5.368 -1.2851  0.8303 -1.3284
 6233TIP3    H218664   4.183   2.801   5.291  0.3084  0.3956 -0.6674
 6234TIP3   OH218665   3.092   1.564   3.416  0.2673 -0.1384 -0.4198
 6234TIP3    H118666   3.107   1.636   3.355  0.9175 -0.6879 -0.9272
 6234TIP3    H218667   3.010   1.586   3.459  1.8117  2.3888  1.5398
 6235TIP3   OH218668   3.288   5.111   2.469  0.3045 -0.2044 -0.2409
 6235TIP3    H118669   3.373   5.068   2.464 -0.2762 -1.3629 -0.3730
 6235TIP3    H218670   3.245   5.089   2.386  0.0591  0.7831 -0.3892
 6236TIP3   OH218671   4.468   3.534   5.433  0.1324 -0.4029  0.2760
 6236TIP3    H118672   4.422   3.559   5.513 -1.1436 -0.8192 -0.2927
 6236TIP3    H218673   4.527   3.607   5.416 -1.3448  0.8580  0.2822
 6237TIP3   OH218674   0.924   0.712   3.097  0.1174 -0.0123 -0.5947
 6237TIP3    H118675   0.978   0.637   3.071 -1.2839 -0.4402 -2.4518
 6237TIP3    H218676   0.913   0.701   3.191  3.1879  0.0974 -0.0986
 6238TIP3   OH218677   5.215   1.273   0.934  0.0236  0.2045 -0.2528
 6238TIP3    H118678   5.245   1.198   0.986 -0.7164 -0.6133 -0.9757
 6238TIP3    H218679   5.183   1.335   0.999  0.7168 -0.0691  0.3646
 6239TIP3   OH218680   5.115   5.335   2.367 -0.0438  0.3961  0.0427
 6239TIP3    H118681   5.036   5.331   2.313 -0.5371 -0.7819  0.8154
 6239TIP3    H218682   5.170   5.401   2.324 -0.0161 -1.1164 -2.4242
 6240TIP3   OH218683   4.542   6.193   2.759 -0.4829  0.1570 -0.1681
 6240TIP3    H118684   4.553   6.233   2.845  0.9824 -1.3490  0.4176
 6240TIP3    H218685   4.461   6.142   2.766  0.8611 -1.9322  1.2255
 6241TIP3   OH218686   2.473   4.224   1.251  0.3064  0.5485 -0.0903
 6241TIP3    H118687   2.489   4.181   1.336 -0.8676 -0.2060 -0.2198
 6241TIP3    H218688   2.524   4.173   1.189  0.9781  0.9536  0.1176
 6242TIP3   OH218689   3.305   5.895   3.056  0.0037 -0.2622 -0.0006
 6242TIP3    H118690   3.310   5.932   2.968  0.3407  1.0341  0.5401
 6242TIP3    H218691   3.214   5.911   3.083 -0.0694 -0.5615 -0.0658
 6243TIP3   OH218692   5.476   2.109   0.098  0.1016  0.2066 -0.0463
 6243TIP3    H118693   5.508   2.061   0.174  0.3408  0.5715  0.0887
 6243TIP3    H218694   5.544   2.175   0.081 -0.9920  1.5872  0.8000
 6244TIP3   OH218695   0.558   1.803   5.681 -0.3511  0.2634  0.2858
 6244TIP3    H118696   0.515   1.807   5.595  0.2009 -1.6325 -0.1323
 6244TIP3    H218697   0.628   1.739   5.669 -0.9775 -0.9172  2.4441
 6245TIP3   OH218698   3.076   5.975   5.314 -0.3730  0.2717  0.1621
 6245TIP3    H118699   3.156   6.022   5.338  0.3345  0.0705 -1.6051
 6245TIP3    H218700   3.107   5.893   5.276 -1.4235  0.1256 -0.4166
 6246TIP3   OH218701   5.784   6.718   3.337  0.2075  0.6627 -0.0453
 6246TIP3    H118702   5.728   6.643   3.315  1.4591  0.0896 -1.4719
 6246TIP3    H218703   5.789   6.716   3.433 -0.8166 -0.3031  0.0150
 6247TIP3   OH218704   4.802   0.404   4.663  0.6599 -0.1559  0.3578
 6247TIP3    H118705   4.841   0.368   4.584 -0.6203 -1.8525  0.4505
 6247TIP3    H218706   4.773   0.492   4.637  0.0253 -0.7731 -1.1608
 6248TIP3   OH218707   6.097   2.459   0.130  0.1297  0.1913 -0.0071
 6248TIP3    H118708   6.186   2.465   0.165  0.4427  1.4427 -0.9684
 6248TIP3    H218709   6.046   2.518   0.186 -0.2182 -0.8792  0.8387
 6249TIP3   OH218710   1.155   4.325   2.451  0.0674  0.5391  0.4083
 6249TIP3    H118711   1.089   4.267   2.488  0.2758  0.6093  0.9102
 6249TIP3    H218712   1.108   4.381   2.389 -0.2829  0.3830  0.5363
 6250TIP3   OH218713   0.577   5.542   3.715 -0.1396  0.1431  0.4153
 6250TIP3    H118714   0.513   5.541   3.644  1.0581  0.7627 -0.7031
 6250TIP3    H218715   0.568   5.630   3.753  0.1827  0.3059  0.1204
 6251TIP3   OH218716   0.415   1.366   5.275 -0.6976  0.0400 -0.5055
 6251TIP3    H118717   0.477   1.322   5.217 -0.2362  0.2690 -0.1973
 6251TIP3    H218718   0.456   1.451   5.293  0.4556 -0.9911  2.2447
 6252TIP3   OH218719   6.863   5.313   1.649 -0.3203  0.2632  0.4812
 6252TIP3    H118720   6.805   5.389   1.645  0.2563  0.7118  0.4981
 6252TIP3    H218721   6.872   5.284   1.558  0.4601  0.9888  0.3212
 6253TIP3   OH218722   3.488   0.656   2.787  0.4102 -0.1656 -0.0500
 6253TIP3    H118723   3.466   0.741   2.749  0.3173  0.2044  0.7991
 6253TIP3    H218724   3.522   0.605   2.714 -0.4124  0.2818 -0.7727
 6254TIP3   OH218725   5.449   0.430   4.384 -0.1363  0.7192  0.2346
 6254TIP3    H118726   5.405   0.487   4.321  1.6013  0.4331 -1.3252
 6254TIP3    H218727   5.486   0.359   4.331  0.0712 -0.3994  1.7941
 6255TIP3   OH218728   4.738   0.665   5.634  0.5293  0.4609 -0.3774
 6255TIP3    H118729   4.702   0.719   5.565  1.3655  1.2561 -0.2075
 6255TIP3    H218730   4.792   0.601   5.589  0.6568  0.6510 -0.4942
 6256TIP3   OH218731   1.034   0.497   3.822  0.3231 -0.1272  0.6241
 6256TIP3    H118732   1.008   0.501   3.730 -1.1787 -0.2314  1.0300
 6256TIP3    H218733   1.055   0.588   3.844  1.2285 -0.1772  0.0548
 6257TIP3   OH218734   6.215   3.087   2.234 -0.2147  0.6297 -0.5499
 6257TIP3    H118735   6.213   3.012   2.295  0.8095  2.6152  2.1282
 6257TIP3    H218736   6.127   3.090   2.197 -1.6418  0.5287  2.5249
 6258TIP3   OH218737   4.534   1.491   4.950  0.4762  0.6555 -0.2641
 6258TIP3    H118738   4.534   1.585   4.964 -2.6547  1.0928 -2.3486
 6258TIP3    H218739   4.512   1.480   4.857  0.4922 -2.1385 -0.0208
 6259TIP3   OH218740   2.061   1.005   3.729  0.3889  0.2930  0.5731
 6259TIP3    H118741   2.122   0.989   3.657 -0.3383 -0.6043  0.1330
 6259TIP3    H218742   2.054   1.100   3.734  0.5393  0.3739 -0.4754
 6260TIP3   OH218743   6.038   2.874   1.774 -0.6517  0.4096 -0.2123
 6260TIP3    H118744   6.086   2.955   1.755  1.4938 -0.7536 -0.0284
 6260TIP3    H218745   6.019   2.878   1.867  0.7345  0.0972  0.1084
 6261TIP3   OH218746   2.531   5.696   3.645  0.9045 -0.5365 -0.2226
 6261TIP3    H118747   2.475   5.728   3.575  2.4816  1.6760 -0.5823
 6261TIP3    H218748   2.576   5.621   3.608  1.5036  0.4374 -1.5320
 6262TIP3   OH218749   5.580   4.222   3.560  0.4527 -0.3692 -0.1287
 6262TIP3    H118750   5.582   4.165   3.637  0.4528 -0.9336 -0.5427
 6262TIP3    H218751   5.602   4.309   3.594  1.8059 -0.8522  0.2851
 6263TIP3   OH218752   3.210   2.666   5.809  0.3037 -0.2820  0.2722
 6263TIP3    H118753   3.142   2.622   5.758  2.4321 -1.1323 -2.0300
 6263TIP3    H218754   3.255   2.595   5.855  2.5879 -0.4761 -2.0248
 6264TIP3   OH218755   1.948   1.470   2.942 -0.4956  0.1667  0.0825
 6264TIP3    H118756   1.981   1.544   2.993  0.1225 -0.5439  0.7305
 6264TIP3    H218757   2.018   1.406   2.944  0.1190  0.6003 -2.7979
 6265TIP3   OH218758   5.871   4.206   4.516 -0.2812 -0.6306  0.3308
 6265TIP3    H118759   5.923   4.193   4.437  0.3818 -2.4653  1.0301
 6265TIP3    H218760   5.780   4.211   4.485  0.1656  1.6091 -0.7904
 6266TIP3   OH218761   0.698   5.815   3.742 -0.3058  0.3283 -0.2961
 6266TIP3    H118762   0.718   5.870   3.667  0.8536 -1.4574 -1.3950
 6266TIP3    H218763   0.682   5.876   3.814 -2.5680  2.1505 -2.1805
 6267TIP3   OH218764   0.999   0.234   4.770  0.1344  0.3134  0.5039
 6267TIP3    H118765   1.083   0.235   4.816 -0.6443  0.0717  2.0093
 6267TIP3    H218766   1.017   0.187   4.689  1.5251  0.5788  0.6299
 6268TIP3   OH218767   4.184   3.650   2.803  0.6216 -0.3160  0.1650
 6268TIP3    H118768   4.238   3.577   2.830  0.1074  0.4506  3.6956
 6268TIP3    H218769   4.235   3.728   2.824  0.6909  0.4572 -2.4487
 6269TIP3   OH218770   1.128   3.191   1.212 -0.2854  0.5650 -0.1597
 6269TIP3    H118771   1.160   3.102   1.197  1.9567  1.5196 -1.5480
 6269TIP3    H218772   1.059   3.203   1.146  1.8729  0.9668 -2.5041
 6270TIP3   OH218773   5.481   5.109   1.217 -0.2653 -0.1904 -0.4208
 6270TIP3    H118774   5.539   5.118   1.292 -1.4852  1.7823  0.3561
 6270TIP3    H218775   5.517   5.170   1.152  0.6799 -1.7561 -1.4481
 6271TIP3   OH218776   2.864   2.015   0.605  0.2380  0.0581  0.0613
 6271TIP3    H118777   2.818   1.935   0.578  0.6248  0.0728 -0.6663
 6271TIP3    H218778   2.948   1.984   0.638  0.8009  0.2184 -1.1587
 6272TIP3   OH218779   7.186   4.854   4.863 -0.2308 -0.1149 -0.2044
 6272TIP3    H118780   7.236   4.815   4.791  0.1176  3.1521 -1.9093
 6272TIP3    H218781   7.181   4.785   4.929 -0.5766 -3.3333 -3.3051
 6273TIP3   OH218782   6.422   6.188   4.157 -0.2908  0.2605 -0.2792
 6273TIP3    H118783   6.459   6.269   4.123 -2.4316  1.0406 -0.8688
 6273TIP3    H218784   6.338   6.213   4.194 -0.9331 -1.6625 -0.3281
 6274TIP3   OH218785   5.180   4.165   1.579 -0.1430  0.2851 -0.3046
 6274TIP3    H118786   5.114   4.201   1.637  0.1751 -1.2898  1.0900
 6274TIP3    H218787   5.262   4.205   1.607  0.0328 -0.5865  0.4632
 6275TIP3   OH218788   3.735   1.496   2.517 -0.3411  0.3294  0.0425
 6275TIP3    H118789   3.651   1.524   2.554  1.6311  2.1994  3.7218
 6275TIP3    H218790   3.744   1.546   2.436 -1.4115  2.6807  1.2834
 6276TIP3   OH218791   3.539   0.943   3.258  0.3618 -0.2183 -0.8024
 6276TIP3    H118792   3.490   0.864   3.282  0.3974 -0.4992 -1.6032
 6276TIP3    H218793   3.594   0.962   3.334 -1.2460  0.3295  0.2849
 6277TIP3   OH218794   0.200   4.536   0.757 -0.2980  0.1356 -0.4950
 6277TIP3    H118795   0.208   4.560   0.665  0.8305  0.1918 -0.3992
 6277TIP3    H218796   0.145   4.604   0.795 -0.6567  0.1859 -1.0928
 6278TIP3   OH218797   5.231   6.577   3.786 -0.2781  0.0791 -0.1977
 6278TIP3    H118798   5.221   6.625   3.704 -0.4575 -0.1038 -0.2823
 6278TIP3    H218799   5.220   6.644   3.854 -2.9818 -0.1969 -0.2349
 6279TIP3   OH218800   4.391   6.724   1.103  0.7282 -0.0563  0.3303
 6279TIP3    H118801   4.319   6.753   1.159 -0.2137  0.5223 -1.1202
 6279TIP3    H218802   4.463   6.707   1.164 -0.1168  0.9372  1.6777
 6280TIP3   OH218803   5.341   5.586   3.051  0.2953  0.3502 -0.4991
 6280TIP3    H118804   5.362   5.501   3.013 -1.3338 -0.0359 -0.6044
 6280TIP3    H218805   5.283   5.627   2.986 -0.5241  0.6987  0.4370
 6281TIP3   OH218806   1.403   1.504   4.854 -0.3339  0.0926  0.5556
 6281TIP3    H118807   1.328   1.528   4.799 -0.3201  2.6314  1.5075
 6281TIP3    H218808   1.435   1.422   4.817 -2.1536  0.1520 -1.3158
 6282TIP3   OH218809   3.843   1.055   4.767 -0.1287  0.4529 -0.2241
 6282TIP3    H118810   3.914   0.992   4.780 -1.1260 -0.6543  0.0056
 6282TIP3    H218811   3.859   1.093   4.681  0.0056 -0.7650 -0.7460
 6283TIP3   OH218812   5.721   4.764   0.744  0.0566 -0.1031 -0.0055
 6283TIP3    H118813   5.802   4.729   0.708 -0.2782  0.0264 -0.9124
 6283TIP3    H218814   5.741   4.854   0.766  0.2859 -0.2050  0.2057
 6284TIP3   OH218815   1.721   1.262   3.483  0.4011  0.2178 -0.6164
 6284TIP3    H118816   1.666   1.337   3.461  1.4723  1.1465 -0.2196
 6284TIP3    H218817   1.690   1.233   3.568 -1.8538 -1.5892 -1.9280
 6285TIP3   OH218818   4.295   0.308   4.743  0.2118  0.0728  0.4627
 6285TIP3    H118819   4.210   0.270   4.762  0.3914  1.3713  4.9014
 6285TIP3    H218820   4.357   0.236   4.752 -0.1871 -0.5523 -1.3193
 6286TIP3   OH218821   5.446   4.633   3.023  0.1998  0.6143 -0.2135
 6286TIP3    H118822   5.509   4.666   2.960 -2.0198  0.3803 -2.7338
 6286TIP3    H218823   5.447   4.538   3.012  0.1964  0.5148  0.5493
 6287TIP3   OH218824   1.182   1.640   3.143 -0.1523  0.2504  0.1700
 6287TIP3    H118825   1.129   1.666   3.068  1.3350 -0.7485 -1.3093
 6287TIP3    H218826   1.121   1.598   3.203 -1.1623 -0.1970 -1.1304
 6288TIP3   OH218827   2.031   1.850   0.658 -0.5018 -0.0591 -0.0503
 6288TIP3    H118828   1.951   1.899   0.639 -0.8364 -0.2868  0.7296
 6288TIP3    H218829   2.072   1.897   0.731 -0.6359 -0.7180  0.4598
 6289TIP3   OH218830   0.417   4.168   1.919  0.1205  0.3391  0.0634
 6289TIP3    H118831   0.457   4.227   1.983  1.6165  0.7949 -1.2280
 6289TIP3    H218832   0.328   4.155   1.951  0.7623  0.6479  2.1607
 6290TIP3   OH218833   0.047   3.739   5.222  0.3096 -0.1628 -0.0376
 6290TIP3    H118834   0.059   3.653   5.182  1.3474  0.6773 -1.6478
 6290TIP3    H218835  -0.022   3.780   5.169 -0.0627  0.0553  0.6165
 6291TIP3   OH218836   1.396   4.560   3.271 -0.0144  0.4306  0.1037
 6291TIP3    H118837   1.469   4.513   3.312 -0.4009  0.3573  0.7300
 6291TIP3    H218838   1.437   4.620   3.209  0.5159 -0.3433 -0.3072
 6292TIP3   OH218839   2.331   1.237   3.638  0.1578  0.3009  0.0918
 6292TIP3    H118840   2.331   1.150   3.598 -0.0334 -0.5520  1.8103
 6292TIP3    H218841   2.239   1.253   3.660 -0.1668  1.9677 -2.2075
 6293TIP3   OH218842   0.483   5.671   1.667 -0.2176 -0.1801 -0.1947
 6293TIP3    H118843   0.482   5.655   1.573 -1.6708  0.8951 -0.3763
 6293TIP3    H218844   0.533   5.752   1.677  1.9587 -1.4830  0.2131
 6294TIP3   OH218845   4.069   5.865   2.110 -0.1842  0.7420  0.4662
 6294TIP3    H118846   4.018   5.802   2.160  0.3792  0.6144  0.8904
 6294TIP3    H218847   4.005   5.907   2.052 -0.6473  0.1118  0.5044
 6295TIP3   OH218848   0.810   2.313   0.468  0.0461  0.6978  0.1993
 6295TIP3    H118849   0.893   2.346   0.434  0.5904 -0.2701  0.5710
 6295TIP3    H218850   0.749   2.386   0.457  1.0618  1.5857  0.3924
 6296TIP3   OH218851   5.250   2.277   5.293  0.2369 -0.2834  0.4995
 6296TIP3    H118852   5.231   2.196   5.341  0.9576  0.5438  2.2718
 6296TIP3    H218853   5.208   2.346   5.345 -0.3763  0.5187 -0.9844
 6297TIP3   OH218854   4.417   1.672   3.183  0.1927 -0.3338 -0.0543
 6297TIP3    H118855   4.384   1.606   3.245 -1.4714  0.6110  0.1338
 6297TIP3    H218856   4.427   1.751   3.236  3.6386 -0.7311  0.0615
 6298TIP3   OH218857   2.627   3.977   2.704 -0.2523 -0.8799 -0.2133
 6298TIP3    H118858   2.608   3.934   2.787 -0.9522  0.1765  0.1961
 6298TIP3    H218859   2.560   3.944   2.644 -1.9649  0.9327  0.5738
 6299TIP3   OH218860   6.198   1.806   1.921 -0.0371 -0.1129  0.1973
 6299TIP3    H118861   6.179   1.890   1.963 -0.2194 -0.3431  0.5830
 6299TIP3    H218862   6.287   1.784   1.949  0.4800  0.5266 -0.8769
 6300TIP3   OH218863   3.970   6.641   4.001  0.2282 -0.5208  0.6295
 6300TIP3    H118864   3.990   6.630   3.909  0.7833  0.3992  0.6317
 6300TIP3    H218865   4.051   6.620   4.047  0.6430  1.2332  0.7576
 6301TIP3   OH218866   0.901   6.048   4.560  0.2605  0.2520 -0.2899
 6301TIP3    H118867   0.925   6.134   4.524  1.0921  0.8529  1.5441
 6301TIP3    H218868   0.978   6.021   4.610 -0.2125 -1.3098 -0.3495
 6302TIP3   OH218869   1.069   1.961   0.090 -0.2123 -0.1137  0.6715
 6302TIP3    H118870   1.016   2.015   0.032  0.6545 -0.0019 -0.0407
 6302TIP3    H218871   1.151   2.011   0.101  0.0270 -0.6036  1.1826
 6303TIP3   OH218872   2.865   2.983   2.540  0.0282  0.3897 -0.3255
 6303TIP3    H118873   2.928   3.012   2.605  0.5113  0.3714 -0.7849
 6303TIP3    H218874   2.843   3.062   2.490  0.2163  0.2638 -0.6111
 6304TIP3   OH218875   1.145   1.787   4.988  0.4982  0.4861  0.4469
 6304TIP3    H118876   1.102   1.745   5.062  1.9725 -0.5820  0.7589
 6304TIP3    H218877   1.225   1.825   5.025  0.7245  0.8561 -0.4017
 6305TIP3   OH218878   4.733   3.812   0.243 -0.2776 -0.1330 -0.1175
 6305TIP3    H118879   4.800   3.810   0.174 -0.1975  2.8705 -0.2600
 6305TIP3    H218880   4.652   3.834   0.198 -0.5895  0.0472  0.5129
 6306TIP3   OH218881   4.076   5.628   2.979 -0.5848  0.2219  0.0030
 6306TIP3    H118882   4.044   5.650   3.067  2.4963  1.3776  0.9577
 6306TIP3    H218883   4.055   5.535   2.969  1.1844 -0.6595  3.0918
 6307TIP3   OH218884   5.847   4.292   2.527 -0.2190 -0.0319  0.1367
 6307TIP3    H118885   5.834   4.197   2.523 -0.7511 -0.0534  1.7274
 6307TIP3    H218886   5.771   4.328   2.481 -0.3948 -0.3569  0.1722
 6308TIP3   OH218887   0.767   1.589   3.611  0.1664 -0.1721  0.2975
 6308TIP3    H118888   0.690   1.534   3.595  0.0772  0.3146 -1.0762
 6308TIP3    H218889   0.750   1.669   3.561  0.5812  0.8645  1.7437
 6309TIP3   OH218890   5.088   6.143   0.140 -0.5598 -0.1340 -0.7031
 6309TIP3    H118891   5.166   6.129   0.193  0.1500  0.0422 -1.6808
 6309TIP3    H218892   5.080   6.063   0.087 -1.1121 -0.2000 -0.5308
 6310TIP3   OH218893   3.707   3.983   3.787 -0.4701  0.1784 -0.0912
 6310TIP3    H118894   3.697   3.912   3.724  0.4140 -0.6219  0.6445
 6310TIP3    H218895   3.745   3.942   3.865 -0.8581  1.2721  0.7152
 6311TIP3   OH218896   1.804   3.498   5.731  0.0143  0.5670  0.5790
 6311TIP3    H118897   1.747   3.572   5.751 -0.2077  0.8857 -1.0960
 6311TIP3    H218898   1.824   3.507   5.638  0.1045 -1.3910  0.3532
 6312TIP3   OH218899   4.868   5.816   3.474  0.4640 -0.0145 -0.5222
 6312TIP3    H118900   4.789   5.861   3.504  0.5439  0.3318 -0.8215
 6312TIP3    H218901   4.921   5.885   3.432  2.1708  0.3516  2.0067
 6313TIP3   OH218902   6.085   4.837   0.855  0.9761  0.4295 -0.0103
 6313TIP3    H118903   6.029   4.773   0.810  0.1458  0.7612  0.5273
 6313TIP3    H218904   6.165   4.839   0.803  1.3504 -1.6395  0.4173
 6314TIP3   OH218905   5.040   3.287   0.164 -0.0767 -0.1525 -0.1840
 6314TIP3    H118906   5.038   3.244   0.078 -2.7498  0.5127 -0.5434
 6314TIP3    H218907   4.998   3.225   0.223 -1.1664  0.6688 -0.0672
 6315TIP3   OH218908   5.031   6.366   5.526  0.1833 -0.0445 -0.0411
 6315TIP3    H118909   5.116   6.327   5.540  0.2882 -0.0025 -0.5340
 6315TIP3    H218910   4.980   6.344   5.604 -0.2005 -2.3265 -0.8538
 6316TIP3   OH218911   0.977   3.978   5.792  0.0360  0.3294 -0.4052
 6316TIP3    H118912   0.930   3.931   5.724  0.7949  0.5650 -1.0961
 6316TIP3    H218913   0.956   3.931   5.873  1.0039 -1.3606 -1.1114
 6317TIP3   OH218914   2.773   1.093   0.437  0.4915 -0.4888 -0.0061
 6317TIP3    H118915   2.703   1.072   0.499  1.2693 -1.3296  0.6155
 6317TIP3    H218916   2.844   1.126   0.492  0.7333 -0.0257 -0.5872
 6318TIP3   OH218917   6.540   5.105   5.393 -0.0410  0.1213 -0.0596
 6318TIP3    H118918   6.446   5.114   5.383  0.0739  0.4495 -0.8539
 6318TIP3    H218919   6.551   5.028   5.449 -0.7394 -0.6436 -0.9659
 6319TIP3   OH218920   6.921   3.984   1.956 -0.4498  0.1338  0.1499
 6319TIP3    H118921   6.865   4.006   1.882 -1.0020  0.0597  0.5376
 6319TIP3    H218922   7.004   4.028   1.938 -0.3152 -0.5255 -0.8969
 6320TIP3   OH218923   4.109   1.233   4.421  0.3562 -0.1403  0.2959
 6320TIP3    H118924   4.191   1.199   4.458  0.5549  0.2197  0.1860
 6320TIP3    H218925   4.128   1.246   4.328  0.2034  0.0351  0.2890
 6321TIP3   OH218926   0.183   0.098   3.182 -0.0295  0.1512  0.4565
 6321TIP3    H118927   0.232   0.137   3.110  0.2783  0.5273  0.8645
 6321TIP3    H218928   0.206   0.150   3.258  1.6203 -1.7473  1.3591
 6322TIP3   OH218929   5.970   4.890   5.822  0.2055 -0.6624 -0.3344
 6322TIP3    H118930   5.988   4.874   5.915 -0.7456 -0.4760 -0.1087
 6322TIP3    H218931   5.986   4.984   5.811 -0.9585 -0.4114 -0.0373
 6323TIP3   OH218932   3.657   3.854   2.659  0.6392  0.6847  0.2942
 6323TIP3    H118933   3.587   3.836   2.721 -0.2742  0.0759 -0.8811
 6323TIP3    H218934   3.735   3.817   2.700 -0.2075 -1.0073  0.4708
 6324TIP3   OH218935   3.288   4.457   5.826 -0.2586 -0.1380  0.9154
 6324TIP3    H118936   3.290   4.530   5.889  0.7350  1.2037 -0.5851
 6324TIP3    H218937   3.240   4.492   5.751 -0.0888 -1.1633  0.3177
 6325TIP3   OH218938   1.128   5.003   5.122 -0.0153  0.0528 -0.4103
 6325TIP3    H118939   1.211   5.010   5.169  0.0451 -0.2303 -0.4711
 6325TIP3    H218940   1.148   4.948   5.046  0.0050  0.9279 -1.0459
 6326TIP3   OH218941   0.772   3.325   4.930  0.1691  0.2318 -0.2885
 6326TIP3    H118942   0.762   3.250   4.989  1.5861  0.9308  0.8964
 6326TIP3    H218943   0.709   3.308   4.860 -1.0151 -1.0253  1.0035
 6327TIP3   OH218944   1.606   6.344   4.334  0.1821 -0.8914  0.0687
 6327TIP3    H118945   1.546   6.271   4.317  0.8815 -1.7489  1.1431
 6327TIP3    H218946   1.570   6.416   4.282 -1.7642 -1.3702  0.6586
 6328TIP3   OH218947   5.329   1.292   0.602  0.1402  0.0945 -0.4259
 6328TIP3    H118948   5.290   1.379   0.593 -0.6866 -0.2790 -0.5951
 6328TIP3    H218949   5.366   1.291   0.690 -0.9132  0.2080  0.0354
 6329TIP3   OH218950   2.811   4.363   2.746 -0.8084 -0.3710 -0.2119
 6329TIP3    H118951   2.746   4.315   2.695  0.2373 -0.5968 -1.3655
 6329TIP3    H218952   2.824   4.310   2.824 -0.8144 -1.1638 -0.7414
 6330TIP3   OH218953   6.571   5.345   5.714 -0.1628  0.1067  0.2045
 6330TIP3    H118954   6.614   5.376   5.635  0.1732 -0.3161  0.2201
 6330TIP3    H218955   6.512   5.276   5.684 -0.1959  0.0960  0.2922
 6331TIP3   OH218956   4.682   1.946   5.471 -0.3006  0.5336  0.2283
 6331TIP3    H118957   4.629   1.983   5.541  0.4582  2.4512 -0.1691
 6331TIP3    H218958   4.632   1.964   5.391  0.3511  1.2209 -0.0265
 6332TIP3   OH218959   6.301   4.531   1.956 -1.0781  0.0029  0.2455
 6332TIP3    H118960   6.343   4.483   2.026  0.7129  2.1146  0.7143
 6332TIP3    H218961   6.217   4.560   1.993 -1.5312 -1.4591  0.4209
 6333TIP3   OH218962   1.466   0.355   3.354  0.1455 -0.3183  0.0088
 6333TIP3    H118963   1.402   0.366   3.425 -0.5220  2.9385 -0.9432
 6333TIP3    H218964   1.510   0.272   3.374 -1.2340 -0.4187  3.2048
 6334TIP3   OH218965   4.497   2.993   5.277  0.4903  0.4101 -0.0336
 6334TIP3    H118966   4.516   3.007   5.370 -1.0438  0.3001  0.3178
 6334TIP3    H218967   4.403   2.979   5.273  0.2056  2.2445 -1.8294
 6335TIP3   OH218968   4.229   1.112   3.782  0.2651  0.6186 -0.1495
 6335TIP3    H118969   4.176   1.039   3.813  2.0205 -0.0871  1.3948
 6335TIP3    H218970   4.223   1.108   3.687  1.3965 -2.4356 -0.1885
 6336TIP3   OH218971   2.252   0.127   0.481  0.1868 -0.1005  0.1728
 6336TIP3    H118972   2.247   0.151   0.389 -1.1812  0.4423  0.3697
 6336TIP3    H218973   2.164   0.097   0.503  0.3588  0.2629  1.4261
 6337TIP3   OH218974   2.852   3.926   4.208 -0.5929 -0.3092  0.5429
 6337TIP3    H118975   2.774   3.883   4.174  0.7519 -1.5947 -1.1788
 6337TIP3    H218976   2.891   3.968   4.131  0.1543  0.7340  1.4546
 6338TIP3   OH218977   1.001   4.838   1.802  0.3089  0.2374  0.2760
 6338TIP3    H118978   1.016   4.747   1.777 -0.7934 -0.0325  0.5461
 6338TIP3    H218979   1.088   4.871   1.826  0.9153 -0.3883 -0.9323
 6339TIP3   OH218980   6.180   4.181   1.022 -0.3181  0.0551  0.7308
 6339TIP3    H118981   6.090   4.185   0.990  0.0057  0.6048 -0.1166
 6339TIP3    H218982   6.199   4.269   1.054 -0.3218 -0.2467  1.6125
 6340TIP3   OH218983   5.749   1.421   3.939 -0.5297  0.0171 -0.0845
 6340TIP3    H118984   5.804   1.344   3.948 -0.4003  0.0708 -0.4090
 6340TIP3    H218985   5.799   1.492   3.980 -0.4358  0.0309 -0.2256
 6341TIP3   OH218986   3.772   3.775   2.427 -0.8615 -0.2423 -0.0233
 6341TIP3    H118987   3.713   3.777   2.502 -1.1329 -0.4645 -0.2311
 6341TIP3    H218988   3.739   3.843   2.368 -0.2094  0.4422  0.3865
 6342TIP3   OH218989   0.978   6.795   4.733  0.2986 -0.4116 -1.1052
 6342TIP3    H118990   0.977   6.701   4.752 -2.2431 -0.5029 -1.3129
 6342TIP3    H218991   0.899   6.810   4.682 -0.6229  2.1970  0.8480
 6343TIP3   OH218992   6.865   4.877   5.649 -0.5197 -0.3172 -0.7472
 6343TIP3    H118993   6.848   4.947   5.712  2.3350 -1.9369  2.0822
 6343TIP3    H218994   6.934   4.912   5.592  1.8686 -1.0839  1.4923
 6344TIP3   OH218995   5.622   3.399   0.749  0.0447 -0.6669 -0.0040
 6344TIP3    H118996   5.699   3.342   0.758  2.1384  1.3030 -3.4294
 6344TIP3    H218997   5.558   3.344   0.703  0.0478 -1.7347  1.1968
 6345TIP3   OH218998   3.137   5.490   0.124 -0.2741  0.4825  0.2069
 6345TIP3    H118999   3.226   5.455   0.135 -0.4927 -0.1042  0.1429
 6345TIP3    H219000   3.144   5.552   0.052 -0.4626 -1.6212 -1.7606
 6346TIP3   OH219001   2.376   3.130   1.747 -0.4623  0.6996  0.2504
 6346TIP3    H119002   2.452   3.099   1.698 -0.3518 -2.2010  1.9913
 6346TIP3    H219003   2.411   3.197   1.806  0.7870 -0.4717  0.9048
 6347TIP3   OH219004   1.703   0.584   1.525 -0.4392 -0.2864  0.9429
 6347TIP3    H119005   1.665   0.656   1.576 -1.0200 -0.7662  1.1944
 6347TIP3    H219006   1.779   0.557   1.577  0.7911  1.2320  0.0147
 6348TIP3   OH219007   5.255   1.264   4.191  0.1667 -0.0618 -0.0800
 6348TIP3    H119008   5.175   1.226   4.155  0.4833  0.2271 -1.1355
 6348TIP3    H219009   5.226   1.318   4.264 -0.6412  0.2999 -0.6535
 6349TIP3   OH219010   6.287   3.471   0.332  0.5411  0.0051 -0.2421
 6349TIP3    H119011   6.377   3.446   0.311  0.1999 -0.7538 -0.8579
 6349TIP3    H219012   6.276   3.447   0.424  1.9027  2.9087  0.7900
 6350TIP3   OH219013   3.772   4.520   5.569 -0.0525  0.6869 -0.1798
 6350TIP3    H119014   3.853   4.563   5.596 -0.4705  1.2385  0.2036
 6350TIP3    H219015   3.777   4.433   5.609  1.0795  0.1130 -1.4666
 6351TIP3   OH219016   0.698   6.517   3.586  0.1547 -0.9424  0.4768
 6351TIP3    H119017   0.645   6.508   3.665  0.0558 -1.8753  0.3104
 6351TIP3    H219018   0.671   6.445   3.530  1.8915 -1.7302  0.5719
 6352TIP3   OH219019   2.866   2.789   1.516 -0.4849 -0.2267 -0.3770
 6352TIP3    H119020   2.821   2.758   1.437 -1.1575  0.6576 -0.3511
 6352TIP3    H219021   2.796   2.803   1.579  0.1310 -2.1321  0.8375
 6353TIP3   OH219022   2.034   6.756   1.906 -0.4424 -0.0037 -0.2454
 6353TIP3    H119023   2.112   6.726   1.859 -0.7714  0.3766 -1.0574
 6353TIP3    H219024   1.993   6.676   1.938 -0.5372 -0.3340 -1.1537
 6354TIP3   OH219025   2.484   3.844   2.946  0.8973  0.5046  0.1811
 6354TIP3    H119026   2.412   3.899   2.914  0.0882 -1.4185 -1.4560
 6354TIP3    H219027   2.450   3.805   3.026  0.2576 -0.0649 -0.3588
 6355TIP3   OH219028   4.448   1.631   2.166  0.2083  0.0397  0.1212
 6355TIP3    H119029   4.499   1.712   2.171 -1.4113  1.0662  0.9239
 6355TIP3    H219030   4.435   1.616   2.073  1.0457  0.3672 -0.0544
 6356TIP3   OH219031   6.694   0.062   0.894 -0.2624 -0.0124  0.2717
 6356TIP3    H119032   6.765   0.011   0.933  0.1912  0.1705 -0.3012
 6356TIP3    H219033   6.654   0.108   0.968 -0.5951 -1.0811  0.7830
 6357TIP3   OH219034   2.638   4.811   4.134 -0.0810 -0.1664  0.0307
 6357TIP3    H119035   2.681   4.832   4.051 -1.3872 -1.3541 -0.9935
 6357TIP3    H219036   2.705   4.830   4.201  0.6942  1.6626 -1.1868
 6358TIP3   OH219037   3.187   1.442   5.430  0.0363 -0.1101  0.4135
 6358TIP3    H119038   3.225   1.367   5.476 -0.1880  0.6111  1.8315
 6358TIP3    H219039   3.261   1.501   5.416 -0.0074 -0.0580  0.4017
 6359TIP3   OH219040   4.491   5.887   0.172 -0.2775 -0.1128  0.5793
 6359TIP3    H119041   4.506   5.924   0.086 -2.8475 -0.5990 -0.1666
 6359TIP3    H219042   4.568   5.834   0.190  0.5656  0.4839 -1.1282
 6360TIP3   OH219043   5.681   4.723   1.745 -0.3253 -0.5230  0.3178
 6360TIP3    H119044   5.765   4.707   1.704 -0.0453 -0.5094  0.8704
 6360TIP3    H219045   5.673   4.818   1.748 -0.3876 -0.5250  0.2041
 6361TIP3   OH219046   7.177   5.207   2.133 -0.0627  0.8458 -0.3887
 6361TIP3    H119047   7.104   5.152   2.103  0.8576  0.0525 -1.2409
 6361TIP3    H219048   7.139   5.261   2.203 -0.8159 -1.4848  1.1329
 6362TIP3   OH219049   5.563   1.806   2.080 -0.0914  0.2554  0.3181
 6362TIP3    H119050   5.595   1.894   2.103  0.2807 -0.2470  1.8092
 6362TIP3    H219051   5.583   1.798   1.986 -1.3287  2.2462 -0.1825
 6363TIP3   OH219052   0.982   2.944  -0.032 -0.0842 -0.0552 -0.0478
 6363TIP3    H119053   0.928   2.908   0.039  0.0607  0.6773  0.4547
 6363TIP3    H219054   1.072   2.927  -0.004  0.0016 -2.6094 -1.5883
 6364TIP3   OH219055   1.342   1.235   5.292 -0.1286  0.0999  0.0073
 6364TIP3    H119056   1.274   1.224   5.226 -0.9076  0.2394  0.7652
 6364TIP3    H219057   1.413   1.281   5.247 -0.7861  0.4902 -0.6384
 6365TIP3   OH219058   1.081   0.110   5.572  0.5192 -0.6616 -0.2747
 6365TIP3    H119059   1.173   0.111   5.545  0.9782 -2.5656  0.9909
 6365TIP3    H219060   1.044   0.033   5.528 -0.0412 -0.8403  0.4873
 6366TIP3   OH219061   6.039   3.266   2.604 -0.0282  0.3175  0.2104
 6366TIP3    H119062   5.996   3.321   2.669  0.2311  0.5928  0.1488
 6366TIP3    H219063   6.062   3.186   2.652 -2.8703 -0.9560 -0.3244
 6367TIP3   OH219064   6.730   4.586   2.142 -0.2757 -0.4533  0.1320
 6367TIP3    H119065   6.808   4.633   2.173  0.7258 -2.2609  0.5233
 6367TIP3    H219066   6.759   4.495   2.133 -2.2120 -1.0858 -0.2445
 6368TIP3   OH219067   1.051   6.488   3.863 -0.1272  0.2413  0.2544
 6368TIP3    H119068   1.129   6.468   3.811 -0.0980 -0.5977  0.6044
 6368TIP3    H219069   1.001   6.406   3.864 -1.9064  1.2214 -1.4190
 6369TIP3   OH219070   3.828   5.639   0.806 -0.2656  0.1779  0.1154
 6369TIP3    H119071   3.777   5.606   0.732 -1.2941  1.5125  0.1960
 6369TIP3    H219072   3.839   5.732   0.788  0.5870  0.2580  1.0074
 6370TIP3   OH219073   6.143   4.123   1.980 -0.0650 -0.3785  0.0503
 6370TIP3    H119074   6.198   4.070   1.921 -1.5425 -0.8073 -0.9877
 6370TIP3    H219075   6.166   4.091   2.068  0.4745 -1.3953 -0.4385
 6371TIP3   OH219076   1.615   1.589   5.749  0.2446  0.0613  0.7555
 6371TIP3    H119077   1.529   1.589   5.706 -0.3229  1.1618  1.8330
 6371TIP3    H219078   1.596   1.565   5.839  1.3904 -1.9353  0.5146
 6372TIP3   OH219079   5.995   2.649   0.288  0.3837 -0.5279 -0.1493
 6372TIP3    H119080   5.909   2.666   0.251  0.3065 -1.5137 -0.4582
 6372TIP3    H219081   5.993   2.689   0.375  0.0487  0.5212 -0.6238
 6373TIP3   OH219082   5.142   3.050   1.912  0.4643 -0.0011  0.9428
 6373TIP3    H119083   5.117   3.117   1.848 -0.9609 -0.3861  1.0654
 6373TIP3    H219084   5.235   3.065   1.927  0.3654  1.4060  0.3227
 6374TIP3   OH219085   3.046   4.831   4.676  0.4080  0.3889  0.4546
 6374TIP3    H119086   3.097   4.907   4.647  1.3677  0.4860  2.2892
 6374TIP3    H219087   3.089   4.756   4.634 -1.6563  0.8815 -2.8978
 6375TIP3   OH219088   0.595   4.625   3.316 -0.1069 -0.4859  0.1073
 6375TIP3    H119089   0.516   4.639   3.264 -0.8914 -0.0576  1.3795
 6375TIP3    H219090   0.606   4.705   3.366  1.4289 -0.3496 -0.3984
 6376TIP3   OH219091   6.674   2.644   0.342 -0.1565  0.2595  0.4647
 6376TIP3    H119092   6.730   2.574   0.375 -1.5960 -1.9855 -1.5100
 6376TIP3    H219093   6.601   2.647   0.404 -0.9660 -1.2947 -0.3514
 6377TIP3   OH219094   7.224   1.591   1.053 -0.1815  0.1332 -0.2836
 6377TIP3    H119095   7.281   1.576   1.128 -0.5505  2.0694  0.4273
 6377TIP3    H219096   7.137   1.600   1.090 -0.5506 -0.0994 -1.0736
 6378TIP3   OH219097   4.868   3.898   3.966 -0.8953  0.2225 -0.2422
 6378TIP3    H119098   4.918   3.841   4.026 -0.6673  0.5857 -0.0839
 6378TIP3    H219099   4.865   3.983   4.011 -0.2228  0.6607 -1.0008
 6379TIP3   OH219100   2.618   5.789   3.876 -0.4355 -0.1647  0.6447
 6379TIP3    H119101   2.571   5.755   3.801 -0.8172  0.2189  0.7035
 6379TIP3    H219102   2.705   5.749   3.871  0.5716  2.0563 -1.6624
 6380TIP3   OH219103   6.544   1.979   2.445  0.2738  0.1246 -0.3215
 6380TIP3    H119104   6.576   1.996   2.357  1.9275  0.3314  0.2809
 6380TIP3    H219105   6.572   2.055   2.496  0.3262 -0.5094  0.6196
 6381TIP3   OH219106   5.723   6.642  -0.027  0.2006  0.1343  0.1859
 6381TIP3    H119107   5.812   6.605  -0.029 -0.6534 -2.3259  1.7402
 6381TIP3    H219108   5.706   6.657   0.066 -1.7980 -1.7423  0.2029
 6382TIP3   OH219109   3.425   3.586   2.620 -0.0860  0.3574  0.6698
 6382TIP3    H119110   3.337   3.566   2.651  0.2040 -1.0265  0.6555
 6382TIP3    H219111   3.482   3.569   2.696  0.2778  0.2742  0.3801
 6383TIP3   OH219112   5.464   3.821   5.671  0.3916  0.2723  0.1885
 6383TIP3    H119113   5.414   3.832   5.752 -1.3947 -1.2329 -0.6643
 6383TIP3    H219114   5.428   3.743   5.630  1.0022  1.1980 -2.2610
 6384TIP3   OH219115   2.852   4.740  -0.014 -0.9624 -0.8247  0.4863
 6384TIP3    H119116   2.887   4.802   0.051 -1.4655  2.0147 -1.7426
 6384TIP3    H219117   2.825   4.665   0.038  1.9093 -0.2753  3.1334
 6385TIP3   OH219118   1.972   3.701   3.977 -0.2087  0.2242  0.5471
 6385TIP3    H119119   1.999   3.705   3.885 -0.9267 -0.1070  0.3185
 6385TIP3    H219120   2.000   3.614   4.006 -2.3039 -0.7291 -0.1158
 6386TIP3   OH219121   5.729   1.687   2.794  0.0680  0.1499  0.2727
 6386TIP3    H119122   5.736   1.684   2.889  1.4652 -0.3834  0.1799
 6386TIP3    H219123   5.818   1.706   2.764 -0.1394 -0.6964 -0.9557
 6387TIP3   OH219124   2.006   0.305   3.968 -0.3956  0.5140 -0.4304
 6387TIP3    H119125   2.040   0.241   4.031 -0.0891  0.6094 -0.5003
 6387TIP3    H219126   1.948   0.254   3.911  0.0989  0.2362 -0.6849
 6388TIP3   OH219127   2.798   5.632   1.205  0.5124 -0.7509  0.8566
 6388TIP3    H119128   2.881   5.594   1.176  0.0566 -1.0563 -0.0925
 6388TIP3    H219129   2.732   5.592   1.147 -0.1171  0.6406  0.5764
 6389TIP3   OH219130   6.023   4.785   4.293  0.5333  0.3739  0.1982
 6389TIP3    H119131   5.976   4.708   4.260 -0.7346  0.5048  1.5976
 6389TIP3    H219132   5.954   4.844   4.323  1.5519  1.3425  0.6948
 6390TIP3   OH219133   1.924   5.523   5.532  0.1505  0.2725  0.0813
 6390TIP3    H119134   1.837   5.558   5.548  0.7785  0.8508  2.7587
 6390TIP3    H219135   1.982   5.598   5.540  1.0718 -0.4728  0.6460
 6391TIP3   OH219136   4.468   5.011   0.365 -0.4509 -0.6391 -0.0245
 6391TIP3    H119137   4.449   5.102   0.339 -0.2289 -0.5804  0.0122
 6391TIP3    H219138   4.481   5.016   0.460 -1.7008 -0.9289  0.1745
 6392TIP3   OH219139   0.389   0.099   1.490  0.3786 -0.0666 -0.3896
 6392TIP3    H119140   0.314   0.156   1.474  1.7945  2.3403  0.9700
 6392TIP3    H219141   0.374   0.064   1.578  0.7069  0.1963 -0.2284
 6393TIP3   OH219142   3.881   3.762   1.714  0.3115 -0.9113  0.1666
 6393TIP3    H119143   3.967   3.756   1.756  0.0844 -3.1237  0.4435
 6393TIP3    H219144   3.818   3.744   1.784 -0.4602  1.0571  0.0518
 6394TIP3   OH219145   4.480   6.051   0.615 -0.3548  0.2402 -0.1534
 6394TIP3    H119146   4.525   6.082   0.536  1.3509  0.7879  0.9896
 6394TIP3    H219147   4.412   5.992   0.582 -0.4311  1.3210 -2.0940
 6395TIP3   OH219148   3.416   2.943   4.756  0.4156  0.1264 -0.2183
 6395TIP3    H119149   3.435   2.889   4.833  1.9337  0.3021 -0.4379
 6395TIP3    H219150   3.321   2.959   4.761 -0.1091 -2.5715 -0.1952
 6396TIP3   OH219151   3.030   6.671   1.733 -0.0575 -0.5052 -0.5282
 6396TIP3    H119152   3.069   6.584   1.720 -0.4448 -0.9268  0.9257
 6396TIP3    H219153   2.947   6.667   1.687 -0.1896 -0.9987 -0.2577
 6397TIP3   OH219154   4.724   6.162   0.189 -0.3926  0.1696  0.1883
 6397TIP3    H119155   4.724   6.246   0.143 -1.7447 -0.6739 -1.4586
 6397TIP3    H219156   4.724   6.096   0.120  0.3861 -1.2086  1.4357
 6398TIP3   OH219157   4.294   5.420   5.182  0.1316  0.2238  0.0793
 6398TIP3    H119158   4.386   5.402   5.200 -0.0801 -1.0553 -0.0600
 6398TIP3    H219159   4.246   5.372   5.249 -0.4178  2.4161  1.3564
 6399TIP3   OH219160   0.815   1.302   3.830  0.2407 -0.5683 -0.3731
 6399TIP3    H119161   0.771   1.261   3.755 -0.4358  0.4353 -0.5427
 6399TIP3    H219162   0.902   1.325   3.796  1.1066 -2.9163  0.0806
 6400TIP3   OH219163   4.723   1.601   2.759 -0.1329 -0.6524  0.4145
 6400TIP3    H119164   4.793   1.611   2.824 -0.9321  1.4017  1.0120
 6400TIP3    H219165   4.642   1.611   2.809 -0.8221 -1.0118 -0.6017
 6401TIP3   OH219166   0.710   3.829   3.983  0.3286  0.0753 -0.2911
 6401TIP3    H119167   0.757   3.902   4.025  0.7924 -1.3416  1.8100
 6401TIP3    H219168   0.701   3.764   4.052 -0.7063 -1.5936 -1.9191
 6402TIP3   OH219169   0.784   5.827   1.876  0.1413 -0.0809  0.1024
 6402TIP3    H119170   0.729   5.847   1.800  0.6629  0.5511 -0.1229
 6402TIP3    H219171   0.766   5.897   1.939 -0.0752 -0.4424  0.4416
 6403TIP3   OH219172   3.016   4.977   1.544 -0.2219  0.5065  0.4749
 6403TIP3    H119173   3.100   5.002   1.581  0.4108 -0.1414 -0.4918
 6403TIP3    H219174   2.984   5.055   1.499 -0.7934  1.1662  1.9621
 6404TIP3   OH219175   5.364   3.658   2.795  0.1847 -0.0612  0.2621
 6404TIP3    H119176   5.348   3.563   2.796 -1.8415  0.1298 -2.0437
 6404TIP3    H219177   5.294   3.695   2.850 -1.2309  0.2035 -1.5977
 6405TIP3   OH219178   6.934   1.729   4.953 -0.3921 -0.0699  0.1210
 6405TIP3    H119179   6.944   1.665   4.882  0.8797 -1.4274  1.4414
 6405TIP3    H219180   6.842   1.755   4.949 -0.8556 -1.6908 -0.7178
 6406TIP3   OH219181   0.279   1.403   3.159 -0.1708 -0.2728  0.0283
 6406TIP3    H119182   0.202   1.360   3.197 -0.4743  0.7029  0.5489
 6406TIP3    H219183   0.268   1.495   3.181  0.6754  0.0167 -0.7184
 6407TIP3   OH219184   2.320   0.599   4.792 -0.7227 -0.5487 -0.3615
 6407TIP3    H119185   2.268   0.581   4.870 -0.7589 -1.0748 -0.5011
 6407TIP3    H219186   2.257   0.606   4.721 -0.6200 -0.9942 -0.4984
 6408TIP3   OH219187   0.537   3.472   0.705  0.0748 -0.1391  0.2331
 6408TIP3    H119188   0.467   3.506   0.761 -0.1939 -1.2208  0.5783
 6408TIP3    H219189   0.594   3.424   0.764  0.3902 -0.3709 -0.2555
 6409TIP3   OH219190   2.820   2.277   4.609  0.2319 -0.0560  0.0153
 6409TIP3    H119191   2.904   2.266   4.563  1.2404  1.0155  1.5322
 6409TIP3    H219192   2.786   2.188   4.618  2.2909 -0.7847  1.2788
 6410TIP3   OH219193   2.603   3.305   3.892 -0.8630 -0.3842  0.2108
 6410TIP3    H119194   2.663   3.357   3.944 -1.6640  1.2845 -0.4452
 6410TIP3    H219195   2.631   3.214   3.905  1.3199  0.2716  0.4853
 6411TIP3   OH219196   6.586   4.475   1.506 -0.0518  0.5417 -0.4933
 6411TIP3    H119197   6.509   4.432   1.469 -0.3042  0.1535  0.4612
 6411TIP3    H219198   6.630   4.513   1.430 -0.4463 -0.4107 -1.2313
 6412TIP3   OH219199   1.347   4.378   5.822 -0.7352  0.5472  0.0529
 6412TIP3    H119200   1.346   4.317   5.749 -0.3516  0.6611 -0.0498
 6412TIP3    H219201   1.288   4.448   5.795 -0.6615  0.5469 -0.1138
 6413TIP3   OH219202   3.171   2.105   2.022 -0.8785  0.0742  0.0314
 6413TIP3    H119203   3.117   2.080   2.097 -1.6687  0.8029 -0.2822
 6413TIP3    H219204   3.236   2.165   2.058  0.8476 -2.0529  0.7348
 6414TIP3   OH219205   6.676   4.637   1.290  0.3828  0.8417  0.1642
 6414TIP3    H119206   6.613   4.707   1.274  1.6156  2.3210  1.4328
 6414TIP3    H219207   6.725   4.630   1.209  0.5172  1.7665  0.1545
 6415TIP3   OH219208   2.430   0.139   2.905  0.7871 -0.9220  0.4521
 6415TIP3    H119209   2.424   0.136   3.001 -2.0798 -1.1473  0.3518
 6415TIP3    H219210   2.388   0.221   2.881 -0.2710 -1.7567 -0.6666
 6416TIP3   OH219211   4.275   0.476   0.854 -0.0495 -0.5992 -0.2056
 6416TIP3    H119212   4.193   0.523   0.841  0.2627  0.0355  0.1206
 6416TIP3    H219213   4.339   0.524   0.801  0.3756 -0.3624  0.5170
 6417TIP3   OH219214   4.437   6.346   2.525 -0.3268  0.2999  0.1887
 6417TIP3    H119215   4.499   6.298   2.580  0.4496 -1.4313 -2.0187
 6417TIP3    H219216   4.486   6.420   2.491 -0.2192  0.2884  0.3179
 6418TIP3   OH219217   5.410   6.309   4.106 -0.3518 -0.4533 -0.3184
 6418TIP3    H119218   5.435   6.362   4.030  0.4773 -0.8893 -0.3602
 6418TIP3    H219219   5.456   6.226   4.094  1.3543  0.1388  1.6390
 6419TIP3   OH219220   4.046   4.902   4.418 -0.3681 -0.3708 -0.1070
 6419TIP3    H119221   4.129   4.903   4.465 -0.7420  0.0024  0.5657
 6419TIP3    H219222   4.032   4.810   4.396 -0.1617 -0.5426  0.4689
 6420TIP3   OH219223   3.103   6.636   4.757 -0.0247  0.3592  0.4141
 6420TIP3    H119224   3.042   6.705   4.782  0.0708 -0.2076  2.3989
 6420TIP3    H219225   3.051   6.555   4.759  0.2857  0.1381 -0.1003
 6421TIP3   OH219226   4.726   3.906   1.982  0.3113  0.3515  0.3729
 6421TIP3    H119227   4.663   3.919   1.911  1.5728 -0.2307 -0.8959
 6421TIP3    H219228   4.680   3.936   2.060 -0.8508  1.7642 -0.7885
 6422TIP3   OH219229   4.275   4.616   2.885 -0.7514 -0.0580  0.2186
 6422TIP3    H119230   4.316   4.630   2.971  0.5430 -0.0822 -0.3749
 6422TIP3    H219231   4.188   4.655   2.894  0.2314  2.1725  0.8091
 6423TIP3   OH219232   0.069   1.312   0.460 -0.0345 -0.1444  0.3046
 6423TIP3    H119233   0.123   1.243   0.422 -0.2213 -0.2443  0.2195
 6423TIP3    H219234   0.008   1.266   0.517 -0.9722 -0.1774 -0.6893
 6424TIP3   OH219235   6.290   5.097   0.914  0.1010  0.7836 -0.5311
 6424TIP3    H119236   6.286   5.045   0.834  0.3443  1.3615 -0.9169
 6424TIP3    H219237   6.379   5.132   0.916  0.9154 -1.1297  1.1875
 6425TIP3   OH219238   4.199   5.526   4.324 -0.2879 -0.1584 -0.0661
 6425TIP3    H119239   4.157   5.451   4.365  2.5047 -1.0876  1.4232
 6425TIP3    H219240   4.238   5.491   4.244  0.2960 -0.1090  0.1914
 6426TIP3   OH219241   3.438   3.054   4.121  0.1564 -0.1791 -0.1148
 6426TIP3    H119242   3.445   3.031   4.028  1.1570 -1.4524  0.2468
 6426TIP3    H219243   3.345   3.050   4.140 -0.0977  0.4215 -1.1328
 6427TIP3   OH219244   3.596   0.144   5.235 -0.1667  0.2291  0.9473
 6427TIP3    H119245   3.567   0.145   5.144 -2.8626 -0.4146  1.7197
 6427TIP3    H219246   3.689   0.122   5.230 -0.1166  0.6951 -1.6434
 6428TIP3   OH219247   1.657   0.684   1.787 -0.1322 -0.1766 -0.7762
 6428TIP3    H119248   1.602   0.606   1.789  0.3099 -0.5363  1.9977
 6428TIP3    H219249   1.747   0.650   1.791  0.0454  0.3884  1.3933
 6429TIP3   OH219250   1.971   4.511   1.175 -0.2189 -0.0058 -0.6936
 6429TIP3    H119251   2.042   4.515   1.239 -0.5549  0.6820 -0.3512
 6429TIP3    H219252   1.897   4.472   1.222 -1.2308  2.6742  0.1276
 6430TIP3   OH219253   1.857   4.617   0.152 -0.0900  0.4057  0.5600
 6430TIP3    H119254   1.920   4.658   0.094 -0.2955 -0.5988 -0.4219
 6430TIP3    H219255   1.775   4.616   0.102  0.0900 -1.8314  0.2015
 6431TIP3   OH219256   3.948   0.604   1.383 -0.2413 -0.4981  0.4589
 6431TIP3    H119257   3.915   0.515   1.368  1.5171 -1.1784  0.3353
 6431TIP3    H219258   3.945   0.646   1.297 -0.6677 -0.5927  0.4278
 6432TIP3   OH219259   6.173   4.551   5.568 -0.5199  0.5053 -0.1009
 6432TIP3    H119260   6.225   4.530   5.645 -0.5335  1.0720  0.0664
 6432TIP3    H219261   6.113   4.477   5.559  0.4857 -0.2897 -0.4550
 6433TIP3   OH219262   1.558   5.927   3.674  0.2785 -0.0001 -0.0856
 6433TIP3    H119263   1.469   5.893   3.662  0.6312 -0.3790 -2.0128
 6433TIP3    H219264   1.548   6.022   3.668  0.0612 -0.0674 -0.9249
 6434TIP3   OH219265   0.299   3.246   4.512  0.1088  0.2573  0.6210
 6434TIP3    H119266   0.283   3.154   4.535  1.0163 -0.6805 -2.0746
 6434TIP3    H219267   0.222   3.271   4.461 -0.0091  0.9333  1.1185
 6435TIP3   OH219268   4.955   3.821   4.999  0.6824  0.6995  0.0631
 6435TIP3    H119269   4.893   3.829   4.927  0.3024 -1.8805  0.0149
 6435TIP3    H219270   5.040   3.813   4.957  0.5826  0.2559 -0.0562
 6436TIP3   OH219271   0.601   3.335   5.699 -0.0333  0.3164 -0.0963
 6436TIP3    H119272   0.559   3.394   5.636  0.9551 -0.4677 -1.5327
 6436TIP3    H219273   0.636   3.264   5.646  1.4432 -0.0284  1.2702
 6437TIP3   OH219274   6.909   2.622   4.910  0.1850  0.0793  0.5900
 6437TIP3    H119275   6.982   2.616   4.971  0.5631  0.0896  0.1486
 6437TIP3    H219276   6.841   2.567   4.948  0.5177 -0.1344  0.8823
 6438TIP3   OH219277   1.790   3.151   0.065  0.1458  0.1605 -0.4628
 6438TIP3    H119278   1.708   3.154   0.114 -0.1948 -1.7514 -0.8173
 6438TIP3    H219279   1.857   3.130   0.131  0.0366 -0.1938 -0.4616
 6439TIP3   OH219280   4.920   6.072   4.752 -0.1727  0.9155 -0.3155
 6439TIP3    H119281   4.951   6.163   4.752 -0.5552  1.0460 -0.1304
 6439TIP3    H219282   4.865   6.065   4.673  0.3817  0.6602 -0.6900
 6440TIP3   OH219283   6.016   5.113   4.013 -0.0437 -0.7004 -0.8032
 6440TIP3    H119284   5.968   5.042   4.056 -1.6930  0.3266 -0.8718
 6440TIP3    H219285   6.108   5.089   4.023 -0.3825 -1.1251  2.2293
 6441TIP3   OH219286   2.497   5.840   1.265 -0.0011 -0.2095  0.3575
 6441TIP3    H119287   2.589   5.861   1.247  0.4189  0.2599  2.7898
 6441TIP3    H219288   2.448   5.898   1.207  1.2157  0.1106 -0.3956
 6442TIP3   OH219289   2.277   4.502   3.233 -0.2517  0.4043 -0.6351
 6442TIP3    H119290   2.297   4.592   3.207  0.6021  0.6058  0.6339
 6442TIP3    H219291   2.297   4.499   3.327 -0.3924 -1.0718 -0.6300
 6443TIP3   OH219292   0.414   4.550   5.714  0.6350  0.2367 -0.3022
 6443TIP3    H119293   0.420   4.613   5.642 -2.5326  0.1694 -0.7620
 6443TIP3    H219294   0.413   4.604   5.793 -0.6761  0.7168 -0.6227
 6444TIP3   OH219295   6.933   6.535   2.975 -0.2098 -0.2292  0.3199
 6444TIP3    H119296   6.865   6.486   2.929 -0.8317 -0.6022  1.5736
 6444TIP3    H219297   6.912   6.523   3.068  0.7336  0.8512  0.6998
 6445TIP3   OH219298   5.990   1.512   1.027 -0.1410 -0.3460 -0.0997
 6445TIP3    H119299   6.004   1.541   0.937  2.1802  0.5017  0.4694
 6445TIP3    H219300   6.076   1.484   1.057 -1.1212 -1.9427  1.4412
 6446TIP3   OH219301   5.893   1.819   2.461 -0.4332 -0.2202  0.1652
 6446TIP3    H119302   5.896   1.783   2.550  0.7244  1.2788  0.7768
 6446TIP3    H219303   5.833   1.894   2.467  0.5939  0.6403  0.0104
 6447TIP3   OH219304   3.117   6.142   5.038  0.4009  0.3307 -0.3517
 6447TIP3    H119305   3.101   6.052   5.012  0.0790 -0.8889  3.4214
 6447TIP3    H219306   3.030   6.179   5.054  0.5940  0.1500  1.3049
 6448TIP3   OH219307   6.002   4.351   5.036 -0.1627  0.4815  0.1954
 6448TIP3    H119308   6.062   4.393   5.098  0.3664 -0.0399  0.0436
 6448TIP3    H219309   6.006   4.408   4.958 -1.5673  1.6782  0.9473
 6449TIP3   OH219310   1.572   4.495   2.130 -0.1225 -0.4149  0.2138
 6449TIP3    H119311   1.482   4.490   2.164 -0.7164  0.3429 -1.1837
 6449TIP3    H219312   1.592   4.588   2.127  0.3617 -0.5333 -0.3804
 6450TIP3   OH219313   6.136   4.540   1.424  0.2443 -0.9386  0.2609
 6450TIP3    H119314   6.194   4.567   1.495  1.0103 -3.0900  0.5344
 6450TIP3    H219315   6.195   4.512   1.354 -0.4989  0.7745 -1.1165
 6451TIP3   OH219316   4.985   6.438   1.485 -0.0221  0.3841 -0.2844
 6451TIP3    H119317   5.025   6.363   1.527 -1.4983 -0.0158  0.4726
 6451TIP3    H219318   4.972   6.411   1.394 -2.1226 -0.9965  0.3574
 6452TIP3   OH219319   3.430   4.349   5.425 -0.0892 -0.5900 -0.1412
 6452TIP3    H119320   3.335   4.342   5.422 -0.2333  0.4030  1.3404
 6452TIP3    H219321   3.461   4.282   5.364 -1.6811 -2.2691  0.8123
 6453TIP3   OH219322   6.822   5.378   1.953 -0.4150  0.7763  0.2708
 6453TIP3    H119323   6.893   5.336   1.905 -0.6952  1.2079 -0.5491
 6453TIP3    H219324   6.816   5.329   2.035 -0.8251 -0.9027 -0.7050
 6454TIP3   OH219325   3.403   5.691   4.321 -0.3051  0.3136 -0.3968
 6454TIP3    H119326   3.414   5.786   4.331 -0.6310  0.2383  0.8049
 6454TIP3    H219327   3.492   5.657   4.319 -0.2029  0.5319  0.3917
 6455TIP3   OH219328   2.471   5.110   3.172  0.8969 -0.6276 -0.1565
 6455TIP3    H119329   2.485   5.174   3.243  0.9686 -0.3857 -0.3857
 6455TIP3    H219330   2.400   5.055   3.204 -1.8969  1.9076 -1.4744
 6456TIP3   OH219331   1.029   6.661   0.377 -0.5518 -0.7946 -0.5484
 6456TIP3    H119332   1.068   6.620   0.300 -2.0977 -2.8019 -0.3731
 6456TIP3    H219333   1.101   6.671   0.439  0.3960 -0.6911 -1.6424
 6457TIP3   OH219334   4.842   3.513   1.338 -0.0925  0.3624  0.3300
 6457TIP3    H119335   4.815   3.523   1.429 -0.4441  2.1749  0.0629
 6457TIP3    H219336   4.773   3.557   1.288  0.8098  0.6395 -0.7099
 6458TIP3   OH219337   7.116   1.860   0.070  0.1178  0.1786  0.1798
 6458TIP3    H119338   7.170   1.782   0.083  1.2669  0.9091 -0.0252
 6458TIP3    H219339   7.083   1.852  -0.019  0.0123 -0.2043  0.2523
 6459TIP3   OH219340   1.350   6.312   5.030  0.3380 -0.2248  0.1025
 6459TIP3    H119341   1.342   6.407   5.031  2.0028 -0.0536  0.3846
 6459TIP3    H219342   1.422   6.295   4.969  0.9172 -1.1980  1.0275
 6460TIP3   OH219343   6.537   0.555   2.139 -0.5362 -0.4189  0.0476
 6460TIP3    H119344   6.467   0.531   2.079  0.2988  1.8527 -1.9969
 6460TIP3    H219345   6.617   0.526   2.095  0.0002 -0.2465  0.8824
 6461TIP3   OH219346   0.556   6.728   1.919 -0.4063 -0.0944  0.5002
 6461TIP3    H119347   0.468   6.708   1.952 -0.0845 -0.8345  0.9542
 6461TIP3    H219348   0.578   6.654   1.863 -0.5840  0.7226 -0.6650
 6462TIP3   OH219349   2.340   4.974   2.913 -0.1795  0.1171  0.0746
 6462TIP3    H119350   2.326   5.020   2.996  0.4034 -0.0459  0.2689
 6462TIP3    H219351   2.393   5.034   2.861  1.6032 -0.7720  0.7731
 6463TIP3   OH219352   0.241   2.734   3.123  0.1422 -0.4658 -0.2399
 6463TIP3    H119353   0.222   2.664   3.185 -0.9068 -0.0165 -0.0331
 6463TIP3    H219354   0.281   2.804   3.175 -0.6680 -0.1192 -0.0679
 6464TIP3   OH219355   7.082   2.757   3.745  0.0017 -0.2314  0.6685
 6464TIP3    H119356   7.028   2.825   3.785 -0.4316 -0.4347  0.4350
 6464TIP3    H219357   7.170   2.794   3.746 -0.4667  1.0500 -0.9801
 6465TIP3   OH219358   4.312   1.965   4.743  0.1740 -0.0562 -0.0975
 6465TIP3    H119359   4.379   1.971   4.812 -0.3333 -1.7263  0.5948
 6465TIP3    H219360   4.269   2.050   4.743 -0.0470 -0.1182  1.9201
 6466TIP3   OH219361   2.407   3.538   2.254  0.3714  0.2127  0.0827
 6466TIP3    H119362   2.343   3.502   2.193  0.7339 -0.0325 -0.1555
 6466TIP3    H219363   2.404   3.481   2.330  1.3905 -0.7204 -0.5422
 6467TIP3   OH219364   1.254   1.096   2.167  0.3450  0.3052  0.3847
 6467TIP3    H119365   1.321   1.161   2.187 -0.7297  1.6186 -0.0987
 6467TIP3    H219366   1.185   1.146   2.123 -0.6346 -1.1273  0.2265
 6468TIP3   OH219367   2.235   2.861   4.080 -0.6115  0.3093  0.0606
 6468TIP3    H119368   2.254   2.789   4.020 -2.8818 -0.8381  0.6182
 6468TIP3    H219369   2.181   2.822   4.148 -2.2224  2.5924  0.1979
 6469TIP3   OH219370   3.039   4.303   0.461  0.2657 -0.4623  0.3029
 6469TIP3    H119371   3.101   4.235   0.435  2.7606  1.6823  0.1849
 6469TIP3    H219372   3.052   4.373   0.397  0.7705  1.7137  2.5965
 6470TIP3   OH219373   0.370   0.980   1.605  0.7703  0.1815 -0.3026
 6470TIP3    H119374   0.288   0.933   1.624  0.5469  0.6240 -0.1660
 6470TIP3    H219375   0.359   1.010   1.515  0.8111  0.1872 -0.3054
 6471TIP3   OH219376   5.564   1.627   4.131 -0.7257 -0.8281 -0.2006
 6471TIP3    H119377   5.532   1.547   4.089 -2.3064 -0.5867  0.4420
 6471TIP3    H219378   5.525   1.625   4.218 -0.7281  0.5915 -0.1408
 6472TIP3   OH219379   2.184   2.437   4.904 -0.7641 -0.3175 -0.0126
 6472TIP3    H119380   2.142   2.421   4.989 -1.3635  2.2382  0.2644
 6472TIP3    H219381   2.264   2.484   4.926 -0.6119 -0.1881 -0.8310
 6473TIP3   OH219382   3.783   1.644   1.304  0.1583  0.0190 -0.6540
 6473TIP3    H119383   3.826   1.667   1.222  1.0417  0.6980 -0.0205
 6473TIP3    H219384   3.746   1.726   1.336 -0.8053 -0.3740 -0.7085
 6474TIP3   OH219385   5.903   4.009   5.244  0.2697  0.1341  0.4174
 6474TIP3    H119386   5.868   3.931   5.201  1.3896  0.1763 -0.6023
 6474TIP3    H219387   5.825   4.062   5.263 -0.3763 -0.5714 -0.1900
 6475TIP3   OH219388   4.161   3.288   1.863 -0.4482 -0.2378 -0.1999
 6475TIP3    H119389   4.116   3.355   1.811  1.2984  1.1979  0.0163
 6475TIP3    H219390   4.151   3.317   1.953  2.1108  1.0200 -0.2278
 6476TIP3   OH219391   6.093   1.612   4.386 -0.9650  0.2031 -0.8946
 6476TIP3    H119392   6.053   1.636   4.469  1.2745  2.4673 -0.3344
 6476TIP3    H219393   6.116   1.695   4.345  3.4352 -0.7502 -0.9054
 6477TIP3   OH219394   4.315   5.248   3.861  0.2760 -0.4342  0.1124
 6477TIP3    H119395   4.259   5.245   3.783  0.2696 -1.7062  0.1579
 6477TIP3    H219396   4.404   5.241   3.827  0.2030 -3.0833  0.3010
 6478TIP3   OH219397   2.535   1.478   3.867 -0.2352  0.5368 -0.5203
 6478TIP3    H119398   2.574   1.523   3.942 -0.6767  2.5030 -1.4074
 6478TIP3    H219399   2.591   1.501   3.793  0.2550 -1.4682 -0.8221
 6479TIP3   OH219400   4.368   3.373   3.168 -0.0518 -0.0397 -0.2802
 6479TIP3    H119401   4.448   3.341   3.125  1.5985  0.7958  1.9332
 6479TIP3    H219402   4.383   3.467   3.181 -2.2933  0.5586 -1.5148
 6480TIP3   OH219403   1.555   0.152   5.422 -0.7128  0.1438  0.0852
 6480TIP3    H119404   1.635   0.114   5.457 -0.7615 -1.0412 -1.0297
 6480TIP3    H219405   1.566   0.151   5.327 -2.1748 -0.3820 -0.1166
 6481TIP3   OH219406   2.462   1.645   2.596 -0.0411  0.5209 -0.1966
 6481TIP3    H119407   2.416   1.564   2.573 -0.0616  0.6859 -0.7573
 6481TIP3    H219408   2.541   1.615   2.642  0.1490  0.1603 -0.7400
 6482TIP3   OH219409   6.206   0.571   2.610  0.2665  0.3874  0.0361
 6482TIP3    H119410   6.110   0.573   2.618  0.2200  2.1968 -0.4973
 6482TIP3    H219411   6.224   0.489   2.565 -1.1537  0.6254 -1.0557
 6483TIP3   OH219412   4.128   3.678   0.758  0.5183  0.2218 -0.3278
 6483TIP3    H119413   4.053   3.736   0.744 -0.6699 -1.1201  0.2350
 6483TIP3    H219414   4.194   3.735   0.798 -1.0781  0.9457  1.4938
 6484TIP3   OH219415   3.582   3.677   3.024 -0.0429  0.5638  0.1371
 6484TIP3    H119416   3.580   3.585   2.997  1.1340  0.3293  0.7869
 6484TIP3    H219417   3.619   3.675   3.113 -1.1329  1.5681  0.6382
 6485TIP3   OH219418   3.416   3.516   0.229 -0.3810  0.6216  0.0840
 6485TIP3    H119419   3.424   3.474   0.315 -1.4408 -0.4048 -0.2918
 6485TIP3    H219420   3.428   3.609   0.246  2.2365  0.2277  0.9322
 6486TIP3   OH219421   2.950   3.465   4.945 -0.0495 -0.8275  0.0908
 6486TIP3    H119422   2.939   3.548   4.897  0.4015 -1.4295 -1.0900
 6486TIP3    H219423   2.865   3.453   4.989 -0.5111 -0.2856 -0.6102
 6487TIP3   OH219424   2.269   3.067   2.267  0.2425 -0.1594 -0.0091
 6487TIP3    H119425   2.186   3.036   2.303  0.3823  0.8656  1.2763
 6487TIP3    H219426   2.262   3.163   2.269  1.3369 -0.0627 -0.1567
 6488TIP3   OH219427   1.505   5.187   0.438 -0.0763 -0.3448  0.3088
 6488TIP3    H119428   1.488   5.269   0.483  2.1730 -0.7290  2.0670
 6488TIP3    H219429   1.431   5.131   0.460 -1.9217  1.2721 -1.3667
 6489TIP3   OH219430   6.772   2.146   2.531 -0.5208 -0.2335 -0.3762
 6489TIP3    H119431   6.754   2.144   2.625  0.4300  0.9846 -0.1464
 6489TIP3    H219432   6.867   2.138   2.524 -0.7777 -5.1530 -1.5041
 6490TIP3   OH219433   3.708   5.645   4.757  0.6209 -0.4549  0.6116
 6490TIP3    H119434   3.682   5.614   4.843 -0.8690  0.3082  0.4756
 6490TIP3    H219435   3.689   5.739   4.759 -1.7907 -0.7960 -1.3100
 6491TIP3   OH219436   0.293   2.979   3.223 -0.1632  0.2183  0.4156
 6491TIP3    H119437   0.227   3.045   3.201 -0.0970  0.1132 -0.1082
 6491TIP3    H219438   0.376   3.023   3.208 -0.1174 -0.1755 -0.5421
 6492TIP3   OH219439   1.851   6.377   0.187 -0.1721  0.2014  0.4616
 6492TIP3    H119440   1.926   6.334   0.229 -2.3236 -2.8063  1.5396
 6492TIP3    H219441   1.876   6.385   0.095  1.7435  0.0398  0.9326
 6493TIP3   OH219442   5.530   1.755   3.495  0.9132 -0.2626 -0.3079
 6493TIP3    H119443   5.442   1.724   3.474  0.4406  1.1509 -0.5177
 6493TIP3    H219444   5.544   1.728   3.585  0.4804 -0.9719 -0.4434
 6494TIP3   OH219445   4.758   2.745   5.852  0.1240  0.1714  0.3540
 6494TIP3    H119446   4.723   2.732   5.940  0.9278 -0.0522  0.6518
 6494TIP3    H219447   4.766   2.657   5.816 -0.6499  0.2942 -0.1240
 6495TIP3   OH219448   1.824   5.179   5.741 -0.6750  0.5286  0.7628
 6495TIP3    H119449   1.860   5.206   5.657 -0.7637  0.2905  0.6477
 6495TIP3    H219450   1.771   5.102   5.721 -1.5972  1.1138  0.8555
 6496TIP3   OH219451   2.598   4.231   3.545  0.2269  0.0971 -0.0723
 6496TIP3    H119452   2.527   4.192   3.597  1.0104  0.5834  1.4264
 6496TIP3    H219453   2.666   4.165   3.544 -0.1630 -0.3142 -1.3942
 6497TIP3   OH219454   2.459   1.808   3.099 -0.3212  0.8031  0.3760
 6497TIP3    H119455   2.437   1.899   3.116 -1.4591  0.4934  0.6253
 6497TIP3    H219456   2.498   1.777   3.181  0.6296  1.2119  0.0967
 6498TIP3   OH219457   4.412   5.061   4.115  0.0738  0.4254  0.3091
 6498TIP3    H119458   4.387   4.983   4.165  1.5490  0.3368  0.9766
 6498TIP3    H219459   4.406   5.132   4.179 -2.9076  1.2439 -0.6951
 6499TIP3   OH219460   3.659   3.037   2.059 -0.1604  0.3328 -0.0948
 6499TIP3    H119461   3.694   3.090   2.130  0.2578  2.3795 -1.7453
 6499TIP3    H219462   3.704   3.068   1.981 -1.4041 -1.0727 -1.4411
 6500TIP3   OH219463   4.258   1.909   1.772  0.1043 -0.4498  0.1265
 6500TIP3    H119464   4.221   1.845   1.833 -2.0849 -0.4195 -1.0967
 6500TIP3    H219465   4.200   1.907   1.696  0.2390  2.6164 -0.1907
 6501TIP3   OH219466   6.637   3.189   4.524 -0.4007  0.0125 -0.1164
 6501TIP3    H119467   6.732   3.200   4.525 -0.2828 -0.6953  1.8351
 6501TIP3    H219468   6.608   3.236   4.446  1.4476  1.0780 -0.2263
 6502TIP3   OH219469   6.247   2.641   2.442  0.2325 -0.2349 -0.1014
 6502TIP3    H119470   6.235   2.736   2.443 -2.3352 -0.4711 -0.7275
 6502TIP3    H219471   6.214   2.614   2.356  0.6924 -1.7352  0.1691
 6503TIP3   OH219472   2.461   4.387   0.803  0.4540  0.0029 -0.1790
 6503TIP3    H119473   2.552   4.396   0.830  0.5496 -0.7802 -0.2265
 6503TIP3    H219474   2.459   4.423   0.714  1.4041 -2.7906 -1.4331
 6504TIP3   OH219475   1.607   2.385   1.963 -0.4877 -0.5304  0.3531
 6504TIP3    H119476   1.575   2.475   1.959  1.5627  0.2126 -1.0735
 6504TIP3    H219477   1.630   2.371   2.055  0.5426  0.9484  0.3472
 6505TIP3   OH219478   1.213   2.628   0.157 -0.0848  0.5537 -0.2324
 6505TIP3    H119479   1.278   2.624   0.228  0.2948  0.9744 -0.5472
 6505TIP3    H219480   1.212   2.721   0.131 -0.8894  0.5636 -0.1619
 6506TIP3   OH219481   2.891   4.665   5.595  0.0288 -0.1190  0.6374
 6506TIP3    H119482   2.861   4.741   5.545 -2.6930 -0.8026  1.0348
 6506TIP3    H219483   2.814   4.639   5.646  1.9910 -0.8979  3.3815
 6507TIP3   OH219484   1.913   4.782   4.565  0.5176  0.5645 -0.3588
 6507TIP3    H119485   1.925   4.711   4.628 -0.0794 -0.7364 -1.6576
 6507TIP3    H219486   1.949   4.747   4.483 -1.2940  1.1027 -1.4341
 6508TIP3   OH219487   1.126   5.532   4.463 -0.1199 -0.0392  0.0382
 6508TIP3    H119488   1.111   5.497   4.551 -2.3048  0.2131 -0.1713
 6508TIP3    H219489   1.194   5.476   4.426  1.4752  0.3510  2.1463
 6509TIP3   OH219490   0.162   6.301   0.085  0.1242 -0.8546 -0.0325
 6509TIP3    H119491   0.209   6.309   0.002 -1.4590 -0.2057 -0.8966
 6509TIP3    H219492   0.104   6.226   0.072 -0.6047 -0.3468  0.2375
 6510TIP3   OH219493   1.795   6.515   5.628  0.0794  0.2155 -0.0068
 6510TIP3    H119494   1.757   6.434   5.663 -1.3481  0.4054 -1.0291
 6510TIP3    H219495   1.846   6.486   5.552  1.6637  0.0203  1.0776
 6511TIP3   OH219496   5.257   6.673   0.529 -0.1954 -0.0055  0.3075
 6511TIP3    H119497   5.335   6.619   0.548  0.2480 -0.1931 -1.8378
 6511TIP3    H219498   5.241   6.660   0.436 -0.7473  2.7498 -0.0530
 6512TIP3   OH219499   4.696   0.348   4.383  0.5045 -0.4093 -0.0587
 6512TIP3    H119500   4.781   0.381   4.352  0.3578 -0.2225 -0.2639
 6512TIP3    H219501   4.674   0.405   4.456 -1.1956  1.9749 -2.2700
 6513TIP3   OH219502   3.910   2.110   4.443 -0.2739 -0.1756 -0.2648
 6513TIP3    H119503   3.898   2.145   4.355 -1.9003  0.2203  0.0743
 6513TIP3    H219504   3.840   2.046   4.453  0.8330 -1.3517  0.2089
 6514TIP3   OH219505   4.273   4.823   1.870  0.0852 -0.3801  0.1564
 6514TIP3    H119506   4.337   4.783   1.929 -0.2015 -0.5736  0.3374
 6514TIP3    H219507   4.223   4.884   1.925  0.1710 -0.1621 -0.0042
 6515TIP3   OH219508   0.284   5.362   4.969  0.3168 -0.3645 -0.5745
 6515TIP3    H119509   0.316   5.300   4.903 -0.8533 -1.1541 -0.4262
 6515TIP3    H219510   0.211   5.407   4.927 -1.0757 -1.5706  0.4644
 6516TIP3   OH219511   3.856   2.422   1.195 -0.1823 -0.0215 -0.1113
 6516TIP3    H119512   3.914   2.498   1.190 -1.6797  1.2444  0.8131
 6516TIP3    H219513   3.880   2.379   1.277 -0.7224  0.6532  0.4045
 6517TIP3   OH219514   4.671   3.251   3.384  0.1467 -0.0749  0.2613
 6517TIP3    H119515   4.727   3.193   3.435 -1.7074 -1.3246  0.9857
 6517TIP3    H219516   4.725   3.278   3.310  2.4079  0.5439  2.0287
 6518TIP3   OH219517   6.360   2.510   4.485 -0.4795 -0.4433 -0.0891
 6518TIP3    H119518   6.325   2.597   4.503  0.0473 -0.0623 -0.8395
 6518TIP3    H219519   6.309   2.478   4.411  1.2239  0.4763 -1.7713
 6519TIP3   OH219520   3.054   3.224   3.934  0.3433 -0.5655 -0.3865
 6519TIP3    H119521   2.988   3.270   3.986  1.5725  0.3367  0.4259
 6519TIP3    H219522   3.093   3.291   3.879 -1.3353 -1.5998 -3.0218
 6520TIP3   OH219523   4.425   1.381   0.398 -0.0843 -0.0684  0.2518
 6520TIP3    H119524   4.368   1.340   0.462  1.0791 -1.4431  0.4308
 6520TIP3    H219525   4.466   1.453   0.445 -0.1151 -0.3462  0.7066
 6521TIP3   OH219526   0.441   0.434   1.395 -0.6256  0.6301  0.0371
 6521TIP3    H119527   0.346   0.441   1.390 -0.4988  2.6086 -0.5989
 6521TIP3    H219528   0.461   0.346   1.363 -2.2394  0.1118  0.3754
 6522TIP3   OH219529   6.026   5.405   0.728  0.2966 -0.0285 -0.2434
 6522TIP3    H119530   6.025   5.355   0.810  1.2992  1.3546  0.6698
 6522TIP3    H219531   6.099   5.368   0.678  0.2996 -0.2419 -0.0820
 6523TIP3   OH219532   6.700   1.790   1.701 -0.0934 -0.5866 -0.4441
 6523TIP3    H119533   6.669   1.708   1.739 -1.2472  0.7765  1.8414
 6523TIP3    H219534   6.621   1.830   1.665 -0.0790  0.5984  0.7448
 6524TIP3   OH219535   3.518   2.279   1.487  0.0023 -0.6891  0.2634
 6524TIP3    H119536   3.430   2.315   1.505  0.1458 -0.3083  0.2128
 6524TIP3    H219537   3.574   2.321   1.552 -0.3284 -3.1500  2.3168
 6525TIP3   OH219538   4.796   3.207   5.743  0.3749 -0.0333  0.0961
 6525TIP3    H119539   4.808   3.172   5.832 -3.6284 -0.7436  0.5322
 6525TIP3    H219540   4.770   3.298   5.756  1.5053  0.4070 -0.5285
 6526TIP3   OH219541   1.607   5.513   0.502 -0.0595 -0.1420 -0.1584
 6526TIP3    H119542   1.537   5.469   0.550 -1.4123 -1.4082 -3.0557
 6526TIP3    H219543   1.563   5.571   0.441  1.5121  0.5006 -0.7480
 6527TIP3   OH219544   5.009   1.422   3.493 -0.1655 -0.6635  0.0509
 6527TIP3    H119545   5.029   1.410   3.400 -1.3522 -0.5500 -0.2341
 6527TIP3    H219546   4.927   1.471   3.494 -1.2538 -2.3850  1.1394
 6528TIP3   OH219547   6.907   6.561   3.269 -0.3108  0.6400 -0.0972
 6528TIP3    H119548   6.833   6.537   3.326 -0.5213 -1.6597 -1.2410
 6528TIP3    H219549   6.909   6.657   3.272 -2.1098  0.6884  1.4919
 6529TIP3   OH219550   3.755   5.866   2.413 -0.0054  0.1100  0.2834
 6529TIP3    H119551   3.830   5.807   2.416 -1.5068 -1.9300 -0.0778
 6529TIP3    H219552   3.681   5.809   2.395 -1.7044  2.0112  0.9067
 6530TIP3   OH219553   6.960   0.976   2.221  0.1405 -0.1170 -0.1060
 6530TIP3    H119554   6.882   1.002   2.270  0.7049 -0.8794  1.2893
 6530TIP3    H219555   6.995   1.057   2.185  0.9939  0.9320  2.7840
 6531TIP3   OH219556   4.642   6.023   4.107 -0.1410  0.0936  0.1467
 6531TIP3    H119557   4.623   5.962   4.036  0.0913 -0.1412  0.2824
 6531TIP3    H219558   4.738   6.023   4.114 -0.0874  1.1502 -0.4380
 6532TIP3   OH219559   3.735   5.309   5.012 -0.4830  0.4383 -0.2241
 6532TIP3    H119560   3.715   5.402   5.003  0.4598  0.6392 -0.4462
 6532TIP3    H219561   3.670   5.275   5.073 -2.3066  0.7221 -1.9249
 6533TIP3   OH219562   3.832   2.765   0.196  0.7128 -0.8079 -0.6229
 6533TIP3    H119563   3.803   2.710   0.123  0.9706 -1.2622 -0.3855
 6533TIP3    H219564   3.927   2.772   0.185  0.7263 -0.7033 -0.4501
 6534TIP3   OH219565   3.380   1.083   0.709 -0.3234  0.5091  0.0808
 6534TIP3    H119566   3.470   1.059   0.731  0.2558  1.0311 -1.5875
 6534TIP3    H219567   3.364   1.042   0.624 -2.2582 -0.9097  1.0501
 6535TIP3   OH219568   1.305   1.073   2.533 -0.4935  0.3842  0.5726
 6535TIP3    H119569   1.336   1.099   2.620 -1.7041 -2.9385  2.1673
 6535TIP3    H219570   1.212   1.096   2.533 -0.4056  0.7504 -0.0287
 6536TIP3   OH219571   3.462   2.480   4.208  0.2307  0.3315 -0.1642
 6536TIP3    H119572   3.542   2.479   4.155 -0.1109  2.1149 -0.7530
 6536TIP3    H219573   3.392   2.461   4.145  0.1955 -2.2337  0.5110
 6537TIP3   OH219574   0.338   5.080   2.468 -0.0839  0.3990 -0.5454
 6537TIP3    H119575   0.331   5.057   2.375  0.9595 -0.2589 -0.4789
 6537TIP3    H219576   0.309   5.001   2.514  0.9756  0.1241 -0.3203
 6538TIP3   OH219577   6.637   1.169   5.013 -0.3809  0.0239  0.0946
 6538TIP3    H119578   6.670   1.245   4.966  0.7073 -0.8615 -0.6296
 6538TIP3    H219579   6.629   1.198   5.104 -0.8142  1.2447 -0.3278
 6539TIP3   OH219580   3.107   1.049   0.474  0.0802  0.1001 -0.3211
 6539TIP3    H119581   3.050   1.038   0.550 -1.2699  0.1728 -1.2926
 6539TIP3    H219582   3.150   0.964   0.463 -0.2689 -0.1300  0.0868
 6540TIP3   OH219583   5.130   4.441   2.617 -0.7963 -0.4680  0.3317
 6540TIP3    H119584   5.062   4.485   2.668 -0.1314 -0.4228  1.2197
 6540TIP3    H219585   5.158   4.368   2.673  0.6476  0.1703  0.4994
 6541TIP3   OH219586   4.255   0.060   3.397 -0.3119 -0.3262 -0.0893
 6541TIP3    H119587   4.300   0.134   3.438 -0.1517 -0.4004 -0.1294
 6541TIP3    H219588   4.261  -0.011   3.461  1.3304 -0.9299 -0.8609
 6542TIP3   OH219589   4.930   4.414   0.253  0.4394  0.3451 -0.4045
 6542TIP3    H119590   4.908   4.501   0.286  0.9831  0.2903  0.1220
 6542TIP3    H219591   4.894   4.412   0.164 -0.3872  0.7676 -0.0897
 6543TIP3   OH219592   5.181   4.568   5.358 -0.1603 -0.0069  0.1930
 6543TIP3    H119593   5.228   4.606   5.284  0.8712 -1.6810 -0.0722
 6543TIP3    H219594   5.247   4.514   5.403 -1.3246 -0.8226  0.9876
 6544TIP3   OH219595   6.833   2.483   4.206  0.4462 -0.1112 -0.3812
 6544TIP3    H119596   6.784   2.565   4.198 -0.3779 -0.6062 -0.5503
 6544TIP3    H219597   6.767   2.415   4.194  0.9366 -0.8123  0.6970
 6545TIP3   OH219598   5.678   5.860   0.091  0.2782  0.5511  0.3688
 6545TIP3    H119599   5.616   5.821   0.152 -1.5582 -1.5582 -2.5625
 6545TIP3    H219600   5.715   5.785   0.044  4.1634  1.8128  1.0542
 6546TIP3   OH219601   7.053   3.125   4.795 -0.2471  0.0137  0.2560
 6546TIP3    H119602   7.058   3.176   4.876 -1.6741  0.4377  0.1089
 6546TIP3    H219603   7.002   3.048   4.818 -0.1197 -0.1762 -0.0931
 6547TIP3   OH219604   3.514   4.551   2.634  0.0904  0.6388  0.1924
 6547TIP3    H119605   3.451   4.617   2.604  1.5392  1.1991 -1.8270
 6547TIP3    H219606   3.562   4.593   2.704 -0.1752  1.0794  0.1149
 6548TIP3   OH219607   1.785   6.671   0.166  0.0775  0.3458  0.2478
 6548TIP3    H119608   1.862   6.690   0.112 -0.0143  1.1485  0.3860
 6548TIP3    H219609   1.803   6.586   0.204  0.4047  0.0242 -0.5944
 6549TIP3   OH219610   1.615   5.960   1.495  0.0565  0.4399 -0.1380
 6549TIP3    H119611   1.591   6.052   1.491  0.3609  0.4854 -0.9757
 6549TIP3    H219612   1.660   5.942   1.413 -1.7742 -0.9566 -0.9166
 6550TIP3   OH219613   0.668   4.763   5.211 -0.2718 -0.4057 -0.2512
 6550TIP3    H119614   0.708   4.850   5.210 -0.6213 -0.2496 -0.6056
 6550TIP3    H219615   0.582   4.775   5.251 -0.8108 -0.3678 -1.3925
 6551TIP3   OH219616   0.591   6.254   4.569  0.0384 -0.6318 -0.1010
 6551TIP3    H119617   0.532   6.201   4.515 -2.1385 -0.0737  1.6009
 6551TIP3    H219618   0.642   6.189   4.618  0.1778 -1.1377 -0.8979
 6552TIP3   OH219619   5.815   0.465   2.247  0.2352 -0.2588 -0.0763
 6552TIP3    H119620   5.816   0.433   2.338 -0.4557  1.2097  0.4765
 6552TIP3    H219621   5.838   0.557   2.254  1.3619 -0.3974 -1.5505
 6553TIP3   OH219622   3.434   3.451   1.152 -0.0418  0.1422  0.1026
 6553TIP3    H119623   3.444   3.378   1.091 -0.9882 -0.7530  0.9874
 6553TIP3    H219624   3.365   3.505   1.113  0.6730  0.5894 -0.5630
 6554TIP3   OH219625   1.175   3.799   0.155  0.0205 -0.2179 -0.3121
 6554TIP3    H119626   1.180   3.834   0.244  0.3200  0.6375 -0.6602
 6554TIP3    H219627   1.229   3.720   0.158 -0.6164 -0.6455  0.4630
 6555TIP3   OH219628   4.953   5.670   2.959 -0.3466 -0.2132  0.5862
 6555TIP3    H119629   4.967   5.753   2.913 -2.3146  0.0036  0.2725
 6555TIP3    H219630   4.995   5.604   2.904 -0.6927  0.3292 -0.3517
 6556TIP3   OH219631   0.937   4.235   0.748 -0.6041 -0.3222  0.1869
 6556TIP3    H119632   0.987   4.200   0.822  0.7292 -0.9497 -0.9639
 6556TIP3    H219633   0.938   4.330   0.763  1.0767 -0.2985  0.1513
 6557TIP3   OH219634   1.535   6.205   1.433 -0.1257  0.0469  0.7761
 6557TIP3    H119635   1.601   6.272   1.414  0.5501 -0.5133  1.0636
 6557TIP3    H219636   1.511   6.171   1.347  0.6781 -0.3917  0.7088
 6558TIP3   OH219637   5.467   3.919   3.634  0.1128 -0.0947 -0.8002
 6558TIP3    H119638   5.389   3.961   3.669  1.3348  1.7368 -0.1217
 6558TIP3    H219639   5.439   3.883   3.550 -2.3700 -2.7571  0.9565
 6559TIP3   OH219640   1.728   1.342   5.440 -0.3377  0.0420 -0.4457
 6559TIP3    H119641   1.638   1.374   5.449 -0.3646 -0.3213  0.7043
 6559TIP3    H219642   1.779   1.396   5.501 -0.2624 -1.5822  0.9974
 6560TIP3   OH219643   0.738   0.850   0.043  0.5885 -0.0162 -0.0795
 6560TIP3    H119644   0.789   0.888  -0.028  2.5223  0.3856  1.4366
 6560TIP3    H219645   0.736   0.756   0.023  0.2363  0.2051 -1.1514
 6561TIP3   OH219646   4.932   3.065   0.336 -0.0257  0.0597  0.0370
 6561TIP3    H119647   4.964   3.016   0.412 -0.4752 -1.6925 -0.8372
 6561TIP3    H219648   4.864   3.009   0.299  0.1212  0.9174 -1.6025
 6562TIP3   OH219649   3.718   5.618   5.022  0.2950 -0.1357 -0.5297
 6562TIP3    H119650   3.808   5.629   5.053  0.3577 -0.2073 -0.6846
 6562TIP3    H219651   3.664   5.631   5.100  0.4748 -0.7918 -0.2903
 6563TIP3   OH219652   2.602   6.616   3.112 -0.1664 -0.6636 -0.4157
 6563TIP3    H119653   2.514   6.613   3.074 -0.6455 -0.4512  0.6191
 6563TIP3    H219654   2.586   6.625   3.206  0.9549  0.6700 -0.3141
 6564TIP3   OH219655   2.683   6.407   5.704 -0.0669 -0.4740  0.0646
 6564TIP3    H119656   2.640   6.492   5.698 -0.9845 -0.7440  1.9603
 6564TIP3    H219657   2.662   6.363   5.622  0.4307  1.1024 -0.9443
 6565TIP3   OH219658   1.005   2.154   0.702 -0.3488 -0.0599 -0.3167
 6565TIP3    H119659   0.938   2.141   0.769  1.7223 -2.7447  1.4740
 6565TIP3    H219660   0.985   2.088   0.635 -0.2133 -0.0479 -0.3696
 6566TIP3   OH219661   2.858   5.588   0.082 -0.0959  0.0269 -0.6252
 6566TIP3    H119662   2.953   5.582   0.087 -0.1003 -0.3371 -0.8686
 6566TIP3    H219663   2.829   5.497   0.076 -0.4988  0.1045  0.0506
 6567TIP3   OH219664   6.671   1.900   5.394  0.3750  0.4325 -0.3997
 6567TIP3    H119665   6.619   1.977   5.419  0.5804  0.2054  0.8255
 6567TIP3    H219666   6.750   1.905   5.449  0.5160 -0.4986 -0.4892
 6568TIP3   OH219667   1.422   4.838   1.335 -0.4326  0.1265  0.6391
 6568TIP3    H119668   1.497   4.783   1.357  0.3411  1.5533  1.7718
 6568TIP3    H219669   1.413   4.829   1.240 -0.4513 -2.0364  0.8178
 6569TIP3   OH219670   4.425   1.503   5.687 -0.2919 -0.1315  0.8254
 6569TIP3    H119671   4.483   1.530   5.616 -1.4134  1.3750  0.4422
 6569TIP3    H219672   4.396   1.415   5.663 -1.3788  0.7097 -1.0608
 6570TIP3   OH219673   5.633   2.516   1.780  0.2504  0.2096  0.6668
 6570TIP3    H119674   5.656   2.448   1.716 -0.1248  0.3880  0.3416
 6570TIP3    H219675   5.556   2.559   1.743  2.5777  3.3125 -1.0310
 6571TIP3   OH219676   1.989   5.292   5.021 -0.0231 -0.3073 -0.2097
 6571TIP3    H119677   2.040   5.314   4.942 -1.2260  1.2504 -0.6002
 6571TIP3    H219678   2.038   5.333   5.092  0.1082 -0.1828 -0.3694
 6572TIP3   OH219679   6.219   1.888   5.607 -0.0497 -0.0049  0.0607
 6572TIP3    H119680   6.264   1.966   5.638 -0.7678  0.2796  0.4282
 6572TIP3    H219681   6.224   1.893   5.511  0.4073  0.1849  0.0925
 6573TIP3   OH219682   4.792   6.328   0.557  0.1791 -0.7302  0.2480
 6573TIP3    H119683   4.825   6.253   0.508  0.1919  0.2580 -1.3041
 6573TIP3    H219684   4.859   6.396   0.544 -0.3716 -0.0854  0.7162
 6574TIP3   OH219685   0.184   6.301   0.586  0.2919  0.1500 -0.5688
 6574TIP3    H119686   0.173   6.396   0.598 -0.2830  0.0885 -0.5918
 6574TIP3    H219687   0.259   6.279   0.642  0.6579  0.6779 -0.8437
 6575TIP3   OH219688   4.731   2.332   3.902 -0.3544  0.1035 -0.1319
 6575TIP3    H119689   4.815   2.293   3.875 -0.9255 -0.9942 -0.4027
 6575TIP3    H219690   4.666   2.286   3.848 -1.1256  0.9779  0.0396
 6576TIP3   OH219691   3.549   0.876   4.362 -0.0490 -0.2674  0.2236
 6576TIP3    H119692   3.608   0.860   4.289  1.4072  2.0929  0.7671
 6576TIP3    H219693   3.467   0.903   4.321  0.0939 -0.9206 -0.5234
 6577TIP3   OH219694   6.585   2.979   1.698 -0.3987 -0.2625 -0.0994
 6577TIP3    H119695   6.632   3.041   1.642 -1.5217  0.9305  0.2345
 6577TIP3    H219696   6.562   2.906   1.640 -2.9903  1.6706 -1.7241
 6578TIP3   OH219697   3.852   0.894   0.556 -0.8510  0.3182 -0.6739
 6578TIP3    H119698   3.918   0.895   0.625 -0.2127  0.4658 -1.2793
 6578TIP3    H219699   3.769   0.883   0.602 -0.4515  0.6394  0.1334
 6579TIP3   OH219700   6.551   1.024   1.600  0.5384 -0.0401  0.0935
 6579TIP3    H119701   6.541   1.051   1.691  3.7064 -0.0901  0.5663
 6579TIP3    H219702   6.546   1.105   1.550  0.7070  0.2497  0.5407
 6580TIP3   OH219703   2.419   0.762   2.422 -0.1404  0.0591 -0.2531
 6580TIP3    H119704   2.503   0.776   2.379  0.1158 -1.0110 -0.1202
 6580TIP3    H219705   2.402   0.844   2.469  1.3449 -0.0877  0.5911
 6581TIP3   OH219706   6.243   1.937   4.887 -0.3586  0.0730  0.2000
 6581TIP3    H119707   6.235   1.935   4.791 -0.4732 -0.2653  0.2145
 6581TIP3    H219708   6.256   1.846   4.911  1.9424  0.3803  0.3147
 6582TIP3   OH219709   0.064   4.586   5.502  0.4861  0.6243 -0.1022
 6582TIP3    H119710   0.137   4.524   5.509  0.0007  0.0923  0.4549
 6582TIP3    H219711   0.105   4.672   5.499  1.1363  0.3330  0.2474
 6583TIP3   OH219712   1.322   2.892   3.056 -0.2906 -0.1072  0.2718
 6583TIP3    H119713   1.290   2.981   3.066 -1.5489 -0.4038 -0.8950
 6583TIP3    H219714   1.412   2.902   3.023  0.2325  0.7040  1.8292
 6584TIP3   OH219715   5.426   4.167   0.431  0.4284 -0.2162  0.2549
 6584TIP3    H119716   5.501   4.127   0.475  0.0112 -2.1930 -0.7274
 6584TIP3    H219717   5.394   4.099   0.371 -0.5392  1.5009 -1.2730
 6585TIP3   OH219718   2.521   5.204   4.632 -0.3231  0.4604 -0.7822
 6585TIP3    H119719   2.588   5.144   4.665 -1.0357  0.0600 -0.0059
 6585TIP3    H219720   2.451   5.199   4.697 -0.5845  1.8164 -0.9292
 6586TIP3   OH219721   5.311   4.138   3.512 -0.2767 -0.6826 -0.1195
 6586TIP3    H119722   5.401   4.159   3.537 -0.3467  0.7229 -0.9465
 6586TIP3    H219723   5.271   4.104   3.592  0.4995  0.3536  0.7382
 6587TIP3   OH219724   5.272   3.305   0.304 -0.0618  0.0076  0.5523
 6587TIP3    H119725   5.205   3.302   0.236  0.1736 -0.0340  0.3181
 6587TIP3    H219726   5.241   3.371   0.366  0.1016  0.6305 -0.0088
 6588TIP3   OH219727   7.136   4.575   4.275  0.0540 -0.4187 -0.1845
 6588TIP3    H119728   7.094   4.657   4.250 -0.9241 -0.7515  0.3186
 6588TIP3    H219729   7.064   4.512   4.282  0.9027 -1.6308 -1.7143
 6589TIP3   OH219730   4.148   6.483   1.800 -0.3397  0.3601 -0.0413
 6589TIP3    H119731   4.127   6.532   1.721 -1.1549  1.3076  0.7331
 6589TIP3    H219732   4.077   6.503   1.861 -0.4257 -1.3804  0.4975
 6590TIP3   OH219733   5.609   4.527   3.558 -0.2247  0.4335 -0.0359
 6590TIP3    H119734   5.545   4.541   3.628 -0.3815  0.0107 -0.0962
 6590TIP3    H219735   5.693   4.550   3.598 -0.4108  1.0130  0.0358
 6591TIP3   OH219736   2.135   2.203   5.577  0.1244 -0.2000 -0.3443
 6591TIP3    H119737   2.084   2.166   5.649  0.6019 -1.9519 -0.8646
 6591TIP3    H219738   2.086   2.281   5.551 -0.1342  0.4308  1.7713
 6592TIP3   OH219739   4.469   1.449   0.983 -0.3860  0.3690 -0.4463
 6592TIP3    H119740   4.440   1.522   0.928  0.0689  0.9755  0.0968
 6592TIP3    H219741   4.526   1.490   1.049  0.2312 -0.5412 -0.3959
 6593TIP3   OH219742   5.528   4.836   2.404 -0.1087 -0.5096 -0.4638
 6593TIP3    H119743   5.447   4.786   2.418 -0.0060 -0.1828  1.5785
 6593TIP3    H219744   5.517   4.915   2.457  1.6239 -0.5448  0.0137
 6594TIP3   OH219745   5.092   5.932   1.617 -0.0616 -0.0534 -0.0351
 6594TIP3    H119746   5.012   5.924   1.669  0.2157  3.2005  1.1577
 6594TIP3    H219747   5.089   6.022   1.583  2.3417 -0.3643 -1.2732
 6595TIP3   OH219748   4.970   3.633   2.794 -0.1735 -0.1096 -0.0140
 6595TIP3    H119749   4.998   3.542   2.808 -1.9366 -0.6663  0.1604
 6595TIP3    H219750   5.041   3.686   2.828  0.5435 -1.4343  0.6108
 6596TIP3   OH219751   2.809   2.798   2.806 -0.1733 -0.1649  0.2562
 6596TIP3    H119752   2.802   2.873   2.865  0.1479  0.1325 -0.0846
 6596TIP3    H219753   2.729   2.800   2.754  0.0360  0.1950 -0.0519
 6597TIP3   OH219754   7.019   4.881   0.306  0.5266  0.2541  0.2722
 6597TIP3    H119755   7.035   4.961   0.356 -1.6951  1.1361 -0.2920
 6597TIP3    H219756   7.065   4.813   0.354  2.0547  1.7654  1.0625
 6598TIP3   OH219757   6.767   3.825   2.101  0.8734  0.4442 -0.0374
 6598TIP3    H119758   6.816   3.746   2.122 -1.8430 -3.1397 -4.9528
 6598TIP3    H219759   6.823   3.872   2.039  0.7335 -0.1874 -0.6590
 6599TIP3   OH219760   1.381   4.954   0.534  0.3546 -0.4443  0.1568
 6599TIP3    H119761   1.360   4.869   0.496  0.2361 -0.3803  0.0771
 6599TIP3    H219762   1.428   4.933   0.615  1.5535 -0.5695 -0.5443
 6600TIP3   OH219763   0.415   6.626   5.077  0.2149  0.2145  0.0929
 6600TIP3    H119764   0.332   6.668   5.053 -0.4175 -0.7393  0.5348
 6600TIP3    H219765   0.389   6.539   5.109  1.3458  0.0948  0.7261
 6601TIP3   OH219766   4.267   0.376   3.116  0.2686 -0.4466  0.2121
 6601TIP3    H119767   4.283   0.469   3.101  3.5216 -0.6891  1.3588
 6601TIP3    H219768   4.201   0.374   3.186 -1.1680  0.8981 -1.0319
 6602TIP3   OH219769   5.768   1.293   5.027 -0.2100  0.7767 -0.4588
 6602TIP3    H119770   5.686   1.245   5.015 -0.4391  1.4249 -1.7733
 6602TIP3    H219771   5.766   1.325   5.117 -0.0458 -1.6333  0.4559
 6603TIP3   OH219772   2.308   3.577   1.392 -0.0136  0.4593  0.3061
 6603TIP3    H119773   2.305   3.559   1.298  1.2457  1.2121  0.0907
 6603TIP3    H219774   2.217   3.588   1.418 -0.3483  0.6509 -0.9098
 6604TIP3   OH219775   0.987   4.751   1.479  0.4173 -0.2610 -0.3405
 6604TIP3    H119776   1.001   4.724   1.570 -1.4155  0.8278  0.3110
 6604TIP3    H219777   1.054   4.819   1.464 -0.3574  0.8011  0.8010
 6605TIP3   OH219778   3.339   2.603   5.456  0.7066 -0.1574  0.3114
 6605TIP3    H119779   3.274   2.662   5.420  1.4908  2.2906  2.5875
 6605TIP3    H219780   3.291   2.548   5.518  0.3564 -0.3215 -0.1053
 6606TIP3   OH219781   6.478   0.097   2.294  0.2817  0.2780 -0.1542
 6606TIP3    H119782   6.400   0.141   2.259  0.8378  1.0690 -0.4095
 6606TIP3    H219783   6.477   0.011   2.251  0.8621  1.1573 -2.0577
 6607TIP3   OH219784   4.869   6.667   2.548 -0.4763 -0.2197 -0.1062
 6607TIP3    H119785   4.949   6.663   2.495 -0.4430  2.8549 -0.5024
 6607TIP3    H219786   4.899   6.652   2.637  0.7898  1.7753 -0.1284
 6608TIP3   OH219787   5.072   4.861   1.626  0.5634  0.2176 -0.4113
 6608TIP3    H119788   5.065   4.822   1.713 -0.1638 -0.1686 -0.6357
 6608TIP3    H219789   4.988   4.907   1.613 -0.0834 -1.2038 -1.5999
 6609TIP3   OH219790   0.151   4.416   2.313 -0.0284  0.0570 -0.2072
 6609TIP3    H119791   0.159   4.482   2.245 -0.5454 -0.2924 -0.6112
 6609TIP3    H219792   0.062   4.382   2.304 -0.3383  0.4674  1.0633
 6610TIP3   OH219793   0.452   1.080   4.764 -0.1359  0.0396  0.3541
 6610TIP3    H119794   0.480   1.025   4.836 -0.7479 -2.5479 -1.2475
 6610TIP3    H219795   0.402   1.150   4.805 -0.4723 -1.3427  2.4393
 6611TIP3   OH219796   0.380   1.647   4.248 -0.5167  0.1403 -0.1434
 6611TIP3    H119797   0.467   1.682   4.270 -0.6799  0.2184  0.3898
 6611TIP3    H219798   0.368   1.668   4.155  0.4036 -0.6486 -0.4600
 6612TIP3   OH219799   4.700   4.855   4.768  0.3292  0.5372  0.4467
 6612TIP3    H119800   4.772   4.798   4.793 -0.3869 -0.9718 -0.7481
 6612TIP3    H219801   4.742   4.936   4.738  1.5957 -0.5386 -0.8226
 6613TIP3   OH219802   0.941   5.967   0.857 -0.0916  0.4654  0.1885
 6613TIP3    H119803   1.036   5.958   0.847 -0.0509  0.9464  0.1491
 6613TIP3    H219804   0.928   5.975   0.951  0.1136  2.6164  0.0853
 6614TIP3   OH219805   3.097   5.138   4.227  0.2323  0.1282  0.2437
 6614TIP3    H119806   3.184   5.136   4.186 -0.3676  2.7510 -1.4036
 6614TIP3    H219807   3.110   5.186   4.309  0.1987  1.5891 -0.5696
 6615TIP3   OH219808   0.341   3.896   3.083 -0.3478  0.1839 -0.1497
 6615TIP3    H119809   0.300   3.818   3.119 -1.3998  0.2201 -1.2307
 6615TIP3    H219810   0.433   3.887   3.106 -0.5937 -0.9443  0.4751
 6616TIP3   OH219811   4.627   5.270  -0.016  0.0346 -0.2769  0.4341
 6616TIP3    H119812   4.661   5.236   0.067 -0.6218  3.6572  2.5275
 6616TIP3    H219813   4.533   5.281  -0.000 -0.1701  0.1771 -0.9803
 6617TIP3   OH219814   3.696   5.195   4.750  0.5435  0.5629 -0.3223
 6617TIP3    H119815   3.736   5.254   4.815  2.0739 -0.7288 -0.0361
 6617TIP3    H219816   3.691   5.111   4.794  4.5618 -1.2137 -2.7662
 6618TIP3   OH219817   3.584   1.323   5.773  0.5867 -0.5858  0.0689
 6618TIP3    H119818   3.625   1.246   5.735  1.1925  0.7094 -2.0274
 6618TIP3    H219819   3.646   1.394   5.758 -0.0479  0.3852  1.7628
 6619TIP3   OH219820   2.343   1.533   4.228 -0.5568  0.1395  0.2690
 6619TIP3    H119821   2.364   1.455   4.175 -2.1540 -0.2127  0.0860
 6619TIP3    H219822   2.344   1.605   4.165 -0.6930 -0.0045  0.0974
 6620TIP3   OH219823   3.012   5.893   2.321  0.0223  0.0406 -0.0402
 6620TIP3    H119824   2.945   5.857   2.263 -0.8346 -0.6806  1.3444
 6620TIP3    H219825   2.970   5.968   2.363  0.3835  0.1077  0.2052
 6621TIP3   OH219826   5.625   4.097   5.035 -0.5334  0.2648 -0.3183
 6621TIP3    H119827   5.661   4.008   5.036  2.1984  1.2765  0.4277
 6621TIP3    H219828   5.649   4.132   4.950 -0.3944  0.7345 -0.0885
 6622TIP3   OH219829   3.454   1.253   2.424 -0.4558  0.4037 -0.0826
 6622TIP3    H119830   3.442   1.161   2.447 -2.0937  0.5436 -0.2685
 6622TIP3    H219831   3.543   1.257   2.388 -0.3239 -1.0777 -0.0005
 6623TIP3   OH219832   1.937   2.114   5.767  0.2713 -0.1166 -0.3443
 6623TIP3    H119833   1.948   2.091   5.859  0.7109 -0.0439 -0.3791
 6623TIP3    H219834   1.909   2.206   5.769  2.4762  0.6010 -0.3577
 6624TIP3   OH219835   6.975   4.476   1.271  0.4875 -0.1303 -0.8218
 6624TIP3    H119836   6.903   4.461   1.333  2.4157 -1.0367  1.3367
 6624TIP3    H219837   6.951   4.425   1.194 -0.5912 -1.4922  0.3540
 6625TIP3   OH219838   3.703   0.577   1.189  0.1686  0.5551  0.6031
 6625TIP3    H119839   3.654   0.586   1.107  0.4338  1.6713  0.5462
 6625TIP3    H219840   3.647   0.620   1.254  1.2525  2.2991  0.4458
 6626TIP3   OH219841   5.715   1.176   4.431  0.7110  0.2693  0.0117
 6626TIP3    H119842   5.809   1.160   4.426  1.1014  2.3163 -0.0273
 6626TIP3    H219843   5.677   1.113   4.369  2.3850  1.6065 -2.5621
 6627TIP3   OH219844   2.991   6.312   3.386  0.1797  0.2668  0.3091
 6627TIP3    H119845   2.920   6.346   3.332  0.2433 -2.1407 -1.5006
 6627TIP3    H219846   2.951   6.241   3.437  1.1804 -1.0195 -0.6192
 6628TIP3   OH219847   2.810   3.010   3.000 -0.1533 -0.5252 -0.0507
 6628TIP3    H119848   2.718   3.021   2.977  0.1472  0.2082 -0.9476
 6628TIP3    H219849   2.842   3.099   3.014  0.5420 -0.7417 -0.2408
 6629TIP3   OH219850   2.042   1.372   4.747 -0.3109 -0.3813  0.1213
 6629TIP3    H119851   2.124   1.332   4.775 -0.2755 -0.1655  0.3311
 6629TIP3    H219852   2.054   1.465   4.765 -0.2180 -0.2093 -0.7874
 6630TIP3   OH219853   0.456   2.946   5.464  0.5921  0.1747  0.1955
 6630TIP3    H119854   0.447   2.851   5.462 -0.9099  0.2998  0.0619
 6630TIP3    H219855   0.421   2.975   5.380 -0.3480  0.9457  0.8411
 6631TIP3   OH219856   2.147   2.980   5.538 -0.1831  0.2498 -0.7656
 6631TIP3    H119857   2.177   3.036   5.610 -0.5161  0.6533 -0.9339
 6631TIP3    H219858   2.078   3.031   5.496 -0.5975 -0.3649 -0.8279
 6632TIP3   OH219859   3.818   5.239   3.012  0.6050 -0.4949  0.3538
 6632TIP3    H119860   3.784   5.180   3.080 -0.5212  0.0950  0.3331
 6632TIP3    H219861   3.812   5.326   3.051 -0.0388 -0.1518 -0.4934
 6633TIP3   OH219862   2.783   3.512   1.545 -0.8207  0.2819  0.2474
 6633TIP3    H119863   2.780   3.439   1.483 -0.9270  0.6668 -0.2052
 6633TIP3    H219864   2.752   3.474   1.627  1.1878 -0.7368  0.6021
 6634TIP3   OH219865   0.379   5.191   4.770  0.0363  0.1871 -0.3835
 6634TIP3    H119866   0.340   5.256   4.711 -0.8114  0.5259  0.5339
 6634TIP3    H219867   0.419   5.127   4.711  0.7274  1.4313 -1.3132
 6635TIP3   OH219868   1.861   2.804   1.192 -0.0965 -0.6156 -0.0905
 6635TIP3    H119869   1.797   2.749   1.238 -0.6990  1.1108  1.2711
 6635TIP3    H219870   1.945   2.782   1.232 -0.5643  0.5944  1.7043
 6636TIP3   OH219871   1.888   1.596   2.399 -0.3331 -0.1606 -0.0140
 6636TIP3    H119872   1.843   1.680   2.394 -0.1576 -0.0688 -0.0688
 6636TIP3    H219873   1.858   1.548   2.322 -0.6010 -0.2300  0.1366
 6637TIP3   OH219874   3.653   1.857   0.969 -0.4974 -0.1537  0.2936
 6637TIP3    H119875   3.689   1.940   0.937 -0.2734 -0.0819  0.7134
 6637TIP3    H219876   3.718   1.791   0.944 -1.0473 -0.3175 -0.7216
 6638TIP3   OH219877   5.351   2.488   0.132 -0.1630 -0.1386 -0.0677
 6638TIP3    H119878   5.327   2.556   0.195  0.6858  0.6983 -0.6413
 6638TIP3    H219879   5.275   2.482   0.073 -0.2703  0.2555  0.0284
 6639TIP3   OH219880   7.207   6.138   0.926 -0.2406  0.0259  0.0960
 6639TIP3    H119881   7.239   6.145   0.836  0.7790 -1.9355  0.2467
 6639TIP3    H219882   7.144   6.209   0.935  0.6639  1.1398 -1.7208
 6640TIP3   OH219883   3.820   0.337   0.854 -0.1850 -0.1514  0.3012
 6640TIP3    H119884   3.849   0.402   0.917  1.3202 -1.5212  1.0854
 6640TIP3    H219885   3.869   0.358   0.774 -0.0513 -0.0296  0.4137
 6641TIP3   OH219886   4.959   1.984   0.268  0.5148  0.2157 -0.5165
 6641TIP3    H119887   4.936   2.063   0.219  1.0748 -0.6524 -2.2692
 6641TIP3    H219888   4.881   1.964   0.318 -0.3720  0.7550 -1.6233
 6642TIP3   OH219889   1.850   5.798   5.811  0.1189  0.2770 -0.3577
 6642TIP3    H119890   1.902   5.736   5.863  0.3667  1.6472  1.0905
 6642TIP3    H219891   1.828   5.749   5.732  1.4533 -1.2090  0.1238
 6643TIP3   OH219892   2.744   4.944   1.976 -0.6299  0.2721 -0.1088
 6643TIP3    H119893   2.790   4.871   1.934  0.4193 -0.0373  1.4780
 6643TIP3    H219894   2.656   4.942   1.940 -0.1239 -0.7123 -1.3530
 6644TIP3   OH219895   2.255   2.230   1.367 -0.1182 -0.1069 -0.3862
 6644TIP3    H119896   2.269   2.137   1.387  0.9115 -0.0370 -0.7554
 6644TIP3    H219897   2.214   2.265   1.446 -0.3527 -0.8303 -0.1731
 6645TIP3   OH219898   3.477   6.762   1.427  0.2131  0.6876  0.1314
 6645TIP3    H119899   3.423   6.759   1.505 -0.4684  0.5833 -0.3341
 6645TIP3    H219900   3.436   6.829   1.372  1.2622  1.4688  0.2716
 6646TIP3   OH219901   4.215   5.201   1.856  0.0528 -0.3881 -0.2032
 6646TIP3    H119902   4.215   5.252   1.937  0.5021  0.0253 -0.4568
 6646TIP3    H219903   4.222   5.110   1.885  0.5591 -0.2232  0.2140
 6647TIP3   OH219904   1.307   2.846   4.744 -0.3551 -0.5667 -0.3169
 6647TIP3    H119905   1.328   2.930   4.785  0.0212  0.0097 -1.6209
 6647TIP3    H219906   1.366   2.841   4.668 -1.3134 -1.3616 -1.0411
 6648TIP3   OH219907   2.558   2.381   3.096 -0.2333 -0.1396 -0.2058
 6648TIP3    H119908   2.632   2.409   3.043 -0.5423  1.3807  0.0966
 6648TIP3    H219909   2.588   2.391   3.187 -1.5480  3.1074  0.0311
 6649TIP3   OH219910   5.119   2.858   4.969  0.1365  0.2691  0.0553
 6649TIP3    H119911   5.190   2.921   4.958 -0.0297  0.4055 -0.2203
 6649TIP3    H219912   5.155   2.792   5.029  0.5417  0.2710 -0.1825
 6650TIP3   OH219913   3.862   2.323   5.120 -0.4556  0.2475  0.8720
 6650TIP3    H119914   3.870   2.380   5.044 -0.7643 -0.1996  0.5009
 6650TIP3    H219915   3.946   2.279   5.127 -0.1590  0.8674  1.2590
 6651TIP3   OH219916   0.370   1.791   5.414  0.0589 -0.2684  0.0106
 6651TIP3    H119917   0.319   1.766   5.337 -2.1476 -1.8460  1.8757
 6651TIP3    H219918   0.335   1.737   5.485  3.0059  0.0495  1.8601
 6652TIP3   OH219919   1.342   2.337   2.666 -0.9209  0.7033  0.6259
 6652TIP3    H119920   1.297   2.287   2.598  1.7320  1.1276 -1.6305
 6652TIP3    H219921   1.338   2.281   2.743 -2.5115 -0.6344 -0.3544
 6653TIP3   OH219922   3.268   2.790   0.397  0.3300 -0.3161 -0.7489
 6653TIP3    H119923   3.244   2.862   0.338  0.5656  0.0630 -0.3862
 6653TIP3    H219924   3.339   2.745   0.351  0.0531 -0.4408 -1.0647
 6654TIP3   OH219925   0.313   1.279   5.561 -0.5541 -0.1573  0.5058
 6654TIP3    H119926   0.288   1.341   5.629  1.5335  0.6919  0.5905
 6654TIP3    H219927   0.248   1.291   5.491 -1.2266  0.8054  1.2800
 6655TIP3   OH219928   6.813   0.839   5.432  0.0016 -0.2328 -0.1383
 6655TIP3    H119929   6.908   0.832   5.442 -0.2161 -2.1010  1.1201
 6655TIP3    H219930   6.777   0.783   5.501 -2.0654  1.6289  0.4288
 6656TIP3   OH219931   6.829   2.366   5.436 -0.1384  0.1273  0.1836
 6656TIP3    H119932   6.874   2.444   5.468  1.1293  0.4925 -2.2741
 6656TIP3    H219933   6.776   2.397   5.363 -1.1458 -1.0091  0.4008
 6657TIP3   OH219934   5.727   6.469   4.117 -0.0219 -0.2972 -0.5947
 6657TIP3    H119935   5.716   6.505   4.030  0.8750  0.4162 -0.4246
 6657TIP3    H219936   5.717   6.543   4.176  0.1711 -0.6310 -0.1337
 6658TIP3   OH219937   1.282   1.052   5.482  0.0711  0.1630 -0.1725
 6658TIP3    H119938   1.311   1.113   5.414  2.2589  0.4505  0.9197
 6658TIP3    H219939   1.287   0.966   5.440 -0.6737  0.4971 -0.9845
 6659TIP3   OH219940   3.764   0.962   1.213 -0.3109  0.0597 -0.1848
 6659TIP3    H119941   3.699   0.960   1.142 -1.1896  0.3232  0.5840
 6659TIP3    H219942   3.786   1.055   1.222  0.3348 -0.0524 -0.5758
 6660TIP3   OH219943   7.078   4.704   1.132  0.2603  0.4787 -0.1119
 6660TIP3    H119944   7.024   4.626   1.149 -0.6795  1.0158 -0.5482
 6660TIP3    H219945   7.094   4.741   1.219  3.5560 -1.9558  0.5320
 6661TIP3   OH219946   5.657   1.898   5.184 -0.4341 -0.5425  0.5189
 6661TIP3    H119947   5.632   1.813   5.147  0.5421 -0.5020 -0.2680
 6661TIP3    H219948   5.725   1.877   5.247 -0.1684 -0.3373  0.2995
 6662TIP3   OH219949   3.051   1.227   2.115  0.4022  0.0988 -0.2176
 6662TIP3    H119950   2.989   1.182   2.057 -1.6806 -0.2603  2.1368
 6662TIP3    H219951   3.003   1.303   2.147  1.4218  0.1920  1.1667
 6663TIP3   OH219952   0.682   2.521   5.411  0.2751  0.0702  0.3580
 6663TIP3    H119953   0.665   2.520   5.505  0.6507 -0.1411  0.4231
 6663TIP3    H219954   0.777   2.514   5.404  0.1311 -2.0052 -0.0833
 6664TIP3   OH219955   3.786   0.286   4.077  1.0468 -0.0705  0.4448
 6664TIP3    H119956   3.702   0.245   4.098  1.2795 -0.2182  1.1032
 6664TIP3    H219957   3.767   0.340   4.001  0.0910  0.7539  1.2299
 6665TIP3   OH219958   5.109   6.404   0.747  0.0950 -0.3690  0.5552
 6665TIP3    H119959   5.068   6.446   0.672  0.1407 -1.9886 -0.4194
 6665TIP3    H219960   5.176   6.466   0.776  0.5369  0.0039 -1.1627
 6666TIP3   OH219961   4.252   1.656   5.063  0.0205  0.2405  0.0595
 6666TIP3    H119962   4.250   1.567   5.028 -1.9569  0.0789  0.4557
 6666TIP3    H219963   4.335   1.661   5.110 -0.9380 -2.3577  2.3219
 6667TIP3   OH219964   7.190   5.425   4.501  0.3229  0.2781  0.2184
 6667TIP3    H119965   7.284   5.439   4.498  0.3020  0.9756  1.6798
 6667TIP3    H219966   7.154   5.492   4.443  0.7130  0.0696 -0.2706
 6668TIP3   OH219967   0.497   5.443   2.995  0.5354 -0.4113 -0.2918
 6668TIP3    H119968   0.472   5.376   2.933 -0.3864 -0.7400  0.4041
 6668TIP3    H219969   0.593   5.444   2.994  0.5795 -2.1255  0.0905
 6669TIP3   OH219970   5.916   0.623   2.643  0.0602 -0.3024  0.4568
 6669TIP3    H119971   5.858   0.696   2.620  0.6202 -0.2235 -0.7787
 6669TIP3    H219972   5.914   0.566   2.566  1.7519 -0.2204  0.3171
 6670TIP3   OH219973   6.150   2.623   1.687  0.1538  0.4339 -0.1466
 6670TIP3    H119974   6.092   2.689   1.726 -1.2371 -0.8255 -0.0198
 6670TIP3    H219975   6.234   2.637   1.730 -0.7182  0.6470  1.5757
 6671TIP3   OH219976   3.468   6.368   5.291 -1.0485  0.9591 -0.1751
 6671TIP3    H119977   3.506   6.302   5.234  0.2966  1.8053 -0.3107
 6671TIP3    H219978   3.496   6.452   5.252  0.5558  1.5649  2.0749
 6672TIP3   OH219979   6.591   0.428   3.110 -0.0842 -0.1281 -0.0190
 6672TIP3    H119980   6.672   0.409   3.062 -0.0880 -1.3832  0.4116
 6672TIP3    H219981   6.525   0.440   3.042  0.5157  1.3049 -0.3875
 6673TIP3   OH219982   4.720   1.612   1.504 -0.5262 -0.0010 -0.6806
 6673TIP3    H119983   4.708   1.520   1.479  0.3938 -0.1074 -0.7562
 6673TIP3    H219984   4.631   1.646   1.513 -0.8943 -1.1238  0.1903
 6674TIP3   OH219985   3.605   3.642   5.499  0.0654 -0.0632  0.0778
 6674TIP3    H119986   3.542   3.627   5.569  0.6741  0.1669  0.6856
 6674TIP3    H219987   3.576   3.724   5.458  0.0420  0.1114  0.4369
 6675TIP3   OH219988   5.492   1.681   5.789 -0.0822  0.3147  0.4901
 6675TIP3    H119989   5.447   1.596   5.787  3.4861 -1.8501  1.6032
 6675TIP3    H219990   5.525   1.689   5.879  1.4181  1.8331 -0.1280
 6676TIP3   OH219991   4.823   4.939   2.745 -0.7283 -0.0971 -0.0201
 6676TIP3    H119992   4.745   4.966   2.696 -1.6116  0.3973  1.5802
 6676TIP3    H219993   4.805   4.965   2.836  1.7194  0.9203  0.2575
 6677TIP3   OH219994   0.443   4.225   3.377 -0.2129  0.2049 -0.1005
 6677TIP3    H119995   0.409   4.298   3.429  0.2531  0.2985  0.0807
 6677TIP3    H219996   0.518   4.261   3.331 -0.3842  0.0148 -0.5367
 6678TIP3   OH219997   2.939   5.829   0.370 -0.9917 -0.7587  0.0638
 6678TIP3    H119998   2.872   5.768   0.400 -1.0934 -1.2281 -1.0730
 6678TIP3    H219999   3.020   5.796   0.407 -1.4126  0.1837  2.0109
 6679TIP3   OH220000   6.961   1.895   0.300 -1.2634  0.0366  0.3919
 6679TIP3    H120001   6.974   1.990   0.297 -2.0778  0.1408 -0.6999
 6679TIP3    H220002   6.982   1.866   0.212  0.4962 -1.0449  1.1233
 6680TIP3   OH220003   4.703   4.359   4.137 -0.0140 -0.4572  0.1580
 6680TIP3    H120004   4.681   4.450   4.118 -0.0388 -0.6492 -0.7958
 6680TIP3    H220005   4.720   4.357   4.231  0.3779  0.6139  0.1205
 6681TIP3   OH220006   4.156   4.109   3.817 -0.6365 -0.1611 -0.0851
 6681TIP3    H120007   4.064   4.138   3.824 -1.0384 -1.3384 -0.3142
 6681TIP3    H220008   4.165   4.043   3.886 -0.0501 -0.2880 -0.2861
 6682TIP3   OH220009   2.785   1.160   5.033 -0.6501  0.0590 -0.3141
 6682TIP3    H120010   2.775   1.075   5.077  1.6844 -0.0623  0.0903
 6682TIP3    H220011   2.819   1.218   5.100 -0.2922  0.7741 -1.1020
 6683TIP3   OH220012   1.797   2.591   2.352 -0.2140 -0.2245 -0.0771
 6683TIP3    H120013   1.745   2.518   2.318  1.7057 -0.8760 -1.7748
 6683TIP3    H220014   1.884   2.555   2.365  0.1993  1.1886  1.3869
 6684TIP3   OH220015   1.885   2.259   4.599 -0.4099  0.3815 -0.0519
 6684TIP3    H120016   1.876   2.352   4.578  1.2660  0.6765  0.3981
 6684TIP3    H220017   1.812   2.217   4.552 -1.3061  1.9184 -0.1252
 6685TIP3   OH220018   4.040   5.960   3.965  0.0489 -0.4153  0.6904
 6685TIP3    H120019   4.002   6.044   3.987  0.6758  0.0979 -0.1064
 6685TIP3    H220020   4.045   5.959   3.869 -0.4214 -1.5744  0.6553
 6686TIP3   OH220021   4.851   1.496   4.794  0.0985 -0.2403  0.1593
 6686TIP3    H120022   4.802   1.575   4.772  0.9603  0.3020  0.1671
 6686TIP3    H220023   4.917   1.525   4.857 -0.3132 -1.1834  1.0466
 6687TIP3   OH220024   5.980   2.041   0.133 -0.3330 -0.0326 -0.2634
 6687TIP3    H120025   6.028   2.093   0.197  0.2702 -0.8753 -0.0158
 6687TIP3    H220026   5.924   1.984   0.186  0.5926 -1.1436 -0.4382
 6688TIP3   OH220027   0.259   0.816   3.981  0.3920  0.6641  0.5122
 6688TIP3    H120028   0.235   0.909   3.982  1.1970  0.8978 -0.1504
 6688TIP3    H220029   0.176   0.769   3.974  0.0958  1.4296 -2.0040
 6689TIP3   OH220030   6.472   5.189   3.045  0.0491 -0.5257 -0.1193
 6689TIP3    H120031   6.559   5.221   3.023  0.0245 -0.9026 -0.7904
 6689TIP3    H220032   6.478   5.094   3.035 -0.6185 -0.4996 -0.8668
 6690TIP3   OH220033   5.265   2.594   1.063  0.0505 -0.3741  0.0605
 6690TIP3    H120034   5.218   2.515   1.035  0.5517 -0.3998 -0.7652
 6690TIP3    H220035   5.310   2.568   1.143  0.4762 -1.0386 -0.3844
 6691TIP3   OH220036   5.941   6.396   1.848 -0.2739  0.1656  0.5985
 6691TIP3    H120037   5.941   6.469   1.911 -2.0429  0.4452  0.3341
 6691TIP3    H220038   5.986   6.326   1.894  1.3168  1.3456  0.9318
 6692TIP3   OH220039   4.363   0.586   0.498  0.1814  0.3932  0.1902
 6692TIP3    H120040   4.398   0.543   0.419  0.7786  1.0246  0.1076
 6692TIP3    H220041   4.406   0.541   0.570 -0.3060 -0.1326  0.1661
 6693TIP3   OH220042   3.579   0.117   3.089 -0.6044 -0.1291  0.0072
 6693TIP3    H120043   3.587   0.158   3.175 -1.2987 -1.9967  1.0241
 6693TIP3    H220044   3.631   0.037   3.095 -1.1002 -0.5586 -1.1294
 6694TIP3   OH220045   5.621   3.585   3.881 -0.0640 -0.1691  0.3865
 6694TIP3    H120046   5.669   3.506   3.905  0.3791  0.2309  0.8734
 6694TIP3    H220047   5.544   3.554   3.834  1.0484 -0.8038 -1.0888
 6695TIP3   OH220048   2.727   5.090   1.699 -0.1807  0.6468  0.5153
 6695TIP3    H120049   2.777   5.033   1.758 -2.2876 -0.6415  1.1852
 6695TIP3    H220050   2.760   5.178   1.716  2.0183 -0.1677  0.6841
 6696TIP3   OH220051   5.313   4.995   1.571 -0.0150  0.3535  0.2401
 6696TIP3    H120052   5.297   4.972   1.663  1.3676 -1.7886  0.0018
 6696TIP3    H220053   5.240   4.955   1.524 -1.3212  2.3613  0.4398
 6697TIP3   OH220054   7.184   5.281   0.258  0.3551  0.2884 -0.5863
 6697TIP3    H120055   7.244   5.344   0.299  1.3247 -0.0189 -1.4845
 6697TIP3    H220056   7.214   5.196   0.291 -0.1603  0.1984 -0.3472
 6698TIP3   OH220057   2.074   3.003   3.637  0.3750 -0.8091 -0.4625
 6698TIP3    H120058   1.997   3.050   3.668 -0.0166 -0.7003 -1.5530
 6698TIP3    H220059   2.128   2.992   3.715 -0.2922 -0.0306  0.1339
 6699TIP3   OH220060   6.796   0.334   3.368  0.3449  1.3199  0.0778
 6699TIP3    H120061   6.813   0.422   3.336  0.2633  1.2734 -0.0888
 6699TIP3    H220062   6.792   0.279   3.290 -2.6391  1.6305 -0.1177
 6700TIP3   OH220063   3.878   4.094   1.899  0.0773  0.1619 -0.4202
 6700TIP3    H120064   3.971   4.087   1.879  0.6587  1.4678  1.5656
 6700TIP3    H220065   3.870   4.174   1.950 -1.9118 -0.6798  0.7009
 6701TIP3   OH220066   0.207   4.303   1.591 -0.0363 -0.2280 -0.4847
 6701TIP3    H120067   0.224   4.374   1.529 -0.2420 -0.5620 -0.9305
 6701TIP3    H220068   0.112   4.302   1.601 -0.0958 -0.8551 -0.9928
 6702TIP3   OH220069   5.299   1.720   4.956  0.2713  0.2701  0.1097
 6702TIP3    H120070   5.282   1.704   5.048  1.1240 -1.9894 -0.0533
 6702TIP3    H220071   5.392   1.699   4.944  0.0293 -0.1230 -1.3665
 6703TIP3   OH220072   6.356   3.876   5.403 -0.3688  1.0269  0.6230
 6703TIP3    H120073   6.305   3.824   5.341 -1.9595  0.7772  2.0477
 6703TIP3    H220074   6.389   3.811   5.466  0.8254  1.3223  0.3097
 6704TIP3   OH220075   0.009   2.885   2.183 -0.0463  0.3354  0.3636
 6704TIP3    H120076   0.050   2.886   2.269 -0.0391 -0.5340  0.3744
 6704TIP3    H220077   0.027   2.973   2.147 -1.7663  1.4359  2.0181
 6705TIP3   OH220078   5.199   5.596   5.086 -0.6852  0.3392  0.0061
 6705TIP3    H120079   5.234   5.529   5.027 -0.6439  1.1205 -0.8722
 6705TIP3    H220080   5.206   5.677   5.037 -0.4186  1.0528  1.1858
 6706TIP3   OH220081   0.350   1.534   2.860 -0.0993 -0.3494  0.4782
 6706TIP3    H120082   0.282   1.510   2.923  0.3433 -0.4470  0.9169
 6706TIP3    H220083   0.410   1.590   2.909 -0.0886  0.0886 -0.0218
 6707TIP3   OH220084   1.478   1.623   2.527  0.0496 -0.3330 -0.2691
 6707TIP3    H120085   1.391   1.584   2.526  0.2072 -0.6789 -0.5198
 6707TIP3    H220086   1.509   1.616   2.437 -0.2583  1.1278 -0.5161
 6708TIP3   OH220087   4.375   6.343   3.445 -0.1008  0.0690  0.5309
 6708TIP3    H120088   4.321   6.394   3.506 -0.4870  0.1440  0.1394
 6708TIP3    H220089   4.462   6.382   3.451  0.0669 -0.4482  1.6292
 6709TIP3   OH220090   6.072   2.765   3.711  0.0825  0.0568 -0.4305
 6709TIP3    H120091   5.986   2.746   3.674  0.3962 -0.1910 -1.0427
 6709TIP3    H220092   6.073   2.860   3.721 -0.4600  0.0120  0.0774
 6710TIP3   OH220093   5.857   5.435   1.115 -0.3216 -0.0277  0.2328
 6710TIP3    H120094   5.867   5.342   1.096  1.0533 -0.0878  1.0672
 6710TIP3    H220095   5.789   5.439   1.182  1.3033 -0.7374  2.0494
 6711TIP3   OH220096   2.354   3.264   3.795  0.5669 -0.1744 -0.0260
 6711TIP3    H120097   2.371   3.218   3.713 -0.4398  0.2866 -0.5096
 6711TIP3    H220098   2.441   3.283   3.830  1.0041 -0.9721 -0.6482
 6712TIP3   OH220099   2.250   6.337   4.975 -0.3101  0.1521  0.1615
 6712TIP3    H120100   2.162   6.340   4.937 -0.0239  0.2451 -0.5156
 6712TIP3    H220101   2.236   6.315   5.067 -0.9638 -1.1462 -0.2281
 6713TIP3   OH220102   4.752   1.593   1.955 -0.4039 -0.2370  0.4475
 6713TIP3    H120103   4.723   1.673   1.909 -1.6716  0.1073  1.7607
 6713TIP3    H220104   4.814   1.624   2.020  0.4991 -0.5785 -0.2302
 6714TIP3   OH220105   0.719   3.144   5.141 -0.2474  0.5692 -0.0279
 6714TIP3    H120106   0.643   3.095   5.172  0.3886  0.3522  1.2460
 6714TIP3    H220107   0.792   3.082   5.148  0.5461  1.6327  1.4620
 6715TIP3   OH220108   0.947   1.866   5.483  0.1430  0.1817 -0.2077
 6715TIP3    H120109   0.869   1.846   5.535  1.6654 -0.4160  1.9982
 6715TIP3    H220110   0.945   1.961   5.474 -1.5640  0.0705 -1.4742
 6716TIP3   OH220111   4.581   3.606   1.967 -0.0118 -0.1123  0.1675
 6716TIP3    H120112   4.661   3.636   1.924 -1.2102 -1.3467 -3.1828
 6716TIP3    H220113   4.571   3.666   2.041  3.0651  1.1422 -0.2629
 6717TIP3   OH220114   4.547   5.193   4.390 -0.1907 -0.1461 -0.5535
 6717TIP3    H120115   4.616   5.215   4.327  1.6910 -0.9462  1.1103
 6717TIP3    H220116   4.528   5.275   4.434  1.7459 -0.3585  0.8284
 6718TIP3   OH220117   5.270   4.921   4.988 -0.0349 -0.0644 -0.3051
 6718TIP3    H120118   5.258   4.828   5.007  2.1612 -0.3341 -0.0500
 6718TIP3    H220119   5.217   4.965   5.055 -1.3697 -1.1066 -0.6309
 6719TIP3   OH220120   1.463   2.595   4.350 -0.4510  0.1545 -0.7528
 6719TIP3    H120121   1.428   2.679   4.322  0.6825  1.4957  1.5317
 6719TIP3    H220122   1.546   2.587   4.303  0.3383  1.2775  0.3724
 6720TIP3   OH220123   3.939   1.256   5.621 -0.3418  0.0845  0.2906
 6720TIP3    H120124   3.980   1.199   5.556 -1.4391 -2.9044  2.0368
 6720TIP3    H220125   3.924   1.339   5.575  1.6700 -0.8597 -2.2717
 6721TIP3   OH220126   6.990   1.734   1.127  0.5569 -0.1891  0.0222
 6721TIP3    H120127   6.933   1.661   1.101  0.8153 -0.1558 -0.6672
 6721TIP3    H220128   6.942   1.812   1.103  0.2702 -0.1225  0.7839
 6722TIP3   OH220129   2.706   5.295   4.904 -0.0121 -0.7279  0.2354
 6722TIP3    H120130   2.676   5.292   4.995 -0.9396 -0.8169 -0.0662
 6722TIP3    H220131   2.669   5.217   4.863  1.5989 -1.4728  0.1205
 6723TIP3   OH220132   0.562   1.586   2.480 -0.3434 -0.4076 -0.1096
 6723TIP3    H120133   0.571   1.634   2.398  2.0871  0.3140  0.5050
 6723TIP3    H220134   0.589   1.497   2.458  0.9007 -0.0740  0.0063
 6724TIP3   OH220135   1.714   1.480   1.916  0.0157 -0.7395 -0.2314
 6724TIP3    H120136   1.778   1.526   1.970  0.9431 -2.6840  0.4368
 6724TIP3    H220137   1.633   1.529   1.927  1.2257  1.5092 -0.7002
 6725TIP3   OH220138   2.763   3.426   3.602 -0.3335  0.0061 -0.3302
 6725TIP3    H120139   2.801   3.355   3.550 -0.0104 -0.1581  0.1184
 6725TIP3    H220140   2.729   3.382   3.680  0.9779  0.4862  0.5392
 6726TIP3   OH220141   4.007   3.644   2.504 -0.1178 -0.4809  0.6057
 6726TIP3    H120142   4.096   3.661   2.471  1.0370 -2.9848  2.1447
 6726TIP3    H220143   3.950   3.692   2.444  2.1021 -0.9271 -2.0656
 6727TIP3   OH220144   4.590   2.207   4.149  0.1210 -0.2865  0.4527
 6727TIP3    H120145   4.662   2.145   4.136  1.6177  1.5231 -0.5904
 6727TIP3    H220146   4.605   2.274   4.082 -2.5689  0.1762  0.2217
 6728TIP3   OH220147   4.453   5.182   1.539 -0.0361  0.6921  0.2728
 6728TIP3    H120148   4.515   5.197   1.611 -1.0067  0.6836  1.1395
 6728TIP3    H220149   4.435   5.088   1.542  1.5665  0.2929 -1.3956
 6729TIP3   OH220150   6.672   2.262   3.146 -0.7101  0.8389 -0.0291
 6729TIP3    H120151   6.738   2.238   3.212  0.4447  0.6028 -1.2379
 6729TIP3    H220152   6.589   2.243   3.189 -0.0641  1.9792  1.8773
 6730TIP3   OH220153   6.378   3.983   1.070  0.1467 -0.6992  0.3373
 6730TIP3    H120154   6.314   4.051   1.094 -1.5944 -2.0470 -0.2790
 6730TIP3    H220155   6.345   3.904   1.113  1.3423 -1.4607 -0.1131
 6731TIP3   OH220156   6.122   4.074   5.090 -0.3747 -0.2879  0.0971
 6731TIP3    H120157   6.060   4.031   5.149 -0.6717 -0.2564 -0.1913
 6731TIP3    H220158   6.079   4.156   5.065  0.0004 -0.0223  0.2951
 6732TIP3   OH220159   4.697   5.596   4.720 -0.3646 -0.0912  0.7611
 6732TIP3    H120160   4.721   5.685   4.745  0.9153 -0.1098 -0.3217
 6732TIP3    H220161   4.737   5.584   4.634 -4.4826 -0.0415 -1.4000
 6733TIP3   OH220162   0.997   3.270   3.807 -0.4386  0.0229 -0.7271
 6733TIP3    H120163   0.923   3.330   3.817 -0.1756  0.0050  1.7505
 6733TIP3    H220164   1.074   3.326   3.811 -0.1572 -0.4518  2.4161
 6734TIP3   OH220165   5.049   4.806   3.336  0.1475  0.5945  0.1394
 6734TIP3    H120166   5.097   4.730   3.302 -1.5576 -0.2831 -0.4665
 6734TIP3    H220167   4.969   4.769   3.374 -0.7123  2.0701 -0.1227
 6735TIP3   OH220168   5.213   0.201   0.330  0.0602  0.4070 -0.4153
 6735TIP3    H120169   5.247   0.158   0.252 -0.2506  1.7591 -1.3149
 6735TIP3    H220170   5.140   0.254   0.299  0.2836  1.4178  0.7060
 6736TIP3   OH220171   1.346   0.514   2.878 -0.0708  0.2800 -0.2777
 6736TIP3    H120172   1.363   0.489   2.968 -1.7683 -2.3985 -0.6108
 6736TIP3    H220173   1.279   0.583   2.884 -0.9809 -0.6493  0.5061
 6737TIP3   OH220174   1.832   0.452   0.592 -0.3822 -0.0436 -0.1912
 6737TIP3    H120175   1.836   0.365   0.552  0.4823  0.6089 -1.5940
 6737TIP3    H220176   1.884   0.508   0.534 -0.8941  1.4103  0.6928
 6738TIP3   OH220177   2.567   1.581   3.270  0.0990 -0.0420  0.4125
 6738TIP3    H120178   2.627   1.563   3.198 -1.2513  0.3677 -0.8697
 6738TIP3    H220179   2.576   1.505   3.328  0.4022 -0.9417 -0.7690
 6739TIP3   OH220180   0.358   5.926   5.041 -0.9176 -0.6529 -0.1721
 6739TIP3    H120181   0.389   5.853   5.096  1.5323 -0.1113 -0.7227
 6739TIP3    H220182   0.428   5.991   5.047 -1.7509  0.4575 -1.9642
 6740TIP3   OH220183   6.233   4.073   0.347  0.3006 -0.1579  0.5189
 6740TIP3    H120184   6.316   4.024   0.349 -0.7243 -1.9975 -0.2472
 6740TIP3    H220185   6.199   4.066   0.436  0.9117  0.5657  0.8248
 6741TIP3   OH220186   5.616   0.874   4.786 -0.0834 -0.0980  0.1641
 6741TIP3    H120187   5.588   0.960   4.753 -0.0670  0.0009  0.4100
 6741TIP3    H220188   5.710   0.872   4.768 -0.3259 -0.6615 -1.1887
 6742TIP3   OH220189   6.066   1.402   4.234 -0.1400 -0.0985 -0.3489
 6742TIP3    H120190   6.068   1.322   4.287 -2.6366  0.4832  0.7850
 6742TIP3    H220191   6.064   1.473   4.297  1.9509  0.9279 -1.3418
 6743TIP3   OH220192   6.847   1.285   5.850 -0.5863  0.5783  0.8868
 6743TIP3    H120193   6.823   1.233   5.774 -2.4450  0.4720  1.4895
 6743TIP3    H220194   6.878   1.368   5.814  1.5704 -0.5496 -0.0542
 6744TIP3   OH220195   5.439   5.243   5.061 -0.3484  0.2899 -0.4786
 6744TIP3    H120196   5.453   5.309   5.130 -0.6927 -0.3021  0.1722
 6744TIP3    H220197   5.421   5.294   4.982  1.0595  1.0103 -0.3766
 6745TIP3   OH220198   4.269   1.792   0.690  0.1811 -0.0138  0.3482
 6745TIP3    H120199   4.265   1.800   0.595  1.9704 -0.1125  0.2458
 6745TIP3    H220200   4.276   1.882   0.721  0.8712 -0.0545  0.3120
 6746TIP3   OH220201   2.325   0.655   5.124  0.0228 -0.1175 -0.3650
 6746TIP3    H120202   2.237   0.636   5.089 -0.2319 -0.8850  0.6283
 6746TIP3    H220203   2.337   0.749   5.109 -0.4162 -0.2417 -1.6936
 6747TIP3   OH220204   0.370   0.557   1.101 -0.6220 -0.2848 -0.4984
 6747TIP3    H120205   0.431   0.483   1.103  0.5866  0.5389 -2.8813
 6747TIP3    H220206   0.424   0.633   1.122 -1.3252  0.1835 -0.3691
 6748TIP3   OH220207   6.202   1.371   3.599  0.4888 -0.2361  0.3358
 6748TIP3    H120208   6.265   1.438   3.571 -0.1023 -0.8336 -2.8815
 6748TIP3    H220209   6.123   1.420   3.621  0.4650  0.2595 -0.7561
 6749TIP3   OH220210   3.291   6.683   1.952 -0.5911  0.4746 -0.2546
 6749TIP3    H120211   3.344   6.609   1.982  1.4822  2.3307  0.9669
 6749TIP3    H220212   3.203   6.646   1.939 -0.2315 -1.7075  2.5336
 6750TIP3   OH220213   1.694   3.864   2.474 -0.0165 -0.5197 -0.4820
 6750TIP3    H120214   1.604   3.864   2.508 -0.2432 -0.8474 -1.0622
 6750TIP3    H220215   1.686   3.900   2.386 -0.0184 -3.0941 -1.6203
 6751TIP3   OH220216   1.144   4.418   3.121  0.1690 -0.0391  0.0352
 6751TIP3    H120217   1.106   4.465   3.047  0.4842 -0.4688 -0.3989
 6751TIP3    H220218   1.149   4.484   3.190  3.5997  1.5953 -1.5134
 6752TIP3   OH220219   4.588   0.286   5.237  0.0937 -0.6347 -0.5849
 6752TIP3    H120220   4.681   0.278   5.259  0.7073 -0.1270 -2.7176
 6752TIP3    H220221   4.583   0.257   5.146 -1.2182  2.3517 -1.5882
 6753TIP3   OH220222   3.393   2.012   4.816 -0.7107 -0.0945 -0.1118
 6753TIP3    H120223   3.353   2.068   4.881  0.2983  0.7793 -0.2123
 6753TIP3    H220224   3.483   2.000   4.847 -0.8937 -1.6871 -0.0797
 6754TIP3   OH220225   3.598   6.135   2.707 -0.2715 -0.4685 -0.2040
 6754TIP3    H120226   3.548   6.104   2.632 -0.6570  0.6611 -0.4366
 6754TIP3    H220227   3.534   6.179   2.762  0.4613  1.1207 -0.5686
 6755TIP3   OH220228   4.045   0.142   3.004  0.0599  0.7818 -0.3874
 6755TIP3    H120229   4.112   0.082   2.973  0.1336  0.3601  0.5600
 6755TIP3    H220230   4.073   0.166   3.093 -0.5175  1.3892 -0.3592
 6756TIP3   OH220231   2.269   2.509   0.886  0.1168 -0.0970 -0.3617
 6756TIP3    H120232   2.310   2.426   0.908 -1.2091 -0.5773  0.3919
 6756TIP3    H220233   2.182   2.504   0.925 -0.3725  1.2108 -1.2253
 6757TIP3   OH220234   2.487   0.976   3.972  0.3766 -0.3016 -0.7181
 6757TIP3    H120235   2.516   1.010   3.888 -0.8377  1.1697 -0.5810
 6757TIP3    H220236   2.403   0.933   3.954  0.6323 -0.9402 -0.4319
 6758TIP3   OH220237   7.004   2.710   2.588 -0.5613  0.3437  0.4789
 6758TIP3    H120238   7.057   2.641   2.627  0.2088  0.1236 -0.9104
 6758TIP3    H220239   6.914   2.684   2.605 -0.3057  0.9572  3.2770
 6759TIP3   OH220240   5.857   6.121   5.002  0.7215  0.1321  0.4614
 6759TIP3    H120241   5.947   6.135   4.971  0.2592  1.6986 -0.2920
 6759TIP3    H220242   5.837   6.031   4.976  1.4686  0.3477 -0.9695
 6760TIP3   OH220243   5.564   6.280   0.098  0.0347 -0.1237  0.2826
 6760TIP3    H120244   5.652   6.318   0.105 -0.9829  2.7696 -1.0786
 6760TIP3    H220245   5.571   6.216   0.027  1.0394  0.0556  0.2029
 6761TIP3   OH220246   1.277   2.781   5.363 -0.2476  0.5484 -0.0530
 6761TIP3    H120247   1.276   2.834   5.283 -0.0116  1.2539  0.3991
 6761TIP3    H220248   1.290   2.845   5.434  3.7634 -0.3477  0.2777
 6762TIP3   OH220249   6.922   6.715   4.553  0.0225  0.2795  0.5802
 6762TIP3    H120250   6.891   6.677   4.635  0.2774  0.8423  0.9342
 6762TIP3    H220251   7.013   6.737   4.569 -0.8447  3.8383  1.3990
 6763TIP3   OH220252   3.891   1.686   3.369  0.0282 -0.3478  0.7602
 6763TIP3    H120253   3.814   1.635   3.345 -0.5896  0.4501  0.9913
 6763TIP3    H220254   3.963   1.644   3.322 -0.9137  0.2910 -1.3757
 6764TIP3   OH220255   1.730   3.644   3.071 -0.0835 -0.4590  0.0214
 6764TIP3    H120256   1.808   3.673   3.023 -0.3509 -1.0614 -0.8101
 6764TIP3    H220257   1.679   3.724   3.083  0.3851 -0.1574  0.0438
 6765TIP3   OH220258   7.196   1.134   1.618  0.2551 -0.2175  0.6115
 6765TIP3    H120259   7.144   1.125   1.539 -0.5313  0.3517  1.0484
 6765TIP3    H220260   7.171   1.058   1.672  0.2661 -0.2296  0.5994
 6766TIP3   OH220261   4.707   1.112   5.127  0.0024  0.5774 -0.2613
 6766TIP3    H120262   4.759   1.131   5.049 -0.6417 -1.1537 -1.1683
 6766TIP3    H220263   4.662   1.030   5.106 -0.4657  0.2593  1.8049
 6767TIP3   OH220264   3.751   6.501   4.031 -0.0573 -0.2162  0.0623
 6767TIP3    H120265   3.808   6.575   4.052 -0.0015 -0.5051  0.9781
 6767TIP3    H220266   3.805   6.443   3.978 -0.2878  0.6650 -1.1801
 6768TIP3   OH220267   6.275   3.838   4.048  0.8400 -0.2600  0.2684
 6768TIP3    H120268   6.289   3.854   4.141  3.5232  1.3327 -0.2948
 6768TIP3    H220269   6.345   3.779   4.022  0.1653 -0.6381 -0.7549
 6769TIP3   OH220270   5.280   0.145   5.501  0.3316  0.0447  0.2573
 6769TIP3    H120271   5.279   0.103   5.587 -1.3119  0.4091  0.4486
 6769TIP3    H220272   5.314   0.077   5.442  1.7621 -0.1075  1.2123
 6770TIP3   OH220273   2.750   6.435   1.649  0.0471  0.0365 -0.1691
 6770TIP3    H120274   2.827   6.439   1.592 -1.6110  1.4903 -2.4724
 6770TIP3    H220275   2.677   6.415   1.590 -1.4031 -1.3009  1.9230
 6771TIP3   OH220276   6.264   3.412   1.101  0.2290  0.5778  0.4793
 6771TIP3    H120277   6.261   3.316   1.100  0.2546  0.5490 -1.7720
 6771TIP3    H220278   6.270   3.434   1.194  0.4623 -1.5988  1.0549
 6772TIP3   OH220279   1.558   2.353   2.468 -0.0900 -0.1289 -0.0795
 6772TIP3    H120280   1.605   2.314   2.542  0.6793  1.3342  0.2491
 6772TIP3    H220281   1.479   2.300   2.459  0.3029 -0.9697  1.1220
 6773TIP3   OH220282   3.205   2.917   2.938 -0.5808  0.2110 -0.6487
 6773TIP3    H120283   3.291   2.947   2.909 -0.3737  0.8279  0.5068
 6773TIP3    H220284   3.177   2.855   2.871  0.8489 -0.1594 -0.9437
 6774TIP3   OH220285   0.214   4.333   2.620 -0.4382  1.0034 -0.0126
 6774TIP3    H120286   0.190   4.369   2.535  0.4778 -0.1723 -0.7867
 6774TIP3    H220287   0.196   4.240   2.614 -1.0772  1.0105  1.3583
 6775TIP3   OH220288   5.065   6.662   4.432 -0.1168  0.1008  0.2150
 6775TIP3    H120289   5.085   6.671   4.339  0.9530 -0.4088  0.3883
 6775TIP3    H220290   5.054   6.752   4.463 -2.5091  0.2506 -0.7973
 6776TIP3   OH220291   2.562   0.541   2.877  0.0403  0.1609 -0.2411
 6776TIP3    H120292   2.567   0.581   2.964 -3.1459 -0.6357  0.4559
 6776TIP3    H220293   2.509   0.602   2.826 -1.6403 -1.2785 -0.3102
 6777TIP3   OH220294   0.829   4.803   4.758  0.1467  0.2562  0.7482
 6777TIP3    H120295   0.858   4.737   4.821  0.5536  0.3293  0.6405
 6777TIP3    H220296   0.778   4.865   4.811 -0.4580 -0.2817  0.7979
 6778TIP3   OH220297   3.056   2.760   4.574  0.5893  0.1428  0.0553
 6778TIP3    H120298   2.967   2.724   4.578  0.2633  0.9777  0.8348
 6778TIP3    H220299   3.048   2.847   4.614  2.1521 -0.5638  2.0936
 6779TIP3   OH220300   0.919   0.402   2.727 -0.7327  0.1755 -0.5583
 6779TIP3    H120301   0.847   0.350   2.762 -1.3009  1.6012  0.5333
 6779TIP3    H220302   0.881   0.452   2.655 -0.3316 -0.4897 -1.2441
 6780TIP3   OH220303   1.906   6.282   4.569 -0.1556 -0.2076 -1.0165
 6780TIP3    H120304   1.907   6.356   4.630 -1.1028 -0.4162 -0.7416
 6780TIP3    H220305   1.995   6.247   4.572 -0.5280 -1.0931  1.3220
 6781TIP3   OH220306   1.764   4.035   2.668 -0.3423 -0.3571 -0.3349
 6781TIP3    H120307   1.768   3.969   2.599  1.5294 -0.7160  0.0693
 6781TIP3    H220308   1.693   4.094   2.641  0.1256 -0.6677 -2.3908
 6782TIP3   OH220309   0.330   5.106   1.491 -0.0114 -0.2162 -0.1277
 6782TIP3    H120310   0.307   5.028   1.441 -0.2270  0.0758 -0.4869
 6782TIP3    H220311   0.302   5.086   1.581  0.6773 -0.8684 -0.0501
 6783TIP3   OH220312   4.372   2.220   1.064  0.3817 -0.5034  0.4165
 6783TIP3    H120313   4.440   2.282   1.091  0.5945 -0.5048 -0.1239
 6783TIP3    H220314   4.296   2.275   1.044  0.0121 -0.5430  1.6288
 6784TIP3   OH220315   0.305   2.011   1.538 -0.0001 -0.6227  1.0075
 6784TIP3    H120316   0.372   1.963   1.587  1.7887  0.6493 -0.0734
 6784TIP3    H220317   0.244   2.040   1.605  1.6130 -0.1260  2.3433
 6785TIP3   OH220318   2.270   1.955   1.054 -0.0646 -0.1731  0.2938
 6785TIP3    H120319   2.347   2.000   1.020  0.2187 -0.4430  0.5661
 6785TIP3    H220320   2.298   1.924   1.141 -0.6888  0.2901  0.6702
 6786TIP3   OH220321   1.811   2.405   3.580  0.4514  0.3629  0.4264
 6786TIP3    H120322   1.729   2.356   3.584  1.5294 -1.6916 -0.9182
 6786TIP3    H220323   1.787   2.491   3.544 -0.9964 -0.5560 -0.9093
 6787TIP3   OH220324   7.097   2.636   2.285  0.7042  0.0874  0.8594
 6787TIP3    H120325   7.138   2.711   2.243  0.8583 -0.3310  0.2464
 6787TIP3    H220326   7.036   2.674   2.348 -0.9397  0.8086 -1.0321
 6788TIP3   OH220327   5.359   3.238   3.561 -0.0971  0.3144 -0.1603
 6788TIP3    H120328   5.417   3.211   3.631  1.3054 -0.4309 -1.5537
 6788TIP3    H220329   5.283   3.181   3.569  1.4750 -2.0979 -1.1720
 6789TIP3   OH220330   2.176   0.650   3.573 -0.8140 -0.0413 -0.5028
 6789TIP3    H120331   2.206   0.607   3.653  0.3698  0.6922 -0.5314
 6789TIP3    H220332   2.085   0.624   3.565 -0.9471 -0.1716  1.0631
 6790TIP3   OH220333   0.184   2.585   1.724  0.8822  0.4766 -0.5883
 6790TIP3    H120334   0.162   2.621   1.810 -0.0438  0.2601 -0.7171
 6790TIP3    H220335   0.278   2.571   1.726  1.0383  1.5383 -0.0180
 6791TIP3   OH220336   5.023   1.714   0.306 -0.0607 -0.0525  0.1833
 6791TIP3    H120337   5.114   1.716   0.336 -0.2598  0.5312  0.7926
 6791TIP3    H220338   4.999   1.806   0.296 -0.8586 -0.1567  0.9327
 6792TIP3   OH220339   4.077   4.863   5.824 -0.4342  0.0684  0.4207
 6792TIP3    H120340   4.028   4.939   5.854 -0.5769  0.5065 -0.8619
 6792TIP3    H220341   4.167   4.895   5.815  0.1871 -0.7651  2.8973
 6793TIP3   OH220342   3.509   3.431   1.651 -0.0191 -0.1539 -0.0352
 6793TIP3    H120343   3.498   3.380   1.571  0.1772 -0.1156 -0.0879
 6793TIP3    H220344   3.575   3.384   1.701  0.6420  0.3937 -0.3763
 6794TIP3   OH220345   0.317   6.658   2.012 -0.0003  0.1491 -0.3061
 6794TIP3    H120346   0.267   6.733   2.043 -1.8276 -1.4397  0.8148
 6794TIP3    H220347   0.325   6.601   2.089  1.0965 -0.9498 -1.1764
 6795TIP3   OH220348   4.833   3.124   4.443 -0.3470 -0.3452 -0.0958
 6795TIP3    H120349   4.869   3.036   4.454 -0.1123 -0.1255  1.0076
 6795TIP3    H220350   4.740   3.115   4.463 -0.4826 -0.4901 -0.7748
 6796TIP3   OH220351   5.122   3.451   4.195  0.0305 -0.6020  0.4792
 6796TIP3    H120352   5.091   3.541   4.196 -0.2701 -0.6736 -0.8309
 6796TIP3    H220353   5.107   3.419   4.284  3.2816  1.6654  2.0557
 6797TIP3   OH220354   1.228   2.749   2.276  0.5131 -0.1248  0.0563
 6797TIP3    H120355   1.196   2.785   2.194 -0.2313 -1.0960 -0.0987
 6797TIP3    H220356   1.257   2.825   2.327 -0.5894  0.6381 -0.4315
 6798TIP3   OH220357   1.602   1.736   4.760 -0.3170 -0.1525  0.0824
 6798TIP3    H120358   1.546   1.658   4.759 -1.1343  0.4011  1.2182
 6798TIP3    H220359   1.545   1.807   4.788  0.2594  1.0270 -1.5404
 6799TIP3   OH220360   4.760   2.995   5.128 -0.1888 -0.3234  0.1081
 6799TIP3    H120361   4.682   2.981   5.181 -0.7326  0.4481 -0.4535
 6799TIP3    H220362   4.728   2.992   5.037 -0.0320  2.2475 -0.1240
 6800TIP3   OH220363   4.470   2.452   3.994  0.5839  0.3395 -0.0116
 6800TIP3    H120364   4.552   2.452   3.945  1.1314 -0.8849  0.8445
 6800TIP3    H220365   4.492   2.495   4.077  0.6692 -0.9407  0.6530
 6801TIP3   OH220366   4.997   3.552   0.120 -0.0752 -0.3720  0.6688
 6801TIP3    H120367   5.078   3.603   0.131 -0.5541  0.1531  2.0094
 6801TIP3    H220368   5.025   3.461   0.122  0.8542 -0.2528 -2.1720
 6802TIP3   OH220369   2.664   6.505   4.953 -0.0927 -0.0764 -0.2662
 6802TIP3    H120370   2.622   6.522   4.868 -0.1472  1.2935  0.0190
 6802TIP3    H220371   2.594   6.520   5.017  0.2658  0.1019  0.0870
 6803TIP3   OH220372   6.032   6.329   2.720 -0.3055  0.1045 -0.0206
 6803TIP3    H120373   5.974   6.293   2.787 -1.6008  1.5737 -0.2873
 6803TIP3    H220374   5.975   6.383   2.666  1.1740  0.9396 -0.8088
 6804TIP3   OH220375   6.906   1.140   4.394  0.1649  0.3396 -0.2738
 6804TIP3    H120376   6.847   1.131   4.468  0.7081  0.9615  0.2360
 6804TIP3    H220377   6.968   1.068   4.404  1.2032  1.3557  0.7728
 6805TIP3   OH220378   4.847   6.656   1.599  0.1284 -0.5283  0.2090
 6805TIP3    H120379   4.841   6.658   1.694 -2.3461 -1.7920  0.1396
 6805TIP3    H220380   4.882   6.570   1.579 -2.7227 -1.7538 -0.0273
 6806TIP3   OH220381   0.533   4.389   2.070  0.0727  0.1995  0.4394
 6806TIP3    H120382   0.493   4.408   2.155  0.0250 -0.3321  0.5423
 6806TIP3    H220383   0.591   4.463   2.053  0.1174  0.2873  0.9596
 6807TIP3   OH220384   2.147   5.900   2.226  0.4800  0.8682  1.0246
 6807TIP3    H120385   2.232   5.864   2.200 -0.5456 -1.1741  0.2491
 6807TIP3    H220386   2.137   5.979   2.173  1.4307  0.5347  0.3192
 6808TIP3   OH220387   5.384   0.416   2.399  0.1519 -0.9265 -0.0848
 6808TIP3    H120388   5.438   0.471   2.343 -0.5472 -1.9329 -1.8215
 6808TIP3    H220389   5.439   0.340   2.420  0.4005 -0.5688  0.6090
 6809TIP3   OH220390   6.549   6.274   0.947  0.6600  0.2084 -0.0406
 6809TIP3    H120391   6.512   6.198   0.992 -0.8209  1.1267  0.3889
 6809TIP3    H220392   6.515   6.350   0.996 -0.3469  1.2270 -2.1590
 6810TIP3   OH220393   0.055   5.464   0.012  0.5168  0.7214  0.7257
 6810TIP3    H120394  -0.017   5.414   0.051  0.4962 -0.4979 -0.8057
 6810TIP3    H220395   0.133   5.415   0.037  0.5100 -0.0138 -0.6308
 6811TIP3   OH220396   4.154   1.509   2.186 -0.2504  0.2798 -0.5183
 6811TIP3    H120397   4.168   1.504   2.092 -0.5526  0.4248 -0.5724
 6811TIP3    H220398   4.144   1.603   2.204 -1.0098  0.1982 -0.4667
 6812TIP3   OH220399   1.200   0.628   5.080 -0.1894 -0.1019 -0.7839
 6812TIP3    H120400   1.206   0.550   5.136  0.6409  0.2531 -0.3457
 6812TIP3    H220401   1.107   0.642   5.067 -0.6675  1.5004  2.9980
 6813TIP3   OH220402   6.898   5.540   4.264 -0.4956 -0.0589  0.2941
 6813TIP3    H120403   6.983   5.572   4.293 -0.3395  0.9955 -1.2090
 6813TIP3    H220404   6.836   5.572   4.330  0.1243  0.2305  0.7424
 6814TIP3   OH220405   6.278   0.680   5.300 -0.7182  0.6859  0.3781
 6814TIP3    H120406   6.333   0.757   5.293 -1.1963  1.0123  0.1444
 6814TIP3    H220407   6.338   0.606   5.288 -0.3515  1.0382  0.0257
 6815TIP3   OH220408   6.141   6.166   5.162 -0.6250  0.0371  0.0344
 6815TIP3    H120409   6.163   6.073   5.168 -2.2629 -0.4713 -0.9487
 6815TIP3    H220410   6.193   6.198   5.088  0.5901  0.1435  0.9069
 6816TIP3   OH220411   3.979   6.374   1.331 -0.4667  0.1833  0.2385
 6816TIP3    H120412   4.002   6.283   1.314 -2.7336 -0.6708  1.2921
 6816TIP3    H220413   3.932   6.371   1.415  0.1467  2.4615  0.7303
 6817TIP3   OH220414   1.804   1.863   2.384 -0.1597 -0.3020  0.3779
 6817TIP3    H120415   1.769   1.907   2.462  0.6960  0.5552  0.3103
 6817TIP3    H220416   1.866   1.927   2.347  0.0589 -1.0243 -0.5388
 6818TIP3   OH220417   4.995   1.970   3.677 -0.5455 -0.1077  0.2093
 6818TIP3    H120418   4.951   1.992   3.759 -0.6889 -0.4265  0.2179
 6818TIP3    H220419   5.042   1.889   3.695 -1.5549 -0.8526 -0.3577
 6819TIP3   OH220420   2.484   4.955   1.453  0.7636  0.4116 -0.5674
 6819TIP3    H120421   2.494   4.995   1.539 -0.8521  0.2281 -0.2687
 6819TIP3    H220422   2.571   4.919   1.433  1.0900  0.2087  1.1070
 6820TIP3   OH220423   3.063   2.773   2.738 -0.1927 -0.1369  0.8095
 6820TIP3    H120424   2.979   2.815   2.757 -0.7527 -0.4762 -0.8322
 6820TIP3    H220425   3.042   2.681   2.722  0.3004 -0.0119 -0.7318
 6821TIP3   OH220426   5.159   4.741   2.903  0.0436  0.1352  0.1210
 6821TIP3    H120427   5.145   4.829   2.868  1.3225  0.7192  0.9942
 6821TIP3    H220428   5.239   4.711   2.860  0.4706  0.0305  0.9672
 6822TIP3   OH220429   4.851   2.257   0.579  0.3453  0.0222  0.0960
 6822TIP3    H120430   4.916   2.322   0.605  2.0055 -1.3081 -0.5654
 6822TIP3    H220431   4.819   2.287   0.494  0.4209  0.4320  0.2089
 6823TIP3   OH220432   5.922   2.216   0.705 -0.0793 -0.1878  0.3882
 6823TIP3    H120433   5.875   2.297   0.726  2.4553  0.9173  2.3243
 6823TIP3    H220434   5.978   2.240   0.631  0.0422 -0.4303  0.4022
 6824TIP3   OH220435   1.135   3.059   3.950 -0.2200 -0.0719  0.3304
 6824TIP3    H120436   1.203   3.011   3.904 -0.1592 -1.8853  2.1164
 6824TIP3    H220437   1.123   3.140   3.901  1.7163 -0.6642 -1.2108
 6825TIP3   OH220438   2.263   6.623   1.826 -0.4970  0.3818 -0.0911
 6825TIP3    H120439   2.344   6.576   1.808 -0.4943 -0.3020  1.5186
 6825TIP3    H220440   2.196   6.554   1.831 -0.9661  0.8208 -0.2427
 6826TIP3   OH220441   2.227   1.483   3.832  0.9479 -0.5240 -0.4189
 6826TIP3    H120442   2.266   1.566   3.861  0.3696  0.0527 -1.2764
 6826TIP3    H220443   2.291   1.447   3.771  1.7633 -1.3230  0.8432
 6827TIP3   OH220444   0.837   6.249   3.812  0.5473 -0.0307  0.2414
 6827TIP3    H120445   0.763   6.229   3.755  1.4224 -1.3683 -0.4698
 6827TIP3    H220446   0.819   6.201   3.893  0.2338  0.3378  0.3949
 6828TIP3   OH220447   4.250   3.569   2.035  0.2764  0.5941  0.1729
 6828TIP3    H120448   4.315   3.498   2.039  1.4280  1.5075 -1.0220
 6828TIP3    H220449   4.289   3.639   2.087 -1.3899  0.0257  2.3232
 6829TIP3   OH220450   0.999   2.792   2.532 -0.0186 -0.0421 -0.1266
 6829TIP3    H120451   1.084   2.750   2.520  0.2525  0.0957  1.1018
 6829TIP3    H220452   0.936   2.720   2.534  0.1794 -0.2179 -0.1813
 6830TIP3   OH220453   4.005   0.614   4.802  0.1731 -0.5778  0.1719
 6830TIP3    H120454   3.922   0.660   4.812 -0.4232 -1.0849 -1.9418
 6830TIP3    H220455   3.981   0.530   4.763  1.6863 -0.6747 -0.6373
 6831TIP3   OH220456   5.800   5.421   5.889  0.6608 -0.0852 -0.1698
 6831TIP3    H120457   5.746   5.379   5.822  1.2265 -1.6479  0.3159
 6831TIP3    H220458   5.890   5.414   5.855  0.8491 -0.0107  0.3123
 6832TIP3   OH220459   4.330   3.878   4.281  0.0693 -0.1445  0.0675
 6832TIP3    H120460   4.411   3.828   4.266  0.0994  0.0622 -0.4795
 6832TIP3    H220461   4.354   3.944   4.346  0.3290 -0.1209 -0.0503
 6833TIP3   OH220462   3.311   6.010   2.012 -0.4430 -0.5432 -0.4013
 6833TIP3    H120463   3.373   6.078   2.036 -1.6481 -0.0159  1.4752
 6833TIP3    H220464   3.225   6.052   2.021 -1.2257 -2.3064  0.9228
 6834TIP3   OH220465   4.485   2.816   3.830  0.1065  0.1464 -0.5058
 6834TIP3    H120466   4.550   2.811   3.901 -0.5406 -0.9823  0.0283
 6834TIP3    H220467   4.538   2.812   3.750  0.8979  2.0594 -0.1461
 6835TIP3   OH220468   2.065   0.711   2.665 -0.1114 -0.6718 -0.3608
 6835TIP3    H120469   1.990   0.736   2.718  0.3365 -1.0001  0.4571
 6835TIP3    H220470   2.130   0.780   2.681 -0.0807 -0.6153 -0.7219
 6836TIP3   OH220471   2.334   3.167   5.641  0.4022 -0.2909  0.1232
 6836TIP3    H120472   2.304   3.238   5.584  0.6035 -0.5070 -0.2662
 6836TIP3    H220473   2.378   3.211   5.713 -1.1664  0.0409  0.9099
 6837TIP3   OH220474   7.035   0.886   4.459  0.0245  0.3381  0.2172
 6837TIP3    H120475   7.027   0.805   4.409  0.2067  0.5050 -0.0875
 6837TIP3    H220476   7.130   0.902   4.464  0.0677 -0.2123  1.4857
 6838TIP3   OH220477   6.696   2.218   2.287  0.4341  0.3412  0.3174
 6838TIP3    H120478   6.772   2.250   2.239  0.9108 -2.0144 -0.6435
 6838TIP3    H220479   6.732   2.184   2.369  0.2570  0.3288  0.3905
 6839TIP3   OH220480   5.383   0.660   5.539  0.2904  0.4577  0.1894
 6839TIP3    H120481   5.436   0.739   5.523  2.8250 -0.9609  1.0636
 6839TIP3    H220482   5.439   0.588   5.509 -0.2591 -1.2850  3.0572
 6840TIP3   OH220483   0.957   5.315   1.968 -0.5278  0.0881  0.7520
 6840TIP3    H120484   0.942   5.377   1.897 -1.1336 -0.1239  0.6923
 6840TIP3    H220485   0.980   5.370   2.043 -2.2661  0.4839  1.0311
 6841TIP3   OH220486   1.946   0.819   0.822  0.0078 -0.2428  0.0476
 6841TIP3    H120487   1.973   0.752   0.759 -1.4146  0.2098 -1.0968
 6841TIP3    H220488   2.025   0.873   0.833  0.2262 -0.1552 -1.6058
 6842TIP3   OH220489   0.685   6.145   2.736  0.1696 -0.4653  0.5836
 6842TIP3    H120490   0.652   6.220   2.686 -1.4156 -1.0953  0.6218
 6842TIP3    H220491   0.619   6.132   2.804  0.0731 -2.2850  0.1760
 6843TIP3   OH220492   5.499   0.045   0.462  0.0143  0.2188 -0.2366
 6843TIP3    H120493   5.485   0.078   0.373 -0.7599 -0.9023 -0.5416
 6843TIP3    H220494   5.416   0.005   0.486  0.6329 -0.6660  0.4882
 6844TIP3   OH220495   3.219   2.449   2.879 -0.1462  0.2666  0.1956
 6844TIP3    H120496   3.180   2.476   2.796  1.6659  0.9852 -0.4689
 6844TIP3    H220497   3.281   2.380   2.854  1.9756  1.9307  0.5896
 6845TIP3   OH220498   3.434   5.960   3.817 -0.2813  0.4276  0.2074
 6845TIP3    H120499   3.499   6.030   3.826 -0.9377  0.8955  1.4176
 6845TIP3    H220500   3.403   5.944   3.905 -1.1615 -0.4280 -0.2414
 6846TIP3   OH220501   1.906   6.721   3.655  0.1847  0.3638 -0.0468
 6846TIP3    H120502   1.925   6.800   3.705  1.3050 -0.6148  1.1557
 6846TIP3    H220503   1.990   6.674   3.651 -0.1267 -0.1346 -1.9128
 6847TIP3   OH220504   4.746   0.831   0.711  0.4553 -0.4418 -0.2700
 6847TIP3    H120505   4.753   0.925   0.695 -0.8849 -0.3754 -0.5902
 6847TIP3    H220506   4.705   0.796   0.632  0.2867 -1.1808  0.1332
 6848TIP3   OH220507   4.347   3.221   3.920  0.4435  0.2787  0.4322
 6848TIP3    H120508   4.442   3.230   3.930  0.1318  1.7707  2.8590
 6848TIP3    H220509   4.322   3.295   3.864  0.4760  1.3788  1.8213
 6849TIP3   OH220510   3.929   4.015   1.110  0.4041  0.6173 -0.4428
 6849TIP3    H120511   3.940   4.045   1.020 -1.6205 -2.1085 -1.7508
 6849TIP3    H220512   3.943   3.921   1.106  0.1492  0.4072  2.0911
 6850TIP3   OH220513   3.624   2.734   2.684  0.0898  0.4028 -0.0345
 6850TIP3    H120514   3.576   2.811   2.715  0.2880  1.4531 -2.1706
 6850TIP3    H220515   3.576   2.705   2.606  1.0887 -0.5068 -0.3424
 6851TIP3   OH220516   4.366   1.215   5.667  0.1256 -0.5321 -0.4063
 6851TIP3    H120517   4.297   1.234   5.730  0.9292 -0.3586  0.4496
 6851TIP3    H220518   4.370   1.119   5.664  0.6614 -0.5500  0.4839
 6852TIP3   OH220519   0.987   2.938   3.315  0.6781 -0.0267  0.4700
 6852TIP3    H120520   1.022   2.854   3.285  0.2008 -0.1071  0.1223
 6852TIP3    H220521   0.900   2.917   3.347 -0.0154  0.5432 -0.9349
 6853TIP3   OH220522   1.260   5.176   2.828 -0.7106  0.2647  0.5811
 6853TIP3    H120523   1.240   5.247   2.889 -0.4656  0.0626  0.8975
 6853TIP3    H220524   1.349   5.150   2.850  0.1441  1.5299 -1.1712
 6854TIP3   OH220525   6.025   1.700   0.547  0.5922  0.3332  0.5175
 6854TIP3    H120526   5.982   1.676   0.465  1.4434 -1.4090  0.5505
 6854TIP3    H220527   5.981   1.781   0.574  0.0155  0.7170 -1.4257
 6855TIP3   OH220528   3.754   3.461   5.747  0.9635  0.3250  0.2867
 6855TIP3    H120529   3.843   3.426   5.741  1.5894  2.0945 -2.1925
 6855TIP3    H220530   3.702   3.405   5.690  0.7910  0.1835  0.5798
 6856TIP3   OH220531   6.361   5.476   4.721  0.5854 -0.1283 -0.3028
 6856TIP3    H120532   6.318   5.390   4.723  0.1889  0.0540 -0.8336
 6856TIP3    H220533   6.410   5.476   4.639  1.1360 -0.1043  0.0210
 6857TIP3   OH220534   1.185   5.587   5.567 -0.1537  0.1511  0.5422
 6857TIP3    H120535   1.132   5.640   5.627  0.8481  0.7120  0.9714
 6857TIP3    H220536   1.155   5.612   5.480 -2.2995 -1.3626  0.7683
 6858TIP3   OH220537   7.168   6.374   1.529 -0.4813  0.6929  0.6666
 6858TIP3    H120538   7.080   6.403   1.553 -0.4289  2.1172 -0.7174
 6858TIP3    H220539   7.215   6.367   1.613 -1.8374  0.0725  1.3986
 6859TIP3   OH220540   1.202   6.390   3.034 -0.2771 -0.1024 -0.1576
 6859TIP3    H120541   1.147   6.444   3.092  0.9705  0.7403  0.2824
 6859TIP3    H220542   1.221   6.312   3.086  2.3614  1.4477  1.4010
 6860TIP3   OH220543   1.097   5.997   2.039  0.3445  0.1719 -0.4770
 6860TIP3    H120544   1.093   6.091   2.055  0.2462  0.0519  0.2185
 6860TIP3    H220545   1.018   5.962   2.081  1.7761 -0.5704  1.7582
 6861TIP3   OH220546   1.876   3.225   3.177 -0.3397 -0.2842  0.2893
 6861TIP3    H120547   1.921   3.244   3.094 -2.3213  1.1950 -0.5420
 6861TIP3    H220548   1.855   3.312   3.213  1.4501 -0.8575  2.9785
 6862TIP3   OH220549   3.645   1.591   3.287  0.1448 -0.3311 -0.1432
 6862TIP3    H120550   3.575   1.556   3.231  0.2886 -1.1830  0.1960
 6862TIP3    H220551   3.647   1.685   3.267 -1.0975 -0.2910 -0.1485
 6863TIP3   OH220552   4.580   4.060   3.952 -1.1040 -0.0948 -0.1299
 6863TIP3    H120553   4.632   4.083   3.875 -1.1825 -0.6378 -0.3455
 6863TIP3    H220554   4.491   4.047   3.919 -0.6507 -3.0545 -0.4587
 6864TIP3   OH220555   6.197   3.469   2.489  0.0285  0.4604  0.4637
 6864TIP3    H120556   6.152   3.399   2.537  2.6244 -0.2264  2.0931
 6864TIP3    H220557   6.166   3.549   2.530  0.4655 -0.0166  1.8055
 6865TIP3   OH220558   2.559   4.843   3.502  0.3279 -0.1197  0.0402
 6865TIP3    H120559   2.629   4.780   3.482  0.3651  0.4067 -1.5852
 6865TIP3    H220560   2.604   4.927   3.506  0.3085 -0.1362  2.4020
 6866TIP3   OH220561   3.602   3.720   4.379  0.0420 -0.0240 -0.3166
 6866TIP3    H120562   3.678   3.680   4.337 -0.9457 -0.6355 -1.5363
 6866TIP3    H220563   3.543   3.648   4.398  0.6798  0.0944  2.7982
 6867TIP3   OH220564   0.918   5.750   3.952 -0.0290  0.2911 -0.1008
 6867TIP3    H120565   0.880   5.667   3.923  0.0621 -0.5923  2.0983
 6867TIP3    H220566   1.010   5.729   3.971  0.7876  1.6331 -2.2951
 6868TIP3   OH220567   4.161   3.062   2.835  0.2080  0.3158  0.0029
 6868TIP3    H120568   4.118   2.984   2.871 -3.0900  0.3448 -3.2717
 6868TIP3    H220569   4.160   3.125   2.907  0.4478 -1.7225  1.9183
 6869TIP3   OH220570   0.693   4.254   0.297  0.6650  0.0467  0.3562
 6869TIP3    H120571   0.724   4.324   0.354  2.2755  0.1911 -0.6333
 6869TIP3    H220572   0.717   4.174   0.342 -1.3278  0.0584  1.5706
 6870TIP3   OH220573   5.689   2.051   2.129 -0.4115  0.2190 -0.0510
 6870TIP3    H120574   5.713   2.093   2.047  0.0170  0.5043  0.2212
 6870TIP3    H220575   5.740   2.096   2.196  0.3064 -0.9494  0.2101
 6871TIP3   OH220576   6.917   3.195   4.542  0.3468 -0.0355 -0.1047
 6871TIP3    H120577   6.954   3.177   4.629 -0.8519 -1.3928  0.1630
 6871TIP3    H220578   6.987   3.170   4.481  1.2552  1.0615  0.4372
 6872TIP3   OH220579   5.693   2.239   0.047 -0.4462 -0.1167 -1.1096
 6872TIP3    H120580   5.639   2.306   0.005 -0.4279  0.2198 -0.6056
 6872TIP3    H220581   5.783   2.266   0.030 -0.4167  0.8567  0.4029
 6873TIP3   OH220582   5.925   4.186   0.930 -0.1902  0.1119 -0.2897
 6873TIP3    H120583   5.886   4.102   0.955 -0.4538 -0.2558 -1.8183
 6873TIP3    H220584   5.868   4.252   0.970 -1.4295 -0.4379 -1.0649
 6874TIP3   OH220585   5.467   2.967   4.382 -0.7772 -0.0146  0.0779
 6874TIP3    H120586   5.377   2.942   4.358 -1.4131  0.7181  1.5869
 6874TIP3    H220587   5.465   2.974   4.477  0.8937  0.0461  0.1245
 6875TIP3   OH220588   4.048   2.114   3.077 -0.4734  0.6022  0.3287
 6875TIP3    H120589   4.086   2.164   3.148  1.5047 -0.1728 -0.1147
 6875TIP3    H220590   4.123   2.068   3.037 -1.4843  1.0370 -2.2509
 6876TIP3   OH220591   1.466   0.991   4.030  0.2390  0.2678  0.2644
 6876TIP3    H120592   1.438   0.925   4.094 -1.2652  1.2929  0.7311
 6876TIP3    H220593   1.525   1.048   4.080  0.3077  0.1746  0.2912
 6877TIP3   OH220594   0.610   3.116   2.473 -0.6640 -0.1380  0.4174
 6877TIP3    H120595   0.652   3.189   2.520 -0.5535  0.4744 -0.5957
 6877TIP3    H220596   0.682   3.054   2.458 -0.6691 -0.2703  0.9185
 6878TIP3   OH220597   5.031   1.258   0.440  0.9989 -0.3224  0.1126
 6878TIP3    H120598   5.110   1.290   0.485 -0.0211  1.1298  0.9485
 6878TIP3    H220599   4.963   1.322   0.462 -0.3709 -1.4133 -0.7797
 6879TIP3   OH220600   1.868   2.425   0.820 -0.6717 -0.3758  0.1687
 6879TIP3    H120601   1.808   2.497   0.802 -0.5898  0.0258  1.3961
 6879TIP3    H220602   1.936   2.465   0.875  0.4725 -0.9292 -0.8000
 6880TIP3   OH220603   6.684   6.172   0.429 -0.5032 -0.4675  0.4744
 6880TIP3    H120604   6.780   6.171   0.430 -0.4592  1.2893  0.6245
 6880TIP3    H220605   6.659   6.127   0.509  0.0965 -3.5688 -0.9475
 6881TIP3   OH220606   1.433   3.508   2.324 -0.2002  0.5573  0.1074
 6881TIP3    H120607   1.490   3.569   2.276 -0.1065  0.5623  0.2234
 6881TIP3    H220608   1.383   3.564   2.383 -0.5883  0.5932 -0.2498
 6882TIP3   OH220609   2.221   2.048   0.768  0.0257 -0.6114  0.9218
 6882TIP3    H120610   2.255   2.082   0.685 -0.2919 -0.0895  1.0000
 6882TIP3    H220611   2.285   1.982   0.795  0.3244 -0.5229  0.4471
 6883TIP3   OH220612   6.711   0.110   5.625  0.1453  0.6095  0.3785
 6883TIP3    H120613   6.729   0.023   5.660  0.9130  1.1176  1.3174
 6883TIP3    H220614   6.735   0.105   5.533  1.1131  0.0872  0.6497
 6884TIP3   OH220615   0.579   6.256   4.919 -0.4545 -0.3658  0.1958
 6884TIP3    H120616   0.602   6.163   4.908 -0.5466 -0.5022  1.0845
 6884TIP3    H220617   0.663   6.300   4.930 -0.4928 -0.5603  1.2903
 6885TIP3   OH220618   3.495   2.732   1.483 -0.6079  0.0426 -0.0359
 6885TIP3    H120619   3.443   2.659   1.452  1.2709 -0.8825 -1.2254
 6885TIP3    H220620   3.466   2.807   1.430  0.6752 -0.9311 -2.2677
 6886TIP3   OH220621   1.299   0.105   3.932 -0.2854 -0.2590 -0.0644
 6886TIP3    H120622   1.282   0.170   3.864  0.4287 -0.3938 -0.3863
 6886TIP3    H220623   1.369   0.143   3.986 -0.4823 -0.3774  0.2792
 6887TIP3   OH220624   1.563   5.544   1.906  0.3156  0.1136  0.3893
 6887TIP3    H120625   1.575   5.582   1.993 -2.0441  0.7759  0.4875
 6887TIP3    H220626   1.550   5.450   1.923  1.0926  0.0390  0.6122
 6888TIP3   OH220627   1.469   2.901   0.483 -0.4907 -0.3416  0.5597
 6888TIP3    H120628   1.445   2.954   0.559 -0.8542  0.3207 -0.0102
 6888TIP3    H220629   1.416   2.935   0.412  1.0772  0.1791 -0.4069
 6889TIP3   OH220630   2.754   0.464   0.808 -0.0781  0.2203 -0.1689
 6889TIP3    H120631   2.835   0.510   0.834 -0.5882  0.2344  1.4841
 6889TIP3    H220632   2.768   0.374   0.836  0.0203 -0.1686 -1.4130
 6890TIP3   OH220633   5.961   4.281   3.995 -0.4579  0.0131  0.2072
 6890TIP3    H120634   5.917   4.245   3.918  1.0548 -0.1108 -0.6484
 6890TIP3    H220635   6.038   4.224   4.007  0.6999  1.5276  0.2528
 6891TIP3   OH220636   1.884   2.443   0.416 -0.0768 -0.1679  0.2828
 6891TIP3    H120637   1.918   2.360   0.384  2.8321  0.9103  0.2911
 6891TIP3    H220638   1.858   2.490   0.336 -2.0666 -1.1214  0.2984
 6892TIP3   OH220639   7.184   0.530   3.180  0.5134 -0.0203 -0.2811
 6892TIP3    H120640   7.272   0.513   3.145  0.0860  0.2678 -1.5386
 6892TIP3    H220641   7.129   0.537   3.103 -0.1221  2.7399  0.3233
 6893TIP3   OH220642   0.448   4.150   4.690 -0.5917 -0.2517 -0.3578
 6893TIP3    H120643   0.388   4.199   4.633 -0.6356  2.7215  1.9994
 6893TIP3    H220644   0.503   4.217   4.729  2.0484 -2.5760  0.1840
 6894TIP3   OH220645   1.230   2.161   0.165 -0.4139 -0.9930  0.2755
 6894TIP3    H120646   1.292   2.093   0.190  1.0479  0.0829 -0.2330
 6894TIP3    H220647   1.215   2.211   0.246  0.0900 -0.7423  0.2221
 6895TIP3   OH220648   2.356   4.492   4.641 -0.1879  0.0815 -0.3875
 6895TIP3    H120649   2.321   4.453   4.721  0.0706  0.3849 -0.1198
 6895TIP3    H220650   2.341   4.426   4.573  2.2549 -1.4615  0.4580
 6896TIP3   OH220651   3.850   5.057   3.977 -0.0778  0.2607  0.3873
 6896TIP3    H120652   3.843   5.130   3.916  1.1436  1.6349  1.8343
 6896TIP3    H220653   3.944   5.045   3.989 -0.2502 -1.5303  0.2368
 6897TIP3   OH220654   1.526   6.702   4.790 -0.2693  0.1362 -0.6158
 6897TIP3    H120655   1.583   6.779   4.791 -0.2971  0.1565 -0.5138
 6897TIP3    H220656   1.553   6.652   4.868 -1.5231  0.9860  0.4017
 6898TIP3   OH220657   6.667   1.473   1.120 -0.4908  0.3267  0.8028
 6898TIP3    H120658   6.679   1.486   1.214  1.5959  0.3152  0.5831
 6898TIP3    H220659   6.754   1.488   1.082 -1.1556 -0.2429 -1.0699
 6899TIP3   OH220660   4.830   6.263   3.370  0.0690 -0.5091 -0.0598
 6899TIP3    H120661   4.777   6.193   3.333  1.0629 -0.8358 -0.8754
 6899TIP3    H220662   4.828   6.332   3.304  1.7800 -1.0608 -0.7392
 6900TIP3   OH220663   1.887   1.744   1.744 -0.0721  0.1270  0.2447
 6900TIP3    H120664   1.925   1.657   1.756 -1.4361 -0.5534 -0.0957
 6900TIP3    H220665   1.918   1.795   1.818  1.0776 -0.5251  0.2334
 6901TIP3   OH220666   5.369   1.188   5.512 -0.2368  0.1055 -0.4555
 6901TIP3    H120667   5.455   1.154   5.540 -0.8473 -1.3326 -0.2658
 6901TIP3    H220668   5.370   1.279   5.541  0.3993 -0.4610  1.5153
 6902TIP3   OH220669   5.382   6.236   3.513 -0.0234 -0.4540 -0.0937
 6902TIP3    H120670   5.293   6.268   3.501 -0.0054 -0.1400  0.5300
 6902TIP3    H220671   5.379   6.188   3.596  0.2577 -0.9377 -0.3587
 6903TIP3   OH220672   1.989   5.793   1.615 -0.2218  0.2804 -0.5302
 6903TIP3    H120673   1.899   5.827   1.609  0.0337  1.5061  1.6013
 6903TIP3    H220674   2.044   5.869   1.595  0.3458 -0.0190 -0.1084
 6904TIP3   OH220675   6.603   6.767   0.238 -0.5221  0.1615 -0.3585
 6904TIP3    H120676   6.569   6.704   0.303 -3.2228 -0.7731 -2.4778
 6904TIP3    H220677   6.606   6.718   0.156  1.3373  1.7247 -1.2989
 6905TIP3   OH220678   4.482   2.570   4.272 -0.7098 -0.1998  0.2556
 6905TIP3    H120679   4.417   2.500   4.265 -0.3467 -0.5535  0.4002
 6905TIP3    H220680   4.561   2.526   4.303  0.2335 -0.1722 -1.9318
 6906TIP3   OH220681   2.004   0.497   2.307  0.0784  0.2043 -0.3169
 6906TIP3    H120682   2.097   0.518   2.303  0.1307 -0.1444 -1.3656
 6906TIP3    H220683   1.965   0.569   2.358  1.0314 -0.1429  0.9381
 6907TIP3   OH220684   2.250   5.320   2.479 -0.1952  0.5284 -0.1277
 6907TIP3    H120685   2.246   5.224   2.477 -0.6930  0.5517 -0.6695
 6907TIP3    H220686   2.295   5.340   2.561  0.5589 -0.1810 -0.3515
 6908TIP3   OH220687   0.638   1.716   4.318  0.4223 -0.1201  0.2316
 6908TIP3    H120688   0.675   1.628   4.321  0.7663 -0.1808 -2.5215
 6908TIP3    H220689   0.668   1.758   4.398  1.6190 -1.9965  0.8245
 6909TIP3   OH220690   3.474   3.299   1.406  0.0753 -0.9512 -0.3229
 6909TIP3    H120691   3.411   3.227   1.397  3.1489 -3.5592 -4.5569
 6909TIP3    H220692   3.447   3.362   1.340 -0.7365  0.3712  1.1985
 6910TIP3   OH220693   6.479   0.093   5.358 -0.2002 -0.2653  0.1110
 6910TIP3    H120694   6.437   0.020   5.312  0.1794  0.9634 -2.3572
 6910TIP3    H220695   6.573   0.079   5.343 -0.0486 -0.0072  0.8037
 6911TIP3   OH220696   6.601   0.538   5.757 -0.6568  0.7667 -0.0360
 6911TIP3    H120697   6.650   0.609   5.716  1.9139 -0.2349  1.0764
 6911TIP3    H220698   6.587   0.567   5.847  0.2587 -0.0373  0.3770
 6912TIP3   OH220699   2.540   2.025   4.490  0.3917  0.1065 -0.1251
 6912TIP3    H120700   2.536   1.995   4.399  0.4325  0.5278 -0.2676
 6912TIP3    H220701   2.461   2.078   4.501  0.4251  0.1166  0.0668
 6913TIP3   OH220702   0.946   2.779   1.290 -0.2583  0.3779  0.1740
 6913TIP3    H120703   1.016   2.834   1.257  0.0419 -0.0160  0.1502
 6913TIP3    H220704   0.941   2.706   1.229 -1.0377  0.6626 -0.1202
 6914TIP3   OH220705   0.181   4.211   3.707 -0.1074  0.2643 -0.1679
 6914TIP3    H120706   0.153   4.207   3.615 -0.4938 -0.1543 -0.0335
 6914TIP3    H220707   0.263   4.161   3.708  0.2772  0.8681 -0.4157
 6915TIP3   OH220708   3.662   0.643   0.648  0.2203 -0.0294  0.1211
 6915TIP3    H120709   3.570   0.671   0.648 -0.2122 -1.2166 -2.0274
 6915TIP3    H220710   3.699   0.683   0.570  1.4142  0.0020  0.6832
 6916TIP3   OH220711   2.390   0.040   4.189 -0.7631  0.0507 -0.2277
 6916TIP3    H120712   2.416   0.059   4.099 -1.1139  2.1194  0.0426
 6916TIP3    H220713   2.460   0.077   4.243 -0.6041 -1.0825  0.3655
 6917TIP3   OH220714   4.539   3.830   3.666  0.5118 -0.1991  0.8257
 6917TIP3    H120715   4.540   3.786   3.580  0.0747 -0.1968  0.8176
 6917TIP3    H220716   4.601   3.901   3.657 -0.7669  0.8572 -0.0519
 6918TIP3   OH220717   2.853   4.180   1.016 -0.3312  0.3223 -0.3552
 6918TIP3    H120718   2.854   4.212   1.106  0.2849  0.4911 -0.4201
 6918TIP3    H220719   2.767   4.138   1.006 -0.9873  1.5742 -0.1387
 6919TIP3   OH220720   4.148   6.707   4.516  0.1014 -0.5282  0.1564
 6919TIP3    H120721   4.148   6.717   4.421  1.6815 -0.2090  0.1627
 6919TIP3    H220722   4.088   6.774   4.547 -0.7069 -0.8723 -0.6314
 6920TIP3   OH220723   0.111   2.508   3.548 -0.0827 -0.2697  0.4895
 6920TIP3    H120724   0.120   2.513   3.453  0.6533 -0.4040  0.5488
 6920TIP3    H220725   0.022   2.474   3.562  0.2880 -1.5722 -0.1789
 6921TIP3   OH220726   4.589   2.975   3.367 -0.2774  0.8185  0.3944
 6921TIP3    H120727   4.494   2.966   3.360 -0.1855 -0.7825  0.6871
 6921TIP3    H220728   4.606   3.069   3.361 -1.9824  1.2336  1.5043
 6922TIP3   OH220729   4.628   2.805   3.606 -0.4374  0.2739  0.4608
 6922TIP3    H120730   4.606   2.872   3.540 -3.0410  1.3974  2.3276
 6922TIP3    H220731   4.723   2.794   3.597 -0.3881  1.8685 -2.0686
 6923TIP3   OH220732   3.073   4.170   1.464  0.5562  0.3224 -0.4719
 6923TIP3    H120733   3.104   4.090   1.422 -2.0975 -1.3044  0.4423
 6923TIP3    H220734   3.087   4.155   1.557 -0.6296  0.5556 -0.2362
 6924TIP3   OH220735   6.342   5.687   1.243 -0.2282 -0.0551 -0.5734
 6924TIP3    H120736   6.282   5.704   1.171  0.4468  0.6234 -0.9922
 6924TIP3    H220737   6.405   5.759   1.240  0.0213 -0.2062  0.4761
 6925TIP3   OH220738   6.682   4.577   4.804 -0.1067  0.4003 -0.8419
 6925TIP3    H120739   6.591   4.607   4.814 -0.7259 -1.4428 -0.5621
 6925TIP3    H220740   6.726   4.650   4.760 -1.7749  1.2392 -1.2251
 6926TIP3   OH220741   6.221   4.163   5.525 -0.6101 -0.4665  0.3061
 6926TIP3    H120742   6.290   4.195   5.467 -1.0902  0.3038  0.1369
 6926TIP3    H220743   6.246   4.073   5.546  1.6191  0.4491  1.9997
 6927TIP3   OH220744   2.064   3.832   3.230  0.2656  0.2210  0.2683
 6927TIP3    H120745   1.991   3.893   3.225  1.1298  1.1794 -1.6294
 6927TIP3    H220746   2.048   3.782   3.309 -2.2034  0.7033  0.1481
 6928TIP3   OH220747   0.575   2.653   4.445 -0.5551 -0.3758  0.2124
 6928TIP3    H120748   0.651   2.600   4.421 -0.4507 -1.3078  2.3122
 6928TIP3    H220749   0.519   2.651   4.368  1.7804  0.9059 -1.6661
 6929TIP3   OH220750   6.885   5.554   4.588 -0.6085 -0.6420  0.2024
 6929TIP3    H120751   6.975   5.520   4.583 -0.6848 -0.7122 -1.1042
 6929TIP3    H220752   6.836   5.486   4.633  0.2732  0.0661  2.3695
 6930TIP3   OH220753   0.510   1.983   1.809 -0.1786  0.3362 -0.5365
 6930TIP3    H120754   0.441   1.926   1.844  0.9340 -0.7214 -0.0105
 6930TIP3    H220755   0.529   2.045   1.880  1.8388 -1.5937  0.7184
 6931TIP3   OH220756   1.055   2.266   4.316  0.2287  0.0377  0.1202
 6931TIP3    H120757   1.031   2.212   4.240  0.4945 -0.1507  0.1671
 6931TIP3    H220758   1.111   2.209   4.369  1.0856  0.5943 -0.1712
 6932TIP3   OH220759   6.653   1.832   4.980 -0.3407  0.0197 -0.5630
 6932TIP3    H120760   6.619   1.839   5.069  0.8844 -0.3476 -0.0549
 6932TIP3    H220761   6.626   1.745   4.951  0.4010 -0.3822 -0.0582
 6933TIP3   OH220762   1.715   5.568   5.281 -0.4000 -0.5573  0.5514
 6933TIP3    H120763   1.638   5.598   5.232 -0.5958 -1.7269  0.1090
 6933TIP3    H220764   1.718   5.473   5.265  0.8648 -0.5981  0.9356
 6934TIP3   OH220765   1.454   2.777   0.940 -0.3459 -0.0166 -0.2162
 6934TIP3    H120766   1.431   2.695   0.984 -0.4049  0.2861  0.3269
 6934TIP3    H220767   1.477   2.751   0.851  0.5022 -0.7296  0.2013
 6935TIP3   OH220768   4.056   2.961   1.571  0.3292 -0.2548  0.2308
 6935TIP3    H120769   4.149   2.946   1.588  0.5321  0.4917 -0.1794
 6935TIP3    H220770   4.054   3.005   1.486 -0.5135 -1.8192 -0.5998
 6936TIP3   OH220771   7.002   2.460   3.960 -0.0826  0.0941  0.5077
 6936TIP3    H120772   7.061   2.536   3.962 -2.2926  2.0017 -1.2995
 6936TIP3    H220773   6.965   2.457   4.049  1.5329 -0.1893  1.2059
 6937TIP3   OH220774   7.114   3.941   2.395  0.5574  0.3567 -0.1096
 6937TIP3    H120775   7.033   3.912   2.353  0.8940  0.4392 -0.8355
 6937TIP3    H220776   7.179   3.875   2.371  0.6687  0.1880  0.6242
 6938TIP3   OH220777   0.787   6.463   2.752 -0.0358  0.3906  0.0923
 6938TIP3    H120778   0.876   6.491   2.728  0.8524 -3.1388 -1.4096
 6938TIP3    H220779   0.748   6.435   2.669 -3.2364  3.1621  0.4599
 6939TIP3   OH220780   3.766   5.000   4.338 -0.1127 -0.1555 -0.2240
 6939TIP3    H120781   3.754   5.006   4.243  0.0189  0.8778 -0.1888
 6939TIP3    H220782   3.853   4.962   4.348  1.4870  3.0015 -0.6126
 6940TIP3   OH220783   1.843   1.699   4.512  0.3564 -0.6088  0.3894
 6940TIP3    H120784   1.871   1.783   4.476 -1.6937 -1.0258 -2.4773
 6940TIP3    H220785   1.837   1.714   4.607 -0.1171  2.5139 -0.0569
 6941TIP3   OH220786   0.126   2.291   1.455 -0.5282 -0.2800  0.3444
 6941TIP3    H120787   0.037   2.257   1.448 -1.5015  2.0088  0.7395
 6941TIP3    H220788   0.169   2.263   1.374 -2.3768  0.6171 -1.0306
 6942TIP3   OH220789   5.797   3.189   1.705  0.1121 -0.0085 -0.4627
 6942TIP3    H120790   5.810   3.163   1.796 -1.1753  0.9003  0.0192
 6942TIP3    H220791   5.806   3.108   1.655  1.3614 -0.4357  0.4015
 6943TIP3   OH220792   6.732   6.659   1.503 -0.8348 -0.1616 -0.7519
 6943TIP3    H120793   6.773   6.696   1.581 -2.6660  3.0483 -1.1411
 6943TIP3    H220794   6.787   6.688   1.430 -2.2333  2.0166 -1.0502
 6944TIP3   OH220795   3.401   5.847   4.804  0.1840 -0.3713  0.6808
 6944TIP3    H120796   3.331   5.855   4.740 -1.1707 -0.7569  2.0456
 6944TIP3    H220797   3.482   5.846   4.752 -0.7816  0.4261 -0.9114
 6945TIP3   OH220798   4.779   6.220   1.513  0.2438  0.2739 -0.1035
 6945TIP3    H120799   4.868   6.252   1.498 -0.9009  3.1599 -1.5555
 6945TIP3    H220800   4.746   6.200   1.425 -0.2861 -1.7228  0.4946
 6946TIP3   OH220801   6.973   6.684   0.059 -0.0681 -0.0036 -0.0775
 6946TIP3    H120802   7.041   6.677   0.126  1.6637  0.4441 -1.7065
 6946TIP3    H220803   7.021   6.693  -0.024 -2.1061 -1.1461 -1.4871
 6947TIP3   OH220804   4.627   5.114   5.753 -0.7778  0.4588  0.1732
 6947TIP3    H120805   4.609   5.168   5.830  1.8493  1.0797  0.4670
 6947TIP3    H220806   4.647   5.027   5.788 -0.6209  0.4638  0.0976
 6948TIP3   OH220807   6.932   4.984   4.847 -0.8931 -0.0546 -0.2685
 6948TIP3    H120808   7.019   4.946   4.859 -0.5321 -0.2116 -2.8092
 6948TIP3    H220809   6.926   5.051   4.915  1.8272  0.9439 -0.8536
 6949TIP3   OH220810   3.655   0.329   2.431  0.1563  0.2944 -0.0991
 6949TIP3    H120811   3.726   0.329   2.495 -0.4125 -2.4266  0.6570
 6949TIP3    H220812   3.575   0.338   2.484 -0.2156  0.1210 -0.6237
 6950TIP3   OH220813   7.020   5.977   1.869 -0.4271 -0.2084 -0.5019
 6950TIP3    H120814   7.088   5.968   1.803 -0.5528  0.3140 -0.7122
 6950TIP3    H220815   6.999   6.071   1.868 -0.6252 -0.2442  0.0805
 6951TIP3   OH220816   4.132   4.105   4.354  0.3258  0.1416 -0.5198
 6951TIP3    H120817   4.077   4.034   4.319  0.6752 -0.8335  0.8128
 6951TIP3    H220818   4.206   4.060   4.394  0.2128  1.2034  0.9584
 6952TIP3   OH220819   5.668   1.091   5.483 -0.5089  0.0015  0.0600
 6952TIP3    H120820   5.699   1.177   5.454 -2.0780  1.1540  1.5781
 6952TIP3    H220821   5.738   1.057   5.538  0.9642 -0.6383 -2.0701
 6953TIP3   OH220822   7.025   2.072   5.235  0.6852 -0.1095 -0.4127
 6953TIP3    H120823   6.999   2.099   5.147  0.7507 -1.3564 -0.8463
 6953TIP3    H220824   7.106   2.022   5.221 -0.3128 -1.9670  0.0843
 6954TIP3   OH220825   0.412   3.449   3.053 -0.3835 -0.4098 -0.0790
 6954TIP3    H120826   0.340   3.447   2.990 -1.2773  2.4747  0.7204
 6954TIP3    H220827   0.490   3.456   2.999 -0.9686 -0.3069 -0.9322
 6955TIP3   OH220828   1.168   3.881   4.786 -1.0147 -0.3325  0.4428
 6955TIP3    H120829   1.114   3.845   4.716  1.1097 -0.0446 -1.4620
 6955TIP3    H220830   1.203   3.804   4.831 -0.5607 -0.5802 -0.3177
 6956TIP3   OH220831   2.338   5.991   5.323  0.2201 -0.0035  0.5775
 6956TIP3    H120832   2.269   5.925   5.326 -0.5077  0.7593  1.0307
 6956TIP3    H220833   2.398   5.960   5.255 -1.4638  0.1909 -1.0614
 6957TIP3   OH220834   0.603   3.609   4.815  0.1883 -0.5849  0.3017
 6957TIP3    H120835   0.572   3.654   4.894 -0.0839  1.1947 -0.7709
 6957TIP3    H220836   0.528   3.557   4.786 -0.3092  0.1519  0.2365
 6958TIP3   OH220837   4.546   3.695   4.256 -0.1980 -0.3851 -0.3756
 6958TIP3    H120838   4.628   3.745   4.260  0.5764 -1.6440  0.1249
 6958TIP3    H220839   4.526   3.675   4.347 -0.5685 -0.8645 -0.5571
 6959TIP3   OH220840   5.778   2.755   3.635 -0.3386  0.0170 -0.4559
 6959TIP3    H120841   5.701   2.723   3.588 -0.2388 -0.1657 -0.4953
 6959TIP3    H220842   5.776   2.850   3.623 -1.0337  0.1108  0.2525
 6960TIP3   OH220843   0.898   2.352   3.271  0.7795 -0.6006  0.0778
 6960TIP3    H120844   0.986   2.316   3.282  0.2429 -1.7219  0.9373
 6960TIP3    H220845   0.895   2.427   3.329  1.7653  0.6522 -1.3919
 6961TIP3   OH220846   0.909   4.936   4.524  0.3359  0.2599 -0.1923
 6961TIP3    H120847   0.880   4.876   4.454 -0.8055  0.5467  0.0082
 6961TIP3    H220848   0.904   4.884   4.604 -1.5127  0.8200  0.1103
 6962TIP3   OH220849   2.890   6.313   5.068  0.3232  0.2989 -0.5491
 6962TIP3    H120850   2.860   6.404   5.070 -0.3277  0.0963 -0.7725
 6962TIP3    H220851   2.876   6.281   5.157  1.1408  0.5970 -0.3067
 6963TIP3   OH220852   2.588   5.061   3.867  0.1527 -0.1582  0.6165
 6963TIP3    H120853   2.665   5.007   3.883  1.5520  1.2428 -0.8533
 6963TIP3    H220854   2.575   5.110   3.948 -1.4499 -2.9263  2.1467
 6964TIP3   OH220855   4.821   0.425   1.573 -0.4341  1.0006  0.2284
 6964TIP3    H120856   4.855   0.515   1.570  1.2674  0.5182  2.1461
 6964TIP3    H220857   4.899   0.371   1.588 -1.5873 -0.6379  0.5331
 6965TIP3   OH220858   4.937   4.779   4.889 -0.2015  0.5352 -0.4236
 6965TIP3    H120859   5.000   4.846   4.864  1.8720  0.1140  3.0517
 6965TIP3    H220860   4.989   4.713   4.934 -2.7066 -1.5952 -0.4297
 6966TIP3   OH220861   3.257   4.194   1.169 -0.1807 -0.3530 -0.6026
 6966TIP3    H120862   3.231   4.260   1.233 -0.1266 -0.3898 -0.5432
 6966TIP3    H220863   3.283   4.118   1.221  1.7981  0.2908 -0.5720
 6967TIP3   OH220864   1.821   6.588   4.757 -0.3452 -0.8073 -0.2757
 6967TIP3    H120865   1.759   6.591   4.684 -0.6395 -2.4802 -0.1294
 6967TIP3    H220866   1.772   6.618   4.833 -0.3830 -0.2127 -0.5285
 6968TIP3   OH220867   6.789   1.401   4.921 -0.1001 -0.0483 -0.7505
 6968TIP3    H120868   6.793   1.456   4.843 -2.7386  1.1536 -0.1417
 6968TIP3    H220869   6.823   1.456   4.991  0.8428 -0.5973 -0.7552
 6969TIP3   OH220870   2.178   1.547   2.453  0.2657 -0.4150  0.3318
 6969TIP3    H120871   2.090   1.565   2.420  0.1248  0.6975  1.2746
 6969TIP3    H220872   2.219   1.497   2.382 -0.7134  0.1019 -0.6462
 6970TIP3   OH220873   2.494   6.119   0.745  0.3869  0.3097 -0.0959
 6970TIP3    H120874   2.491   6.095   0.652  1.4036 -0.1549 -0.0222
 6970TIP3    H220875   2.550   6.197   0.748  2.3494 -1.0420  0.3582
 6971TIP3   OH220876   5.833   5.605   0.012 -0.1080 -0.0510 -0.3797
 6971TIP3    H120877   5.834   5.573   0.102 -0.4248  1.8957  0.3717
 6971TIP3    H220878   5.765   5.554  -0.031 -0.6019 -0.3679  0.7409
 6972TIP3   OH220879   7.210   6.037   1.445  0.5967 -0.2619  0.1670
 6972TIP3    H120880   7.204   6.133   1.450 -0.8691 -0.3153 -0.0813
 6972TIP3    H220881   7.217   6.018   1.352 -1.8572 -0.4639 -0.0498
 6973TIP3   OH220882   2.930   4.541   5.080  0.3527 -0.2797  0.7336
 6973TIP3    H120883   3.003   4.489   5.047 -0.2287 -0.6020 -0.0849
 6973TIP3    H220884   2.897   4.587   5.003  1.1536  1.7042  1.5211
 6974TIP3   OH220885   4.983   6.319   2.587 -0.3042 -0.5203  0.3665
 6974TIP3    H120886   4.894   6.330   2.554 -0.6003 -0.7528  1.0662
 6974TIP3    H220887   5.032   6.392   2.549 -0.6486 -0.7382 -0.5085
 6975TIP3   OH220888   5.941   3.940   5.502 -0.2993 -0.5967  0.0022
 6975TIP3    H120889   5.962   3.968   5.413 -0.1101 -1.1947 -0.1512
 6975TIP3    H220890   5.846   3.933   5.503 -0.7145  3.0963  0.9973
 6976TIP3   OH220891   5.305   5.323   5.608 -0.3774 -0.2472 -0.1982
 6976TIP3    H120892   5.319   5.332   5.702  1.5867  0.6648 -0.5253
 6976TIP3    H220893   5.268   5.235   5.597  0.7025 -0.9333  1.3184
 6977TIP3   OH220894   4.397   6.037   5.047  0.0287 -0.1135 -0.5026
 6977TIP3    H120895   4.433   6.101   4.986 -0.3338  0.2064 -0.3877
 6977TIP3    H220896   4.310   6.071   5.068 -0.3500 -0.8774 -0.7962
 6978TIP3   OH220897   2.415   5.398   4.376  0.2332  0.0289 -0.9555
 6978TIP3    H120898   2.463   5.413   4.458  0.7370 -0.8083 -1.0790
 6978TIP3    H220899   2.370   5.480   4.359  1.8242  0.9604 -0.9443
 6979TIP3   OH220900   4.489   3.867   0.074  0.5970  0.3301  0.6756
 6979TIP3    H120901   4.441   3.788   0.049 -1.0144  1.6384 -0.6935
 6979TIP3    H220902   4.533   3.894  -0.007  0.9421  0.9405  1.0645
 6980TIP3   OH220903   0.272   4.819   2.633  0.4219 -0.2145 -0.0591
 6980TIP3    H120904   0.240   4.872   2.706  0.2804  0.9512 -0.9381
 6980TIP3    H220905   0.362   4.797   2.657  0.2129 -0.2853  0.6916
 6981TIP3   OH220906   3.995   2.673   3.566  0.0881  0.2472  0.0535
 6981TIP3    H120907   3.994   2.764   3.595 -0.2514  0.8995 -1.8893
 6981TIP3    H220908   3.905   2.655   3.540  0.1166 -0.7071  0.5872
 6982TIP3   OH220909   5.017   0.839   3.001 -0.1221 -0.2592  0.0497
 6982TIP3    H120910   5.013   0.768   3.065  1.8566  0.9549  1.6730
 6982TIP3    H220911   5.009   0.795   2.916 -0.5055 -2.2252  1.0374
 6983TIP3   OH220912   4.390   3.092   2.694  0.3988  0.0465  0.0493
 6983TIP3    H120913   4.466   3.037   2.713 -0.2094 -1.1449 -0.8625
 6983TIP3    H220914   4.322   3.061   2.754  0.1180 -0.0580 -0.3199
 6984TIP3   OH220915   0.852   1.361   1.341  0.3758  0.0812 -0.2937
 6984TIP3    H120916   0.844   1.456   1.336 -0.8549 -0.0518 -1.2974
 6984TIP3    H220917   0.773   1.332   1.386 -0.9738 -0.6651 -2.9139
 6985TIP3   OH220918   6.437   0.625   0.360  0.2685 -0.5202 -0.2454
 6985TIP3    H120919   6.465   0.703   0.406 -0.7568 -0.1048 -0.2957
 6985TIP3    H220920   6.373   0.584   0.418 -1.2880  0.1846 -1.3869
 6986TIP3   OH220921   0.799   0.420   5.880 -0.2462  0.2463  0.6783
 6986TIP3    H120922   0.879   0.429   5.829 -1.1054  2.5214 -0.4090
 6986TIP3    H220923   0.731   0.402   5.815 -0.8494 -0.2171  1.4192
 6987TIP3   OH220924   3.750   4.509   3.079  0.1081 -0.2628 -0.2896
 6987TIP3    H120925   3.696   4.510   3.158  0.9608 -2.1257  0.3720
 6987TIP3    H220926   3.708   4.446   3.021  0.7640 -0.6468 -0.3573
 6988TIP3   OH220927   1.554   3.717   2.174  0.1855 -0.4040  0.1075
 6988TIP3    H120928   1.565   3.796   2.227  2.1245 -0.8231  0.3961
 6988TIP3    H220929   1.495   3.743   2.104  0.5938  1.2414  0.3333
 6989TIP3   OH220930   6.563   6.569   2.671  0.6891  1.0108 -0.2444
 6989TIP3    H120931   6.506   6.512   2.618  0.1816 -0.5252  1.8327
 6989TIP3    H220932   6.502   6.617   2.727  1.2089  2.7139 -1.0886
 6990TIP3   OH220933   1.646   3.407   0.058 -0.4072 -0.0677  0.6750
 6990TIP3    H120934   1.659   3.346  -0.014  0.1011 -0.2394  0.9099
 6990TIP3    H220935   1.700   3.483   0.035 -3.1928  1.5734 -1.0496
 6991TIP3   OH220936   4.303   3.332   5.734  0.0245  0.1024  0.0618
 6991TIP3    H120937   4.218   3.350   5.775  0.7719  0.3480  1.5650
 6991TIP3    H220938   4.328   3.246   5.768  0.8213  0.4681  0.4151
 6992TIP3   OH220939   2.863   1.602   4.886 -0.4382  0.0930 -0.0891
 6992TIP3    H120940   2.959   1.594   4.890 -0.4907 -0.2639  0.8318
 6992TIP3    H220941   2.831   1.517   4.916 -1.0338  0.7093  1.1070
 6993TIP3   OH220942   4.169   0.465   5.532 -0.5346  0.1087  0.6282
 6993TIP3    H120943   4.192   0.556   5.514 -1.5991  0.3014  0.1650
 6993TIP3    H220944   4.235   0.414   5.485  0.7888  0.6118  1.8618
 6994TIP3   OH220945   3.064   3.617   0.210 -0.4314 -0.2368  0.0346
 6994TIP3    H120946   3.122   3.586   0.141  0.8106 -0.9009  1.3113
 6994TIP3    H220947   2.992   3.661   0.164 -1.5329 -3.6180 -1.8482
 6995TIP3   OH220948   3.250   3.365   0.493 -0.2103  1.1116  0.1244
 6995TIP3    H120949   3.319   3.306   0.463 -2.1721 -0.1006 -2.5023
 6995TIP3    H220950   3.236   3.342   0.584 -0.1061 -1.8235 -0.5035
 6996TIP3   OH220951   2.509   3.974   5.307 -0.4146  0.3044 -0.5823
 6996TIP3    H120952   2.546   3.889   5.285 -1.0017 -0.5286  1.3867
 6996TIP3    H220953   2.481   4.011   5.224 -1.0949 -1.8961 -1.3977
 6997TIP3   OH220954   0.088   4.027   5.060  0.3854  0.4536  0.1586
 6997TIP3    H120955   0.046   3.945   5.035  0.1843  0.6475 -0.1453
 6997TIP3    H220956   0.078   4.031   5.155 -0.2007  0.4516  0.0970
 6998TIP3   OH220957   7.006   2.209   1.710  0.4918  0.4378 -0.0687
 6998TIP3    H120958   7.038   2.178   1.795 -1.0262 -0.2006  0.3010
 6998TIP3    H220959   7.049   2.153   1.646  0.1726 -0.3733  0.4095
 6999TIP3   OH220960   1.120   5.267   5.145  0.6909 -0.4595 -0.2252
 6999TIP3    H120961   1.085   5.257   5.234  2.0258 -1.4928  0.2246
 6999TIP3    H220962   1.137   5.178   5.116  0.4498 -0.1203 -1.4761
 7000TIP3   OH220963   0.172   1.822   3.486  0.3650  0.7352 -0.0379
 7000TIP3    H120964   0.249   1.878   3.483  1.1825 -0.2451  1.1418
 7000TIP3    H220965   0.130   1.843   3.570  1.2583 -1.0516  0.9260
 7001TIP3   OH220966   4.131   4.959   2.047 -0.3761 -0.3687 -0.1960
 7001TIP3    H120967   4.058   4.898   2.061 -0.4697 -0.7175 -1.9116
 7001TIP3    H220968   4.114   5.031   2.107 -2.5228 -0.1453 -0.9738
 7002TIP3   OH220969   4.943   3.763   2.076  0.3063 -0.0127 -0.0081
 7002TIP3    H120970   4.870   3.813   2.041  0.5313  0.5026  0.2531
 7002TIP3    H220971   4.977   3.714   2.001 -0.8449 -0.9294  0.0561
 7003TIP3   OH220972   6.465   1.407   1.717 -0.7446 -0.6286 -0.3356
 7003TIP3    H120973   6.465   1.424   1.622 -1.4832 -0.6512 -0.3507
 7003TIP3    H220974   6.388   1.455   1.749  0.2482  0.4843  0.4739
 7004TIP3   OH220975   5.729   3.031   2.436  0.3816  0.2105 -0.1990
 7004TIP3    H120976   5.661   3.058   2.498  0.2840 -0.1752 -0.1358
 7004TIP3    H220977   5.745   2.939   2.456  0.6826  0.2081 -0.4390
 7005TIP3   OH220978   4.486   5.716   4.087  0.2856  0.4037 -0.3523
 7005TIP3    H120979   4.403   5.762   4.101 -0.1583 -0.4575 -0.1507
 7005TIP3    H220980   4.519   5.752   4.004 -0.9293 -0.1979 -1.1097
 7006TIP3   OH220981   4.613   2.931   0.884 -0.0997 -0.3438  0.0409
 7006TIP3    H120982   4.682   2.867   0.898 -0.3680 -0.1973  2.7124
 7006TIP3    H220983   4.537   2.880   0.856  0.0908 -1.0414  0.7615
 7007TIP3   OH220984   3.023   0.631   0.650  0.2684 -0.0345 -0.0385
 7007TIP3    H120985   3.056   0.601   0.735 -0.1689 -0.6595 -0.0849
 7007TIP3    H220986   2.973   0.710   0.671  0.4479  0.0101  0.2368
 7008TIP3   OH220987   5.263   3.995   1.795  0.4117 -0.2611  0.1520
 7008TIP3    H120988   5.229   4.037   1.716 -1.2712 -0.7780  0.5448
 7008TIP3    H220989   5.354   3.976   1.775  0.6000  1.4954 -0.8717
 7009TIP3   OH220990   3.971   5.972   3.013  0.5536 -0.5701 -0.4326
 7009TIP3    H120991   3.907   5.961   3.083  0.4042  2.0242 -0.0594
 7009TIP3    H220992   3.919   5.987   2.934  0.7233 -1.7368 -0.7782
 7010TIP3   OH220993   4.538   4.064   2.810  0.2737 -0.1621 -0.1093
 7010TIP3    H120994   4.536   4.132   2.878 -1.6476 -0.1765 -0.0823
 7010TIP3    H220995   4.611   4.089   2.753 -1.3197  2.9501 -1.0409
 7011TIP3   OH220996   6.527   0.456   3.589  0.2880  0.0458 -0.4845
 7011TIP3    H120997   6.615   0.491   3.571  0.2198  0.4843 -0.0027
 7011TIP3    H220998   6.541   0.363   3.604  0.4019 -0.2833 -2.3524
 7012TIP3   OH220999   2.882   3.822   1.834 -0.0873  0.5338  0.0335
 7012TIP3    H121000   2.867   3.901   1.887  0.5396  0.4123  0.4003
 7012TIP3    H221001   2.823   3.833   1.759  0.1322  1.4510 -0.0235
 7013TIP3   OH221002   0.095   5.804   2.703 -0.0690  0.4855  0.0243
 7013TIP3    H121003   0.136   5.854   2.773  2.0445 -1.4301  0.2815
 7013TIP3    H221004   0.026   5.754   2.746  0.2770  0.3894  0.4782
 7014TIP3   OH221005   4.248   5.859   2.919  0.3420  0.5980  0.4457
 7014TIP3    H121006   4.258   5.765   2.933 -0.7600  0.7496  2.8021
 7014TIP3    H221007   4.161   5.880   2.955  0.6945  2.5577  0.2913
 7015TIP3   OH221008   3.151   1.521   1.647  0.2483  0.4564 -0.0983
 7015TIP3    H121009   3.126   1.611   1.627 -2.8940 -0.4136 -0.6647
 7015TIP3    H221010   3.170   1.522   1.741 -0.2593  1.6081  0.0125
 7016TIP3   OH221011   5.016   0.076   4.277  0.8923  0.0284 -0.7520
 7016TIP3    H121012   5.078   0.008   4.250  0.7817 -0.3100 -0.1871
 7016TIP3    H221013   5.071   0.148   4.306  1.0786 -0.7565  0.9823
 7017TIP3   OH221014   1.741   1.087   1.651 -0.0354  0.6474  0.4198
 7017TIP3    H121015   1.819   1.142   1.649 -0.3943  1.1466 -0.1194
 7017TIP3    H221016   1.769   1.004   1.612  0.2276  0.8239  0.2261
 7018TIP3   OH221017   5.492   2.959   4.681  0.0902 -0.3075 -0.0207
 7018TIP3    H121018   5.496   2.863   4.675  1.1215 -0.3278  0.6803
 7018TIP3    H221019   5.425   2.975   4.747 -1.7102 -0.4453 -1.7152
 7019TIP3   OH221020   1.141   2.526   4.115 -0.0723  0.1573 -0.7636
 7019TIP3    H121021   1.102   2.575   4.188  0.0737 -0.6442 -0.1267
 7019TIP3    H221022   1.068   2.476   4.078  0.1686 -0.6736 -0.1288
 7020TIP3   OH221023   4.840   2.922   5.659 -0.6129  0.6884  0.1306
 7020TIP3    H121024   4.933   2.937   5.672 -1.0555  2.5798  1.5442
 7020TIP3    H221025   4.819   2.848   5.715 -0.0716  0.6348  0.2615
 7021TIP3   OH221026   1.136   0.186   2.047  0.0973 -0.1008  0.1511
 7021TIP3    H121027   1.157   0.254   2.111 -1.7149  1.1023 -0.4513
 7021TIP3    H221028   1.167   0.221   1.963  0.2264 -0.5591  0.0031
 7022TIP3   OH221029   6.875   5.388   1.310 -0.5396  0.0403 -0.0756
 7022TIP3    H121030   6.824   5.310   1.333 -2.9300  1.5272 -0.0233
 7022TIP3    H221031   6.892   5.431   1.394 -0.0225  0.0562 -0.1850
 7023TIP3   OH221032   0.903   1.407   2.703  1.0384 -0.5379 -0.3331
 7023TIP3    H121033   0.972   1.444   2.759  1.3003 -1.5496  0.0356
 7023TIP3    H221034   0.826   1.460   2.723  1.9819  1.5177 -1.7551
 7024TIP3   OH221035   0.927   2.150   5.442  0.1845  0.0393  0.2389
 7024TIP3    H121036   0.968   2.182   5.362 -0.6972 -1.2166 -0.7672
 7024TIP3    H221037   0.923   2.226   5.500  2.1487  0.6252 -0.3447
 7025TIP3   OH221038   4.790   1.247   4.878 -0.6275 -1.0362  0.0089
 7025TIP3    H121039   4.796   1.341   4.865 -0.5595 -1.0429 -0.0046
 7025TIP3    H221040   4.759   1.213   4.793 -2.7281 -0.7996  0.6064
 7026TIP3   OH221041   4.884   0.660   2.471 -0.4014 -0.2345 -0.6541
 7026TIP3    H121042   4.808   0.645   2.527  0.6074 -0.5145  0.6933
 7026TIP3    H221043   4.930   0.734   2.512  0.6164 -0.7634 -0.7983
 7027TIP3   OH221044   5.918   2.321   4.353  0.0758 -0.9349 -0.3034
 7027TIP3    H121045   5.863   2.339   4.428  0.3809  1.4231 -0.5700
 7027TIP3    H221046   5.857   2.302   4.282 -0.3111 -0.5641 -0.0723
 7028TIP3   OH221047   4.185   0.381   3.437  0.2227  0.0213 -0.4027
 7028TIP3    H121048   4.180   0.372   3.532  0.2686 -1.4389 -0.5161
 7028TIP3    H221049   4.207   0.473   3.423 -1.7651  0.7652  0.9171
 7029TIP3   OH221050   4.777   6.414   0.311 -0.5935  0.0701  0.4183
 7029TIP3    H121051   4.863   6.426   0.272 -1.4439  2.0904 -1.0165
 7029TIP3    H221052   4.786   6.337   0.367  1.8521 -0.3546 -0.4581
 7030TIP3   OH221053   1.561   2.781   1.589 -0.3566 -0.2394 -0.0403
 7030TIP3    H121054   1.500   2.820   1.527  0.4032 -1.6008 -1.7340
 7030TIP3    H221055   1.507   2.725   1.645 -1.0972  1.2761  0.8078
 7031TIP3   OH221056   0.950   3.505   3.159  0.2562  0.7242  0.0259
 7031TIP3    H121057   0.874   3.561   3.146 -0.4520 -0.0342  0.7371
 7031TIP3    H221058   0.913   3.419   3.178  1.3039 -0.3434 -2.3771
 7032TIP3   OH221059   1.468   5.775   4.868  0.1802  0.1902 -0.4026
 7032TIP3    H121060   1.539   5.805   4.810  0.9853  3.4199  1.9752
 7032TIP3    H221061   1.391   5.773   4.812  1.5155 -0.3152 -2.3395
 7033TIP3   OH221062   6.813   4.666   0.559 -0.2315 -0.1218  0.6065
 7033TIP3    H121063   6.888   4.723   0.543  0.9190 -1.2809  1.6252
 7033TIP3    H221064   6.849   4.594   0.611 -1.9018 -1.1036  0.4562
 7034TIP3   OH221065   3.490   3.511   2.365  0.1375  0.3382 -0.4545
 7034TIP3    H121066   3.550   3.438   2.382 -0.3222  0.1533  0.4249
 7034TIP3    H221067   3.462   3.540   2.452 -2.5236 -0.8162 -0.8390
 7035TIP3   OH221068   0.810   1.144   0.823 -0.1400 -0.3928  0.0000
 7035TIP3    H121069   0.791   1.070   0.765  1.8117 -1.4005  0.5858
 7035TIP3    H221070   0.792   1.221   0.768  0.5307 -1.3103 -1.5938
 7036TIP3   OH221071   6.907   5.042   1.159  0.4437 -0.0093 -0.1179
 7036TIP3    H121072   6.948   5.119   1.119 -0.4383  1.1881  1.2067
 7036TIP3    H221073   6.826   5.029   1.110 -0.1459  0.8466  0.6088
 7037TIP3   OH221074   5.597   0.762   1.383 -0.2269  0.0875 -0.1152
 7037TIP3    H121075   5.575   0.669   1.394  0.0903  0.1769  1.6842
 7037TIP3    H221076   5.677   0.762   1.331 -1.7008 -0.4777 -2.5196
 7038TIP3   OH221077   2.932   6.264   5.321 -0.0046 -0.1700  0.3301
 7038TIP3    H121078   3.021   6.249   5.288 -0.4777 -0.3288 -0.9448
 7038TIP3    H221079   2.929   6.218   5.405  0.4098 -2.1576 -0.6959
 7039TIP3   OH221080   1.859   0.364   1.090 -0.1047 -0.2788 -0.2691
 7039TIP3    H121081   1.843   0.414   1.010  1.2114 -0.2185 -0.5134
 7039TIP3    H221082   1.831   0.422   1.161  3.5413  1.9224 -0.3658
 7040TIP3   OH221083   0.447   0.732   2.416 -0.1648 -0.1466  0.1977
 7040TIP3    H121084   0.404   0.685   2.344 -0.6633  0.0068  0.3950
 7040TIP3    H221085   0.523   0.774   2.375  0.1452 -0.9030 -0.0377
 7041TIP3   OH221086   6.827   2.625   3.777  0.2333 -0.1394  0.2491
 7041TIP3    H121087   6.892   2.563   3.811  0.0439 -0.5583 -0.1336
 7041TIP3    H221088   6.868   2.710   3.786  0.6197 -0.3501  0.5178
 7042TIP3   OH221089   1.586   1.144   1.222 -0.8725 -0.3704 -0.2460
 7042TIP3    H121090   1.563   1.060   1.261 -2.3384 -0.7928 -1.8724
 7042TIP3    H221091   1.515   1.162   1.159  1.3771  0.1129 -2.8546
 7043TIP3   OH221092   3.651   5.145   1.713 -0.3774 -0.4160 -0.7264
 7043TIP3    H121093   3.724   5.202   1.738  0.1289 -1.5218  0.4467
 7043TIP3    H221094   3.578   5.204   1.700  0.3489  0.5838 -0.3872
 7044TIP3   OH221095   5.566   5.760   1.499  0.1391 -0.5999 -0.4054
 7044TIP3    H121096   5.479   5.799   1.491  0.6729  0.7927  0.3934
 7044TIP3    H221097   5.626   5.834   1.506  1.5025 -1.5018 -1.6933
 7045TIP3   OH221098   5.684   4.962   1.406  0.5517 -0.3002 -0.4221
 7045TIP3    H121099   5.684   5.029   1.474 -2.6821  1.0808 -1.5938
 7045TIP3    H221100   5.642   4.887   1.446 -0.4775  0.1861 -0.5537
 7046TIP3   OH221101   3.880   1.690   4.519 -0.6333  0.3287 -0.5766
 7046TIP3    H121102   3.958   1.691   4.464 -1.1891 -0.9647 -1.4384
 7046TIP3    H221103   3.883   1.606   4.564 -2.1830 -0.3341 -1.6342
 7047TIP3   OH221104   0.533   1.087   1.063 -0.1406 -0.2680  0.1602
 7047TIP3    H121105   0.590   1.117   0.991 -3.2007  2.3975 -1.4720
 7047TIP3    H221106   0.491   1.008   1.029  0.1987 -0.3998  0.0417
 7048TIP3   OH221107   5.590   5.648   0.858 -0.1372 -0.3107  0.2543
 7048TIP3    H121108   5.649   5.687   0.922  1.3805 -2.2370  0.1071
 7048TIP3    H221109   5.517   5.614   0.910 -0.5311  0.9586  0.5715
 7049TIP3   OH221110   6.357   3.070   3.127  0.6612 -0.7368  0.1257
 7049TIP3    H121111   6.403   2.986   3.130 -1.2090 -1.8014  2.2638
 7049TIP3    H221112   6.294   3.066   3.200  0.9905  2.8335  0.8032
 7050TIP3   OH221113   6.783   1.673   3.860  0.0101 -0.4894 -0.4291
 7050TIP3    H121114   6.757   1.610   3.928 -0.1920 -0.9106 -0.8861
 7050TIP3    H221115   6.827   1.619   3.794 -1.3882 -0.3951 -1.4914
 7051TIP3   OH221116   4.288   4.710   4.844 -0.1391  0.2695 -0.3069
 7051TIP3    H121117   4.255   4.674   4.926 -0.6172 -0.7537 -0.9284
 7051TIP3    H221118   4.254   4.652   4.777  3.1687 -1.1438 -0.9910
 7052TIP3   OH221119   5.988   1.138   4.413  0.5963  0.3048  0.2768
 7052TIP3    H121120   6.047   1.096   4.475 -1.2557  0.7168  2.4405
 7052TIP3    H221121   5.999   1.088   4.332  2.2638 -0.9789  1.2355
 7053TIP3   OH221122   6.056   5.072   3.356 -0.2132  0.1411 -0.2498
 7053TIP3    H121123   5.966   5.062   3.387  0.1332  1.4404  1.2875
 7053TIP3    H221124   6.085   4.982   3.338 -1.3337 -0.4343  0.6549
 7054TIP3   OH221125   4.709   1.745   5.742  0.1942  0.1227 -0.1043
 7054TIP3    H121126   4.771   1.695   5.796 -0.4058 -1.7588 -1.0781
 7054TIP3    H221127   4.633   1.757   5.799  0.3288 -0.1069  0.1280
 7055TIP3   OH221128   6.386   0.420   5.557  0.1414 -0.5115 -0.3338
 7055TIP3    H121129   6.404   0.464   5.640 -2.1061 -1.7415  0.9407
 7055TIP3    H221130   6.448   0.457   5.495  0.1758  2.4127  1.2618
 7056TIP3   OH221131   3.913   1.858   2.815 -0.4781 -0.1403 -0.1839
 7056TIP3    H121132   3.949   1.809   2.742  0.2314  1.3926 -0.8923
 7056TIP3    H221133   3.837   1.806   2.843 -0.2684 -1.1829 -1.4402
 7057TIP3   OH221134   1.829   1.092   3.022 -0.5626  0.0945 -0.0663
 7057TIP3    H121135   1.898   1.026   3.024  1.4090  2.0758  1.6468
 7057TIP3    H221136   1.780   1.077   3.103 -0.8827  0.0131 -0.2699
 7058TIP3   OH221137   3.171   1.657   0.610 -0.1760  0.3885  0.4898
 7058TIP3    H121138   3.131   1.589   0.556 -1.5079  0.7143  1.0104
 7058TIP3    H221139   3.210   1.718   0.547  1.1722 -0.9044  0.0266
 7059TIP3   OH221140   4.389   6.834   4.583  0.5704 -0.4114 -0.1163
 7059TIP3    H121141   4.442   6.770   4.535  1.1643  0.7190 -1.0122
 7059TIP3    H221142   4.302   6.793   4.587  1.2248 -1.8279  0.4614
 7060TIP3   OH221143   0.715   5.190   1.837  0.9220  0.3704 -0.5255
 7060TIP3    H121144   0.782   5.255   1.860  0.1215  0.7164  0.9353
 7060TIP3    H221145   0.636   5.242   1.822 -0.1148 -0.2729  2.1006
 7061TIP3   OH221146   4.995   5.732   5.823  0.2910 -0.0876 -0.4217
 7061TIP3    H121147   4.956   5.757   5.906  0.8474  1.7962 -0.6761
 7061TIP3    H221148   5.090   5.739   5.838  0.3886  1.1188 -1.4226
 7062TIP3   OH221149   0.957   3.467   2.574 -0.2171 -0.0390 -0.4523
 7062TIP3    H121150   1.000   3.405   2.515 -0.1736 -0.1392 -0.3149
 7062TIP3    H221151   0.983   3.440   2.661  3.3798  2.7461 -0.4298
 7063TIP3   OH221152   5.980   1.524   5.750  0.2391  0.3412  0.1847
 7063TIP3    H121153   5.895   1.567   5.742 -0.1781 -0.5669 -0.4446
 7063TIP3    H221154   5.984   1.496   5.841  1.4516  3.5235  1.2667
 7064TIP3   OH221155   2.487   6.122   1.887 -0.3675 -0.0823 -0.3848
 7064TIP3    H121156   2.424   6.050   1.890 -1.4798  0.8289 -1.0755
 7064TIP3    H221157   2.458   6.183   1.956 -0.1498  0.2615 -0.5905
 7065TIP3   OH221158   0.547   6.757   3.731  0.5436 -0.0594 -0.3546
 7065TIP3    H121159   0.560   6.777   3.824 -0.4623  0.6103 -0.3409
 7065TIP3    H221160   0.482   6.686   3.731  1.2603 -0.7261 -0.5265
 7066TIP3   OH221161   4.346   2.893   4.435 -0.1694  0.1380  0.4064
 7066TIP3    H121162   4.325   2.885   4.342  0.6231 -0.9920  0.3001
 7066TIP3    H221163   4.269   2.934   4.474 -0.1243  1.5213 -0.8922
 7067TIP3   OH221164   4.576   5.048   3.234 -0.3361 -0.1036 -0.0870
 7067TIP3    H121165   4.615   4.978   3.286  0.3067 -0.6557 -1.2848
 7067TIP3    H221166   4.489   5.061   3.273 -0.1570 -1.0191  0.6440
 7068TIP3   OH221167   2.393   2.639   3.953  0.1937  0.3118  0.0316
 7068TIP3    H121168   2.470   2.667   4.002 -0.2342 -0.1014  0.9703
 7068TIP3    H221169   2.421   2.561   3.906  0.8530  1.2004 -1.0857
 7069TIP3   OH221170   4.434   5.371   0.684  0.1828  0.2332 -0.3570
 7069TIP3    H121171   4.520   5.354   0.723  0.1108  0.7975  0.0501
 7069TIP3    H221172   4.374   5.313   0.732 -0.0065  1.3470  0.8062
 7070TIP3   OH221173   4.497   1.856   3.557  0.9515 -0.3332  0.2130
 7070TIP3    H121174   4.411   1.872   3.596  0.3105  0.7543 -1.5473
 7070TIP3    H221175   4.532   1.781   3.606 -1.2539 -1.2275  0.5345
 7071TIP3   OH221176   2.526   1.650   1.202  0.0332 -0.3778 -0.2046
 7071TIP3    H121177   2.555   1.741   1.209  0.1347 -0.3861 -0.5428
 7071TIP3    H221178   2.521   1.620   1.293  0.4430 -0.1735 -0.1134
 7072TIP3   OH221179   1.012   3.120   1.483 -0.4401 -0.4484  0.3208
 7072TIP3    H121180   1.070   3.158   1.417  1.2570 -0.0116  1.9823
 7072TIP3    H221181   1.012   3.184   1.555 -0.2596 -1.9996  1.7668
 7073TIP3   OH221182   4.639   6.755   1.244  0.0240  0.1793 -0.1932
 7073TIP3    H121183   4.685   6.829   1.283 -3.4764  2.1930  0.5539
 7073TIP3    H221184   4.646   6.685   1.310  1.1818  0.7061  0.2723
 7074TIP3   OH221185   5.121   4.456   3.002 -0.6653  0.0305 -0.3562
 7074TIP3    H121186   5.170   4.390   2.953 -1.4598  0.0594 -1.2321
 7074TIP3    H221187   5.146   4.539   2.963  0.1783  0.2405  0.6114
 7075TIP3   OH221188   1.696   4.673   2.756  0.2001 -0.6445 -0.0387
 7075TIP3    H121189   1.611   4.659   2.798  1.1412  0.6083  2.5239
 7075TIP3    H221190   1.680   4.743   2.692 -0.6570 -0.1312  0.7036
 7076TIP3   OH221191   1.353   0.864   0.560  0.3586 -0.3196  0.1834
 7076TIP3    H121192   1.375   0.862   0.467  0.6138 -0.1235  0.2389
 7076TIP3    H221193   1.314   0.950   0.574 -1.9779 -1.2452 -0.2528
 7077TIP3   OH221194   5.940   1.088   0.955 -0.2737  0.0848  0.6315
 7077TIP3    H121195   5.916   1.002   0.921 -0.9512  0.2485  0.6760
 7077TIP3    H221196   6.009   1.070   1.019 -1.8460 -0.6688  2.1951
 7078TIP3   OH221197   3.681   0.106   0.360 -0.8068 -0.3624 -0.0134
 7078TIP3    H121198   3.675   0.161   0.437  0.6791  0.5733 -0.5371
 7078TIP3    H221199   3.711   0.021   0.393 -2.1071 -0.5826  0.6616
 7079TIP3   OH221200   5.263   2.482   3.297  0.0752  0.5553  0.1407
 7079TIP3    H121201   5.267   2.482   3.393 -0.3608  1.7452  0.1726
 7079TIP3    H221202   5.343   2.438   3.270 -0.1386 -0.4510  1.0552
 7080TIP3   OH221203   2.186   2.463   3.847  0.1552  0.1736 -0.2097
 7080TIP3    H121204   2.207   2.493   3.936 -0.0830  1.5282 -0.5777
 7080TIP3    H221205   2.258   2.497   3.794  2.0396 -3.3100 -0.1571
 7081TIP3   OH221206   1.746   1.445   3.140 -0.3260 -0.3424 -0.1878
 7081TIP3    H121207   1.822   1.443   3.082  0.3349  1.1227  0.5832
 7081TIP3    H221208   1.771   1.393   3.216 -1.2219 -2.3304 -1.1790
 7082TIP3   OH221209   1.555   0.693   2.991  0.0189 -0.2140  0.4591
 7082TIP3    H121210   1.542   0.635   3.065 -0.2265  1.1544  1.5378
 7082TIP3    H221211   1.617   0.647   2.934  0.7438 -1.0036  1.8452
 7083TIP3   OH221212   4.871   0.782   0.139  0.5962  0.3209 -0.3222
 7083TIP3    H121213   4.902   0.743   0.058 -0.4842  0.7578 -0.9539
 7083TIP3    H221214   4.913   0.869   0.141  0.1449  0.5502 -0.7190
 7084TIP3   OH221215   2.609   5.772   1.882 -0.5282  0.3246 -0.2012
 7084TIP3    H121216   2.634   5.703   1.944  0.5505  0.7705 -0.1115
 7084TIP3    H221217   2.691   5.820   1.866 -1.4918  2.4231  0.7789
 7085TIP3   OH221218   5.990   0.430   3.755 -0.1941 -0.3980 -0.1197
 7085TIP3    H121219   6.033   0.515   3.742 -2.1634  0.6017 -0.5471
 7085TIP3    H221220   6.048   0.366   3.714  0.6245  0.9288 -1.1025
 7086TIP3   OH221221   6.202   4.008   2.198 -0.5582 -0.0289 -0.2852
 7086TIP3    H121222   6.135   3.973   2.257 -1.1747 -1.3146 -1.6779
 7086TIP3    H221223   6.268   4.045   2.256 -0.4469 -2.4897  1.3292
 7087TIP3   OH221224   5.058   1.115   0.787 -1.2398  0.3476 -0.1169
 7087TIP3    H121225   4.977   1.127   0.837  0.3019 -2.7524  3.5942
 7087TIP3    H221226   5.116   1.184   0.817 -0.6479 -0.9341  1.8703
 7088TIP3   OH221227   7.070   0.215   5.581  0.3121  0.4226  0.4465
 7088TIP3    H121228   6.992   0.269   5.588 -0.2499 -0.3994  0.6265
 7088TIP3    H221229   7.066   0.178   5.493  0.7946  0.8149  0.2546
 7089TIP3   OH221230   4.392   1.367   1.701  0.5741  0.1221  0.0998
 7089TIP3    H121231   4.340   1.431   1.652 -0.0004 -0.3130  0.1377
 7089TIP3    H221232   4.417   1.302   1.636 -1.0175 -0.9824  0.5491
 7090TIP3   OH221233   5.491   1.428   4.361  0.0032  0.5224  0.4382
 7090TIP3    H121234   5.432   1.429   4.436 -0.7512  0.2834 -0.1429
 7090TIP3    H221235   5.471   1.346   4.315 -0.1389  1.0663 -0.4944
 7091TIP3   OH221236   6.579   5.049   0.036 -0.1814 -0.0440  0.0963
 7091TIP3    H121237   6.623   4.991   0.099 -1.0912 -0.4230  0.4048
 7091TIP3    H221238   6.493   5.009   0.024  0.3516 -0.6165 -2.2623
 7092TIP3   OH221239   5.060   1.741   5.331 -0.2276 -0.3891  0.2697
 7092TIP3    H121240   5.087   1.652   5.352 -3.2966 -1.1408  1.5911
 7092TIP3    H221241   5.024   1.775   5.413 -0.3617  1.5699 -0.5511
 7093TIP3   OH221242   3.002   1.918   0.181  0.1623 -0.5616  0.0928
 7093TIP3    H121243   3.054   1.978   0.128 -1.2776 -0.5256 -1.3475
 7093TIP3    H221244   2.913   1.954   0.177  0.0534 -0.2551  3.0028
 7094TIP3   OH221245   2.424   3.470   0.416  0.2401 -0.3579 -0.5232
 7094TIP3    H121246   2.459   3.549   0.374 -0.9917 -0.6621 -2.2419
 7094TIP3    H221247   2.331   3.491   0.431 -0.0956 -1.4516 -0.9789
 7095TIP3   OH221248   0.845   6.053   1.131  0.0822  0.1014 -0.2732
 7095TIP3    H121249   0.863   6.129   1.187  2.0378  0.9591 -1.9159
 7095TIP3    H221250   0.762   6.074   1.088 -0.5643  0.2131  0.9730
 7096TIP3   OH221251   5.179   1.176   0.168  0.7287 -0.1397  0.0705
 7096TIP3    H121252   5.222   1.142   0.247 -1.0714 -0.6356  0.9087
 7096TIP3    H221253   5.088   1.146   0.176 -0.4148  2.8646 -0.3369
 7097TIP3   OH221254   1.406   3.631   5.610 -0.2795 -0.1243  0.0609
 7097TIP3    H121255   1.463   3.691   5.561 -0.5996  2.1520  2.2281
 7097TIP3    H221256   1.321   3.637   5.567  0.1334 -0.4576 -0.8214
 7098TIP3   OH221257   0.975   0.259   1.454 -0.1079 -0.4077 -0.1220
 7098TIP3    H121258   1.039   0.215   1.510  2.8265  1.0195 -2.0849
 7098TIP3    H221259   0.939   0.189   1.399  0.6133 -1.0853  0.2524
 7099TIP3   OH221260   5.586   3.828   4.542 -0.4309 -0.3450  0.0261
 7099TIP3    H121261   5.658   3.782   4.585 -0.2822  0.0147  0.1636
 7099TIP3    H221262   5.529   3.758   4.509 -0.1620 -0.6272  0.1570
 7100TIP3   OH221263   0.136   1.867   1.934  0.1404  0.2073 -0.3348
 7100TIP3    H121264   0.086   1.838   2.010  2.8697  0.9312  1.8993
 7100TIP3    H221265   0.216   1.813   1.936  1.5870  2.2233 -0.9094
 7101TIP3   OH221266   2.719   1.417   1.189  0.1054  0.1935  0.0129
 7101TIP3    H121267   2.769   1.422   1.108 -0.3153  1.5472 -0.1868
 7101TIP3    H221268   2.631   1.448   1.165 -0.6881 -1.5380  0.4929
 7102TIP3   OH221269   2.955   2.871   1.139  0.4271 -0.4170  0.1483
 7102TIP3    H121270   2.932   2.964   1.130  0.7250 -0.4175 -0.6168
 7102TIP3    H221271   2.962   2.839   1.049  0.7222 -1.0868  0.4079
 7103TIP3   OH221272   1.360   1.901   0.241 -0.5025  0.3137  0.1248
 7103TIP3    H121273   1.450   1.897   0.272  0.1435  0.1205 -1.6679
 7103TIP3    H221274   1.307   1.879   0.318  0.9792  0.0535  1.1128
 7104TIP3   OH221275   3.843   4.573   0.558 -0.6058 -0.7164 -0.3651
 7104TIP3    H121276   3.910   4.578   0.626 -0.9573 -1.0081  0.0045
 7104TIP3    H221277   3.798   4.657   0.563 -0.2258 -0.4920 -0.6614
 7105TIP3   OH221278   5.540   1.365   1.371  0.3010  0.0615  0.2122
 7105TIP3    H121279   5.610   1.392   1.429 -0.2437  0.4432  0.6991
 7105TIP3    H221280   5.501   1.289   1.415 -0.0221  0.2653  0.2789
 7106TIP3   OH221281   2.072   2.350   1.191 -0.3728 -0.6751 -0.0380
 7106TIP3    H121282   2.063   2.320   1.101  0.3999 -0.5095 -0.1735
 7106TIP3    H221283   2.136   2.290   1.231  0.4984  0.2123 -0.0597
 7107TIP3   OH221284   2.113   2.516   0.624 -0.5954 -0.2008  0.2646
 7107TIP3    H121285   2.067   2.599   0.620 -1.5029 -0.5955  1.6298
 7107TIP3    H221286   2.063   2.464   0.687 -0.5383 -2.0941 -1.1644
 7108TIP3   OH221287   2.270   2.335   1.621 -0.4915  0.3388 -0.1300
 7108TIP3    H121288   2.347   2.280   1.632 -0.7864 -0.7009 -2.5787
 7108TIP3    H221289   2.214   2.314   1.697  1.1434  0.3753  1.1391
 7109TIP3   OH221290   5.044   1.441   3.218  0.6618 -0.7631 -0.3447
 7109TIP3    H121291   5.046   1.350   3.190 -0.0660 -0.3423 -1.8779
 7109TIP3    H221292   5.099   1.488   3.155  1.8539 -0.2492  1.0048
 7110TIP3   OH221293   0.143   0.309   2.427  0.1342 -0.2419  0.3613
 7110TIP3    H121294   0.126   0.403   2.426  0.8970 -0.0949  0.5456
 7110TIP3    H221295   0.151   0.285   2.335  1.2234  0.1264  0.3467
 7111TIP3   OH221296   4.093   2.033   4.074  0.0612  0.4663  0.0334
 7111TIP3    H121297   4.041   1.963   4.115 -0.5066  0.4592 -0.6747
 7111TIP3    H221298   4.183   2.011   4.095 -0.1431 -0.2213  0.2234
 7112TIP3   OH221299   1.896   4.875   1.677 -0.1847 -0.4986  0.1290
 7112TIP3    H121300   1.987   4.900   1.693 -0.3374  0.0274  0.2044
 7112TIP3    H221301   1.897   4.837   1.589  0.0977 -0.4497  0.1106
 7113TIP3   OH221302   3.248   5.852   0.214 -0.2507  0.3631 -0.5879
 7113TIP3    H121303   3.207   5.898   0.287 -0.1403 -0.1016 -0.2293
 7113TIP3    H221304   3.308   5.790   0.255 -1.4375 -1.1118 -1.0003
 7114TIP3   OH221305   5.843   5.882   3.942 -0.1705  0.7878  0.8734
 7114TIP3    H121306   5.767   5.881   3.885 -0.7107  0.0615  1.5670
 7114TIP3    H221307   5.846   5.970   3.978  0.0449  1.1804 -0.0913
 7115TIP3   OH221308   4.325   4.015   0.258 -0.2588  0.0594 -0.1847
 7115TIP3    H121309   4.366   4.099   0.278 -0.5018  0.0896  0.2040
 7115TIP3    H221310   4.388   3.970   0.201 -0.3865  0.7369 -0.8698
 7116TIP3   OH221311   3.847   3.913   1.480 -0.5849  0.1326  0.5714
 7116TIP3    H121312   3.882   4.000   1.496  1.2645 -0.5537  0.4296
 7116TIP3    H221313   3.849   3.870   1.565  3.4627 -1.4566 -0.1464
 7117TIP3   OH221314   1.480   5.262   3.132 -0.2733  0.1949 -0.3562
 7117TIP3    H121315   1.563   5.220   3.157  0.4068  0.7020 -1.7148
 7117TIP3    H221316   1.505   5.344   3.091 -1.2223 -1.0661 -3.7429
 7118TIP3   OH221317   0.643   4.937   1.440  0.5239 -0.1800  0.2942
 7118TIP3    H121318   0.599   5.023   1.440  0.3761 -0.2549 -0.1215
 7118TIP3    H221319   0.672   4.926   1.530  1.8192  0.9637  0.0608
 7119TIP3   OH221320   3.405   0.261   2.047  0.0963 -0.2937  0.1390
 7119TIP3    H121321   3.315   0.229   2.056 -0.7355  1.8454  0.1415
 7119TIP3    H221322   3.422   0.257   1.953 -0.4220  0.2866  0.0109
 7120TIP3   OH221323   5.949   2.759   2.559 -0.5949 -0.0762 -0.5975
 7120TIP3    H121324   5.885   2.736   2.491 -1.9936  1.7369  0.0339
 7120TIP3    H221325   5.923   2.707   2.635 -0.5481 -0.2707 -0.7142
 7121TIP3   OH221326   5.347   2.204   3.457  0.3572  0.0552 -0.3259
 7121TIP3    H121327   5.262   2.176   3.491  1.1207 -1.5807  0.3684
 7121TIP3    H221328   5.369   2.138   3.391  1.3685  0.0545 -0.0095
 7122TIP3   OH221329   6.176   2.768   2.184 -0.0882  0.0530 -1.0264
 7122TIP3    H121330   6.124   2.824   2.241 -0.9646  0.1067 -1.8553
 7122TIP3    H221331   6.261   2.812   2.180 -0.7256  1.3039 -1.5926
 7123TIP3   OH221332   1.690   0.514   2.852  0.0283 -0.1980 -0.2436
 7123TIP3    H121333   1.779   0.478   2.850  0.7910  1.5829 -1.2415
 7123TIP3    H221334   1.646   0.474   2.778 -0.1194 -1.3195  0.4327
 7124TIP3   OH221335   6.978   3.629   3.130  0.5144 -0.2913  0.2603
 7124TIP3    H121336   6.906   3.659   3.075  0.3170 -1.2409 -0.0089
 7124TIP3    H221337   7.048   3.693   3.114  0.2422 -0.1995 -0.6269
 7125TIP3   OH221338   5.929   6.605   4.481 -0.2168  0.1537 -0.2069
 7125TIP3    H121339   5.936   6.539   4.550  0.7801 -0.0522 -0.4825
 7125TIP3    H221340   5.944   6.556   4.400  2.4382  0.9513 -0.3115
 7126TIP3   OH221341   3.044   4.338   4.064 -0.1875  0.6159  0.1198
 7126TIP3    H121342   2.956   4.353   4.030 -0.1202  0.3619 -0.1709
 7126TIP3    H221343   3.093   4.301   3.990  0.4687  1.7815 -0.0516
 7127TIP3   OH221344   4.140   0.334   2.066 -0.1141  0.3929  0.4520
 7127TIP3    H121345   4.125   0.384   1.986  3.2765 -0.1443 -0.6836
 7127TIP3    H221346   4.148   0.400   2.135  3.1530  1.4963 -0.8175
 7128TIP3   OH221347   3.570   3.480   2.813 -0.6766 -0.0824 -0.2249
 7128TIP3    H121348   3.532   3.423   2.880 -0.1237  0.1153  0.2607
 7128TIP3    H221349   3.625   3.422   2.761 -1.8655 -0.4363 -1.1302
 7129TIP3   OH221350   6.807   5.640   2.504 -0.6953  0.3827  0.2203
 7129TIP3    H121351   6.887   5.593   2.528 -0.3074  1.9564  2.2535
 7129TIP3    H221352   6.780   5.685   2.584 -1.5086  2.9125 -1.3445
 7130TIP3   OH221353   1.279   0.906   3.750 -0.6737 -0.9441  0.2819
 7130TIP3    H121354   1.374   0.901   3.741 -0.5810  1.3341 -0.7575
 7130TIP3    H221355   1.246   0.873   3.666 -0.5942  1.2757 -0.7127
 7131TIP3   OH221356   3.312   2.057   3.555  1.1352 -0.7233  0.2028
 7131TIP3    H121357   3.363   2.039   3.634 -0.9396 -0.2171  1.7704
 7131TIP3    H221358   3.222   2.036   3.580  0.2435  0.6486 -1.6275
 7132TIP3   OH221359   0.013   3.411   3.635 -0.5842 -0.0988 -0.2113
 7132TIP3    H121360  -0.031   3.487   3.674 -0.9495 -0.2791 -0.2674
 7132TIP3    H221361   0.106   3.431   3.642 -0.6847  1.3143 -2.0756
 7133TIP3   OH221362   1.882   1.058   1.137 -0.7379 -0.1036  0.5976
 7133TIP3    H121363   1.865   1.143   1.096 -0.2153 -0.0987  0.3815
 7133TIP3    H221364   1.977   1.056   1.149 -0.3975 -1.6488 -1.6529
 7134TIP3   OH221365   5.686   4.449   4.259 -0.4098 -0.1406 -0.3166
 7134TIP3    H121366   5.679   4.355   4.240  1.1049 -0.4893  0.7615
 7134TIP3    H221367   5.776   4.472   4.238 -0.0318  0.5053  1.8245
 7135TIP3   OH221368   6.902   0.607   3.330 -0.0407  0.9824 -0.0985
 7135TIP3    H121369   6.997   0.621   3.331  0.0715  0.3992 -1.0824
 7135TIP3    H221370   6.870   0.663   3.259 -0.4516  1.2291  0.2726
 7136TIP3   OH221371   0.546   4.653   4.055 -0.0335  0.4346  0.4322
 7136TIP3    H121372   0.565   4.663   4.148  1.0145  1.4036  0.1421
 7136TIP3    H221373   0.600   4.720   4.012 -0.5006  0.0136 -0.8683
 7137TIP3   OH221374   3.580   2.887   0.937 -0.2184  0.3705  0.1661
 7137TIP3    H121375   3.572   2.946   1.012 -0.9839  0.4487  0.0270
 7137TIP3    H221376   3.563   2.800   0.974 -1.6290  0.5114 -0.0834
 7138TIP3   OH221377   1.562   5.808   2.576 -0.3601 -0.4685  0.5679
 7138TIP3    H121378   1.501   5.736   2.595  0.4227 -0.6887  2.4478
 7138TIP3    H221379   1.622   5.808   2.650  3.3014 -1.6246 -2.1173
 7139TIP3   OH221380   3.768   6.688   3.012  0.5088  0.1730  0.0928
 7139TIP3    H121381   3.803   6.776   3.003  1.2811 -0.1704 -0.3605
 7139TIP3    H221382   3.843   6.636   3.042 -0.0610 -0.2345  0.8391
 7140TIP3   OH221383   6.578   1.000   4.805 -0.1912 -0.1748 -0.2008
 7140TIP3    H121384   6.562   1.048   4.886  0.6384 -0.4345  0.1314
 7140TIP3    H221385   6.497   1.009   4.755  0.1505  2.1161 -0.4464
 7141TIP3   OH221386   0.529   1.592   2.187 -0.3176  0.3131  0.3763
 7141TIP3    H121387   0.451   1.567   2.138  0.6473 -0.1181 -1.0211
 7141TIP3    H221388   0.566   1.509   2.218  0.1067  0.4178  0.1675
 7142TIP3   OH221389   1.524   2.954   1.982  0.3552  0.1846 -0.2111
 7142TIP3    H121390   1.556   2.901   2.055 -0.9065 -0.4098 -0.0623
 7142TIP3    H221391   1.438   2.917   1.961 -0.1899  1.6250 -0.6686
 7143TIP3   OH221392   2.506   4.911   1.833 -0.1112 -0.2000  0.3913
 7143TIP3    H121393   2.495   4.838   1.772  0.6411 -0.1080  0.1338
 7143TIP3    H221394   2.460   4.984   1.792  0.1634 -0.2102  0.0620
 7144TIP3   OH221395   0.512   0.713   5.252  0.4866  1.0434  0.0648
 7144TIP3    H121396   0.558   0.668   5.181 -1.4315  0.2576 -0.7451
 7144TIP3    H221397   0.516   0.653   5.326 -0.2714  0.4123 -0.3885
 7145TIP3   OH221398   2.447   5.174   1.665 -0.4236 -0.0160  0.0685
 7145TIP3    H121399   2.541   5.192   1.672  0.1839 -1.7339 -2.2911
 7145TIP3    H221400   2.409   5.257   1.634  0.3207  0.6365  0.8611
 7146TIP3   OH221401   5.358   6.265   1.785 -0.6357 -0.4135  0.5045
 7146TIP3    H121402   5.450   6.273   1.759 -0.4589 -3.2757 -0.0759
 7146TIP3    H221403   5.347   6.331   1.854  1.1378  1.6855 -1.0713
 7147TIP3   OH221404   0.872   4.565   3.528 -0.2371  0.0266 -0.1731
 7147TIP3    H121405   0.785   4.530   3.510  0.5445 -1.9841 -0.3394
 7147TIP3    H221406   0.905   4.591   3.442 -0.0314 -0.8208 -0.3547
 7148TIP3   OH221407   4.580   1.392   2.155 -0.3636  0.2665  0.1910
 7148TIP3    H121408   4.661   1.426   2.193  0.1829  0.0449 -0.7422
 7148TIP3    H221409   4.521   1.467   2.152  0.2211  0.7137 -0.2119
 7149TIP3   OH221410   1.644   2.052   0.693  0.1750 -0.2605 -0.0679
 7149TIP3    H121411   1.554   2.055   0.727  1.1890  1.8402  2.7948
 7149TIP3    H221412   1.682   1.974   0.734 -0.1685 -0.8920 -0.9198
 7150TIP3   OH221413   5.222   5.746   4.133 -0.0760 -0.5749 -0.4370
 7150TIP3    H121414   5.268   5.693   4.067 -0.2797 -1.9976  0.5127
 7150TIP3    H221415   5.165   5.683   4.178 -2.5199  1.0005 -1.1335
 7151TIP3   OH221416   2.054   2.969   1.808  0.6913  0.0556  0.3711
 7151TIP3    H121417   1.959   2.966   1.803  0.6634  0.7458  0.4191
 7151TIP3    H221418   2.077   3.059   1.784  1.3083 -0.0092  0.6981
 7152TIP3   OH221419   6.202   6.076   2.302 -0.5425 -0.5182 -0.4839
 7152TIP3    H121420   6.285   6.125   2.299 -0.1328 -1.1025  0.5617
 7152TIP3    H221421   6.141   6.137   2.343 -0.0540 -0.8107  0.7430
 7153TIP3   OH221422   5.523   3.960   1.846  0.5960  0.0135 -0.2920
 7153TIP3    H121423   5.524   3.992   1.936  0.3868 -1.1703  0.1408
 7153TIP3    H221424   5.615   3.952   1.822  0.6522  0.1746 -0.1315
 7154TIP3   OH221425   2.803   2.052   2.116  0.8683 -0.4801  0.1850
 7154TIP3    H121426   2.743   2.049   2.190  0.1204  3.6725 -0.0352
 7154TIP3    H221427   2.886   2.080   2.153  0.7571  0.6476 -0.3843
 7155TIP3   OH221428   4.915   5.905   1.386 -0.0606 -0.1900 -0.4196
 7155TIP3    H121429   4.826   5.904   1.422  0.0650  2.3398  0.1343
 7155TIP3    H221430   4.969   5.865   1.454 -0.4897  0.3519  0.2541
 7156TIP3   OH221431   2.758   1.520   3.061 -0.0471 -0.3492  1.2278
 7156TIP3    H121432   2.831   1.486   3.113  0.5543 -2.7288 -0.9237
 7156TIP3    H221433   2.779   1.494   2.971 -1.5108  2.6513 -0.1326
 7157TIP3   OH221434   4.896   3.102   1.618  0.1245 -0.0024 -0.1438
 7157TIP3    H121435   4.829   3.034   1.620  0.0643  0.0545  1.7510
 7157TIP3    H221436   4.878   3.151   1.538 -0.6214 -1.4180 -0.8853
 7158TIP3   OH221437   4.534   1.172   4.286  0.8480  0.6087 -0.5122
 7158TIP3    H121438   4.519   1.091   4.335  1.1029  0.5421 -0.5435
 7158TIP3    H221439   4.471   1.169   4.215  2.0170 -0.4174 -1.5573
 7159TIP3   OH221440   5.348   1.014   3.448  0.2353 -0.2497 -0.7676
 7159TIP3    H121441   5.267   1.008   3.498 -0.0555  0.5752 -1.1147
 7159TIP3    H221442   5.411   0.961   3.497 -0.8245 -1.9720 -1.1857
 7160TIP3   OH221443   4.219   1.194   5.126 -0.8249  0.3308  0.1019
 7160TIP3    H121444   4.257   1.156   5.205 -1.7266  0.9089  0.8377
 7160TIP3    H221445   4.200   1.119   5.070  0.2359 -0.0518  0.2356
 7161TIP3   OH221446   0.852   5.099   2.750  0.1250  0.2095 -0.0277
 7161TIP3    H121447   0.826   5.115   2.841  0.9948  1.5999  0.0140
 7161TIP3    H221448   0.881   5.185   2.719  0.9733 -0.4962 -1.2473
 7162TIP3   OH221449   1.509   0.681   1.105  0.2257 -0.3117 -0.1507
 7162TIP3    H121450   1.544   0.728   1.029 -0.2111  0.8623  0.3529
 7162TIP3    H221451   1.587   0.649   1.151  0.4874 -1.6706 -1.4460
 7163TIP3   OH221452   4.536   2.551   1.356 -0.8883 -0.0277  0.2094
 7163TIP3    H121453   4.594   2.597   1.416  1.0907 -0.6654 -1.1313
 7163TIP3    H221454   4.475   2.505   1.414  0.9842 -0.6858  1.7806
 7164TIP3   OH221455   3.036   1.003   0.190 -0.4915 -0.1115  0.0040
 7164TIP3    H121456   3.034   1.091   0.153 -3.1130 -0.0563  0.0880
 7164TIP3    H221457   3.051   1.017   0.283  3.0440 -0.0870 -0.4089
 7165TIP3   OH221458   1.809   2.159   5.390 -0.3789 -0.5565 -0.2291
 7165TIP3    H121459   1.728   2.200   5.358 -1.3418 -2.5236 -0.4773
 7165TIP3    H221460   1.798   2.066   5.370  1.1755 -1.1395  1.3705
 7166TIP3   OH221461   2.661   3.436   1.063  0.4994 -0.1698 -0.0591
 7166TIP3    H121462   2.709   3.426   1.145  1.1298 -0.9624 -0.5149
 7166TIP3    H221463   2.632   3.348   1.040 -1.6699  0.3447  0.4701
 7167TIP3   OH221464   0.517   0.611   1.757  0.2801  0.2845  0.5700
 7167TIP3    H121465   0.454   0.597   1.827  0.7891  0.1131  0.9909
 7167TIP3    H221466   0.577   0.537   1.761 -0.3785 -0.3704 -0.8098
 7168TIP3   OH221467   6.767   1.129   4.645  0.2014  0.1880  0.0146
 7168TIP3    H121468   6.715   1.058   4.682  0.6101 -0.2871 -0.3080
 7168TIP3    H221469   6.702   1.192   4.613 -0.1787  1.0508  2.2994
 7169TIP3   OH221470   4.989   5.209   0.685  0.1847  0.6300 -0.0790
 7169TIP3    H121471   4.957   5.122   0.707  0.9792  0.4722  0.5371
 7169TIP3    H221472   5.027   5.242   0.767 -0.1155  1.5606 -0.2975
 7170TIP3   OH221473   0.709   6.749   4.592  0.0782  0.4221  0.4074
 7170TIP3    H121474   0.751   6.731   4.508 -1.2890  1.3992 -0.5345
 7170TIP3    H221475   0.657   6.671   4.611 -0.3305  0.5670 -0.1192
 7171TIP3   OH221476   5.086   1.737   0.937 -0.2542  0.3921 -0.5293
 7171TIP3    H121477   5.029   1.786   0.996 -0.7192  0.0609 -0.6956
 7171TIP3    H221478   5.173   1.774   0.951 -0.2703  0.0097  0.7059
 7172TIP3   OH221479   3.076   6.186   4.641  0.4221 -0.5151 -0.0237
 7172TIP3    H121480   2.994   6.148   4.672 -0.4291 -0.6109 -2.2559
 7172TIP3    H221481   3.069   6.279   4.662 -0.9545 -0.2429 -1.4868
 7173TIP3   OH221482   2.178   0.070   4.804 -0.1206 -0.0249 -0.4810
 7173TIP3    H121483   2.249   0.135   4.808 -0.3055  0.1093  2.0112
 7173TIP3    H221484   2.218  -0.011   4.835 -0.7633 -0.2365 -0.2016
 7174TIP3   OH221485   4.155   3.461   4.021  0.4925  0.2102 -0.0884
 7174TIP3    H121486   4.161   3.373   4.060 -0.9517  0.5359  0.9842
 7174TIP3    H221487   4.106   3.448   3.940  0.6466 -0.0439 -0.1402
 7175TIP3   OH221488   6.550   0.213   1.064  0.0576  0.2745 -0.1831
 7175TIP3    H121489   6.574   0.219   1.157  1.7065  1.6619 -0.6488
 7175TIP3    H221490   6.503   0.295   1.047  0.4536  0.3794 -0.7599
 7176TIP3   OH221491   6.438   3.619   4.889  0.2369  0.6669  0.4272
 7176TIP3    H121492   6.509   3.644   4.949  0.8193 -0.3981  0.2106
 7176TIP3    H221493   6.361   3.666   4.921  0.2475 -0.7413  2.7062
 7177TIP3   OH221494   5.289   3.659   0.733  0.1526 -0.6812 -0.0985
 7177TIP3    H121495   5.239   3.601   0.790  0.9421  0.0816  1.4378
 7177TIP3    H221496   5.266   3.747   0.762 -0.8886 -0.1597 -2.2672
 7178TIP3   OH221497   2.825   6.679   3.550  0.1007 -0.1515 -0.1129
 7178TIP3    H121498   2.823   6.770   3.521  0.6346 -0.2623 -0.5248
 7178TIP3    H221499   2.828   6.684   3.645  0.6553  0.2778 -0.1479
 7179TIP3   OH221500   0.080   3.886   3.689 -0.0168 -0.5352  0.4565
 7179TIP3    H121501   0.063   3.958   3.751 -1.3104 -0.5742  0.1806
 7179TIP3    H221502   0.175   3.881   3.683  0.1730 -0.7723  2.7304
 7180TIP3   OH221503   5.644   0.034   2.852  0.0603  0.5627  0.3980
 7180TIP3    H121504   5.630  -0.057   2.826 -0.2929  0.2879  1.4763
 7180TIP3    H221505   5.559   0.076   2.843  0.3402  0.9297 -0.6022
 7181TIP3   OH221506   4.007   2.786   2.827  1.0670 -0.3345 -0.7655
 7181TIP3    H121507   3.933   2.750   2.875  1.5023 -0.0511  0.1608
 7181TIP3    H221508   3.969   2.850   2.768  0.2966 -2.1589 -2.3439
 7182TIP3   OH221509   4.301   3.895   2.430  0.0019  0.1036  0.5619
 7182TIP3    H121510   4.301   3.807   2.393 -0.4969  1.2815 -2.5308
 7182TIP3    H221511   4.392   3.912   2.454  0.5308 -0.4516 -0.9762
 7183TIP3   OH221512   0.651   6.182   3.603 -0.1535  0.3711 -0.1500
 7183TIP3    H121513   0.701   6.126   3.544 -1.3013 -1.5430  0.6065
 7183TIP3    H221514   0.561   6.152   3.595 -0.6504  1.4167  1.0838
 7184TIP3   OH221515   2.505   4.165   5.517  0.2051 -0.1234  0.1922
 7184TIP3    H121516   2.564   4.116   5.575  0.7730 -0.1463 -0.3921
 7184TIP3    H221517   2.482   4.102   5.449 -1.3566 -0.4445  0.9719
 7185TIP3   OH221518   3.595   2.554   0.457 -0.2842  0.0129  0.6637
 7185TIP3    H121519   3.529   2.554   0.526 -0.7087 -1.0047  0.2593
 7185TIP3    H221520   3.581   2.636   0.410 -2.2867 -0.8904 -0.3925
 7186TIP3   OH221521   0.154   2.854   5.361  0.0226  0.3706 -0.3791
 7186TIP3    H121522   0.186   2.766   5.344  0.3041  0.5062 -0.5700
 7186TIP3    H221523   0.158   2.898   5.276 -0.0665  0.5812 -0.2753
 7187TIP3   OH221524   2.731   5.457   2.268 -0.5170  0.2171  0.0071
 7187TIP3    H121525   2.789   5.414   2.331 -0.8282 -1.4724 -0.7874
 7187TIP3    H221526   2.645   5.417   2.283 -0.4473 -0.8189 -1.9196
 7188TIP3   OH221527   4.580   0.481   1.730  0.7263  0.8413  0.3199
 7188TIP3    H121528   4.664   0.459   1.691  0.3580  0.2285 -0.1350
 7188TIP3    H221529   4.516   0.466   1.661  0.1936  0.8822  0.7949
 7189TIP3   OH221530   5.145   0.604   2.314  0.1640  0.1434 -0.3084
 7189TIP3    H121531   5.133   0.682   2.369  0.5749  0.3942 -0.5646
 7189TIP3    H221532   5.208   0.551   2.363  1.5691  0.9836 -1.1446
 7190TIP3   OH221533   1.652   6.634   0.988  0.1137  0.0013 -0.3272
 7190TIP3    H121534   1.634   6.711   1.041  1.1573 -0.4681  0.7591
 7190TIP3    H221535   1.746   6.640   0.969  0.0640 -0.6552 -0.8039
 7191TIP3   OH221536   4.573   1.659   0.383 -0.4654 -0.2327  0.0419
 7191TIP3    H121537   4.621   1.737   0.412 -0.5553 -0.1290 -0.0854
 7191TIP3    H221538   4.600   1.647   0.292 -0.5110 -0.3061  0.0381
 7192TIP3   OH221539   5.925   3.679   4.462 -0.0771  0.1659  0.1176
 7192TIP3    H121540   6.017   3.657   4.470  0.2420  0.9859 -1.0255
 7192TIP3    H221541   5.888   3.610   4.406  0.2670  0.8265 -0.9607
 7193TIP3   OH221542   5.861   0.295   5.299  0.0114 -0.0281  0.5181
 7193TIP3    H121543   5.776   0.285   5.255 -0.7002 -1.5729  2.0854
 7193TIP3    H221544   5.847   0.254   5.385  2.5462 -0.8865  0.5830
 7194TIP3   OH221545   3.337   6.078   5.405 -0.4429 -0.0020  0.1997
 7194TIP3    H121546   3.431   6.063   5.399 -0.2263  1.7205 -3.9035
 7194TIP3    H221547   3.329   6.162   5.451 -0.0436 -0.2344  0.7154
 7195TIP3   OH221548   3.902   0.503   1.034 -0.7559 -0.6717  0.2494
 7195TIP3    H121549   3.966   0.575   1.031  1.5646 -2.4976  1.8640
 7195TIP3    H221550   3.837   0.532   1.098 -0.5740  0.4976 -0.0600
 7196TIP3   OH221551   3.474   3.496   4.835 -0.3211 -0.2207 -0.1850
 7196TIP3    H121552   3.399   3.550   4.809 -1.7360 -2.1055 -0.1827
 7196TIP3    H221553   3.443   3.406   4.829  1.9715 -1.0827 -0.1979
 7197TIP3   OH221554   2.266   4.216   4.184 -0.0692  0.2273 -0.6519
 7197TIP3    H121555   2.196   4.151   4.182  1.0235 -1.1083  0.8815
 7197TIP3    H221556   2.341   4.169   4.223  0.6735  2.4972  0.9140
 7198TIP3   OH221557   5.278   4.749   0.933  0.2301  0.5300  0.3218
 7198TIP3    H121558   5.288   4.732   0.840 -0.4632  0.2704  0.2948
 7198TIP3    H221559   5.294   4.843   0.942 -2.6663  1.1905 -0.5101
 7199TIP3   OH221560   4.768   0.537   5.357  0.2892  0.2438  0.2437
 7199TIP3    H121561   4.679   0.567   5.337  0.2181 -0.1209 -0.0019
 7199TIP3    H221562   4.773   0.449   5.318  0.2457 -0.3638  1.5563
 7200TIP3   OH221563   1.560   5.766   0.366  0.8937 -0.0930 -0.0521
 7200TIP3    H121564   1.597   5.829   0.427  0.5007 -2.0071  2.3208
 7200TIP3    H221565   1.633   5.740   0.310  0.8744  2.9801 -1.6657
 7201TIP3   OH221566   2.093   3.689   4.831  0.8231 -0.3159 -0.5406
 7201TIP3    H121567   2.127   3.640   4.756  0.2101  0.4302 -1.3221
 7201TIP3    H221568   2.002   3.708   4.809  0.5106 -0.4078  0.5709
 7202TIP3   OH221569   2.000   3.765   2.955  0.4120  0.3077 -0.4620
 7202TIP3    H121570   2.069   3.704   2.927 -0.2744 -1.5935  1.6762
 7202TIP3    H221571   2.014   3.775   3.049 -0.6219  2.0501 -0.4647
 7203TIP3   OH221572   2.082   5.826   0.922 -0.8787  0.3537 -0.0817
 7203TIP3    H121573   2.105   5.814   0.830  1.1903 -1.5649  0.6085
 7203TIP3    H221574   2.117   5.748   0.966 -2.7536  0.6883  2.1908
 7204TIP3   OH221575   6.734   3.842   3.841  0.4308  0.0419 -0.1797
 7204TIP3    H121576   6.704   3.761   3.884  1.0202 -0.8794 -1.4406
 7204TIP3    H221577   6.682   3.911   3.882 -2.2185 -1.2966 -1.0815
 7205TIP3   OH221578   3.604   5.359   2.247  0.0550 -0.0597 -0.5205
 7205TIP3    H121579   3.598   5.267   2.273  2.3198  0.0028  0.4608
 7205TIP3    H221580   3.604   5.358   2.152  0.9881 -1.1834 -0.5237
 7206TIP3   OH221581   0.964   1.784   4.249 -0.0477 -0.3023  0.5931
 7206TIP3    H121582   0.999   1.695   4.251  0.6097 -0.1904 -2.0033
 7206TIP3    H221583   0.874   1.774   4.217  0.3689  0.0017 -0.7354
 7207TIP3   OH221584   4.190   1.022   3.051  0.0008  0.0539  0.4920
 7207TIP3    H121585   4.158   1.003   3.139  0.2658 -2.0540  0.1888
 7207TIP3    H221586   4.112   1.047   3.002 -0.4600 -0.6206  0.8638
 7208TIP3   OH221587   6.609   5.139   5.107 -0.2047  0.5382 -0.0840
 7208TIP3    H121588   6.599   5.110   5.198 -1.3811  2.0262  0.2938
 7208TIP3    H221589   6.555   5.218   5.101 -0.1711  0.4432 -2.0980
 7209TIP3   OH221590   3.629   5.233   4.166  0.1781  0.0470 -0.9975
 7209TIP3    H121591   3.679   5.215   4.086  0.8485  0.0847 -0.5996
 7209TIP3    H221592   3.591   5.319   4.152  1.4990  0.7134 -0.7063
 7210TIP3   OH221593   6.087   3.213   4.710  0.6314 -0.0010  0.1936
 7210TIP3    H121594   6.038   3.293   4.729  1.9645  1.0216 -0.5121
 7210TIP3    H221595   6.021   3.153   4.674 -0.6958  0.1729  2.2006
 7211TIP3   OH221596   4.501   5.675   2.763  0.2228  0.5872 -0.0709
 7211TIP3    H121597   4.535   5.657   2.851  1.4989  1.0782 -0.4299
 7211TIP3    H221598   4.573   5.720   2.719 -0.8853  1.5840 -0.9293
 7212TIP3   OH221599   6.714   0.446   1.902  0.3553 -0.3524  0.1427
 7212TIP3    H121600   6.722   0.481   1.813  0.6851 -1.1564 -0.1517
 7212TIP3    H221601   6.630   0.399   1.902  0.3165 -0.2847  0.2828
 7213TIP3   OH221602   4.766   0.331   3.128 -0.0831  0.1536  0.2572
 7213TIP3    H121603   4.817   0.251   3.140 -0.1541 -0.0019 -0.4200
 7213TIP3    H221604   4.761   0.342   3.033 -1.6327 -0.0479  0.2884
 7214TIP3   OH221605   6.005   4.333   5.528  0.1827  0.3001 -0.1175
 7214TIP3    H121606   5.922   4.311   5.570 -0.5577  0.3808 -1.4995
 7214TIP3    H221607   6.057   4.253   5.536 -1.0541 -0.7136 -1.6473
 7215TIP3   OH221608   1.136   5.091   2.004 -0.2026  0.1026 -0.0068
 7215TIP3    H121609   1.080   5.163   1.975 -1.0420 -0.5512 -0.0521
 7215TIP3    H221610   1.129   5.092   2.099 -1.2368 -0.6850 -0.0505
 7216TIP3   OH221611   6.010   4.019   0.180  0.7598  0.2585  0.0323
 7216TIP3    H121612   5.990   3.927   0.166  0.2023  0.2644  0.7299
 7216TIP3    H221613   6.098   4.020   0.218  1.1820  0.0842 -0.9212
 7217TIP3   OH221614   2.047   4.999   4.470 -0.0152  0.0901 -0.3398
 7217TIP3    H121615   2.039   5.089   4.501  1.0671 -0.4453  1.6949
 7217TIP3    H221616   2.001   4.947   4.536  0.2002 -0.9262 -0.9700
 7218TIP3   OH221617   5.737   1.244   0.588  0.1915 -0.1418  0.1959
 7218TIP3    H121618   5.772   1.176   0.645  0.5165  1.0105  1.4183
 7218TIP3    H221619   5.740   1.324   0.641 -0.0302  0.8630 -1.2523
 7219TIP3   OH221620   7.053   2.004   4.809  0.2653 -0.1888  0.1651
 7219TIP3    H121621   7.139   1.979   4.773 -0.1527 -1.0618 -0.2634
 7219TIP3    H221622   7.010   1.921   4.827 -1.1544  0.2083 -1.2076
 7220TIP3   OH221623   0.761   0.260   1.648  0.4529  0.0260 -0.7131
 7220TIP3    H121624   0.727   0.332   1.595 -1.0115 -0.8072 -0.9894
 7220TIP3    H221625   0.836   0.227   1.599  1.0886  1.2770 -0.6257
 7221TIP3   OH221626   1.070   4.230   0.996 -0.3740  0.2689  0.1113
 7221TIP3    H121627   1.073   4.325   1.008  0.0243  0.2413  0.2519
 7221TIP3    H221628   1.161   4.201   1.006 -0.1907  0.0877 -1.7460
 7222TIP3   OH221629   1.202   6.175   1.337 -0.2000 -0.1796 -0.2251
 7222TIP3    H121630   1.260   6.203   1.266 -1.0224  0.4912 -0.6486
 7222TIP3    H221631   1.251   6.106   1.382  0.8635  0.2722 -0.6531
 7223TIP3   OH221632   3.927   4.189   3.137  0.0271 -0.1659  0.4737
 7223TIP3    H121633   3.967   4.261   3.088 -0.8165  0.2579  0.3917
 7223TIP3    H221634   3.914   4.223   3.225  0.1115 -0.4037  0.5811
 7224TIP3   OH221635   0.740   0.515   3.293 -0.9493 -0.1980  0.6484
 7224TIP3    H121636   0.795   0.592   3.309  0.5489 -1.1947  0.4917
 7224TIP3    H221637   0.788   0.443   3.335 -1.4481 -1.3352 -0.6923
 7225TIP3   OH221638   0.171   3.706   0.631  0.1504  0.2422 -0.6724
 7225TIP3    H121639   0.146   3.713   0.723 -0.7416 -0.5083 -0.8392
 7225TIP3    H221640   0.130   3.625   0.601  0.5785  0.3830 -1.6867
 7226TIP3   OH221641   2.252   4.357   2.050  0.7982 -0.5421  0.3348
 7226TIP3    H121642   2.239   4.409   2.130 -2.9592  0.0523 -0.4522
 7226TIP3    H221643   2.217   4.271   2.072  0.2084 -0.5206 -0.4613
 7227TIP3   OH221644   4.097   6.676   0.792 -0.2683 -0.4700  0.0283
 7227TIP3    H121645   4.109   6.624   0.872 -2.0537  0.5091  0.9891
 7227TIP3    H221646   4.182   6.670   0.748  0.8138 -0.9975  2.0149
 7228TIP3   OH221647   3.017   2.519   0.663  0.2210  0.0634  0.5160
 7228TIP3    H121648   2.980   2.558   0.742 -1.2994  0.5676 -0.3819
 7228TIP3    H221649   3.000   2.425   0.672 -0.1140  0.1414  0.7096
 7229TIP3   OH221650   3.112   4.063   2.268  0.3555  0.3556 -0.6799
 7229TIP3    H121651   3.111   4.021   2.181 -0.9822  1.3737 -1.1995
 7229TIP3    H221652   3.033   4.031   2.310  1.1077 -0.2924  0.2724
 7230TIP3   OH221653   4.761   5.615   5.001 -0.2258  0.2252 -0.4588
 7230TIP3    H121654   4.693   5.665   4.956 -0.5714 -0.5433 -0.8167
 7230TIP3    H221655   4.799   5.559   4.933  0.4898  0.3535 -0.1752
 7231TIP3   OH221656   5.031   5.628   2.496  0.1910 -0.5287 -0.4239
 7231TIP3    H121657   5.083   5.585   2.428 -1.3159  1.2965 -2.8996
 7231TIP3    H221658   5.082   5.706   2.519  0.0432 -0.4026 -0.5213
 7232TIP3   OH221659   4.728   3.295   5.401 -0.2743 -0.0153 -0.7948
 7232TIP3    H121660   4.736   3.390   5.396 -1.5615  0.0502 -2.9902
 7232TIP3    H221661   4.679   3.271   5.322 -0.7821 -2.4163  0.1709
 7233TIP3   OH221662   6.451   2.755   2.174  0.2392  0.9120 -0.2648
 7233TIP3    H121663   6.505   2.680   2.148 -2.3057 -0.7847 -1.0229
 7233TIP3    H221664   6.473   2.824   2.111  0.8008 -0.0511 -1.1450
 7234TIP3   OH221665   6.606   3.753   1.339  0.0812 -0.2199  0.3403
 7234TIP3    H121666   6.567   3.836   1.364  0.4307  0.3547 -0.9341
 7234TIP3    H221667   6.577   3.739   1.249  1.1936 -0.7521  0.0397
 7235TIP3   OH221668   6.602   5.449   2.360 -0.0650 -0.0690  0.1660
 7235TIP3    H121669   6.528   5.507   2.379  0.5561  1.0003 -0.5947
 7235TIP3    H221670   6.676   5.507   2.345  0.7181 -1.0871 -0.0793
 7236TIP3   OH221671   5.879   5.508   3.317 -0.3192  0.2437  0.3963
 7236TIP3    H121672   5.907   5.443   3.254  1.0981  0.2199  1.0056
 7236TIP3    H221673   5.936   5.494   3.393 -1.1425  1.0705  1.1984
 7237TIP3   OH221674   2.703   4.644   2.125 -0.7042  0.5885  0.2792
 7237TIP3    H121675   2.711   4.594   2.207 -2.5392 -0.5482 -0.1614
 7237TIP3    H221676   2.761   4.599   2.064 -0.2035  0.7301  0.6475
 7238TIP3   OH221677   5.919   2.149   4.750 -0.4185  0.2334 -0.7694
 7238TIP3    H121678   5.843   2.094   4.730  0.4179 -1.8221  1.2672
 7238TIP3    H221679   5.980   2.131   4.678 -0.4995 -0.9386 -0.5775
 7239TIP3   OH221680   4.826   0.972   3.478  0.6484  0.0063  0.0955
 7239TIP3    H121681   4.733   0.949   3.487  0.5075 -0.1996 -1.4976
 7239TIP3    H221682   4.871   0.889   3.468  1.0214  0.1051  0.8859
 7240TIP3   OH221683   3.843   5.338   1.814  0.3237 -0.2340  0.0577
 7240TIP3    H121684   3.899   5.408   1.847 -1.9688  0.7853  2.0042
 7240TIP3    H221685   3.891   5.258   1.835  0.3043  0.5109  3.4079
 7241TIP3   OH221686   4.142   0.985   0.126 -0.0116  0.2859 -0.6063
 7241TIP3    H121687   4.108   0.911   0.075 -0.6271  0.3624 -0.3211
 7241TIP3    H221688   4.204   1.028   0.067  0.0617 -0.2297 -0.9162
 7242TIP3   OH221689   4.414   1.640   1.287 -0.0485 -0.0920 -0.3707
 7242TIP3    H121690   4.401   1.546   1.277  1.5368 -0.4475  0.5964
 7242TIP3    H221691   4.326   1.675   1.302 -1.0630 -0.9990 -3.3653
 7243TIP3   OH221692   7.112   3.967   5.831 -0.5338  0.3130  0.3860
 7243TIP3    H121693   7.190   3.997   5.879  1.9504 -0.6384 -2.7457
 7243TIP3    H221694   7.076   4.047   5.794 -0.0574  0.5868  0.4953
 7244TIP3   OH221695   6.525   1.361   5.500 -0.3075  0.1995  0.0050
 7244TIP3    H121696   6.439   1.398   5.481 -0.4697 -0.9084 -1.6429
 7244TIP3    H221697   6.556   1.327   5.416  0.9734 -0.9857  0.8996
 7245TIP3   OH221698   1.782   3.792   5.366 -0.1004 -0.3782 -0.0432
 7245TIP3    H121699   1.793   3.887   5.365  1.1412 -0.4840  0.7640
 7245TIP3    H221700   1.688   3.778   5.360 -0.2409  0.8673 -1.2696
 7246TIP3   OH221701   6.514   0.175   0.250 -0.1250 -0.0214 -0.1515
 7246TIP3    H121702   6.487   0.200   0.162 -1.1892 -1.8412 -0.3995
 7246TIP3    H221703   6.449   0.110   0.277 -0.4405  1.2348  2.4029
 7247TIP3   OH221704   1.538   3.661   3.891 -0.3907 -0.4902 -0.0997
 7247TIP3    H121705   1.579   3.664   3.977 -2.1973  0.5506  0.7887
 7247TIP3    H221706   1.606   3.693   3.831  0.8789 -1.1765  0.9185
 7248TIP3   OH221707   6.575   6.571   4.693  0.4645 -0.0827  0.3414
 7248TIP3    H121708   6.638   6.637   4.721  0.1138  1.1134 -1.5340
 7248TIP3    H221709   6.626   6.489   4.693  1.3140  0.4179  1.2563
 7249TIP3   OH221710   1.683   2.776   0.141  0.0672 -0.1442 -0.0016
 7249TIP3    H121711   1.596   2.740   0.123 -0.0026 -0.1729  0.3880
 7249TIP3    H221712   1.707   2.821   0.060 -0.7053  0.6579  0.1908
 7250TIP3   OH221713   3.808   6.301   1.559  0.0768  0.7336 -0.5017
 7250TIP3    H121714   3.737   6.300   1.495  1.1388  0.0382 -1.7122
 7250TIP3    H221715   3.769   6.264   1.639 -0.6300 -0.7694 -1.4928
 7251TIP3   OH221716   5.918   5.287   5.313 -0.1376 -0.0181  0.1723
 7251TIP3    H121717   6.002   5.317   5.349  0.3166 -0.9149 -0.0894
 7251TIP3    H221718   5.860   5.280   5.389  0.3568 -0.4189  0.5202
 7252TIP3   OH221719   3.886   4.180   3.828 -0.2592 -0.0945  0.2693
 7252TIP3    H121720   3.879   4.204   3.920 -0.5769  0.8346  0.0156
 7252TIP3    H221721   3.835   4.099   3.820  1.7358 -1.5429  1.3616
 7253TIP3   OH221722   2.122   5.227   3.479 -0.1204  0.0713  0.0981
 7253TIP3    H121723   2.194   5.248   3.539 -0.4118  0.4013  0.3331
 7253TIP3    H221724   2.152   5.259   3.394 -0.3311  0.9434  0.3522
 7254TIP3   OH221725   7.120   6.391   0.523 -0.5272 -0.2524 -0.3262
 7254TIP3    H121726   7.180   6.352   0.459 -0.8484 -1.7577  0.2403
 7254TIP3    H221727   7.035   6.389   0.481 -0.5635 -0.2900 -0.2512
 7255TIP3   OH221728   1.317   3.020   2.415  0.1373 -0.0562  0.6418
 7255TIP3    H121729   1.268   3.053   2.339 -0.2757 -1.1571  0.4067
 7255TIP3    H221730   1.336   3.098   2.467 -0.1244  0.6399 -0.2779
 7256TIP3   OH221731   5.669   0.416   3.362  0.7524 -0.7475  0.3985
 7256TIP3    H121732   5.744   0.475   3.369  0.1500  0.0086  0.6485
 7256TIP3    H221733   5.655   0.405   3.268  1.0742 -0.7629  0.3518
 7257TIP3   OH221734   0.671   6.646   4.939 -0.5569  0.2923  0.1419
 7257TIP3    H121735   0.590   6.637   4.989 -0.7281 -3.3426 -0.4756
 7257TIP3    H221736   0.645   6.635   4.848  0.6343 -1.9483 -0.0000
 7258TIP3   OH221737   6.521   6.484   1.360  0.1159  0.3471  0.5111
 7258TIP3    H121738   6.431   6.500   1.389 -0.6717  1.7193 -2.3513
 7258TIP3    H221739   6.565   6.568   1.374  1.0515 -0.3449  1.9720
 7259TIP3   OH221740   1.714   6.454   2.902 -1.3043  0.0899  0.4143
 7259TIP3    H121741   1.683   6.388   2.840  0.1220 -0.5534  0.3453
 7259TIP3    H221742   1.754   6.404   2.972  0.6662  0.8604 -0.0962
 7260TIP3   OH221743   6.695   0.957   1.151  0.0723 -0.4873  0.4614
 7260TIP3    H121744   6.681   0.917   1.237  1.4652  0.7108  1.2996
 7260TIP3    H221745   6.763   0.904   1.110  0.2455 -0.3707  0.5958
 7261TIP3   OH221746   5.117   3.355   4.946  0.1054  0.0268 -0.0886
 7261TIP3    H121747   5.205   3.344   4.981 -0.1760 -0.4187  0.5141
 7261TIP3    H221748   5.067   3.282   4.985 -1.1034  1.6316  1.5296
 7262TIP3   OH221749   4.414   3.167   0.089 -0.1960 -0.2689 -0.1610
 7262TIP3    H121750   4.410   3.229   0.162  0.2402  1.1237 -1.2715
 7262TIP3    H221751   4.505   3.138   0.087 -0.1772 -0.2065 -0.2268
 7263TIP3   OH221752   3.350   3.214   2.729  0.2202 -0.1118 -0.5818
 7263TIP3    H121753   3.319   3.251   2.812 -0.4019  1.2783 -1.4001
 7263TIP3    H221754   3.274   3.216   2.672  1.0181  0.3915 -1.6661
 7264TIP3   OH221755   6.661   4.398   1.754  0.0173  0.2067  0.1624
 7264TIP3    H121756   6.596   4.335   1.786  0.4552  1.2454  3.4814
 7264TIP3    H221757   6.620   4.436   1.677 -2.0790 -1.1875  0.4758
 7265TIP3   OH221758   0.168   6.601   3.591  0.1403  0.8005  0.6547
 7265TIP3    H121759   0.077   6.623   3.613 -0.1469  0.6130 -0.2948
 7265TIP3    H221760   0.160   6.528   3.530  1.0245 -0.9678  2.5491
 7266TIP3   OH221761   0.051   0.375   0.581 -0.6931  0.2738 -0.2329
 7266TIP3    H121762  -0.015   0.422   0.633  0.0678  3.1778 -1.6425
 7266TIP3    H221763   0.028   0.283   0.591 -3.4738  0.9951  1.2939
 7267TIP3   OH221764   0.767   4.951   1.722  0.2011  0.3759  0.5298
 7267TIP3    H121765   0.784   5.040   1.752  0.9022  1.0404 -1.6083
 7267TIP3    H221766   0.854   4.911   1.716 -0.0020 -0.0462  0.3466
 7268TIP3   OH221767   5.868   3.129   3.371 -0.2057 -0.0692  0.7120
 7268TIP3    H121768   5.817   3.193   3.420  0.4048  2.2059 -1.3866
 7268TIP3    H221769   5.803   3.084   3.317 -0.4043  0.4743  0.4821
 7269TIP3   OH221770   2.712   0.607   5.454 -0.0167 -0.2744  0.3876
 7269TIP3    H121771   2.663   0.616   5.536  0.7590  0.2456  0.8083
 7269TIP3    H221772   2.728   0.697   5.426  0.1809 -0.4458 -0.0551
 7270TIP3   OH221773   0.057   3.226   2.628 -0.8840 -0.3234  0.1043
 7270TIP3    H121774   0.082   3.232   2.536 -0.9622 -3.0480 -0.1585
 7270TIP3    H221775   0.134   3.259   2.675 -0.3231 -0.1505 -0.8870
 7271TIP3   OH221776   0.357   0.808   4.298 -0.2752  0.3546  0.1061
 7271TIP3    H121777   0.308   0.774   4.373 -0.4963  0.0577 -0.1665
 7271TIP3    H221778   0.289   0.840   4.238 -0.1275  0.1548 -0.1703
 7272TIP3   OH221779   4.314   3.913   1.210 -0.7531  0.2378 -0.4589
 7272TIP3    H121780   4.397   3.956   1.188 -1.4070  0.2030 -3.3376
 7272TIP3    H221781   4.249   3.983   1.205 -1.0583  0.0825  0.9169
 7273TIP3   OH221782   1.382   4.612   1.578 -0.4080  0.3918  0.0943
 7273TIP3    H121783   1.337   4.575   1.502  0.7277 -3.3101  1.0190
 7273TIP3    H221784   1.450   4.668   1.541 -0.3959 -0.6693 -1.6257
 7274TIP3   OH221785   0.478   4.659   1.901  0.2019 -0.2018  0.2243
 7274TIP3    H121786   0.425   4.590   1.861 -1.7266  0.1222  1.9976
 7274TIP3    H221787   0.417   4.705   1.958  1.4693  2.8613 -0.6884
 7275TIP3   OH221788   1.237   2.320   0.990 -0.0640  0.1298  0.0387
 7275TIP3    H121789   1.302   2.390   0.999 -1.1900  1.2213  0.0429
 7275TIP3    H221790   1.201   2.332   0.903  0.1877 -0.8813 -0.2167
 7276TIP3   OH221791   4.538   5.729   1.115  0.1057 -0.2527  0.1047
 7276TIP3    H121792   4.596   5.697   1.046  0.5068  1.1572 -0.2387
 7276TIP3    H221793   4.493   5.804   1.076 -0.7507 -0.3265  0.9063
 7277TIP3   OH221794   0.658   5.633   0.805 -0.4844 -0.6277 -0.7560
 7277TIP3    H121795   0.626   5.582   0.730 -0.5699  0.0482 -1.1851
 7277TIP3    H221796   0.603   5.711   0.806  1.5852  0.9366 -1.9725
 7278TIP3   OH221797   5.270   5.782   2.459  0.4622  0.2980 -0.3195
 7278TIP3    H121798   5.349   5.730   2.472 -0.1950 -0.3062  1.6842
 7278TIP3    H221799   5.269   5.843   2.533 -0.5704  0.7981 -0.7187
 7279TIP3   OH221800   1.097   5.376   1.027 -0.0567 -0.0037  0.7816
 7279TIP3    H121801   1.072   5.468   1.036  0.8144  0.2912  0.3334
 7279TIP3    H221802   1.109   5.346   1.118  1.1383  0.7656  0.8960
 7280TIP3   OH221803   3.050   3.754   4.878  0.0766  0.3736 -0.3084
 7280TIP3    H121804   3.030   3.800   4.959  0.1007 -0.0040 -0.0865
 7280TIP3    H221805   2.999   3.800   4.811 -1.0973 -0.2063  0.1489
 7281TIP3   OH221806   1.528   0.313   4.528  0.2790  0.2215  0.2759
 7281TIP3    H121807   1.518   0.240   4.589  1.0330  0.6677  0.9568
 7281TIP3    H221808   1.557   0.272   4.446  0.8389 -0.2447  0.6957
 7282TIP3   OH221809   2.963   3.494   4.253  0.1144  0.4747  0.2311
 7282TIP3    H121810   3.029   3.540   4.201 -1.1865  2.2312  0.0666
 7282TIP3    H221811   2.992   3.507   4.344  2.3023 -2.4671  0.1229
 7283TIP3   OH221812   7.225   1.125   4.840 -0.3569 -0.3014 -0.3906
 7283TIP3    H121813   7.132   1.147   4.832 -0.0644  1.5615  0.6209
 7283TIP3    H221814   7.260   1.191   4.900  1.4788 -1.4034 -0.1644
 7284TIP3   OH221815   0.068   5.869   2.401 -0.1582 -0.3100 -0.4001
 7284TIP3    H121816   0.151   5.834   2.368  0.0001  1.8216 -2.5331
 7284TIP3    H221817   0.084   5.882   2.494  1.8434 -0.1912 -0.7009
 7285TIP3   OH221818   5.493   6.371   1.018  0.1651  0.3963 -0.5222
 7285TIP3    H121819   5.443   6.357   1.099  1.2361  0.0521  0.1010
 7285TIP3    H221820   5.450   6.315   0.953 -0.5620  0.4939 -0.1406
 7286TIP3   OH221821   1.988   6.121   2.807 -0.1152  0.1021 -0.0868
 7286TIP3    H121822   2.022   6.046   2.757  2.1903  0.4343  0.8357
 7286TIP3    H221823   2.019   6.197   2.758  2.4389  0.4348  1.8448
 7287TIP3   OH221824   6.219   2.805   5.137 -0.2904 -0.1162 -0.0028
 7287TIP3    H121825   6.154   2.860   5.182 -0.1671  0.1828 -0.1929
 7287TIP3    H221826   6.172   2.767   5.063 -0.2687  0.0396 -0.0961
 7288TIP3   OH221827   2.341   1.290   1.770  0.1028 -0.2116  0.6696
 7288TIP3    H121828   2.355   1.248   1.854  2.0838 -1.4947 -0.2369
 7288TIP3    H221829   2.407   1.252   1.712 -1.6883  0.0272 -1.7028
 7289TIP3   OH221830   2.432   3.043   4.120  0.3889  0.6237 -0.0166
 7289TIP3    H121831   2.487   3.044   4.041  0.0588 -0.5886 -0.2886
 7289TIP3    H221832   2.366   2.976   4.102  0.6583 -0.1003  1.5162
 7290TIP3   OH221833   5.244   0.374   5.330 -0.4504  0.2492 -0.3687
 7290TIP3    H121834   5.260   0.300   5.388 -1.9014  0.2820  0.1015
 7290TIP3    H221835   5.326   0.384   5.281 -0.3874 -1.9786 -0.8121
 7291TIP3   OH221836   5.024   0.438   0.755 -0.1915 -0.5053  0.1063
 7291TIP3    H121837   4.979   0.356   0.777  0.5079 -1.4592 -1.8043
 7291TIP3    H221838   4.970   0.506   0.796 -3.2552 -1.5778 -1.7875
 7292TIP3   OH221839   5.539   2.109   5.408  0.4362  0.4776  0.1362
 7292TIP3    H121840   5.529   2.047   5.336  2.6727  0.2789 -0.0840
 7292TIP3    H221841   5.451   2.120   5.443 -0.9265  1.2589 -3.1550
 7293TIP3   OH221842   4.561   1.882   2.197 -0.2867 -0.2905 -0.2250
 7293TIP3    H121843   4.597   1.927   2.120 -1.4754 -2.9148 -2.5024
 7293TIP3    H221844   4.486   1.935   2.222 -0.3921  0.1768 -1.4394
 7294TIP3   OH221845   5.746   1.680   1.546 -0.2174  0.3971 -0.0121
 7294TIP3    H121846   5.743   1.751   1.482  0.2815 -0.6677 -1.2630
 7294TIP3    H221847   5.836   1.648   1.542 -0.4467 -0.3415  0.4853
 7295TIP3   OH221848   4.320   4.571   3.763 -0.1106 -0.4310  0.2850
 7295TIP3    H121849   4.257   4.534   3.702 -0.5267 -1.0678  1.0950
 7295TIP3    H221850   4.405   4.556   3.722 -0.4243 -0.2801 -0.4327
 7296TIP3   OH221851   4.607   1.196   5.545  0.0424 -0.3241 -0.0438
 7296TIP3    H121852   4.529   1.210   5.599  0.7680  0.6523  0.7763
 7296TIP3    H221853   4.675   1.250   5.586  0.1514  2.0424 -2.9875
 7297TIP3   OH221854   2.562   4.578   5.090 -0.0975  0.6627 -0.6471
 7297TIP3    H121855   2.545   4.497   5.139 -1.1639  0.1819 -1.7431
 7297TIP3    H221856   2.619   4.551   5.018 -0.6696  0.8076 -1.1702
 7298TIP3   OH221857   6.373   1.244   0.796 -0.2654  0.1773  0.0108
 7298TIP3    H121858   6.449   1.263   0.850  0.6360  0.2917 -1.2552
 7298TIP3    H221859   6.331   1.170   0.840 -0.7505  1.5437  1.9832
 7299TIP3   OH221860   3.892   1.887   0.214 -0.0888  0.2188 -0.1191
 7299TIP3    H121861   3.811   1.872   0.263  0.0591 -1.1832 -0.2465
 7299TIP3    H221862   3.908   1.981   0.222 -1.0790  0.3277  0.9196
 7300TIP3   OH221863   3.739   3.366   3.654 -0.4246 -0.1660  0.2241
 7300TIP3    H121864   3.748   3.272   3.636 -0.0141  0.0838 -0.9853
 7300TIP3    H221865   3.829   3.400   3.649 -0.4654  0.1836  1.4263
 7301TIP3   OH221866   0.481   5.192   3.709 -0.2271 -0.2185 -0.5208
 7301TIP3    H121867   0.417   5.159   3.773  0.1880 -0.2415 -0.1081
 7301TIP3    H221868   0.464   5.286   3.705 -0.6262 -0.3012 -0.8016
 7302TIP3   OH221869   6.304   2.823   3.457  0.4127 -0.2310 -0.2812
 7302TIP3    H121870   6.254   2.904   3.447  0.4458  0.2317  2.5032
 7302TIP3    H221871   6.239   2.758   3.484  0.7485 -0.5541 -0.2405
 7303TIP3   OH221872   2.258   4.893   3.909  0.1394 -0.5671  0.2617
 7303TIP3    H121873   2.209   4.915   3.829 -0.8255  0.2999  1.0637
 7303TIP3    H221874   2.340   4.855   3.877 -0.0247  0.1862 -1.1507
 7304TIP3   OH221875   4.936   2.563   0.061  0.1043 -0.1852  0.0095
 7304TIP3    H121876   4.868   2.527   0.004  0.6235  1.8787 -2.0550
 7304TIP3    H221877   5.018   2.533   0.023  0.4303 -0.2852  0.7764
 7305TIP3   OH221878   3.807   1.219   1.139  0.0363 -0.2958  0.2391
 7305TIP3    H121879   3.876   1.283   1.155 -1.2835  0.6744  2.4803
 7305TIP3    H221880   3.725   1.269   1.146 -0.9622 -1.5981 -1.3449
 7306TIP3   OH221881   3.159   5.691   1.748  0.2094  0.1225  0.2005
 7306TIP3    H121882   3.244   5.684   1.706 -0.6389 -0.0805 -1.6070
 7306TIP3    H221883   3.149   5.784   1.768  1.4482 -0.0595  1.8390
 7307TIP3   OH221884   0.481   1.105   0.777  0.0643  0.7489  0.3560
 7307TIP3    H121885   0.559   1.090   0.722 -2.0821 -1.8269 -2.3222
 7307TIP3    H221886   0.432   1.172   0.730 -0.9433 -0.1606  0.0846
 7308TIP3   OH221887   5.102   4.933   4.295  0.5952 -0.5605  0.0763
 7308TIP3    H121888   5.175   4.964   4.348  0.7546 -1.6964  0.5361
 7308TIP3    H221889   5.138   4.923   4.207  0.6579  0.0714  0.0220
 7309TIP3   OH221890   0.741   2.529   4.014  0.1777 -0.2716 -0.8002
 7309TIP3    H121891   0.709   2.467   4.079 -0.1665 -0.0876 -0.7902
 7309TIP3    H221892   0.662   2.571   3.980  0.4793  1.2436  0.2639
 7310TIP3   OH221893   3.258   2.385   0.214 -0.2767  0.7917 -0.5104
 7310TIP3    H121894   3.207   2.429   0.146 -0.2489 -0.4077 -1.3368
 7310TIP3    H221895   3.195   2.369   0.285 -0.0943  2.8833  0.1984
 7311TIP3   OH221896   6.729   2.329   1.111  0.0392  0.5725  0.2592
 7311TIP3    H121897   6.801   2.323   1.174  0.2672 -0.6979 -0.1054
 7311TIP3    H221898   6.680   2.248   1.123  1.3402 -0.8026 -2.6801
 7312TIP3   OH221899   2.012   0.114   1.798 -0.2798 -0.1389  0.3311
 7312TIP3    H121900   2.083   0.114   1.734 -1.8960  1.6180 -1.6247
 7312TIP3    H221901   2.003   0.205   1.825 -1.5131 -0.3832  0.8352
 7313TIP3   OH221902   4.975   3.249   0.824 -0.5868 -0.2195 -0.6212
 7313TIP3    H121903   4.937   3.309   0.888 -0.1100  0.8358 -1.3093
 7313TIP3    H221904   5.018   3.182   0.877 -0.5429  0.4146  0.1717
 7314TIP3   OH221905   1.944   6.088   0.567  0.1304  0.7406  0.2599
 7314TIP3    H121906   2.037   6.073   0.583  0.2918  1.3317 -0.1142
 7314TIP3    H221907   1.909   6.117   0.651  0.0031 -0.7742  0.7562
 7315TIP3   OH221908   2.582   1.362   3.414  0.2352  0.2124 -0.1943
 7315TIP3    H121909   2.650   1.352   3.481 -0.3403 -0.9949  0.2393
 7315TIP3    H221910   2.532   1.281   3.417 -1.0089  0.9084 -0.7668
 7316TIP3   OH221911   2.685   1.154   5.831  0.8892  0.3085 -0.3496
 7316TIP3    H121912   2.647   1.186   5.913  0.0250  1.2350 -1.0838
 7316TIP3    H221913   2.637   1.074   5.812  1.8937 -0.5462  0.6317
 7317TIP3   OH221914   1.207   0.736   2.980 -0.3808 -0.5687 -0.4176
 7317TIP3    H121915   1.145   0.713   2.911  0.4483 -0.8748 -1.0765
 7317TIP3    H221916   1.152   0.771   3.051 -1.1010  2.8404 -2.4017
 7318TIP3   OH221917   4.894   5.886   0.204  0.0398  0.1856  0.1536
 7318TIP3    H121918   4.851   5.929   0.129 -0.0616 -0.5155 -0.1915
 7318TIP3    H221919   4.823   5.841   0.250  0.1490  0.3829  0.5257
 7319TIP3   OH221920   6.794   6.292   5.264  0.0088 -0.3648  0.1627
 7319TIP3    H121921   6.706   6.261   5.285 -0.8863  1.2790 -0.8936
 7319TIP3    H221922   6.797   6.381   5.299 -0.6592  1.5416 -4.0043
 7320TIP3   OH221923   1.948   4.307   2.137 -0.1381  0.0274  0.4819
 7320TIP3    H121924   1.963   4.296   2.043 -0.5315 -0.6915  0.5014
 7320TIP3    H221925   1.996   4.387   2.159 -1.5366  1.2441 -0.6838
 7321TIP3   OH221926   7.174   3.872   0.338  0.3339  0.1849 -0.5416
 7321TIP3    H121927   7.223   3.941   0.382  1.8635  0.3614 -2.3897
 7321TIP3    H221928   7.236   3.799   0.333 -0.4010 -0.4249 -0.8312
 7322TIP3   OH221929   6.910   2.046   0.615  0.6717 -0.2094  0.1958
 7322TIP3    H121930   6.982   1.995   0.578  0.4860 -1.2449  1.1974
 7322TIP3    H221931   6.944   2.135   0.620  1.3403 -0.3897 -0.7254
 7323TIP3   OH221932   0.947   1.222   4.721  0.1395  0.3164  0.1927
 7323TIP3    H121933   0.914   1.132   4.718 -2.4719  1.1990  0.1416
 7323TIP3    H221934   0.932   1.256   4.632 -0.8766  1.4152  0.7618
 7324TIP3   OH221935   2.945   5.483   4.992 -0.0753 -0.7953 -0.1298
 7324TIP3    H121936   3.027   5.522   4.962 -0.1755 -0.8713 -0.5137
 7324TIP3    H221937   2.920   5.425   4.921  0.8592 -2.7614  1.0658
 7325TIP3   OH221938   2.772   0.778   0.694 -0.5274  0.0161  0.0830
 7325TIP3    H121939   2.743   0.742   0.610 -2.0278  0.4776  0.3774
 7325TIP3    H221940   2.703   0.755   0.756 -0.5746  1.6590  0.6961
 7326TIP3   OH221941   6.507   6.420   4.024 -0.7021  0.9952 -0.1282
 7326TIP3    H121942   6.585   6.433   3.970 -0.9375 -0.6222 -0.9102
 7326TIP3    H221943   6.434   6.438   3.965 -0.9415  0.3383 -0.0447
 7327TIP3   OH221944   2.380   4.675   2.306  0.3905 -0.1669 -0.2757
 7327TIP3    H121945   2.328   4.739   2.355  1.2889 -1.2087  2.2044
 7327TIP3    H221946   2.399   4.719   2.223 -0.4693  2.0872  0.6222
 7328TIP3   OH221947   0.596   1.834   3.597  0.0859 -0.4319 -0.6847
 7328TIP3    H121948   0.581   1.924   3.569  2.1385 -0.1556 -1.0781
 7328TIP3    H221949   0.565   1.831   3.688 -0.8177  0.4198 -0.9586
 7329TIP3   OH221950   4.778   2.139   2.603 -0.6373 -0.0541 -0.0317
 7329TIP3    H121951   4.803   2.225   2.567 -0.9323 -1.0320 -2.8248
 7329TIP3    H221952   4.860   2.089   2.603 -0.5643  0.0363  1.1223
 7330TIP3   OH221953   0.791   5.518   3.900  0.6702 -0.8314 -0.0980
 7330TIP3    H121954   0.745   5.511   3.984 -0.9754  2.4119 -0.5822
 7330TIP3    H221955   0.722   5.517   3.834  1.6457 -0.0069 -1.1758
 7331TIP3   OH221956   0.932   2.499   4.769 -0.2483 -0.1605 -0.3134
 7331TIP3    H121957   1.002   2.556   4.736 -1.2459  0.9832 -0.5136
 7331TIP3    H221958   0.945   2.417   4.722  0.2751  0.4075 -1.1944
 7332TIP3   OH221959   1.110   2.773   4.915 -0.5932 -0.1567 -0.3492
 7332TIP3    H121960   1.115   2.684   4.950  0.9061  0.3988  0.9747
 7332TIP3    H221961   1.193   2.784   4.868 -0.7454  0.5852 -0.4459
 7333TIP3   OH221962   1.368   5.827   1.744 -0.6870  0.9611  0.5108
 7333TIP3    H121963   1.413   5.895   1.794 -1.4946  0.7009  1.6442
 7333TIP3    H221964   1.275   5.847   1.756 -0.9217  1.4884 -1.7737
 7334TIP3   OH221965   3.840   4.835   1.330  0.0945  0.2197  0.4683
 7334TIP3    H121966   3.785   4.768   1.290 -1.3581  0.9243  1.2243
 7334TIP3    H221967   3.788   4.869   1.403  1.0844  1.6625  0.5464
 7335TIP3   OH221968   3.936   2.494   1.988 -0.1914 -0.0971  0.0218
 7335TIP3    H121969   3.972   2.529   2.069  0.0765 -0.5536  0.1060
 7335TIP3    H221970   4.008   2.442   1.951  0.2183  1.3146 -1.2641
 7336TIP3   OH221971   6.254   0.688   4.044 -0.0096  0.0552  0.3096
 7336TIP3    H121972   6.190   0.727   3.984  0.0745 -0.3757 -0.0731
 7336TIP3    H221973   6.215   0.604   4.069  0.7570 -0.5975 -0.5874
 7337TIP3   OH221974   2.964   1.662   2.039 -0.4185 -0.1403 -0.4548
 7337TIP3    H121975   2.902   1.602   1.997 -0.9747 -1.1027  1.5978
 7337TIP3    H221976   2.976   1.733   1.976 -2.8482 -0.4230 -1.3305
 7338TIP3   OH221977   0.898   0.887   2.628  0.9553  0.6368 -0.0385
 7338TIP3    H121978   0.896   0.868   2.722  0.2373 -0.8610 -0.3273
 7338TIP3    H221979   0.991   0.896   2.608  1.0939  1.4531  0.8977
 7339TIP3   OH221980   2.120   6.161   5.315 -0.0088 -0.4620  0.1731
 7339TIP3    H121981   2.200   6.110   5.321  0.2214 -0.1058  0.1458
 7339TIP3    H221982   2.072   6.124   5.241  1.2976  0.9633 -1.4689
 7340TIP3   OH221983   4.357  -0.029   3.143 -0.4716 -0.0753  0.3073
 7340TIP3    H121984   4.312   0.005   3.220 -0.8174  1.5109 -0.5278
 7340TIP3    H221985   4.407   0.046   3.110  0.0683 -0.8575 -0.7104
 7341TIP3   OH221986   5.335   5.782   0.909  0.0132  0.4773  0.4786
 7341TIP3    H121987   5.419   5.823   0.890  0.1604  0.3079  0.7562
 7341TIP3    H221988   5.287   5.847   0.960 -0.3186  0.8677 -0.3087
 7342TIP3   OH221989   5.905   2.696   2.079  0.2765 -0.6137 -0.0044
 7342TIP3    H121990   5.998   2.719   2.087  0.0051  1.2177 -1.2823
 7342TIP3    H221991   5.901   2.635   2.005  0.2265  1.8038 -2.1583
 7343TIP3   OH221992   0.421   1.282   1.206  0.5110 -0.1091  0.6466
 7343TIP3    H121993   0.384   1.335   1.135  1.7144  1.0457  0.8439
 7343TIP3    H221994   0.474   1.216   1.161  2.3507  1.4326  0.4441
 7344TIP3   OH221995   2.117   2.714   5.557 -0.5672 -0.2132 -0.9779
 7344TIP3    H121996   2.141   2.804   5.538 -0.9189 -0.1883 -1.3357
 7344TIP3    H221997   2.195   2.663   5.536  0.2498  0.1714  0.9314
 7345TIP3   OH221998   2.731   6.085   4.946  0.1889 -0.0508 -0.6971
 7345TIP3    H121999   2.780   6.004   4.956  1.2977 -0.1001 -4.6428
 7345TIP3    H222000   2.786   6.152   4.984 -0.3702 -0.9584  1.8857
 7346TIP3   OH222001   0.717   5.198   4.471  0.1656 -0.2207 -0.4323
 7346TIP3    H122002   0.751   5.119   4.511 -1.3825 -0.8569 -0.2953
 7346TIP3    H222003   0.766   5.269   4.513  1.3644 -1.0669 -0.3434
 7347TIP3   OH222004   4.944   1.563   4.541 -0.5297 -0.4247  0.1555
 7347TIP3    H122005   4.879   1.610   4.489  0.0543  1.0550  0.6733
 7347TIP3    H222006   4.898   1.541   4.622 -0.7813 -0.6723 -0.0510
 7348TIP3   OH222007   6.537   5.270   0.988  0.0073 -0.1103  0.0332
 7348TIP3    H122008   6.510   5.329   1.058 -0.5558  0.9149 -1.0051
 7348TIP3    H222009   6.595   5.322   0.933 -0.0720 -0.6827 -0.6125
 7349TIP3   OH222010   4.912   1.367   4.321  0.3660 -0.6048 -0.5562
 7349TIP3    H122011   4.903   1.382   4.415 -1.0031  1.7755 -0.9803
 7349TIP3    H222012   4.994   1.410   4.296 -0.4891  0.9426 -0.7962
 7350TIP3   OH222013   3.945   1.190   1.460 -0.4944 -0.4228  0.0131
 7350TIP3    H122014   3.996   1.232   1.529  1.5103 -0.7725 -1.1671
 7350TIP3    H222015   3.855   1.216   1.477  0.2005  1.1236  1.5878
 7351TIP3   OH222016   2.048   1.063   1.788 -0.0807 -0.1907 -0.4217
 7351TIP3    H122017   2.090   1.099   1.710 -2.1883 -0.2874 -1.6836
 7351TIP3    H222018   2.041   0.970   1.771  0.9780 -0.5003  0.6877
 7352TIP3   OH222019   0.417   1.431   0.119 -0.3457  0.3166  0.4714
 7352TIP3    H122020   0.473   1.401   0.191  0.3263 -1.5588 -0.7500
 7352TIP3    H222021   0.357   1.357   0.103  1.2956 -0.5336 -2.6111
 7353TIP3   OH222022   6.694   2.676   3.277 -0.1110  0.2008  0.5831
 7353TIP3    H122023   6.753   2.660   3.351 -3.1055 -1.7889  2.7707
 7353TIP3    H222024   6.717   2.608   3.213 -0.3525 -0.9355  1.6654
 7354TIP3   OH222025   1.145   5.061   4.474  0.1725 -0.1472  0.6920
 7354TIP3    H122026   1.074   4.996   4.474  1.5013 -1.6697  0.8178
 7354TIP3    H222027   1.113   5.132   4.419 -1.4367 -0.8141  0.7218
 7355TIP3   OH222028   6.866   1.547   4.696 -0.1994 -0.6496 -0.5908
 7355TIP3    H122029   6.913   1.619   4.653 -1.2190 -0.2321 -1.0292
 7355TIP3    H222030   6.857   1.481   4.628 -1.2470 -0.2547 -0.8447
 7356TIP3   OH222031   7.144   0.171   4.758  0.0661 -0.3188 -0.0328
 7356TIP3    H122032   7.178   0.196   4.844  0.3061  0.8817 -0.4568
 7356TIP3    H222033   7.187   0.089   4.738  2.0211  0.6690 -0.1249
 7357TIP3   OH222034   5.002   2.373   1.379 -0.3182 -0.6914 -0.7277
 7357TIP3    H122035   4.938   2.441   1.358 -0.9157 -1.0726 -0.2109
 7357TIP3    H222036   4.983   2.303   1.317  0.8478 -0.0853 -1.8200
 7358TIP3   OH222037   7.037   1.249   1.115 -0.0020 -0.1040 -0.2542
 7358TIP3    H122038   6.955   1.249   1.067  0.3389  0.4639 -0.8423
 7358TIP3    H222039   7.048   1.158   1.142 -1.9307  0.1886  1.7874
 7359TIP3   OH222040   4.604   0.020   0.634 -0.7860  0.2591  0.4731
 7359TIP3    H122041   4.628   0.065   0.553 -2.5958  1.7642  0.6909
 7359TIP3    H222042   4.653  -0.062   0.632  2.4400  2.0737 -0.1054
 7360TIP3   OH222043   5.038   1.304   1.859  0.2795  0.4691  0.0492
 7360TIP3    H122044   4.950   1.278   1.833  1.2826 -1.5654 -1.6131
 7360TIP3    H222045   5.077   1.339   1.779  1.3434  0.2690  0.4651
 7361TIP3   OH222046   5.199   1.591   4.189  0.5050  0.0666 -0.0216
 7361TIP3    H122047   5.272   1.532   4.168  0.1751 -1.3246  2.4085
 7361TIP3    H222048   5.241   1.669   4.224  0.8905  0.6630 -1.7246
 7362TIP3   OH222049   6.240   1.786   2.531 -0.0965 -0.0496 -0.1052
 7362TIP3    H122050   6.309   1.777   2.466  1.2021  0.7154  1.1048
 7362TIP3    H222051   6.160   1.758   2.486  0.9029 -0.4377 -1.7080
 7363TIP3   OH222052   1.884   3.824   0.201  0.6651 -0.2968 -0.0322
 7363TIP3    H122053   1.897   3.781   0.285 -2.0387 -2.1129 -0.4140
 7363TIP3    H222054   1.839   3.906   0.223  2.7727  0.8006  0.4391
 7364TIP3   OH222055   1.656   4.604   1.749 -0.1951  0.0820  0.3385
 7364TIP3    H122056   1.585   4.655   1.787  0.6651  1.8081 -0.2633
 7364TIP3    H222057   1.677   4.539   1.815  0.1881  1.9776  2.1780
 7365TIP3   OH222058   0.342   1.037   1.332 -0.7623 -0.4528 -0.3206
 7365TIP3    H122059   0.295   1.003   1.257 -1.1771 -0.6135  0.0090
 7365TIP3    H222060   0.341   1.132   1.320 -1.7424 -0.4115  0.0158
 7366TIP3   OH222061   2.338   3.159   5.289 -0.5104 -0.1913 -0.6588
 7366TIP3    H122062   2.368   3.119   5.208 -0.2840  0.0901 -0.7144
 7366TIP3    H222063   2.249   3.189   5.270 -0.0216  0.9937 -1.2052
 7367TIP3   OH222064   3.884   4.263   5.318  0.1336  0.7453 -0.0507
 7367TIP3    H122065   3.863   4.190   5.376  0.1787 -1.4593 -2.5651
 7367TIP3    H222066   3.799   4.295   5.288  0.1270  0.9002  0.1374
 7368TIP3   OH222067   5.691   4.052   3.382  0.3374  0.1786  0.6428
 7368TIP3    H122068   5.675   4.110   3.456 -0.9237  1.1292 -0.3140
 7368TIP3    H222069   5.693   3.964   3.419 -1.3118  0.5379  1.6860
 7369TIP3   OH222070   4.350   4.798   5.786  0.2744 -0.0424 -0.6330
 7369TIP3    H122071   4.306   4.713   5.788 -1.4607  0.8007 -0.7758
 7369TIP3    H222072   4.425   4.786   5.728  0.2876 -1.5521 -0.3429
 7370TIP3   OH222073   3.427   3.782   3.558 -0.4029  0.2399 -0.0795
 7370TIP3    H122074   3.490   3.744   3.619 -1.4672  1.2615  1.7600
 7370TIP3    H222075   3.391   3.708   3.510  1.1016 -0.5008 -0.0929
 7371TIP3   OH222076   6.788   3.338   1.465  0.2917 -0.0839  0.3319
 7371TIP3    H122077   6.871   3.356   1.509  0.8085  1.8822 -1.2492
 7371TIP3    H222078   6.729   3.406   1.497  0.2419  0.4395 -0.8228
 7372TIP3   OH222079   6.601   5.911   1.692 -0.6720 -0.8319 -0.3448
 7372TIP3    H122080   6.646   5.986   1.734 -1.6446 -0.6229  0.3592
 7372TIP3    H222081   6.517   5.906   1.737  0.6982 -4.6173  2.2709
 7373TIP3   OH222082   6.784   6.052   1.323 -0.5023  0.3005  0.4613
 7373TIP3    H122083   6.756   6.142   1.340  0.6773  0.5863  1.0353
 7373TIP3    H222084   6.852   6.036   1.389 -1.8084 -1.5848  1.4470
 7374TIP3   OH222085   1.059   1.990   2.696 -0.1173 -0.1508  0.1502
 7374TIP3    H122086   0.983   2.038   2.729  0.4988  1.8338 -1.0875
 7374TIP3    H222087   1.030   1.953   2.613  0.3102  0.9054 -0.4971
 7375TIP3   OH222088   0.285   3.149   0.402  0.2147 -0.9113  0.6507
 7375TIP3    H122089   0.210   3.089   0.404 -1.2326  0.7055 -0.9856
 7375TIP3    H222090   0.337   3.120   0.327 -1.7511  1.1036 -1.6936
 7376TIP3   OH222091   4.533   1.895   2.833  0.1343 -0.2952  0.5801
 7376TIP3    H122092   4.574   1.981   2.844  0.7676 -0.1435 -2.1436
 7376TIP3    H222093   4.481   1.904   2.753 -1.8840 -1.7333  1.6688
 7377TIP3   OH222094   4.648   2.447   2.686 -0.1033  0.2811 -0.2323
 7377TIP3    H122095   4.710   2.457   2.758 -0.0796  0.6245 -0.3003
 7377TIP3    H222096   4.698   2.468   2.608 -0.0411 -0.4037 -0.3895
 7378TIP3   OH222097   1.269   2.893   0.076  0.1348 -0.2244 -0.2842
 7378TIP3    H122098   1.357   2.861   0.053  0.5399 -1.2209  2.2890
 7378TIP3    H222099   1.284   2.979   0.114 -0.2749  0.4884 -1.6853
 7379TIP3   OH222100   4.622   2.630   0.742  0.0346 -0.0676 -0.2184
 7379TIP3    H122101   4.673   2.672   0.673 -0.1964  1.7207  0.6582
 7379TIP3    H222102   4.669   2.650   0.823 -1.5547  0.9101  0.5135
 7380TIP3   OH222103   3.011   5.584   5.498 -0.0216 -0.2686  0.5724
 7380TIP3    H122104   3.024   5.635   5.578 -0.3241  0.9977 -0.1657
 7380TIP3    H222105   2.933   5.621   5.458  0.0514 -0.9818 -0.2491
 7381TIP3   OH222106   4.886   6.127   5.395  0.2954  0.4604  0.2805
 7381TIP3    H122107   4.932   6.211   5.388  3.2183 -1.0072  0.3142
 7381TIP3    H222108   4.922   6.086   5.473 -2.0689 -0.3427  1.0527
 7382TIP3   OH222109   2.560   1.812   0.324 -0.2518 -0.4675 -0.1247
 7382TIP3    H122110   2.526   1.722   0.319  1.1585 -0.9879 -0.7792
 7382TIP3    H222111   2.613   1.822   0.246  0.7631  0.4510  0.6539
 7383TIP3   OH222112   5.672   6.440   2.006 -0.0648  0.1754 -0.0419
 7383TIP3    H122113   5.750   6.397   1.972  1.7184  2.7542  0.5212
 7383TIP3    H222114   5.633   6.376   2.065  1.8168 -1.0764 -0.0683
 7384TIP3   OH222115   3.263   4.192   3.614 -0.2541 -0.0812  0.2454
 7384TIP3    H122116   3.204   4.218   3.543  1.1878  0.8471 -0.6833
 7384TIP3    H222117   3.347   4.177   3.570  0.4211 -0.4755  1.6285
 7385TIP3   OH222118   6.782   5.158   3.239  0.1353 -0.1563 -0.0284
 7385TIP3    H122119   6.769   5.123   3.327 -1.0418 -1.0789 -0.5374
 7385TIP3    H222120   6.819   5.085   3.190  1.4583  0.5650 -0.1535
 7386TIP3   OH222121   3.876   2.801   0.463  0.3455 -0.0931 -0.4275
 7386TIP3    H122122   3.822   2.759   0.531  1.2867 -0.4350  0.1218
 7386TIP3    H222123   3.850   2.757   0.382 -0.3825 -0.0754 -0.2115
 7387TIP3   OH222124   3.243   4.636   4.905  0.0331 -0.3702  0.3685
 7387TIP3    H122125   3.230   4.631   4.810  3.1626 -0.5130 -0.1507
 7387TIP3    H222126   3.277   4.550   4.929  0.1720 -0.0274  1.4405
 7388TIP3   OH222127   2.644   6.353   0.336 -0.1059 -0.1890 -0.6161
 7388TIP3    H122128   2.576   6.398   0.286 -0.8664 -0.3460  0.2296
 7388TIP3    H222129   2.724   6.401   0.317 -0.7754  1.1378 -0.2459
 7389TIP3   OH222130   5.978   0.208   1.663 -0.2123  0.1731  0.0771
 7389TIP3    H122131   5.976   0.242   1.573 -0.8403 -0.8336 -0.3072
 7389TIP3    H222132   5.896   0.161   1.673  0.1655 -0.3326  0.9407
 7390TIP3   OH222133   2.831   4.709   2.439 -0.5721  0.1412  0.3547
 7390TIP3    H122134   2.828   4.633   2.380 -1.3508 -1.5244  2.3866
 7390TIP3    H222135   2.829   4.670   2.526 -3.0273  2.6011  1.5077
 7391TIP3   OH222136   5.016   3.819   5.809 -0.0781 -0.0982  0.0198
 7391TIP3    H122137   5.088   3.882   5.809 -1.1532  1.1617  0.3281
 7391TIP3    H222138   4.937   3.872   5.798 -1.0494 -1.3366  0.7515
 7392TIP3   OH222139   6.456   2.858   4.222 -0.1271  0.0282 -0.6518
 7392TIP3    H122140   6.389   2.894   4.279 -0.4643 -0.3454 -0.8055
 7392TIP3    H222141   6.498   2.934   4.182  0.2213  0.3033  0.2116
 7393TIP3   OH222142   2.991   4.083   0.719 -0.1334  0.4809 -0.4157
 7393TIP3    H122143   3.044   4.139   0.775  1.2386 -2.2963  1.2959
 7393TIP3    H222144   3.037   4.081   0.635  1.7399 -0.7117  0.5827
 7394TIP3   OH222145   4.970   0.351   4.417  0.0062 -0.2047 -0.8860
 7394TIP3    H122146   5.018   0.296   4.479 -0.0462 -1.0691 -1.6012
 7394TIP3    H222147   5.027   0.357   4.340 -0.4920 -0.2163 -1.2633
 7395TIP3   OH222148   6.611   3.933   5.482 -0.3616  0.2656  0.1331
 7395TIP3    H122149   6.605   4.013   5.534 -0.0883  0.5366 -0.2457
 7395TIP3    H222150   6.532   3.934   5.428  0.1296  0.8094 -0.6031
 7396TIP3   OH222151   2.281   1.757   5.362 -0.4165  0.0194  0.2108
 7396TIP3    H122152   2.354   1.696   5.353  0.7631  1.5393 -1.2316
 7396TIP3    H222153   2.273   1.772   5.456  1.5180  0.2416  0.3758
 7397TIP3   OH222154   5.460   3.860   1.505 -0.1567  0.2913  0.3654
 7397TIP3    H122155   5.371   3.847   1.473  0.2513 -0.1745 -0.6249
 7397TIP3    H222156   5.486   3.944   1.468  0.7568 -0.8133 -1.6448
 7398TIP3   OH222157   0.546   6.149   2.970 -0.2971 -0.0700  0.0338
 7398TIP3    H122158   0.471   6.177   3.022  0.5239  0.9803  0.6816
 7398TIP3    H222159   0.622   6.167   3.025  0.4362 -1.2690 -0.5460
 7399TIP3   OH222160   2.006   1.558   5.834 -0.6299 -0.1806  0.1852
 7399TIP3    H122161   2.090   1.529   5.870 -0.4030 -0.0875 -0.2543
 7399TIP3    H222162   1.978   1.628   5.894 -0.0895  0.2090 -0.0027
 7400TIP3   OH222163   5.419   3.252   0.661  0.6501  0.4691 -0.5469
 7400TIP3    H122164   5.390   3.336   0.624  2.6888  2.4714  1.9732
 7400TIP3    H222165   5.339   3.210   0.691 -0.4632  1.2556 -2.2463
 7401TIP3   OH222166   1.262   2.121   1.374 -0.0197  0.4276 -0.7239
 7401TIP3    H122167   1.317   2.107   1.296 -1.0796 -0.0982 -1.4058
 7401TIP3    H222168   1.180   2.075   1.353 -0.5587  0.8395  0.4414
 7402TIP3   OH222169   2.115   2.249   0.936  0.1567 -0.0624  0.3694
 7402TIP3    H122170   2.039   2.193   0.921  0.7307 -0.7038 -0.2522
 7402TIP3    H222171   2.177   2.223   0.867  0.6638  0.9332  0.4397
 7403TIP3   OH222172   0.333   3.371   2.637 -0.3806 -0.0714 -0.2353
 7403TIP3    H122173   0.405   3.376   2.700  0.5657  0.3578 -1.3111
 7403TIP3    H222174   0.305   3.462   2.625  1.1656  0.1946 -2.3090
 7404TIP3   OH222175   1.020   2.102   4.104  0.1287  0.1632 -0.7875
 7404TIP3    H122176   0.984   2.122   4.017 -2.0613  0.4140  0.1015
 7404TIP3    H222177   0.975   2.021   4.130 -0.2814  0.8050  0.6237
 7405TIP3   OH222178   1.085   0.232   4.371  0.5734 -0.0163  0.1754
 7405TIP3    H122179   1.157   0.292   4.390  0.6468 -0.3851  1.1157
 7405TIP3    H222180   1.099   0.158   4.430  0.9111 -1.3360 -1.5105
 7406TIP3   OH222181   0.741   6.077   0.402  0.1697 -0.4515 -0.8528
 7406TIP3    H122182   0.827   6.096   0.364  0.2570  2.0016  0.4064
 7406TIP3    H222183   0.759   6.050   0.492 -0.3650  1.6818 -0.0333
 7407TIP3   OH222184   3.864   2.932   3.334  0.3272  0.0136 -0.2281
 7407TIP3    H122185   3.803   2.859   3.339  0.4691 -0.1270 -0.5626
 7407TIP3    H222186   3.831   2.995   3.398 -0.7830  0.3964 -1.1587
 7408TIP3   OH222187   6.422   5.037   1.565 -0.2995  0.3296  0.4083
 7408TIP3    H122188   6.398   5.129   1.553 -1.4374  0.2500  1.8710
 7408TIP3    H222189   6.485   5.020   1.495  0.5087  2.4156  0.5576
 7409TIP3   OH222190   6.803   5.687   3.778  0.0291 -0.6305  0.2223
 7409TIP3    H122191   6.771   5.643   3.856  0.1789 -1.4820 -0.1912
 7409TIP3    H222192   6.856   5.622   3.733 -2.6447 -1.2832 -2.2588
 7410TIP3   OH222193   0.722   1.778   3.260  0.1020 -0.5653  0.4822
 7410TIP3    H122194   0.781   1.848   3.287 -0.9037 -0.2947  2.1060
 7410TIP3    H222195   0.754   1.700   3.306 -0.7757 -0.4094  1.4021
 7411TIP3   OH222196   6.355   5.297   5.021 -0.1707  0.0675 -0.0607
 7411TIP3    H122197   6.341   5.287   4.926  0.1899  0.5333 -0.1667
 7411TIP3    H222198   6.339   5.210   5.057 -1.0404  0.0468 -0.4562
 7412TIP3   OH222199   3.341   5.348   3.492 -0.7072  0.0157  0.0550
 7412TIP3    H122200   3.396   5.415   3.453  0.0884 -0.3288  0.5605
 7412TIP3    H222201   3.302   5.391   3.568 -0.8893  0.1631 -0.1198
 7413TIP3   OH222202   2.395   2.500   0.136 -0.0814  0.0281  0.3448
 7413TIP3    H122203   2.462   2.545   0.188 -0.8212  1.1208  0.3826
 7413TIP3    H222204   2.339   2.458   0.202  0.1376 -0.2631  0.3452
 7414TIP3   OH222205   4.457   1.328   0.110 -0.8580  0.0928  0.2741
 7414TIP3    H122206   4.437   1.326   0.203  3.0346  0.9507  1.3041
 7414TIP3    H222207   4.496   1.414   0.095 -0.6812 -0.3081 -1.9797
 7415TIP3   OH222208   5.449   3.705   1.758  0.5018 -0.2296  0.2035
 7415TIP3    H122209   5.470   3.784   1.807  0.2841 -0.6179  0.9499
 7415TIP3    H222210   5.451   3.731   1.667  1.5750  0.3620  0.3831
 7416TIP3   OH222211   1.574   0.420   5.176 -0.0285 -0.4296  0.1854
 7416TIP3    H122212   1.568   0.514   5.158  0.2566 -0.9104 -2.8578
 7416TIP3    H222213   1.487   0.386   5.156 -0.1542 -0.8386  1.3550
 7417TIP3   OH222214   6.003   6.525   0.961  0.5112 -0.2623 -0.2536
 7417TIP3    H122215   6.010   6.430   0.976  1.5812 -0.1304  0.1729
 7417TIP3    H222216   5.927   6.534   0.903  0.7509 -1.4364 -0.7982
 7418TIP3   OH222217   3.099   6.713   2.616  0.3023 -0.4343  0.3374
 7418TIP3    H122218   3.007   6.739   2.608  0.4951  0.2908  0.4042
 7418TIP3    H222219   3.121   6.677   2.530  0.1660  0.0953  0.0751
 7419TIP3   OH222220   4.425   3.294   4.388 -0.1144  0.3370  0.5622
 7419TIP3    H122221   4.466   3.227   4.443 -0.8012  0.3421  1.0905
 7419TIP3    H222222   4.353   3.249   4.345 -0.2209  0.5965  0.4669
 7420TIP3   OH222223   5.941   0.774   3.150 -0.1803 -0.8721  0.0515
 7420TIP3    H122224   5.881   0.792   3.222 -0.5100 -1.7612  0.0202
 7420TIP3    H222225   6.009   0.718   3.189 -0.1568 -1.0515 -0.2444
 7421TIP3   OH222226   3.482   5.080   2.029  0.5621  0.0313  0.2282
 7421TIP3    H122227   3.550   5.138   1.993  2.2631  0.2453  3.4322
 7421TIP3    H222228   3.420   5.140   2.071 -0.6299 -0.2828 -1.0076
 7422TIP3   OH222229   3.059   0.764   0.066  0.1491  0.3094  0.4259
 7422TIP3    H122230   3.033   0.854   0.088 -1.8194  0.2303 -1.2361
 7422TIP3    H222231   3.153   0.770   0.050 -0.0994  2.3776 -0.7068
 7423TIP3   OH222232   3.135   3.297   0.110  0.3557  0.3502 -0.6418
 7423TIP3    H122233   3.201   3.366   0.099  0.6100 -0.0813 -1.8685
 7423TIP3    H222234   3.087   3.323   0.189  1.9818  0.6666  0.2730
 7424TIP3   OH222235   4.753   5.013   0.799  0.0876  0.1639  0.5639
 7424TIP3    H122236   4.717   5.049   0.880 -1.1648 -0.0811  0.1443
 7424TIP3    H222237   4.834   4.970   0.825 -0.5037 -0.2676  1.7662
 7425TIP3   OH222238   1.609   0.197   5.764  0.4473 -0.0531  0.1051
 7425TIP3    H122239   1.540   0.157   5.711 -0.0898 -0.7167  1.2477
 7425TIP3    H222240   1.640   0.271   5.712 -0.3821 -0.3934 -0.9084
 7426TIP3   OH222241   0.776   6.734   2.577 -0.5186  0.2299  0.0230
 7426TIP3    H122242   0.856   6.784   2.592  0.1064 -0.9396  0.7568
 7426TIP3    H222243   0.771   6.723   2.482  0.9838 -0.9067  0.0387
 7427TIP3   OH222244   1.320   2.122   1.886  0.2209  0.5488  0.0878
 7427TIP3    H122245   1.233   2.131   1.845 -0.5021 -0.1381  1.4365
 7427TIP3    H222246   1.318   2.183   1.960  0.1911 -0.8041  1.2373
 7428TIP3   OH222247   7.113   1.731   2.503  0.4821 -0.4930 -0.4302
 7428TIP3    H122248   7.021   1.705   2.493 -0.2296  1.2046  1.0253
 7428TIP3    H222249   7.156   1.652   2.536 -1.1598 -0.5543  1.8890
 7429TIP3   OH222250   6.847   6.765   0.523  1.0051 -0.3416  0.4799
 7429TIP3    H122251   6.777   6.702   0.506 -0.9007  1.8203 -0.2880
 7429TIP3    H222252   6.853   6.769   0.619 -0.2688 -0.2345  0.5700
 7430TIP3   OH222253   2.325   4.746   1.320  0.1025 -0.1149  1.2804
 7430TIP3    H122254   2.413   4.782   1.337 -0.2354  1.8294 -0.6791
 7430TIP3    H222255   2.277   4.819   1.281 -1.9435 -1.5972  0.9097
 7431TIP3   OH222256   5.035   4.305   5.766 -0.0752  0.0872  0.3693
 7431TIP3    H122257   4.958   4.333   5.816 -0.5488 -0.8498  0.2022
 7431TIP3    H222258   4.999   4.272   5.684  0.2093 -2.7355  1.2798
 7432TIP3   OH222259   3.882   3.350   2.978 -0.2349  0.5624  0.5211
 7432TIP3    H122260   3.971   3.339   3.013 -0.5481  0.8869  1.4450
 7432TIP3    H222261   3.835   3.397   3.047 -0.8851  1.2041 -0.3445
 7433TIP3   OH222262   4.110   1.272   1.661 -0.4201 -0.9605 -0.0572
 7433TIP3    H122263   4.159   1.339   1.708  0.0736 -1.1106 -0.3504
 7433TIP3    H222264   4.125   1.192   1.711 -0.7516 -0.9130  0.1169
 7434TIP3   OH222265   5.325   6.104   3.205 -0.5356  0.1519 -0.1206
 7434TIP3    H122266   5.398   6.159   3.236 -0.2914 -0.5799  0.6268
 7434TIP3    H222267   5.362   6.016   3.198 -1.3548 -0.2306  0.2674
 7435TIP3   OH222268   6.061   6.270   1.026  0.2228 -0.1314 -0.5310
 7435TIP3    H122269   6.041   6.186   1.066 -1.5166 -0.8785 -2.7333
 7435TIP3    H222270   6.156   6.274   1.023  0.3711 -1.0560  1.4454
 7436TIP3   OH222271   1.543   1.080   0.843  0.2569 -0.2449 -0.5318
 7436TIP3    H122272   1.486   1.011   0.877  0.7537 -0.7126 -0.6301
 7436TIP3    H222273   1.494   1.161   0.858 -0.4648 -0.6423 -0.6964
 7437TIP3   OH222274   4.156   3.664   4.266  0.3518  0.3863  0.3773
 7437TIP3    H122275   4.209   3.740   4.288 -0.4863  0.6204  1.7536
 7437TIP3    H222276   4.198   3.626   4.189  1.9086  1.1215  0.8319
 7438TIP3   OH222277   0.846   6.421   2.046  0.2747 -0.2709 -0.0788
 7438TIP3    H122278   0.823   6.450   2.133  0.9420 -1.2623  0.4582
 7438TIP3    H222279   0.897   6.493   2.008 -3.2307  1.8421 -1.1942
 7439TIP3   OH222280   1.404   0.867   5.668 -0.1644 -0.2334  0.1520
 7439TIP3    H122281   1.330   0.882   5.609 -1.4810  0.8854  1.9638
 7439TIP3    H222282   1.452   0.950   5.667  1.0127 -0.9074 -0.9016
 7440TIP3   OH222283   2.314   1.722   3.968  0.2584 -0.2037 -0.5050
 7440TIP3    H122284   2.379   1.765   3.913 -0.4331  0.5153 -0.7797
 7440TIP3    H222285   2.259   1.793   4.001 -1.0947 -0.8589 -1.2223
 7441TIP3   OH222286   1.219   0.314   4.909  0.3661 -0.3304 -0.1006
 7441TIP3    H122287   1.282   0.243   4.916  0.4698 -0.2313 -0.0345
 7441TIP3    H222288   1.248   0.380   4.972  0.2935 -0.2114 -0.1894
 7442TIP3   OH222289   3.682   6.018   3.516 -0.1495 -0.0259  0.0150
 7442TIP3    H122290   3.664   6.086   3.450 -0.4194 -0.3213 -0.2208
 7442TIP3    H222291   3.619   5.949   3.497  0.5482 -0.6303 -0.1569
 7443TIP3   OH222292   5.082   3.752   5.221 -0.0595  0.1475 -0.2362
 7443TIP3    H122293   5.032   3.817   5.172 -0.5203  0.1726  0.2536
 7443TIP3    H222294   5.155   3.801   5.258 -0.6274  0.4940  0.4689
 7444TIP3   OH222295   6.660   4.576   3.766 -0.0212 -0.5083  0.3497
 7444TIP3    H122296   6.612   4.652   3.799  1.0236 -0.4856  1.8954
 7444TIP3    H222297   6.626   4.502   3.817  0.0217 -0.8427 -0.1017
 7445TIP3   OH222298   1.830   5.252   5.269 -0.1801 -0.1420 -0.1504
 7445TIP3    H122299   1.890   5.271   5.197  0.4404  1.1100  0.6627
 7445TIP3    H222300   1.748   5.227   5.226  0.4440 -0.2929 -1.2820
 7446TIP3   OH222301   0.031   6.392   2.585  0.5585 -0.2789 -0.5870
 7446TIP3    H122302   0.093   6.326   2.614 -0.0583 -0.9486 -0.7687
 7446TIP3    H222303   0.001   6.434   2.666 -1.4236 -2.3762 -0.1286
 7447TIP3   OH222304   1.627   1.252   5.194 -0.3415  0.6147  0.2696
 7447TIP3    H122305   1.656   1.250   5.285 -0.2690 -0.8288  0.2326
 7447TIP3    H222306   1.707   1.263   5.143 -0.2097 -0.1136  0.3152
 7448TIP3   OH222307   4.177   2.581   3.333 -0.2648 -0.0610 -0.2542
 7448TIP3    H122308   4.123   2.640   3.386  0.3187  0.2944 -0.0526
 7448TIP3    H222309   4.145   2.594   3.243 -0.6043  0.0449 -0.1203
 7449TIP3   OH222310   4.410   4.945   2.900  0.1004 -0.1376 -0.4752
 7449TIP3    H122311   4.385   4.986   2.817  1.6037  0.6787 -0.5567
 7449TIP3    H222312   4.380   5.007   2.967 -0.0769 -0.2419 -0.4563
 7450TIP3   OH222313   2.950   1.077   3.389 -0.5176  0.6479 -0.3378
 7450TIP3    H122314   2.888   1.112   3.325 -1.8882 -0.9688  0.0332
 7450TIP3    H222315   2.901   1.010   3.436  1.4736 -0.6099  0.0758
 7451TIP3   OH222316   3.072   0.625   4.939  0.1291  0.7684 -0.1067
 7451TIP3    H122317   3.125   0.590   4.868 -0.1585 -0.3249  0.2055
 7451TIP3    H222318   2.985   0.588   4.925 -0.7020  2.8462 -0.8390
 7452TIP3   OH222319   2.993   4.845   5.793  0.6839  0.2701  0.1179
 7452TIP3    H122320   2.937   4.844   5.870 -0.5476  3.4139 -0.5858
 7452TIP3    H222321   2.973   4.763   5.748 -0.3999 -0.4802  1.8667
 7453TIP3   OH222322   3.228   5.495   5.346  0.7271 -0.4278 -0.2340
 7453TIP3    H122323   3.153   5.532   5.393  0.7185 -2.4343  1.4881
 7453TIP3    H222324   3.245   5.557   5.276  1.3688  3.3586  2.9229
 7454TIP3   OH222325   0.642   1.147   2.895  0.3189  0.1518  0.4034
 7454TIP3    H122326   0.633   1.187   2.808  0.2705  1.9951  1.2141
 7454TIP3    H222327   0.737   1.140   2.909  0.3267 -0.0424  0.2665
 7455TIP3   OH222328   5.135   3.098   0.998 -0.1778  0.8744  0.3316
 7455TIP3    H122329   5.124   3.008   1.028  0.6053  0.7663  0.3148
 7455TIP3    H222330   5.204   3.093   0.931 -0.4935  1.4067 -0.0427
 7456TIP3   OH222331   7.213   3.794   0.861 -0.3697 -0.0233  0.5079
 7456TIP3    H122332   7.118   3.789   0.851 -0.1604 -1.0260 -1.5971
 7456TIP3    H222333   7.239   3.866   0.804  0.0544  1.1164  2.0895
 7457TIP3   OH222334   2.062   4.142   2.734  0.1322  0.2259 -0.3098
 7457TIP3    H122335   2.026   4.207   2.673  0.3124 -0.1822 -0.8653
 7457TIP3    H222336   2.018   4.060   2.709 -1.0546  0.3500  1.2132
 7458TIP3   OH222337   2.315   3.954   1.154 -0.5729  0.0894 -0.1550
 7458TIP3    H122338   2.371   3.878   1.136  0.1177  0.3599  0.7802
 7458TIP3    H222339   2.228   3.917   1.166 -0.2118 -0.5900  0.4841
 7459TIP3   OH222340   1.850   0.122   2.164 -0.1619 -0.1674 -0.2525
 7459TIP3    H122341   1.833   0.178   2.240  1.9428  0.2527 -0.0309
 7459TIP3    H222342   1.859   0.034   2.201  2.7485  0.2753  0.3872
 7460TIP3   OH222343   2.637   6.469   1.097 -0.0995  0.5273 -0.0106
 7460TIP3    H122344   2.713   6.484   1.041  0.0164 -0.3862 -0.1068
 7460TIP3    H222345   2.629   6.374   1.102  2.0007  0.3599  4.3278
 7461TIP3   OH222346   5.700   0.705   0.520  0.0978  0.0137 -0.1428
 7461TIP3    H122347   5.673   0.797   0.512  0.5531  0.1903  0.2716
 7461TIP3    H222348   5.653   0.673   0.597 -1.0492 -0.4786 -1.0160
 7462TIP3   OH222349   5.050   5.305   5.175  0.3372 -0.0093 -0.5381
 7462TIP3    H122350   4.984   5.261   5.228 -0.9037  0.1184 -1.9313
 7462TIP3    H222351   5.100   5.235   5.135  0.4684 -0.1092 -0.2054
 7463TIP3   OH222352   0.780   5.499   2.960 -0.3539  0.3172 -0.0360
 7463TIP3    H122353   0.867   5.539   2.954  0.3837 -1.0216  1.0502
 7463TIP3    H222354   0.757   5.506   3.053 -2.2571  2.2956 -0.5978
 7464TIP3   OH222355   3.861   2.676   2.516 -0.1469  0.0470 -0.3589
 7464TIP3    H122356   3.827   2.712   2.598 -0.9017  1.9057 -1.4249
 7464TIP3    H222357   3.815   2.724   2.448  1.3638 -0.5709 -1.8882
 7465TIP3   OH222358   3.769   5.569   2.193 -0.7629 -0.4048 -0.4648
 7465TIP3    H122359   3.822   5.597   2.267  0.1820 -0.4058 -1.1287
 7465TIP3    H222360   3.729   5.487   2.222  0.9939 -1.3493 -0.5634
 7466TIP3   OH222361   2.342   2.693   1.080  0.2195  0.4239 -0.2545
 7466TIP3    H122362   2.343   2.635   1.004  1.5866  0.0298  0.0461
 7466TIP3    H222363   2.266   2.664   1.130  0.7626 -1.0051 -0.2051
 7467TIP3   OH222364   2.438   4.746   3.759  0.2743  0.0543  0.1934
 7467TIP3    H122365   2.488   4.667   3.738 -0.3433 -0.6084  1.0991
 7467TIP3    H222366   2.480   4.815   3.708  1.1204 -0.7689 -0.2735
 7468TIP3   OH222367   2.427   3.894   3.928 -0.0763 -0.1658  0.2149
 7468TIP3    H122368   2.474   3.976   3.945  1.3906 -1.2943  2.0586
 7468TIP3    H222369   2.345   3.903   3.978  0.6072 -0.2410  1.3932
 7469TIP3   OH222370   3.747   1.968   4.637 -0.3840  0.6490  0.9078
 7469TIP3    H122371   3.820   1.910   4.615 -1.0392  0.3441 -0.6226
 7469TIP3    H222372   3.754   1.982   4.731  1.0338 -0.2035  0.9514
 7470TIP3   OH222373   3.524   6.452   4.187 -0.0456 -0.3293 -0.1034
 7470TIP3    H122374   3.528   6.358   4.201 -0.2035 -0.8171 -2.8371
 7470TIP3    H222375   3.604   6.473   4.139  1.1758  1.4078  2.4590
 7471TIP3   OH222376   2.635   6.525   4.382  0.1075  0.0615 -0.4841
 7471TIP3    H122377   2.687   6.568   4.314 -0.2359  0.9719 -0.1981
 7471TIP3    H222378   2.544   6.533   4.352 -0.4551  3.5444  1.5553
 7472TIP3   OH222379   3.748   1.544   3.774  0.0642 -0.0669 -0.3439
 7472TIP3    H122380   3.686   1.552   3.701  0.6944 -0.4087 -0.9219
 7472TIP3    H222381   3.692   1.547   3.852 -0.6153  0.3522 -0.8286
 7473TIP3   OH222382   5.060   0.183   5.091 -0.1627  0.4857 -0.2514
 7473TIP3    H122383   5.154   0.197   5.089 -0.1428  0.3560 -1.4235
 7473TIP3    H222384   5.045   0.117   5.023 -1.1584  0.9175 -0.4700
 7474TIP3   OH222385   3.551   6.775   0.045 -0.1409  0.3498 -0.1035
 7474TIP3    H122386   3.640   6.800   0.024  0.1194 -2.0154 -2.2527
 7474TIP3    H222387   3.504   6.779  -0.038 -1.2899 -1.1835  0.4229
 7475TIP3   OH222388   0.478   3.966   2.327 -0.0017 -0.0655 -0.2249
 7475TIP3    H122389   0.557   3.989   2.278  0.1868  0.1013  0.1515
 7475TIP3    H222390   0.421   4.043   2.318 -0.0261 -0.0940 -0.3079
 7476TIP3   OH222391   6.392   5.699   1.794  0.4902  0.0729  0.4151
 7476TIP3    H122392   6.435   5.685   1.878  3.8446  1.3962 -0.9344
 7476TIP3    H222393   6.417   5.623   1.741 -2.6477 -1.4253  0.8305
 7477TIP3   OH222394   3.093   4.516   4.273 -0.5692  0.0116  0.1960
 7477TIP3    H122395   3.136   4.449   4.327  0.4692  0.2165 -0.3428
 7477TIP3    H222396   3.066   4.468   4.194  0.7747  0.3304 -0.4870
 7478TIP3   OH222397   4.819   4.144   0.078 -0.0364  0.4241  0.0477
 7478TIP3    H122398   4.797   4.051   0.079 -0.2996  0.4749 -0.4462
 7478TIP3    H222399   4.825   4.169   0.170 -0.7650  0.0955  0.1929
 7479TIP3   OH222400   5.852   3.325   1.065 -0.1712  0.1425  0.5384
 7479TIP3    H122401   5.826   3.243   1.108 -0.4335 -0.0317  0.0522
 7479TIP3    H222402   5.851   3.305   0.972  1.2359  0.2748  0.4723
 7480TIP3   OH222403   1.401   3.475   5.837 -0.4339 -0.1744  0.9645
 7480TIP3    H122404   1.394   3.549   5.777 -0.1655  0.6427  1.8935
 7480TIP3    H222405   1.486   3.436   5.819  0.8247  1.6516  2.4835
 7481TIP3   OH222406   5.919   2.997   0.642 -0.2407  0.5578  0.4016
 7481TIP3    H122407   5.857   3.018   0.572  0.3352 -0.9229 -0.6078
 7481TIP3    H222408   5.999   2.972   0.597 -0.1581 -1.4319  1.5264
 7482TIP3   OH222409   6.786   1.919   1.027  0.3190 -0.0593 -0.5237
 7482TIP3    H122410   6.757   1.944   1.114  0.2312  0.4180 -0.6879
 7482TIP3    H222411   6.776   1.998   0.974 -0.7355 -0.6578 -1.2537
 7483TIP3   OH222412   2.917   5.252   3.600 -0.3583  0.7774  0.4409
 7483TIP3    H122413   2.999   5.248   3.648 -0.2194  0.9711  0.2188
 7483TIP3    H222414   2.934   5.204   3.518 -0.3558  1.1284  0.2337
 7484TIP3   OH222415   2.724   0.023   0.721 -0.1068  0.6258 -0.1374
 7484TIP3    H122416   2.751  -0.053   0.669  1.5568  0.3179  1.1019
 7484TIP3    H222417   2.663   0.069   0.664 -1.4965 -1.8209 -0.7993
 7485TIP3   OH222418   6.535   1.341   3.069  0.4922 -0.3030  0.0252
 7485TIP3    H122419   6.507   1.387   3.149  0.9880 -1.2582  0.7634
 7485TIP3    H222420   6.453   1.305   3.033  0.4996 -1.6545  1.2666
 7486TIP3   OH222421   5.973   5.346   4.205  0.3036  0.4856 -0.5427
 7486TIP3    H122422   6.069   5.338   4.205  0.2351 -0.9927 -1.8791
 7486TIP3    H222423   5.943   5.268   4.157 -1.5834  0.8409 -0.0118
 7487TIP3   OH222424   5.960   5.611   2.737 -0.3196 -0.7345 -0.1326
 7487TIP3    H122425   6.041   5.561   2.738  0.3409  0.3121  0.8290
 7487TIP3    H222426   5.947   5.638   2.828 -1.2194 -0.0598 -0.4468
 7488TIP3   OH222427   7.082   4.514   2.427  0.2296  0.6411  0.7125
 7488TIP3    H122428   7.020   4.572   2.383  3.1682  1.4473 -2.7566
 7488TIP3    H222429   7.149   4.572   2.462  1.4860 -0.4171  0.1501
 7489TIP3   OH222430   2.003   6.074   1.055  0.2527  0.1379  0.1379
 7489TIP3    H122431   2.036   5.989   1.026 -0.3273  0.6371 -2.2358
 7489TIP3    H222432   2.066   6.137   1.022 -0.9001  0.8068 -0.8888
 7490TIP3   OH222433   2.619   5.547   1.019  0.7849 -0.1905 -0.2742
 7490TIP3    H122434   2.572   5.466   1.038 -0.1222  0.2677 -0.5191
 7490TIP3    H222435   2.625   5.550   0.924  0.1125  0.4053 -0.3106
 7491TIP3   OH222436   2.731   4.608   1.577  0.0122  0.0073 -0.0100
 7491TIP3    H122437   2.712   4.578   1.488  1.0275 -2.6331  0.5819
 7491TIP3    H222438   2.648   4.600   1.623 -0.0384 -0.6775 -0.2090
 7492TIP3   OH222439   4.895   5.325   3.651  0.5035 -0.1101 -0.0476
 7492TIP3    H122440   4.948   5.310   3.573 -0.6720 -1.6476 -0.5870
 7492TIP3    H222441   4.831   5.392   3.624 -0.7158 -1.5434 -0.8543
 7493TIP3   OH222442   4.657   4.565   2.732  0.3767  0.1611  0.1639
 7493TIP3    H122443   4.747   4.545   2.705  1.5593  0.5147  3.4326
 7493TIP3    H222444   4.662   4.655   2.766 -1.1836  0.1137  0.5748
 7494TIP3   OH222445   6.244   1.799   5.871  0.2965 -0.1261 -0.7876
 7494TIP3    H122446   6.219   1.831   5.784 -0.6678 -0.3858 -0.6180
 7494TIP3    H222447   6.336   1.773   5.862  1.7284  4.0132 -0.5995
 7495TIP3   OH222448   1.792   0.267   1.904 -0.0155 -0.8195  0.4577
 7495TIP3    H122449   1.739   0.275   1.984  0.1775  1.2126  0.4248
 7495TIP3    H222450   1.842   0.186   1.917 -0.1516 -0.6583  2.2875
 7496TIP3   OH222451   5.692   3.413   3.262  0.4469  0.1463 -0.2764
 7496TIP3    H122452   5.665   3.433   3.172  0.4115  0.6806 -0.1499
 7496TIP3    H222453   5.787   3.405   3.257  0.4358  0.0665 -0.3768
 7497TIP3   OH222454   0.612   5.987   0.980  0.1882  0.2089  0.3372
 7497TIP3    H122455   0.575   5.905   1.013  0.0007  0.8130  1.7001
 7497TIP3    H222456   0.578   5.995   0.890 -0.1369 -0.9786  0.3439
 7498TIP3   OH222457   4.509   1.745   4.785  0.8236  0.3489  0.5579
 7498TIP3    H122458   4.527   1.832   4.819  0.8563  0.3620  0.5072
 7498TIP3    H222459   4.416   1.748   4.760  0.9320  0.4996  0.1666
 7499TIP3   OH222460   0.434   4.955   5.675 -0.1103 -0.1401  0.3569
 7499TIP3    H122461   0.472   4.903   5.745 -0.9285 -0.0111  0.9194
 7499TIP3    H222462   0.509   4.987   5.624  0.4676 -0.5900  0.9161
 7500TIP3   OH222463   4.651   2.453   4.443  0.9742 -0.3019  0.5234
 7500TIP3    H122464   4.621   2.372   4.484 -0.0244 -0.2347 -0.0497
 7500TIP3    H222465   4.650   2.518   4.514 -1.0981 -0.0967  0.3696
 7501TIP3   OH222466   1.559   2.870   2.920  0.2558  0.1528 -0.0853
 7501TIP3    H122467   1.583   2.777   2.927  0.5847  0.2971  0.8548
 7501TIP3    H222468   1.639   2.917   2.941  0.5151  0.6803 -2.0673
 7502TIP3   OH222469   2.554   4.237   2.641  0.0819 -0.1290 -0.0915
 7502TIP3    H122470   2.459   4.223   2.645  0.1863 -0.5721  1.2373
 7502TIP3    H222471   2.591   4.151   2.660  0.7633 -0.1104 -1.2844
 7503TIP3   OH222472   1.732   3.097   5.628  0.1999  0.1717  0.7157
 7503TIP3    H122473   1.654   3.079   5.681  0.2193 -0.4203  0.5495
 7503TIP3    H222474   1.801   3.045   5.669  0.2076 -0.3210  0.0930
 7504TIP3   OH222475   4.135   5.242   3.224  0.1105 -0.0338 -0.6375
 7504TIP3    H122476   4.189   5.235   3.146  1.4045  0.3229  0.1947
 7504TIP3    H222477   4.117   5.152   3.250  2.1415 -0.2185  0.2741
 7505TIP3   OH222478   2.622   2.279   3.350 -0.4690 -0.9645 -0.4807
 7505TIP3    H122479   2.632   2.187   3.375 -0.2640 -0.7815  0.1304
 7505TIP3    H222480   2.688   2.325   3.402 -1.3745 -0.3225  0.1398
 7506TIP3   OH222481   5.112   0.514   5.146  0.0271 -0.5428 -0.5821
 7506TIP3    H122482   5.150   0.448   5.204  0.3674  0.1064 -0.0408
 7506TIP3    H222483   5.122   0.478   5.058  0.3853 -1.1195 -0.3101
 7507TIP3   OH222484   4.989   1.111   4.032  0.0589 -0.3114 -0.2749
 7507TIP3    H122485   4.920   1.052   4.001 -1.0312  0.2062  1.0573
 7507TIP3    H222486   5.071   1.068   4.007 -0.6736 -2.6622  1.0595
 7508TIP3   OH222487   1.913   2.150   2.735 -0.0864 -0.3186  0.0978
 7508TIP3    H122488   1.953   2.235   2.755 -0.1937 -0.3642  0.5263
 7508TIP3    H222489   1.984   2.097   2.700 -0.0634  0.0163 -0.3699
 7509TIP3   OH222490   4.387   0.908   0.703  0.4920 -0.2008  0.7985
 7509TIP3    H122491   4.417   0.869   0.785 -0.0284 -3.0391 -0.2462
 7509TIP3    H222492   4.451   0.880   0.638 -0.9700 -1.0567 -0.3490
 7510TIP3   OH222493   0.837   3.903   0.751 -0.4999 -0.0421 -0.5370
 7510TIP3    H122494   0.859   3.811   0.765 -0.2270 -0.0204 -0.8099
 7510TIP3    H222495   0.908   3.936   0.696 -0.4815  0.3853 -0.2619
 7511TIP3   OH222496   1.844   0.744   5.433  0.4316 -1.0194  0.3442
 7511TIP3    H122497   1.855   0.839   5.432  0.4449 -1.0194  0.5692
 7511TIP3    H222498   1.760   0.730   5.476  1.1487 -1.1861  1.7307
 7512TIP3   OH222499   6.970   5.036   3.955 -0.3992 -0.2543  0.0939
 7512TIP3    H122500   7.020   4.978   4.012 -0.1003  1.7767  2.0341
 7512TIP3    H222501   6.961   4.987   3.873  1.4241 -2.2347  0.9753
 7513TIP3   OH222502   3.591   0.345   0.102 -0.1819  0.8722 -0.0326
 7513TIP3    H122503   3.504   0.370   0.073 -0.8704  0.6213  1.7396
 7513TIP3    H222504   3.645   0.350   0.023 -2.2124 -1.0143 -1.6677
 7514TIP3   OH222505   4.963   0.679   1.546  0.7923 -0.5229  0.1439
 7514TIP3    H122506   5.027   0.666   1.616  0.0800 -0.6991  0.7883
 7514TIP3    H222507   4.969   0.771   1.524  2.5302 -0.8917 -1.0841
 7515TIP3   OH222508   3.559   0.131   4.142 -0.4143 -0.0635 -0.1052
 7515TIP3    H122509   3.507   0.157   4.218 -0.6711 -2.2370  0.5531
 7515TIP3    H222510   3.494   0.105   4.076 -0.1811 -0.4493 -0.1843
 7516TIP3   OH222511   1.490   6.677   2.045 -0.3121 -0.4172  0.3602
 7516TIP3    H122512   1.524   6.766   2.047 -1.7750  0.1664  1.8330
 7516TIP3    H222513   1.485   6.652   2.137 -1.1527 -1.5275  0.0292
 7517TIP3   OH222514   6.601   2.441   4.436 -0.2922 -0.2113 -0.4110
 7517TIP3    H122515   6.511   2.469   4.453 -0.8344 -1.6841 -0.7334
 7517TIP3    H222516   6.647   2.522   4.411 -1.7541  0.4191 -1.1606
 7518TIP3   OH222517   2.552   3.064   0.123  0.0508 -0.1110  0.2200
 7518TIP3    H122518   2.501   3.111   0.189  1.7226  1.3074  0.6001
 7518TIP3    H222519   2.599   2.997   0.173 -0.7224 -0.8116  0.0190
 7519TIP3   OH222520   1.204   3.601   2.160  0.1024  0.5864 -0.4690
 7519TIP3    H122521   1.250   3.680   2.131  0.5216  0.3504 -0.4607
 7519TIP3    H222522   1.255   3.570   2.236  0.0035  0.2511 -0.5376
 7520TIP3   OH222523   3.794   6.398   4.417  0.1959 -0.2388 -0.5021
 7520TIP3    H122524   3.728   6.350   4.467  1.4745 -0.5462  0.9846
 7520TIP3    H222525   3.856   6.330   4.388  1.0680  0.2823  0.0921
 7521TIP3   OH222526   1.674   5.796   3.900  0.4376  0.2334  0.0510
 7521TIP3    H122527   1.647   5.767   3.813  3.2903 -0.1398 -0.8035
 7521TIP3    H222528   1.733   5.870   3.884 -2.0278  2.8705  1.9424
 7522TIP3   OH222529   2.445   0.502   3.525 -0.2887  0.3419 -0.5697
 7522TIP3    H122530   2.440   0.487   3.431 -1.5272 -0.4332 -0.4048
 7522TIP3    H222531   2.360   0.539   3.548  0.2924  1.2885  0.1275
 7523TIP3   OH222532   1.230   6.066   5.045 -0.4709 -0.0354 -0.0793
 7523TIP3    H122533   1.223   6.027   4.958 -1.1998  0.3212 -0.1826
 7523TIP3    H222534   1.304   6.125   5.039  1.6628 -2.4496  0.4865
 7524TIP3   OH222535   6.675   1.591   5.141  0.4614 -1.1384 -0.4004
 7524TIP3    H122536   6.683   1.557   5.052  1.8034 -0.6437 -0.5006
 7524TIP3    H222537   6.630   1.522   5.189  0.6309 -1.8493 -1.2277
 7525TIP3   OH222538   6.895   0.218   1.308  0.2464  0.1361 -0.0309
 7525TIP3    H122539   6.929   0.188   1.393  0.4937 -1.0574 -0.5358
 7525TIP3    H222540   6.826   0.155   1.287  1.2556 -0.5234 -1.4573
 7526TIP3   OH222541   4.913   3.123   2.201  0.4341  0.9081 -0.1659
 7526TIP3    H122542   5.000   3.143   2.235 -0.5173 -0.9683  4.0073
 7526TIP3    H222543   4.921   3.037   2.161  0.3483  0.1129  1.4371
 7527TIP3   OH222544   3.565   6.144   5.154 -0.9349  0.1856 -0.0889
 7527TIP3    H122545   3.504   6.075   5.127 -0.0384  0.2363 -2.5798
 7527TIP3    H222546   3.651   6.102   5.152 -0.5750  0.8964  0.2463
 7528TIP3   OH222547   2.166   6.657   3.588  0.2075  0.2752  0.4012
 7528TIP3    H122548   2.183   6.751   3.580 -1.6351  0.7157  1.0934
 7528TIP3    H222549   2.129   6.632   3.503 -0.4028  0.4664  0.5996
 7529TIP3   OH222550   0.558   4.176   3.019  0.3133  0.7395  0.2091
 7529TIP3    H122551   0.506   4.255   3.035  1.1497  1.7878 -1.8674
 7529TIP3    H222552   0.526   4.142   2.936 -0.4557 -1.5430  1.3454
 7530TIP3   OH222553   6.429   0.640   0.804 -0.3584 -0.4034  0.1305
 7530TIP3    H122554   6.362   0.676   0.746 -0.2431 -1.0580 -0.4323
 7530TIP3    H222555   6.500   0.705   0.802 -0.1772 -0.6026 -0.8210
 7531TIP3   OH222556   3.393   5.640   1.571  0.6836  0.6956  0.3741
 7531TIP3    H122557   3.363   5.728   1.548  0.0394  0.6267  0.9441
 7531TIP3    H222558   3.459   5.654   1.639  0.7099  0.7406  0.3399
 7532TIP3   OH222559   2.866   3.002   0.026 -0.0168  0.9427 -0.8313
 7532TIP3    H122560   2.858   3.036   0.115  1.7748  1.1644 -0.7151
 7532TIP3    H222561   2.778   2.972   0.003 -0.3367  0.0042  1.3763
 7533TIP3   OH222562   6.965   0.173   4.159 -0.2417  0.0182  0.1405
 7533TIP3    H122563   6.918   0.090   4.152 -0.2783 -0.0787  1.4591
 7533TIP3    H222564   6.897   0.240   4.152 -0.1895 -0.0233 -1.1490
 7534TIP3   OH222565   3.962   1.918   0.667  0.2417  0.1610  0.8727
 7534TIP3    H122566   3.959   2.012   0.682 -1.4542  0.2934 -0.0368
 7534TIP3    H222567   3.998   1.908   0.579 -1.0916  0.0805  0.3118
 7535TIP3   OH222568   3.733   4.530   4.058  0.1868  0.2042  0.2500
 7535TIP3    H122569   3.639   4.533   4.037  0.3695 -0.2799 -0.6966
 7535TIP3    H222570   3.770   4.606   4.012  0.7767 -1.5150 -2.3371
 7536TIP3   OH222571   0.949   0.561   5.645  0.1038  0.0026 -0.5252
 7536TIP3    H122572   1.031   0.594   5.608  2.3896 -1.0997  3.0749
 7536TIP3    H222573   0.964   0.467   5.657 -1.3612 -0.0779  0.9455
 7537TIP3   OH222574   3.185   5.771   3.652 -0.1971  0.2093  0.3731
 7537TIP3    H122575   3.177   5.767   3.557  0.4187 -1.4757  0.3648
 7537TIP3    H222576   3.116   5.831   3.679 -0.1699  0.9875 -1.1469
 7538TIP3   OH222577   1.102   0.223   0.552 -0.3570 -0.0603 -0.5765
 7538TIP3    H122578   1.167   0.152   0.552 -1.0191 -0.6877 -1.0595
 7538TIP3    H222579   1.090   0.245   0.644 -1.3892 -1.7738 -0.2526
 7539TIP3   OH222580   4.305   6.073   2.770  0.8101 -0.2738  0.8777
 7539TIP3    H122581   4.343   6.032   2.692 -1.2153  0.3005 -0.4728
 7539TIP3    H222582   4.295   6.001   2.833  2.6095 -0.7127  0.7213
 7540TIP3   OH222583   4.346   6.213   0.877  0.4501 -0.6897 -0.1055
 7540TIP3    H122584   4.316   6.198   0.787  0.5204 -3.3136  0.2126
 7540TIP3    H222585   4.441   6.221   0.870  0.3057  1.1211 -0.4291
 7541TIP3   OH222586   1.744   1.302   0.827 -0.1628  0.1522  0.2735
 7541TIP3    H122587   1.805   1.255   0.770 -0.1813  0.1356  0.2675
 7541TIP3    H222588   1.681   1.236   0.856 -1.2895  0.5201 -1.2010
 7542TIP3   OH222589   0.631   2.437   0.895 -0.4441 -0.1454 -0.4986
 7542TIP3    H122590   0.660   2.498   0.963  1.5077 -2.4828  0.9501
 7542TIP3    H222591   0.537   2.430   0.907 -0.1195 -0.9818  2.5530
 7543TIP3   OH222592   3.322   3.762   3.168 -1.0040  0.1320 -0.0657
 7543TIP3    H122593   3.416   3.748   3.173 -1.1301 -0.2095  2.4876
 7543TIP3    H222594   3.306   3.837   3.226 -2.2255  0.7749 -1.1717
 7544TIP3   OH222595   2.128   5.260   5.721 -0.5102 -0.5605  0.1569
 7544TIP3    H122596   2.086   5.261   5.635 -0.5209 -2.8199  0.0837
 7544TIP3    H222597   2.060   5.288   5.782 -0.7742  0.1576 -0.4520
 7545TIP3   OH222598   1.201   2.043   5.637  0.4545 -0.3604  0.9104
 7545TIP3    H122599   1.179   2.135   5.622 -0.7996 -0.7805  0.0078
 7545TIP3    H222600   1.278   2.026   5.582 -1.4896 -0.7496 -1.9077
 7546TIP3   OH222601   4.939   4.001   1.500 -0.4799 -0.0108  0.1597
 7546TIP3    H122602   4.862   4.051   1.475  0.0761  1.2242  0.8354
 7546TIP3    H222603   4.976   4.049   1.574 -1.0506 -2.5138  2.2248
 7547TIP3   OH222604   1.595   4.186   1.138  0.3244 -0.6525 -0.7301
 7547TIP3    H122605   1.606   4.130   1.061 -1.1876  0.0462 -1.5114
 7547TIP3    H222606   1.550   4.264   1.104 -1.9707 -1.0558  1.1304
 7548TIP3   OH222607   3.447   0.102   4.992 -0.2291  0.2071  0.1691
 7548TIP3    H122608   3.416   0.062   4.910  0.4965 -0.1588  0.0683
 7548TIP3    H222609   3.377   0.162   5.017  0.1046  1.3371 -1.4416
 7549TIP3   OH222610   1.632   3.331   5.873  0.7294  0.9794  0.5918
 7549TIP3    H122611   1.678   3.257   5.912  1.1046 -0.7822 -2.8213
 7549TIP3    H222612   1.702   3.385   5.834  0.2476  0.6923 -0.7426
 7550TIP3   OH222613   6.469   2.706   2.568  0.1392  0.1770  0.4122
 7550TIP3    H122614   6.401   2.657   2.522  0.5153  0.9388 -1.0145
 7550TIP3    H222615   6.470   2.669   2.656 -1.0197 -0.9285 -0.0124
 7551TIP3   OH222616   1.458   1.377   4.466  0.0964  0.2008 -0.1694
 7551TIP3    H122617   1.553   1.384   4.461  0.5507 -0.6765  3.8317
 7551TIP3    H222618   1.436   1.299   4.415  1.6998 -0.3957  0.0047
 7552TIP3   OH222619   5.560   5.267   0.120 -0.5503 -0.1835 -0.4240
 7552TIP3    H122620   5.655   5.264   0.109 -0.7616 -1.1713 -2.1357
 7552TIP3    H222621   5.530   5.333   0.057 -1.0196  0.1277  0.1085
 7553TIP3   OH222622   7.093   3.224   3.917 -0.0078 -0.1491 -0.2164
 7553TIP3    H122623   7.135   3.183   3.841  0.9561  1.2514 -0.4687
 7553TIP3    H222624   7.142   3.305   3.931  1.5593 -1.5573  3.5319
 7554TIP3   OH222625   4.198   5.293   1.596  0.8291 -0.0209  0.3710
 7554TIP3    H122626   4.288   5.264   1.582  1.0706  0.5582  0.6893
 7554TIP3    H222627   4.181   5.274   1.689  1.1717  1.2922  0.7307
 7555TIP3   OH222628   6.059   5.141   4.998 -0.6728 -0.0613 -0.0962
 7555TIP3    H122629   6.050   5.235   5.012 -0.7453 -0.0636 -0.1277
 7555TIP3    H222630   5.972   5.106   5.012 -0.8153 -0.0250 -0.8283
 7556TIP3   OH222631   1.822   1.266   2.822 -0.3309 -0.0841 -0.3340
 7556TIP3    H122632   1.839   1.349   2.867 -2.5889  0.2088  0.0711
 7556TIP3    H222633   1.822   1.201   2.892  1.0517 -0.4217 -0.6057
 7557TIP3   OH222634   2.101   0.497   5.008 -0.3834 -0.2563  0.3063
 7557TIP3    H122635   2.026   0.477   4.952 -1.0125  0.1250  0.9909
 7557TIP3    H222636   2.135   0.412   5.033 -1.1696 -0.4507  0.7416
 7558TIP3   OH222637   0.316   3.443   1.387  0.2734  0.1091  0.0418
 7558TIP3    H122638   0.399   3.395   1.392  0.7540  0.9296  0.1366
 7558TIP3    H222639   0.309   3.488   1.471  0.9226  1.9287 -0.8136
 7559TIP3   OH222640   7.036   4.298   3.401 -0.1540 -0.4933  0.4994
 7559TIP3    H122641   7.009   4.275   3.312 -0.4575  0.6578  0.2884
 7559TIP3    H222642   7.097   4.228   3.425 -0.0527 -0.8143 -0.6125
 7560TIP3   OH222643   4.490   1.747   1.551  0.2089 -0.4509 -0.3106
 7560TIP3    H122644   4.467   1.840   1.550  2.4046  0.1708  0.5993
 7560TIP3    H222645   4.443   1.710   1.477 -0.9423  1.3319 -0.5266
 7561TIP3   OH222646   2.370   0.628   1.631 -0.0017  0.6646  0.0114
 7561TIP3    H122647   2.314   0.581   1.569 -0.3300  1.2340 -0.1310
 7561TIP3    H222648   2.372   0.572   1.708  0.3684 -0.0261 -0.4949
 7562TIP3   OH222649   1.613   5.542   3.988  0.1607  0.4188  0.0696
 7562TIP3    H122650   1.619   5.638   3.992  0.0413  0.4131  0.4103
 7562TIP3    H222651   1.630   5.521   3.896 -1.1273  0.8513 -0.2804
 7563TIP3   OH222652   4.725   1.858   3.059 -0.4606 -0.3847  0.0978
 7563TIP3    H122653   4.642   1.883   3.019 -1.7923 -1.4747  2.0099
 7563TIP3    H222654   4.765   1.941   3.086 -0.9206  0.1509 -0.8326
 7564TIP3   OH222655   0.865   2.170   1.483 -0.1864  1.0963  0.2906
 7564TIP3    H122656   0.773   2.177   1.510 -0.7652  1.0864 -1.5262
 7564TIP3    H222657   0.893   2.261   1.470  0.6008  1.2053  2.3739
 7565TIP3   OH222658   5.338   4.491   2.177  0.1662  0.4617 -0.1734
 7565TIP3    H122659   5.413   4.528   2.132  1.5163  0.2107  1.7715
 7565TIP3    H222660   5.298   4.432   2.112  2.0650  0.0286 -1.0041
 7566TIP3   OH222661   4.894   3.401   4.774  0.4030 -0.2678  0.6315
 7566TIP3    H122662   4.977   3.399   4.821  0.4880  0.3783  0.5088
 7566TIP3    H222663   4.916   3.429   4.686 -0.1414  1.5913  1.0421
 7567TIP3   OH222664   5.235   6.414   1.213  0.1225  0.0170 -0.0623
 7567TIP3    H122665   5.198   6.498   1.242 -1.0945 -0.7245  0.6219
 7567TIP3    H222666   5.188   6.394   1.132 -0.5238 -0.6111  0.4585
 7568TIP3   OH222667   5.635   0.885   2.108  0.0298  0.3869 -0.7180
 7568TIP3    H122668   5.624   0.942   2.184 -0.1617  1.0584 -1.2452
 7568TIP3    H222669   5.546   0.861   2.083  0.0536  0.7081 -1.1305
 7569TIP3   OH222670   0.559   5.427   4.783  0.1698  0.1182  0.5160
 7569TIP3    H122671   0.530   5.339   4.758  0.9070  0.6648 -2.6563
 7569TIP3    H222672   0.654   5.422   4.783  0.2173  0.8838  0.3128
 7570TIP3   OH222673   0.143   0.210   1.461  0.0149 -0.0353 -0.0995
 7570TIP3    H122674   0.111   0.209   1.551  0.0522 -0.3185 -0.0908
 7570TIP3    H222675   0.091   0.278   1.418  1.2576  1.4190  0.5971
 7571TIP3   OH222676   6.263   3.434   5.059 -0.2006  0.2081 -0.6011
 7571TIP3    H122677   6.319   3.473   4.992  0.2155  1.0422  0.2126
 7571TIP3    H222678   6.290   3.342   5.063  0.9341  0.5463 -0.3938
 7572TIP3   OH222679   0.602   5.808   0.555  0.2736  0.2387  0.5130
 7572TIP3    H122680   0.593   5.714   0.538  3.3376  0.0264 -0.5992
 7572TIP3    H222681   0.547   5.850   0.489  1.6160 -0.8007 -1.3591
 7573TIP3   OH222682   0.122   0.788   1.979 -0.4732 -0.2673  0.4098
 7573TIP3    H122683   0.036   0.748   1.977 -0.4586 -0.2651 -0.2025
 7573TIP3    H222684   0.133   0.827   1.892  0.7333 -1.5017 -0.0146
 7574TIP3   OH222685   4.966   3.004   4.675 -0.7386 -0.1980  0.3378
 7574TIP3    H122686   4.933   3.008   4.765  0.0558 -0.9790  0.6822
 7574TIP3    H222687   4.950   2.914   4.649 -1.7697  0.2446 -0.6447
 7575TIP3   OH222688   4.187   6.566   4.173 -0.1519  0.0414  0.3533
 7575TIP3    H122689   4.263   6.513   4.198  0.8581  1.0346 -0.5171
 7575TIP3    H222690   4.198   6.648   4.222 -0.0747  0.6023 -0.5930
 7576TIP3   OH222691   5.618   5.199   2.090  0.1005 -0.1122 -0.3408
 7576TIP3    H122692   5.548   5.183   2.028 -1.4820 -0.8220  1.5448
 7576TIP3    H222693   5.635   5.115   2.131  0.0277  0.6207  1.2685
 7577TIP3   OH222694   0.938   1.095   5.268 -0.2107 -0.0840  0.0872
 7577TIP3    H122695   0.915   1.119   5.358 -1.1991  1.1970 -0.4714
 7577TIP3    H222696   1.019   1.044   5.277  0.0012  0.4618  1.6563
 7578TIP3   OH222697   1.717   5.462   5.817  0.6054  0.0141 -0.2304
 7578TIP3    H122698   1.638   5.497   5.776  0.0629  0.9049  1.4810
 7578TIP3    H222699   1.715   5.369   5.794  0.0956  0.3688 -1.7864
 7579TIP3   OH222700   0.753   0.672   3.910 -0.8546 -0.1608 -0.1471
 7579TIP3    H122701   0.803   0.633   3.981 -1.4629 -0.0505  0.3468
 7579TIP3    H222702   0.701   0.741   3.951 -0.8603  0.2229 -0.7753
 7580TIP3   OH222703   5.328   1.074   2.729 -0.1252  0.3091 -0.5811
 7580TIP3    H122704   5.403   1.133   2.729 -1.7337  2.4932 -1.0602
 7580TIP3    H222705   5.297   1.074   2.819  0.3642 -0.4902 -0.4094
 7581TIP3   OH222706   2.517   2.663   0.690  0.5078  0.1392  0.3147
 7581TIP3    H122707   2.487   2.586   0.641 -0.5945  0.1401  0.9436
 7581TIP3    H222708   2.443   2.724   0.686  1.1230  0.9067  0.3858
 7582TIP3   OH222709   5.189   3.791   4.873  0.0879  0.2479  0.3403
 7582TIP3    H122710   5.213   3.699   4.883 -0.2412  0.2732  1.5210
 7582TIP3    H222711   5.266   3.831   4.831 -0.6472 -0.9577 -2.4016
 7583TIP3   OH222712   2.519   4.304   5.145 -0.0226  0.7996  0.0755
 7583TIP3    H122713   2.605   4.262   5.135 -0.9810 -1.1377 -0.4176
 7583TIP3    H222714   2.496   4.290   5.237  1.1282  3.3388  0.8402
 7584TIP3   OH222715   3.452   2.265   3.051 -0.5521  0.1461  0.5468
 7584TIP3    H122716   3.481   2.193   3.108  1.1255  0.7581  0.5029
 7584TIP3    H222717   3.413   2.221   2.976  0.1258 -0.7285  0.6848
 7585TIP3   OH222718   3.679   6.584   1.332  0.1677  0.2284 -0.3262
 7585TIP3    H122719   3.608   6.636   1.369  1.5733  0.9166  1.5798
 7585TIP3    H222720   3.655   6.494   1.350 -0.2463  0.4524  0.2543
 7586TIP3   OH222721   4.247   3.478   0.563  0.5099  0.1960  0.0091
 7586TIP3    H122722   4.207   3.484   0.650  2.2050  0.6439  0.8213
 7586TIP3    H222723   4.321   3.539   0.567  0.5236  0.3493 -1.8261
 7587TIP3   OH222724   5.564   0.879   2.713  0.0918  0.6277 -0.8288
 7587TIP3    H122725   5.618   0.940   2.762 -1.3331  0.9863  0.4005
 7587TIP3    H222726   5.474   0.905   2.734 -0.6616 -3.0479  1.4254
 7588TIP3   OH222727   5.658   5.674   4.074 -0.0104  0.2122 -0.3214
 7588TIP3    H122728   5.661   5.612   4.147  1.4251  1.2670  0.5664
 7588TIP3    H222729   5.733   5.732   4.089 -1.5307  2.4181 -0.8791
 7589TIP3   OH222730   3.548   2.769   0.280 -0.1579  0.2646 -0.4127
 7589TIP3    H122731   3.536   2.863   0.269 -0.8591 -0.0031 -2.4075
 7589TIP3    H222732   3.642   2.756   0.277  0.0019  0.9756  0.8483
 7590TIP3   OH222733   5.869   1.502   4.640  0.6128  0.4669  0.6770
 7590TIP3    H122734   5.816   1.482   4.563  2.0045  2.3881 -0.8536
 7590TIP3    H222735   5.831   1.582   4.675  0.1984 -0.2113  1.8518
 7591TIP3   OH222736   4.390   4.397   0.131  0.3237  0.4196  0.0464
 7591TIP3    H122737   4.450   4.377   0.059  0.5391  3.0271 -0.5867
 7591TIP3    H222738   4.388   4.492   0.135 -1.8012  0.3754  1.7563
 7592TIP3   OH222739   0.256   2.159   4.009  0.4642 -0.3747 -0.1230
 7592TIP3    H122740   0.198   2.223   3.966  0.4950  0.3030  0.8206
 7592TIP3    H222741   0.333   2.209   4.035  0.3079 -0.6946  1.0037
 7593TIP3   OH222742   6.210   5.256   1.295 -0.5101  0.4779 -0.4321
 7593TIP3    H122743   6.169   5.282   1.377 -1.2346 -0.8858 -0.3310
 7593TIP3    H222744   6.235   5.164   1.308 -1.8097 -0.1790 -2.1442
 7594TIP3   OH222745   3.692   2.137   0.136  0.2388 -0.2824  0.4723
 7594TIP3    H122746   3.623   2.082   0.174  0.8646 -1.6683 -0.3279
 7594TIP3    H222747   3.656   2.226   0.139 -0.7134 -0.6824  2.0177
 7595TIP3   OH222748   5.745   3.034   3.974  0.1194  0.2787  0.5114
 7595TIP3    H122749   5.675   3.052   3.910 -0.5859  2.1369  1.7018
 7595TIP3    H222750   5.698   3.018   4.056  1.0063 -2.1638  0.6083
 7596TIP3   OH222751   2.399   3.155   5.018  0.0580 -0.1196  0.0184
 7596TIP3    H122752   2.374   3.105   4.940 -1.6374 -2.3325  1.8231
 7596TIP3    H222753   2.377   3.245   4.997 -2.6205 -0.9733 -1.2766
 7597TIP3   OH222754   5.338   4.398   1.924 -0.0560  0.5321  0.5172
 7597TIP3    H122755   5.401   4.466   1.947 -0.8780  0.9974  1.5030
 7597TIP3    H222756   5.359   4.375   1.834  1.6234  0.5331  0.8913
 7598TIP3   OH222757   3.586   5.987   5.464 -0.2972 -0.4534 -0.6353
 7598TIP3    H122758   3.576   5.955   5.554  1.0173 -3.2964 -1.3533
 7598TIP3    H222759   3.675   6.024   5.462 -0.7271  0.6177 -0.5375
 7599TIP3   OH222760   2.034   1.859   0.993 -0.7865  0.2837 -0.3198
 7599TIP3    H122761   2.049   1.835   1.084 -1.3002 -0.2787 -0.3766
 7599TIP3    H222762   2.114   1.903   0.966  0.4941 -1.9406 -0.4037
 7600TIP3   OH222763   0.855   5.822   5.204 -0.1451  0.2041 -0.6511
 7600TIP3    H122764   0.840   5.733   5.236 -1.9092  0.5442 -0.4456
 7600TIP3    H222765   0.908   5.811   5.125 -1.4418 -1.1399 -1.3790
 7601TIP3   OH222766   2.467   5.946   4.296  0.3911  0.5826  1.0108
 7601TIP3    H122767   2.531   5.966   4.227 -0.3797 -2.3031 -0.7572
 7601TIP3    H222768   2.384   5.981   4.263 -0.1997 -1.7350 -0.2350
 7602TIP3   OH222769   3.727   6.578   0.297 -0.1521 -0.2510  0.6207
 7602TIP3    H122770   3.715   6.578   0.392 -0.6073 -3.0147  0.6357
 7602TIP3    H222771   3.653   6.527   0.264  0.5553 -0.1842 -1.1367
 7603TIP3   OH222772   1.526   1.530   2.276 -0.0057 -0.2149 -0.2877
 7603TIP3    H122773   1.601   1.478   2.248 -1.0164 -2.4891  0.9428
 7603TIP3    H222774   1.450   1.485   2.237 -1.0431 -0.6519  2.0441
 7604TIP3   OH222775   5.373   2.774   4.151 -0.0340 -0.1196  0.0583
 7604TIP3    H122776   5.373   2.719   4.230 -0.7871 -0.4482 -0.1584
 7604TIP3    H222777   5.429   2.727   4.089 -1.0756 -0.9269 -0.3023
 7605TIP3   OH222778   2.454   5.598   2.494 -0.4630 -0.5817 -0.4676
 7605TIP3    H122779   2.401   5.563   2.422 -1.9261 -1.0156  0.7695
 7605TIP3    H222780   2.398   5.588   2.572  1.0030  0.0252  0.7040
 7606TIP3   OH222781   3.780   3.473   5.168 -0.3683 -0.2253 -0.0253
 7606TIP3    H122782   3.875   3.476   5.169 -0.3157 -1.3729  1.2112
 7606TIP3    H222783   3.755   3.513   5.084  1.0390  3.0180  0.9604
 7607TIP3   OH222784   0.573   2.004   0.215  0.1442  0.6720  0.0052
 7607TIP3    H122785   0.647   1.943   0.204 -0.0044  0.4592  0.1719
 7607TIP3    H222786   0.553   2.033   0.126  1.9916  2.6276  0.1411
 7608TIP3   OH222787   3.782   5.121   5.306  0.3292  0.5782 -0.1131
 7608TIP3    H122788   3.760   5.128   5.399 -1.1306  1.6647 -0.5081
 7608TIP3    H222789   3.829   5.203   5.287  0.0407  0.6591 -0.4771
 7609TIP3   OH222790   3.135   3.294   5.665 -0.2612  0.0139  0.2960
 7609TIP3    H122791   3.156   3.387   5.655 -1.2247  0.4231  1.7344
 7609TIP3    H222792   3.194   3.263   5.734  0.3577 -0.5838 -0.4719
 7610TIP3   OH222793   4.166   4.720   3.161 -0.0495 -0.0376 -0.2630
 7610TIP3    H122794   4.252   4.678   3.157  0.6764  1.0422  2.0367
 7610TIP3    H222795   4.113   4.661   3.216  0.8752  1.6512  2.7001
 7611TIP3   OH222796   2.164   0.345   3.335 -0.6052 -0.4444 -0.1648
 7611TIP3    H122797   2.242   0.386   3.300 -2.3030  1.2102 -2.2935
 7611TIP3    H222798   2.155   0.380   3.424 -0.1293  1.0843 -0.7060
 7612TIP3   OH222799   1.159   1.292   1.274 -0.3883 -0.7656  0.7132
 7612TIP3    H122800   1.109   1.333   1.204  0.8032 -1.3974 -0.5389
 7612TIP3    H222801   1.128   1.336   1.354 -1.2070  0.5221 -0.2667
 7613TIP3   OH222802   0.691   3.005   4.404 -0.5696  0.4268  0.3831
 7613TIP3    H122803   0.615   2.957   4.437  0.2416 -0.6019  0.8075
 7613TIP3    H222804   0.688   2.993   4.309 -0.1099 -0.8946  0.5253
 7614TIP3   OH222805   0.980   4.688   0.309  0.6104  0.1906  0.0142
 7614TIP3    H122806   1.051   4.727   0.260  0.0711  1.6187  0.3188
 7614TIP3    H222807   0.976   4.739   0.390  1.5139 -2.1187  1.6259
 7615TIP3   OH222808   2.938   2.043   5.572 -0.1292  0.5081  0.1323
 7615TIP3    H122809   2.903   1.965   5.529 -0.4823  0.7337  0.0128
 7615TIP3    H222810   2.888   2.050   5.653 -1.2346  1.5394 -0.6198
 7616TIP3   OH222811   6.082   6.118   4.426  0.2295  0.0714 -0.4189
 7616TIP3    H122812   5.997   6.144   4.392 -0.3434  1.3447  1.7788
 7616TIP3    H222813   6.138   6.194   4.413  0.6966 -0.3133 -0.7249
 7617TIP3   OH222814   0.927   2.150   3.805 -0.0717 -0.1270 -0.1540
 7617TIP3    H122815   0.953   2.192   3.723  0.8019  0.2305  0.2898
 7617TIP3    H222816   0.979   2.070   3.808  2.7313  1.5829  1.7296
 7618TIP3   OH222817   4.504   5.447   1.816  0.2101  0.8040 -0.2738
 7618TIP3    H122818   4.506   5.481   1.726  0.7803  0.4091 -0.4133
 7618TIP3    H222819   4.514   5.353   1.807 -2.5359  0.4057  0.0464
 7619TIP3   OH222820   4.221   1.558   0.150  0.3774 -0.0334  0.0376
 7619TIP3    H122821   4.254   1.550   0.060  1.1150  0.8259  0.2180
 7619TIP3    H222822   4.145   1.615   0.142  1.3221  1.2774  0.1367
 7620TIP3   OH222823   1.107   6.796   2.515 -0.2624 -0.2548 -0.0065
 7620TIP3    H122824   1.195   6.814   2.548  1.2508 -1.8770 -2.7472
 7620TIP3    H222825   1.120   6.780   2.421 -3.5515 -0.3259 -0.5576
 7621TIP3   OH222826   1.149   5.979   3.444 -0.5357  0.3198  0.0762
 7621TIP3    H122827   1.054   5.976   3.453 -0.6785 -2.5610 -1.0765
 7621TIP3    H222828   1.182   5.994   3.533 -2.0719 -1.7479  1.0752
 7622TIP3   OH222829   0.906   1.778   5.218  0.4261  0.0070 -0.7894
 7622TIP3    H122830   0.910   1.830   5.299  0.5075  0.6598 -1.2102
 7622TIP3    H222831   0.959   1.701   5.238 -1.4123 -0.9860  0.5792
 7623TIP3   OH222832   6.948   3.214   0.581 -0.1784  0.5391 -0.4679
 7623TIP3    H122833   6.906   3.187   0.500 -1.3581 -0.0484  0.3186
 7623TIP3    H222834   7.026   3.159   0.588 -1.1751 -0.8725 -0.1851
 7624TIP3   OH222835   6.515   0.289   2.620 -0.4387 -0.1110 -0.2753
 7624TIP3    H122836   6.603   0.263   2.595  0.8349  0.3591  3.1101
 7624TIP3    H222837   6.473   0.207   2.647 -0.9537 -0.2879 -1.5682
 7625TIP3   OH222838   0.920   4.394   4.336  0.2756 -0.3407  0.5481
 7625TIP3    H122839   0.842   4.373   4.285  0.8408  0.6842 -0.8067
 7625TIP3    H222840   0.987   4.333   4.305  0.9132  0.9697 -0.7656
 7626TIP3   OH222841   4.968   6.556   0.532  0.2283  0.1333 -0.1621
 7626TIP3    H122842   5.006   6.625   0.479  0.3042  0.5253  0.3933
 7626TIP3    H222843   4.886   6.593   0.565 -0.7935 -0.7901 -1.5519
 7627TIP3   OH222844   0.472   5.732   3.215 -0.2303  0.0409 -0.4342
 7627TIP3    H122845   0.487   5.796   3.284  1.8345 -1.4322  0.6034
 7627TIP3    H222846   0.382   5.702   3.229 -0.3972  0.9423  0.5802
 7628TIP3   OH222847   0.657   4.956   3.676  0.0710 -0.3227 -0.6309
 7628TIP3    H122848   0.610   4.879   3.708 -1.0955 -0.2588 -2.0984
 7628TIP3    H222849   0.599   5.030   3.694  0.8378  0.1414  0.0478
 7629TIP3   OH222850   6.779   3.907   4.542  0.3767 -0.1534 -0.1042
 7629TIP3    H122851   6.808   3.843   4.477 -0.5354 -1.4372  0.6979
 7629TIP3    H222852   6.825   3.882   4.622  1.5714  1.4769 -0.2334
 7630TIP3   OH222853   1.525   3.127   1.661  0.1949 -0.2086  0.1541
 7630TIP3    H122854   1.606   3.107   1.614 -1.1448 -1.5622 -1.6751
 7630TIP3    H222855   1.545   3.104   1.752  1.4369 -1.8833 -0.4825
 7631TIP3   OH222856   2.146   3.542   2.926  0.1950  0.2257 -0.7396
 7631TIP3    H122857   2.176   3.501   3.007 -0.5767 -1.7426 -1.3861
 7631TIP3    H222858   2.215   3.523   2.862  0.9899  2.1102 -0.5131
 7632TIP3   OH222859   2.197   6.425   3.149  0.2906 -0.2301  0.0512
 7632TIP3    H122860   2.145   6.387   3.078 -0.4211 -0.0559  0.4703
 7632TIP3    H222861   2.254   6.488   3.105  0.3141 -0.5944 -0.4462
 7633TIP3   OH222862   2.993   5.298   5.209  0.3488  0.0775 -0.0968
 7633TIP3    H122863   3.081   5.307   5.246  0.5704  0.2172 -0.6488
 7633TIP3    H222864   2.991   5.361   5.137  0.7267 -1.7906 -1.8188
 7634TIP3   OH222865   3.732   4.796   3.943 -0.5240  0.7756  0.4428
 7634TIP3    H122866   3.695   4.831   3.862 -0.9240 -0.3294  0.1368
 7634TIP3    H222867   3.765   4.873   3.989  0.3687  1.3619 -1.0906
 7635TIP3   OH222868   6.862   3.690   4.927  0.2541 -0.3500 -0.1949
 7635TIP3    H122869   6.844   3.611   4.876 -0.6812  0.2622 -0.8631
 7635TIP3    H222870   6.785   3.700   4.984  1.4319 -1.2034  1.6290
 7636TIP3   OH222871   0.680   3.722   1.279 -0.1384 -0.1552 -0.4906
 7636TIP3    H122872   0.589   3.700   1.259 -0.3517 -1.6008  1.7115
 7636TIP3    H222873   0.676   3.806   1.324 -0.6542 -1.0492  1.2231
 7637TIP3   OH222874   0.528   5.680   4.598  0.2030  0.0543 -0.3921
 7637TIP3    H122875   0.507   5.742   4.669  0.7182 -1.2760  0.9865
 7637TIP3    H222876   0.518   5.594   4.639  2.4518 -0.7297 -1.3601
 7638TIP3   OH222877   4.629   4.047   1.459  0.2084 -0.0915 -0.3008
 7638TIP3    H122878   4.599   4.004   1.539 -0.6948 -1.7516 -1.4700
 7638TIP3    H222879   4.619   4.141   1.477 -0.0151 -0.4253  1.4967
 7639TIP3   OH222880   2.118   2.860   0.944 -0.1068 -0.3990  0.0715
 7639TIP3    H122881   2.081   2.940   0.982 -1.9923 -1.1772 -0.0154
 7639TIP3    H222882   2.209   2.859   0.975  0.6103  2.7187 -1.4650
 7640TIP3   OH222883   5.727   2.430   0.712  0.0190 -0.4078 -0.2961
 7640TIP3    H122884   5.644   2.420   0.665  0.2964 -1.4832 -0.6066
 7640TIP3    H222885   5.703   2.463   0.798 -0.7699 -1.0458 -0.2595
 7641TIP3   OH222886   3.092   5.361   0.868  0.3875 -1.2971 -0.2780
 7641TIP3    H122887   2.998   5.377   0.875  0.1539 -2.5295 -0.3473
 7641TIP3    H222888   3.112   5.300   0.939  1.2152 -0.7606 -0.0329
 7642TIP3   OH222889   6.242   3.498   1.378 -0.1325 -0.0922 -0.0011
 7642TIP3    H122890   6.269   3.509   1.469 -0.8035  0.6435  0.1227
 7642TIP3    H222891   6.177   3.428   1.380  0.1485 -0.3523  0.0260
 7643TIP3   OH222892   2.430   4.999   2.368 -0.4112 -0.0343  0.1141
 7643TIP3    H122893   2.446   5.047   2.287 -1.7997  0.4578  0.1116
 7643TIP3    H222894   2.490   4.923   2.362  1.3019  1.2727 -0.1881
 7644TIP3   OH222895   3.837   6.137   0.972  0.1714 -0.1555  0.2750
 7644TIP3    H122896   3.787   6.210   0.936 -0.2107 -0.7810 -0.4964
 7644TIP3    H222897   3.788   6.110   1.049 -0.2169 -0.2239  0.0048
 7645TIP3   OH222898   6.454   2.454   5.722  0.1702 -0.2491 -0.1654
 7645TIP3    H122899   6.369   2.478   5.760  0.5535 -0.4386  0.8508
 7645TIP3    H222900   6.435   2.432   5.631 -0.8941 -0.4268  0.0942
 7646TIP3   OH222901   1.680   4.236   2.200 -0.0335  0.0106  0.0398
 7646TIP3    H122902   1.766   4.263   2.167 -1.0508  1.0801 -1.9588
 7646TIP3    H222903   1.631   4.318   2.207 -1.3337 -0.7125 -0.3105
 7647TIP3   OH222904   0.329   5.290   5.217 -1.0220  0.6781  0.2048
 7647TIP3    H122905   0.313   5.322   5.128 -0.4420 -1.1319 -0.6008
 7647TIP3    H222906   0.287   5.204   5.219  2.2008 -1.0474  0.3380
 7648TIP3   OH222907   3.938   1.018   3.251  0.7014 -0.3670 -0.0222
 7648TIP3    H122908   3.886   0.968   3.315 -0.0796 -0.0303 -0.3851
 7648TIP3    H222909   3.952   1.102   3.293 -1.6422  0.6600 -1.0856
 7649TIP3   OH222910   0.491   1.829   2.815  0.7604 -0.0143 -0.0375
 7649TIP3    H122911   0.495   1.761   2.882  0.9835 -0.0704 -0.1080
 7649TIP3    H222912   0.512   1.783   2.733 -1.1063 -0.2903 -0.3985
 7650TIP3   OH222913   6.636   2.432   1.452  0.3006  0.0625  1.1680
 7650TIP3    H122914   6.626   2.342   1.484 -1.1189 -0.2264  0.0365
 7650TIP3    H222915   6.610   2.487   1.526 -0.6834 -0.5271  1.2873
 7651TIP3   OH222916   2.256   0.470   1.398 -0.9901 -0.0990 -0.3507
 7651TIP3    H122917   2.308   0.390   1.395 -2.6723 -1.2284 -0.4415
 7651TIP3    H222918   2.166   0.440   1.405 -1.5646  1.7864  1.5843
 7652TIP3   OH222919   5.344   4.833   2.726 -0.0298  0.6280  0.7925
 7652TIP3    H122920   5.387   4.901   2.777 -1.0266  1.3711  0.6743
 7652TIP3    H222921   5.290   4.880   2.663 -0.2634 -0.2717  0.2907
 7653TIP3   OH222922   4.408   4.658   0.037 -0.4326 -0.2267  0.4137
 7653TIP3    H122923   4.330   4.714   0.038  0.2080  0.6668  0.7999
 7653TIP3    H222924   4.480   4.716   0.061 -0.1161 -1.7706  3.7816
 7654TIP3   OH222925   6.202   0.089   1.777  0.2843 -0.0533 -0.0137
 7654TIP3    H122926   6.221   0.032   1.703 -1.7317  0.2322 -0.8276
 7654TIP3    H222927   6.142   0.155   1.743  1.6647  1.9446  1.1799
 7655TIP3   OH222928   6.365   2.312   3.660  0.1072 -0.0694  0.2856
 7655TIP3    H122929   6.426   2.239   3.661 -1.3037 -1.3667 -1.4467
 7655TIP3    H222930   6.417   2.385   3.626  0.9801 -0.8328 -0.0724
 7656TIP3   OH222931   6.209   1.345   1.072  0.3260 -0.2374 -0.0610
 7656TIP3    H122932   6.163   1.265   1.048 -1.3842  0.7230 -0.1452
 7656TIP3    H222933   6.302   1.321   1.072  0.1857 -1.2931 -3.7935
 7657TIP3   OH222934   3.014   3.095   1.391  0.0409  0.1736  0.2850
 7657TIP3    H122935   3.109   3.090   1.401 -0.1332 -0.1876  2.1804
 7657TIP3    H222936   2.998   3.079   1.298  1.8795  1.2374 -0.2668
 7658TIP3   OH222937   3.011   6.585   5.865 -0.0633 -0.2314  0.6616
 7658TIP3    H122938   2.944   6.517   5.856 -0.8993  0.4334  1.6394
 7658TIP3    H222939   3.043   6.598   5.776 -1.9611  0.1301 -0.0282
 7659TIP3   OH222940   2.974   1.371   3.211  0.3621  0.2006  0.3425
 7659TIP3    H122941   3.035   1.349   3.281  0.2609 -0.0378  0.3540
 7659TIP3    H222942   3.030   1.406   3.141  0.4503  0.5449  0.5840
 7660TIP3   OH222943   4.532   4.113   5.753 -0.1406 -0.3785 -0.4904
 7660TIP3    H122944   4.511   4.151   5.668 -1.6427 -0.0199  0.0030
 7660TIP3    H222945   4.464   4.147   5.811 -0.9390 -2.9866  0.2135
 7661TIP3   OH222946   1.322   3.693   4.924  0.3313 -0.1423 -0.5333
 7661TIP3    H122947   1.382   3.759   4.891  0.5431  0.2013  0.5069
 7661TIP3    H222948   1.337   3.691   5.019  0.4268 -1.7738 -0.5469
 7662TIP3   OH222949   5.428   0.227   2.740 -0.1149  0.1500  0.0212
 7662TIP3    H122950   5.372   0.159   2.703 -1.1958  0.4947  0.9700
 7662TIP3    H222951   5.368   0.286   2.785  0.9609  0.8326  0.6076
 7663TIP3   OH222952   3.670   3.290   2.204 -0.3290  0.3196 -0.1388
 7663TIP3    H122953   3.726   3.367   2.198 -0.8965  0.7417 -0.1591
 7663TIP3    H222954   3.645   3.285   2.296  1.3906 -1.0808  0.2912
 7664TIP3   OH222955   0.810   0.880   0.698  0.2228 -0.4108  0.0993
 7664TIP3    H122956   0.883   0.869   0.637  1.2859  1.9394  0.8245
 7664TIP3    H222957   0.738   0.911   0.643 -0.4129 -2.9964 -0.6664
 7665TIP3   OH222958   2.449   0.886   0.751  0.6521  0.1701 -0.4047
 7665TIP3    H122959   2.365   0.913   0.789  1.1363 -0.4262  1.1542
 7665TIP3    H222960   2.489   0.831   0.818  1.1274 -1.7727 -2.1872
 7666TIP3   OH222961   1.148   6.502   0.714  0.8296 -0.1033 -0.6469
 7666TIP3    H122962   1.082   6.522   0.780  1.2008 -4.7728  1.5231
 7666TIP3    H222963   1.098   6.481   0.635  0.3065  3.4305 -1.4646
 7667TIP3   OH222964   0.147   3.281   2.379 -0.4449 -0.5325  0.3916
 7667TIP3    H122965   0.100   3.286   2.295 -0.9212 -0.4149  0.6606
 7667TIP3    H222966   0.226   3.230   2.360 -0.2699 -0.0340 -0.2566
 7668TIP3   OH222967   4.782   2.449   2.961  0.1966  0.2503 -0.2469
 7668TIP3    H122968   4.855   2.428   2.903 -0.3358  0.6588 -1.0971
 7668TIP3    H222969   4.819   2.447   3.049  1.3472  0.9753 -0.7020
 7669TIP3   OH222970   2.650   1.995   3.303 -0.0744  0.2095 -0.3185
 7669TIP3    H122971   2.582   1.929   3.320 -1.1853  1.2292 -0.6927
 7669TIP3    H222972   2.632   2.026   3.214 -0.1176  1.6463  0.1647
 7670TIP3   OH222973   0.088   6.638   1.399  0.4315  0.3419  0.6374
 7670TIP3    H122974   0.031   6.661   1.472  1.6490 -1.3425  2.2016
 7670TIP3    H222975   0.174   6.673   1.422  1.4488 -2.3547  1.3416
 7671TIP3   OH222976   6.084   0.444   1.737  0.3755 -1.0773  0.3706
 7671TIP3    H122977   6.167   0.433   1.690  0.4813 -0.6191  0.4495
 7671TIP3    H222978   6.033   0.366   1.714  1.1954 -1.8479  1.0919
 7672TIP3   OH222979   5.801   1.863  -0.015 -0.9551  0.3298 -0.3394
 7672TIP3    H122980   5.856   1.940  -0.000 -1.3620  0.5267  0.1896
 7672TIP3    H222981   5.762   1.845   0.071 -0.6174 -0.6537 -0.3873
 7673TIP3   OH222982   2.614   0.172   4.272 -0.0207 -0.4147 -0.2683
 7673TIP3    H122983   2.613   0.255   4.224  1.9418 -1.2022 -1.7924
 7673TIP3    H222984   2.690   0.125   4.237 -0.4509 -2.4152  1.3254
 7674TIP3   OH222985   2.974   1.983   4.162  0.6067  0.3013 -0.2724
 7674TIP3    H122986   2.955   1.981   4.068 -0.3089 -0.3472 -0.0885
 7674TIP3    H222987   2.908   1.926   4.201  0.5013  1.1700  0.8595
 7675TIP3   OH222988   0.274   4.931   1.115  0.1720  0.0525  0.7724
 7675TIP3    H122989   0.330   4.997   1.157 -0.5689  0.6156  0.9102
 7675TIP3    H222990   0.255   4.868   1.185  0.0528  0.2459  0.9135
 7676TIP3   OH222991   6.567   3.577   2.166 -0.0069 -0.1114  0.3226
 7676TIP3    H122992   6.658   3.586   2.195  0.0529 -1.6085  0.6362
 7676TIP3    H222993   6.528   3.514   2.227 -0.5451 -1.4844 -1.3778
 7677TIP3   OH222994   5.974   6.238   5.807 -0.3274 -0.6697 -0.5268
 7677TIP3    H122995   6.028   6.311   5.839  0.0833 -0.9618 -0.5527
 7677TIP3    H222996   5.888   6.277   5.791 -0.0709 -0.1602 -0.6720
 7678TIP3   OH222997   5.324   1.177   1.520 -0.0687 -0.2125 -0.0349
 7678TIP3    H122998   5.280   1.176   1.604  0.6119  0.8388  0.3542
 7678TIP3    H222999   5.392   1.109   1.528 -0.3886 -0.5262  0.0410
 7679TIP3   OH223000   3.937   4.138   2.544  0.3324 -0.1408  0.0575
 7679TIP3    H123001   3.989   4.063   2.573  1.6443  1.0289  0.8787
 7679TIP3    H223002   3.993   4.184   2.482 -0.6778 -0.1162 -0.8764
 7680TIP3   OH223003   0.647   2.104   4.867  0.0766 -0.3098  0.0205
 7680TIP3    H123004   0.676   2.089   4.957  0.5950 -2.5997 -0.4701
 7680TIP3    H223005   0.572   2.046   4.856  0.5545 -0.7213 -1.2783
 7681TIP3   OH223006   1.883   2.100   0.952 -0.3951  0.1155  0.1111
 7681TIP3    H123007   1.920   2.019   0.988  0.1023  0.3311  0.0952
 7681TIP3    H223008   1.788   2.089   0.962 -0.4218 -1.0446 -1.1033
 7682TIP3   OH223009   1.605   5.087   2.153  0.2856 -0.4715  0.2005
 7682TIP3    H123010   1.674   5.039   2.199  0.5947 -0.2937 -0.0734
 7682TIP3    H223011   1.550   5.018   2.115  1.4233 -0.6405 -1.2318
 7683TIP3   OH223012   0.199   6.010   0.177  0.6450  0.0275  0.3451
 7683TIP3    H123013   0.278   5.970   0.214  1.6258  0.9401 -0.7048
 7683TIP3    H223014   0.176   5.955   0.102  0.1368 -0.3623  0.7775
 7684TIP3   OH223015   5.123   4.380   4.846 -0.4907 -0.4485 -0.0915
 7684TIP3    H123016   5.065   4.420   4.781  0.2229  1.5192  0.4312
 7684TIP3    H223017   5.152   4.298   4.804  0.3778  0.9842 -2.5303
 7685TIP3   OH223018   6.313   5.442   4.215 -0.5610 -0.5456  0.1714
 7685TIP3    H123019   6.364   5.374   4.259  0.7012  0.9531  1.1236
 7685TIP3    H223020   6.379   5.495   4.169 -1.6319 -0.6567 -1.5691
 7686TIP3   OH223021   0.702   4.003   0.436  0.0643  0.0034 -0.9453
 7686TIP3    H123022   0.630   3.978   0.377 -1.6912 -1.5817  1.6600
 7686TIP3    H223023   0.770   3.938   0.420 -0.9095 -1.1922 -0.4193
 7687TIP3   OH223024   0.905   6.553   0.803 -0.4333 -0.6157 -0.0374
 7687TIP3    H123025   0.846   6.500   0.858 -2.3266  1.9060  0.5143
 7687TIP3    H223026   0.864   6.553   0.717  0.6792 -1.6820 -0.5981
 7688TIP3   OH223027   5.073   2.196   2.591 -0.5134  0.0495 -0.3309
 7688TIP3    H123028   5.137   2.125   2.593  0.1574  0.6287  2.6810
 7688TIP3    H223029   5.119   2.269   2.550 -0.8873 -0.8617 -2.5301
 7689TIP3   OH223030   3.654   6.694   3.493  0.0500  0.4908 -0.8045
 7689TIP3    H123031   3.673   6.761   3.428  0.2557  0.0364 -1.2145
 7689TIP3    H223032   3.646   6.613   3.443 -0.1313  0.1972 -0.3061
 7690TIP3   OH223033   2.908   5.918   2.994 -0.2002 -0.1394  0.5202
 7690TIP3    H123034   2.963   5.870   2.932 -0.2396 -0.0171  0.3920
 7690TIP3    H223035   2.826   5.868   2.997 -0.9252  0.8871 -0.9590
 7691TIP3   OH223036   5.826   4.369   0.448 -0.3886 -0.0295  0.2811
 7691TIP3    H123037   5.883   4.332   0.515  0.2661  1.8594  0.8423
 7691TIP3    H223038   5.883   4.383   0.372 -0.0960  1.6362  0.7608
 7692TIP3   OH223039   5.868   2.169   2.296  0.2500 -0.1945 -0.1486
 7692TIP3    H123040   5.961   2.159   2.319  0.1728 -1.3476 -0.2857
 7692TIP3    H223041   5.821   2.138   2.373 -0.0139 -0.8201 -0.5565
 7693TIP3   OH223042   1.753   2.573   4.258  0.0816 -0.8513 -0.0878
 7693TIP3    H123043   1.783   2.558   4.347 -1.7245 -4.4096  0.1029
 7693TIP3    H223044   1.819   2.531   4.203  2.7470  3.6974 -0.9456
 7694TIP3   OH223045   2.177   6.659   5.738 -0.1668 -0.5444 -0.2094
 7694TIP3    H123046   2.161   6.707   5.657 -2.2320 -1.6947 -0.5689
 7694TIP3    H223047   2.095   6.667   5.787  1.3404  0.9566  2.2882
 7695TIP3   OH223048   3.657   1.055   0.931  0.4152 -0.0672 -0.3626
 7695TIP3    H123049   3.686   1.131   0.881  0.8734 -0.3063 -0.4664
 7695TIP3    H223050   3.716   0.985   0.904 -0.5855 -0.6951 -0.9498
 7696TIP3   OH223051   0.393   2.772   1.153  0.0535  0.0975 -0.0420
 7696TIP3    H123052   0.427   2.766   1.064 -0.0012  0.6914 -0.1027
 7696TIP3    H223053   0.434   2.849   1.190 -1.4403  1.0222 -0.2189
 7697TIP3   OH223054   3.302   1.988   0.262 -0.5306 -0.0446 -0.1906
 7697TIP3    H123055   3.318   2.029   0.177 -0.8496  0.8543  0.1734
 7697TIP3    H223056   3.264   2.057   0.316 -1.9547 -1.0516  0.1666
 7698TIP3   OH223057   2.719   0.915   5.161  0.2594  0.1616 -0.4069
 7698TIP3    H123058   2.665   0.888   5.086  0.6070  0.5510 -0.8034
 7698TIP3    H223059   2.769   0.837   5.184  0.9286  0.3325 -1.2580
 7699TIP3   OH223060   4.739   1.374   1.310 -0.1896  0.1281 -0.3113
 7699TIP3    H123061   4.727   1.312   1.238  0.3562 -0.0023 -0.2932
 7699TIP3    H223062   4.824   1.415   1.293  0.9370 -1.3606  1.3359
 7700TIP3   OH223063   5.751   0.857   4.383 -0.2639 -0.0972  0.5843
 7700TIP3    H123064   5.705   0.935   4.353 -0.3168 -0.5598 -0.5648
 7700TIP3    H223065   5.800   0.826   4.307  0.2686 -0.8241  1.1972
 7701TIP3   OH223066   6.723   0.088   1.518 -0.7240 -0.2502 -0.1272
 7701TIP3    H123067   6.747   0.170   1.563 -2.9282  0.3096  0.1414
 7701TIP3    H223068   6.766   0.020   1.570  1.8785  0.7069 -0.8517
 7702TIP3   OH223069   4.053   3.957   0.079 -0.1160  0.1832  0.0479
 7702TIP3    H123070   4.100   3.991   0.003  0.8873 -0.8606  0.1693
 7702TIP3    H223071   4.068   4.021   0.148 -2.3009  1.9373 -0.9701
 7703TIP3   OH223072   1.445   0.566   3.724 -0.4214  0.6033  0.2446
 7703TIP3    H123073   1.356   0.543   3.698 -0.0191  0.3259 -0.9222
 7703TIP3    H223074   1.456   0.657   3.697 -0.9053  1.2149  1.9382
 7704TIP3   OH223075   2.729   3.353   5.837 -0.1094  0.4412  0.0619
 7704TIP3    H123076   2.772   3.322   5.757  0.9518 -1.4084  1.2631
 7704TIP3    H223077   2.796   3.404   5.882  0.7373 -1.9303  1.6476
 7705TIP3   OH223078   6.838   2.393   5.767  0.1508 -0.2630 -0.3274
 7705TIP3    H123079   6.883   2.400   5.683 -0.3241  1.2745 -0.4893
 7705TIP3    H223080   6.802   2.480   5.782 -0.8079 -0.8351  0.8946
 7706TIP3   OH223081   6.688   4.457   2.868  0.3672 -0.0389  0.1145
 7706TIP3    H123082   6.779   4.476   2.845 -0.1023 -0.4157 -2.3421
 7706TIP3    H223083   6.694   4.380   2.925  1.5894  0.3324  0.5407
 7707TIP3   OH223084   6.590   2.427   4.740 -0.6812 -0.1164 -0.1531
 7707TIP3    H123085   6.603   2.453   4.649 -0.0277 -0.2001 -0.0882
 7707TIP3    H223086   6.563   2.507   4.784  2.6862  0.9172  0.3339
 7708TIP3   OH223087   0.342   4.462   1.020  0.5849 -0.0766  0.2709
 7708TIP3    H123088   0.310   4.447   0.931  1.6967  0.1362 -0.1834
 7708TIP3    H223089   0.408   4.393   1.033  0.0687 -0.4258  1.1298
 7709TIP3   OH223090   0.047   0.649   4.422  0.2674  0.2478 -0.0253
 7709TIP3    H123091   0.107   0.666   4.495 -0.7242  0.8786  0.6704
 7709TIP3    H223092  -0.030   0.610   4.462 -0.7224  1.5583 -0.5669
 7710TIP3   OH223093   2.828   4.831   5.365 -0.5276  0.1005 -0.1514
 7710TIP3    H123094   2.734   4.811   5.367 -0.7905  0.6775 -3.1152
 7710TIP3    H223095   2.832   4.927   5.374 -0.2436  0.1224 -0.5259
 7711TIP3   OH223096   4.208   6.712   5.179 -0.0469 -0.4447 -0.3282
 7711TIP3    H123097   4.160   6.662   5.245 -1.0988  0.9828  0.0348
 7711TIP3    H223098   4.211   6.655   5.103  0.0434 -1.6045  0.5098
 7712TIP3   OH223099   1.049   6.215   2.234 -0.3357  0.0728  0.6672
 7712TIP3    H123100   0.954   6.208   2.226 -0.6829  1.1643  2.8641
 7712TIP3    H223101   1.070   6.298   2.191  0.1195 -1.4689 -2.3629
 7713TIP3   OH223102   1.324   5.919   0.409 -0.1688  0.1749  0.2079
 7713TIP3    H123103   1.398   5.886   0.360 -0.7019 -0.8459  0.0645
 7713TIP3    H223104   1.331   6.014   0.403 -1.0858  0.1425 -3.2074
 7714TIP3   OH223105   3.769   4.499   4.947  0.3338  0.1069  0.1792
 7714TIP3    H123106   3.853   4.473   4.910  1.9105  1.5535  2.5065
 7714TIP3    H223107   3.739   4.570   4.891  0.7215 -0.3031 -0.5673
 7715TIP3   OH223108   3.117   2.222   5.463 -0.0836 -0.5311  0.0808
 7715TIP3    H123109   3.052   2.155   5.486 -0.3539 -0.7185 -1.1360
 7715TIP3    H223110   3.196   2.195   5.509 -0.2213 -1.6239 -0.2832
 7716TIP3   OH223111   4.519   2.051   5.258  0.3952  0.2088  0.0696
 7716TIP3    H123112   4.533   2.126   5.201 -1.9239 -0.5708 -1.7159
 7716TIP3    H223113   4.435   2.069   5.301  0.8171 -0.4390  1.1953
 7717TIP3   OH223114   5.194   2.964   4.347 -0.0175  0.0984 -0.1938
 7717TIP3    H123115   5.197   3.010   4.430 -0.1765  0.5078 -0.4122
 7717TIP3    H223116   5.216   3.030   4.282  1.9809 -0.6271 -0.3310
 7718TIP3   OH223117   1.543   6.483   0.451 -0.1229 -0.4386  0.1657
 7718TIP3    H123118   1.625   6.447   0.485  1.0579  0.4533 -1.5844
 7718TIP3    H223119   1.570   6.555   0.394 -2.2019  0.5694  0.3557
 7719TIP3   OH223120   1.268   2.044   0.638 -0.1426  0.1744 -0.3023
 7719TIP3    H123121   1.231   2.109   0.698 -0.4873  1.2426 -1.6336
 7719TIP3    H223122   1.279   2.090   0.555 -0.0509 -1.3637 -1.1959
 7720TIP3   OH223123   5.587   1.929   4.446 -0.3449 -0.4274  0.1052
 7720TIP3    H123124   5.669   1.954   4.405 -0.5630 -3.0837 -2.2906
 7720TIP3    H223125   5.522   1.934   4.375 -1.9335 -0.0234  1.5102
 7721TIP3   OH223126   5.309   4.495   5.033 -0.3374 -0.4036  0.1850
 7721TIP3    H123127   5.368   4.516   4.961 -3.6060  0.5414 -2.4447
 7721TIP3    H223128   5.235   4.451   4.992 -1.9707 -0.6527  3.1182
 7722TIP3   OH223129   3.925   4.527   1.888  0.1410  0.0963 -0.1385
 7722TIP3    H123130   3.861   4.587   1.851 -0.3290 -0.4240 -0.1851
 7722TIP3    H223131   3.962   4.481   1.813  1.2945  1.0802 -0.2028
 7723TIP3   OH223132   5.202   3.654   3.916 -0.5388 -0.3572 -0.6953
 7723TIP3    H123133   5.177   3.683   4.004 -1.0503 -2.2478 -0.1622
 7723TIP3    H223134   5.268   3.586   3.932  0.6569  0.4840 -1.8733
 7724TIP3   OH223135   0.100   0.608   1.450  0.0390  0.0668  0.2628
 7724TIP3    H123136   0.048   0.529   1.436  0.1420  0.0090  0.2028
 7724TIP3    H223137   0.111   0.646   1.363  0.0741  0.0940  0.2789
 7725TIP3   OH223138   7.119   0.117   2.204 -0.1657  0.2093  0.2240
 7725TIP3    H123139   7.139   0.210   2.194 -0.7768  0.4366  1.0149
 7725TIP3    H223140   7.115   0.103   2.299 -1.0077 -0.4155  0.1107
 7726TIP3   OH223141   7.018   6.226   1.216 -0.0604 -0.3032 -0.2485
 7726TIP3    H123142   6.949   6.173   1.257  1.0578 -1.6817 -0.0424
 7726TIP3    H223143   6.980   6.255   1.133 -0.8327 -1.1838 -0.2260
 7727TIP3   OH223144   7.092   2.458   0.455 -0.5270 -0.4190 -0.4721
 7727TIP3    H123145   7.108   2.372   0.494  0.3677  0.0259  0.1722
 7727TIP3    H223146   7.013   2.490   0.499  1.3309  0.7569  2.2739
 7728TIP3   OH223147   3.270   5.210   2.185  0.6375 -0.2489 -0.7872
 7728TIP3    H123148   3.258   5.270   2.259  2.6933 -0.8045  0.0497
 7728TIP3    H223149   3.198   5.231   2.126 -0.6215  0.7437  1.0079
 7729TIP3   OH223150   6.801   3.149   5.381  0.0267 -0.1351  0.1153
 7729TIP3    H123151   6.842   3.070   5.345  2.2282  1.1544 -0.4257
 7729TIP3    H223152   6.756   3.189   5.306 -1.1484 -0.8539  0.4048
 7730TIP3   OH223153   6.562   1.057   0.011 -0.0658 -0.2748 -0.1540
 7730TIP3    H123154   6.510   1.026  -0.063  0.0144 -0.0561 -0.2987
 7730TIP3    H223155   6.502   1.112   0.062  0.3820  1.0313 -1.0024
 7731TIP3   OH223156   4.841   6.091   3.751 -0.4128 -0.2328 -0.5300
 7731TIP3    H123157   4.862   6.175   3.792  1.0598 -0.6926 -0.2746
 7731TIP3    H223158   4.782   6.113   3.679  0.7440  1.1641 -1.1082
 7732TIP3   OH223159   0.046   3.955   1.759 -0.1023 -0.3104 -0.0173
 7732TIP3    H123160   0.115   4.001   1.712 -0.1494  0.9720  1.1387
 7732TIP3    H223161   0.087   3.874   1.789  0.7565  0.1924  0.1915
 7733TIP3   OH223162   1.536   2.227   1.741  0.5141 -0.4618 -0.2552
 7733TIP3    H123163   1.465   2.182   1.785 -0.3971 -0.2599 -1.4681
 7733TIP3    H223164   1.587   2.267   1.811 -0.9327 -0.0811  0.6029
 7734TIP3   OH223165   1.030   5.268   4.316  0.5702 -0.1170 -0.1382
 7734TIP3    H123166   1.098   5.305   4.259  2.3078 -0.4234  1.6554
 7734TIP3    H223167   0.967   5.340   4.327  1.9513  1.0710  0.2676
 7735TIP3   OH223168   1.956   5.326   0.630  0.1454 -0.4356 -0.2691
 7735TIP3    H123169   2.017   5.257   0.656  0.3144  0.1730  1.0508
 7735TIP3    H223170   1.998   5.407   0.661 -1.0858  0.0445  0.1789
 7736TIP3   OH223171   1.289   3.350   0.211  0.3653  0.2402  0.0573
 7736TIP3    H123172   1.296   3.377   0.302  2.2879 -0.4693  0.1704
 7736TIP3    H223173   1.203   3.381   0.183  0.1298  1.3111  1.8229
 7737TIP3   OH223174   4.818   3.359   2.930  0.2159 -1.0248 -0.1455
 7737TIP3    H123175   4.904   3.365   2.890  0.8328 -1.0217  1.1542
 7737TIP3    H223176   4.818   3.424   3.000 -1.6090  0.5123 -1.4430
 7738TIP3   OH223177   1.309   3.914   5.180  0.2635 -0.3766  0.7146
 7738TIP3    H123178   1.239   3.882   5.124  0.3456 -1.0211  0.9663
 7738TIP3    H223179   1.332   4.000   5.144  0.7799 -1.0629 -0.6613
 7739TIP3   OH223180   6.016   5.706   2.237  1.0731  0.6943 -0.3458
 7739TIP3    H123181   5.921   5.703   2.221  0.5427 -2.4311  2.4437
 7739TIP3    H223182   6.024   5.756   2.319  1.6425 -0.4682  0.3178
 7740TIP3   OH223183   5.090   2.322   3.128 -0.1057  0.2342  0.0416
 7740TIP3    H123184   5.159   2.330   3.063 -0.6185 -0.9908 -0.6925
 7740TIP3    H223185   5.092   2.405   3.176  1.8485  0.2232  0.0470
 7741TIP3   OH223186   1.135   4.601   1.687 -0.5549  0.4747  0.3038
 7741TIP3    H123187   1.151   4.562   1.773  1.3265 -0.7231 -0.5216
 7741TIP3    H223188   1.221   4.606   1.646 -1.3824  1.1386 -1.4669
 7742TIP3   OH223189   0.443   4.956   5.346 -0.2110  0.0961 -0.1400
 7742TIP3    H123190   0.490   4.921   5.421 -0.7024  1.2333  0.7417
 7742TIP3    H223191   0.499   5.027   5.314  0.0197 -0.4178 -0.8882
 7743TIP3   OH223192   5.002   0.892   5.628  0.0818 -0.3467  0.5915
 7743TIP3    H123193   4.933   0.944   5.589 -0.1166 -1.0871 -0.0750
 7743TIP3    H223194   4.987   0.898   5.722 -1.1171 -0.7884  0.4468
 7744TIP3   OH223195   4.114   1.886   1.163  0.2054  0.4952 -0.2899
 7744TIP3    H123196   4.082   1.846   1.082  0.9198  0.5340 -0.5964
 7744TIP3    H223197   4.064   1.967   1.171  0.1356  0.4944 -0.6998
 7745TIP3   OH223198   0.338   3.418   3.762  0.1602 -0.3870  0.0973
 7745TIP3    H123199   0.398   3.346   3.783  0.0496 -0.0709  1.5971
 7745TIP3    H223200   0.381   3.463   3.690  1.8503 -0.0843  1.2138
 7746TIP3   OH223201   3.507   4.214   5.703 -0.1365 -0.2875  0.1364
 7746TIP3    H123202   3.517   4.308   5.714  1.0829 -0.3069 -0.6178
 7746TIP3    H223203   3.426   4.204   5.652  1.5635  0.6401 -3.0520
 7747TIP3   OH223204   4.622   5.180   2.842  0.2146  0.0555 -0.1422
 7747TIP3    H123205   4.649   5.114   2.906 -0.6122 -0.9191 -0.7654
 7747TIP3    H223206   4.597   5.130   2.765  2.3317  1.2837 -1.7089
 7748TIP3   OH223207   4.777   3.099   3.624 -1.2120 -0.2585  0.3978
 7748TIP3    H123208   4.742   3.029   3.679  0.2553 -0.7018  0.8144
 7748TIP3    H223209   4.865   3.070   3.601  0.6979  2.7664  3.1223
 7749TIP3   OH223210   6.609   6.608   0.530  0.0639 -0.5031 -0.6279
 7749TIP3    H123211   6.560   6.633   0.609  0.9370 -0.8283  0.0412
 7749TIP3    H223212   6.555   6.542   0.488  1.0242 -2.7906  1.4672
 7750TIP3   OH223213   1.146   5.470   0.651  0.2660  0.1629 -0.5062
 7750TIP3    H123214   1.053   5.490   0.662  0.1375 -0.5979 -0.0934
 7750TIP3    H223215   1.191   5.543   0.693 -0.1229  0.9364 -1.4012
 7751TIP3   OH223216   3.448   1.036   2.951 -0.0460  0.7076 -0.1777
 7751TIP3    H123217   3.400   0.953   2.957 -2.4151  2.0672  1.7965
 7751TIP3    H223218   3.472   1.043   2.859 -1.5247 -1.2525 -0.7931
 7752TIP3   OH223219   0.242   5.461   5.717  0.0364 -0.2004 -0.0399
 7752TIP3    H123220   0.210   5.548   5.690  0.3957  0.2595  0.9873
 7752TIP3    H223221   0.304   5.479   5.787  0.4907 -1.2710 -0.1534
 7753TIP3   OH223222   1.145   3.758   0.681  0.1939 -0.1703 -0.2985
 7753TIP3    H123223   1.109   3.815   0.613 -2.1046 -1.1973 -0.0379
 7753TIP3    H223224   1.069   3.712   0.716  1.7524 -2.2707  0.5352
 7754TIP3   OH223225   5.408   6.304   1.392 -0.3031  0.1627 -0.1748
 7754TIP3    H123226   5.357   6.325   1.314 -2.7327 -4.1049 -0.0236
 7754TIP3    H223227   5.352   6.331   1.465  0.3183  0.7365  0.1053
 7755TIP3   OH223228   1.736   2.794   2.152  0.6549 -0.3223 -0.3829
 7755TIP3    H123229   1.737   2.743   2.070  0.8713 -0.5092 -0.2670
 7755TIP3    H223230   1.747   2.728   2.221 -1.9454 -0.4589 -0.0132
 7756TIP3   OH223231   3.700   5.542   3.326  0.0698  0.2784 -0.0671
 7756TIP3    H123232   3.712   5.565   3.234  1.0474  0.9308  0.2183
 7756TIP3    H223233   3.605   5.539   3.338 -0.1061 -1.1322 -1.4157
 7757TIP3   OH223234   3.731   5.525   5.309 -0.4452  0.6732  0.4307
 7757TIP3    H123235   3.692   5.466   5.373  0.9595  0.0473  0.7349
 7757TIP3    H223236   3.810   5.559   5.351 -0.5660  1.8106 -0.2156
 7758TIP3   OH223237   1.202   3.785   1.408  0.1070 -0.5243 -0.5815
 7758TIP3    H123238   1.219   3.707   1.461  0.4291 -0.4127 -0.5175
 7758TIP3    H223239   1.121   3.765   1.361 -0.5743 -0.3354  0.5002
 7759TIP3   OH223240   4.842   4.197   2.175  0.4193 -0.2142 -0.2680
 7759TIP3    H123241   4.872   4.106   2.178 -0.8535 -0.6353  1.6407
 7759TIP3    H223242   4.904   4.245   2.230 -0.4910 -0.5114  1.0888
 7760TIP3   OH223243   3.302   1.217   5.528  0.3961  0.8345 -0.0821
 7760TIP3    H123244   3.313   1.149   5.461  1.6206  0.4264  0.4970
 7760TIP3    H223245   3.384   1.266   5.526 -0.4769  2.3055 -0.4783
 7761TIP3   OH223246   1.277   2.285   2.112  0.1706 -0.0484  0.2760
 7761TIP3    H123247   1.349   2.335   2.150  0.4129 -0.6058  0.5747
 7761TIP3    H223248   1.208   2.349   2.096 -0.0146  0.1829  1.8595
 7762TIP3   OH223249   3.792   1.026   3.001  0.0806 -0.1782 -0.3686
 7762TIP3    H123250   3.843   1.011   2.922 -2.1233 -0.4718 -1.8067
 7762TIP3    H223251   3.855   1.015   3.073  2.1024 -0.0159 -2.0432
 7763TIP3   OH223252   1.574   5.871   2.202 -0.3967  0.2645 -0.2611
 7763TIP3    H123253   1.592   5.786   2.241 -1.5808  0.1305  0.0116
 7763TIP3    H223254   1.513   5.913   2.262 -1.3994  0.4972 -1.4049
 7764TIP3   OH223255   6.332   2.129   5.701 -0.4095  0.2916  0.6611
 7764TIP3    H123256   6.407   2.135   5.760 -1.8909 -1.2960  2.8130
 7764TIP3    H223257   6.270   2.194   5.734  0.5157  2.8497 -2.1368
 7765TIP3   OH223258   7.126   5.374   0.880  0.2237  0.4691  0.1552
 7765TIP3    H123259   7.070   5.355   0.955 -1.0673  0.4641 -0.7795
 7765TIP3    H223260   7.117   5.468   0.866  1.0360  0.5953  0.4460
 7766TIP3   OH223261   1.922   0.021   3.601 -0.7975  0.5640 -0.2964
 7766TIP3    H123262   1.897   0.109   3.629 -1.5849  1.0312 -2.2891
 7766TIP3    H223263   1.980   0.035   3.527  2.2417 -0.6014  1.6633
 7767TIP3   OH223264   5.760   3.123   5.856  0.1754 -0.0400  0.0454
 7767TIP3    H123265   5.847   3.146   5.825  0.4271  0.8852  1.3752
 7767TIP3    H223266   5.717   3.207   5.873  0.3946 -0.4333  3.0347
 7768TIP3   OH223267   3.395   0.120   3.358  0.0457 -0.0888 -0.0374
 7768TIP3    H123268   3.460   0.054   3.385  1.1127  0.6177 -0.8116
 7768TIP3    H223269   3.333   0.072   3.304 -0.5963 -0.9623  1.4157
 7769TIP3   OH223270   3.767   0.420   5.883 -0.8877 -0.2272  0.6541
 7769TIP3    H123271   3.728   0.335   5.860 -0.5362 -0.5030  1.0772
 7769TIP3    H223272   3.765   0.470   5.801  0.1311 -1.1129  0.0702
 7770TIP3   OH223273   2.718   4.653   1.075  0.1275  0.0488  0.0505
 7770TIP3    H123274   2.719   4.567   1.118 -0.7952 -0.7968 -1.5144
 7770TIP3    H223275   2.631   4.658   1.035  0.8715  0.8663 -1.5276
 7771TIP3   OH223276   5.855   0.320   2.929 -0.8677  0.1991 -0.4393
 7771TIP3    H123277   5.907   0.247   2.895  0.1806 -0.4031  2.2465
 7771TIP3    H223278   5.916   0.394   2.930 -1.9278  1.2344 -3.1574
 7772TIP3   OH223279   6.942   1.446   3.740  0.4220  0.4946  0.3189
 7772TIP3    H123280   6.866   1.406   3.784 -0.4562  2.5798  0.8207
 7772TIP3    H223281   6.924   1.434   3.647 -0.9932  1.6590  0.3985
 7773TIP3   OH223282   4.266   0.131   1.796 -0.1325  0.3831 -0.4496
 7773TIP3    H123283   4.316   0.080   1.860 -0.9944 -0.0686 -0.1314
 7773TIP3    H223284   4.222   0.065   1.743  1.2854  0.7077 -2.1316
 7774TIP3   OH223285   1.125   2.255   5.257  0.2749 -0.0754  0.2876
 7774TIP3    H123286   1.191   2.323   5.266  1.2063 -1.0539  1.0574
 7774TIP3    H223287   1.174   2.172   5.258 -0.9301 -0.8176  0.7354
 7775TIP3   OH223288   1.504   3.477   3.050  0.0199  0.4409 -0.2191
 7775TIP3    H123289   1.474   3.444   3.135 -1.8994  2.4909  0.0104
 7775TIP3    H223290   1.579   3.533   3.072  0.1408  0.2026 -0.0112
 7776TIP3   OH223291   4.069   1.831   3.064 -0.2966  0.4404 -1.0600
 7776TIP3    H123292   4.021   1.857   2.985 -0.3897  0.9877 -0.8351
 7776TIP3    H223293   4.160   1.854   3.045 -0.0730 -0.8174 -1.5778
 7777TIP3   OH223294   1.213   6.411   3.653  0.4133  0.1874 -0.0589
 7777TIP3    H123295   1.161   6.330   3.651  0.8899 -0.2353  2.1125
 7777TIP3    H223296   1.260   6.412   3.569  1.0575 -2.2519  0.2063
 7778TIP3   OH223297   2.766   4.177   5.434  0.1986 -0.1268  0.1692
 7778TIP3    H123298   2.714   4.257   5.425 -0.3566 -0.1688  2.3384
 7778TIP3    H223299   2.775   4.143   5.345 -0.5907  1.6921 -0.6493
 7779TIP3   OH223300   1.477   4.336   1.467 -0.6463  0.3268 -0.7018
 7779TIP3    H123301   1.394   4.311   1.507 -0.6940  1.2023 -0.2087
 7779TIP3    H223302   1.524   4.381   1.537  0.2902 -0.2404 -0.9484
 7780TIP3   OH223303   0.249   2.493   2.371 -0.0405 -0.1281  0.3622
 7780TIP3    H123304   0.299   2.560   2.419  0.9611 -0.3907 -0.2710
 7780TIP3    H223305   0.311   2.459   2.307 -0.5855 -1.5372  0.5414
 7781TIP3   OH223306   5.975   2.292   3.208  0.1175  0.3249 -0.2885
 7781TIP3    H123307   5.899   2.241   3.180 -0.6970  1.3125  0.0971
 7781TIP3    H223308   6.018   2.236   3.272 -0.5724 -0.0277 -0.1220
 7782TIP3   OH223309   5.149   2.053   3.065 -0.0378  0.0626 -0.9188
 7782TIP3    H123310   5.236   2.072   3.100 -0.3026  0.8047 -0.6342
 7782TIP3    H223311   5.101   2.135   3.075 -0.1385  0.3185 -3.0255
 7783TIP3   OH223312   6.455   1.454   2.311 -0.5217  0.2847  0.1375
 7783TIP3    H123313   6.399   1.376   2.317  1.3309 -1.2455 -1.0573
 7783TIP3    H223314   6.523   1.439   2.378  0.6249  0.1525 -1.0200
 7784TIP3   OH223315   0.786   0.253   4.470 -0.3033 -0.3236 -0.4469
 7784TIP3    H123316   0.856   0.285   4.412  0.8955  0.3893  1.2762
 7784TIP3    H223317   0.780   0.160   4.451  0.6650 -0.2743 -1.1045
 7785TIP3   OH223318   0.956   6.094   2.801  0.0308 -0.0484  0.1902
 7785TIP3    H123319   0.874   6.068   2.758  0.4040 -1.1769  0.1139
 7785TIP3    H223320   0.940   6.183   2.831 -0.5532  0.4756 -1.5103
 7786TIP3   OH223321   4.675   2.445   3.496 -0.2545  0.0775  0.2708
 7786TIP3    H123322   4.583   2.462   3.476 -0.2692  0.3341  0.5502
 7786TIP3    H223323   4.673   2.388   3.573 -0.2178 -1.6362 -0.9340
 7787TIP3   OH223324   1.421   2.898   4.492  0.4132  0.6225 -0.0684
 7787TIP3    H123325   1.467   2.981   4.480  0.2832  0.6158 -0.6330
 7787TIP3    H223326   1.361   2.892   4.417 -1.1470  1.0508  1.0785
 7788TIP3   OH223327   2.885   2.411   1.957  0.0024  0.0268  0.8447
 7788TIP3    H123328   2.844   2.497   1.947  0.3973  0.1255 -0.0331
 7788TIP3    H223329   2.811   2.351   1.968 -0.2410  0.6668  3.4636
 7789TIP3   OH223330   4.564   4.742   5.610  0.2451  0.1249 -0.3716
 7789TIP3    H123331   4.517   4.671   5.564 -0.8422  0.7625 -0.2864
 7789TIP3    H223332   4.608   4.790   5.540  1.5706 -1.0314 -0.3630
 7790TIP3   OH223333   2.010   5.812   0.179  0.2563 -0.4292 -0.1887
 7790TIP3    H123334   2.075   5.869   0.220  0.7399 -0.9815 -0.1747
 7790TIP3    H223335   1.964   5.869   0.117 -0.1651  0.2922  0.7613
 7791TIP3   OH223336   0.377   6.213   0.750 -0.4651 -0.5854 -0.1921
 7791TIP3    H123337   0.420   6.137   0.711 -0.5849  0.1191 -1.7971
 7791TIP3    H223338   0.373   6.194   0.843  1.1028 -1.7559 -0.3247
 7792TIP3   OH223339   1.390   2.147   1.138  0.1860  0.0283 -0.9216
 7792TIP3    H123340   1.428   2.086   1.075 -1.7480  0.0519 -2.1956
 7792TIP3    H223341   1.336   2.205   1.085 -1.7230 -0.1027  0.7570
 7793TIP3   OH223342   4.460   3.028   3.003  0.3079  0.6778 -0.2352
 7793TIP3    H123343   4.440   2.967   3.075 -1.9287  2.1010  0.4517
 7793TIP3    H223344   4.487   2.972   2.931 -0.9821 -1.0978  0.5821
 7794TIP3   OH223345   6.566   2.591   3.866 -0.1172 -1.1168 -0.2426
 7794TIP3    H123346   6.497   2.611   3.803 -0.2141 -1.4255 -0.2335
 7794TIP3    H223347   6.648   2.610   3.820 -0.2067 -0.7542 -0.2549
 7795TIP3   OH223348   2.068   2.967   2.447  0.0361  0.1642 -0.3809
 7795TIP3    H123349   2.087   3.017   2.527  2.2149 -1.8578  0.4877
 7795TIP3    H223350   1.980   2.996   2.422  0.7216  3.6081  0.5805
 7796TIP3   OH223351   4.879   5.575   5.229 -0.1941  0.1347  0.3750
 7796TIP3    H123352   4.851   5.595   5.139 -0.9957 -1.4267  0.2489
 7796TIP3    H223353   4.803   5.596   5.283 -0.1530 -0.1444  0.5399
 7797TIP3   OH223354   4.266   6.782   3.655 -0.2583 -0.3163  0.8917
 7797TIP3    H123355   4.325   6.790   3.580 -1.0469 -2.6534 -0.0947
 7797TIP3    H223356   4.308   6.716   3.711 -0.8342 -0.3422  1.2984
 7798TIP3   OH223357   5.199   6.030   4.125  0.1603  0.0004  0.3207
 7798TIP3    H123358   5.204   5.935   4.134 -1.1307 -0.0318  0.9331
 7798TIP3    H223359   5.235   6.048   4.038 -1.1184 -1.2411 -0.5081
 7799TIP3   OH223360   2.685   0.335   0.176  0.3106 -0.3057 -0.0547
 7799TIP3    H123361   2.778   0.342   0.156  0.2226 -1.2004 -0.8731
 7799TIP3    H223362   2.641   0.357   0.093 -0.1420 -1.6274 -0.1985
 7800TIP3   OH223363   3.010   3.114   2.749  0.0417 -0.6472 -0.4323
 7800TIP3    H123364   3.024   3.152   2.836 -2.2130  0.3492 -0.4485
 7800TIP3    H223365   3.060   3.171   2.690 -1.9870  1.4636 -0.2589
 7801TIP3   OH223366   0.274   2.855   4.293  0.0747 -0.0693 -0.1964
 7801TIP3    H123367   0.320   2.788   4.243 -0.8937 -0.9752  0.1009
 7801TIP3    H223368   0.182   2.842   4.272 -0.1792  0.7762  0.3456
 7802TIP3   OH223369   6.653   3.726   5.108  0.1476  0.3111 -0.5933
 7802TIP3    H123370   6.621   3.815   5.125 -0.7529 -0.2888  1.0845
 7802TIP3    H223371   6.727   3.715   5.168  0.8680  0.2449 -1.4796
 7803TIP3   OH223372   4.689   1.996   1.740  0.5894  0.0563  0.5161
 7803TIP3    H123373   4.598   2.008   1.767  0.8600 -0.2104  1.5870
 7803TIP3    H223374   4.712   1.908   1.770  1.2977  0.2336  0.5164
 7804TIP3   OH223375   0.393   6.689   5.431 -0.0237 -0.3681 -0.3087
 7804TIP3    H123376   0.376   6.753   5.361  1.6374 -0.7921 -1.1452
 7804TIP3    H223377   0.486   6.698   5.449  0.0120 -1.8159  0.3241
 7805TIP3   OH223378   3.550   0.576   4.367  0.1039 -0.1723 -0.1220
 7805TIP3    H123379   3.601   0.611   4.295  0.6301  0.0864  0.3675
 7805TIP3    H223380   3.464   0.619   4.360  0.5997  0.9049  0.2251
 7806TIP3   OH223381   0.004   4.876   4.124 -0.0832 -0.0537 -0.2710
 7806TIP3    H123382  -0.016   4.820   4.050 -1.0372  0.1746 -0.2023
 7806TIP3    H223383   0.099   4.889   4.120 -0.1205 -0.0732 -1.4159
 7807TIP3   OH223384   0.816   0.575   5.389 -0.2559  1.1904  0.1100
 7807TIP3    H123385   0.846   0.510   5.325 -3.2093  0.9498 -1.2058
 7807TIP3    H223386   0.861   0.551   5.470  0.0705 -1.4442 -0.7465
 7808TIP3   OH223387   6.086   4.464   2.410 -0.0329 -0.2992  0.2173
 7808TIP3    H123388   6.044   4.382   2.438 -0.0836 -0.1431  0.5927
 7808TIP3    H223389   6.029   4.533   2.444 -0.2923 -0.1099 -0.5731
 7809TIP3   OH223390   0.991   4.151   5.117 -0.3879  0.1301  0.5644
 7809TIP3    H123391   1.064   4.108   5.072 -0.7289  0.8029 -0.7005
 7809TIP3    H223392   0.978   4.233   5.068 -1.4981  0.3743  1.2364
 7810TIP3   OH223393   2.496   0.159   0.580  0.6865 -0.2290  0.5718
 7810TIP3    H123394   2.405   0.137   0.561  0.9843 -2.1878  1.1407
 7810TIP3    H223395   2.545   0.129   0.503  0.8764  0.7817  0.2838
 7811TIP3   OH223396   3.172   6.552   5.063  0.2185  0.1678  0.0543
 7811TIP3    H123397   3.190   6.556   5.157  0.1572 -0.2518  0.0891
 7811TIP3    H223398   3.080   6.575   5.055 -0.3655 -1.8972  0.3336
 7812TIP3   OH223399   3.160   1.155   2.390  0.0249  0.0682 -0.6623
 7812TIP3    H123400   3.134   1.187   2.303 -0.1966  1.6639 -0.0431
 7812TIP3    H223401   3.253   1.135   2.382 -0.2318 -0.8836 -1.5476
 7813TIP3   OH223402   3.329   5.566   1.027 -0.2378 -0.1164 -0.1762
 7813TIP3    H123403   3.413   5.611   1.029 -1.4436  2.3206  0.1607
 7813TIP3    H223404   3.351   5.473   1.021  2.4478  0.4043  0.3383
 7814TIP3   OH223405   1.418   3.044   1.044 -0.2433 -0.1725 -0.4977
 7814TIP3    H123406   1.462   3.070   1.124 -0.5641  1.4176 -0.8069
 7814TIP3    H223407   1.441   2.952   1.032 -0.3226 -0.4850  1.4894
 7815TIP3   OH223408   1.239   2.252   0.473 -0.6689  0.0532  0.0970
 7815TIP3    H123409   1.163   2.292   0.431 -0.7703 -1.5123 -1.3097
 7815TIP3    H223410   1.299   2.325   0.487 -2.3098  1.2873  1.0385
 7816TIP3   OH223411   4.998   1.514   0.117 -0.1954 -0.6558  0.1881
 7816TIP3    H123412   5.064   1.521   0.048 -1.5548  2.5552 -0.9967
 7816TIP3    H223413   5.015   1.587   0.176 -2.9375  0.7274 -0.5374
 7817TIP3   OH223414   6.540   2.071   4.637 -0.3668  0.4817  0.2559
 7817TIP3    H123415   6.499   2.095   4.720 -0.4100  1.9210 -0.1616
 7817TIP3    H223416   6.482   2.106   4.570 -2.1754 -3.5237 -0.5807
 7818TIP3   OH223417   4.120   2.305   3.313 -0.4702 -0.4221 -0.0253
 7818TIP3    H123418   4.042   2.284   3.365 -0.7412  0.0204 -0.2544
 7818TIP3    H223419   4.122   2.400   3.309  0.5131 -0.3935  0.6224
 7819TIP3   OH223420   6.293   0.482   4.317 -0.4516  0.3711 -0.2510
 7819TIP3    H123421   6.331   0.553   4.265  0.0095  1.0631  1.0085
 7819TIP3    H223422   6.357   0.411   4.311 -0.1666  0.6239 -0.2353
 7820TIP3   OH223423   4.044   1.363   1.176  0.3021  0.0777 -0.4844
 7820TIP3    H123424   4.135   1.372   1.205  0.1646  0.5747 -0.2117
 7820TIP3    H223425   4.051   1.324   1.088  0.7125 -1.7325  0.2972
 7821TIP3   OH223426   3.639   6.734   4.512  0.2208 -0.1285  0.0420
 7821TIP3    H123427   3.693   6.808   4.483 -1.1894  0.9494  0.0279
 7821TIP3    H223428   3.582   6.771   4.579  0.3794 -1.5437  0.9898
 7822TIP3   OH223429   4.980   6.668   5.154 -0.0073  0.1243  0.6368
 7822TIP3    H123430   4.943   6.651   5.241  2.6808 -0.0177  1.8610
 7822TIP3    H223431   4.931   6.743   5.121 -2.4530 -1.0539  1.3595
 7823TIP3   OH223432   2.254   0.392   2.806  0.5345  0.3931  0.8664
 7823TIP3    H123433   2.286   0.481   2.790 -1.3205  1.3212  1.9038
 7823TIP3    H223434   2.241   0.355   2.718 -0.4197  1.8562  0.3396
 7824TIP3   OH223435   5.214   1.836   2.912 -0.2945 -0.3987 -0.2684
 7824TIP3    H123436   5.170   1.845   2.828  1.7965  3.3987 -1.1976
 7824TIP3    H223437   5.186   1.912   2.963  3.2397  1.0088 -0.1054
 7825TIP3   OH223438   2.921   1.692   3.970 -0.0251 -0.6612 -0.0966
 7825TIP3    H123439   2.917   1.783   3.939  0.1892 -1.1440 -1.6413
 7825TIP3    H223440   2.978   1.648   3.907  1.1427 -1.5531  1.5107
 7826TIP3   OH223441   1.209   4.509   3.731 -0.2823  0.3668  0.2019
 7826TIP3    H123442   1.212   4.558   3.649 -0.4728 -1.6993 -1.1217
 7826TIP3    H223443   1.116   4.504   3.753 -0.2771  0.4539  0.2430
 7827TIP3   OH223444   1.586   2.709   5.053 -0.4117  0.0723  0.1720
 7827TIP3    H123445   1.613   2.675   5.138 -1.1046 -0.3908  0.2258
 7827TIP3    H223446   1.535   2.637   5.014 -2.3031  1.1811  0.4665
 7828TIP3   OH223447   1.431   0.757   0.785  0.0588  0.1606 -0.0670
 7828TIP3    H123448   1.390   0.784   0.702 -0.0425  2.3263  0.6333
 7828TIP3    H223449   1.439   0.661   0.777 -1.4582  0.1145 -1.8785
 7829TIP3   OH223450   0.631   0.236   4.013 -0.6299  0.3205 -0.4224
 7829TIP3    H123451   0.670   0.288   4.084 -0.7048  1.4232 -1.1586
 7829TIP3    H223452   0.689   0.250   3.939 -0.6266 -0.7182 -0.6359
 7830TIP3   OH223453   2.168   3.866   1.801 -0.2802  0.1306 -0.2734
 7830TIP3    H123454   2.218   3.806   1.745  0.3962  0.7814 -0.3766
 7830TIP3    H223455   2.158   3.819   1.884 -2.1039 -1.2507 -1.1897
 7831TIP3   OH223456   5.957   4.104   0.461  0.2275  0.0269  0.4063
 7831TIP3    H123457   5.969   4.145   0.375  2.0480  0.5080  0.8361
 7831TIP3    H223458   5.890   4.037   0.447 -1.6939  2.0520 -0.6942
 7832TIP3   OH223459   3.410   6.671   4.311  0.4400 -0.5829  0.0304
 7832TIP3    H123460   3.421   6.586   4.269  0.7384 -0.9739  0.8693
 7832TIP3    H223461   3.497   6.692   4.346  0.2119 -0.2601  0.4147
 7833TIP3   OH223462   2.255   5.804   3.262  0.4121 -0.1394  0.5149
 7833TIP3    H123463   2.240   5.839   3.350 -0.3004  0.8077  0.0367
 7833TIP3    H223464   2.277   5.712   3.276 -0.6153 -0.2369  1.6401
 7834TIP3   OH223465   3.860   0.701   5.854 -0.7020  0.0933  0.1722
 7834TIP3    H123466   3.810   0.630   5.894 -0.5725 -0.8852 -1.3213
 7834TIP3    H223467   3.952   0.673   5.863 -0.7275 -0.9677 -2.1703
 7835TIP3   OH223468   0.970   1.735   0.640  0.0357  0.2741 -0.3490
 7835TIP3    H123469   0.927   1.737   0.726 -1.4665  0.5885 -1.0565
 7835TIP3    H223470   0.951   1.821   0.603  1.4131  0.4585 -0.6706
 7836TIP3   OH223471   5.665   4.356   1.415 -0.2730  0.0395 -0.3058
 7836TIP3    H123472   5.654   4.382   1.323  2.0579 -2.2100 -1.3451
 7836TIP3    H223473   5.653   4.261   1.414  0.9920 -0.1832  1.4827
 7837TIP3   OH223474   6.710   0.755   2.697  0.5995 -0.0586  0.0023
 7837TIP3    H123475   6.764   0.825   2.734 -0.0575 -0.2809  1.4093
 7837TIP3    H223476   6.681   0.789   2.612  1.2046  0.9098  0.1765
 7838TIP3   OH223477   0.403   0.568   2.867  0.3277 -0.9046  0.1088
 7838TIP3    H123478   0.458   0.645   2.880 -1.4680  0.2034  1.8619
 7838TIP3    H223479   0.453   0.512   2.808  2.3287  0.9596 -0.1025
 7839TIP3   OH223480   4.686   0.671   1.462 -0.3139 -0.0574 -0.2738
 7839TIP3    H123481   4.646   0.682   1.548 -0.2659  1.9539 -0.4656
 7839TIP3    H223482   4.771   0.714   1.469  0.4549 -1.3927 -0.8550
 7840TIP3   OH223483   2.205   4.601   3.775  0.2366  0.2470  0.8541
 7840TIP3    H123484   2.285   4.654   3.782  0.1976  0.3194  0.7519
 7840TIP3    H223485   2.231   4.514   3.803  0.5810  0.0337 -0.0929
 7841TIP3   OH223486   1.264   2.230   3.935 -0.0412  0.4713  0.0491
 7841TIP3    H123487   1.291   2.258   4.023  0.2638  0.5486 -0.0659
 7841TIP3    H223488   1.245   2.137   3.944  0.5113  0.3552  0.0840
 7842TIP3   OH223489   2.802   3.179   4.925 -0.4722  0.3819 -0.6985
 7842TIP3    H123490   2.878   3.137   4.966 -0.2496  0.9073 -0.5582
 7842TIP3    H223491   2.779   3.250   4.985  0.5709  1.8984 -1.9953
 7843TIP3   OH223492   0.552   2.909   5.176 -0.0031  0.6216 -0.1996
 7843TIP3    H123493   0.567   2.881   5.086  0.5227 -0.0555  0.0861
 7843TIP3    H223494   0.457   2.917   5.183  0.0016  1.7281 -1.1066
 7844TIP3   OH223495   0.924   0.964   4.198  0.2357 -0.0711 -0.3654
 7844TIP3    H123496   0.839   0.922   4.210  0.4314  0.0634  1.9578
 7844TIP3    H223497   0.904   1.049   4.161 -0.8881  0.7442  1.9293
 7845TIP3   OH223498   0.221   5.453   4.332  0.1923  0.0983 -0.2286
 7845TIP3    H123499   0.276   5.523   4.299 -1.1647  0.8683 -0.9407
 7845TIP3    H223500   0.220   5.387   4.263  0.7128 -0.2090  0.0501
 7846TIP3   OH223501   4.250   2.021   0.349  0.0508 -0.4424  0.2888
 7846TIP3    H123502   4.312   2.055   0.414 -0.0667  1.0859 -0.3421
 7846TIP3    H223503   4.299   2.022   0.266  0.8031 -4.0566  0.5228
 7847TIP3   OH223504   4.392   3.912   5.492  0.5431  0.1779  0.0465
 7847TIP3    H123505   4.393   3.977   5.422  0.8133  0.2794  0.1433
 7847TIP3    H223506   4.323   3.850   5.467 -0.2738  0.9439  0.3506
 7848TIP3   OH223507   6.112   3.090   1.367 -0.4656  0.6550 -0.0918
 7848TIP3    H123508   6.076   3.171   1.405  0.1092  1.2138 -0.7139
 7848TIP3    H223509   6.161   3.119   1.291  0.2212 -0.2313 -0.0015
 7849TIP3   OH223510   3.423   6.382   1.643  0.0846  0.2431  0.2023
 7849TIP3    H123511   3.369   6.461   1.639 -0.2971 -0.0073  0.3298
 7849TIP3    H223512   3.501   6.408   1.692 -0.7291  0.1443  1.5828
 7850TIP3   OH223513   6.110   4.551   2.153  0.0190 -0.0827 -0.6258
 7850TIP3    H123514   6.049   4.624   2.139 -0.3785 -0.2482  0.2215
 7850TIP3    H223515   6.090   4.518   2.240  2.0665  0.5549  0.1530
 7851TIP3   OH223516   0.422   3.523   0.959  0.1925 -0.0277  0.2727
 7851TIP3    H123517   0.413   3.556   1.048  0.3900  0.0187  0.2748
 7851TIP3    H223518   0.498   3.466   0.962  2.0065  2.1936 -0.5062
 7852TIP3   OH223519   7.115   3.293   4.295  0.6198  0.3551  0.0668
 7852TIP3    H123520   7.169   3.364   4.261  0.1615  1.1052  0.8797
 7852TIP3    H223521   7.177   3.221   4.309  1.5456  1.3772  1.5001
 7853TIP3   OH223522   6.152   2.943   0.521 -0.1236 -0.2881 -0.2028
 7853TIP3    H123523   6.188   2.857   0.502 -0.0992  0.2910 -3.2030
 7853TIP3    H223524   6.228   2.998   0.541  0.0948 -0.3887 -0.7659
 7854TIP3   OH223525   6.578   4.865   5.559  0.3768  0.1040 -0.0776
 7854TIP3    H123526   6.600   4.915   5.638 -0.7661 -0.2898  0.5026
 7854TIP3    H223527   6.643   4.795   5.557 -0.5796 -0.8914  1.4680
 7855TIP3   OH223528   3.865   5.174   0.963 -0.1241  0.2618 -0.1938
 7855TIP3    H123529   3.921   5.112   1.010  1.3205  0.8934 -1.0178
 7855TIP3    H223530   3.885   5.259   1.002  1.1898  0.8205 -1.9337
 7856TIP3   OH223531   1.235   2.803   1.939 -1.2779 -0.2435 -0.0377
 7856TIP3    H123532   1.186   2.840   1.865 -2.4370 -1.2819  0.1758
 7856TIP3    H223533   1.191   2.720   1.957  0.1003 -0.8410  0.6806
 7857TIP3   OH223534   0.821   4.696   1.013 -0.2737  0.1190  0.1229
 7857TIP3    H123535   0.737   4.652   1.003 -0.9055  0.8477  1.8671
 7857TIP3    H223536   0.821   4.728   1.103  0.5219  2.8829 -0.7618
 7858TIP3   OH223537   6.732   6.242   2.378  0.3135  0.3342 -0.3799
 7858TIP3    H123538   6.785   6.321   2.386 -0.4889  0.7674  1.0674
 7858TIP3    H223539   6.745   6.196   2.461 -2.3586  1.0299  0.5587
 7859TIP3   OH223540   2.136   1.439   0.835 -0.3662 -0.1562 -0.8805
 7859TIP3    H123541   2.191   1.484   0.899 -0.2211 -0.7055 -0.6091
 7859TIP3    H223542   2.087   1.374   0.887 -0.8809 -0.0310 -1.1993
 7860TIP3   OH223543   0.441   2.207   5.278 -0.0722  0.3209  0.2301
 7860TIP3    H123544   0.360   2.255   5.298 -1.4958 -1.2902 -1.3372
 7860TIP3    H223545   0.505   2.275   5.259 -1.5197  1.6472 -0.1170
 7861TIP3   OH223546   6.240   0.293   5.371  0.0748  0.0626  0.2713
 7861TIP3    H123547   6.264   0.358   5.437 -0.0506  0.1295  0.2507
 7861TIP3    H223548   6.320   0.243   5.357  0.3096  0.5292 -0.0728
 7862TIP3   OH223549   1.288   5.457   1.295 -0.1128  0.7842  0.2937
 7862TIP3    H123550   1.197   5.434   1.311  0.1816 -1.0494 -0.4972
 7862TIP3    H223551   1.337   5.408   1.361  0.3572  1.2865  0.3294
 7863TIP3   OH223552   5.372   3.194   3.086  0.6408  0.5918  0.0584
 7863TIP3    H123553   5.428   3.179   3.009 -0.7747 -0.1820 -0.8478
 7863TIP3    H223554   5.434   3.219   3.155  2.1405 -0.4676 -0.8328
 7864TIP3   OH223555   5.833   4.017   2.773 -0.0744 -0.4147  0.7857
 7864TIP3    H123556   5.829   3.926   2.743  0.4612 -0.0248 -0.5070
 7864TIP3    H223557   5.926   4.035   2.781 -0.1752 -0.5852  3.0533
 7865TIP3   OH223558   6.472   6.201   2.269  0.3304 -0.2407  0.7905
 7865TIP3    H123559   6.497   6.138   2.201  1.4539  1.6359 -0.6347
 7865TIP3    H223560   6.551   6.211   2.322 -0.6767 -2.0384  2.7520
 7866TIP3   OH223561   6.877   5.470   0.642  0.7621 -0.5203 -0.1638
 7866TIP3    H123562   6.866   5.565   0.648 -0.8957 -0.7138  0.3652
 7866TIP3    H223563   6.915   5.456   0.555 -2.7112  0.4221 -2.0560
 7867TIP3   OH223564   0.854   6.588   5.663  0.2672 -0.3380  0.5951
 7867TIP3    H123565   0.869   6.682   5.664 -1.9441  0.1648 -1.7468
 7867TIP3    H223566   0.819   6.569   5.750  0.9826  0.9436  1.1907
 7868TIP3   OH223567   2.094   1.558   1.196 -0.1238  0.2882 -0.5140
 7868TIP3    H123568   2.064   1.648   1.209 -0.7078 -0.0653  0.6720
 7868TIP3    H223569   2.074   1.514   1.278  2.9991 -0.1535  0.1478
 7869TIP3   OH223570   6.973   5.402   0.390 -0.0823  0.5691  0.3777
 7869TIP3    H123571   7.043   5.372   0.332 -0.7919 -1.5794  0.5301
 7869TIP3    H223572   6.894   5.361   0.356 -0.4189 -1.4479  3.1968
 7870TIP3   OH223573   3.297   4.315   2.929  0.6799  0.3350  0.2967
 7870TIP3    H123574   3.322   4.277   2.844  0.6789  0.4052  0.2652
 7870TIP3    H223575   3.376   4.361   2.958  0.3714  1.1500 -0.1301
 7871TIP3   OH223576   0.181   2.764   0.549  0.2439 -0.1017  0.3580
 7871TIP3    H123577   0.154   2.820   0.476 -0.1980  0.7756  1.1722
 7871TIP3    H223578   0.262   2.723   0.518 -0.1641 -0.0935 -0.7898
 7872TIP3   OH223579   3.404   3.536   4.403  0.0893  0.4060 -0.0851
 7872TIP3    H123580   3.323   3.585   4.390  0.3943  1.3145  1.1953
 7872TIP3    H223581   3.376   3.444   4.410 -0.5959  0.4811 -1.5486
 7873TIP3   OH223582   2.531   3.736   5.610  0.0097  0.1382 -0.8538
 7873TIP3    H123583   2.474   3.706   5.680 -1.0410 -1.0174 -2.1365
 7873TIP3    H223584   2.609   3.769   5.654 -0.4489 -0.9196  0.8197
 7874TIP3   OH223585   6.882   3.817   2.465 -0.3349 -0.5369 -0.2312
 7874TIP3    H123586   6.825   3.741   2.464 -0.2537 -0.6042 -1.2908
 7874TIP3    H223587   6.823   3.891   2.481 -0.7057 -0.6248 -1.1356
 7875TIP3   OH223588   0.360   5.014   2.214 -0.3401  0.3447  0.3871
 7875TIP3    H123589   0.452   5.033   2.196 -0.9822  3.1111 -0.3921
 7875TIP3    H223590   0.343   4.932   2.166  1.8258 -0.5903  1.0849
 7876TIP3   OH223591   3.363   5.073   4.168  0.1100 -0.2189 -0.3790
 7876TIP3    H123592   3.378   5.009   4.098  0.8523  0.4590 -0.8537
 7876TIP3    H223593   3.447   5.118   4.177 -0.0086 -0.2324  0.8916
 7877TIP3   OH223594   2.248   5.645   2.694 -1.1714  0.2549 -0.0441
 7877TIP3    H123595   2.223   5.691   2.614  0.6530  0.2604 -0.6764
 7877TIP3    H223596   2.202   5.561   2.690  0.3497 -0.5753 -2.1466
 7878TIP3   OH223597   2.761   5.694   1.560  0.2358  0.2108  0.3052
 7878TIP3    H123598   2.692   5.732   1.506  1.6025  1.3411 -0.6993
 7878TIP3    H223599   2.745   5.599   1.554 -1.4015  0.4518  0.3647
 7879TIP3   OH223600  -0.016   1.000   2.794 -0.0362  0.5821  0.5899
 7879TIP3    H123601   0.077   0.979   2.783 -0.4723 -0.5354 -1.5350
 7879TIP3    H223602  -0.044   1.030   2.708 -2.3266 -2.0587  0.2653
 7880TIP3   OH223603   6.949   4.462   1.763 -0.2166  0.2796 -0.2313
 7880TIP3    H123604   6.854   4.452   1.777 -0.3746  1.7109 -0.1201
 7880TIP3    H223605   6.959   4.462   1.668 -0.2726 -0.3230 -0.2383
 7881TIP3   OH223606   1.628   4.362   5.638  0.2990  0.3046 -0.0586
 7881TIP3    H123607   1.594   4.439   5.594 -0.7027  0.9337  1.6997
 7881TIP3    H223608   1.556   4.299   5.636  0.6383 -0.0860 -0.2917
 7882TIP3   OH223609   5.058   3.278   5.284  0.0812 -0.0603 -0.3772
 7882TIP3    H123610   5.057   3.212   5.215  0.5643  0.0304 -0.4744
 7882TIP3    H223611   5.014   3.354   5.245 -2.5753 -1.0478  0.4933
 7883TIP3   OH223612   4.097   1.298   4.139  0.1796 -0.3087 -0.6521
 7883TIP3    H123613   4.060   1.215   4.109 -3.3557  0.4781  1.0640
 7883TIP3    H223614   4.026   1.361   4.132  2.1265  2.1482  0.0618
 7884TIP3   OH223615   1.003   1.903   4.501  0.4488 -0.0886 -0.1382
 7884TIP3    H123616   0.966   1.846   4.568  0.7140  1.4098  1.3453
 7884TIP3    H223617   0.980   1.861   4.418 -2.5714 -0.4142  0.7627
 7885TIP3   OH223618   2.618   0.110   2.028 -0.0954 -0.1413  0.2812
 7885TIP3    H123619   2.626   0.114   2.123 -3.3570  1.5339  0.6352
 7885TIP3    H223620   2.697   0.154   1.996  0.5800  0.1921  2.2497
 7886TIP3   OH223621   4.684   3.153   2.544 -0.4473  0.6363 -0.0749
 7886TIP3    H123622   4.662   3.232   2.594 -0.6966 -0.5653  1.7917
 7886TIP3    H223623   4.780   3.155   2.538 -0.3965  0.7034  0.6478
 7887TIP3   OH223624   7.053   0.866   5.535 -0.6556 -0.7272 -0.0014
 7887TIP3    H123625   7.139   0.907   5.524 -0.8450  0.1002  1.3984
 7887TIP3    H223626   7.068   0.797   5.600 -0.8306 -1.3464 -0.6084
 7888TIP3   OH223627   0.983   5.137   0.281  0.1754 -0.0062 -0.2614
 7888TIP3    H123628   0.997   5.189   0.360  0.8247  1.5031 -1.3178
 7888TIP3    H223629   1.069   5.101   0.260 -0.1338 -0.9634  0.0823
 7889TIP3   OH223630   4.316   6.161   0.115 -0.0173 -0.8424  0.2959
 7889TIP3    H123631   4.342   6.197   0.200 -0.6748 -2.4946  1.2261
 7889TIP3    H223632   4.259   6.087   0.136 -0.9359 -0.7347 -1.6054
 7890TIP3   OH223633   4.601   4.620   2.400  0.4796 -0.1747  0.7075
 7890TIP3    H123634   4.542   4.554   2.364  0.9171  0.0276 -0.4394
 7890TIP3    H223635   4.621   4.589   2.488 -0.4249 -0.8329  0.6987
 7891TIP3   OH223636   6.383   0.539   1.904  0.0943  0.0510  0.3201
 7891TIP3    H123637   6.323   0.557   1.832 -0.0651 -1.2978  0.0776
 7891TIP3    H223638   6.433   0.620   1.915 -1.1848  0.9156 -0.0190
 7892TIP3   OH223639   0.882   1.116   5.543  0.0700  0.1171  0.0692
 7892TIP3    H123640   0.840   1.032   5.527 -0.4806  0.4064 -0.0044
 7892TIP3    H223641   0.815   1.168   5.588  0.9277 -0.0280  1.5987
 7893TIP3   OH223642   6.764   5.918   5.825 -0.2243 -0.5807 -0.3256
 7893TIP3    H123643   6.772   5.911   5.920 -0.8255  0.1086 -0.2184
 7893TIP3    H223644   6.734   5.831   5.797  0.2549 -0.8828  0.0709
 7894TIP3   OH223645   5.793   5.413   2.238 -0.0362  0.1749  0.6743
 7894TIP3    H123646   5.741   5.378   2.166 -0.3030  0.7215  0.5905
 7894TIP3    H223647   5.876   5.365   2.233  0.0389  0.3625 -0.1524
 7895TIP3   OH223648   6.763   6.017   3.170 -0.2584 -0.0340  0.0575
 7895TIP3    H123649   6.818   5.949   3.209 -1.5026 -1.0303  0.1273
 7895TIP3    H223650   6.678   5.974   3.155 -0.5700  1.0234 -1.4590
 7896TIP3   OH223651   1.450   0.204   4.982  0.4254 -0.4661 -0.1040
 7896TIP3    H123652   1.461   0.165   5.069  3.5470  2.8564  1.2357
 7896TIP3    H223653   1.524   0.171   4.931  0.4764  0.1376 -0.4254
 7897TIP3   OH223654   2.710   3.346   1.745  0.1612 -0.2814 -0.3471
 7897TIP3    H123655   2.649   3.301   1.804 -0.7466  0.5116 -0.6410
 7897TIP3    H223656   2.769   3.277   1.714 -0.1628 -0.9445  0.4787
 7898TIP3   OH223657   4.301   3.054   5.681  0.3952 -0.0949  0.9970
 7898TIP3    H123658   4.234   3.011   5.627 -0.4897 -0.1776  2.1309
 7898TIP3    H223659   4.352   2.982   5.718  0.4223 -0.0707  1.0071
 7899TIP3   OH223660   2.596   1.859   1.591  0.1402 -0.2593 -0.0512
 7899TIP3    H123661   2.564   1.770   1.583 -0.7945  0.0149  0.4968
 7899TIP3    H223662   2.690   1.853   1.574  0.5464 -1.7201  2.3637
 7900TIP3   OH223663   1.814   0.261   2.377  0.2079  0.2145 -0.7012
 7900TIP3    H123664   1.887   0.322   2.392  0.1880 -0.1502  1.2087
 7900TIP3    H223665   1.747   0.290   2.438 -1.3348  0.5971 -2.5023
 7901TIP3   OH223666   5.081   5.974   3.281 -0.2138  0.3212 -0.3667
 7901TIP3    H123667   5.157   6.030   3.267  0.2744 -0.3538 -0.4729
 7901TIP3    H223668   5.112   5.886   3.263 -0.5114 -0.1948  1.4114
 7902TIP3   OH223669   5.358   6.311   4.565 -0.7107 -0.1098  0.1523
 7902TIP3    H123670   5.326   6.252   4.497  0.0929 -0.6512  0.2315
 7902TIP3    H223671   5.431   6.265   4.605  0.5276  1.2876 -0.3747
 7903TIP3   OH223672   3.499   3.007   1.831  0.0059  0.1643  0.0220
 7903TIP3    H123673   3.547   2.925   1.825 -0.2704 -0.2660  2.4815
 7903TIP3    H223674   3.566   3.075   1.832  0.2797 -0.0747 -1.2036
 7904TIP3   OH223675   1.826   3.896   1.259 -0.0464 -0.7619  0.1842
 7904TIP3    H123676   1.835   3.991   1.266  1.2555 -0.8196 -0.4404
 7904TIP3    H223677   1.731   3.881   1.257 -0.2683  0.4857  0.6688
 7905TIP3   OH223678   1.605   2.917   3.264  0.2555 -0.1504  0.5020
 7905TIP3    H123679   1.649   2.968   3.332 -0.5458  1.6770 -0.2852
 7905TIP3    H223680   1.513   2.919   3.288  0.2134 -1.3507  0.5002
 7906TIP3   OH223681   7.142   3.220   3.274  0.0414  0.3087  0.4211
 7906TIP3    H123682   7.137   3.128   3.248  0.0342  0.1189  1.0853
 7906TIP3    H223683   7.104   3.268   3.200  0.8252 -0.1533 -0.3123
 7907TIP3   OH223684   7.219   5.832   5.474  0.6383  0.2229  0.2098
 7907TIP3    H123685   7.168   5.912   5.486  1.7012  1.0860 -0.8287
 7907TIP3    H223686   7.154   5.766   5.449 -0.6549  0.0031  3.6014
 7908TIP3   OH223687   0.402   1.459   4.660  0.0583  0.2244  0.0652
 7908TIP3    H123688   0.334   1.434   4.597  0.4694  0.5541 -0.5206
 7908TIP3    H223689   0.484   1.435   4.617  0.3081 -3.3524  2.1148
 7909TIP3   OH223690   1.898   0.381   4.219 -0.4415  0.5424  0.1102
 7909TIP3    H123691   1.989   0.380   4.250 -0.6764  2.2387  0.9261
 7909TIP3    H223692   1.905   0.381   4.124  0.3897  0.0782  0.1617
 7910TIP3   OH223693   5.354   3.330   5.086 -0.4313 -0.0164 -0.0409
 7910TIP3    H123694   5.356   3.312   5.180 -0.6056 -0.4026 -0.1105
 7910TIP3    H223695   5.430   3.386   5.071 -0.1064 -0.3786  0.2431
 7911TIP3   OH223696   0.395   5.218   2.837 -0.0681 -0.2654 -0.5386
 7911TIP3    H123697   0.334   5.253   2.772 -0.5044  0.0987  0.0641
 7911TIP3    H223698   0.426   5.136   2.798 -1.2786 -0.6857 -0.6538
 7912TIP3   OH223699   5.886   1.971   2.784  0.1194 -0.0415  0.1582
 7912TIP3    H123700   5.937   1.890   2.775 -0.1186 -0.0456 -1.6581
 7912TIP3    H223701   5.946   2.040   2.757 -0.1149  0.2159  0.2905
 7913TIP3   OH223702   4.135   4.157   4.843 -0.1237 -0.2880 -0.4383
 7913TIP3    H123703   4.200   4.086   4.843 -0.9859 -1.1015 -1.0018
 7913TIP3    H223704   4.187   4.237   4.839  0.8686 -0.8932 -0.0847
 7914TIP3   OH223705   4.982   6.441   1.007  0.0052 -0.1085  0.6265
 7914TIP3    H123706   5.027   6.453   0.923  0.1384  0.0117  0.7157
 7914TIP3    H223707   4.918   6.511   1.011 -1.0304 -0.9737 -0.0480
 7915TIP3   OH223708   1.747   3.962   4.324  0.3150 -0.0514  0.1138
 7915TIP3    H123709   1.751   4.058   4.326  0.1231  0.0016 -1.0953
 7915TIP3    H223710   1.765   3.940   4.233  1.4836 -1.2415  0.6159
 7916TIP3   OH223711   4.011   5.008   1.174  0.0813  0.0577 -0.0614
 7916TIP3    H123712   4.070   5.050   1.236  1.3957 -0.1551 -1.1236
 7916TIP3    H223713   3.948   4.962   1.229  1.0537  0.0696  1.1184
 7917TIP3   OH223714   1.971   4.452   4.094  0.4749  0.2768 -0.0277
 7917TIP3    H123715   2.011   4.531   4.056  0.1824  0.4421  0.0009
 7917TIP3    H223716   1.950   4.478   4.184  1.1831 -0.1196  0.2614
 7918TIP3   OH223717   5.402   6.720   1.084  0.5511 -0.3974  0.0084
 7918TIP3    H123718   5.411   6.799   1.137  1.9788 -0.2507 -0.3972
 7918TIP3    H223719   5.338   6.667   1.131  1.7155 -0.2608  1.8805
 7919TIP3   OH223720   7.045   5.081   0.849  0.4223 -0.1056 -0.2078
 7919TIP3    H123721   7.097   5.022   0.903  0.2065 -0.0147  0.1029
 7919TIP3    H223722   7.059   5.168   0.887 -0.8944 -0.2400  0.6329
 7920TIP3   OH223723   3.786   0.039   2.567  0.1697 -0.3839 -0.0490
 7920TIP3    H123724   3.795   0.127   2.602 -0.3236 -0.3629  0.0236
 7920TIP3    H223725   3.844  -0.014   2.622  0.1620 -0.1784  0.1607
 7921TIP3   OH223726   0.146   2.574   1.222  0.0880  0.7877  0.0473
 7921TIP3    H123727   0.084   2.606   1.287 -0.4812 -0.1625 -0.0098
 7921TIP3    H223728   0.215   2.532   1.273 -0.3050  0.1358  0.0538
 7922TIP3   OH223729   3.840   6.715   1.546 -0.4363 -0.0068 -0.4258
 7922TIP3    H123730   3.785   6.637   1.549  1.2920 -1.2739 -0.4538
 7922TIP3    H223731   3.841   6.739   1.453  1.8810 -2.1468 -1.0480
 7923TIP3   OH223732   2.022   1.223   0.184 -0.0428 -0.1636  0.2586
 7923TIP3    H123733   1.949   1.180   0.141  0.3155 -2.4818  1.8102
 7923TIP3    H223734   1.993   1.314   0.195 -1.7938 -0.5097 -0.9981
 7924TIP3   OH223735   4.202   4.879   0.582  0.4753  0.2124  0.5254
 7924TIP3    H123736   4.193   4.880   0.677 -0.3875 -0.6571  0.4689
 7924TIP3    H223737   4.272   4.815   0.566  1.7926  1.5751  0.6281
 7925TIP3   OH223738   5.361   4.099   4.183  0.0345  0.1175  0.1629
 7925TIP3    H123739   5.441   4.061   4.220  1.1210  1.1967 -0.9844
 7925TIP3    H223740   5.340   4.172   4.241 -1.0177 -1.0644  1.3270
 7926TIP3   OH223741   2.768   1.201   3.221  0.3695  0.4504  0.3383
 7926TIP3    H123742   2.692   1.241   3.264 -1.7998 -1.3683 -1.5847
 7926TIP3    H223743   2.833   1.271   3.218 -0.6874  1.7026  3.2148
 7927TIP3   OH223744   2.624   0.397   2.657  0.0645 -0.5161  0.0119
 7927TIP3    H123745   2.554   0.429   2.600  1.2476  2.3344 -0.0238
 7927TIP3    H223746   2.604   0.434   2.743  0.8957 -0.6205  0.2634
 7928TIP3   OH223747   2.073   2.926   4.875 -0.2714 -0.2394  0.1497
 7928TIP3    H123748   2.001   2.869   4.901  0.1347 -0.7733  0.1130
 7928TIP3    H223749   2.152   2.877   4.897  0.0893  0.5245  0.5981
 7929TIP3   OH223750   4.308   2.126   2.835  0.1384 -0.3009  0.1044
 7929TIP3    H123751   4.369   2.136   2.763  0.5738  0.6433  0.5839
 7929TIP3    H223752   4.242   2.065   2.803 -0.3815  1.0746 -1.5744
 7930TIP3   OH223753   3.873   3.225   1.572  0.4865  0.7041 -0.1175
 7930TIP3    H123754   3.841   3.206   1.484  0.5537 -0.4733  0.0986
 7930TIP3    H223755   3.930   3.152   1.593  1.2065  1.4412  0.5565
 7931TIP3   OH223756   5.249   2.781   0.852 -0.1250 -0.1044  0.1424
 7931TIP3    H123757   5.316   2.847   0.871  0.3946 -0.6046  0.1086
 7931TIP3    H223758   5.247   2.726   0.930 -0.9216  0.2520  0.3770
 7932TIP3   OH223759   4.565   5.351   5.101 -0.1561 -0.5357 -0.0802
 7932TIP3    H123760   4.544   5.395   5.018  0.6656  0.7186  0.3381
 7932TIP3    H223761   4.641   5.399   5.134  0.4195 -1.9321  0.7112
 7933TIP3   OH223762   3.215   4.727   0.539 -0.1469 -0.1729 -0.0874
 7933TIP3    H123763   3.263   4.650   0.570  0.2304 -0.6584 -1.7588
 7933TIP3    H223764   3.276   4.771   0.480 -1.6041 -0.7201 -2.1491
 7934TIP3   OH223765   3.175   5.214   1.090 -0.0669 -0.2419 -0.0752
 7934TIP3    H123766   3.195   5.127   1.056  0.7043 -0.2351  0.3419
 7934TIP3    H223767   3.223   5.219   1.173 -0.4844  0.4069  0.1377
 7935TIP3   OH223768   6.081   3.796   1.635  0.5052  0.0422  0.1300
 7935TIP3    H123769   6.121   3.842   1.709 -0.8046  1.8416 -0.2108
 7935TIP3    H223770   6.017   3.738   1.675  0.4944  0.2863  0.4723
 7936TIP3   OH223771   2.961   1.054   1.469  0.0476 -0.1208  0.1486
 7936TIP3    H123772   3.003   1.134   1.501 -1.9364 -0.0530  3.0630
 7936TIP3    H223773   2.881   1.085   1.426 -0.2408 -0.4775  0.4264
 7937TIP3   OH223774   5.237   0.060   2.640  0.0698 -0.1920 -0.1838
 7937TIP3    H123775   5.190   0.017   2.711  1.4753 -0.2188  0.7821
 7937TIP3    H223776   5.169   0.095   2.582 -1.0994 -0.2763  1.1097
 7938TIP3   OH223777   0.841   5.028   5.260  0.1409 -0.5512  0.4669
 7938TIP3    H123778   0.914   4.991   5.211 -1.0688 -1.8597 -0.4315
 7938TIP3    H223779   0.879   5.102   5.307  1.8550 -0.6754 -0.6191
 7939TIP3   OH223780   6.177   0.745   2.818  0.1329  0.1198 -0.1015
 7939TIP3    H123781   6.265   0.749   2.855  0.2655  0.4593 -0.4443
 7939TIP3    H223782   6.182   0.677   2.751 -0.2274 -0.8181  0.7945
 7940TIP3   OH223783   5.990   2.355   0.476  0.1119  0.2033 -0.1448
 7940TIP3    H123784   5.997   2.420   0.406 -1.4376  0.2945 -0.2422
 7940TIP3    H223785   5.926   2.292   0.445  1.5407 -1.3958 -0.0191
 7941TIP3   OH223786   5.195   4.645   1.851  0.2930  0.4150  0.1847
 7941TIP3    H123787   5.159   4.582   1.913  0.8436 -0.9767 -0.8538
 7941TIP3    H223788   5.288   4.623   1.847  0.7773  2.1789  0.7813
 7942TIP3   OH223789   1.999   4.127   4.665 -0.3909  1.1021 -0.2392
 7942TIP3    H123790   1.989   4.102   4.757 -0.8890 -0.8722 -0.7783
 7942TIP3    H223791   1.938   4.071   4.618 -0.7100  2.6175 -1.7324
 7943TIP3   OH223792   4.660   3.803   3.367  0.3000  0.0921  0.0538
 7943TIP3    H123793   4.714   3.725   3.358  0.4889  0.3907 -1.9289
 7943TIP3    H223794   4.715   3.874   3.336 -0.3641  0.7896  0.4366
 7944TIP3   OH223795   4.256   4.830   0.236 -0.2478 -1.1061 -0.5771
 7944TIP3    H123796   4.229   4.774   0.309  1.1671  0.9471  1.6511
 7944TIP3    H223797   4.339   4.868   0.264  0.8561 -0.8853 -3.6830
 7945TIP3   OH223798   2.435   2.521   4.965 -0.0427 -0.5326 -0.5753
 7945TIP3    H123799   2.503   2.474   4.916  0.2748 -0.9343  0.2261
 7945TIP3    H223800   2.435   2.479   5.051 -1.5645 -0.7853 -0.6757
 7946TIP3   OH223801   5.669   2.859   2.669 -0.0065 -0.5761 -0.5088
 7946TIP3    H123802   5.655   2.823   2.756  0.5467 -1.3502 -0.7270
 7946TIP3    H223803   5.600   2.820   2.615 -1.6099  1.4254 -0.0508
 7947TIP3   OH223804   7.215   3.992   3.928  0.5370 -0.1460  0.1891
 7947TIP3    H123805   7.216   4.076   3.972  0.6884 -0.7049  1.2887
 7947TIP3    H223806   7.124   3.961   3.937 -0.3143  1.1369 -2.7307
 7948TIP3   OH223807   2.413   6.446   0.203 -0.2100  0.6686  0.2032
 7948TIP3    H123808   2.463   6.528   0.197 -1.1174  1.3450  1.4331
 7948TIP3    H223809   2.346   6.464   0.269 -2.8968  0.1920 -2.1885
 7949TIP3   OH223810   6.286   3.703   2.154  0.0797 -0.2716  0.4183
 7949TIP3    H123811   6.213   3.752   2.190  0.7861  0.6498  0.6434
 7949TIP3    H223812   6.357   3.715   2.218  1.1274  0.7715 -0.8982
 7950TIP3   OH223813   5.418   5.841   3.140  0.0385  0.1533 -0.0100
 7950TIP3    H123814   5.501   5.857   3.096  0.6400 -0.9663  0.6679
 7950TIP3    H223815   5.391   5.754   3.110 -0.9599  0.5469 -0.3070
 7951TIP3   OH223816   0.408   3.832   0.934 -0.3067 -0.0791  0.3196
 7951TIP3    H123817   0.455   3.848   0.852 -2.8683 -0.7193 -1.4055
 7951TIP3    H223818   0.399   3.737   0.938 -1.1190  0.0073  0.7960
 7952TIP3   OH223819   0.433   6.370   5.157  0.0600 -0.1276 -0.0532
 7952TIP3    H123820   0.343   6.337   5.155  0.2256 -0.6368  0.7225
 7952TIP3    H223821   0.474   6.334   5.078  0.0803 -1.3383  0.4942
 7953TIP3   OH223822   1.379   3.725   4.332  0.4224 -0.7746 -0.1509
 7953TIP3    H123823   1.305   3.684   4.287  0.4868 -0.3715 -0.6450
 7953TIP3    H223824   1.339   3.774   4.404  0.0474  0.4599 -1.1515
 7954TIP3   OH223825   4.331   6.626   0.570  0.1303  0.0235  0.4102
 7954TIP3    H123826   4.421   6.605   0.542 -0.0520  0.5892 -0.6670
 7954TIP3    H223827   4.318   6.716   0.540 -1.3987 -0.6438 -1.0747
 7955TIP3   OH223828   6.632   5.369   5.370  0.5094 -0.0346 -0.3397
 7955TIP3    H123829   6.727   5.364   5.375  0.3771 -2.4149  1.5872
 7955TIP3    H223830   6.603   5.278   5.367 -1.7237  0.6306 -1.0128
 7956TIP3   OH223831   1.834   1.894   5.286  0.0322  0.2319  0.4170
 7956TIP3    H123832   1.812   1.806   5.254 -2.1841  0.3504  1.4390
 7956TIP3    H223833   1.866   1.940   5.209 -2.3567 -0.3710 -1.0422
 7957TIP3   OH223834   5.057   5.517   4.220  0.2584 -0.1673  0.0138
 7957TIP3    H123835   4.985   5.553   4.168  0.6577 -0.9224 -1.0842
 7957TIP3    H223836   5.035   5.425   4.232  0.2258 -0.0366  1.1293
 7958TIP3   OH223837   3.196   0.628   1.956  0.6764 -0.0824  0.0283
 7958TIP3    H123838   3.260   0.620   2.027  1.6580 -1.9795 -1.0156
 7958TIP3    H223839   3.222   0.708   1.909 -0.8823  2.0998  2.5569
 7959TIP3   OH223840   2.610   3.029   3.887  0.3190 -0.3266 -0.2534
 7959TIP3    H123841   2.556   3.002   3.812 -0.2941 -1.4055  0.5539
 7959TIP3    H223842   2.665   2.953   3.905  0.6629  0.0333  0.2178
 7960TIP3   OH223843   4.233   0.863   1.051 -0.0557  0.3491 -0.3732
 7960TIP3    H123844   4.223   0.955   1.077 -1.1395  0.4636 -1.0783
 7960TIP3    H223845   4.324   0.842   1.070 -0.5793  0.5459  2.9616
 7961TIP3   OH223846  -0.009   3.597   2.088 -0.1417 -0.5013  0.8348
 7961TIP3    H123847   0.004   3.632   2.177 -0.8168 -0.3146  0.8662
 7961TIP3    H223848   0.059   3.639   2.036 -0.5204  0.3534  1.0141
 7962TIP3   OH223849   0.053   3.102   4.643 -0.1194 -0.0020  0.0968
 7962TIP3    H123850   0.107   3.035   4.684 -0.0467  0.1629  0.2679
 7962TIP3    H223851  -0.006   3.132   4.712 -0.2076  0.0534 -0.0013
 7963TIP3   OH223852   3.215   3.641   4.258 -0.0206  0.4239 -0.2887
 7963TIP3    H123853   3.187   3.732   4.253 -0.6307  0.2316 -0.4479
 7963TIP3    H223854   3.256   3.623   4.174  0.8376  0.7837  0.0424
 7964TIP3   OH223855   4.031   0.340   2.415  0.3727 -0.6886 -0.5615
 7964TIP3    H123856   3.958   0.301   2.367 -1.5353  1.0589  0.7177
 7964TIP3    H223857   4.066   0.408   2.356  1.0274 -1.5558 -1.1925
 7965TIP3   OH223858   5.823   1.631   4.105 -0.0822 -0.0288  0.4798
 7965TIP3    H123859   5.844   1.581   4.185  0.6654 -0.9585 -0.2676
 7965TIP3    H223860   5.729   1.618   4.092  0.2434 -2.0415 -0.1837
 7966TIP3   OH223861   5.956   0.168   3.951  0.0222 -0.0517  0.0642
 7966TIP3    H123862   5.902   0.193   4.026 -0.4741 -1.6323  0.2807
 7966TIP3    H223863   6.025   0.114   3.988  0.5328  0.2298 -0.4670
 7967TIP3   OH223864   1.802   5.557   4.491  0.2812  0.1683 -0.6153
 7967TIP3    H123865   1.814   5.470   4.454  2.1787 -0.2480  0.8039
 7967TIP3    H223866   1.857   5.614   4.438  1.2244 -0.0204  0.1427
 7968TIP3   OH223867   6.319   5.923   1.680  0.4299  0.5447  0.0654
 7968TIP3    H123868   6.367   5.911   1.598 -0.1646 -1.7808 -0.0299
 7968TIP3    H223869   6.320   5.836   1.720 -1.9736  0.8846  1.0140
 7969TIP3   OH223870   0.262   5.398   0.628  0.3301 -0.8236 -0.1899
 7969TIP3    H123871   0.252   5.462   0.699 -0.9135  0.0633 -1.1288
 7969TIP3    H223872   0.202   5.327   0.652 -1.8341  0.4901 -1.4008
 7970TIP3   OH223873   1.193   2.379   0.738 -1.0548 -0.6305 -0.1358
 7970TIP3    H123874   1.276   2.378   0.690  0.0356 -0.1332  1.6523
 7970TIP3    H223875   1.139   2.315   0.692 -1.2450  1.9181 -3.8728
 7971TIP3   OH223876   3.012   2.868   3.129 -0.3486  0.0657 -0.3197
 7971TIP3    H123877   2.939   2.921   3.099  0.2241  1.7447  1.0925
 7971TIP3    H223878   3.073   2.867   3.055 -0.7888  0.5694 -0.6962
 7972TIP3   OH223879   2.330   3.276   4.247 -0.5987 -0.0591 -0.0096
 7972TIP3    H123880   2.296   3.329   4.175 -1.1429  0.7822  0.8421
 7972TIP3    H223881   2.335   3.187   4.211 -0.6363  0.3864 -1.1442
 7973TIP3   OH223882   1.120   5.594   3.667 -0.2780  0.1819  0.3833
 7973TIP3    H123883   1.094   5.518   3.719  1.2939 -0.4440  0.3023
 7973TIP3    H223884   1.038   5.628   3.631 -1.3126  0.0455  2.4421
 7974TIP3   OH223885   6.192   1.605   0.001  0.0205 -0.1433 -0.0903
 7974TIP3    H123886   6.175   1.661   0.077  1.3360  0.0068  0.1041
 7974TIP3    H223887   6.199   1.517   0.037  0.2142 -0.1300 -0.0959
 7975TIP3   OH223888   0.482   0.431   0.333 -0.0148  0.3512 -0.5304
 7975TIP3    H123889   0.554   0.430   0.397 -0.1872 -1.2937 -0.3248
 7975TIP3    H223890   0.440   0.516   0.346 -0.7400 -0.3426  2.3585
 7976TIP3   OH223891   2.437   4.621   0.500  0.1571 -0.3592  0.4422
 7976TIP3    H123892   2.458   4.568   0.423 -0.3192 -0.2637  0.2415
 7976TIP3    H223893   2.521   4.636   0.543  0.6675  1.0346 -0.9729
 7977TIP3   OH223894   6.673   3.120   0.039 -0.3876 -0.3545  0.5661
 7977TIP3    H123895   6.584   3.155   0.035 -0.9589 -1.7221  0.6772
 7977TIP3    H223896   6.664   3.030   0.009  1.2410 -0.0607 -0.9776
 7978TIP3   OH223897   5.900   5.681   1.759 -0.3538  0.4234 -0.0190
 7978TIP3    H123898   5.885   5.776   1.763  1.2976  0.6853  1.0515
 7978TIP3    H223899   5.988   5.670   1.795 -0.1498 -1.4392 -1.0085
 7979TIP3   OH223900   1.164   5.294   4.005  0.1162  0.3628 -0.1322
 7979TIP3    H123901   1.138   5.202   4.013  1.8767 -0.4653 -2.6485
 7979TIP3    H223902   1.097   5.333   3.950 -1.7031  1.2184  2.4682
 7980TIP3   OH223903   4.567   1.597   4.061  0.6083  0.0248  0.8401
 7980TIP3    H123904   4.524   1.517   4.092  2.1391 -0.7216  1.1258
 7980TIP3    H223905   4.629   1.567   3.994 -0.8717  1.3322 -1.2542
 7981TIP3   OH223906   2.709   1.064   4.104 -0.1759  0.4215 -0.3666
 7981TIP3    H123907   2.620   1.057   4.068 -0.6431 -1.2969  0.9488
 7981TIP3    H223908   2.754   0.987   4.070  0.7407  1.1142 -0.7645
 7982TIP3   OH223909   5.102   0.366   3.829 -0.7516  0.3032  0.7235
 7982TIP3    H123910   5.167   0.431   3.855 -1.0147  0.8303  0.0854
 7982TIP3    H223911   5.150   0.282   3.833 -0.3531  0.5538  1.3285
 7983TIP3   OH223912   6.506   4.162   1.751 -0.4365  0.2929 -0.1405
 7983TIP3    H123913   6.518   4.070   1.727  1.1884  0.0336  1.4363
 7983TIP3    H223914   6.411   4.175   1.748 -0.7017 -1.4286 -0.4074
 7984TIP3   OH223915   4.987   2.393   2.771  0.4342  0.0372 -0.3485
 7984TIP3    H123916   5.036   2.311   2.765  0.6852  0.1184  0.4304
 7984TIP3    H223917   5.042   2.457   2.725  0.7170 -0.0241 -0.0995
 7985TIP3   OH223918   5.221   5.512   0.861 -0.4436  0.0551 -0.0104
 7985TIP3    H123919   5.265   5.595   0.878  0.9980 -1.1161  2.5651
 7985TIP3    H223920   5.192   5.482   0.947 -1.4257 -1.8815 -0.9378
 7986TIP3   OH223921   1.272   5.538   3.372  0.5605  0.5148 -0.8099
 7986TIP3    H123922   1.331   5.568   3.441 -1.4598  1.9487  0.4436
 7986TIP3    H223923   1.219   5.470   3.414  0.2923  0.3533 -1.3942
 7987TIP3   OH223924   0.109   0.300   0.173  0.4736  0.4374  0.4459
 7987TIP3    H123925   0.052   0.357   0.225  0.2100  1.2352 -0.6771
 7987TIP3    H223926   0.049   0.244   0.124  0.5568  1.9375 -1.4854
 7988TIP3   OH223927   1.576   2.513   4.826  0.1475 -0.1363  0.1216
 7988TIP3    H123928   1.563   2.459   4.749  1.2305 -1.3279  0.7432
 7988TIP3    H223929   1.594   2.601   4.791  1.0923 -0.7521 -0.9970
 7989TIP3   OH223930   0.831   1.532   4.728  0.1315  0.1164  0.1005
 7989TIP3    H123931   0.760   1.528   4.664  0.7630  0.0922 -0.6062
 7989TIP3    H223932   0.870   1.444   4.726  1.0183  0.5093 -0.4879
 7990TIP3   OH223933   6.400   0.054   2.595 -0.0121  1.0890 -0.1039
 7990TIP3    H123934   6.398   0.065   2.500 -2.1560 -0.6285 -0.3416
 7990TIP3    H223935   6.384  -0.040   2.609 -1.3589  1.5588  1.9584
 7991TIP3   OH223936   5.231   5.575   2.300 -0.4129 -0.2220 -0.4757
 7991TIP3    H123937   5.255   5.643   2.362  0.9435 -0.1383 -1.0521
 7991TIP3    H223938   5.242   5.616   2.214  1.1781 -1.3403 -0.8594
 7992TIP3   OH223939   5.418   0.474   3.488 -0.2453  0.0176  0.2379
 7992TIP3    H123940   5.491   0.430   3.444 -1.0225 -1.5569  0.4644
 7992TIP3    H223941   5.437   0.462   3.582 -2.1370 -2.9015  0.3618
 7993TIP3   OH223942   4.002   2.484   0.676 -0.9196 -0.0428  0.3954
 7993TIP3    H123943   3.979   2.439   0.757  1.9877 -1.2650  0.6390
 7993TIP3    H223944   4.046   2.418   0.623 -0.7126  1.3325 -1.2229
 7994TIP3   OH223945   1.858   5.472   0.965 -0.3866  0.1879  0.4407
 7994TIP3    H123946   1.838   5.458   1.058 -0.2542 -0.7431  0.3348
 7994TIP3    H223947   1.834   5.563   0.949 -0.1601  0.4362  1.4530
 7995TIP3   OH223948   7.217   5.285   1.767 -0.4112  0.6184 -0.0681
 7995TIP3    H123949   7.135   5.251   1.804  1.1379 -1.5524  1.6452
 7995TIP3    H223950   7.274   5.208   1.762  1.3148  1.9224 -1.9195
 7996TIP3   OH223951   1.565   6.502   5.219  0.5639 -0.3678  0.0381
 7996TIP3    H123952   1.481   6.546   5.232  0.4812 -0.7384  0.8759
 7996TIP3    H223953   1.596   6.485   5.308  0.7063 -1.7683 -0.2522
 7997TIP3   OH223954   3.927   5.331   2.602  0.1754 -0.1275  0.0658
 7997TIP3    H123955   3.964   5.416   2.575  0.4238  0.0938  1.0510
 7997TIP3    H223956   3.991   5.267   2.573  0.7495  0.1567  0.6886
 7998TIP3   OH223957   5.141   0.822   2.506 -0.4264  0.1833  0.2603
 7998TIP3    H123958   5.159   0.894   2.445 -0.7020  0.7786  0.8592
 7998TIP3    H223959   5.159   0.860   2.592  0.5000 -0.8036  0.5253
 7999TIP3   OH223960   0.239   5.258   3.059 -0.1710  0.1585  0.0899
 7999TIP3    H123961   0.196   5.317   2.996 -0.7340 -0.4316 -0.0881
 7999TIP3    H223962   0.329   5.252   3.028 -0.5228 -0.3905 -0.8733
 8000TIP3   OH223963   3.959   1.266   2.056  0.2624  0.8882  0.3972
 8000TIP3    H123964   3.923   1.177   2.060  0.3448  0.8819  1.1780
 8000TIP3    H223965   3.962   1.295   2.147  0.3231  1.6623  0.1555
 8001TIP3   OH223966   1.893   6.559   2.055  0.4118 -0.5030  0.3894
 8001TIP3    H123967   1.881   6.597   2.142 -0.0381 -0.9032  0.5095
 8001TIP3    H223968   1.839   6.480   2.056 -1.5308  0.6926 -1.0542
 8002TIP3   OH223969   4.922   5.240   2.893  0.0389 -0.4170  0.3649
 8002TIP3    H123970   4.853   5.303   2.871  0.9766 -0.0511 -1.7916
 8002TIP3    H223971   4.917   5.175   2.823  1.2622 -0.8911  0.7146
 8003TIP3   OH223972   6.795   6.297   4.957 -0.4411 -0.6382 -0.0989
 8003TIP3    H123973   6.772   6.295   5.050 -0.5337  0.2272 -0.0987
 8003TIP3    H223974   6.717   6.264   4.912 -0.9457  0.3501  0.0376
 8004TIP3   OH223975   0.623   3.128   1.818  0.4111 -0.4152  0.5099
 8004TIP3    H123976   0.656   3.118   1.908 -0.3412 -0.9960  0.7344
 8004TIP3    H223977   0.553   3.062   1.811  0.5833 -0.4946 -0.5617
 8005TIP3   OH223978   2.409   0.519   4.313  0.4808 -0.6505  0.3420
 8005TIP3    H123979   2.475   0.476   4.259 -0.4651 -0.9549 -0.6003
 8005TIP3    H223980   2.459   0.577   4.370  1.5672 -0.9053 -0.3272
 8006TIP3   OH223981   1.951   4.549   5.272 -0.0328 -0.3443  0.0698
 8006TIP3    H123982   2.026   4.557   5.213  0.8562  2.3003  1.3738
 8006TIP3    H223983   1.916   4.637   5.279 -1.2204 -0.8977  2.0390
 8007TIP3   OH223984   5.747   3.813   3.495  0.1536  0.2804 -0.2712
 8007TIP3    H123985   5.670   3.756   3.504  0.2670  0.0132 -0.8980
 8007TIP3    H223986   5.819   3.754   3.474  0.3054  0.6330 -0.7726
 8008TIP3   OH223987   4.434   0.668   0.015  0.4487  0.5491  0.3515
 8008TIP3    H123988   4.472   0.723  -0.053  1.6852 -0.3674  0.2743
 8008TIP3    H223989   4.418   0.729   0.088  1.7862  1.0347  0.2696
 8009TIP3   OH223990   0.035   2.565   1.475 -0.0912  0.1283 -0.0643
 8009TIP3    H123991   0.043   2.471   1.460 -0.8911 -0.2778  1.7412
 8009TIP3    H223992   0.083   2.580   1.557  1.3803  1.6078 -1.1220
 8010TIP3   OH223993   1.852   0.265   3.698  0.5108  0.1490  0.4165
 8010TIP3    H123994   1.851   0.329   3.627 -2.1073  0.5460  0.7134
 8010TIP3    H223995   1.783   0.295   3.758 -0.3276 -2.5289  0.9324
 8011TIP3   OH223996   6.271   0.359   3.506  0.1981 -0.0405  0.6242
 8011TIP3    H123997   6.335   0.410   3.555  1.6024 -0.8602 -0.3000
 8011TIP3    H223998   6.313   0.340   3.423 -2.0164  1.0811 -0.8638
 8012TIP3   OH223999   1.335   6.011   5.465  0.4740 -0.0212  0.0429
 8012TIP3    H124000   1.387   5.952   5.411  0.5350  0.8525 -0.8733
 8012TIP3    H224001   1.333   6.093   5.416 -0.2806  0.4952  0.9129
 8013TIP3   OH224002   2.778   4.282   4.326  0.2123  0.3063 -0.3927
 8013TIP3    H124003   2.827   4.218   4.273  0.5835 -0.5904  0.9663
 8013TIP3    H224004   2.843   4.314   4.389 -0.3930  0.8163 -0.0241
 8014TIP3   OH224005   2.409   6.671   3.918 -0.1248 -0.0172  0.5084
 8014TIP3    H124006   2.459   6.606   3.968  0.1115  0.6423  1.1654
 8014TIP3    H224007   2.475   6.732   3.885 -0.1196 -1.2517 -1.9134
 8015TIP3   OH224008   1.427   0.743   4.950  0.4044  0.6511  0.1425
 8015TIP3    H124009   1.475   0.751   5.032 -0.4367  3.5046  0.4502
 8015TIP3    H224010   1.338   0.716   4.976 -0.2797  2.9764  0.3894
 8016TIP3   OH224011   5.090   4.215   0.360  0.4436  0.3089 -0.1851
 8016TIP3    H124012   5.027   4.278   0.325  0.0683 -0.3266 -0.6787
 8016TIP3    H224013   5.121   4.254   0.441  0.8365  1.5213 -0.8924
 8017TIP3   OH224014   5.734   0.108   1.263  0.2666 -0.6430  0.5049
 8017TIP3    H124015   5.662   0.111   1.326  0.9196  0.5030  1.2336
 8017TIP3    H224016   5.693   0.080   1.181 -0.9065 -0.5214  1.0269
 8018TIP3   OH224017   0.120   5.361   3.760 -0.2960 -0.3500 -0.0832
 8018TIP3    H124018   0.040   5.319   3.792 -1.2003  1.3687  0.0283
 8018TIP3    H224019   0.089   5.427   3.698  1.1005 -0.0932 -0.5325
 8019TIP3   OH224020   4.505   5.464   4.472  0.1879 -0.0477  0.5069
 8019TIP3    H124021   4.595   5.492   4.457  0.0722  0.6982  1.1677
 8019TIP3    H224022   4.451   5.538   4.445 -0.3766 -1.2420 -1.9316
 8020TIP3   OH224023  -0.003   2.713   5.842 -0.5398 -0.7178 -0.8819
 8020TIP3    H124024  -0.019   2.619   5.835 -2.7992 -0.3130 -2.0036
 8020TIP3    H224025   0.073   2.728   5.787  1.1796 -2.1246  0.9396
 8021TIP3   OH224026   6.376   1.218   4.280 -0.0538 -0.6537  0.2528
 8021TIP3    H124027   6.309   1.214   4.349  1.3756 -1.3122  1.6662
 8021TIP3    H224028   6.397   1.311   4.272 -0.4255 -0.5449  0.5260
 8022TIP3   OH224029   3.987   1.342   0.532  0.6383  0.2490 -0.1742
 8022TIP3    H124030   4.011   1.327   0.441 -2.0442  0.6850 -1.0352
 8022TIP3    H224031   3.998   1.436   0.545 -0.6970  0.4776 -0.6231
 8023TIP3   OH224032   5.783   3.696   4.741 -0.2328  0.4769  0.4923
 8023TIP3    H124033   5.815   3.771   4.791 -0.1157 -0.0017  1.1474
 8023TIP3    H224034   5.845   3.688   4.667 -1.0325  1.8429 -0.3589
 8024TIP3   OH224035   7.090   3.118   2.411  0.4213  0.1606 -0.6470
 8024TIP3    H124036   7.014   3.098   2.466  1.9543 -0.9236  1.2485
 8024TIP3    H224037   7.115   3.207   2.436  0.0604  0.3467 -0.9386
 8025TIP3   OH224038   6.962   0.832   2.500 -0.4168 -0.2089  0.5649
 8025TIP3    H124039   6.913   0.838   2.418 -0.3299 -0.4102  0.5006
 8025TIP3    H224040   6.987   0.923   2.519  0.3024 -0.2738 -0.0703
 8026TIP3   OH224041   0.344   3.410   5.516 -1.0200 -0.5558  0.9670
 8026TIP3    H124042   0.344   3.471   5.590 -0.9553  0.4733  0.1519
 8026TIP3    H224043   0.254   3.381   5.508 -1.3378  0.5173  0.5182
 8027TIP3   OH224044   6.218   5.947   5.912 -0.0358 -0.0810 -0.6842
 8027TIP3    H124045   6.152   5.878   5.907 -0.1304  0.0244 -0.8978
 8027TIP3    H224046   6.255   5.951   5.824  1.8924 -1.7308 -0.0018
 8028TIP3   OH224047   1.339   3.417   5.053  0.2949  0.1405 -0.1235
 8028TIP3    H124048   1.295   3.348   5.103  1.6086  0.1932  1.1654
 8028TIP3    H224049   1.387   3.369   4.984 -0.1278 -0.0786 -0.2697
 8029TIP3   OH224050   6.000   5.952   0.915  0.9201 -0.0318  0.3281
 8029TIP3    H124051   6.049   5.887   0.863  0.5503 -0.6957  0.7942
 8029TIP3    H224052   5.948   6.000   0.850  0.4562 -0.8570  0.0728
 8030TIP3   OH224053   1.293   5.453   4.798 -0.1450  0.0134 -0.3394
 8030TIP3    H124054   1.304   5.359   4.779  0.4693 -0.0377  0.2233
 8030TIP3    H224055   1.371   5.493   4.760 -1.0631  0.5057 -1.8188
 8031TIP3   OH224056   5.135   1.765   4.547 -0.3057 -0.2266  0.1064
 8031TIP3    H124057   5.061   1.704   4.540  1.2324 -2.1585 -0.4322
 8031TIP3    H224058   5.120   1.812   4.628 -0.3848 -3.1067  1.9238
 8032TIP3   OH224059   1.330   4.247   3.744 -0.5592  0.3166 -0.0638
 8032TIP3    H124060   1.255   4.204   3.786  0.6567 -0.0380  1.8695
 8032TIP3    H224061   1.294   4.327   3.706 -2.0244 -0.1510  0.2814
 8033TIP3   OH224062   4.593   5.183   1.766 -0.0275 -0.0187  0.1012
 8033TIP3    H124063   4.551   5.125   1.830 -0.2234 -0.9673 -0.8532
 8033TIP3    H224064   4.686   5.173   1.783 -0.0154  3.2453  3.2426
 8034TIP3   OH224065   2.946   4.716   0.658  0.6276 -0.4085 -0.0566
 8034TIP3    H124066   2.936   4.809   0.678 -0.8788 -0.5728  0.0872
 8034TIP3    H224067   3.027   4.711   0.607  0.2469  1.1174 -0.8772
 8035TIP3   OH224068   2.782   3.335   0.701 -0.2186  0.1753  0.2545
 8035TIP3    H124069   2.689   3.356   0.692  0.0637  0.9773 -1.1161
 8035TIP3    H224070   2.785   3.239   0.700 -1.0554  0.1265  0.8577
 8036TIP3   OH224071   2.288   4.291   2.641  0.0248 -0.7778 -0.7197
 8036TIP3    H124072   2.310   4.346   2.716  1.4647 -2.6283  0.3075
 8036TIP3    H224073   2.215   4.236   2.672  0.5390 -1.4614 -0.6986
 8037TIP3   OH224074   0.288   2.713   0.806 -0.1240 -0.4713  0.0539
 8037TIP3    H124075   0.313   2.623   0.782  0.2149 -0.4341  0.2606
 8037TIP3    H224076   0.224   2.702   0.876  0.9208 -0.5384  1.0261
 8038TIP3   OH224077   0.252   4.031   1.547 -0.1024  0.4157 -0.3515
 8038TIP3    H124078   0.250   4.127   1.555 -0.4685  0.2212  3.8061
 8038TIP3    H224079   0.186   4.012   1.481 -0.6456  2.9971 -0.6892
 8039TIP3   OH224080   0.394   3.226   5.843  0.0144 -0.3044 -0.0173
 8039TIP3    H124081   0.462   3.265   5.788 -0.9523  1.0022 -0.3152
 8039TIP3    H224082   0.432   3.227   5.931  0.8392 -0.7103 -0.3491
 8040TIP3   OH224083   6.281   0.413   4.628 -0.9715  0.3758  0.2939
 8040TIP3    H124084   6.241   0.451   4.550 -1.4045 -0.2997  0.1792
 8040TIP3    H224085   6.336   0.484   4.664 -0.0446  0.4091 -1.1139
 8041TIP3   OH224086   7.117   1.080   2.533 -0.0163  0.0127  0.6786
 8041TIP3    H124087   7.199   1.093   2.486  1.5004  1.0242  3.3654
 8041TIP3    H224088   7.079   1.168   2.541 -0.8555 -0.3102  0.3127
 8042TIP3   OH224089   4.619   5.320   3.167  0.0732  0.8091 -0.8440
 8042TIP3    H124090   4.613   5.225   3.166  0.3173  0.7084  1.5169
 8042TIP3    H224091   4.538   5.349   3.209 -0.0153  1.6545 -1.5671
 8043TIP3   OH224092   4.098   5.105   0.836  0.0937 -0.2311  0.0258
 8043TIP3    H124093   4.107   5.017   0.873  0.5436 -0.3400 -0.3316
 8043TIP3    H224094   4.005   5.113   0.815  0.2337 -1.0547 -0.9865
 8044TIP3   OH224095   4.808   1.458   2.297 -0.0872 -0.3796  0.2708
 8044TIP3    H124096   4.862   1.461   2.218 -0.3277 -0.6042  0.0905
 8044TIP3    H224097   4.869   1.444   2.369  0.1023 -0.5369  0.0801
 8045TIP3   OH224098   1.799   1.956   3.184  0.0066 -0.4908 -0.4610
 8045TIP3    H124099   1.839   1.871   3.204 -0.6423 -0.7394 -0.1867
 8045TIP3    H224100   1.772   1.948   3.092 -0.7808 -0.8795 -0.1991
 8046TIP3   OH224101   6.419   3.242   4.918 -0.7583 -0.0205 -0.0802
 8046TIP3    H124102   6.493   3.186   4.894 -2.0487 -1.0007 -2.0353
 8046TIP3    H224103   6.390   3.279   4.835 -2.2056  0.6592  0.7027
 8047TIP3   OH224104   5.358   2.667   5.045 -0.2908  0.2729 -0.3935
 8047TIP3    H124105   5.404   2.587   5.020 -0.2501 -0.4763  1.8405
 8047TIP3    H224106   5.428   2.729   5.067 -0.3236  0.2445 -0.2058
 8048TIP3   OH224107   0.949   4.113   2.203  0.3276 -0.2741  0.4445
 8048TIP3    H124108   0.968   4.040   2.262  1.4036  0.3036  0.8388
 8048TIP3    H224109   0.958   4.075   2.116  0.9745 -0.6103  0.6432
 8049TIP3   OH224110   3.048   1.264   0.069  0.5655 -0.4423  0.5010
 8049TIP3    H124111   3.097   1.330   0.019  2.1740 -0.2958  2.1841
 8049TIP3    H224112   2.963   1.306   0.085  1.1950  0.8368  0.6687
 8050TIP3   OH224113   1.363   2.376   4.206  0.4060  0.7061  0.2100
 8050TIP3    H124114   1.377   2.438   4.279  1.6875  0.1286  0.4773
 8050TIP3    H224115   1.294   2.417   4.154 -1.8662  0.2888  2.6899
 8051TIP3   OH224116   6.005   2.839   3.205 -0.4897  0.2871 -0.1077
 8051TIP3    H124117   6.029   2.748   3.226 -0.2240  0.3260 -0.2330
 8051TIP3    H224118   5.913   2.834   3.180 -0.3161 -0.0478 -0.6973
 8052TIP3   OH224119   0.865   3.586   4.377  0.1881  0.7268 -0.1953
 8052TIP3    H124120   0.939   3.540   4.418  0.1044 -0.5239 -1.3806
 8052TIP3    H224121   0.808   3.610   4.450  1.1902  0.6750  0.6296
 8053TIP3   OH224122   3.218   2.415   1.070 -0.4794  0.7553  0.2335
 8053TIP3    H124123   3.261   2.480   1.014  0.2554 -0.2101 -0.3755
 8053TIP3    H224124   3.165   2.466   1.131  1.2534  1.9874  0.7799
 8054TIP3   OH224125   5.954   3.428   4.812 -0.4352 -0.0992  0.1498
 8054TIP3    H124126   5.950   3.492   4.883  0.8178 -0.3773  0.5048
 8054TIP3    H224127   5.916   3.473   4.736 -1.0339  0.4880  0.7860
 8055TIP3   OH224128   3.762   4.312   0.677  0.3391 -0.0074  0.0955
 8055TIP3    H124129   3.840   4.280   0.631 -0.3543 -1.4297 -0.1605
 8055TIP3    H224130   3.740   4.393   0.632 -0.8018 -1.7515 -2.7752
 8056TIP3   OH224131   0.243   3.404   5.198 -0.4898  0.1282 -0.5091
 8056TIP3    H124132   0.334   3.379   5.210 -0.5687  0.5376  1.1806
 8056TIP3    H224133   0.225   3.386   5.105  0.9633 -1.0017 -0.6017
 8057TIP3   OH224134   3.265   4.815   0.825  0.0948 -0.4024  0.1393
 8057TIP3    H124135   3.355   4.781   0.828  0.8604  1.4837  0.5528
 8057TIP3    H224136   3.228   4.779   0.745  1.2949 -1.0893 -0.1244
 8058TIP3   OH224137   4.657   4.343   1.512  0.1016  0.1825 -0.0368
 8058TIP3    H124138   4.620   4.412   1.457 -0.2905  0.5127  0.6223
 8058TIP3    H224139   4.750   4.368   1.521  0.1786  0.1021 -0.5746
 8059TIP3   OH224140   6.644   4.236   3.580 -0.5007  0.0404 -0.0267
 8059TIP3    H124141   6.677   4.168   3.639  0.7635  0.5595 -0.1083
 8059TIP3    H224142   6.562   4.265   3.621 -1.3893 -1.9232 -0.3016
 8060TIP3   OH224143   0.797   1.656   1.297 -0.0655  0.3387 -0.3866
 8060TIP3    H124144   0.800   1.664   1.392  0.2171 -2.0618 -0.1339
 8060TIP3    H224145   0.704   1.659   1.276 -0.0993  1.5704 -0.1386
 8061TIP3   OH224146   0.598   4.738   5.513 -0.4616 -0.6842 -0.2394
 8061TIP3    H124147   0.690   4.764   5.522 -0.9195  1.7379 -1.5142
 8061TIP3    H224148   0.600   4.662   5.455  0.6825  0.4418 -1.7556
 8062TIP3   OH224149   5.852   2.925   4.393 -0.6178 -0.2919  0.4507
 8062TIP3    H124150   5.894   2.946   4.309 -1.0079  0.7208  0.4950
 8062TIP3    H224151   5.920   2.879   4.443  0.9589  2.4395  1.0280
 8063TIP3   OH224152   1.898   1.172   1.982  0.2552 -0.2824  0.5036
 8063TIP3    H124153   1.959   1.220   2.037  0.8060  1.1332 -1.2286
 8063TIP3    H224154   1.950   1.144   1.907 -1.0375  0.4529 -0.7340
 8064TIP3   OH224155   5.224   6.032   4.719 -0.3693 -0.1682 -0.1995
 8064TIP3    H124156   5.255   5.983   4.642 -1.7820 -0.1909 -0.7955
 8064TIP3    H224157   5.129   6.034   4.708 -0.6400 -0.5377  1.7877
 8065TIP3   OH224158   6.531   0.603   4.196  0.5780 -0.7312  0.3284
 8065TIP3    H124159   6.499   0.562   4.116  0.9251  1.2928 -0.9197
 8065TIP3    H224160   6.534   0.697   4.176  1.4516 -0.2358  2.4439
 8066TIP3   OH224161   5.336   4.413   0.404  0.1623  0.3494 -0.1539
 8066TIP3    H124162   5.395   4.439   0.333 -2.2172 -3.2246 -3.9148
 8066TIP3    H224163   5.359   4.322   0.421 -2.0502 -0.1294  0.6070
 8067TIP3   OH224164   3.946   3.905   5.005  0.3259 -0.4466  0.7784
 8067TIP3    H124165   3.945   3.972   4.936 -2.3209 -0.6058  0.5623
 8067TIP3    H224166   3.991   3.831   4.964  1.2813  0.3942  0.2364
 8068TIP3   OH224167   4.997   5.832   4.863  0.4908 -0.0096 -0.2088
 8068TIP3    H124168   4.958   5.835   4.950  1.7043  1.5768  0.2994
 8068TIP3    H224169   4.957   5.906   4.816 -0.7283 -1.2836 -1.3057
 8069TIP3   OH224170   1.103   4.976   2.703  0.3972 -0.1281  0.4859
 8069TIP3    H124171   1.158   5.048   2.733  1.4357 -1.1334  1.0760
 8069TIP3    H224172   1.013   5.006   2.719  0.7910 -0.8141  5.5040
 8070TIP3   OH224173   2.002   3.630   2.294 -0.2455 -0.4160 -0.0789
 8070TIP3    H124174   1.992   3.545   2.250 -0.8601  0.3341 -1.4709
 8070TIP3    H224175   1.940   3.627   2.367 -0.3253 -1.1303 -0.1681
 8071TIP3   OH224176   0.013   3.492   0.510 -0.3374 -0.5826  0.5224
 8071TIP3    H124177   0.090   3.458   0.466  0.4864  1.5533  0.1736
 8071TIP3    H224178  -0.000   3.435   0.585  0.7041 -1.8362 -0.2190
 8072TIP3   OH224179   4.772   0.491   1.248  0.2875 -0.5098 -0.1828
 8072TIP3    H124180   4.865   0.513   1.246  0.0232  0.7866  0.6932
 8072TIP3    H224181   4.749   0.492   1.341 -1.1410  1.7353 -0.4706
 8073TIP3   OH224182   4.600   2.343   1.195 -0.0916  0.0953 -0.3295
 8073TIP3    H124183   4.614   2.271   1.256  0.0344 -0.3346 -0.8522
 8073TIP3    H224184   4.600   2.422   1.249 -0.9579 -0.3505  0.3458
 8074TIP3   OH224185   0.005   2.659   0.713  0.4760 -0.3018 -0.2192
 8074TIP3    H124186   0.065   2.695   0.648 -0.4507  0.7552 -0.5455
 8074TIP3    H224187   0.045   2.681   0.797  2.5877 -3.2343 -0.3164
 8075TIP3   OH224188   4.172   2.815   3.043 -0.0089 -0.5635 -0.1136
 8075TIP3    H124189   4.211   2.728   3.048 -0.1791 -0.6592 -0.4776
 8075TIP3    H224190   4.106   2.809   2.974 -1.8549 -0.8829  1.5677
 8076TIP3   OH224191   4.728   6.623   3.885  0.1442 -0.2291 -0.0444
 8076TIP3    H124192   4.811   6.631   3.839  0.0346 -0.4385 -0.2795
 8076TIP3    H224193   4.671   6.686   3.841  0.2599  0.1282  0.3069
 8077TIP3   OH224194   1.631   5.041   5.399 -0.0972 -0.1112 -0.8473
 8077TIP3    H124195   1.566   5.007   5.460  1.0314 -1.4610 -0.3491
 8077TIP3    H224196   1.651   5.129   5.431 -1.3674  0.1856 -0.7990
 8078TIP3   OH224197   5.409   4.288   1.599 -0.6302 -0.1039 -0.3244
 8078TIP3    H124198   5.398   4.381   1.580  0.6479  0.1808  0.2563
 8078TIP3    H224199   5.503   4.276   1.608 -0.8929 -1.0926  1.4363
 8079TIP3   OH224200   6.634   5.249   2.780  1.0635  0.0299  0.1413
 8079TIP3    H124201   6.664   5.159   2.799  0.4344 -0.3318 -0.5786
 8079TIP3    H224202   6.631   5.254   2.685  0.4949  0.6204  0.1861
 8080TIP3   OH224203   4.158   2.275   0.555 -0.3926  0.0730  0.1689
 8080TIP3    H124204   4.243   2.237   0.575  0.7323  1.2904 -1.9473
 8080TIP3    H224205   4.170   2.318   0.470 -3.3378 -0.4075 -0.6172
 8081TIP3   OH224206   2.004   2.093   0.149 -0.0702 -0.4822  0.2206
 8081TIP3    H124207   2.076   2.156   0.142 -0.3792  0.1696  2.2114
 8081TIP3    H224208   1.934   2.141   0.193 -1.2616 -1.4847 -0.5144
 8082TIP3   OH224209   3.525   4.842   2.177  0.0304  0.0249 -0.7967
 8082TIP3    H124210   3.509   4.927   2.136 -0.3823 -0.5447 -1.8498
 8082TIP3    H224211   3.478   4.779   2.122  0.9653 -0.9823 -0.4753
 8083TIP3   OH224212   6.292   5.029   3.995  0.2825  0.1965 -0.2159
 8083TIP3    H124213   6.299   4.945   4.041 -2.3442  1.0423  2.0047
 8083TIP3    H224214   6.369   5.078   4.022 -0.2031 -0.0774  1.8602
 8084TIP3   OH224215   4.778   0.372   2.855  0.0475  0.1206 -0.3923
 8084TIP3    H124216   4.766   0.447   2.796 -0.7586  0.3029 -0.0098
 8084TIP3    H224217   4.770   0.296   2.798  2.2898  0.3105 -1.0414
 8085TIP3   OH224218   1.298   4.986   4.257  0.5202 -0.1869 -0.2448
 8085TIP3    H124219   1.358   4.916   4.281  1.9174  0.5241 -1.4803
 8085TIP3    H224220   1.246   5.002   4.336  0.2144 -2.5166  0.0948
 8086TIP3   OH224221   3.777   5.405   1.472  0.0192  0.6389  0.2613
 8086TIP3    H124222   3.794   5.490   1.512  1.8448  1.0395 -1.2459
 8086TIP3    H224223   3.860   5.358   1.479 -0.8827 -0.9710  0.8435
 8087TIP3   OH224224   0.110   3.623   2.803  0.1265  0.0665 -0.0557
 8087TIP3    H124225   0.102   3.616   2.708  0.3939 -0.7988 -0.0187
 8087TIP3    H224226   0.183   3.684   2.816  2.8842 -2.8877 -0.4617
 8088TIP3   OH224227   6.179   1.513   5.152 -0.8198  0.0105  0.0980
 8088TIP3    H124228   6.158   1.445   5.088  0.1953 -0.7045  0.4859
 8088TIP3    H224229   6.119   1.497   5.224 -3.3068  1.9954 -1.3602
 8089TIP3   OH224230   1.263   0.298   3.734 -0.1880  0.1252 -0.8667
 8089TIP3    H124231   1.225   0.373   3.780 -0.7522 -0.2335 -0.7318
 8089TIP3    H224232   1.323   0.337   3.670 -0.9452  0.7298 -1.2309
 8090TIP3   OH224233   0.383   3.800   4.457 -0.8726  0.3730 -0.0234
 8090TIP3    H124234   0.473   3.779   4.482 -1.0933  0.7039  1.0689
 8090TIP3    H224235   0.389   3.818   4.363  0.1450  0.0755 -0.0352
 8091TIP3   OH224236   6.367   5.590   3.641 -0.0299  0.5995  0.1447
 8091TIP3    H124237   6.445   5.645   3.641  0.7879 -0.5264 -1.2396
 8091TIP3    H224238   6.318   5.618   3.564 -0.6407  0.7862  0.5913
 8092TIP3   OH224239   4.360   3.627   1.338  0.1832 -0.0006 -0.1771
 8092TIP3    H124240   4.331   3.711   1.303 -0.6294 -0.5493 -0.8540
 8092TIP3    H224241   4.316   3.620   1.423 -0.2903 -0.0500 -0.4266
 8093TIP3   OH224242   6.452   0.184   5.697 -0.3471  0.3982 -0.2898
 8093TIP3    H124243   6.417   0.242   5.629  1.7792  0.6195 -1.2648
 8093TIP3    H224244   6.533   0.150   5.661  1.6186  1.5793  2.6191
 8094TIP3   OH224245   3.308   6.274   4.406  0.5166  0.3804  0.2476
 8094TIP3    H124246   3.310   6.268   4.502 -0.3745 -1.9425  0.1829
 8094TIP3    H224247   3.319   6.184   4.376 -1.7547  0.6804 -1.7776
 8095TIP3   OH224248   1.897   6.778   5.706 -0.0880  0.2045  0.0248
 8095TIP3    H124249   1.867   6.691   5.681  2.3276 -1.0738  1.2291
 8095TIP3    H224250   1.918   6.770   5.799  2.1328  1.4561 -0.3132
 8096TIP3   OH224251   0.736   5.754   0.063  0.4781  0.0609  0.1669
 8096TIP3    H124252   0.800   5.820   0.090 -0.5886  0.6406  1.3622
 8096TIP3    H224253   0.662   5.766   0.122 -1.0588 -0.0949 -1.6347
 8097TIP3   OH224254   2.280   4.266   4.551 -0.0091 -0.2645  0.4961
 8097TIP3    H124255   2.327   4.207   4.609  0.5655 -1.4863 -1.1504
 8097TIP3    H224256   2.317   4.250   4.464 -1.0715  1.2528 -0.2956
 8098TIP3   OH224257   0.923   1.990   3.284  0.1479 -0.8895 -0.6916
 8098TIP3    H124258   0.979   2.001   3.361 -0.4851  1.6877 -0.5262
 8098TIP3    H224259   0.980   2.008   3.210 -0.7620  4.4419 -0.4504
 8099TIP3   OH224260   5.392   6.547   5.705 -0.1954  0.2916  0.2026
 8099TIP3    H124261   5.382   6.487   5.779  1.0196 -1.0048 -0.6305
 8099TIP3    H224262   5.304   6.580   5.689 -1.1895 -2.2894 -0.1142
 8100TIP3   OH224263   0.453   6.048   4.143  0.3497  0.4259  0.1134
 8100TIP3    H124264   0.380   5.997   4.107  0.3898  0.3253  0.1728
 8100TIP3    H224265   0.416   6.094   4.218  0.4725 -0.0465  0.4746
 8101TIP3   OH224266   6.551   4.112   0.892 -0.1884  0.4649 -0.8872
 8101TIP3    H124267   6.497   4.068   0.826  0.5771 -4.6032  1.4103
 8101TIP3    H224268   6.505   4.098   0.975  0.5860  3.6148  0.2374
 8102TIP3   OH224269   5.130   2.720   3.253 -0.2971  0.2112  0.2838
 8102TIP3    H124270   5.179   2.640   3.273  2.2531  1.5271 -0.2361
 8102TIP3    H224271   5.126   2.722   3.157  1.1628  1.4732  0.2131
 8103TIP3   OH224272   0.527   5.268   4.042 -0.6071 -0.3922 -0.0862
 8103TIP3    H124273   0.567   5.343   4.086 -1.8711  0.1528  0.1922
 8103TIP3    H224274   0.433   5.285   4.047 -0.9264 -2.0438  0.0415
 8104TIP3   OH224275   2.110   3.090   3.113  0.4508 -0.2006 -0.2530
 8104TIP3    H124276   2.082   3.055   3.028  0.0170 -0.2194 -0.1024
 8104TIP3    H224277   2.030   3.096   3.164  0.9052 -1.7032  0.7111
 8105TIP3   OH224278   0.405   1.601   1.358 -0.0990 -0.3755 -0.0788
 8105TIP3    H124279   0.429   1.665   1.290  0.1185 -1.1035 -0.7057
 8105TIP3    H224280   0.316   1.573   1.334 -0.3500 -0.0168  0.4245
 8106TIP3   OH224281   2.159   5.017   2.405  0.0843 -0.1356  0.3260
 8106TIP3    H124282   2.136   5.067   2.327  0.3095 -1.4573 -0.6105
 8106TIP3    H224283   2.251   4.993   2.392 -0.4378 -2.0878  0.0154
 8107TIP3   OH224284   5.818   6.342   0.153  0.3621  0.0491 -0.2207
 8107TIP3    H124285   5.855   6.282   0.218 -0.6531  0.2389  0.5430
 8107TIP3    H224286   5.870   6.326   0.074  0.3812 -1.5356  0.0844
 8108TIP3   OH224287   2.886   0.079   0.442  0.2765  0.6242 -0.1356
 8108TIP3    H124288   2.978   0.092   0.465 -0.2847  1.2631  2.0241
 8108TIP3    H224289   2.886   0.002   0.385  1.7958 -2.3265  3.4320
 8109TIP3   OH224290   0.636   3.962   4.311  0.2575 -0.3406 -0.2630
 8109TIP3    H124291   0.578   3.914   4.252 -0.7014  1.8241 -1.1638
 8109TIP3    H224292   0.697   4.007   4.252  1.6977 -1.0725  0.5993
 8110TIP3   OH224293   4.043   5.390   0.328 -0.4044  1.0812  0.3393
 8110TIP3    H124294   4.079   5.414   0.413  1.7352 -2.8248  0.7538
 8110TIP3    H224295   3.948   5.386   0.342 -0.4264  3.6145  1.5136
 8111TIP3   OH224296   4.993   6.184   4.426  0.4940  0.2685  0.5489
 8111TIP3    H124297   4.961   6.095   4.416 -0.5669  0.5274  1.4240
 8111TIP3    H224298   5.088   6.178   4.412  0.1350 -0.5328 -2.0404
 8112TIP3   OH224299   0.118   4.334   2.901  0.0665  0.0831 -0.2922
 8112TIP3    H124300   0.107   4.240   2.915  1.5271 -0.0904 -0.0994
 8112TIP3    H224301   0.156   4.342   2.814  0.4396  0.4487 -0.1034
 8113TIP3   OH224302   6.003   6.600   1.348  0.2733  0.0241  0.6015
 8113TIP3    H124303   6.006   6.509   1.319 -1.4148  0.2596 -0.4865
 8113TIP3    H224304   5.954   6.597   1.430 -2.2556  0.1544 -0.7898
 8114TIP3   OH224305   1.436   4.713   1.912 -0.2369 -0.3451 -0.6245
 8114TIP3    H124306   1.390   4.774   1.854 -0.8695 -0.0948  0.1087
 8114TIP3    H224307   1.373   4.696   1.983  0.0504 -1.6146 -0.6510
 8115TIP3   OH224308   5.775   5.679   2.105  0.3104 -0.0146  0.1954
 8115TIP3    H124309   5.683   5.660   2.124 -0.0810  0.8002 -0.8075
 8115TIP3    H224310   5.812   5.595   2.076  0.0424 -0.4734  1.1475
 8116TIP3   OH224311   0.107   1.656   4.863 -0.2241  0.4254  0.1595
 8116TIP3    H124312   0.184   1.673   4.917 -0.4001  2.7674 -0.2226
 8116TIP3    H224313   0.090   1.739   4.818 -2.3210 -0.3529 -0.6192
 8117TIP3   OH224314   1.207   1.122   4.005  0.1920 -0.0247  0.2105
 8117TIP3    H124315   1.274   1.056   3.986 -0.8342 -0.8530 -0.5884
 8117TIP3    H224316   1.154   1.083   4.074 -0.3731 -0.0139 -0.2133
 8118TIP3   OH224317   6.702   4.279   2.647 -0.2452 -0.1714  0.5567
 8118TIP3    H124318   6.679   4.328   2.725 -0.2759  0.0465  0.4120
 8118TIP3    H224319   6.706   4.345   2.577  0.9911 -0.1604  0.6161
 8119TIP3   OH224320   4.162   0.171   0.694  0.0912  0.4204 -0.0580
 8119TIP3    H124321   4.236   0.159   0.635  1.9867  0.8098  2.1035
 8119TIP3    H224322   4.130   0.083   0.711  0.7103  0.1522 -0.2485
 8120TIP3   OH224323   2.739   5.270   1.097  0.5086 -0.4683  0.5786
 8120TIP3    H124324   2.691   5.214   1.158 -1.0219 -0.7490 -0.8050
 8120TIP3    H224325   2.732   5.224   1.013  3.1285 -0.4463  0.2616
 8121TIP3   OH224326   5.293   4.131   0.698  0.4950  0.1002  0.0387
 8121TIP3    H124327   5.274   4.205   0.756  0.1557 -0.3261  0.4733
 8121TIP3    H224328   5.316   4.172   0.615  1.5073  0.7498  0.6017
 8122TIP3   OH224329   1.878   4.984   4.208 -0.2468 -0.8710 -0.0789
 8122TIP3    H124330   1.855   4.943   4.125 -0.5089  0.3084 -0.6035
 8122TIP3    H224331   1.969   5.012   4.196 -0.8246  0.9029 -0.6625
 8123TIP3   OH224332   2.620   2.824   4.361  0.2104 -0.5646 -0.0497
 8123TIP3    H124333   2.541   2.872   4.387  0.2349 -0.9796  0.8405
 8123TIP3    H224334   2.686   2.892   4.348 -0.5302 -0.1154 -1.8348
 8124TIP3   OH224335   1.713   2.933   2.467  0.5344 -0.3247 -0.1222
 8124TIP3    H124336   1.719   2.906   2.376  1.6675  0.2778 -0.2408
 8124TIP3    H224337   1.672   3.019   2.464 -1.8057 -1.3243  0.1621
 8125TIP3   OH224338   7.013   6.381   2.444 -0.1453 -0.1472  0.7680
 8125TIP3    H124339   7.107   6.394   2.460  0.0946 -0.1940 -0.4689
 8125TIP3    H224340   6.970   6.449   2.496  0.7403  1.7678 -0.8428
 8126TIP3   OH224341   5.087   0.557   5.641  0.2761  0.0955  0.0456
 8126TIP3    H124342   5.014   0.558   5.703  1.1014 -0.3279  1.0654
 8126TIP3    H224343   5.161   0.521   5.691  0.6101 -1.7304 -1.6123
 8127TIP3   OH224344   2.400   2.973   4.401 -0.1651  0.3952  0.0305
 8127TIP3    H124345   2.382   2.969   4.307  0.8826  0.1323 -0.1714
 8127TIP3    H224346   2.314   2.976   4.442 -0.7090 -1.6828 -0.8401
 8128TIP3   OH224347   1.364   1.171   1.086 -0.2329 -0.2247  0.5774
 8128TIP3    H124348   1.323   1.113   1.022  0.3058 -1.8181  1.6195
 8128TIP3    H224349   1.295   1.187   1.150  0.4741 -2.3578  1.9711
 8129TIP3   OH224350   5.547   1.481   0.829 -0.0917  0.0386  0.1583
 8129TIP3    H124351   5.623   1.491   0.773 -1.7830 -1.7336 -2.6865
 8129TIP3    H224352   5.563   1.398   0.875  0.5475  0.6658  1.0976
 8130TIP3   OH224353   4.856   3.993   3.292  0.0091 -0.3486  0.1608
 8130TIP3    H124354   4.851   4.009   3.197  0.5796 -4.5436 -0.7638
 8130TIP3    H224355   4.947   3.970   3.308  0.3143  1.8616  2.1813
 8131TIP3   OH224356   1.720   4.556   3.877 -0.0082 -0.0932  0.2095
 8131TIP3    H124357   1.728   4.481   3.936  0.1963 -0.1544  0.1049
 8131TIP3    H224358   1.755   4.525   3.794  2.7507  0.9603  0.8784
 8132TIP3   OH224359   3.245   5.081   1.651  0.3334  0.1545  0.7124
 8132TIP3    H124360   3.275   5.169   1.674  0.9411  0.0885  0.2183
 8132TIP3    H224361   3.321   5.040   1.609 -1.0585  0.8031 -2.8121
 8133TIP3   OH224362   3.665   4.598   0.046  0.8591  0.2325 -0.2385
 8133TIP3    H124363   3.682   4.684   0.085 -0.1502  1.6684 -2.7374
 8133TIP3    H224364   3.573   4.581   0.065  1.0564 -0.2979  0.2458
 8134TIP3   OH224365   6.897   5.902   0.915  0.3311 -0.0786 -0.4503
 8134TIP3    H124366   6.957   5.878   0.986 -0.5405 -0.9877  0.0171
 8134TIP3    H224367   6.822   5.942   0.960  0.5479  1.0213 -1.0205
 8135TIP3   OH224368   4.291   5.394   5.798 -0.3437  0.0817  0.1125
 8135TIP3    H124369   4.245   5.455   5.740  0.4021 -0.6816 -1.3241
 8135TIP3    H224370   4.329   5.450   5.866 -1.2612  0.9954 -0.0996
 8136TIP3   OH224371   6.982   3.755   1.171  0.0748 -0.1392  0.0673
 8136TIP3    H124372   6.970   3.670   1.127 -0.4409  0.1475 -0.3649
 8136TIP3    H224373   6.977   3.735   1.264 -0.5468 -0.5233 -0.0399
 8137TIP3   OH224374   3.556   5.702   1.068  0.5100  0.0702  0.5295
 8137TIP3    H124375   3.621   5.684   1.000 -0.7898  0.0250 -0.7453
 8137TIP3    H224376   3.608   5.731   1.143  1.9259  0.9922 -0.7478
 8138TIP3   OH224377   0.748   3.799   1.670 -0.6129 -0.5068  0.1352
 8138TIP3    H124378   0.712   3.873   1.719 -0.4691  0.2867 -0.9198
 8138TIP3    H224379   0.739   3.724   1.729 -3.2676 -0.2035  0.2102
 8139TIP3   OH224380   5.232   4.791   1.292 -0.4830 -0.0289  0.4530
 8139TIP3    H124381   5.322   4.780   1.262 -0.3761  1.2925  0.2520
 8139TIP3    H224382   5.197   4.702   1.295  0.6699 -0.5118  0.0499
 8140TIP3   OH224383   3.735   3.227   1.320  0.1499  0.0196 -0.0894
 8140TIP3    H124384   3.807   3.278   1.283  0.4453  0.4093  0.9677
 8140TIP3    H224385   3.661   3.287   1.321  0.3023  0.2093  0.4757
 8141TIP3   OH224386   1.393   0.501   3.133  0.4054  0.0336 -0.1156
 8141TIP3    H124387   1.324   0.566   3.149  1.8980  1.4932  0.7308
 8141TIP3    H224388   1.399   0.452   3.214  0.4032 -0.0488 -0.1655
 8142TIP3   OH224389   0.309   5.730   2.218 -0.2202 -0.5308  0.2495
 8142TIP3    H124390   0.308   5.738   2.313 -0.4963  0.5222  0.1716
 8142TIP3    H224391   0.274   5.643   2.201  1.4498 -1.4321  1.1618
 8143TIP3   OH224392   2.998   3.544   2.179 -0.5888 -0.9529  0.2918
 8143TIP3    H124393   3.089   3.576   2.176 -1.8244  3.5756  2.3398
 8143TIP3    H224394   2.974   3.532   2.087  1.8399 -1.7682 -0.3274
 8144TIP3   OH224395   0.190   1.057   3.417  0.2215 -0.0493 -0.0802
 8144TIP3    H124396   0.101   1.053   3.454 -0.0336  0.5866 -0.6149
 8144TIP3    H224397   0.215   0.965   3.405 -0.2724 -0.2374  0.2806
 8145TIP3   OH224398   4.746   4.818   5.804  0.6045  0.3830  0.0148
 8145TIP3    H124399   4.756   4.748   5.868  0.4513 -0.4658 -0.8713
 8145TIP3    H224400   4.674   4.789   5.748  0.4510  1.3118 -0.2871
 8146TIP3   OH224401   4.082   0.599   1.659 -0.4063  0.1017  0.1255
 8146TIP3    H124402   4.143   0.639   1.720 -0.4213 -0.4181  0.4809
 8146TIP3    H224403   4.086   0.505   1.677 -0.3418 -0.0739 -0.7336
 8147TIP3   OH224404   6.528   0.164   0.729  0.3506 -0.6611 -0.3889
 8147TIP3    H124405   6.467   0.108   0.681 -1.1395  0.8703 -0.3749
 8147TIP3    H224406   6.580   0.103   0.781 -1.8018 -2.0146  0.3317
 8148TIP3   OH224407   6.222   2.628   3.204  0.2167  0.4987 -0.5961
 8148TIP3    H124408   6.262   2.696   3.149  0.3541 -0.7280 -2.1147
 8148TIP3    H224409   6.273   2.549   3.184  0.2956  0.0105  1.3849
 8149TIP3   OH224410   1.862   3.156   3.750 -0.0670 -0.2611 -0.3124
 8149TIP3    H124411   1.800   3.227   3.735 -0.3362 -0.5892 -0.7920
 8149TIP3    H224412   1.808   3.084   3.783  0.0139 -0.6232 -0.9521
 8150TIP3   OH224413   6.623   2.274   4.214 -0.2319 -0.4431 -0.9139
 8150TIP3    H124414   6.592   2.295   4.302  0.5205  1.4181 -1.0510
 8150TIP3    H224415   6.559   2.313   4.155 -0.2583 -0.9119 -1.2019
 8151TIP3   OH224416   5.023   3.119   5.083  0.2957  0.0219 -0.4322
 8151TIP3    H124417   4.928   3.108   5.086  0.0968  1.7692  1.2876
 8151TIP3    H224418   5.058   3.034   5.108 -0.8110 -0.5809 -0.8771
 8152TIP3   OH224419   2.345   1.542   1.951  0.3166 -0.1908  0.1217
 8152TIP3    H124420   2.370   1.622   1.905  0.1859 -0.1012  0.2043
 8152TIP3    H224421   2.273   1.505   1.900 -0.4332  0.3813  0.7285
 8153TIP3   OH224422   4.204   5.435   4.933  0.1039  0.5767 -0.0672
 8153TIP3    H124423   4.239   5.418   5.020 -2.3545 -1.2771  0.6549
 8153TIP3    H224424   4.235   5.363   4.879 -1.4995 -0.4316  0.2922
 8154TIP3   OH224425   4.569   6.066   1.329  0.6157 -0.0651  0.1767
 8154TIP3    H124426   4.604   6.084   1.242  2.3481 -0.9545  0.6331
 8154TIP3    H224427   4.475   6.055   1.316  1.0000 -1.4195 -1.7947
 8155TIP3   OH224428   2.485   1.111   5.126 -0.8658 -0.1950  0.1125
 8155TIP3    H124429   2.529   1.108   5.211 -0.9210  1.1878  0.2210
 8155TIP3    H224430   2.554   1.139   5.065 -1.5212  1.9597  0.2788
 8156TIP3   OH224431   6.677   3.724   5.667 -0.1040 -0.5050  0.5651
 8156TIP3    H124432   6.766   3.740   5.697  0.2790 -0.4389 -0.5529
 8156TIP3    H224433   6.653   3.804   5.620  0.0257 -1.2785 -0.8978
 8157TIP3   OH224434   3.878   1.713   0.846  0.0208 -0.0954  0.1697
 8157TIP3    H124435   3.878   1.670   0.760  1.8207  2.0342 -0.9873
 8157TIP3    H224436   3.913   1.800   0.830  0.6879  0.3005  3.1252
 8158TIP3   OH224437   4.510   1.200   1.967 -0.0662  0.1777  0.7256
 8158TIP3    H124438   4.553   1.236   2.045 -1.1825 -0.6648  1.7646
 8158TIP3    H224439   4.451   1.270   1.938 -1.0840 -0.1763  1.8236
 8159TIP3   OH224440   4.640   2.747   5.306 -0.0406 -0.3347  0.1605
 8159TIP3    H124441   4.588   2.723   5.382  1.3865 -0.1728  1.2391
 8159TIP3    H224442   4.589   2.814   5.261 -1.9418 -2.0055 -0.3041
 8160TIP3   OH224443   2.485   0.398   4.714  0.2553 -0.9731 -0.1754
 8160TIP3    H124444   2.573   0.419   4.683  0.5792 -0.9149  0.7512
 8160TIP3    H224445   2.451   0.480   4.750 -0.1540 -1.0098 -0.4729
 8161TIP3   OH224446   5.929   3.743   0.188 -0.1968  0.1739 -0.6959
 8161TIP3    H124447   5.949   3.649   0.189 -0.4754  0.1162 -0.1264
 8161TIP3    H224448   5.890   3.758   0.102 -1.4840 -0.5225 -0.2648
 8162TIP3   OH224449   6.276   6.639   4.858  0.1118  0.4482  0.4893
 8162TIP3    H124450   6.190   6.675   4.834 -0.5939 -0.6520  1.2582
 8162TIP3    H224451   6.329   6.715   4.880 -1.0495  1.0844  1.1871
 8163TIP3   OH224452   1.297   1.392   2.500 -0.2890  0.0296 -0.3155
 8163TIP3    H124453   1.204   1.371   2.495 -0.8049  1.9649  0.2334
 8163TIP3    H224454   1.316   1.397   2.593  1.1516 -3.2106 -0.3034
 8164TIP3   OH224455   1.361   6.093   2.828 -0.0396  0.0837  0.2053
 8164TIP3    H124456   1.362   6.043   2.910 -2.6853  0.3308  0.4866
 8164TIP3    H224457   1.426   6.162   2.841  0.9241 -0.9911  1.3320
 8165TIP3   OH224458   2.739   5.077   2.845 -0.0046 -0.0065  0.1958
 8165TIP3    H124459   2.807   5.059   2.780 -0.0923 -0.1070  0.1313
 8165TIP3    H224460   2.661   5.032   2.811 -1.0104  2.7069 -1.3786
 8166TIP3   OH224461   0.652   0.136   5.197  0.6353 -0.1043 -0.8434
 8166TIP3    H124462   0.715   0.094   5.139 -0.3529 -1.3974 -1.0183
 8166TIP3    H224463   0.580   0.073   5.204 -2.0130  2.3908 -2.9259
 8167TIP3   OH224464   1.419   4.477   4.267 -0.5722  0.0426  0.5202
 8167TIP3    H124465   1.428   4.528   4.187  0.6010 -0.2176  0.4709
 8167TIP3    H224466   1.402   4.388   4.237  0.9750 -0.2778  0.5031
 8168TIP3   OH224467   3.158   3.476   5.437 -0.0313 -0.7324 -0.3655
 8168TIP3    H124468   3.075   3.502   5.397 -0.3602  0.6613  1.1379
 8168TIP3    H224469   3.225   3.519   5.383 -0.4565  0.8917  0.3293
 8169TIP3   OH224470   0.160   0.001   2.234 -0.1939 -0.6572  0.0387
 8169TIP3    H124471   0.097   0.072   2.249 -1.6806 -1.4527 -1.9684
 8169TIP3    H224472   0.122  -0.050   2.162  2.0918 -2.0043 -0.3106
 8170TIP3   OH224473   2.822   4.463   2.314  0.1564  0.0953 -0.6331
 8170TIP3    H124474   2.882   4.392   2.291  2.2612  1.4997  0.2000
 8170TIP3    H224475   2.769   4.427   2.386  1.5959 -0.4858  0.1830
 8171TIP3   OH224476   0.371   4.239   2.258 -0.1659 -0.1439 -0.0286
 8171TIP3    H124477   0.331   4.177   2.197 -0.7352  0.7285 -0.5654
 8171TIP3    H224478   0.300   4.298   2.283  0.5840  0.9467 -0.3691
 8172TIP3   OH224479   2.994   6.363   2.125 -0.0369 -0.1108 -0.4461
 8172TIP3    H124480   3.088   6.376   2.139  0.0296 -1.9227  1.4676
 8172TIP3    H224481   2.975   6.407   2.042  2.7183 -0.6145 -1.4531
 8173TIP3   OH224482   2.229   4.273   5.284 -0.3994 -0.0291 -1.2059
 8173TIP3    H124483   2.173   4.208   5.328 -1.3756  0.5716 -1.5403
 8173TIP3    H224484   2.177   4.304   5.210  0.3935  0.5285 -1.5472
 8174TIP3   OH224485   6.120   3.397   4.055 -0.3225 -0.2695  0.3935
 8174TIP3    H124486   6.206   3.356   4.050  0.8636  1.9394  1.1628
 8174TIP3    H224487   6.063   3.340   4.003  1.7639 -1.3811 -0.8116
 8175TIP3   OH224488   1.042   0.443   2.970 -0.6083 -0.3848 -0.2116
 8175TIP3    H124489   1.003   0.452   2.883 -0.2076 -1.8830 -0.5756
 8175TIP3    H224490   1.052   0.348   2.983  0.9623 -0.1346  0.7352
 8176TIP3   OH224491   0.374   0.947   5.841 -0.0262 -0.0362  0.2798
 8176TIP3    H124492   0.438   0.882   5.869  0.3152  0.1306 -0.1114
 8176TIP3    H224493   0.368   1.008   5.914  0.0721 -0.1913  0.4180
 8177TIP3   OH224494   2.695   5.105   3.626 -0.1692  0.3318  0.1136
 8177TIP3    H124495   2.769   5.165   3.635 -0.3123  0.6160 -0.5646
 8177TIP3    H224496   2.656   5.102   3.714  1.0612 -0.3921  0.6727
 8178TIP3   OH224497   3.187   1.048   5.270 -0.0177  0.1541  0.0883
 8178TIP3    H124498   3.114   1.034   5.209  1.2340 -1.3009 -1.1505
 8178TIP3    H224499   3.169   0.987   5.342 -0.9503  1.1215  0.7055
 8179TIP3   OH224500   4.364   1.505   3.394 -0.2777 -0.2789  0.7561
 8179TIP3    H124501   4.450   1.465   3.378 -0.3037 -0.1694  0.3183
 8179TIP3    H224502   4.358   1.513   3.489  0.2439 -0.1905  0.7843
 8180TIP3   OH224503   4.158   4.385   4.207 -0.2716 -0.4553  0.0195
 8180TIP3    H124504   4.145   4.295   4.237 -0.0669 -0.2492  0.7611
 8180TIP3    H224505   4.227   4.379   4.141 -2.0233 -1.1762 -1.8629
 8181TIP3   OH224506   4.229   5.644   3.874 -0.4454  0.1814  0.0172
 8181TIP3    H124507   4.152   5.589   3.868 -0.7849  0.5131  0.9961
 8181TIP3    H224508   4.202   5.728   3.836 -0.2321 -0.0274 -0.5975
 8182TIP3   OH224509   2.566   5.390   5.773 -0.3573  0.3075  0.0960
 8182TIP3    H124510   2.583   5.379   5.866 -0.3141 -0.6836 -0.0205
 8182TIP3    H224511   2.559   5.301   5.739  2.7651  0.5206 -1.4324
 8183TIP3   OH224512   0.561   2.841   3.140  0.2150  0.3263 -0.0774
 8183TIP3    H124513   0.589   2.913   3.195  1.0791 -0.8612  1.0825
 8183TIP3    H224514   0.521   2.883   3.064  0.3368  2.0044  0.7508
 8184TIP3   OH224515   1.366   4.478   0.270  0.1879 -0.2267  0.4501
 8184TIP3    H124516   1.410   4.563   0.260 -0.1478  0.0021  0.8954
 8184TIP3    H224517   1.380   4.434   0.186 -0.3263  0.5909 -0.0733
 8185TIP3   OH224518   1.616   1.276   4.843  0.5274  0.3591  0.1227
 8185TIP3    H124519   1.638   1.251   4.753  1.1136 -1.8018  0.7859
 8185TIP3    H224520   1.698   1.308   4.880  0.6385 -0.0997  0.2819
 8186TIP3   OH224521   4.695   3.834   0.498 -0.4680 -0.5997 -0.3327
 8186TIP3    H124522   4.703   3.823   0.404 -0.1188  1.0310 -0.5231
 8186TIP3    H224523   4.655   3.920   0.510  1.8055  0.3785  1.0045
 8187TIP3   OH224524   3.442   2.506   4.494 -0.2900 -0.4115  0.0906
 8187TIP3    H124525   3.417   2.598   4.490 -3.4261 -1.1669 -0.9958
 8187TIP3    H224526   3.451   2.480   4.402  0.4540 -1.2159  0.3806
 8188TIP3   OH224527   1.774   1.840   0.811 -0.7204  0.2685  0.1113
 8188TIP3    H124528   1.842   1.879   0.866 -0.3723  1.0650 -0.8556
 8188TIP3    H224529   1.766   1.750   0.843  1.7003 -0.2511 -0.5593
 8189TIP3   OH224530   1.794   5.656   0.240 -0.0246 -0.4571 -0.5688
 8189TIP3    H124531   1.819   5.595   0.309 -0.5684 -1.5919 -1.3378
 8189TIP3    H224532   1.876   5.679   0.197  0.4617  1.0839  1.0566
 8190TIP3   OH224533   1.448   4.248   3.122  0.0743  0.3343  0.0983
 8190TIP3    H124534   1.539   4.220   3.136 -0.2438 -0.5723  0.4723
 8190TIP3    H224535   1.440   4.330   3.171 -0.0562 -1.0171  2.4914
 8191TIP3   OH224536   1.733   3.847   2.855 -0.0848  0.5548 -1.2261
 8191TIP3    H124537   1.743   3.909   2.783  1.6303  1.0961 -0.5624
 8191TIP3    H224538   1.819   3.844   2.897 -1.0436  0.3022  0.8402
 8192TIP3   OH224539   3.978   2.045   1.856  0.1316  0.0108  0.2296
 8192TIP3    H124540   3.996   2.081   1.769  2.4980 -1.7866 -0.1193
 8192TIP3    H224541   3.976   1.950   1.843 -1.8626 -0.2382  1.7873
 8193TIP3   OH224542   6.705   1.867   4.707  0.0891 -0.3026  0.3206
 8193TIP3    H124543   6.699   1.887   4.800  3.0171  1.5426  0.2411
 8193TIP3    H224544   6.658   1.939   4.664 -0.3864 -0.6062  0.3227
 8194TIP3   OH224545   1.743   5.233   1.344  0.2992 -0.1965  0.1267
 8194TIP3    H124546   1.771   5.248   1.434 -0.4149  0.3359  0.2703
 8194TIP3    H224547   1.734   5.320   1.307 -1.1724 -0.3409  0.0978
 8195TIP3   OH224548   4.514   5.959   2.252 -0.3361 -0.3590 -0.2374
 8195TIP3    H124549   4.594   5.913   2.227 -1.7824 -2.6945 -0.8705
 8195TIP3    H224550   4.524   6.048   2.217  1.0082 -1.2708 -2.3024
 8196TIP3   OH224551   2.893   3.854   0.972  0.2711  0.3337  0.6308
 8196TIP3    H124552   2.931   3.931   1.014  1.0480  1.6945 -2.2891
 8196TIP3    H224553   2.869   3.796   1.044 -0.4353  3.3148  2.9818
 8197TIP3   OH224554   0.554   4.960   4.040 -0.1283 -0.3532  0.3017
 8197TIP3    H124555   0.640   4.922   4.062 -0.3348 -1.0918 -0.1266
 8197TIP3    H224556   0.558   5.049   4.075  1.5958  0.3641 -1.5254
 8198TIP3   OH224557   3.757   2.951   3.918  0.2792 -0.6246 -0.2513
 8198TIP3    H124558   3.767   3.017   3.986  1.1895 -1.5514  0.5620
 8198TIP3    H224559   3.685   2.895   3.950  1.2137 -1.5142  0.3817
 8199TIP3   OH224560   0.065   3.405   1.201  0.0328  0.5833  0.2458
 8199TIP3    H124561   0.134   3.376   1.260 -0.0414  1.0576  0.5621
 8199TIP3    H224562   0.050   3.497   1.223 -1.3966  0.2224  0.8654
 8200TIP3   OH224563   2.357   1.497   2.253  0.0868  0.3236 -0.1792
 8200TIP3    H124564   2.447   1.530   2.260  0.3660 -0.4921  0.3219
 8200TIP3    H224565   2.311   1.562   2.200  0.1956  2.3318  2.0048
 8201TIP3   OH224566   6.873   1.661   5.372 -0.2516  0.1890 -0.1354
 8201TIP3    H124567   6.799   1.671   5.312  0.3865 -1.7842 -1.3207
 8201TIP3    H224568   6.896   1.751   5.395 -2.3499  0.8888 -0.5497
 8202TIP3   OH224569   1.602   1.929   0.337 -0.0920  0.1673 -0.5140
 8202TIP3    H124570   1.651   1.847   0.337 -0.5627 -0.1388  0.7837
 8202TIP3    H224571   1.625   1.971   0.420 -1.0671  0.5987 -0.4494
 8203TIP3   OH224572   2.670   0.669   1.644  0.6136 -0.3593  0.4181
 8203TIP3    H124573   2.673   0.619   1.725  1.8458 -1.7203 -0.4233
 8203TIP3    H224574   2.578   0.666   1.616  0.6674 -2.2094  0.3723
 8204TIP3   OH224575   1.047   2.389   0.322  0.6666  0.0893 -0.0300
 8204TIP3    H124576   1.069   2.482   0.314 -0.3920  0.6281  2.3799
 8204TIP3    H224577   0.992   2.371   0.246  0.2777  1.6424 -0.1573
 8205TIP3   OH224578   0.696   0.625   1.278 -0.1102 -0.0916 -0.2031
 8205TIP3    H124579   0.689   0.579   1.194  0.8589 -0.2559 -0.1975
 8205TIP3    H224580   0.621   0.685   1.278  0.3634  0.5452 -1.5902
 8206TIP3   OH224581   2.678   2.444   4.352 -0.5036  0.4302  1.1068
 8206TIP3    H124582   2.711   2.359   4.382  1.1342  1.2586  1.7627
 8206TIP3    H224583   2.603   2.422   4.296  1.0711 -1.5785 -0.3902
 8207TIP3   OH224584   3.508   1.417   5.392 -0.1560  0.0684 -0.1673
 8207TIP3    H124585   3.574   1.349   5.382 -0.9543 -0.9405  1.0521
 8207TIP3    H224586   3.557   1.496   5.415  0.8172  0.0466 -1.9592
 8208TIP3   OH224587   3.326   4.176   3.960  0.1344 -0.1937 -0.4231
 8208TIP3    H124588   3.356   4.229   3.886  1.3225 -2.7136 -1.8502
 8208TIP3    H224589   3.401   4.174   4.019 -0.0365 -0.0112 -0.1988
 8209TIP3   OH224590   4.498   5.574   3.792  0.1861 -0.2022 -0.5036
 8209TIP3    H124591   4.490   5.480   3.781  0.1952  0.0985 -3.9219
 8209TIP3    H224592   4.408   5.605   3.802  0.1381 -0.4800 -0.0240
 8210TIP3   OH224593   1.665   4.862   5.697 -0.3538 -0.0545 -0.3836
 8210TIP3    H124594   1.581   4.830   5.666 -0.4464 -0.5828  0.3672
 8210TIP3    H224595   1.668   4.837   5.789  1.0900 -1.0654 -0.6553
 8211TIP3   OH224596   2.264   5.952   1.811 -0.4351  0.4368  0.0977
 8211TIP3    H124597   2.287   5.861   1.794 -1.1009  0.3429 -0.3679
 8211TIP3    H224598   2.174   5.948   1.844  0.6553  0.6505  3.3721
 8212TIP3   OH224599   5.835   5.588   4.288  0.2329 -0.3649  0.7928
 8212TIP3    H124600   5.896   5.517   4.272 -1.3120 -1.1685 -2.3634
 8212TIP3    H224601   5.768   5.550   4.346  0.2532 -0.9896  0.4125
 8213TIP3   OH224602   1.190   4.654   5.533 -0.6504 -0.3581 -0.2110
 8213TIP3    H124603   1.220   4.733   5.489  1.7958 -0.8415  0.4419
 8213TIP3    H224604   1.167   4.594   5.462  1.5360 -0.4987 -0.8730
 8214TIP3   OH224605   4.252   5.458   1.992  0.7680  0.1756  0.1746
 8214TIP3    H124606   4.335   5.450   1.945  1.1862  2.1914  0.4759
 8214TIP3    H224607   4.193   5.501   1.929  1.0409  1.9880  1.0980
 8215TIP3   OH224608   6.457   0.808   2.000 -0.1299  0.0175  0.1423
 8215TIP3    H124609   6.409   0.870   2.054  0.6074  1.2207 -0.5350
 8215TIP3    H224610   6.548   0.815   2.031  0.0770 -0.2159 -0.3978
 8216TIP3   OH224611   5.671   3.447   1.717 -0.1941  0.0286  0.0463
 8216TIP3    H124612   5.722   3.367   1.728  1.2077  1.2813  4.9004
 8216TIP3    H224613   5.591   3.433   1.769 -1.3879  0.7774 -1.4927
 8217TIP3   OH224614   0.082   1.364   4.942  0.2452 -0.2328  0.3365
 8217TIP3    H124615   0.055   1.446   4.900 -0.3451 -0.1526  0.8507
 8217TIP3    H224616   0.096   1.389   5.034 -2.4480 -1.1927  1.0861
 8218TIP3   OH224617   6.209   0.966   3.155  0.3655 -0.0814 -0.3039
 8218TIP3    H124618   6.287   1.006   3.117  1.3038 -2.6014 -1.2341
 8218TIP3    H224619   6.136   1.010   3.111  1.3610 -0.4427 -2.4226
 8219TIP3   OH224620   6.604   3.364   4.304 -0.1859 -0.0113 -0.3418
 8219TIP3    H124621   6.593   3.313   4.224 -0.6990  3.6225 -2.7982
 8219TIP3    H224622   6.699   3.378   4.311 -0.2695  1.3097 -1.5162
 8220TIP3   OH224623   4.522   3.172   1.381 -0.1193  0.4451  0.1540
 8220TIP3    H124624   4.481   3.102   1.330  0.2782  0.4297 -0.1449
 8220TIP3    H224625   4.450   3.232   1.401  0.1396  1.8635 -2.7171
 8221TIP3   OH224626   1.865   5.457   3.429  0.0616  0.1773 -0.3597
 8221TIP3    H124627   1.853   5.531   3.368 -0.3267 -0.5204 -1.1461
 8221TIP3    H224628   1.908   5.390   3.376 -0.0700 -0.3554  0.2072
 8222TIP3   OH224629   0.705   3.302   3.458 -0.5043 -0.1385 -0.4883
 8222TIP3    H124630   0.757   3.274   3.383  0.0836 -1.1071  0.2538
 8222TIP3    H224631   0.737   3.389   3.479  0.5795 -0.5647 -0.2835
 8223TIP3   OH224632   1.829   3.466   3.260 -0.0775  0.6889 -0.4769
 8223TIP3    H124633   1.800   3.534   3.199  1.8016 -0.3514 -2.6776
 8223TIP3    H224634   1.856   3.513   3.338 -0.3348  2.3091 -1.3192
 8224TIP3   OH224635   4.727   2.214   0.983 -0.0241 -0.2197  0.1494
 8224TIP3    H124636   4.680   2.131   0.983  1.7363 -1.3242  2.2187
 8224TIP3    H224637   4.704   2.255   1.067  1.0046  0.2176  0.2360
 8225TIP3   OH224638   3.040   2.608   1.209  0.0076 -0.3794  0.0824
 8225TIP3    H124639   2.983   2.560   1.268 -0.7509 -0.4602 -0.6885
 8225TIP3    H224640   3.008   2.699   1.213 -0.1748 -0.4210 -0.3363
 8226TIP3   OH224641   1.297   3.892   1.693 -0.5899 -0.2825 -0.2630
 8226TIP3    H124642   1.360   3.822   1.679 -1.7755 -1.4757  0.1598
 8226TIP3    H224643   1.234   3.883   1.622 -0.2969  0.9215 -0.7058
 8227TIP3   OH224644   0.537   5.220   0.666  0.6455 -0.4863  0.2057
 8227TIP3    H124645   0.506   5.222   0.757  0.6240  1.0841  0.1962
 8227TIP3    H224646   0.627   5.190   0.672  0.6601 -0.3393  0.7544
 8228TIP3   OH224647   4.887   2.726   2.970 -0.2103  0.2725  0.1519
 8228TIP3    H124648   4.837   2.802   2.940 -0.1039  0.7879  1.2447
 8228TIP3    H224649   4.821   2.663   2.998 -0.3531 -0.5617 -1.8405
 8229TIP3   OH224650   3.773   4.942   0.278 -0.0158 -0.0726  0.5247
 8229TIP3    H124651   3.685   4.939   0.316  0.4887 -0.6391  1.6864
 8229TIP3    H224652   3.831   4.955   0.353  1.0630 -1.8803  0.0525
 8230TIP3   OH224653   5.011   1.864   1.796 -0.4842  0.3950  0.2056
 8230TIP3    H124654   5.014   1.832   1.886 -0.6724  0.9268  0.4048
 8230TIP3    H224655   5.058   1.948   1.798 -0.0569  0.1771 -0.2952
 8231TIP3   OH224656   1.882   1.420   4.520  0.1229  0.6044 -0.4289
 8231TIP3    H124657   1.951   1.420   4.587  0.0190  1.9670 -0.3033
 8231TIP3    H224658   1.860   1.512   4.508 -2.0829  0.1780 -0.0678
 8232TIP3   OH224659   6.541   5.391   3.786 -0.1049  0.1890 -0.1265
 8232TIP3    H124660   6.518   5.304   3.754  1.6234 -0.1164 -0.6520
 8232TIP3    H224661   6.472   5.449   3.753 -0.3497 -0.7091 -1.2233
 8233TIP3   OH224662   5.822   4.076   2.137 -0.1005 -0.4715  0.2252
 8233TIP3    H124663   5.830   4.138   2.065  0.7567 -0.9163 -0.0771
 8233TIP3    H224664   5.879   4.003   2.113  0.5356 -0.4440  1.5541
 8234TIP3   OH224665   1.499   3.147   3.956  0.0491  0.2079  0.1466
 8234TIP3    H124666   1.595   3.143   3.953  0.0041 -1.0764 -0.0620
 8234TIP3    H224667   1.481   3.219   4.017  1.1764 -0.9529  1.9696
 8235TIP3   OH224668   1.876   0.709   2.458 -0.2099  0.2031  0.3932
 8235TIP3    H124669   1.922   0.791   2.438 -1.3301  1.2348  1.8562
 8235TIP3    H224670   1.899   0.690   2.549  0.9954 -1.8025 -0.2640
 8236TIP3   OH224671   4.798   2.785   2.653  0.3998 -0.2788 -0.4833
 8236TIP3    H124672   4.882   2.755   2.618 -0.4512 -2.3791 -0.8241
 8236TIP3    H224673   4.756   2.830   2.580  0.5553 -0.6282 -0.7883
 8237TIP3   OH224674   6.953   4.294   5.451 -0.7657 -0.1154 -0.3967
 8237TIP3    H124675   7.028   4.288   5.392  1.0815 -0.8028  1.8850
 8237TIP3    H224676   6.881   4.253   5.402  0.6716 -0.6976 -2.1265
 8238TIP3   OH224677   1.567   0.942   1.869  0.6523 -0.0694 -0.2362
 8238TIP3    H124678   1.601   0.856   1.844  2.7967  1.0444 -1.4477
 8238TIP3    H224679   1.580   0.946   1.964 -0.4949 -1.4598  0.0127
 8239TIP3   OH224680   6.916   2.269   3.790  0.4528  0.9367  0.2539
 8239TIP3    H124681   6.949   2.332   3.854  1.0082  0.1591  0.7534
 8239TIP3    H224682   6.840   2.229   3.832  1.0124  0.1926  0.5760
 8240TIP3   OH224683   4.541   4.467   5.768 -0.1497  0.3560  0.3860
 8240TIP3    H124684   4.537   4.395   5.705 -1.6090 -0.6685  1.5898
 8240TIP3    H224685   4.633   4.495   5.766  0.2581 -0.9359 -0.7580
 8241TIP3   OH224686   7.075   6.645   5.753 -0.9919  0.1593  0.9886
 8241TIP3    H124687   7.100   6.729   5.790 -0.8072  0.6189 -0.1502
 8241TIP3    H224688   7.043   6.666   5.665  0.3619 -1.0997  0.1531
 8242TIP3   OH224689   3.363   3.805   5.668 -0.5313  0.1738  0.0767
 8242TIP3    H124690   3.412   3.887   5.655  1.9616 -1.1361  0.4534
 8242TIP3    H224691   3.411   3.760   5.738 -0.4702 -2.5582 -1.5887
 8243TIP3   OH224692   5.083   3.266   4.395  0.0899 -0.1294 -0.7351
 8243TIP3    H124693   5.135   3.278   4.475  1.2783 -0.8525 -1.3588
 8243TIP3    H224694   5.008   3.213   4.423 -0.6382  1.3710  0.2923
 8244TIP3   OH224695   2.756   0.126   4.857 -0.2127 -0.5676  0.1368
 8244TIP3    H124696   2.850   0.143   4.861 -0.2966 -0.1544  0.5781
 8244TIP3    H224697   2.720   0.175   4.931 -0.7940 -0.5895 -0.1231
 8245TIP3   OH224698   4.610   3.616   1.242  0.1616  0.0643  0.4866
 8245TIP3    H124699   4.586   3.636   1.151 -0.6034 -1.2514  0.3810
 8245TIP3    H224700   4.527   3.621   1.289 -0.2999 -3.6304  0.2954
 8246TIP3   OH224701   3.816   6.491   3.604  0.4819 -0.2348 -0.3473
 8246TIP3    H124702   3.882   6.473   3.537 -0.8668 -1.2617 -1.4408
 8246TIP3    H224703   3.765   6.564   3.569  1.8676  1.5378  1.1472
 8247TIP3   OH224704   2.132   2.130   4.003  0.0092 -0.2050 -0.3020
 8247TIP3    H124705   2.104   2.040   3.990 -1.6958  0.2735 -0.2377
 8247TIP3    H224706   2.060   2.171   4.052  1.2411  0.9055  0.6830
 8248TIP3   OH224707   5.743   0.364   0.101  0.6603 -0.3408  0.0411
 8248TIP3    H124708   5.770   0.415   0.177  0.5258  0.5138 -0.4720
 8248TIP3    H224709   5.649   0.350   0.112  0.0930  2.0006 -1.1980
 8249TIP3   OH224710   2.150   4.720   0.336  0.2546  0.0028 -0.9811
 8249TIP3    H124711   2.079   4.784   0.329  0.5603  0.5574  0.5831
 8249TIP3    H224712   2.105   4.635   0.337 -0.2800  0.2712 -1.3559
 8250TIP3   OH224713   0.374   2.194   0.709  0.4434 -0.1506 -0.1163
 8250TIP3    H124714   0.367   2.246   0.629  1.2131  0.3279  0.1208
 8250TIP3    H224715   0.447   2.134   0.692 -0.1310 -0.8384 -0.2046
 8251TIP3   OH224716   0.409   4.406   3.044 -0.1662  0.1262  0.1903
 8251TIP3    H124717   0.401   4.495   3.077  0.4165  0.7806 -1.3452
 8251TIP3    H224718   0.319   4.372   3.046 -0.6483  1.2749 -0.5489
 8252TIP3   OH224719   2.845   1.210   5.595 -0.5475  0.4867 -0.0727
 8252TIP3    H124720   2.901   1.133   5.580 -0.2597  0.7860 -0.5685
 8252TIP3    H224721   2.809   1.197   5.683  0.8478  0.6307  0.5377
 8253TIP3   OH224722   3.842   4.562   0.986 -0.3633 -0.6315 -0.0789
 8253TIP3    H124723   3.930   4.534   1.010  0.6396  0.0273 -2.6736
 8253TIP3    H224724   3.787   4.486   1.007  1.0904 -1.6954  0.0583
 8254TIP3   OH224725   3.443   0.009   2.890  0.4680  0.2494  0.4994
 8254TIP3    H124726   3.500   0.052   2.955  1.4293  0.4472 -0.4424
 8254TIP3    H224727   3.504  -0.025   2.825 -0.5212  0.9003 -0.8036
 8255TIP3   OH224728   1.394   1.816   0.700 -0.2179 -0.3403  0.5390
 8255TIP3    H124729   1.349   1.899   0.685  0.1689  0.0601  1.5156
 8255TIP3    H224730   1.330   1.749   0.673 -0.3296  0.2673 -0.7766
 8256TIP3   OH224731   7.087   1.218   3.995 -0.8584 -0.3134 -0.0294
 8256TIP3    H124732   7.045   1.285   4.048  0.0744 -0.0833  0.4463
 8256TIP3    H224733   7.018   1.154   3.978 -1.2468 -0.2754  1.2724
 8257TIP3   OH224734   0.920   4.054   3.050  0.1801  0.4068  0.1873
 8257TIP3    H124735   0.924   3.981   3.112  0.8340 -0.4272 -0.7965
 8257TIP3    H224736   0.939   4.132   3.103  0.5331 -0.2614  1.0703
 8258TIP3   OH224737   1.709   3.391   3.663  0.2171  0.1575  0.3772
 8258TIP3    H124738   1.650   3.466   3.654 -0.4691 -0.5376 -1.3984
 8258TIP3    H224739   1.797   3.429   3.654 -0.0375  0.9459  1.1039
 8259TIP3   OH224740   0.147   2.039   2.166 -0.8518  0.0371  0.2108
 8259TIP3    H124741   0.065   2.010   2.206 -0.2377 -0.6182  1.0266
 8259TIP3    H224742   0.197   1.958   2.153 -0.2035  0.4662  0.0125
 8260TIP3   OH224743   1.088   0.175   5.161  0.1392  0.0448 -0.0082
 8260TIP3    H124744   1.155   0.108   5.171  2.5970  1.8413 -2.5967
 8260TIP3    H224745   1.012   0.129   5.125  0.5635 -1.7683  1.2785
 8261TIP3   OH224746   2.129   4.228   1.354 -0.0285  0.1770  0.2391
 8261TIP3    H124747   2.043   4.191   1.334  0.0647  0.1784 -0.1680
 8261TIP3    H224748   2.109   4.310   1.399 -0.2584  0.7064 -0.7993
 8262TIP3   OH224749   4.131   5.018   3.961  0.4595  0.6467  0.4126
 8262TIP3    H124750   4.145   4.923   3.960  0.0049  0.5782  0.0033
 8262TIP3    H224751   4.212   5.054   3.996  0.0124  0.0091  2.1992
 8263TIP3   OH224752   0.889   1.287   5.772 -0.0951 -0.4328  0.9567
 8263TIP3    H124753   0.807   1.239   5.779 -0.2992  0.0741  2.3385
 8263TIP3    H224754   0.933   1.248   5.697 -1.7580 -0.4550 -0.0485
 8264TIP3   OH224755   4.387   2.341   2.578  0.0112  0.1833  0.3243
 8264TIP3    H124756   4.406   2.409   2.513  1.6209 -0.8534 -0.3766
 8264TIP3    H224757   4.464   2.341   2.635 -0.6205 -0.0940  1.1976
 8265TIP3   OH224758   5.973   3.821   2.075  0.5031 -0.4803  0.2083
 8265TIP3    H124759   5.907   3.804   2.008  0.8911 -1.2644  0.0166
 8265TIP3    H224760   6.053   3.837   2.027  0.8881 -1.5032  0.4759
 8266TIP3   OH224761   4.174   0.360   3.727  0.4608  0.8092  0.7799
 8266TIP3    H124762   4.236   0.430   3.746  0.9389  0.7743 -0.5468
 8266TIP3    H224763   4.206   0.285   3.777  0.9993  1.0305  0.7717
 8267TIP3   OH224764   7.227   3.366   4.540 -0.5760  0.1353 -0.2023
 8267TIP3    H124765   7.159   3.348   4.475  0.1065  0.2817 -0.9844
 8267TIP3    H224766   7.249   3.280   4.576 -0.4647 -0.0492 -0.6926
 8268TIP3   OH224767   1.445   3.512   1.349 -0.7728  0.6870  0.3635
 8268TIP3    H124768   1.380   3.531   1.281 -0.2256  2.0020  0.1621
 8268TIP3    H224769   1.404   3.445   1.404 -1.2810 -0.3096 -1.1763
 8269TIP3   OH224770   1.702   6.622   4.997  0.0229 -0.7511 -0.5431
 8269TIP3    H124771   1.653   6.577   5.065  1.9991 -2.1161  0.0629
 8269TIP3    H224772   1.759   6.682   5.045 -0.1965 -0.0309 -1.1627
 8270TIP3   OH224773   2.965   1.595   2.297  0.3856  0.5994  0.6508
 8270TIP3    H124774   2.907   1.520   2.283 -1.1003  1.5773  1.3608
 8270TIP3    H224775   2.960   1.645   2.216  2.4363 -0.6863 -0.3627
 8271TIP3   OH224776   3.677   6.074   1.256 -0.1284  0.1588  0.2820
 8271TIP3    H124777   3.772   6.068   1.266 -0.0171  2.0030  0.8195
 8271TIP3    H224778   3.641   6.029   1.332  0.4046  1.4591  1.3525
 8272TIP3   OH224779   1.630   1.689   3.257  0.3186  0.1683 -0.1576
 8272TIP3    H124780   1.664   1.609   3.217 -0.1793 -0.7361  1.1775
 8272TIP3    H224781   1.551   1.710   3.206  0.3793 -0.2550 -0.4297
 8273TIP3   OH224782   1.046   0.963   4.863 -0.1865 -0.2045  0.0299
 8273TIP3    H124783   1.134   0.983   4.894 -0.9791  1.2389  1.5317
 8273TIP3    H224784   1.009   0.905   4.930 -0.9019  0.4930  0.2550
 8274TIP3   OH224785   6.949   2.246   2.217 -0.3638 -0.2652  0.2154
 8274TIP3    H124786   6.970   2.256   2.310  0.5227 -1.4286  0.1531
 8274TIP3    H224787   7.027   2.278   2.171 -0.4194 -0.5973 -0.1150
 8275TIP3   OH224788   6.500   6.810   1.647 -0.0914  0.1680 -0.4194
 8275TIP3    H124789   6.428   6.847   1.698  0.7400 -0.5003  1.3106
 8275TIP3    H224790   6.458   6.745   1.590 -0.8183 -0.5894  0.9363
 8276TIP3   OH224791   6.708   5.003   1.710  0.3714 -0.0009  0.0685
 8276TIP3    H124792   6.656   4.963   1.780  1.1373 -0.7877  0.2038
 8276TIP3    H224793   6.668   5.090   1.697 -1.5870 -0.9307 -0.5229
 8277TIP3   OH224794   0.305   4.408   4.850 -0.2876 -0.5287  0.0607
 8277TIP3    H124795   0.218   4.448   4.859  0.0161  0.1215  0.1298
 8277TIP3    H224796   0.291   4.336   4.788 -0.7085  0.1140 -0.6087
 8278TIP3   OH224797   1.682   1.666   0.235 -0.5553 -0.0760 -0.2298
 8278TIP3    H124798   1.616   1.598   0.248 -0.5010 -0.0510  0.2111
 8278TIP3    H224799   1.765   1.624   0.260 -0.5088  0.1212 -0.0450
 8279TIP3   OH224800   2.537   6.638   5.754 -0.3979  0.4423  0.3633
 8279TIP3    H124801   2.490   6.628   5.672 -1.6924  0.5427  1.0546
 8279TIP3    H224802   2.494   6.712   5.797 -0.9468 -0.7037  1.8881
 8280TIP3   OH224803   0.841   4.372   2.214  0.3913 -0.2314 -1.0552
 8280TIP3    H124804   0.902   4.299   2.228  0.3093 -0.1576 -0.2863
 8280TIP3    H224805   0.784   4.371   2.290 -0.0804  0.1869 -1.3962
 8281TIP3   OH224806   0.242   1.532   2.137  0.2786  0.0990 -0.3237
 8281TIP3    H124807   0.219   1.496   2.052  0.4904 -1.1225  0.1109
 8281TIP3    H224808   0.185   1.486   2.199  0.8054  0.2578  0.2940
 8282TIP3   OH224809   0.913   6.283   4.201 -0.1298  0.1711 -0.2927
 8282TIP3    H124810   0.965   6.261   4.278  0.6083 -1.0975 -1.0979
 8282TIP3    H224811   0.829   6.312   4.236  1.2111  2.7203  1.0615
 8283TIP3   OH224812   2.831   4.359   1.627  0.2319  0.6252 -0.4050
 8283TIP3    H124813   2.795   4.446   1.643 -0.2082  0.2849  0.5337
 8283TIP3    H224814   2.923   4.375   1.605  0.4812  1.2706  0.9487
 8284TIP3   OH224815   2.652   0.040   2.296  0.0070  0.1912  0.4949
 8284TIP3    H124816   2.684   0.121   2.335 -0.6756 -0.0308  1.5345
 8284TIP3    H224817   2.671  -0.028   2.361  2.3630 -0.8582 -1.1443
 8285TIP3   OH224818   0.179   4.715   4.718  0.4320  0.8101 -0.0731
 8285TIP3    H124819   0.257   4.737   4.769 -1.0238 -0.6063  2.9952
 8285TIP3    H224820   0.205   4.639   4.666  0.8862 -0.2945  1.6943
 8286TIP3   OH224821   3.568   2.332   5.176 -0.6462 -0.2833  0.2300
 8286TIP3    H124822   3.558   2.241   5.204  1.1695 -0.8226 -0.7321
 8286TIP3    H224823   3.662   2.345   5.167 -0.7249  2.1870  1.8174
 8287TIP3   OH224824   5.569   5.518   1.215  1.0598  0.4257  0.0635
 8287TIP3    H124825   5.543   5.499   1.305 -0.9245  0.0265 -0.5422
 8287TIP3    H224826   5.649   5.569   1.223 -0.9152  3.5316  2.2465
 8288TIP3   OH224827   6.454   3.520   1.902 -0.7118 -0.0921 -0.0193
 8288TIP3    H124828   6.367   3.496   1.935  0.3310 -0.5589  2.6528
 8288TIP3    H224829   6.496   3.565   1.976  1.0220  0.8956 -1.5348
 8289TIP3   OH224830   2.293   2.834   0.704  0.2591 -0.0122  0.8326
 8289TIP3    H124831   2.318   2.893   0.775 -1.0646  1.0496  0.4633
 8289TIP3    H224832   2.209   2.797   0.732  1.8156 -3.1223  1.8422
 8290TIP3   OH224833   1.831   4.172   5.003 -0.0894  0.5044 -0.1530
 8290TIP3    H124834   1.892   4.234   4.963  0.9102  0.0425  0.5993
 8290TIP3    H224835   1.862   4.086   4.973  0.6202  0.1526  1.4574
 8291TIP3   OH224836   5.961   3.347   5.222 -0.2580  0.0748 -0.3998
 8291TIP3    H124837   6.027   3.351   5.153 -0.1713  1.0822 -0.2843
 8291TIP3    H224838   5.902   3.276   5.196  1.3895 -1.4758 -0.0157
 8292TIP3   OH224839   1.348   0.847   0.298 -0.0990  0.2919 -0.1728
 8292TIP3    H124840   1.385   0.932   0.272 -1.2984  1.0395  0.4838
 8292TIP3    H224841   1.304   0.816   0.219  0.1647  0.3746 -0.3557
 8293TIP3   OH224842   4.762   4.426   3.618  0.0082 -0.2835 -0.4727
 8293TIP3    H124843   4.773   4.355   3.681  2.1078  0.0966 -0.3217
 8293TIP3    H224844   4.766   4.384   3.532 -0.8696 -0.5740 -0.3748
 8294TIP3   OH224845   0.650   5.058   5.543 -0.3285  0.4095 -0.0726
 8294TIP3    H124846   0.724   5.008   5.508  1.6872  3.2263 -0.1887
 8294TIP3    H224847   0.635   5.126   5.478 -2.0036  0.8428  0.7263
 8295TIP3   OH224848   2.980   1.382   0.908 -0.6509  0.0312 -0.2059
 8295TIP3    H124849   3.002   1.324   0.981  0.4851  2.7861  1.8119
 8295TIP3    H224850   3.062   1.425   0.885 -1.1195 -0.2700 -2.7437
 8296TIP3   OH224851   4.059   6.151   2.583 -0.4247  0.3132 -0.0090
 8296TIP3    H124852   4.124   6.157   2.513  0.3055  2.7395  0.7793
 8296TIP3    H224853   4.094   6.206   2.653 -2.0799 -0.4534  1.4947
 8297TIP3   OH224854   2.740   5.375   4.320 -0.2018  0.1726 -0.4437
 8297TIP3    H124855   2.669   5.325   4.359  0.6932 -0.8430 -0.0663
 8297TIP3    H224856   2.790   5.311   4.270 -1.2331  1.4026 -3.2609
 8298TIP3   OH224857   6.316   6.275   2.770 -0.1995 -0.3859  0.1260
 8298TIP3    H124858   6.231   6.291   2.728 -0.4745 -1.1692  0.3713
 8298TIP3    H224859   6.313   6.327   2.850 -0.0573  0.3540 -0.3406
 8299TIP3   OH224860   5.850   4.989   5.443 -0.5112 -0.3604  0.7864
 8299TIP3    H124861   5.898   4.907   5.459  1.3352 -0.4187 -3.5726
 8299TIP3    H224862   5.758   4.966   5.457 -0.4201 -4.2299 -2.8778
 8300TIP3   OH224863   6.643   0.733   1.808  0.0590  0.5785  0.7238
 8300TIP3    H124864   6.589   0.810   1.792  2.2059  2.2924  1.1903
 8300TIP3    H224865   6.684   0.750   1.893 -0.5725 -1.8441  1.6028
 8301TIP3   OH224866   5.473   0.608   4.577  0.1520 -0.1306 -0.0283
 8301TIP3    H124867   5.401   0.661   4.542 -0.1744  0.6375  1.6560
 8301TIP3    H224868   5.478   0.532   4.519 -0.9135  0.6188 -1.1519
 8302TIP3   OH224869   6.504   1.008   5.820  0.4565 -0.2930 -0.5144
 8302TIP3    H124870   6.503   1.050   5.733 -1.1915 -0.5559 -0.6421
 8302TIP3    H224871   6.425   1.039   5.863  0.8537 -0.7951  0.6152
 8303TIP3   OH224872   2.440   1.634   5.894  0.0248 -0.1092  0.0006
 8303TIP3    H124873   2.464   1.721   5.863  1.0783  0.3115  1.8244
 8303TIP3    H224874   2.508   1.576   5.861 -0.1651 -0.0984 -0.4233
 8304TIP3   OH224875   4.047   0.889   2.536 -0.4534  0.2203 -0.1611
 8304TIP3    H124876   4.064   0.982   2.525 -3.3143  0.5875 -2.9324
 8304TIP3    H224877   4.044   0.855   2.446  2.8803 -3.1595  0.7424
 8305TIP3   OH224878   3.160   6.301   1.302  0.4062  0.1973 -0.0393
 8305TIP3    H124879   3.163   6.392   1.331  0.1228 -0.0594  0.7959
 8305TIP3    H224880   3.076   6.268   1.332 -0.6945  0.3913 -2.6168
 8306TIP3   OH224881   4.649   3.273   0.252 -0.1287 -0.2111  0.7036
 8306TIP3    H124882   4.679   3.333   0.184 -3.3633 -1.3283 -1.9663
 8306TIP3    H224883   4.679   3.187   0.223  0.1666 -0.4840  1.7871
 8307TIP3   OH224884   5.300   3.482   3.049 -0.4241 -0.3381 -0.2276
 8307TIP3    H124885   5.228   3.431   3.088 -0.0166 -0.4365  0.4057
 8307TIP3    H224886   5.370   3.477   3.114  0.1442 -0.2135 -0.8273
 8308TIP3   OH224887   0.857   2.548   2.589  0.2360  0.3755  0.3054
 8308TIP3    H124888   0.798   2.506   2.527 -1.4213  0.5020  1.7405
 8308TIP3    H224889   0.930   2.487   2.597  0.3978  0.2686 -1.5765
 8309TIP3   OH224890   3.103   4.134   3.020  0.1254 -0.2389 -0.1287
 8309TIP3    H124891   3.159   4.109   3.093  0.1307 -1.4412 -0.5197
 8309TIP3    H224892   3.152   4.203   2.974 -0.1781  1.0267  1.3541
 8310TIP3   OH224893   7.120   0.833   3.442 -0.2535 -0.3692 -0.0089
 8310TIP3    H124894   7.121   0.816   3.536 -0.0780 -1.2496 -0.1678
 8310TIP3    H224895   7.032   0.869   3.425 -0.7822 -1.5031  0.2652
 8311TIP3   OH224896   1.601   1.551   3.740 -0.3556 -0.1180  0.3204
 8311TIP3    H124897   1.549   1.480   3.777  0.8159 -0.4913  1.3100
 8311TIP3    H224898   1.599   1.619   3.807 -0.4931  0.3188 -0.1212
 8312TIP3   OH224899   5.716   1.990   1.586 -0.5339 -0.5098 -0.3378
 8312TIP3    H124900   5.659   1.964   1.513 -0.3711 -2.2190  0.1026
 8312TIP3    H224901   5.656   2.000   1.661 -0.5923  0.4440 -0.4955
 8313TIP3   OH224902   2.140   1.285   4.375  0.4543  0.6305 -0.3391
 8313TIP3    H124903   2.131   1.369   4.420  1.2034  0.0003  1.0614
 8313TIP3    H224904   2.165   1.308   4.285  0.8493  1.8918  0.0771
 8314TIP3   OH224905   4.407   3.537   0.845  0.1730  0.1145  0.0253
 8314TIP3    H124906   4.426   3.544   0.752  1.0713 -0.4086  0.1552
 8314TIP3    H224907   4.481   3.581   0.888 -0.2384  0.3628  0.4947
 8315TIP3   OH224908   1.086   1.766   2.889 -0.7707 -0.0704  0.1034
 8315TIP3    H124909   1.073   1.822   2.813 -0.3230 -0.9230 -0.6170
 8315TIP3    H224910   1.121   1.825   2.956  0.9636  0.2859 -1.0466
 8316TIP3   OH224911   0.344   3.855   3.586  0.1438 -0.2004  0.2177
 8316TIP3    H124912   0.397   3.877   3.509  1.3217 -0.1073  1.0138
 8316TIP3    H224913   0.397   3.885   3.660 -1.1302  0.0631  1.0587
 8317TIP3   OH224914   6.352   4.109   0.693 -0.4705 -0.3912 -0.0972
 8317TIP3    H124915   6.289   4.046   0.727  0.6039 -1.4655 -0.0279
 8317TIP3    H224916   6.309   4.194   0.702 -1.5999 -1.0217  0.6242
 8318TIP3   OH224917   3.259   2.487   3.931 -0.2576 -0.3239  0.2071
 8318TIP3    H124918   3.236   2.472   3.839  0.6593  0.0496 -0.0908
 8318TIP3    H224919   3.251   2.581   3.942  1.8906 -0.0404 -0.1493
 8319TIP3   OH224920   0.541   2.682   3.591 -0.3273 -0.3003  0.2203
 8319TIP3    H124921   0.587   2.746   3.646 -0.3758 -1.4348  1.6199
 8319TIP3    H224922   0.494   2.736   3.527 -0.4091  1.0847  1.3910
 8320TIP3   OH224923   5.508   6.551   3.401  0.3688  0.6160  0.5620
 8320TIP3    H124924   5.571   6.494   3.356 -0.7626 -0.8534  0.7351
 8320TIP3    H224925   5.448   6.490   3.443  0.4889  1.9475  2.8103
 8321TIP3   OH224926   6.007   0.313   0.989 -0.0088 -0.0397  0.6657
 8321TIP3    H124927   6.035   0.236   1.038 -1.3062  0.0597  1.6154
 8321TIP3    H224928   6.004   0.284   0.898 -0.2498 -1.0466  0.9801
 8322TIP3   OH224929   1.614   0.863   0.014 -0.1425 -0.3724  0.1160
 8322TIP3    H124930   1.648   0.889   0.100 -0.8564 -2.1054  0.9518
 8322TIP3    H224931   1.577   0.776   0.028 -0.4916 -0.5826 -1.9061
 8323TIP3   OH224932   5.511   2.709   3.513  0.4669  0.3935 -0.4703
 8323TIP3    H124933   5.506   2.619   3.482  1.8813 -0.0514  0.5064
 8323TIP3    H224934   5.442   2.755   3.465 -0.7179 -1.3330 -0.4911
 8324TIP3   OH224935   0.476   0.166   3.635 -0.1344  0.3361  0.0666
 8324TIP3    H124936   0.474   0.239   3.572 -1.8440  0.5567  0.3506
 8324TIP3    H224937   0.461   0.208   3.720  1.1584 -0.0942  0.5352
 8325TIP3   OH224938   5.595   0.116   5.597 -0.3425 -0.1741  0.1064
 8325TIP3    H124939   5.622   0.205   5.617 -0.0836 -0.2199 -0.0246
 8325TIP3    H224940   5.534   0.124   5.523 -2.3925  0.1171  1.7453
 8326TIP3   OH224941   5.145   3.984   3.973 -0.2387 -0.3310 -0.0574
 8326TIP3    H124942   5.113   3.906   4.018 -0.7406 -0.7566 -1.1062
 8326TIP3    H224943   5.204   4.025   4.035 -2.3632  0.1768  1.7462
 8327TIP3   OH224944   5.998   1.956   3.115 -0.1392 -0.7627  0.1794
 8327TIP3    H124945   6.018   1.866   3.139 -1.8388 -1.6303 -1.5093
 8327TIP3    H224946   5.972   1.953   3.023  1.8367  1.7851 -0.6035
 8328TIP3   OH224947   5.269   5.983   1.924 -0.5509 -0.0631  0.3687
 8328TIP3    H124948   5.293   5.999   2.016 -0.5110  1.7661  0.0760
 8328TIP3    H224949   5.306   6.057   1.877 -0.6991 -0.9060 -1.1281
 8329TIP3   OH224950   3.634   1.706   4.907  0.6726 -0.2442  0.0706
 8329TIP3    H124951   3.669   1.681   4.993 -0.7096 -0.0036  0.7298
 8329TIP3    H224952   3.655   1.799   4.899 -0.4545  0.0988  0.8198
 8330TIP3   OH224953   0.046   4.465   4.842 -0.2910  0.3303 -0.3198
 8330TIP3    H124954   0.006   4.486   4.758 -0.8597  1.8467  0.2929
 8330TIP3    H224955  -0.003   4.388   4.873 -0.2041 -0.1174 -1.2654
 8331TIP3   OH224956   6.220   4.168   3.993  0.8394  0.4310  0.1195
 8331TIP3    H124957   6.217   4.129   3.905 -0.1755 -0.1362  0.3881
 8331TIP3    H224958   6.288   4.118   4.038  0.1492 -0.4781  0.1869
 8332TIP3   OH224959   4.398   0.051   4.175  0.1445 -0.2251  0.2272
 8332TIP3    H124960   4.395   0.126   4.234  0.5428 -0.7305  0.8973
 8332TIP3    H224961   4.490   0.026   4.172  0.2170  0.0863 -1.0021
 8333TIP3   OH224962   6.526   0.614   3.318  0.7384 -0.0128  0.0899
 8333TIP3    H124963   6.513   0.534   3.368  1.6037  0.4465  1.0997
 8333TIP3    H224964   6.563   0.585   3.235 -0.3923 -0.7644 -0.1738
 8334TIP3   OH224965   0.203   3.429   4.003 -0.0394 -0.1049  0.2049
 8334TIP3    H124966   0.217   3.443   3.909  0.2461  0.9828  0.4025
 8334TIP3    H224967   0.219   3.335   4.015  2.3878  0.1503 -0.4368
 8335TIP3   OH224968   3.615   3.405   5.377  0.7307 -0.0349 -0.1265
 8335TIP3    H124969   3.628   3.489   5.422 -2.2396  1.3405 -1.4731
 8335TIP3    H224970   3.668   3.412   5.298 -0.6794  1.3879 -1.0230
 8336TIP3   OH224971   1.861   1.883   5.578  0.0955 -0.0701 -0.1189
 8336TIP3    H124972   1.872   1.873   5.483 -0.7630  0.7717 -0.3166
 8336TIP3    H224973   1.906   1.966   5.598 -0.5284  0.2256  0.0592
 8337TIP3   OH224974   7.059   2.208   5.728 -0.1250  0.1843  0.1668
 8337TIP3    H124975   7.115   2.168   5.794  0.9422  0.1657 -0.7241
 8337TIP3    H224976   6.984   2.242   5.777 -0.7447 -2.2382  1.0626
 8338TIP3   OH224977   1.744   4.244   4.278  0.1302 -0.1120  0.1736
 8338TIP3    H124978   1.751   4.288   4.193  0.1174 -0.7977 -0.1829
 8338TIP3    H224979   1.812   4.286   4.331 -0.6398  1.1586  0.2123
 8339TIP3   OH224980   6.946   4.342   3.884 -0.0353  0.1290 -0.1855
 8339TIP3    H124981   6.952   4.435   3.902 -0.6780  0.1297  0.0679
 8339TIP3    H224982   6.927   4.302   3.969 -1.7165 -0.0120 -0.5883
 8340TIP3   OH224983   1.158   3.638   3.944  0.0000 -0.0394  0.0388
 8340TIP3    H124984   1.141   3.660   4.036  0.7180 -0.3657  0.2596
 8340TIP3    H224985   1.073   3.643   3.902 -0.0232  2.3554  0.2473
 8341TIP3   OH224986   4.580   1.737   1.803 -0.1179  0.1236  0.2129
 8341TIP3    H124987   4.569   1.729   1.708 -0.5106 -1.9583  0.3744
 8341TIP3    H224988   4.492   1.726   1.838 -0.0343  1.2685  0.8278
 8342TIP3   OH224989   6.676   0.727   4.802  0.1344 -0.4516 -0.0802
 8342TIP3    H124990   6.760   0.732   4.756  0.2546 -0.3137  0.1517
 8342TIP3    H224991   6.646   0.818   4.807 -0.7562 -0.6468 -1.4820
 8343TIP3   OH224992   3.889   6.493   3.170 -0.6026  0.2461  0.2811
 8343TIP3    H124993   3.904   6.566   3.230  2.7012 -0.8628  1.0479
 8343TIP3    H224994   3.856   6.423   3.226 -1.0213  0.2766  0.0778
 8344TIP3   OH224995   0.910   1.142   2.974 -0.3788 -0.3981  0.4491
 8344TIP3    H124996   1.003   1.162   2.969 -0.3799 -0.6166 -0.6519
 8344TIP3    H224997   0.875   1.205   3.037 -0.0799  1.9778 -1.6428
 8345TIP3   OH224998   6.822   0.222   2.556 -0.0354 -0.6512  0.2644
 8345TIP3    H124999   6.800   0.165   2.482 -0.9328 -0.0715  0.0653
 8345TIP3    H225000   6.915   0.206   2.572  0.0087 -1.2880 -0.5502
 8346TIP3   OH225001   4.058   3.407   0.910 -0.0727 -0.1001 -0.2147
 8346TIP3    H125002   3.988   3.438   0.853 -0.9358 -1.3173  0.1457
 8346TIP3    H225003   4.107   3.486   0.933 -1.1255  0.7292 -0.7370
 8347TIP3   OH225004   5.916   6.196   3.039  0.3429  0.1023 -0.4281
 8347TIP3    H125005   5.824   6.209   3.018  0.3579 -0.5304 -0.9292
 8347TIP3    H225006   5.926   6.101   3.045  0.8817  0.1803 -0.0011
 8348TIP3   OH225007   6.675   0.017   4.290  0.2207 -0.1350 -0.3378
 8348TIP3    H125008   6.738   0.023   4.362  1.5582 -0.3500 -1.4625
 8348TIP3    H225009   6.728   0.004   4.212 -1.2417 -0.7139 -1.2813
 8349TIP3   OH225010   5.636   6.335   4.411 -0.0526  0.8605  0.9787
 8349TIP3    H125011   5.574   6.373   4.348 -0.2842  1.9300  1.8289
 8349TIP3    H225012   5.590   6.260   4.448  0.6957 -0.8582 -1.2825
 8350TIP3   OH225013   2.186   1.681   0.302  0.2203  0.3020 -0.5759
 8350TIP3    H125014   2.244   1.631   0.359  0.2824  0.1075 -0.8087
 8350TIP3    H225015   2.116   1.619   0.280 -1.6616  1.3202  2.0001
 8351TIP3   OH225016   1.767   0.064   1.204  0.1215  0.0466 -0.2019
 8351TIP3    H125017   1.742   0.153   1.228 -2.6788 -1.0419  1.4212
 8351TIP3    H225018   1.751   0.059   1.110  2.0957  1.7089 -0.6962
 8352TIP3   OH225019   1.687   1.127   3.761  0.3366 -0.2719  0.1910
 8352TIP3    H125020   1.595   1.154   3.762  0.8846  1.9671 -1.8503
 8352TIP3    H225021   1.728   1.180   3.829  0.6168  0.9372 -0.8902
 8353TIP3   OH225022   6.557   3.082   5.701  0.0672  0.1720 -0.4430
 8353TIP3    H125023   6.643   3.111   5.730  0.8443 -1.5094 -0.9431
 8353TIP3    H225024   6.495   3.131   5.755  1.3467  0.8082  0.4927
 8354TIP3   OH225025   2.811   3.356   4.069 -0.0336  0.3714 -0.7320
 8354TIP3    H125026   2.752   3.300   4.119 -0.1573  1.1373  0.0091
 8354TIP3    H225027   2.839   3.423   4.132  0.0543  1.1770 -1.6155
 8355TIP3   OH225028   0.264   4.451   1.845  0.3047 -0.2161 -0.4180
 8355TIP3    H125029   0.281   4.366   1.804 -2.0782 -2.0986  2.1546
 8355TIP3    H225030   0.181   4.480   1.807  0.2183  0.0927  0.0066
 8356TIP3   OH225031   4.426   2.737   5.473  0.0785  0.1716  0.1274
 8356TIP3    H125032   4.364   2.794   5.428  0.0167  0.2923  0.3655
 8356TIP3    H225033   4.431   2.772   5.562  0.9536  0.5359 -0.0515
 8357TIP3   OH225034   6.299   4.413   3.896  0.2538 -0.5523  0.6583
 8357TIP3    H125035   6.357   4.387   3.824 -0.2797 -1.1294  0.4166
 8357TIP3    H225036   6.276   4.330   3.939  0.6470 -0.2032  1.5666
 8358TIP3   OH225037   1.976   3.046   0.241  0.8697  0.2110 -0.2409
 8358TIP3    H125038   1.996   3.020   0.331 -1.2290 -1.6099 -0.2174
 8358TIP3    H225039   1.959   2.963   0.196  0.8013  1.1642 -2.0393
 8359TIP3   OH225040   2.128   1.364   2.646  0.3431  0.3584  0.3231
 8359TIP3    H125041   2.192   1.359   2.717  1.2471 -2.4758 -0.5480
 8359TIP3    H225042   2.152   1.443   2.598  2.3505  0.1017  0.8068
 8360TIP3   OH225043   3.234   5.871   1.378  0.4186 -0.1379  0.4864
 8360TIP3    H125044   3.326   5.895   1.362  0.6899  0.1430  2.2145
 8360TIP3    H225045   3.221   5.791   1.327  1.1905  0.5863 -0.9095
 8361TIP3   OH225046   0.153   1.446   0.731 -0.2700 -0.2596  0.1114
 8361TIP3    H125047   0.066   1.423   0.762 -0.9081  0.6442 -0.9744
 8361TIP3    H225048   0.149   1.539   0.711  0.2187 -0.6870 -2.2340
 8362TIP3   OH225049   3.739   1.480   1.549  0.3276 -0.3494  0.0150
 8362TIP3    H125050   3.648   1.503   1.568  0.6884  0.2795  1.0937
 8362TIP3    H225051   3.764   1.540   1.478 -0.1882 -0.7404 -0.4999
 8363TIP3   OH225052   4.270   2.474   4.454 -0.1352  0.6562  0.3552
 8363TIP3    H125053   4.227   2.546   4.409 -0.3454 -0.2700 -0.9713
 8363TIP3    H225054   4.268   2.401   4.392  0.5432 -0.3464  1.4528
 8364TIP3   OH225055   4.576   1.077   2.782 -0.3347  0.7699 -0.0526
 8364TIP3    H125056   4.648   1.113   2.731 -1.2297  1.4458 -0.8838
 8364TIP3    H225057   4.526   1.153   2.811  0.2446  0.4125  2.0405
 8365TIP3   OH225058   3.060   3.831   5.159  0.1203 -0.5921  0.2203
 8365TIP3    H125059   3.144   3.834   5.206 -0.9548 -0.9730  2.2488
 8365TIP3    H225060   3.002   3.887   5.210 -1.2513 -1.4557 -0.3360
 8366TIP3   OH225061   3.648   3.032   1.524 -0.0741  0.7737  0.7943
 8366TIP3    H125062   3.556   3.015   1.501  0.2321 -0.3351  0.3359
 8366TIP3    H225063   3.672   3.107   1.470 -0.8292  1.3568  1.2397
 8367TIP3   OH225064   0.509   5.234   0.932 -0.3082  0.6090 -0.5434
 8367TIP3    H125065   0.469   5.233   1.020 -1.0238  1.2693 -0.8427
 8367TIP3    H225066   0.599   5.207   0.946 -0.5668  0.1438  0.3201
 8368TIP3   OH225067   3.077   4.804   2.552  0.5422  0.6418  0.1078
 8368TIP3    H125068   3.089   4.779   2.643  1.0296  0.8488  0.1056
 8368TIP3    H225069   2.985   4.785   2.534  0.5681  0.1285  0.4909
 8369TIP3   OH225070   2.558   1.366   4.958 -0.0898  0.1783  0.6217
 8369TIP3    H125071   2.507   1.433   5.004 -0.6435 -0.7602  1.4080
 8369TIP3    H225072   2.637   1.356   5.011  0.1133  0.3791  0.3619
 8370TIP3   OH225073   4.464   2.480   0.964  0.2454  0.4420 -0.4098
 8370TIP3    H125074   4.529   2.413   0.986 -0.7304 -1.0285 -1.7981
 8370TIP3    H225075   4.485   2.506   0.875 -1.0772 -0.1313 -0.9168
 8371TIP3   OH225076   5.905   6.421   2.255 -0.3045 -0.3830 -0.3176
 8371TIP3    H125077   5.905   6.328   2.232  0.3793 -0.7440  1.0473
 8371TIP3    H225078   5.847   6.427   2.330 -2.1126  0.6909 -1.7280
 8372TIP3   OH225079   5.643   6.442   3.701 -0.6481  0.8499  0.2218
 8372TIP3    H125080   5.683   6.502   3.764 -0.0309  0.8584 -0.1810
 8372TIP3    H225081   5.661   6.480   3.615 -1.8185  1.0406  0.0410
 8373TIP3   OH225082   5.536   4.115   1.409 -0.3057 -0.4090 -0.1391
 8373TIP3    H125083   5.510   4.089   1.320  1.6682  0.6458 -1.0907
 8373TIP3    H225084   5.471   4.181   1.434  0.3029  0.8386 -1.6997
 8374TIP3   OH225085   5.393   2.932   0.204  0.1245 -0.3260  0.0152
 8374TIP3    H125086   5.305   2.937   0.166  0.2699  0.4834 -0.2507
 8374TIP3    H225087   5.382   2.967   0.293  0.0538 -0.8694  0.2227
 8375TIP3   OH225088   1.980   5.267   3.970 -0.2122  0.0914  0.3793
 8375TIP3    H125089   2.006   5.304   3.885 -1.0336  0.3231  0.2241
 8375TIP3    H225090   2.036   5.312   4.033 -0.1889  0.5401  0.0429
 8376TIP3   OH225091   5.996   0.788   0.264 -0.0362  0.4736 -0.1815
 8376TIP3    H125092   5.929   0.788   0.195  0.0690  1.0447 -0.2889
 8376TIP3    H225093   5.950   0.756   0.342  0.0131 -0.8273 -0.6676
 8377TIP3   OH225094   3.892   2.569   3.199 -0.7612  0.1700  0.4732
 8377TIP3    H125095   3.892   2.609   3.112  1.2067 -1.0086 -0.1423
 8377TIP3    H225096   3.878   2.476   3.183 -0.0718 -0.1083  1.3613
 8378TIP3   OH225097   3.493   1.607   2.650  0.6696  0.6884  0.3734
 8378TIP3    H125098   3.481   1.682   2.592 -1.2081  0.7101  0.7242
 8378TIP3    H225099   3.448   1.632   2.731  2.0139  0.0915  1.3325
 8379TIP3   OH225100   4.887   0.716   0.413 -0.1167  0.2687 -0.7061
 8379TIP3    H125101   4.835   0.642   0.444 -0.3593  0.9430  0.5334
 8379TIP3    H225102   4.850   0.737   0.327 -1.7371  0.5721  0.0431
 8380TIP3   OH225103   5.916   2.768   3.978  0.1552 -0.0036  0.1712
 8380TIP3    H125104   5.857   2.841   3.958  0.0695 -0.5565 -1.8108
 8380TIP3    H225105   5.991   2.781   3.920  1.0133 -0.4736  1.1446
 8381TIP3   OH225106   1.795   3.948   4.583 -0.6521  0.9384 -0.2523
 8381TIP3    H125107   1.799   3.914   4.494 -0.3482  0.2966 -0.0014
 8381TIP3    H225108   1.702   3.945   4.606 -0.6878  0.7603 -0.4180
 8382TIP3   OH225109   5.278   2.373   4.741 -0.0188 -0.2145 -0.5922
 8382TIP3    H125110   5.272   2.354   4.647 -1.8394 -1.0661 -0.3618
 8382TIP3    H225111   5.242   2.462   4.749  0.0064 -0.1960 -0.6788
 8383TIP3   OH225112   0.891   6.709   4.309 -0.1917  1.2332 -0.2138
 8383TIP3    H125113   0.801   6.683   4.288 -0.4218  1.3777  0.5448
 8383TIP3    H225114   0.946   6.654   4.253 -0.6531 -0.9672  1.3662
 8384TIP3   OH225115   5.499   5.455   5.214 -0.3283  0.1261  0.0190
 8384TIP3    H125116   5.568   5.476   5.277  0.0178  0.1285 -0.3572
 8384TIP3    H225117   5.421   5.498   5.250 -0.6148 -1.5316  1.4899
 8385TIP3   OH225118   5.770   5.623   5.655  0.0037  0.9370  0.2788
 8385TIP3    H125119   5.842   5.610   5.594 -0.5315 -1.0413 -0.0072
 8385TIP3    H225120   5.812   5.632   5.741  0.6241 -0.2419  0.1248
 8386TIP3   OH225121   4.818   2.350   2.122  0.1968  0.3131  0.1118
 8386TIP3    H125122   4.897   2.320   2.079  0.5052 -0.1360  0.9841
 8386TIP3    H225123   4.756   2.278   2.112  0.2022  0.2890  0.2642
 8387TIP3   OH225124   2.665   1.594   4.309 -0.3072  0.6270 -0.1345
 8387TIP3    H125125   2.581   1.557   4.334 -0.1606 -0.5450 -1.2543
 8387TIP3    H225126   2.721   1.581   4.386 -1.3161  2.1131  0.9010
 8388TIP3   OH225127   0.821   0.565   2.548  0.2693 -0.0724  0.2076
 8388TIP3    H125128   0.854   0.635   2.492  0.3365 -0.0963  0.2173
 8388TIP3    H225129   0.731   0.590   2.567  0.4097  0.2018  0.5172
 8389TIP3   OH225130   3.979   3.756   3.740  0.1520 -0.5170  0.4512
 8389TIP3    H125131   3.965   3.850   3.728  1.4670 -0.5401 -1.8476
 8389TIP3    H225132   3.978   3.744   3.835  1.1960  2.0373  0.8720
 8390TIP3   OH225133   2.531   3.910   2.303  0.1782 -0.0359 -0.6700
 8390TIP3    H125134   2.550   4.001   2.281  0.0737 -0.0371 -0.7666
 8390TIP3    H225135   2.610   3.862   2.278  0.0189 -0.0547 -1.1501
 8391TIP3   OH225136   2.325   2.529   5.881  0.1569 -0.1052 -0.1278
 8391TIP3    H125137   2.240   2.540   5.838  0.4205  2.4527 -0.1157
 8391TIP3    H225138   2.389   2.534   5.810  0.3854 -0.3213  0.0614
 8392TIP3   OH225139   6.575   0.106   3.421 -0.3743  0.2891  0.0713
 8392TIP3    H125140   6.667   0.120   3.442 -0.5126 -0.9522  1.7312
 8392TIP3    H225141   6.567   0.011   3.413 -1.3454  0.4347 -1.0004
 8393TIP3   OH225142   4.769   0.993   2.026  0.3412  0.5001 -0.2366
 8393TIP3    H125143   4.857   1.005   2.063  1.1045 -0.8737 -1.4859
 8393TIP3    H225144   4.768   1.049   1.949 -0.0112  0.7665 -0.0403
 8394TIP3   OH225145   5.048   0.821   0.661  0.1051  0.2902  0.0747
 8394TIP3    H125146   4.954   0.810   0.673  0.3093 -0.3553  1.2205
 8394TIP3    H225147   5.061   0.916   0.665 -0.5305  0.4014 -0.3805
 8395TIP3   OH225148   2.074   0.440   2.583  0.5065 -0.2626  0.4739
 8395TIP3    H125149   2.104   0.530   2.592  0.3030  0.0587 -1.5454
 8395TIP3    H225150   2.022   0.423   2.661 -0.5854  1.8265  0.2455
 8396TIP3   OH225151   2.785   4.536   0.173 -0.2999  0.3661  0.2451
 8396TIP3    H125152   2.720   4.503   0.235 -0.0802  0.1681  0.3688
 8396TIP3    H225153   2.866   4.543   0.223 -0.6812  2.6448  0.6911
 8397TIP3   OH225154   5.907   2.576   3.281 -0.8222  0.7294  0.5674
 8397TIP3    H125155   5.954   2.602   3.361  0.9756  1.4395 -0.6492
 8397TIP3    H225156   5.919   2.482   3.275 -0.6916  0.7186  0.9847
 8398TIP3   OH225157   3.059   1.437   4.173 -0.5187  0.0673  0.0869
 8398TIP3    H125158   3.066   1.527   4.141  0.8962  0.3713  1.1020
 8398TIP3    H225159   3.087   1.383   4.099 -1.3236  0.4529 -0.5125
 8399TIP3   OH225160   1.909   1.599   0.661  0.0695 -0.3111  0.3568
 8399TIP3    H125161   1.964   1.530   0.623  0.0185 -0.4576  0.5462
 8399TIP3    H225162   1.956   1.680   0.643 -0.2222 -0.3216 -0.5152
 8400TIP3   OH225163   4.411   2.557   1.717  0.0472 -0.4044 -0.8224
 8400TIP3    H125164   4.430   2.495   1.788 -0.9209  1.3953  1.1091
 8400TIP3    H225165   4.316   2.566   1.718  0.2076  1.9422 -0.2341
 8401TIP3   OH225166   2.865   3.187   3.479  0.3961 -0.4204  0.1852
 8401TIP3    H125167   2.847   3.133   3.556  0.7273 -0.0970  0.4886
 8401TIP3    H225168   2.960   3.200   3.480  0.4055 -0.4452 -0.2974
 8402TIP3   OH225169   3.222   2.747   3.900  0.6906  0.3385 -0.1258
 8402TIP3    H125170   3.198   2.839   3.890 -1.1214 -0.1762 -1.0098
 8402TIP3    H225171   3.245   2.718   3.811  0.0527 -0.3475 -0.0790
 8403TIP3   OH225172   5.068   4.987   4.020  0.0226  0.2108  0.3288
 8403TIP3    H125173   5.056   5.066   3.968 -0.6399  0.2615  0.5400
 8403TIP3    H225174   5.129   4.934   3.970 -0.1552  0.5115 -0.2143
 8404TIP3   OH225175   3.035   0.548   2.845 -0.1811  0.3667 -0.1186
 8404TIP3    H125176   3.016   0.516   2.757  1.8099 -2.2571  0.2802
 8404TIP3    H225177   2.984   0.491   2.902  0.1574  0.6709  0.4992
 8405TIP3   OH225178   2.800   5.732   3.523 -0.2129  0.1384 -0.5339
 8405TIP3    H125179   2.728   5.714   3.462  1.2921 -0.8080 -2.0922
 8405TIP3    H225180   2.854   5.653   3.522  0.0006  0.1510  1.9207
 8406TIP3   OH225181   7.049   5.197   4.535 -0.1568 -0.0700  0.2813
 8406TIP3    H125182   7.020   5.255   4.464 -0.5254  0.0921  0.5597
 8406TIP3    H225183   7.108   5.251   4.587 -1.1743  0.3480  1.0377
 8407TIP3   OH225184   5.606   2.627   2.915  0.2170  0.2711 -0.4718
 8407TIP3    H125185   5.618   2.548   2.968  1.2786 -0.6306 -1.9676
 8407TIP3    H225186   5.618   2.699   2.977  2.3595 -0.7293  0.3834
 8408TIP3   OH225187   6.218   0.501   0.513 -0.3881 -0.2389 -0.4056
 8408TIP3    H125188   6.195   0.412   0.541  0.4358 -0.5100 -0.5453
 8408TIP3    H225189   6.206   0.501   0.418 -0.7708 -0.0788 -0.3578
 8409TIP3   OH225190   0.667   0.197   5.484  0.4565 -0.3223 -0.3987
 8409TIP3    H125191   0.676   0.107   5.513  0.3600 -0.6963 -1.4719
 8409TIP3    H225192   0.664   0.191   5.388  0.9657  0.8640 -0.5032
 8410TIP3   OH225193   4.970   5.003   1.040  0.6559 -0.3742 -0.3552
 8410TIP3    H125194   5.054   5.012   1.086  0.8242  0.6463 -0.8385
 8410TIP3    H225195   4.909   4.974   1.107  1.2481 -0.4517  0.1597
 8411TIP3   OH225196   2.836   6.407   2.868 -0.2463  0.0603  0.3994
 8411TIP3    H125197   2.865   6.337   2.810  1.1519  1.4109 -0.6210
 8411TIP3    H225198   2.914   6.429   2.921 -0.7925  0.5160  1.0413
 8412TIP3   OH225199   1.918   2.370   3.830 -0.2887  0.9198 -0.2691
 8412TIP3    H125200   2.008   2.362   3.801 -0.0016 -2.9765  1.1095
 8412TIP3    H225201   1.865   2.352   3.753  0.2843 -0.9298 -0.2818
 8413TIP3   OH225202   0.506   4.861   0.512 -0.3450  0.5715  0.1187
 8413TIP3    H125203   0.554   4.888   0.590 -1.1768 -0.4754  1.0283
 8413TIP3    H225204   0.556   4.787   0.477 -0.6083  0.2859  0.3432
 8414TIP3   OH225205   5.327   6.601   4.631  0.4988 -0.1271 -1.0559
 8414TIP3    H125206   5.280   6.568   4.708  2.5642  1.0990  0.8656
 8414TIP3    H225207   5.333   6.526   4.572 -1.6012 -0.9704 -0.2764
 8415TIP3   OH225208   5.331   2.655   5.592 -0.2747 -0.2829 -0.9157
 8415TIP3    H125209   5.388   2.579   5.583 -0.5051 -0.5649 -0.0919
 8415TIP3    H225210   5.323   2.668   5.687  0.4356  1.2842 -1.0411
 8416TIP3   OH225211   0.699   5.787   5.832 -0.5991  0.4934 -0.0091
 8416TIP3    H125212   0.634   5.810   5.898  0.2030  2.7179  0.0768
 8416TIP3    H225213   0.676   5.841   5.756  0.7846  0.8977 -0.1648
 8417TIP3   OH225214   4.549   6.517   5.842  0.2837 -0.2051 -0.7141
 8417TIP3    H125215   4.560   6.431   5.801 -0.7553 -1.0781  0.7622
 8417TIP3    H225216   4.549   6.500   5.936 -2.4134  1.0468 -0.3878
 8418TIP3   OH225217   4.252   0.372   5.260 -0.0494 -0.4558 -0.1165
 8418TIP3    H125218   4.163   0.338   5.271  0.3518 -2.0124 -1.2157
 8418TIP3    H225219   4.306   0.293   5.252  1.6262  0.4447  1.7268
 8419TIP3   OH225220   3.133   5.417   2.360 -0.7351 -0.1724  0.4118
 8419TIP3    H125221   3.056   5.423   2.416 -0.8982  1.7309  0.0632
 8419TIP3    H225222   3.207   5.420   2.420 -0.9183 -1.5539  0.7202
 8420TIP3   OH225223   4.646   0.235   1.415 -0.1520 -0.1300 -0.0291
 8420TIP3    H125224   4.629   0.177   1.489 -0.3556  0.1879  0.1729
 8420TIP3    H225225   4.721   0.288   1.443 -0.0792 -0.1684 -0.1461
 8421TIP3   OH225226   1.774   1.406   0.350  0.4558 -0.0136  0.1822
 8421TIP3    H125227   1.686   1.432   0.378  1.0175  2.1189  0.1288
 8421TIP3    H225228   1.758   1.347   0.276 -0.9649  1.2631 -0.6077
 8422TIP3   OH225229   0.923   3.377   0.347  0.3656  0.3261  0.3852
 8422TIP3    H125230   0.964   3.293   0.366 -0.3361 -0.2751 -0.6285
 8422TIP3    H225231   0.983   3.420   0.286  1.6337  1.3948  2.2921
 8423TIP3   OH225232   5.363   1.816   1.742 -0.1103  0.3593 -0.7451
 8423TIP3    H125233   5.395   1.725   1.743  0.8673  0.6339  2.0605
 8423TIP3    H225234   5.268   1.808   1.745 -0.0787 -0.8052  3.7685
 8424TIP3   OH225235   4.454   1.301   2.893  0.0798 -0.8368 -0.3209
 8424TIP3    H125236   4.515   1.345   2.951 -0.6927  0.6785 -0.5925
 8424TIP3    H225237   4.367   1.330   2.923 -0.3580 -0.4465 -1.8722
 8425TIP3   OH225238   2.755   2.139   2.622 -0.4547  0.3945  0.1724
 8425TIP3    H125239   2.795   2.183   2.697  2.0479 -1.3113 -0.0195
 8425TIP3    H225240   2.710   2.063   2.660  2.5438 -1.6744  0.0046
 8426TIP3   OH225241   2.438   1.925   4.725  0.0589  0.5189  0.6473
 8426TIP3    H125242   2.484   1.842   4.724 -1.3232 -0.2801 -0.4887
 8426TIP3    H225243   2.474   1.974   4.651 -0.7646 -0.0513 -0.1568
 8427TIP3   OH225244   5.519   5.911   3.486 -0.7206 -0.1703 -0.4546
 8427TIP3    H125245   5.502   5.820   3.463 -3.2936  0.3880 -1.0683
 8427TIP3    H225246   5.446   5.960   3.447 -0.2698  1.9631  1.1862
 8428TIP3   OH225247   4.080   5.529   1.777  0.0976  0.4812  0.0942
 8428TIP3    H125248   3.993   5.568   1.775  0.2927  0.9118 -0.0623
 8428TIP3    H225249   4.097   5.503   1.687  0.1257  0.3892  0.1263
 8429TIP3   OH225250   3.079   6.018   1.036  0.4193  0.0819 -0.2787
 8429TIP3    H125251   3.150   5.957   1.015 -0.8906 -2.0044  0.9847
 8429TIP3    H225252   3.012   5.999   0.971  0.0992  0.3742 -0.0336
 8430TIP3   OH225253   6.951   5.755   5.412 -0.1366 -0.2092 -0.0444
 8430TIP3    H125254   6.916   5.843   5.421 -1.4725 -0.7437  0.2091
 8430TIP3    H225255   6.904   5.717   5.338  0.3882 -0.7339 -0.1220
 8431TIP3   OH225256   5.782   0.145   3.402 -0.2869  0.2704 -0.3131
 8431TIP3    H125257   5.753   0.231   3.373 -1.4720 -0.2662 -0.8118
 8431TIP3    H225258   5.873   0.139   3.373 -0.6028  0.8405 -1.5067
 8432TIP3   OH225259   0.579   1.280   1.920 -0.7031  0.0923 -0.3114
 8432TIP3    H125260   0.674   1.266   1.918 -0.4619  1.3870  0.5091
 8432TIP3    H225261   0.554   1.291   1.829 -0.1138 -0.5203 -0.5571
 8433TIP3   OH225262   0.142   5.241   5.560  0.6788 -0.1291  0.2949
 8433TIP3    H125263   0.211   5.303   5.583  0.9365 -0.2688 -0.0942
 8433TIP3    H225264   0.189   5.165   5.524  0.2802  0.1595 -0.8810
 8434TIP3   OH225265   4.449   3.658   0.575  0.3862 -0.5819 -0.3948
 8434TIP3    H125266   4.403   3.674   0.493  0.4683 -0.3760 -0.4001
 8434TIP3    H225267   4.537   3.693   0.561  0.5779 -1.0628 -0.4183
 8435TIP3   OH225268   4.152   4.105   1.803 -0.0532 -0.0348  0.0218
 8435TIP3    H125269   4.238   4.099   1.762  1.3209  0.4324  2.6429
 8435TIP3    H225270   4.112   4.183   1.765  0.8139 -0.0593 -0.9736
 8436TIP3   OH225271   6.269   1.275   2.897 -0.5795 -0.2450 -0.2217
 8436TIP3    H125272   6.298   1.304   2.811 -3.4619  0.2215 -1.1411
 8436TIP3    H225273   6.234   1.187   2.882  0.3085 -0.8005  0.8239
 8437TIP3   OH225274   0.649   6.291   0.990 -0.5871 -0.2380  0.4249
 8437TIP3    H125275   0.661   6.297   0.895 -0.0571 -0.9383  0.4367
 8437TIP3    H225276   0.584   6.222   1.002  0.0384 -0.8029  0.6005
 8438TIP3   OH225277   0.080   0.958   5.442  0.8296 -0.7957  0.0870
 8438TIP3    H125278   0.090   0.968   5.347  1.3083 -0.3840  0.1742
 8438TIP3    H225279   0.163   0.989   5.478  0.1604  0.3045  0.7274
 8439TIP3   OH225280   6.061   0.167   2.451 -0.3622  0.1741 -0.0319
 8439TIP3    H125281   6.125   0.239   2.443 -1.2278  1.1194  1.1196
 8439TIP3    H225282   6.114   0.088   2.442  1.0683  0.9175  1.1419
 8440TIP3   OH225283   6.258   6.165   4.662  0.4509 -0.1869  0.5849
 8440TIP3    H125284   6.294   6.254   4.657  1.9855 -0.7912  0.1679
 8440TIP3    H225285   6.233   6.144   4.572  0.0099 -0.1563  0.6973
 8441TIP3   OH225286   6.478   3.702   3.928 -0.3172  0.6166  0.4433
 8441TIP3    H125287   6.481   3.719   3.834 -0.9481  1.5274  0.5748
 8441TIP3    H225288   6.517   3.616   3.938  1.3806  1.2348 -0.4632
 8442TIP3   OH225289   4.836   5.087   2.249 -0.1508  0.0762 -0.2912
 8442TIP3    H125290   4.857   4.997   2.227  0.6460  0.2732 -0.3693
 8442TIP3    H225291   4.797   5.083   2.336 -1.6841 -0.5191 -0.9748
 8443TIP3   OH225292   2.045   0.185   5.438 -0.3876  0.2747  0.0391
 8443TIP3    H125293   2.137   0.203   5.459  0.9000  0.5495 -4.6185
 8443TIP3    H225294   2.005   0.272   5.427 -1.4809  0.1686  2.5550
 8444TIP3   OH225295   4.376   5.710   3.246  0.1782 -0.3164 -0.6402
 8444TIP3    H125296   4.406   5.792   3.208  0.6214  0.0659  0.5028
 8444TIP3    H225297   4.446   5.683   3.305 -0.9135 -0.3340  0.7183
 8445TIP3   OH225298   1.274   5.720   1.368 -0.3184 -0.2072 -0.6349
 8445TIP3    H125299   1.305   5.630   1.380  0.9607  0.1205 -1.2915
 8445TIP3    H225300   1.180   5.712   1.358 -0.4730 -1.2790  1.2775
 8446TIP3   OH225301   6.246   3.863   1.861 -0.5020  0.4167  0.3855
 8446TIP3    H125302   6.292   3.780   1.852  1.1950  1.2883  0.5686
 8446TIP3    H225303   6.313   3.925   1.890 -1.9551  1.6174  1.3739
 8447TIP3   OH225304   0.736   3.268   2.658 -0.1956 -0.6593  0.1184
 8447TIP3    H125305   0.699   3.197   2.711  0.2869 -0.9087  0.1261
 8447TIP3    H225306   0.690   3.346   2.687 -1.6225 -1.1423 -0.7550
 8448TIP3   OH225307   4.833   2.864   3.390  0.0430 -0.0237  0.4903
 8448TIP3    H125308   4.747   2.882   3.352  0.4239  1.5143  0.2875
 8448TIP3    H225309   4.894   2.885   3.320  0.5873 -1.5759  0.4671
 8449TIP3   OH225310   1.845   3.286   4.972 -0.5468 -0.2968  0.0855
 8449TIP3    H125311   1.887   3.221   5.030  0.0256 -0.4832 -0.5287
 8449TIP3    H225312   1.880   3.370   5.002  0.1090 -0.4323 -0.2753
 8450TIP3   OH225313   3.076   5.695   2.868  0.0190  0.5211 -0.7435
 8450TIP3    H125314   3.026   5.636   2.812 -1.3955 -0.6703  1.6196
 8450TIP3    H225315   3.167   5.665   2.860 -0.2714 -0.1379 -1.7101
 8451TIP3   OH225316   1.273   4.328   2.893 -0.2130  0.7274  0.0907
 8451TIP3    H125317   1.306   4.305   2.980  0.5534 -0.7848 -0.5643
 8451TIP3    H225318   1.178   4.331   2.904 -0.1826 -0.2965  0.8159
 8452TIP3   OH225319   5.145   6.721   3.576  0.0472 -0.1182 -0.2294
 8452TIP3    H125320   5.213   6.786   3.594 -1.5564  1.0151  2.3090
 8452TIP3    H225321   5.066   6.758   3.616 -1.0847 -3.3653  0.8278
 8453TIP3   OH225322   6.796   3.130   1.195 -0.1705 -0.6218  0.1063
 8453TIP3    H125323   6.715   3.087   1.168 -0.2968 -0.0225 -0.5153
 8453TIP3    H225324   6.767   3.210   1.239  0.0712 -0.6463  0.3119
 8454TIP3   OH225325   3.518   4.953   2.432  0.2387 -0.6837 -0.5942
 8454TIP3    H125326   3.599   5.000   2.446 -0.6486  1.0643 -1.0819
 8454TIP3    H225327   3.533   4.900   2.354  1.1378 -0.9664 -0.2365
 8455TIP3   OH225328   5.455   2.303   0.999 -0.2753  0.5127 -0.5960
 8455TIP3    H125329   5.444   2.314   0.904  1.4043  1.4730 -0.7195
 8455TIP3    H225330   5.496   2.217   1.008  1.2160  1.1508 -0.9253
 8456TIP3   OH225331   0.743   4.697   5.863 -0.0971 -0.0782  0.0843
 8456TIP3    H125332   0.758   4.727   5.952 -1.5350  0.5531  0.1370
 8456TIP3    H225333   0.652   4.718   5.845  0.5894  1.4513 -2.1462
 8457TIP3   OH225334   5.820   4.584   3.718 -0.1183 -1.0545 -0.2895
 8457TIP3    H125335   5.915   4.567   3.723  0.0477 -0.5145 -1.3261
 8457TIP3    H225336   5.792   4.590   3.809  0.9151 -0.8581  0.0289
 8458TIP3   OH225337   3.339   0.397   2.789 -0.3543 -0.0531 -0.0601
 8458TIP3    H125338   3.306   0.469   2.843  0.0180 -0.6975  1.0627
 8458TIP3    H225339   3.289   0.320   2.819 -0.4151 -0.3567 -0.9148
 8459TIP3   OH225340   6.738   0.818   2.061 -0.0374  0.2558 -0.6091
 8459TIP3    H125341   6.821   0.863   2.045  0.3363 -0.2712 -0.2220
 8459TIP3    H225342   6.765   0.730   2.089 -0.6966  0.4741  0.7608
 8460TIP3   OH225343   4.900   2.059   5.600  0.2532  0.0241  0.1352
 8460TIP3    H125344   4.857   2.055   5.686  0.0579  0.2453  0.0486
 8460TIP3    H225345   4.852   1.996   5.547 -0.1530  0.4763 -0.0428
 8461TIP3   OH225346   4.063   0.033   3.862 -0.0870  0.5718  0.2726
 8461TIP3    H125347   4.152   0.036   3.827  0.3226 -1.9971  0.8869
 8461TIP3    H225348   4.020  -0.036   3.812 -1.3747  0.9707  0.7911
 8462TIP3   OH225349   5.575   2.392   4.369  0.6148 -0.4182 -0.3603
 8462TIP3    H125350   5.628   2.427   4.442  1.3696 -2.2650  0.0391
 8462TIP3    H225351   5.543   2.308   4.402 -1.7623  0.1866 -0.9983
 8463TIP3   OH225352   4.185   3.178   5.288 -0.4553 -0.6741 -0.4072
 8463TIP3    H125353   4.232   3.179   5.371 -0.4193 -2.6123 -0.3375
 8463TIP3    H225354   4.093   3.184   5.312 -0.4093 -0.5275 -0.2703
 8464TIP3   OH225355   2.915   5.197   3.324 -0.1574  0.5435  0.7600
 8464TIP3    H125356   2.899   5.205   3.230 -1.4651 -0.0828  0.9115
 8464TIP3    H225357   3.003   5.231   3.336  0.1410  0.3572 -0.7351
 8465TIP3   OH225358   4.250   0.574   4.645 -0.0537  0.4425  0.1503
 8465TIP3    H125359   4.167   0.588   4.690  0.0812  1.5959  0.0592
 8465TIP3    H225360   4.270   0.482   4.661 -0.0581  0.7792  2.3841
 8466TIP3   OH225361   5.193   1.373   4.436 -0.2355 -0.0700  0.4658
 8466TIP3    H125362   5.146   1.321   4.501 -1.6089 -0.5415 -0.8357
 8466TIP3    H225363   5.219   1.452   4.482 -0.1311 -0.8944  1.8787
 8467TIP3   OH225364   0.581   4.404   0.090 -0.0794  0.1124  0.1486
 8467TIP3    H125365   0.653   4.396   0.027 -0.2363 -1.6098  0.1574
 8467TIP3    H225366   0.601   4.341   0.158 -0.9523  0.5397  0.8226
 8468TIP3   OH225367   1.872   4.371   0.299 -0.7411  0.0711  0.0240
 8468TIP3    H125368   1.929   4.411   0.364  1.9680  0.5044 -2.3966
 8468TIP3    H225369   1.857   4.441   0.235 -1.0198 -1.0559 -1.1856
 8469TIP3   OH225370   6.793   5.139   4.682 -0.3139  0.1227  0.2648
 8469TIP3    H125371   6.874   5.184   4.658  0.1194 -0.9438 -0.3724
 8469TIP3    H225372   6.823   5.064   4.735 -0.7653 -0.9363 -0.9339
 8470TIP3   OH225373   3.567   3.270   2.470  0.4048 -0.1703  0.3932
 8470TIP3    H125374   3.611   3.245   2.551  1.2718 -1.5896 -0.4697
 8470TIP3    H225375   3.481   3.227   2.477  0.4042 -0.1322  0.6420
 8471TIP3   OH225376   2.659   5.971   5.767 -0.0395 -0.2575  0.3536
 8471TIP3    H125377   2.670   5.881   5.797  0.5994 -0.2365  0.1907
 8471TIP3    H225378   2.646   5.963   5.673  1.1284 -0.1101  0.1711
 8472TIP3   OH225379   5.350   1.269   5.234  0.1800 -0.1282 -0.1030
 8472TIP3    H125380   5.354   1.181   5.273  1.7305 -1.2331 -2.5398
 8472TIP3    H225381   5.411   1.266   5.161  0.5195  3.1353 -0.0913
 8473TIP3   OH225382   3.699   4.388   3.761  0.1413 -0.1414 -0.0230
 8473TIP3    H125383   3.654   4.434   3.832 -0.0808  1.2693 -1.0374
 8473TIP3    H225384   3.752   4.322   3.805 -1.5670 -0.6713  1.3153
 8474TIP3   OH225385   6.558   5.017   3.542  0.0969  0.1742 -0.0112
 8474TIP3    H125386   6.502   5.087   3.575  1.0580  0.6288  0.7016
 8474TIP3    H225387   6.537   4.942   3.598 -0.2425  0.1577 -0.1557
 8475TIP3   OH225388   4.066   1.334   0.904  0.1261 -0.4488  0.1560
 8475TIP3    H125389   4.100   1.248   0.879  2.4601  0.0101  1.4556
 8475TIP3    H225390   4.084   1.390   0.829  1.5871 -0.4109  0.5035
 8476TIP3   OH225391   0.676   5.487   1.555 -0.5849  0.7948 -0.1891
 8476TIP3    H125392   0.648   5.526   1.639 -0.0357 -0.3169  0.5346
 8476TIP3    H225393   0.748   5.543   1.526  1.1209 -0.3761  1.5303
 8477TIP3   OH225394   2.425   3.860   2.550  0.0505  0.2010  0.1175
 8477TIP3    H125395   2.446   3.860   2.457 -0.0990  0.6252  0.0818
 8477TIP3    H225396   2.331   3.841   2.554 -0.1605  1.1819  0.1228
 8478TIP3   OH225397   4.130   5.914   3.677 -0.2683 -0.2057  0.1080
 8478TIP3    H125398   4.179   5.862   3.613 -1.8514 -1.4226 -0.2023
 8478TIP3    H225399   4.176   5.997   3.681  0.5573 -0.5111 -1.7643
 8479TIP3   OH225400   2.691   3.808   4.009 -1.0823  0.2087 -0.1230
 8479TIP3    H125401   2.615   3.784   3.957 -0.7042  0.2075 -0.6938
 8479TIP3    H225402   2.763   3.758   3.971 -1.3596 -2.5852  2.6292
 8480TIP3   OH225403   4.990   0.218   1.692 -0.3989  0.2742  0.2550
 8480TIP3    H125404   4.934   0.159   1.742 -0.9517  0.8657  0.3374
 8480TIP3    H225405   5.029   0.276   1.757 -0.5715  0.5872  0.0849
 8481TIP3   OH225406   4.100   2.583   4.263 -0.5316 -0.2001  0.2823
 8481TIP3    H125407   4.094   2.663   4.316 -0.8238 -0.3630  0.5001
 8481TIP3    H225408   4.011   2.567   4.234 -0.3397 -0.0010 -0.4336
 8482TIP3   OH225409   0.178   3.749   3.389 -0.0253 -0.2407  0.0982
 8482TIP3    H125410   0.105   3.700   3.428 -0.4473  0.0665 -0.3024
 8482TIP3    H225411   0.218   3.794   3.464  0.7879 -1.6881  0.5943
 8483TIP3   OH225412   4.656   5.114   4.029 -0.0844  0.1198 -0.1562
 8483TIP3    H125413   4.688   5.034   4.071 -0.3877  0.3442  0.5071
 8483TIP3    H225414   4.562   5.113   4.043  0.1368  1.7476  1.9294
 8484TIP3   OH225415   2.885   0.699   5.200 -0.3924 -0.3877 -0.4133
 8484TIP3    H125416   2.921   0.702   5.111  1.8074  1.1063  0.4599
 8484TIP3    H225417   2.861   0.607   5.212  2.4195 -1.3591 -1.4135
 8485TIP3   OH225418   6.149   3.947   0.843  0.1679  0.3443 -0.6834
 8485TIP3    H125419   6.152   3.874   0.905 -0.9027 -0.1449 -1.1923
 8485TIP3    H225420   6.158   4.025   0.898  0.8505 -0.1420 -0.0843
 8486TIP3   OH225421   3.807   3.484   0.427 -0.4084  0.0047 -0.1411
 8486TIP3    H125422   3.796   3.436   0.345 -2.1919  0.5526 -0.2739
 8486TIP3    H225423   3.888   3.533   0.416  0.4029 -1.4165 -0.7869
 8487TIP3   OH225424   0.485   5.798   0.156  0.1561  0.6755  0.3757
 8487TIP3    H125425   0.420   5.730   0.143  1.3037 -0.4672  0.4020
 8487TIP3    H225426   0.458   5.842   0.237  0.1167 -0.6208  1.0970
 8488TIP3   OH225427   5.630   0.241   2.192 -0.2970  0.2968  0.4510
 8488TIP3    H125428   5.610   0.247   2.285  0.2298  1.0837  0.5226
 8488TIP3    H225429   5.688   0.315   2.175 -0.8453  0.4988 -0.6237
 8489TIP3   OH225430   1.936   2.640   3.809  0.0740 -0.5308  0.4083
 8489TIP3    H125431   1.849   2.678   3.825  0.0220  0.1307 -1.1836
 8489TIP3    H225432   1.919   2.548   3.789 -0.4089 -0.1732 -0.9380
 8490TIP3   OH225433   6.186   5.108   0.514 -0.2810 -0.0667  0.4109
 8490TIP3    H125434   6.232   5.070   0.440 -0.7510 -3.8249  1.8264
 8490TIP3    H225435   6.239   5.184   0.539  1.9788 -0.9225 -1.4397
 8491TIP3   OH225436   1.006   4.541   5.309 -0.5805 -0.0466  0.1490
 8491TIP3    H125437   0.913   4.520   5.318 -0.9821  0.5339 -2.1653
 8491TIP3    H225438   1.011   4.602   5.236  1.5276  0.8206  0.9182
 8492TIP3   OH225439   6.130   4.594   4.640 -0.4329  0.2647 -0.4074
 8492TIP3    H125440   6.198   4.537   4.676 -0.1782  1.6531  1.4222
 8492TIP3    H225441   6.178   4.659   4.589 -0.2199  1.7192  1.5240
 8493TIP3   OH225442   6.191   3.249   0.489 -0.0876  0.5625 -0.1338
 8493TIP3    H125443   6.112   3.210   0.452  0.8293 -0.1086 -1.4418
 8493TIP3    H225444   6.173   3.253   0.583 -1.3369 -0.3496 -0.3036
 8494TIP3   OH225445   3.693   2.334   3.640  0.3233 -0.4091  0.2595
 8494TIP3    H125446   3.618   2.372   3.686 -0.0541  0.1999 -0.7983
 8494TIP3    H225447   3.667   2.244   3.622  0.0089 -0.3191  0.2527
 8495TIP3   OH225448   2.697   6.192   4.375  0.1614 -1.0215 -0.0991
 8495TIP3    H125449   2.787   6.159   4.372 -0.4600 -2.8132  0.0163
 8495TIP3    H225450   2.657   6.146   4.448 -0.6265  0.4133  0.3964
 8496TIP3   OH225451   6.313   5.847   0.546  0.2917 -0.6087 -0.8556
 8496TIP3    H125452   6.232   5.856   0.496 -0.3463 -0.6137  0.1410
 8496TIP3    H225453   6.284   5.851   0.637  1.8383  4.6009 -0.2632
 8497TIP3   OH225454   3.720   0.427   1.899  0.0110  0.5590 -0.1597
 8497TIP3    H125455   3.706   0.357   1.963 -1.5872 -0.1965 -1.2637
 8497TIP3    H225456   3.708   0.507   1.950  1.0465  0.0509  0.9513
 8498TIP3   OH225457   6.643   5.081   2.058  0.2424 -0.3778  0.0517
 8498TIP3    H125458   6.613   5.144   1.992  1.5133 -0.4030 -0.5845
 8498TIP3    H225459   6.610   4.997   2.026  0.1015 -0.2707 -0.0894
 8499TIP3   OH225460   0.450   2.934   1.770  0.0199  0.6585 -0.1963
 8499TIP3    H125461   0.375   2.953   1.714 -0.2201  0.0208 -0.1025
 8499TIP3    H225462   0.466   2.841   1.758 -0.4702  0.3522  1.2907
 8500TIP3   OH225463   2.464   3.679   4.178 -0.0434  0.4371 -0.0635
 8500TIP3    H125464   2.475   3.747   4.112 -1.9313  0.8560  0.0154
 8500TIP3    H225465   2.474   3.597   4.130  0.4759  0.7514 -0.4976
 8501TIP3   OH225466   6.910   5.124   1.423 -0.1413 -0.5772 -0.1322
 8501TIP3    H125467   6.888   5.051   1.481 -1.8318 -0.9779 -1.2114
 8501TIP3    H225468   6.913   5.085   1.336 -0.5673  0.5395 -0.6669
 8502TIP3   OH225469   2.340   0.393   2.334 -0.3280 -0.1596  0.3665
 8502TIP3    H125470   2.300   0.452   2.270  0.8726  0.6556  0.3255
 8502TIP3    H225471   2.364   0.315   2.284  1.0934  0.6854 -0.3484
 8503TIP3   OH225472   0.074   0.595   0.145 -0.0076  0.3478  0.3629
 8503TIP3    H125473   0.025   0.550   0.213 -1.2275  0.8053 -0.1904
 8503TIP3    H225474   0.011   0.611   0.076  1.1686  0.0386 -0.8269
 8504TIP3   OH225475   5.870   0.593   1.822 -0.1754  0.5689  0.1270
 8504TIP3    H125476   5.951   0.549   1.795  0.1948  1.0360  0.4460
 8504TIP3    H225477   5.891   0.687   1.816 -1.0414  0.7206 -0.8286
 8505TIP3   OH225478   5.371   4.757   5.225  0.4458  0.6746  0.0118
 8505TIP3    H125479   5.428   4.707   5.283 -2.0745  0.6951  2.7027
 8505TIP3    H225480   5.386   4.849   5.248  0.5288  0.7913 -0.4823
 8506TIP3   OH225481   5.953   4.337   1.401 -0.2904 -0.1926  0.2988
 8506TIP3    H125482   6.003   4.418   1.408 -0.4087  0.0531 -1.2261
 8506TIP3    H225483   5.862   4.365   1.408 -0.6366  0.5128 -3.9652
 8507TIP3   OH225484   4.035   3.474   3.343 -0.7211 -0.9131 -0.1454
 8507TIP3    H125485   4.078   3.480   3.429 -0.8258  0.2927 -0.1600
 8507TIP3    H225486   3.993   3.388   3.343  1.1200 -1.8513  0.1335
 8508TIP3   OH225487   3.287   1.940   2.344 -0.2272 -0.7005 -0.3394
 8508TIP3    H125488   3.326   2.025   2.323  0.6705 -1.1462 -0.5060
 8508TIP3    H225489   3.320   1.919   2.431 -0.1871 -1.0203 -0.4298
 8509TIP3   OH225490   1.686   4.516   3.055  0.7264 -0.4825 -0.1187
 8509TIP3    H125491   1.764   4.569   3.037 -0.4783  0.5918 -2.7382
 8509TIP3    H225492   1.695   4.439   2.999  0.1307 -0.5871 -0.0810
 8510TIP3   OH225493   5.462   2.932   3.312 -0.4956 -0.8677  0.9611
 8510TIP3    H125494   5.493   3.021   3.332 -0.3786 -0.1873 -1.7417
 8510TIP3    H225495   5.367   2.942   3.301 -0.5538 -1.1919  1.1742
 8511TIP3   OH225496   0.434   1.747   1.581  0.3931 -0.2422  0.4077
 8511TIP3    H125497   0.408   1.705   1.500 -0.8919 -1.4944  1.4199
 8511TIP3    H225498   0.530   1.749   1.577  0.3429  1.7146 -2.0442
 8512TIP3   OH225499   7.003   1.604   1.442 -0.0626 -0.2263  0.4737
 8512TIP3    H125500   6.912   1.614   1.414  0.1886  1.0145  0.0214
 8512TIP3    H225501   7.029   1.517   1.410 -1.0608 -0.5595  0.5545
 8513TIP3   OH225502   1.850   0.236   4.672 -0.0444  0.3471 -0.8282
 8513TIP3    H125503   1.889   0.284   4.599 -0.2836  2.0594  0.1232
 8513TIP3    H225504   1.874   0.286   4.749 -1.8487 -0.0588  0.0494
 8514TIP3   OH225505   5.396   1.671   1.135  0.5972  0.1693 -0.1727
 8514TIP3    H125506   5.353   1.652   1.218 -0.2511  1.4231 -0.3016
 8514TIP3    H225507   5.411   1.585   1.095 -1.4714 -0.3287  0.0362
 8515TIP3   OH225508   5.936   3.596   4.101  0.2223 -0.5985 -0.7350
 8515TIP3    H125509   6.019   3.550   4.108  1.7199  2.0665  0.4819
 8515TIP3    H225510   5.945   3.651   4.023 -0.6265 -0.6832 -0.9094
 8516TIP3   OH225511   1.140   4.014   2.609 -0.1988  0.2565  0.2225
 8516TIP3    H125512   1.154   3.993   2.701 -0.7260 -0.8336  0.0763
 8516TIP3    H225513   1.053   3.980   2.589 -0.0263  0.3166 -0.7173
 8517TIP3   OH225514   5.524   2.671   4.671 -0.3784  0.1684  0.3041
 8517TIP3    H125515   5.433   2.651   4.650 -0.2360 -3.6358  2.4745
 8517TIP3    H225516   5.571   2.661   4.589 -1.5432 -0.9398 -0.2592
 8518TIP3   OH225517   6.161   4.963   4.783 -0.0267 -0.5889 -0.3502
 8518TIP3    H125518   6.122   5.031   4.838  1.9076 -1.0727  1.7885
 8518TIP3    H225519   6.097   4.892   4.784 -0.4854 -0.1793  0.4809
 8519TIP3   OH225520   4.828   0.974   2.488  0.0977 -0.0083 -0.2065
 8519TIP3    H125521   4.751   0.944   2.439  0.0258 -0.5960  0.2549
 8519TIP3    H225522   4.804   1.061   2.519  0.2891  0.5467 -1.5360
 8520TIP3   OH225523   4.464   5.050   4.626  0.3710 -0.4213  0.0993
 8520TIP3    H125524   4.501   5.099   4.552 -1.1080 -1.1700 -1.2095
 8520TIP3    H225525   4.537   4.997   4.659  0.5187 -2.0063 -2.5096
 8521TIP3   OH225526   1.859   3.996   3.186 -0.5747 -0.6569  0.3330
 8521TIP3    H125527   1.768   3.972   3.172 -0.3305 -1.2694 -0.2708
 8521TIP3    H225528   1.885   4.039   3.104 -0.6384  0.5705  0.9263
 8522TIP3   OH225529   5.382   6.749   4.011 -0.7414  0.3694 -0.5281
 8522TIP3    H125530   5.408   6.837   4.036  0.4315  0.1507 -0.9077
 8522TIP3    H225531   5.465   6.703   3.996 -1.3281 -0.8439 -0.1726
 8523TIP3   OH225532  -0.019   5.019   5.836  0.3768  0.1065  0.4186
 8523TIP3    H125533   0.056   4.986   5.885 -0.2581  0.1364  1.4465
 8523TIP3    H225534  -0.006   5.114   5.834  1.0925  0.0042 -0.6648
 8524TIP3   OH225535   1.509   2.141   5.033  0.2293  0.1783 -0.4866
 8524TIP3    H125536   1.440   2.172   4.975 -0.1188 -0.4540 -0.4144
 8524TIP3    H225537   1.563   2.085   4.977  0.4831  0.3903 -0.4553
 8525TIP3   OH225538   0.083   0.591   2.433 -0.3869 -0.2022  0.1373
 8525TIP3    H125539   0.141   0.662   2.459 -0.9707  0.0561  0.7459
 8525TIP3    H225540   0.022   0.632   2.371 -1.2557  0.0487  1.1288
 8526TIP3   OH225541   1.259   1.420   1.634  0.2645 -0.1817  0.6120
 8526TIP3    H125542   1.171   1.394   1.661  0.4429 -0.5127  0.8796
 8526TIP3    H225543   1.250   1.511   1.605  0.4894  1.0413  3.9728
 8527TIP3   OH225544   7.212   0.153   3.973  0.4218 -0.4971 -0.0013
 8527TIP3    H125545   7.246   0.238   3.999  0.1653 -0.3315 -0.1972
 8527TIP3    H225546   7.146   0.131   4.039  0.5722 -0.5964  0.1143
 8528TIP3   OH225547   6.954   6.686   3.992  0.5968  0.7399  0.5061
 8528TIP3    H125548   6.956   6.756   3.927  0.0977  0.9487  0.7083
 8528TIP3    H225549   6.906   6.724   4.066 -0.7502 -0.1955  0.1534
 8529TIP3   OH225550   1.294   4.783   2.678  0.1695  0.0526  0.0415
 8529TIP3    H125551   1.209   4.824   2.662  0.2660  0.6814  1.0290
 8529TIP3    H225552   1.316   4.808   2.767  1.2434 -0.3780 -0.0850
 8530TIP3   OH225553   0.603   0.271   4.664  0.3318 -0.5115  0.5029
 8530TIP3    H125554   0.574   0.184   4.637  0.7960 -0.8375  1.0226
 8530TIP3    H225555   0.694   0.277   4.634  0.5720 -0.5393  1.2084
 8531TIP3   OH225556   2.444   1.327   5.685  0.1629  0.2820  0.1993
 8531TIP3    H125557   2.400   1.251   5.723  0.4538  0.7496  1.5413
 8531TIP3    H225558   2.403   1.338   5.599  0.3880 -1.6018 -0.1954
 8532TIP3   OH225559   2.767   2.750   4.839 -0.1844 -0.2088 -0.8871
 8532TIP3    H125560   2.812   2.830   4.812 -0.2496  0.1383  0.0134
 8532TIP3    H225561   2.832   2.681   4.825  0.6334  0.2711  0.3043
 8533TIP3   OH225562   7.069   5.117   0.478  0.0900 -0.1742 -0.0842
 8533TIP3    H125563   7.054   5.205   0.445 -1.5332 -0.5957 -0.5713
 8533TIP3    H225564   6.992   5.099   0.533 -1.0235 -2.2655 -2.1601
 8534TIP3   OH225565   6.662   4.520   2.500 -0.4454  0.6632 -0.1939
 8534TIP3    H125566   6.742   4.558   2.463 -1.4308  2.0508 -1.0006
 8534TIP3    H225567   6.630   4.586   2.561 -0.5304 -0.2626  0.7986
 8535TIP3   OH225568   1.140   2.314   5.631 -0.1491  0.0252 -0.0884
 8535TIP3    H125569   1.161   2.393   5.581  0.1476 -0.5161 -0.8367
 8535TIP3    H225570   1.095   2.346   5.709  1.4119  1.0596  0.4322
 8536TIP3   OH225571   6.584   5.744   3.616 -0.2331 -0.0094  0.3134
 8536TIP3    H125572   6.648   5.740   3.687  0.8598  1.5206 -0.5523
 8536TIP3    H225573   6.574   5.837   3.597 -2.0356 -0.2645 -0.2121
 8537TIP3   OH225574   4.832   0.338   3.891 -0.2971  0.2108 -0.6500
 8537TIP3    H125575   4.927   0.335   3.876 -0.3815  0.8934 -1.3451
 8537TIP3    H225576   4.822   0.306   3.981  0.4919 -0.9048 -0.9433
 8538TIP3   OH225577   6.794   5.779   2.755 -0.8250 -0.4304 -0.0610
 8538TIP3    H125578   6.848   5.848   2.795 -0.9349 -0.6385  0.4494
 8538TIP3    H225579   6.763   5.727   2.829 -1.7743 -0.2858 -0.3458
 8539TIP3   OH225580   4.822   1.883   2.720  0.2328  0.2865  0.0358
 8539TIP3    H125581   4.765   1.957   2.742 -2.9112 -2.3387  1.4858
 8539TIP3    H225582   4.764   1.807   2.717  3.6359 -2.6766  1.4638
 8540TIP3   OH225583   1.226   0.538   4.722  0.2804  0.2968  0.3233
 8540TIP3    H125584   1.138   0.573   4.711  0.2224 -0.0879 -0.5374
 8540TIP3    H225585   1.215   0.464   4.781 -0.0881 -0.1482 -0.2847
 8541TIP3   OH225586   0.620   1.476   2.778  0.5667  0.4919  0.2014
 8541TIP3    H125587   0.529   1.469   2.808  0.4565 -1.3340 -0.4515
 8541TIP3    H225588   0.624   1.561   2.734 -0.9806  0.3464 -0.2714
 8542TIP3   OH225589   2.554   5.894   1.615  0.0496 -0.4201 -0.5277
 8542TIP3    H125590   2.608   5.832   1.666 -0.1296  0.5951  0.9556
 8542TIP3    H225591   2.468   5.889   1.656 -0.3928 -0.3456 -1.4322
 8543TIP3   OH225592   4.794   1.620   5.187  0.3248 -0.3519  0.3602
 8543TIP3    H125593   4.760   1.533   5.167 -2.1848  0.2786  1.5378
 8543TIP3    H225594   4.813   1.617   5.281 -1.2974  0.8006  0.7541
 8544TIP3   OH225595   1.243   0.522   3.541  0.3179  0.3740  0.1265
 8544TIP3    H125596   1.213   0.612   3.556  0.2674 -0.0518  3.2239
 8544TIP3    H225597   1.210   0.500   3.453  0.1499  3.2509 -0.6320
 8545TIP3   OH225598   2.098   3.794   1.245 -0.4077 -0.3740  0.0867
 8545TIP3    H125599   2.011   3.820   1.213 -1.3353  1.1315  3.3282
 8545TIP3    H225600   2.081   3.757   1.332  2.2284  0.8454  1.2265
 8546TIP3   OH225601   1.764   6.205   4.981  0.4389 -0.0158 -0.0250
 8546TIP3    H125602   1.669   6.214   4.971  0.3698  3.4721  2.0048
 8546TIP3    H225603   1.779   6.111   4.981 -3.1680 -0.7670  0.6172
 8547TIP3   OH225604   1.313   3.685   2.501  0.2276  0.1073  0.2499
 8547TIP3    H125605   1.270   3.690   2.587  0.0017 -0.0724  0.1474
 8547TIP3    H225606   1.318   3.776   2.472 -0.8109  0.0675 -0.0921
 8548TIP3   OH225607   1.297   3.863   1.134 -0.1292  0.3744  0.3248
 8548TIP3    H125608   1.212   3.882   1.093 -0.4017 -0.1652  0.6374
 8548TIP3    H225609   1.283   3.878   1.227  0.1520  0.3943  0.3646
 8549TIP3   OH225610   2.545   0.900   2.040 -0.2275 -0.1960 -0.3078
 8549TIP3    H125611   2.561   0.844   2.116  0.7611  0.8410  0.2763
 8549TIP3    H225612   2.493   0.845   1.981 -0.3377 -1.3000  0.7594
 8550TIP3   OH225613   5.053   2.811   1.714  0.2395  0.2624  0.4553
 8550TIP3    H125614   4.998   2.806   1.636  0.5998  2.5838 -0.0366
 8550TIP3    H225615   5.019   2.887   1.763  1.0132 -0.1845  1.7444
 8551TIP3   OH225616   7.181   5.031   3.092 -0.3730  0.0913  0.0208
 8551TIP3    H125617   7.158   5.115   3.052 -1.1902  0.1872  0.6869
 8551TIP3    H225618   7.127   4.967   3.046 -1.4934  0.2296  1.0984
 8552TIP3   OH225619   5.716   2.277   5.540  0.4767  0.8905  0.0416
 8552TIP3    H125620   5.762   2.229   5.609 -1.3135 -0.5224  0.3454
 8552TIP3    H225621   5.658   2.211   5.501 -1.4734  2.6164 -0.1234
 8553TIP3   OH225622   1.882   0.887   3.406  0.0580  0.4749 -0.2814
 8553TIP3    H125623   1.867   0.809   3.352 -0.3416 -0.0132  0.5085
 8553TIP3    H225624   1.828   0.955   3.365  0.4694  0.3649 -1.0265
 8554TIP3   OH225625   0.344   3.920   4.761  0.0650  0.3644  0.2840
 8554TIP3    H125626   0.364   4.013   4.755 -1.7658  0.8254  0.7402
 8554TIP3    H225627   0.357   3.887   4.672 -1.6290  1.6097 -0.4979
 8555TIP3   OH225628   3.790   3.579   0.047 -0.4653 -0.2481 -0.0256
 8555TIP3    H125629   3.884   3.573   0.064 -0.0288  1.8010 -1.3435
 8555TIP3    H225630   3.757   3.638   0.115 -0.7514 -0.7090  0.2413
 8556TIP3   OH225631   3.769   0.681   0.387  0.1122  0.0402  0.1171
 8556TIP3    H125632   3.833   0.662   0.318  0.6567  1.2610  0.2719
 8556TIP3    H225633   3.787   0.771   0.413 -0.1938 -0.3320  1.7483
 8557TIP3   OH225634   1.265   4.259   2.088  0.3207  0.0803 -0.1914
 8557TIP3    H125635   1.309   4.180   2.056  1.3709 -0.0910  1.4984
 8557TIP3    H225636   1.229   4.301   2.010  1.8983 -0.7686 -1.4337
 8558TIP3   OH225637   2.238   2.328   0.327 -0.1186  0.2439  0.4096
 8558TIP3    H125638   2.307   2.262   0.340  0.0718  0.1910 -0.8226
 8558TIP3    H225639   2.160   2.288   0.365 -0.4334 -1.5070 -1.8720
 8559TIP3   OH225640   3.988   0.573   0.251  0.6963  0.0076  0.3864
 8559TIP3    H125641   4.034   0.599   0.171  1.0991 -0.5186  0.4415
 8559TIP3    H225642   3.956   0.485   0.233  0.4970  0.0167  0.6857
 8560TIP3   OH225643   2.293   4.877   4.694 -0.2316 -0.1717  0.7156
 8560TIP3    H125644   2.245   4.809   4.741  0.1461 -0.5827  0.5120
 8560TIP3    H225645   2.289   4.850   4.603 -1.4919  0.9470  0.4096
 8561TIP3   OH225646   2.673   6.245   5.489 -0.4893  0.6079  0.0008
 8561TIP3    H125647   2.632   6.207   5.412 -1.1143 -0.5396  0.8578
 8561TIP3    H225648   2.721   6.173   5.529 -0.9884  0.9027  1.1969
 8562TIP3   OH225649   4.160   0.360   1.730 -0.2165 -0.2745  0.4643
 8562TIP3    H125650   4.233   0.356   1.668 -0.5192  0.4148  0.0615
 8562TIP3    H225651   4.169   0.280   1.782  0.3634 -0.5830 -0.0991
 8563TIP3   OH225652   3.263   5.246   1.350  0.6333 -0.0317 -0.2290
 8563TIP3    H125653   3.320   5.170   1.341 -0.1202 -0.5854 -0.3841
 8563TIP3    H225654   3.323   5.320   1.360  1.3718 -0.7533  0.8814
 8564TIP3   OH225655   4.603   5.413   2.623 -0.3396  0.3357  0.0294
 8564TIP3    H125656   4.668   5.398   2.692  0.2774 -1.3423 -0.8647
 8564TIP3    H225657   4.557   5.492   2.651 -0.1613 -0.3090  2.3938
 8565TIP3   OH225658   6.668   5.610   2.031  0.6595  0.3950  0.3202
 8565TIP3    H125659   6.716   5.683   1.992  2.2236 -0.6784  0.1374
 8565TIP3    H225660   6.715   5.532   2.001  0.3763 -0.5879  2.2901
 8566TIP3   OH225661   0.364   1.413   0.969  0.8021 -0.2474 -0.4677
 8566TIP3    H125662   0.320   1.498   0.967 -0.1267 -0.6882  0.6116
 8566TIP3    H225663   0.425   1.417   0.895  0.1636  1.0197 -0.9660
 8567TIP3   OH225664   4.757   6.635   4.956 -0.3776 -0.6695  0.0160
 8567TIP3    H125665   4.788   6.709   5.008 -0.8071 -1.9583  2.2654
 8567TIP3    H225666   4.828   6.617   4.895  0.2081  0.8756  0.1933
 8568TIP3   OH225667   4.891   5.368   2.236  0.0355  0.1365  0.1964
 8568TIP3    H125668   4.863   5.277   2.246  0.7245 -0.3053 -1.5548
 8568TIP3    H225669   4.857   5.395   2.150  0.8236  1.1440  0.1760
 8569TIP3   OH225670   4.234   1.322   2.392 -0.3148 -0.0195 -0.4669
 8569TIP3    H125671   4.205   1.347   2.304 -1.1262 -1.5199 -0.6640
 8569TIP3    H225672   4.319   1.280   2.379  0.0261  0.6317 -0.3970
 8570TIP3   OH225673   4.300   1.669   0.432 -0.1825  1.1378  0.0289
 8570TIP3    H125674   4.388   1.633   0.430 -0.5690 -0.0659  2.1519
 8570TIP3    H225675   4.258   1.632   0.353  0.0222 -1.6707  1.1086
 8571TIP3   OH225676   1.613   4.048   3.982  0.1223  0.2310  0.4208
 8571TIP3    H125677   1.529   4.007   4.003  0.1674 -1.5207 -2.2375
 8571TIP3    H225678   1.677   3.978   3.993  0.6970  0.5125 -0.8658
 8572TIP3   OH225679   0.599   1.998   5.371 -0.0164  0.4777  0.3127
 8572TIP3    H125680   0.536   2.063   5.341 -1.6392 -1.0769  0.1423
 8572TIP3    H225681   0.587   1.995   5.466 -0.3482  0.0575  0.2615
 8573TIP3   OH225682   2.807   2.218   0.941 -0.0318 -0.8084  0.3772
 8573TIP3    H125683   2.795   2.265   1.023 -0.5224 -0.5740  0.1728
 8573TIP3    H225684   2.724   2.172   0.927 -1.0563  1.3876 -1.4160
 8574TIP3   OH225685   1.265   4.683   2.125  0.0816  0.4515 -0.0424
 8574TIP3    H125686   1.291   4.609   2.179 -1.0171 -0.5854 -0.8651
 8574TIP3    H225687   1.184   4.715   2.165 -1.0626 -0.6966 -1.3484
 8575TIP3   OH225688   4.498   0.628   5.292 -0.1383  0.3710 -0.4296
 8575TIP3    H125689   4.459   0.561   5.237  0.6605 -0.7991  0.3941
 8575TIP3    H225690   4.549   0.682   5.232 -1.1976  0.5702 -1.1723
 8576TIP3   OH225691   6.378   2.492   4.979  0.1302  0.0547 -0.0820
 8576TIP3    H125692   6.343   2.481   4.891 -0.1308  2.6443 -0.3639
 8576TIP3    H225693   6.334   2.425   5.031  0.2491 -1.4873 -1.8687
 8577TIP3   OH225694   7.158   6.426   4.909  0.2769 -0.4575  0.2301
 8577TIP3    H125695   7.127   6.358   4.849  0.8738 -0.7312  0.2267
 8577TIP3    H225696   7.253   6.418   4.907  0.3878  0.8078 -0.2677
 8578TIP3   OH225697   2.956   1.442   3.712 -0.1285  0.4065  0.2739
 8578TIP3    H125698   2.896   1.490   3.656 -0.9344  0.9462  1.5524
 8578TIP3    H225699   3.021   1.507   3.739  0.5995  0.0090 -0.4846
 8579TIP3   OH225700   5.087   6.515   2.405  0.3476  0.1752  0.2963
 8579TIP3    H125701   5.040   6.504   2.323  0.8947  0.5119 -0.0648
 8579TIP3    H225702   5.179   6.500   2.383  0.4684  0.0032  0.8978
 8580TIP3   OH225703   3.367   6.142   1.358  0.0378  0.1152  0.2642
 8580TIP3    H125704   3.327   6.055   1.354 -0.7879  0.4833  0.2251
 8580TIP3    H225705   3.293   6.203   1.354  0.5602  0.8164  0.8779
 8581TIP3   OH225706   1.555   3.857   1.252  0.2210 -0.2277  0.0458
 8581TIP3    H125707   1.533   3.921   1.320  1.6838 -0.4438  0.7675
 8581TIP3    H225708   1.479   3.856   1.195  0.4776  2.8381 -0.5182
 8582TIP3   OH225709   0.802   5.213   1.255  0.3364 -0.1938 -0.1793
 8582TIP3    H125710   0.733   5.171   1.305 -0.8375 -0.3503 -1.8542
 8582TIP3    H225711   0.757   5.281   1.204  1.6123  0.5360 -0.3846
 8583TIP3   OH225712   1.900   5.694   4.052  0.1535  0.4101 -0.2319
 8583TIP3    H125713   1.901   5.780   4.096 -0.3484  0.3275 -0.0544
 8583TIP3    H225714   1.832   5.703   3.985  2.4400  1.2957 -2.5749
 8584TIP3   OH225715   6.433   1.497   1.470  0.0239  0.7519 -0.1989
 8584TIP3    H125716   6.426   1.571   1.531 -0.8374  1.2421 -0.8615
 8584TIP3    H225717   6.378   1.522   1.395 -1.3723 -1.1214  0.1178
 8585TIP3   OH225718   1.338   4.458   2.257 -0.3812 -0.1360 -0.0636
 8585TIP3    H125719   1.292   4.444   2.340 -1.5699 -0.8581 -0.7924
 8585TIP3    H225720   1.312   4.382   2.203  2.0412 -0.8077 -0.3954
 8586TIP3   OH225721   0.986   3.209   5.509  0.2006  0.1419 -0.4353
 8586TIP3    H125722   0.941   3.145   5.453 -0.9058  0.8595 -0.3790
 8586TIP3    H225723   1.014   3.158   5.585  0.4990 -0.5490 -0.9844
 8587TIP3   OH225724   2.372   4.440   1.093  0.6317  0.0293  0.5060
 8587TIP3    H125725   2.435   4.385   1.139 -0.3439 -1.2893  0.3238
 8587TIP3    H225726   2.339   4.385   1.022 -0.4725  0.8069  0.3845
 8588TIP3   OH225727   4.309   4.346   4.472 -0.1872  0.1522 -0.0029
 8588TIP3    H125728   4.244   4.353   4.402 -1.9905 -0.2292  1.5198
 8588TIP3    H225729   4.335   4.254   4.472 -0.0886  0.1790 -0.2414
 8589TIP3   OH225730   1.399   3.624   0.191 -0.2169 -0.3252 -0.0661
 8589TIP3    H125731   1.436   3.590   0.273  0.6915 -1.5820 -0.9645
 8589TIP3    H225732   1.447   3.578   0.122 -1.1738  0.4865 -1.3136
 8590TIP3   OH225733   3.597   1.040   3.990  0.3229  0.0840  0.0934
 8590TIP3    H125734   3.510   1.067   3.963  0.8027  1.0750 -0.5124
 8590TIP3    H225735   3.602   0.948   3.965 -0.5455  0.0087  0.1568
 8591TIP3   OH225736   7.178   3.179   5.543 -0.0143  0.3075  0.2936
 8591TIP3    H125737   7.270   3.160   5.558 -0.0046  0.3267  0.2592
 8591TIP3    H225738   7.178   3.244   5.473 -0.1074 -0.6875 -0.6562
 8592TIP3   OH225739   0.484   6.042  -0.024 -0.3891 -0.3889 -0.1546
 8592TIP3    H125740   0.469   5.956   0.016 -1.7405  0.4552  1.2585
 8592TIP3    H225741   0.570   6.069   0.009  0.6931 -1.7223 -1.7000
 8593TIP3   OH225742   6.477   3.781   3.670 -0.5335  0.4837 -0.0730
 8593TIP3    H125743   6.553   3.735   3.635  1.1382  0.3468  3.3500
 8593TIP3    H225744   6.484   3.869   3.635  0.4021  0.0943 -0.9092
 8594TIP3   OH225745   3.478   4.117   5.121 -0.4691 -0.2643 -0.4870
 8594TIP3    H125746   3.539   4.188   5.141 -0.4294 -0.6726  0.9727
 8594TIP3    H225747   3.504   4.046   5.179 -2.5705 -0.2998  0.5161
 8595TIP3   OH225748   6.514   2.934   1.962  0.2482  0.0209 -0.1957
 8595TIP3    H125749   6.490   3.014   2.008 -1.9013  0.0466 -1.2177
 8595TIP3    H225750   6.557   2.965   1.882 -0.6981  0.1805 -0.6533
 8596TIP3   OH225751   6.796   3.681   4.054  0.7350  0.0365  0.4556
 8596TIP3    H125752   6.785   3.603   4.000  0.8097  1.5471 -1.9057
 8596TIP3    H225753   6.882   3.671   4.094  1.3271 -0.4641 -0.9025
 8597TIP3   OH225754   0.687   4.370   3.288  0.6574 -0.3302 -0.3845
 8597TIP3    H125755   0.764   4.359   3.233  2.4613 -0.5655  1.9997
 8597TIP3    H225756   0.672   4.465   3.290  1.7777 -0.1523  0.2140
 8598TIP3   OH225757   5.609   2.472   0.288 -0.1217  0.3566  0.2194
 8598TIP3    H125758   5.534   2.456   0.231  0.2598 -0.8511  0.0376
 8598TIP3    H225759   5.619   2.567   0.287  0.3664  0.3670 -2.3889
 8599TIP3   OH225760   3.411   0.739   0.652 -0.3866  0.4595 -0.2279
 8599TIP3    H125761   3.457   0.777   0.577 -0.7117  0.4137 -0.4526
 8599TIP3    H225762   3.355   0.672   0.614 -0.4891  0.3798  0.0665
 8600TIP3   OH225763   1.990   0.541   3.815 -0.5994 -0.3649 -0.0891
 8600TIP3    H125764   1.985   0.487   3.894 -0.1166 -0.1393  0.1012
 8600TIP3    H225765   1.899   0.563   3.796 -0.8954 -1.9983 -0.7187
 8601TIP3   OH225766   1.431   2.413   0.625 -0.3307  0.2346 -0.2224
 8601TIP3    H125767   1.500   2.383   0.566  0.3008  0.5443  0.3371
 8601TIP3    H225768   1.478   2.457   0.696 -1.1603  1.4900 -0.4081
 8602TIP3   OH225769   3.168   2.787   5.363  0.7306  0.1928  0.0292
 8602TIP3    H125770   3.123   2.853   5.414 -0.7930 -1.4081  0.8857
 8602TIP3    H225771   3.109   2.769   5.289  1.4254  0.2384 -0.5529
 8603TIP3   OH225772   6.316   0.914   3.681 -0.0653  0.2028 -0.1420
 8603TIP3    H125773   6.297   0.967   3.603 -2.1918  1.4784  1.1460
 8603TIP3    H225774   6.240   0.927   3.737 -0.4659 -3.8599  0.5184
 8604TIP3   OH225775   6.020   2.413   0.990 -0.1867  0.1156 -0.5262
 8604TIP3    H125776   5.932   2.414   1.029  0.0137 -0.6937 -0.0200
 8604TIP3    H225777   6.054   2.501   1.005 -0.7227  0.2849 -0.2811
 8605TIP3   OH225778   3.025   5.504   1.886 -0.1637  0.2084 -0.0385
 8605TIP3    H125779   3.064   5.516   1.973 -2.5612  0.0175  1.1712
 8605TIP3    H225780   3.026   5.591   1.847 -1.8185  1.0211  1.5281
 8606TIP3   OH225781   3.518   2.453   1.733  0.0686 -0.0820  0.0667
 8606TIP3    H125782   3.535   2.517   1.802  1.9546  0.1770 -0.5802
 8606TIP3    H225783   3.450   2.397   1.769  0.5709  0.4096  1.9092
 8607TIP3   OH225784   7.185   6.575   4.262 -0.6317 -0.1051  0.0775
 8607TIP3    H125785   7.170   6.655   4.210 -1.3387  0.4047  1.0420
 8607TIP3    H225786   7.098   6.540   4.278 -0.5517  0.5152  2.0853
 8608TIP3   OH225787   1.554   0.363   2.175 -0.5827 -0.8881  0.7059
 8608TIP3    H125788   1.525   0.416   2.250 -1.6352 -0.6007  0.1151
 8608TIP3    H225789   1.636   0.405   2.147 -0.0966 -1.0889  1.7765
 8609TIP3   OH225790   2.671   3.691   0.140  0.1849 -0.1238 -0.3410
 8609TIP3    H125791   2.609   3.688   0.213  0.9234 -0.1420  0.2922
 8609TIP3    H225792   2.744   3.743   0.172  1.7193 -2.2925 -0.1257
 8610TIP3   OH225793   3.169   3.054   4.147  0.0721  0.0908  0.1193
 8610TIP3    H125794   3.100   2.995   4.177 -2.4171  1.9257 -1.5264
 8610TIP3    H225795   3.122   3.135   4.125  2.5134  0.9117 -2.6445
 8611TIP3   OH225796   6.927   1.964   5.488  0.3889 -0.1157  0.1490
 8611TIP3    H125797   6.958   2.021   5.417  1.2966 -0.9732 -0.1610
 8611TIP3    H225798   6.890   2.024   5.552  0.9166  0.7912 -0.3737
 8612TIP3   OH225799   1.499   3.802   5.408 -0.0912  0.0439  0.3771
 8612TIP3    H125800   1.457   3.787   5.323 -1.2021  0.0933  0.8999
 8612TIP3    H225801   1.448   3.873   5.448 -0.4092 -0.8358  1.6139
 8613TIP3   OH225802   2.634   5.864   4.531 -0.0592 -0.2594 -0.0893
 8613TIP3    H125803   2.559   5.876   4.472  0.1474  0.1227 -0.2762
 8613TIP3    H225804   2.701   5.823   4.477 -0.0674 -0.4310  0.0304
 8614TIP3   OH225805   3.745   5.901   0.412 -0.2883  0.1158  0.8656
 8614TIP3    H125806   3.696   5.918   0.331  0.6473 -0.9891  0.0289
 8614TIP3    H225807   3.681   5.914   0.482 -1.6390 -0.7286 -0.1598
 8615TIP3   OH225808   0.182   0.883   3.027  0.2408 -0.0671 -0.1887
 8615TIP3    H125809   0.102   0.933   3.013  0.1930  0.0974  0.6115
 8615TIP3    H225810   0.182   0.865   3.121  1.2875  0.1837 -0.1304
 8616TIP3   OH225811   2.269   0.705   1.021  0.4756 -0.0468  0.6411
 8616TIP3    H125812   2.192   0.703   1.077 -1.8812 -0.8035 -2.3684
 8616TIP3    H225813   2.298   0.614   1.016 -0.4397 -0.2808 -0.7273
 8617TIP3   OH225814   6.169   5.950   1.125 -0.5190 -0.1396  0.7000
 8617TIP3    H125815   6.114   5.923   1.199 -2.4383  0.9233 -0.2497
 8617TIP3    H225816   6.107   5.968   1.055  0.8855  2.8477  0.0778
 8618TIP3   OH225817   3.673   6.608   0.939  0.1298  0.1314 -0.1780
 8618TIP3    H125818   3.719   6.551   1.000 -1.1325 -0.2355  0.4724
 8618TIP3    H225819   3.600   6.644   0.990 -0.9601 -0.1811 -1.4644
 8619TIP3   OH225820   4.635   6.064   3.253 -0.5196 -0.2099 -0.2090
 8619TIP3    H125821   4.597   6.050   3.340  0.4075 -1.9921 -0.0244
 8619TIP3    H225822   4.571   6.028   3.192  0.0828 -1.6898 -0.0148
 8620TIP3   OH225823   4.925   6.443   4.316  0.0090 -0.8760  0.3424
 8620TIP3    H125824   4.972   6.509   4.366  0.9252  0.5824 -2.2501
 8620TIP3    H225825   4.991   6.377   4.294 -0.0623 -0.8410  0.0083
 8621TIP3   OH225826   4.282   0.200   5.519  0.1538  0.0411 -0.4638
 8621TIP3    H125827   4.277   0.131   5.585  2.1959  0.4982  0.2479
 8621TIP3    H225828   4.335   0.163   5.449  0.5084  0.5465 -0.4748
 8622TIP3   OH225829   6.788   4.633   4.438  0.1784 -0.8119 -0.0350
 8622TIP3    H125830   6.847   4.665   4.370  0.5732  0.1843  0.7482
 8622TIP3    H225831   6.843   4.623   4.515 -0.8192  1.2259  1.0337
 8623TIP3   OH225832   6.470   1.463   3.827 -0.1560 -0.4167 -0.6463
 8623TIP3    H125833   6.411   1.405   3.877  0.6281 -2.0682 -1.5595
 8623TIP3    H225834   6.411   1.514   3.772 -0.8329 -0.9794 -0.4666
 8624TIP3   OH225835   2.675   2.836   0.287  0.4632 -0.1027  0.3251
 8624TIP3    H125836   2.746   2.894   0.314 -0.0245  0.4883  0.3441
 8624TIP3    H225837   2.688   2.757   0.340 -0.8020  1.2278  2.8159
 8625TIP3   OH225838   4.310   2.528   5.876 -0.0954  0.3050 -0.3477
 8625TIP3    H125839   4.330   2.438   5.902 -2.4829 -0.0782  0.3579
 8625TIP3    H225840   4.327   2.529   5.782 -3.3169 -1.9876 -1.1167
 8626TIP3   OH225841   0.248   6.511   1.758 -0.3706  0.3441  0.2291
 8626TIP3    H125842   0.181   6.449   1.786  1.4820 -1.7955  0.2056
 8626TIP3    H225843   0.290   6.538   1.840  0.7410 -0.7835  0.0620
 8627TIP3   OH225844   0.550   1.298   2.182  0.2210  0.7458 -0.4517
 8627TIP3    H125845   0.571   1.289   2.090  0.7158 -4.9860 -0.1480
 8627TIP3    H225846   0.455   1.284   2.186  0.3984 -0.5091 -0.0987
 8628TIP3   OH225847   0.303   6.261   2.702  0.7142 -0.0496  0.5393
 8628TIP3    H125848   0.294   6.326   2.772  2.4818 -0.3270  1.0542
 8628TIP3    H225849   0.388   6.280   2.662  1.0460 -1.7439  0.3968
 8629TIP3   OH225850   0.378   3.150   2.308 -0.2971 -0.1929  0.6047
 8629TIP3    H125851   0.402   3.082   2.245 -0.4992  0.2403  0.0466
 8629TIP3    H225852   0.447   3.147   2.374 -0.2508 -0.8663  0.5329
 8630TIP3   OH225853   3.306   5.874   0.938 -0.3498  0.3780  0.0133
 8630TIP3    H125854   3.372   5.939   0.914 -0.6274  0.9682  0.8043
 8630TIP3    H225855   3.341   5.833   1.017 -0.9403  0.7331  0.4698
 8631TIP3   OH225856   1.730   3.569   1.059 -0.1222  0.2069  0.0459
 8631TIP3    H125857   1.811   3.619   1.045 -1.0742  1.1932 -2.5599
 8631TIP3    H225858   1.661   3.626   1.025 -1.8711 -0.8907  1.6034
 8632TIP3   OH225859   1.875   4.339   2.464  0.0670 -0.5610 -0.0311
 8632TIP3    H125860   1.894   4.258   2.416  2.0702 -0.6324  0.7518
 8632TIP3    H225861   1.807   4.382   2.414 -0.3918 -2.2962 -0.9781
 8633TIP3   OH225862   6.197   3.581   4.447  0.1760 -0.2665 -0.4510
 8633TIP3    H125863   6.251   3.609   4.521 -0.6659  0.7175 -0.1784
 8633TIP3    H225864   6.257   3.575   4.373  0.9034 -0.5755  0.1546
 8634TIP3   OH225865   6.576   2.376   0.260  0.0171 -0.4567  0.0284
 8634TIP3    H125866   6.519   2.300   0.258 -0.5278 -0.0402 -0.3392
 8634TIP3    H225867   6.522   2.448   0.230  0.8495 -0.1296 -0.7322
 8635TIP3   OH225868   0.790   5.690   1.210 -0.2416 -0.0660  0.0730
 8635TIP3    H125869   0.733   5.632   1.160  0.4211 -1.6688  1.0827
 8635TIP3    H225870   0.773   5.777   1.175 -1.8618 -0.7569 -0.9642
 8636TIP3   OH225871   4.808   0.696   4.232  0.1504  0.4838 -0.1454
 8636TIP3    H125872   4.861   0.733   4.162  2.4569 -0.0274  1.2220
 8636TIP3    H225873   4.796   0.768   4.293 -1.2072  0.7257 -0.6686
 8637TIP3   OH225874   3.309   4.716   5.447 -0.4968  0.1894 -0.1086
 8637TIP3    H125875   3.340   4.805   5.464 -0.6887  0.9931 -3.2896
 8637TIP3    H225876   3.259   4.724   5.366 -0.0254 -2.9458 -0.8160
 8638TIP3   OH225877   2.114   6.196   1.322  0.2653  0.3235 -0.2066
 8638TIP3    H125878   2.190   6.210   1.265  1.1020 -1.4725  0.3664
 8638TIP3    H225879   2.056   6.269   1.303  1.2287  0.6636 -2.1730
 8639TIP3   OH225880   6.330   6.124   5.702 -0.5958  0.3480  0.3638
 8639TIP3    H125881   6.418   6.121   5.665 -1.1093 -0.5444 -0.8216
 8639TIP3    H225882   6.345   6.116   5.797  0.7452  2.9560  0.4753
 8640TIP3   OH225883   1.327   1.271   4.727  0.4064 -0.0784  0.1765
 8640TIP3    H125884   1.375   1.286   4.646 -1.0311 -2.2387 -1.1650
 8640TIP3    H225885   1.251   1.330   4.721  0.5605  0.1242  0.2013
 8641TIP3   OH225886   1.471   3.763   2.882 -0.2256 -0.4066  0.1235
 8641TIP3    H125887   1.416   3.820   2.828 -1.3772  0.4551  2.1101
 8641TIP3    H225888   1.555   3.808   2.885 -0.6557  0.4234  0.3815
 8642TIP3   OH225889   2.430   1.354   1.414  0.8469 -0.1696  0.5048
 8642TIP3    H125890   2.437   1.313   1.328  1.2359 -0.0392  0.4693
 8642TIP3    H225891   2.376   1.294   1.466 -1.8649  1.1281 -0.6462
 8643TIP3   OH225892   2.865   0.373   2.975  0.2849 -0.1311 -0.0998
 8643TIP3    H125893   2.774   0.403   2.968  0.6737  1.1015 -0.0089
 8643TIP3    H225894   2.866   0.318   3.054 -0.3468 -0.0633 -0.0415
 8644TIP3   OH225895   3.360   0.733   3.336  0.0299 -0.6533  0.4645
 8644TIP3    H125896   3.417   0.658   3.352  1.4193  0.0766 -0.8057
 8644TIP3    H225897   3.316   0.712   3.254  0.2034 -0.2178  0.2557
 8645TIP3   OH225898   6.801   3.791   5.342  0.4925  0.2665  0.0371
 8645TIP3    H125899   6.841   3.713   5.380 -0.8231 -0.0332  0.8797
 8645TIP3    H225900   6.733   3.816   5.405 -0.6118  0.7516 -1.2919
 8646TIP3   OH225901   2.376   0.125   2.275 -0.2227 -0.2085 -0.0172
 8646TIP3    H125902   2.460   0.080   2.284  0.8947  1.7883  0.1903
 8646TIP3    H225903   2.313   0.055   2.255  1.0912 -2.0270  1.7918
 8647TIP3   OH225904   2.033   1.901   1.558 -0.0148 -0.2672  0.3623
 8647TIP3    H125905   1.978   1.979   1.568 -0.6929 -0.8860  1.5473
 8647TIP3    H225906   2.029   1.857   1.642  1.1058 -1.1207 -0.0066
 8648TIP3   OH225907   5.146   1.278   1.330 -0.0450  0.3173  0.1448
 8648TIP3    H125908   5.200   1.275   1.409  1.0665  0.4834 -0.5875
 8648TIP3    H225909   5.194   1.224   1.267 -0.1378  1.3817 -0.8738
 8649TIP3   OH225910   5.583   1.235   0.936 -0.0201 -0.0815 -0.1969
 8649TIP3    H125911   5.645   1.241   1.009 -0.6266  0.2119  0.3055
 8649TIP3    H225912   5.584   1.143   0.911 -0.2660 -0.3099  0.6016
 8650TIP3   OH225913   5.312   0.561   3.842  0.0039  0.2547  0.3616
 8650TIP3    H125914   5.340   0.597   3.926  1.5965 -0.1312  0.0277
 8650TIP3    H225915   5.393   0.529   3.801 -0.2202  2.9972 -2.5968
 8651TIP3   OH225916   0.948   2.259   3.550  0.0429 -0.2947 -0.2408
 8651TIP3    H125917   0.876   2.247   3.488 -0.8481  0.7505  0.5584
 8651TIP3    H225918   0.958   2.354   3.557  0.9018 -0.4170  0.3524
 8652TIP3   OH225919   0.054   0.098   0.644  0.0549  0.1045  0.2227
 8652TIP3    H125920   0.004   0.016   0.648 -1.0647  0.4799 -3.0595
 8652TIP3    H225921   0.145   0.071   0.656 -0.5029 -1.1693  2.0316
 8653TIP3   OH225922   6.105   1.796   1.166 -0.0723 -0.0857 -0.0503
 8653TIP3    H125923   6.181   1.821   1.112  1.2562 -3.5080 -0.0050
 8653TIP3    H225924   6.046   1.753   1.104 -1.0223  0.6945  0.3045
 8654TIP3   OH225925   6.553   4.023   1.364 -0.2228  0.3782 -0.4812
 8654TIP3    H125926   6.466   4.060   1.351 -0.4480  0.4822  1.0969
 8654TIP3    H225927   6.579   4.054   1.451  0.2616 -1.8093  0.2130
 8655TIP3   OH225928   1.646   4.332   4.025 -0.0519  0.4465  0.5048
 8655TIP3    H125929   1.567   4.380   4.000 -0.7827 -0.9331  0.0977
 8655TIP3    H225930   1.623   4.240   4.017  2.4432 -0.0829 -2.4224
 8656TIP3   OH225931   6.413   3.557   4.263  0.4917 -0.0785 -0.2650
 8656TIP3    H125932   6.373   3.482   4.219 -0.2314 -0.7734  1.4910
 8656TIP3    H225933   6.496   3.524   4.296  0.5365  0.1354 -0.1623
 8657TIP3   OH225934   2.541   3.175   2.197 -0.6886  0.4555  0.7917
 8657TIP3    H125935   2.625   3.192   2.241  0.3139  1.3725 -1.3510
 8657TIP3    H225936   2.498   3.111   2.254  0.7539  1.1330  2.7873
 8658TIP3   OH225937   1.715   5.810   1.705 -0.4702  0.1428 -0.2831
 8658TIP3    H125938   1.671   5.801   1.789  2.2283  1.5667  1.4009
 8658TIP3    H225939   1.650   5.853   1.648 -2.0185  0.0022  1.2871
 8659TIP3   OH225940   3.937   6.605   4.299  0.1578 -0.3440  0.0081
 8659TIP3    H125941   3.950   6.571   4.211  0.1401 -1.3990  0.4050
 8659TIP3    H225942   3.897   6.533   4.348 -0.1206  0.3257  0.8009
 8660TIP3   OH225943   4.926   0.713   4.809 -0.4689  0.2114  0.0447
 8660TIP3    H125944   4.950   0.634   4.857 -0.1695 -0.2676 -0.8586
 8660TIP3    H225945   5.000   0.728   4.750 -0.8631  0.7296 -0.3260
 8661TIP3   OH225946   3.541   1.115   0.327  0.3890 -0.6284 -0.3125
 8661TIP3    H125947   3.547   1.091   0.234  0.6280 -1.3608 -0.1098
 8661TIP3    H225948   3.461   1.168   0.333  0.4591 -0.4418 -0.9625
 8662TIP3   OH225949   4.878   6.103   0.424  0.1181 -0.1156 -0.1842
 8662TIP3    H125950   4.973   6.087   0.426 -0.1728 -2.0890  1.4975
 8662TIP3    H225951   4.851   6.075   0.336  0.8892 -1.0812 -0.1319
 8663TIP3   OH225952   0.592   2.760   2.053 -0.1647 -0.7531  0.9167
 8663TIP3    H125953   0.630   2.847   2.066 -1.5184  0.2505 -1.2502
 8663TIP3    H225954   0.662   2.710   2.011 -0.2638  0.2286 -0.5059
 8664TIP3   OH225955   3.115   4.208   5.307  0.2678  0.4870 -0.0178
 8664TIP3    H125956   3.057   4.133   5.296  0.3689  0.6357 -2.1305
 8664TIP3    H225957   3.148   4.201   5.396 -0.5153 -1.3972  0.1721
 8665TIP3   OH225958   6.638   0.864   1.403  0.4977 -0.3803  0.2274
 8665TIP3    H125959   6.597   0.915   1.473 -1.2157 -0.0593 -0.9647
 8665TIP3    H225960   6.641   0.774   1.437 -0.3092 -0.2285  0.7110
 8666TIP3   OH225961   6.970   5.833   0.509  0.3026  0.3316 -0.0863
 8666TIP3    H125962   6.892   5.815   0.456  0.0680  0.5367  0.1869
 8666TIP3    H225963   6.936   5.846   0.598  0.4403  2.2200 -0.2692
 8667TIP3   OH225964   1.665   6.396   1.297  0.0523  0.3307 -0.0431
 8667TIP3    H125965   1.600   6.445   1.247  2.2684  0.5225 -2.9528
 8667TIP3    H225966   1.704   6.461   1.356 -0.9747  0.6485  0.3177
 8668TIP3   OH225967   2.826   2.982   3.651 -0.1669 -0.3399  0.1604
 8668TIP3    H125968   2.787   2.953   3.734 -2.5986  0.0230 -0.7658
 8668TIP3    H225969   2.832   2.903   3.598  0.3859 -0.3995  0.3132
 8669TIP3   OH225970   0.994   5.559   2.104 -0.2437  0.0635  0.5435
 8669TIP3    H125971   0.900   5.574   2.114 -0.4178  0.6828 -1.5174
 8669TIP3    H225972   1.031   5.578   2.191 -1.8048  1.6715  0.9153
 8670TIP3   OH225973   0.496   0.637   2.145  0.0116  0.1089 -0.0861
 8670TIP3    H125974   0.530   0.726   2.136 -1.7111  0.8145  0.0301
 8670TIP3    H225975   0.572   0.584   2.169  1.3235  1.3071 -1.4247
 8671TIP3   OH225976   5.295   5.900   0.192  0.1320 -0.4144 -0.0777
 8671TIP3    H125977   5.231   5.874   0.258 -0.5039  1.3122  0.0346
 8671TIP3    H225978   5.357   5.827   0.190 -2.7561 -3.0559 -1.5448
 8672TIP3   OH225979  -0.026   2.469   2.508 -0.1457  0.1068 -0.0937
 8672TIP3    H125980  -0.014   2.503   2.419  0.6803 -1.0358 -0.4515
 8672TIP3    H225981   0.063   2.466   2.544 -0.2384 -1.2410  0.0685
 8673TIP3   OH225982   6.367   3.448   1.634 -0.3290  0.3645  0.0598
 8673TIP3    H125983   6.417   3.475   1.711  0.9929  0.9087 -0.9435
 8673TIP3    H225984   6.341   3.358   1.652  2.6691 -0.6278 -0.1388
 8674TIP3   OH225985   5.007   5.421   1.592  0.6736  0.0879  0.9509
 8674TIP3    H125986   5.040   5.369   1.519  1.9701  0.4546  1.2636
 8674TIP3    H225987   4.912   5.413   1.585  0.7894 -0.3388 -0.4395
 8675TIP3   OH225988   5.390   1.686   0.777 -0.0227 -0.0370  0.2557
 8675TIP3    H125989   5.391   1.763   0.834  0.4933  0.7034 -0.7257
 8675TIP3    H225990   5.461   1.631   0.810  0.9886  0.8872 -0.3139
 8676TIP3   OH225991   2.237   1.924   1.822 -0.1977 -0.2354 -0.8973
 8676TIP3    H125992   2.237   1.843   1.772 -0.9074 -0.1938 -0.9724
 8676TIP3    H225993   2.320   1.923   1.870 -0.0677 -0.8539 -1.1311
 8677TIP3   OH225994   5.490   0.199   4.814  0.1310 -0.1783 -0.1670
 8677TIP3    H125995   5.579   0.181   4.784  0.2815  1.3654 -0.7064
 8677TIP3    H225996   5.494   0.286   4.852 -0.7999 -0.7728  1.3592
 8678TIP3   OH225997   3.914   3.847   0.318 -0.0568  0.0352  0.7242
 8678TIP3    H125998   3.962   3.909   0.262  1.2338  0.0278  1.7906
 8678TIP3    H225999   3.977   3.777   0.336 -0.6583 -0.2797  1.6637
 8679TIP3   OH226000   6.155   0.231   0.629  0.3279 -0.7246  0.3157
 8679TIP3    H126001   6.160   0.138   0.652 -0.2858 -0.5831  1.0287
 8679TIP3    H226002   6.212   0.274   0.692  1.8449 -0.7570 -0.9611
 8680TIP3   OH226003   5.020   4.813   0.415 -0.5907  0.0080  0.0671
 8680TIP3    H126004   5.071   4.874   0.361 -1.7638  0.0869 -1.0118
 8680TIP3    H226005   4.967   4.869   0.471 -0.8733 -0.0353 -0.1551
 8681TIP3   OH226006   6.632   6.123   5.719 -0.2207 -0.7446 -0.5361
 8681TIP3    H126007   6.656   6.187   5.786 -2.7556 -0.9998  0.7382
 8681TIP3    H226008   6.660   6.039   5.755 -2.9660 -1.0711  1.0545
 8682TIP3   OH226009   4.976   3.986   2.786  0.3649  0.0440  0.1189
 8682TIP3    H126010   4.903   4.034   2.826  0.5577 -0.3829  1.0079
 8682TIP3    H226011   4.934   3.921   2.730  0.0489 -0.5161  0.9977
 8683TIP3   OH226012   0.353   4.650   2.410  0.4550 -0.1190 -0.1715
 8683TIP3    H126013   0.316   4.562   2.421  0.1168 -0.1122 -1.1689
 8683TIP3    H226014   0.306   4.704   2.473  1.1631 -0.7835  0.9558
 8684TIP3   OH226015   3.990   5.676   2.342 -0.1660 -0.6091  0.6545
 8684TIP3    H126016   4.037   5.757   2.363  1.1350 -1.3117  0.5257
 8684TIP3    H226017   4.057   5.608   2.344 -1.2516 -1.7085  0.8296
 8685TIP3   OH226018   7.040   6.183   4.805  0.0120 -0.2850 -0.5710
 8685TIP3    H126019   6.954   6.191   4.846  0.5936 -0.1002  0.6386
 8685TIP3    H226020   7.021   6.174   4.711 -1.3725 -1.4014 -0.2142
 8686TIP3   OH226021   0.853   6.060   1.676  0.0562  1.0100 -0.7165
 8686TIP3    H126022   0.849   6.114   1.755  0.0609 -0.3678  0.2641
 8686TIP3    H226023   0.940   6.021   1.678 -0.2035  0.3981 -1.0154
 8687TIP3   OH226024   1.164   5.946   4.230  0.3225  0.0530 -0.4029
 8687TIP3    H126025   1.150   5.913   4.319  2.5976 -2.9153 -0.9547
 8687TIP3    H226026   1.253   5.982   4.231 -0.6784  2.7832 -0.8648
 8688TIP3   OH226027   0.121   6.609   5.410 -0.6214  0.1085  0.0738
 8688TIP3    H126028   0.106   6.570   5.324 -0.8551 -1.2704  0.7121
 8688TIP3    H226029   0.215   6.623   5.414 -0.6312  0.3520 -0.4729
 8689TIP3   OH226030   5.512   4.610   4.779  0.0069 -0.2168 -0.2915
 8689TIP3    H126031   5.561   4.573   4.706 -0.8727 -0.6358 -0.6835
 8689TIP3    H226032   5.440   4.658   4.738 -0.5945 -0.6031  0.3014
 8690TIP3   OH226033   4.345   1.636   1.903  0.2805 -0.3573  0.3628
 8690TIP3    H126034   4.320   1.553   1.864  2.1733 -0.6138 -0.4153
 8690TIP3    H226035   4.262   1.678   1.925 -0.7431 -1.9116 -0.3494
 8691TIP3   OH226036   0.883   0.929   4.530 -0.3977  0.2298  0.3970
 8691TIP3    H126037   0.917   0.909   4.617 -0.3716  2.0658  0.8385
 8691TIP3    H226038   0.826   1.004   4.543  0.8622  1.5864 -1.3933
 8692TIP3   OH226039   6.739   0.643   3.545 -0.2223  0.1058 -0.0256
 8692TIP3    H126040   6.784   0.602   3.471 -0.1201 -1.0374  0.6400
 8692TIP3    H226041   6.785   0.725   3.559 -0.1947  0.3066 -1.1806
 8693TIP3   OH226042   1.570   0.037   2.384  0.3608  0.0807  0.1242
 8693TIP3    H126043   1.612   0.123   2.384  0.8606 -0.0830  2.3525
 8693TIP3    H226044   1.642  -0.025   2.377  0.1514 -0.1711  0.1703
 8694TIP3   OH226045   1.320   0.342   5.463 -0.2337  0.0162 -0.2451
 8694TIP3    H126046   1.408   0.304   5.454 -0.6573 -0.7121 -1.6426
 8694TIP3    H226047   1.299   0.331   5.556  0.2176 -2.0027 -0.3279
 8695TIP3   OH226048   0.023   2.780   4.421  0.5660 -0.2575  0.0191
 8695TIP3    H126049  -0.048   2.716   4.425  1.1016 -0.8705 -0.1015
 8695TIP3    H226050   0.089   2.746   4.482  0.7824  0.2721  0.0850
 8696TIP3   OH226051   4.027   5.385   2.874 -0.5690  0.2815 -0.2241
 8696TIP3    H126052   4.006   5.387   2.781 -2.2297  1.9740  0.1409
 8696TIP3    H226053   3.989   5.303   2.905 -2.3317  0.9188 -0.5741
 8697TIP3   OH226054   3.500   2.692   4.963 -0.3234 -0.2026  0.4851
 8697TIP3    H126055   3.581   2.742   4.972  0.0242 -0.1359 -2.1190
 8697TIP3    H226056   3.440   2.729   5.027  0.5938  2.1489  0.0644
 8698TIP3   OH226057   2.277   6.207   3.885 -0.0429 -0.3160  0.0029
 8698TIP3    H126058   2.298   6.232   3.795  2.1727 -0.2109  0.4746
 8698TIP3    H226059   2.253   6.115   3.880  2.5243 -1.0272 -0.4566
 8699TIP3   OH226060   5.770   6.468   4.874 -0.3364 -0.6546  0.2225
 8699TIP3    H126061   5.802   6.401   4.814 -0.0962 -0.2338 -0.1231
 8699TIP3    H226062   5.675   6.463   4.868 -0.3450 -1.6171  0.9272
 8700TIP3   OH226063   1.829   5.860   0.469  0.2972  0.6915 -0.2389
 8700TIP3    H126064   1.854   5.854   0.377 -3.4561  1.0941 -1.4595
 8700TIP3    H226065   1.857   5.947   0.496 -0.4832  1.4702 -1.7566
 8701TIP3   OH226066   0.669   5.487   4.144  0.7412 -0.6159 -0.1901
 8701TIP3    H126067   0.732   5.454   4.208  1.3955  0.4047 -0.2803
 8701TIP3    H226068   0.650   5.577   4.173  0.2861 -0.4855 -0.8611
 8702TIP3   OH226069   5.373   6.306   2.646 -0.0792  0.3379 -0.6108
 8702TIP3    H126070   5.376   6.235   2.710 -1.0073 -0.3450 -1.2897
 8702TIP3    H226071   5.310   6.368   2.681 -2.4542 -1.1679 -1.8974
 8703TIP3   OH226072   1.585   5.359   5.175 -0.1161 -0.1268 -0.6802
 8703TIP3    H126073   1.558   5.311   5.097 -0.9314 -0.5725 -0.1377
 8703TIP3    H226074   1.504   5.370   5.226  0.4374 -0.0257  0.2055
 8704TIP3   OH226075   6.555   6.225   3.809  0.4941  0.3730  0.2897
 8704TIP3    H126076   6.554   6.283   3.733  0.3549  0.0071  0.0093
 8704TIP3    H226077   6.475   6.248   3.857  0.0619 -0.0817 -0.2014
 8705TIP3   OH226078   0.228   3.429   0.804 -0.0518 -0.3158  0.0376
 8705TIP3    H126079   0.276   3.496   0.853 -1.9907  0.8854  0.4092
 8705TIP3    H226080   0.288   3.355   0.799  1.4018  0.7092  1.4220
 8706TIP3   OH226081   4.633   0.873   1.650 -0.3293  0.3195  0.0814
 8706TIP3    H126082   4.555   0.929   1.656 -1.7917 -1.6444  0.4616
 8706TIP3    H226083   4.638   0.830   1.735  0.0489 -1.0066 -0.5873
 8707TIP3   OH226084   2.544   1.223   0.234  0.2598  0.0109 -0.2290
 8707TIP3    H126085   2.595   1.156   0.279 -1.6831 -0.9513  0.6842
 8707TIP3    H226086   2.469   1.175   0.197 -1.6820  1.7550  1.2447
 8708TIP3   OH226087   0.842   6.829   2.016 -0.0233 -0.0651  0.0295
 8708TIP3    H126088   0.747   6.816   2.011 -0.0803 -2.7141  3.5211
 8708TIP3    H226089   0.879   6.756   1.967  0.2555  0.8020 -1.0845
 8709TIP3   OH226090   2.167   5.535   2.355 -0.0161  0.2278 -0.5828
 8709TIP3    H126091   2.198   5.448   2.381 -0.8594  0.6009  1.9697
 8709TIP3    H226092   2.159   5.531   2.260  0.2156 -2.4034 -0.5481
 8710TIP3   OH226093   4.352   2.804   4.170  0.5106  0.1366 -0.0138
 8710TIP3    H126094   4.303   2.765   4.097 -1.6235  0.4042  1.2118
 8710TIP3    H226095   4.400   2.731   4.208  0.4671 -0.3009 -0.7648
 8711TIP3   OH226096   5.278   0.148   3.816 -0.7411  0.1108  0.0765
 8711TIP3    H126097   5.339   0.089   3.860 -1.8058 -1.3337 -0.3362
 8711TIP3    H226098   5.313   0.158   3.727 -0.0361  0.9062  0.4301
 8712TIP3   OH226099   1.657   4.750   2.068 -0.2839 -0.2549 -0.0643
 8712TIP3    H126100   1.747   4.758   2.038 -0.2106  2.9749  0.6039
 8712TIP3    H226101   1.604   4.748   1.989  0.2824  0.2704 -0.4614
 8713TIP3   OH226102   1.336   3.907   5.692 -0.3557 -0.4608 -0.0175
 8713TIP3    H126103   1.343   3.818   5.656 -1.4377 -0.2422 -0.8537
 8713TIP3    H226104   1.242   3.925   5.691 -0.1541  0.6758  0.1895
 8714TIP3   OH226105   1.193   4.600   5.792 -0.4451 -0.0843 -0.0407
 8714TIP3    H126106   1.129   4.528   5.793 -1.5022  0.8167 -0.0501
 8714TIP3    H226107   1.200   4.626   5.700  0.1667 -0.3699 -0.0777
 8715TIP3   OH226108   4.393   5.715   4.372  0.2405 -0.7074  0.1774
 8715TIP3    H126109   4.337   5.774   4.423 -2.6046 -0.4132 -2.9345
 8715TIP3    H226110   4.332   5.654   4.331  2.6841 -3.0219 -0.2859
 8716TIP3   OH226111   4.032   3.482   4.501  0.5846  0.3917 -0.1946
 8716TIP3    H126112   4.023   3.542   4.575  0.1414 -0.3105  0.3363
 8716TIP3    H226113   4.105   3.516   4.450 -0.4649  2.1226 -0.6135
 8717TIP3   OH226114   5.363   6.206   4.876 -0.6189  0.1454  0.4751
 8717TIP3    H126115   5.367   6.137   4.810  0.4132  0.4105  0.2470
 8717TIP3    H226116   5.452   6.211   4.910 -1.4556 -1.2593  3.2182
 8718TIP3   OH226117   3.257   4.881   3.591 -0.1686 -0.1042  0.0243
 8718TIP3    H126118   3.245   4.902   3.684  2.4280  0.3204  0.3438
 8718TIP3    H226119   3.289   4.963   3.552 -0.5517 -0.4718 -1.1150
 8719TIP3   OH226120   6.402   4.813   3.654  0.1658  0.5764 -0.1547
 8719TIP3    H126121   6.325   4.864   3.682  2.1297  2.9157  1.3825
 8719TIP3    H226122   6.442   4.784   3.735  0.5464 -1.2862 -0.9639
 8720TIP3   OH226123   6.040   4.136   1.580 -0.0579  0.3508 -0.1657
 8720TIP3    H126124   6.022   4.209   1.521 -1.2920  0.5250  0.3969
 8720TIP3    H226125   5.961   4.082   1.576  0.1695 -0.0611  0.7074
 8721TIP3   OH226126   5.828   0.727   2.219  0.8763 -0.5155  0.4922
 8721TIP3    H126127   5.808   0.749   2.310 -0.7230 -0.9315  0.2831
 8721TIP3    H226128   5.771   0.784   2.168  1.5872 -0.4556 -0.2553
 8722TIP3   OH226129   2.108   3.217   1.710 -0.1328  0.1442  0.0201
 8722TIP3    H126130   2.202   3.203   1.699 -0.2836  0.1505 -1.4218
 8722TIP3    H226131   2.102   3.300   1.758  0.6001 -0.8593  2.0027
 8723TIP3   OH226132   4.153   5.239   0.556 -0.3864  0.3119  1.1307
 8723TIP3    H126133   4.191   5.170   0.611  0.0597 -1.8473 -1.6765
 8723TIP3    H226134   4.065   5.207   0.536 -0.8592  1.4978  1.2504
 8724TIP3   OH226135   5.793   2.885   5.751  0.0056  0.7091 -0.2825
 8724TIP3    H126136   5.776   2.973   5.786 -0.1905  0.4413  0.3163
 8724TIP3    H226137   5.839   2.900   5.669  2.4246  1.3572  1.0899
 8725TIP3   OH226138   6.089   1.124   1.727 -0.0172 -0.1647 -0.4693
 8725TIP3    H126139   6.067   1.075   1.806 -0.9286 -0.8945 -1.1489
 8725TIP3    H226140   6.099   1.215   1.756  0.2347 -0.5130  0.5662
 8726TIP3   OH226141   1.863   5.153   3.658  0.3657 -0.0066 -0.3962
 8726TIP3    H126142   1.882   5.214   3.586 -1.8911  0.1347 -0.9307
 8726TIP3    H226143   1.776   5.177   3.688  0.4715 -1.3479  1.1075
 8727TIP3   OH226144   3.367   3.812   0.234  0.1587  0.4320 -0.3777
 8727TIP3    H126145   3.430   3.883   0.221 -1.1156  2.0112  1.4505
 8727TIP3    H226146   3.297   3.831   0.170 -0.1879  0.8733  0.1193
 8728TIP3   OH226147   2.347   2.919   5.877 -0.2637  0.2754 -0.3645
 8728TIP3    H126148   2.276   2.955   5.824 -1.2271  2.0832  1.9443
 8728TIP3    H226149   2.378   2.993   5.929  1.6623 -1.0248  0.4700
 8729TIP3   OH226150   3.194   3.817   1.773  0.1067  0.6488 -0.5989
 8729TIP3    H126151   3.269   3.764   1.799  0.1314  1.8456  2.1288
 8729TIP3    H226152   3.139   3.757   1.722  1.2050 -1.3125  0.4106
 8730TIP3   OH226153   2.626   0.083   0.360 -0.2910  0.6656  0.6480
 8730TIP3    H126154   2.716   0.072   0.390 -0.2021  1.5256  0.7157
 8730TIP3    H226155   2.622   0.036   0.277 -0.0259 -0.1180  1.0705
 8731TIP3   OH226156   5.163   2.976   3.344 -0.1580  0.7257  0.1674
 8731TIP3    H126157   5.169   2.883   3.321 -2.2433  0.1735  1.6218
 8731TIP3    H226158   5.174   2.977   3.439 -1.8896  1.7530  0.3793
 8732TIP3   OH226159   1.161   6.540   5.802 -0.2850  0.0602  0.3148
 8732TIP3    H126160   1.094   6.477   5.831  0.6712 -0.6693  0.9951
 8732TIP3    H226161   1.182   6.590   5.881  1.7663 -1.4084  0.7938
 8733TIP3   OH226162   0.065   5.286   5.853 -0.4507  0.2931  0.0741
 8733TIP3    H126163   0.127   5.337   5.905 -0.9082 -0.1721  1.0924
 8733TIP3    H226164   0.089   5.305   5.762  2.6292 -1.5309  0.3647
 8734TIP3   OH226165   3.728   3.662   1.931  0.8595 -0.2406  0.1013
 8734TIP3    H126166   3.819   3.635   1.947  0.8472 -0.4109 -0.1081
 8734TIP3    H226167   3.676   3.596   1.978  0.7849 -1.5482 -1.7201
 8735TIP3   OH226168   1.074   4.592   2.934  0.2427  0.1559  0.4297
 8735TIP3    H126169   1.151   4.648   2.948  0.3165  0.0746  0.3486
 8735TIP3    H226170   1.061   4.592   2.839  0.2975 -0.0394  0.4219
 8736TIP3   OH226171   0.262   3.656   3.135 -0.4868 -0.1205  0.3167
 8736TIP3    H126172   0.327   3.588   3.119  0.1545  0.5344  0.0633
 8736TIP3    H226173   0.266   3.671   3.230  1.1079  1.2209  0.0791
 8737TIP3   OH226174   6.885   0.124   2.058 -0.4335  0.9087 -0.0317
 8737TIP3    H126175   6.969   0.128   2.105 -0.1029  1.0343 -0.6284
 8737TIP3    H226176   6.820   0.151   2.123  0.0083  0.9732  0.3867
 8738TIP3   OH226177   5.645   0.055   4.490  0.4242 -0.5563 -0.3280
 8738TIP3    H126178   5.697  -0.009   4.441  1.3473  0.9708 -1.4352
 8738TIP3    H226179   5.708   0.124   4.512 -0.1143 -0.8711  2.5051
 8739TIP3   OH226180   3.745   3.468   3.192  0.1970 -0.0857  0.0375
 8739TIP3    H126181   3.698   3.441   3.271  1.0638 -0.1955  0.5236
 8739TIP3    H226182   3.783   3.553   3.214  2.7013 -1.2926  0.7352
 8740TIP3   OH226183   6.558   3.057   4.762  0.7116  0.0206  0.6996
 8740TIP3    H126184   6.475   3.011   4.746  0.4241  0.4110  1.0479
 8740TIP3    H226185   6.585   3.089   4.676 -1.0246  2.4611  0.9508
 8741TIP3   OH226186   2.331   5.927   3.836  0.4356 -0.2110 -0.8285
 8741TIP3    H126187   2.400   5.909   3.900 -0.9714  0.0952  0.8646
 8741TIP3    H226188   2.377   5.957   3.758  2.2328 -0.7292 -0.0106
 8742TIP3   OH226189   1.781   0.894   3.730 -0.0513  0.5959 -0.4395
 8742TIP3    H126190   1.869   0.913   3.697 -0.1205  1.4136 -0.1726
 8742TIP3    H226191   1.744   0.980   3.751 -1.4261  0.3893 -1.8261
 8743TIP3   OH226192   2.789   4.454   5.338  0.3366  0.3167  0.6283
 8743TIP3    H126193   2.856   4.475   5.273  1.0318  1.7971  1.7631
 8743TIP3    H226194   2.731   4.531   5.339 -0.1504 -0.0456  1.1556
 8744TIP3   OH226195   4.655   5.968   5.092  0.2697  0.3388 -0.2997
 8744TIP3    H126196   4.563   5.988   5.108 -0.0729 -1.3681  0.0801
 8744TIP3    H226197   4.654   5.885   5.044  1.6224 -0.3777  0.8336
 8745TIP3   OH226198   1.501   4.716   0.272 -0.1264  0.1839  0.0569
 8745TIP3    H126199   1.516   4.774   0.347 -1.4900 -0.5505  0.9353
 8745TIP3    H226200   1.569   4.740   0.210  1.1880  0.6751  1.6072
 8746TIP3   OH226201   2.587   1.298   4.635  0.4800  0.7931  0.6138
 8746TIP3    H126202   2.679   1.282   4.614  0.7367  1.5835  1.0650
 8746TIP3    H226203   2.578   1.270   4.726 -0.5296 -2.2485 -0.3161
 8747TIP3   OH226204   6.418   1.987   0.861  0.1769  0.5427  0.5996
 8747TIP3    H126205   6.386   2.050   0.796  0.2143 -0.4517 -0.4243
 8747TIP3    H226206   6.513   1.989   0.852  0.1884  0.5036  0.7167
 8748TIP3   OH226207   3.096   6.748   2.336  0.0848 -0.0161  0.6581
 8748TIP3    H126208   3.058   6.792   2.260 -1.4473 -1.7622  0.3485
 8748TIP3    H226209   3.190   6.750   2.320 -0.2287 -1.1326 -1.7816
 8749TIP3   OH226210   7.034   0.543   3.657  0.1291 -0.5836 -0.5015
 8749TIP3    H126211   7.055   0.524   3.565  1.0100 -0.3777 -0.3482
 8749TIP3    H226212   7.116   0.526   3.704  0.2210  1.1180 -0.0026
 8750TIP3   OH226213   1.588   4.831   3.414 -0.2880 -0.4497  0.4709
 8750TIP3    H126214   1.653   4.841   3.483  0.4064  0.1604 -0.2477
 8750TIP3    H226215   1.505   4.817   3.460  0.3168 -1.0637  1.4028
 8751TIP3   OH226216   3.709   3.029   0.022 -0.0421  0.3117  0.6113
 8751TIP3    H126217   3.698   3.120  -0.007  1.1719  0.9698  2.1103
 8751TIP3    H226218   3.804   3.016   0.025 -0.1700 -1.6860 -1.4964
 8752TIP3   OH226219   3.727   0.961   2.393 -0.3969  0.0162 -0.3801
 8752TIP3    H126220   3.775   1.036   2.427 -0.6546  0.9744 -2.0537
 8752TIP3    H226221   3.788   0.919   2.331 -1.3700  0.7646 -1.8981
 8753TIP3   OH226222   6.884   3.680   4.423 -0.6548  0.1047  0.0056
 8753TIP3    H126223   6.862   3.605   4.479  1.0619 -0.3221  0.1529
 8753TIP3    H226224   6.907   3.641   4.339  0.7563  0.3872  0.2328
 8754TIP3   OH226225   0.480   3.375   4.718  0.1114 -0.2178  0.7327
 8754TIP3    H126226   0.487   3.284   4.747 -2.2103 -0.6777 -0.0022
 8754TIP3    H226227   0.494   3.372   4.624 -0.2038  0.1518  0.6698
 8755TIP3   OH226228   4.751   5.282   4.226  0.4150  0.5478 -0.3227
 8755TIP3    H126229   4.726   5.372   4.206  1.8528  1.3102  1.0991
 8755TIP3    H226230   4.745   5.237   4.142 -3.0673  1.2201 -0.5827
 8756TIP3   OH226231   1.726   5.640   2.833 -0.2849 -0.4303 -0.2240
 8756TIP3    H126232   1.795   5.625   2.897  0.3306  1.7222 -0.3283
 8756TIP3    H226233   1.766   5.619   2.748 -1.3320 -4.0753 -0.0147
 8757TIP3   OH226234   5.644   4.696   0.213 -0.5353 -0.3880  0.4188
 8757TIP3    H126235   5.692   4.778   0.226 -2.2156  0.8610 -0.7998
 8757TIP3    H226236   5.672   4.665   0.127 -1.3888  0.0147 -0.0197
 8758TIP3   OH226237   5.277   4.704   2.454 -0.1836  0.2533 -0.3881
 8758TIP3    H126238   5.234   4.737   2.375 -1.5906  2.1934  1.0588
 8758TIP3    H226239   5.206   4.699   2.519 -0.1699 -5.8011 -0.2831
 8759TIP3   OH226240   3.649   4.268   0.333 -0.3275 -0.2755 -0.1485
 8759TIP3    H126241   3.706   4.196   0.360 -1.2792 -0.3377  1.8408
 8759TIP3    H226242   3.579   4.226   0.283 -0.5583 -0.6597  0.4941
 8760TIP3   OH226243   0.534   0.922   2.101 -0.7328  0.1227 -0.3082
 8760TIP3    H126244   0.548   0.930   2.006 -0.2043 -0.1523 -0.2584
 8760TIP3    H226245   0.616   0.955   2.139 -0.7335 -0.2713  0.0360
 8761TIP3   OH226246   2.285   0.928   4.599  0.6941  0.2009 -0.4876
 8761TIP3    H126247   2.248   0.940   4.687  0.2528 -0.1843 -0.6163
 8761TIP3    H226248   2.300   1.017   4.568 -0.8639  0.4098 -0.7233
 8762TIP3   OH226249   6.565   0.507   4.449 -0.1139 -0.3193  0.1478
 8762TIP3    H126250   6.521   0.422   4.444 -1.6557  0.4073  0.5484
 8762TIP3    H226251   6.555   0.545   4.362  0.0701 -0.3196  0.1268
 8763TIP3   OH226252   1.209   1.619   0.685 -0.0176  0.2269  0.2648
 8763TIP3    H126253   1.218   1.554   0.754 -1.3141 -2.7701 -2.1554
 8763TIP3    H226254   1.114   1.630   0.675  0.1540  2.7459  0.7188
 8764TIP3   OH226255   2.136   3.935   5.624 -0.5068 -0.0515 -0.2051
 8764TIP3    H126256   2.192   3.908   5.696 -1.1558  0.3204  0.4487
 8764TIP3    H226257   2.061   3.977   5.666 -0.0009  1.9214 -1.1548
 8765TIP3   OH226258   3.465   1.178   1.099  0.6311 -0.0639 -0.2388
 8765TIP3    H126259   3.534   1.146   1.041  0.0181 -0.8024 -0.5732
 8765TIP3    H226260   3.385   1.136   1.067 -0.4926  2.7980 -1.5573
 8766TIP3   OH226261   4.467   2.054   1.882  0.8089  0.0180 -0.1298
 8766TIP3    H126262   4.425   1.999   1.816  0.5222 -0.9346  0.8202
 8766TIP3    H226263   4.395   2.084   1.937  1.2414 -0.9661  1.0280
 8767TIP3   OH226264   1.255   5.163   2.241 -0.3816  0.0345  0.1854
 8767TIP3    H126265   1.196   5.110   2.296 -0.4001 -1.0662 -0.8405
 8767TIP3    H226266   1.306   5.098   2.193  0.3722  0.9809 -0.3187
 8768TIP3   OH226267   5.586   0.910   0.240 -0.5290  0.1847 -0.1659
 8768TIP3    H126268   5.611   0.920   0.148 -0.5099  0.5053 -0.1266
 8768TIP3    H226269   5.619   0.989   0.283 -1.5205  0.5862 -0.1008
 8769TIP3   OH226270   6.140   5.775   4.167 -0.0358 -0.4980 -0.2336
 8769TIP3    H126271   6.152   5.870   4.174  1.8957 -0.5840 -1.4941
 8769TIP3    H226272   6.111   5.761   4.077  2.0647 -1.2181 -0.8617
 8770TIP3   OH226273   1.522   0.709   5.197  0.2175 -0.4134  0.2860
 8770TIP3    H126274   1.442   0.742   5.238  0.7058 -1.9680  2.7230
 8770TIP3    H226275   1.590   0.771   5.225 -0.0452  0.9172 -1.7962
 8771TIP3   OH226276   1.679   4.507   2.435  0.0101 -0.3423  0.3072
 8771TIP3    H126277   1.732   4.583   2.459  0.6286 -0.2972 -1.1373
 8771TIP3    H226278   1.591   4.542   2.422  0.2949  0.1440 -0.3687
 8772TIP3   OH226279   0.221   2.157   4.918  0.0414 -0.1416  0.0643
 8772TIP3    H126280   0.148   2.216   4.937  0.0276  0.0700 -0.6147
 8772TIP3    H226281   0.298   2.213   4.919 -0.0362  0.0043 -1.1389
 8773TIP3   OH226282   1.066   3.527   4.958  0.0760 -0.7191  0.1545
 8773TIP3    H126283   1.026   3.456   4.907 -0.1823 -0.6355  0.2390
 8773TIP3    H226284   1.156   3.531   4.926 -0.4244  0.2040 -1.2652
 8774TIP3   OH226285   4.329   4.236   0.622 -0.0171  0.2585 -0.0262
 8774TIP3    H126286   4.299   4.147   0.639  1.0825 -0.2878 -0.8592
 8774TIP3    H226287   4.349   4.272   0.708  2.3598 -1.3265  0.1694
 8775TIP3   OH226288   0.578   2.546   2.412  0.4490 -0.1037  0.2522
 8775TIP3    H126289   0.627   2.614   2.365 -0.1468 -0.8967 -1.5865
 8775TIP3    H226290   0.532   2.594   2.482  0.6437  1.2557 -0.5106
 8776TIP3   OH226291   1.702   0.430   5.643 -0.3865 -0.0478  0.2004
 8776TIP3    H126292   1.786   0.470   5.664  0.8772 -2.5163  0.2735
 8776TIP3    H226293   1.700   0.427   5.547 -0.7352  0.6436  0.1813
 8777TIP3   OH226294   4.923   6.553   2.804  1.2741 -0.9977 -0.2938
 8777TIP3    H126295   4.890   6.468   2.834 -1.7323 -0.4532 -1.6440
 8777TIP3    H226296   4.955   6.595   2.883  0.2821 -2.3484  0.8884
 8778TIP3   OH226297   5.251   0.741   1.888 -0.3537  0.4535 -0.3013
 8778TIP3    H126298   5.331   0.738   1.941 -0.5753 -3.3692  0.1159
 8778TIP3    H226299   5.282   0.732   1.798 -0.2269 -0.5719 -0.1730
 8779TIP3   OH226300   6.123   2.139   4.539 -0.3795 -0.5222  0.3057
 8779TIP3    H126301   6.109   2.191   4.460 -0.3523  0.5932  1.0125
 8779TIP3    H226302   6.181   2.193   4.593 -1.5486 -0.6024  1.6965
 8780TIP3   OH226303   2.431   0.302   0.862  0.0149 -0.0032 -0.4274
 8780TIP3    H126304   2.502   0.251   0.823 -2.1420 -2.4949 -1.4226
 8780TIP3    H226305   2.386   0.341   0.787 -0.9489 -0.2732  0.0005
 8781TIP3   OH226306   0.153   2.082   1.753  0.2599 -0.1492 -0.4016
 8781TIP3    H126307   0.117   2.150   1.810 -0.9558  0.1432 -1.4537
 8781TIP3    H226308   0.162   2.005   1.809 -2.3678 -0.3316 -0.1002
 8782TIP3   OH226309   6.128   2.359   2.267 -0.0270 -0.6312  0.1398
 8782TIP3    H126310   6.080   2.337   2.187 -1.1249  1.6658  0.0911
 8782TIP3    H226311   6.065   2.342   2.338  0.8379 -2.3684  0.5388
 8783TIP3   OH226312   1.175   2.554   2.494  0.0204 -0.3920  0.2152
 8783TIP3    H126313   1.260   2.574   2.531 -0.6106  1.5495  0.7072
 8783TIP3    H226314   1.121   2.528   2.569 -0.4957  0.8626  0.3039
 8784TIP3   OH226315   5.750   5.288   0.364  0.2847 -1.0091 -0.1253
 8784TIP3    H126316   5.812   5.246   0.424  0.6638 -1.7066 -0.9989
 8784TIP3    H226317   5.677   5.226   0.358 -0.1082 -0.5919  0.1943
 8785TIP3   OH226318   0.059   0.046   3.705  0.1922  0.1463 -0.3547
 8785TIP3    H126319   0.035   0.091   3.785 -1.1087  0.2652 -0.7824
 8785TIP3    H226320  -0.020   0.049   3.651 -0.2585 -3.2399 -0.1421
 8786TIP3   OH226321   0.428   5.500   0.976  0.3412  0.1414 -0.5681
 8786TIP3    H126322   0.502   5.443   0.959  0.5030 -0.2343  1.2037
 8786TIP3    H226323   0.354   5.457   0.932  0.7264 -0.7515 -0.3707
 8787TIP3   OH226324   6.318   5.489   0.661  0.1399 -0.2738  0.3680
 8787TIP3    H126325   6.337   5.395   0.653 -1.8632 -0.7716  0.7572
 8787TIP3    H226326   6.371   5.518   0.735  0.1022 -1.3122  0.8141
 8788TIP3   OH226327   3.696   3.501   0.885 -0.4557  0.2366 -0.0252
 8788TIP3    H126328   3.676   3.423   0.936 -2.4396  0.9855  0.4221
 8788TIP3    H226329   3.759   3.471   0.819 -0.4879 -1.5150  0.6910
 8789TIP3   OH226330   4.015   4.449   4.825  0.1889 -0.1625 -0.0742
 8789TIP3    H126331   4.059   4.472   4.743  0.4718  2.2013  0.6743
 8789TIP3    H226332   4.080   4.398   4.873  1.1756  1.0394 -0.0784
 8790TIP3   OH226333   5.673   1.048   2.970  0.4390  0.1775 -0.2941
 8790TIP3    H126334   5.749   1.095   3.004 -0.2989 -0.2901  2.2653
 8790TIP3    H226335   5.709   0.974   2.921  1.5920  1.3142 -1.2104
 8791TIP3   OH226336   5.856   4.912   0.384  0.0885 -0.6920  1.1140
 8791TIP3    H126337   5.825   4.927   0.295  1.2679 -1.6844  0.5115
 8791TIP3    H226338   5.888   4.822   0.384 -0.4265 -0.9178  2.7110
 8792TIP3   OH226339   4.550   2.249   3.671 -0.5605  0.2176 -0.6231
 8792TIP3    H126340   4.483   2.224   3.608 -1.4567 -0.1488  0.4346
 8792TIP3    H226341   4.605   2.172   3.679  0.5581  0.8175 -2.1609
 8793TIP3   OH226342   3.215   6.301   5.235 -0.4434  0.1825 -0.2488
 8793TIP3    H126343   3.308   6.320   5.222 -0.4315 -0.1723 -0.7575
 8793TIP3    H226344   3.193   6.241   5.163 -0.9303 -0.1731  0.1902
 8794TIP3   OH226345   0.423   3.322   3.294  0.0070  0.2814 -0.0793
 8794TIP3    H126346   0.418   3.377   3.216 -0.0831  0.4878  0.0711
 8794TIP3    H226347   0.409   3.382   3.367  1.0365  0.2653  0.1560
 8795TIP3   OH226348   2.786   2.127   4.323  0.3487  0.5163 -0.2093
 8795TIP3    H126349   2.764   2.035   4.310 -2.2418  1.2475 -1.8678
 8795TIP3    H226350   2.857   2.143   4.261  0.0754 -0.1412 -0.7089
 8796TIP3   OH226351   4.039   3.088   4.009  0.2351  0.2986 -0.0906
 8796TIP3    H126352   3.978   3.028   4.052 -1.0785  0.8809 -1.0507
 8796TIP3    H226353   4.089   3.033   3.949  1.0634 -0.2764  1.0929
 8797TIP3   OH226354   0.966   1.498   0.502  0.0824  0.8909  0.1970
 8797TIP3    H126355   0.953   1.580   0.550 -0.3634  0.5898  0.5942
 8797TIP3    H226356   1.016   1.443   0.562 -0.0266  0.7041  0.1174
 8798TIP3   OH226357   5.155   2.124   5.517 -0.2258 -0.4300 -0.9981
 8798TIP3    H126358   5.160   2.054   5.452 -1.6199  0.0212 -1.6449
 8798TIP3    H226359   5.084   2.098   5.575  0.8540 -0.7049  0.2298
 8799TIP3   OH226360   1.281   5.811   3.265  0.5234 -0.5835 -0.6803
 8799TIP3    H126361   1.227   5.850   3.334 -1.1115 -0.3223 -2.0365
 8799TIP3    H226362   1.291   5.719   3.292  0.6475 -0.2917  0.3111
 8800TIP3   OH226363   5.803   2.375   1.144 -0.2452 -0.1767  0.3981
 8800TIP3    H126364   5.754   2.328   1.211  1.1432  1.8037  2.9793
 8800TIP3    H226365   5.737   2.424   1.096 -1.3666 -2.3548 -0.4154
 8801TIP3   OH226366   5.490   2.044   4.195  0.0635  0.9257 -0.3553
 8801TIP3    H126367   5.561   1.994   4.155 -1.3692 -1.2937 -0.3266
 8801TIP3    H226368   5.446   2.086   4.121  0.9356  1.7276 -0.4410
 8802TIP3   OH226369   5.521   2.045   1.778  0.0144  0.1640 -0.2894
 8802TIP3    H126370   5.489   1.955   1.784  0.0842  0.1952  0.7782
 8802TIP3    H226371   5.460   2.096   1.832  1.1477  0.4126  0.8210
 8803TIP3   OH226372   2.227   6.562   0.534  0.5271 -0.3481  0.1888
 8803TIP3    H126373   2.283   6.484   0.536 -0.4992 -1.1141  0.1939
 8803TIP3    H226374   2.187   6.560   0.447  1.0603  0.6078 -0.0919
 8804TIP3   OH226375   0.181   5.406   0.906  0.3414 -0.1002  0.0275
 8804TIP3    H126376   0.181   5.381   0.998  0.2603 -1.8487 -0.4039
 8804TIP3    H226377   0.092   5.386   0.876  0.2979  0.6808 -0.3727
 8805TIP3   OH226378   1.881   3.530   2.029  0.2679 -0.1777  0.2890
 8805TIP3    H126379   1.954   3.591   2.028  1.0019 -0.9836 -1.8808
 8805TIP3    H226380   1.807   3.581   1.995  0.6081 -0.1546 -0.4510
 8806TIP3   OH226381   3.307   1.550   1.871 -0.2035 -0.1391 -0.5371
 8806TIP3    H126382   3.363   1.513   1.939 -0.2745  0.0999 -0.3488
 8806TIP3    H226383   3.294   1.641   1.897  1.2048  0.4480 -1.7954
 8807TIP3   OH226384   5.385   6.812   2.786 -0.0615  0.5421 -0.5185
 8807TIP3    H126385   5.325   6.799   2.713 -0.8474 -0.0100  0.2085
 8807TIP3    H226386   5.463   6.762   2.763 -0.5318 -0.1061 -0.7162
 8808TIP3   OH226387   0.854   2.531   3.505 -0.6958  0.0284  0.4438
 8808TIP3    H126388   0.763   2.560   3.501 -0.3933  1.3748  2.1465
 8808TIP3    H226389   0.902   2.606   3.540  1.3424 -0.1301 -1.6697
 8809TIP3   OH226390   3.854   3.755   5.678  0.2923 -0.2049 -0.5229
 8809TIP3    H126391   3.843   3.660   5.688 -3.2113  0.0708 -0.8335
 8809TIP3    H226392   3.859   3.768   5.584  1.1581 -0.0654 -0.4687
 8810TIP3   OH226393   6.200   5.513   3.969  0.8072 -1.1277  0.1464
 8810TIP3    H126394   6.285   5.555   3.952  1.2755 -1.9737  0.3150
 8810TIP3    H226395   6.194   5.509   4.064 -0.2061  0.4278  0.1850
 8811TIP3   OH226396   4.754   1.049   3.882 -0.0582 -0.3340 -0.2103
 8811TIP3    H126397   4.757   0.957   3.858 -0.3025 -0.7465  1.2803
 8811TIP3    H226398   4.671   1.060   3.929  1.3872 -0.1380  2.5208
 8812TIP3   OH226399   3.831   2.970   2.739 -0.0176  0.0835  0.1426
 8812TIP3    H126400   3.788   3.036   2.794 -0.3463 -0.5622  0.6741
 8812TIP3    H226401   3.846   3.015   2.656  1.5647  1.4777  1.1106
 8813TIP3   OH226402   1.102   2.189   4.889 -0.0691  0.5060 -0.3414
 8813TIP3    H126403   1.037   2.138   4.841 -0.5901  0.0842  0.7780
 8813TIP3    H226404   1.056   2.217   4.969  1.0267  0.4726  0.3206
 8814TIP3   OH226405   1.522   6.652   5.581 -0.2010  0.5344  0.7432
 8814TIP3    H126406   1.596   6.591   5.585 -0.9091 -0.3962  0.1993
 8814TIP3    H226407   1.552   6.724   5.526 -0.0148 -0.3184 -0.3063
 8815TIP3   OH226408   5.857   5.813   0.418  0.1777 -0.1376  0.3501
 8815TIP3    H126409   5.834   5.722   0.430  0.7102 -0.2553  0.5373
 8815TIP3    H226410   5.949   5.811   0.391 -0.6159  0.1545 -2.8374
 8816TIP3   OH226411   2.109   4.495   3.486  0.0868 -0.1491 -0.3744
 8816TIP3    H126412   2.203   4.482   3.497 -0.0316 -0.3785  0.3778
 8816TIP3    H226413   2.095   4.588   3.506 -0.0240 -0.3990  0.7107
 8817TIP3   OH226414   2.980   0.595   0.945  0.2647  0.2555  0.2733
 8817TIP3    H126415   2.949   0.537   1.014 -0.8838  0.5478  0.0229
 8817TIP3    H226416   3.066   0.560   0.920 -0.1736 -1.0106  0.5014
 8818TIP3   OH226417   2.103   0.252   1.247 -0.3512 -0.2681  0.0019
 8818TIP3    H126418   2.180   0.268   1.192 -0.2761  0.3329  0.2756
 8818TIP3    H226419   2.029   0.277   1.191 -0.4898 -2.3360 -0.8453
 8819TIP3   OH226420   6.421   3.821   4.304 -0.4185 -0.3104  0.5785
 8819TIP3    H126421   6.408   3.732   4.272  0.1589  0.0858 -0.8499
 8819TIP3    H226422   6.513   3.840   4.287 -0.6469  0.7227  0.3981
 8820TIP3   OH226423   0.823   3.528   1.059  0.1274 -0.2899  0.4066
 8820TIP3    H126424   0.751   3.475   1.026 -0.8854  0.4694  1.3174
 8820TIP3    H226425   0.784   3.582   1.128  0.9230  2.1931 -0.9543
 8821TIP3   OH226426   5.943   3.552   1.178 -0.4139 -0.0153  0.2832
 8821TIP3    H126427   5.914   3.561   1.269 -1.8539 -0.5590 -0.1111
 8821TIP3    H226428   5.913   3.466   1.151 -0.8985  0.5455 -1.0390
 8822TIP3   OH226429   4.594   5.856   0.771 -0.6705  0.2385 -0.2004
 8822TIP3    H126430   4.611   5.821   0.684  1.2887  1.4465 -0.3605
 8822TIP3    H226431   4.554   5.942   0.754 -0.7777  0.2463  0.0928
 8823TIP3   OH226432   3.771   2.645   2.923 -0.2563  0.1529 -0.1371
 8823TIP3    H126433   3.711   2.571   2.926 -0.3580  0.2505  0.6767
 8823TIP3    H226434   3.730   2.707   2.864  0.0145 -0.5872 -1.1234
 8824TIP3   OH226435   6.235   1.192   1.954 -0.1120  0.2361  0.0994
 8824TIP3    H126436   6.234   1.123   2.021  0.1937  0.9111  0.8225
 8824TIP3    H226437   6.308   1.168   1.897  0.4761  0.3456  0.7836
 8825TIP3   OH226438   5.679   2.938   2.980  0.3265 -0.2985  0.0963
 8825TIP3    H126439   5.764   2.920   2.940  0.6360 -0.9515  0.9986
 8825TIP3    H226440   5.678   2.883   3.059 -0.4786  0.5261  0.6794
 8826TIP3   OH226441   3.916   2.680   1.752 -0.1339  0.5564 -0.0972
 8826TIP3    H126442   3.843   2.728   1.713 -0.1224  0.0555 -0.7495
 8826TIP3    H226443   3.878   2.633   1.826  0.1287  2.7132  1.5264
 8827TIP3   OH226444   1.330   1.212   1.816  0.3931  0.4314  0.3173
 8827TIP3    H126445   1.272   1.234   1.889  0.6898  1.5745  0.2337
 8827TIP3    H226446   1.327   1.289   1.760  1.6147  0.3136  0.0718
 8828TIP3   OH226447   2.578   1.193   1.639 -0.1731 -0.0274  0.2377
 8828TIP3    H126448   2.583   1.188   1.543  1.1430  0.2588  0.2757
 8828TIP3    H226449   2.627   1.116   1.669  1.0728  0.9187  0.6788
 8829TIP3   OH226450   3.837   0.134   5.334  0.2211  0.2278 -0.4806
 8829TIP3    H126451   3.867   0.224   5.343 -0.0816  0.3723 -0.8879
 8829TIP3    H226452   3.918   0.082   5.334  0.3420  0.3848  0.9509
 8830TIP3   OH226453   3.229   1.614   2.396  0.1811 -0.1315  0.0823
 8830TIP3    H126454   3.273   1.665   2.328 -0.5453  0.9481  0.3828
 8830TIP3    H226455   3.136   1.632   2.383 -0.2595 -2.6649 -0.7920
 8831TIP3   OH226456   4.076   5.643   5.717  0.5843  0.2639  0.1109
 8831TIP3    H126457   4.102   5.595   5.638 -1.3061  1.1881 -1.1441
 8831TIP3    H226458   4.155   5.692   5.743  0.7682  1.4183 -2.3513
 8832TIP3   OH226459   6.000   1.472   3.273  0.1368 -0.2034 -0.3786
 8832TIP3    H126460   5.944   1.455   3.349  0.5707  0.5593  0.1230
 8832TIP3    H226461   5.987   1.565   3.255  2.0261  0.2643  0.4082
 8833TIP3   OH226462   1.464   4.192   5.356 -0.5409 -0.6220 -0.0640
 8833TIP3    H126463   1.442   4.282   5.333 -1.1659 -0.6879  0.2586
 8833TIP3    H226464   1.474   4.148   5.271 -0.1119 -0.2204 -0.2221
 8834TIP3   OH226465   2.148   5.009   3.654 -0.1286 -0.4746 -0.2593
 8834TIP3    H126466   2.151   5.019   3.559 -1.6893 -0.6775 -0.3540
 8834TIP3    H226467   2.076   5.065   3.682  2.2053  2.0303  1.2071
 8835TIP3   OH226468   3.893   2.415   0.265 -0.0198  0.3709  0.5162
 8835TIP3    H126469   3.911   2.321   0.258  1.0878  0.5898  0.3542
 8835TIP3    H226470   3.798   2.420   0.275  0.0624 -0.8852  2.4377
 8836TIP3   OH226471   5.564   0.227   2.470 -0.1512  0.1546 -0.6873
 8836TIP3    H126472   5.530   0.146   2.509  0.3537 -0.0791 -0.7277
 8836TIP3    H226473   5.609   0.272   2.541 -1.4528  0.9981 -0.3546
 8837TIP3   OH226474   0.167   0.727   1.212 -0.1217 -0.3345 -0.0532
 8837TIP3    H126475   0.177   0.818   1.183  0.8365 -0.5784 -0.5093
 8837TIP3    H226476   0.246   0.683   1.182 -1.3192 -1.7233 -1.3314
 8838TIP3   OH226477   0.605   4.554   2.342 -0.3674 -0.2779 -0.2630
 8838TIP3    H126478   0.634   4.584   2.255  0.7016  0.4196  0.3155
 8838TIP3    H226479   0.521   4.598   2.356  0.1693  0.7773 -0.3257
 8839TIP3   OH226480   2.313   4.782   1.642  0.3985 -0.8729 -0.2771
 8839TIP3    H126481   2.231   4.740   1.617 -0.5096  1.2093 -1.0795
 8839TIP3    H226482   2.340   4.829   1.563  2.8016 -2.1211 -0.2603
 8840TIP3   OH226483   3.664   6.132   3.766 -0.9388  0.1139 -0.0835
 8840TIP3    H126484   3.636   6.219   3.737 -1.2264 -0.0786 -0.3956
 8840TIP3    H226485   3.702   6.092   3.688  0.4195  0.4420  0.3773
 8841TIP3   OH226486   2.218   4.018   5.113  0.1701  0.2219 -0.2402
 8841TIP3    H126487   2.233   3.923   5.116 -3.5185 -0.6599 -2.7099
 8841TIP3    H226488   2.176   4.038   5.197  0.7699 -0.3283  0.2081
 8842TIP3   OH226489   6.573   2.977   2.412  0.0607  0.7967 -0.3581
 8842TIP3    H126490   6.547   2.892   2.450  0.3243  0.9020  0.0672
 8842TIP3    H226491   6.632   2.954   2.341 -0.0265  0.6117 -0.3714
 8843TIP3   OH226492   4.641   5.805   4.381 -0.0990  0.0288 -0.2610
 8843TIP3    H126493   4.649   5.874   4.314  0.8121 -2.4493 -2.8917
 8843TIP3    H226494   4.551   5.775   4.374 -0.4227  0.7598  0.7009
 8844TIP3   OH226495   1.995   4.347   4.879 -0.0821  0.5362 -0.0429
 8844TIP3    H126496   1.995   4.387   4.792 -1.7991 -1.8598 -1.2572
 8844TIP3    H226497   2.086   4.353   4.908  0.1861  3.0172 -1.1670
 8845TIP3   OH226498   3.648   4.647   4.736 -0.0144  0.0768 -0.0416
 8845TIP3    H126499   3.621   4.732   4.771 -0.0872 -0.5373  1.4601
 8845TIP3    H226500   3.623   4.650   4.644 -2.9760  0.4834  0.6980
 8846TIP3   OH226501   4.887   5.648   0.704 -0.2197 -0.2661  0.0480
 8846TIP3    H126502   4.859   5.614   0.789 -1.1245  0.2339 -0.0336
 8846TIP3    H226503   4.889   5.743   0.717  0.0855 -0.2186 -0.3592
 8847TIP3   OH226504   2.461   0.025   3.234 -0.0302 -0.3122  0.1751
 8847TIP3    H126505   2.448   0.052   3.325 -3.3491  1.6822 -0.7111
 8847TIP3    H226506   2.382  -0.023   3.212  0.2694  0.0461 -1.9061
 8848TIP3   OH226507   5.581   6.123   5.701 -0.3424  0.0246 -0.0421
 8848TIP3    H126508   5.550   6.160   5.784 -0.7122 -0.3249 -0.0187
 8848TIP3    H226509   5.606   6.033   5.723 -1.1366 -0.3051 -0.4509
 8849TIP3   OH226510   1.081   6.805   2.216  0.1840 -0.4911  0.1564
 8849TIP3    H126511   0.995   6.808   2.175  0.3320  0.2456 -0.1196
 8849TIP3    H226512   1.136   6.758   2.152  0.5448  1.1204 -0.7964
 8850TIP3   OH226513   6.041   5.870   3.534 -0.2670  0.1360  0.4712
 8850TIP3    H126514   5.976   5.911   3.477 -0.9255  0.0516  1.1501
 8850TIP3    H226515   6.003   5.785   3.556  0.5626 -0.3692  0.0163
 8851TIP3   OH226516   5.130   2.903   4.041 -0.8247 -0.7556 -0.1225
 8851TIP3    H126517   5.118   2.974   4.104 -0.5964  0.1441 -1.0634
 8851TIP3    H226518   5.206   2.856   4.072  0.6217  0.9752 -0.8608
 8852TIP3   OH226519   6.183   2.576   1.363  0.5361 -0.1008 -0.2523
 8852TIP3    H126520   6.164   2.664   1.397  0.3155  0.1327 -0.9664
 8852TIP3    H226521   6.269   2.584   1.322  1.7622 -0.8798  1.9713
 8853TIP3   OH226522   5.356   5.212   2.523 -0.0237 -0.8102  0.3682
 8853TIP3    H126523   5.349   5.263   2.443 -0.1284  0.5639  1.2167
 8853TIP3    H226524   5.450   5.204   2.538  0.0328  0.8552  1.2303
 8854TIP3   OH226525   0.154   1.780   1.528 -0.2517 -0.1652  0.7096
 8854TIP3    H126526   0.237   1.828   1.533 -0.8764  1.6435 -2.7615
 8854TIP3    H226527   0.087   1.848   1.539 -1.1604 -0.4138 -2.3463
 8855TIP3   OH226528   4.485   0.930   2.044  0.3876 -0.0800  0.3304
 8855TIP3    H126529   4.488   1.019   2.010 -1.0572 -0.8806 -2.1004
 8855TIP3    H226530   4.554   0.884   1.996 -1.0307 -0.9882 -0.9516
 8856TIP3   OH226531   0.375   5.499   3.507  0.3103 -0.0348 -0.6166
 8856TIP3    H126532   0.327   5.580   3.489 -1.2078 -0.8123 -0.2192
 8856TIP3    H226533   0.387   5.459   3.420 -0.1439 -0.0341 -0.6815
 8857TIP3   OH226534   4.537   0.748   0.894 -0.3361  0.1889  0.6886
 8857TIP3    H126535   4.570   0.683   0.956  0.3789 -0.8090 -0.6519
 8857TIP3    H226536   4.610   0.809   0.882 -0.2440  0.0279  0.3994
 8858TIP3   OH226537   2.303   3.302   3.059 -0.1255  0.5213 -0.1232
 8858TIP3    H126538   2.242   3.236   3.091 -0.1879  0.1791 -0.9149
 8858TIP3    H226539   2.383   3.287   3.109 -0.1501 -0.1394 -0.2731
 8859TIP3   OH226540   2.848   3.120   1.110 -0.5798  0.0410 -0.1744
 8859TIP3    H126541   2.763   3.150   1.078  0.0374  0.6496 -1.3059
 8859TIP3    H226542   2.897   3.200   1.128 -0.0420 -0.2955 -0.1119
 8860TIP3   OH226543   3.102   6.664   3.630  1.0746 -0.2809 -0.3238
 8860TIP3    H126544   3.070   6.694   3.545 -0.7607  0.8947  0.7121
 8860TIP3    H226545   3.066   6.576   3.639  0.4161 -0.0184 -0.3471
 8861TIP3   OH226546   3.608   2.449   5.524  0.1193  0.4791  0.1325
 8861TIP3    H126547   3.562   2.531   5.546  1.0399  1.2372 -0.6902
 8861TIP3    H226548   3.656   2.426   5.603 -0.5369  0.4446  0.5341
 8862TIP3   OH226549   1.804   0.660   1.143 -0.1837  0.3542 -0.0813
 8862TIP3    H126550   1.778   0.726   1.207  2.0688  1.6350 -0.3598
 8862TIP3    H226551   1.768   0.691   1.060 -0.9797  0.0229  0.1268
 8863TIP3   OH226552   1.491   1.920   3.566  0.0523  0.2954  0.1399
 8863TIP3    H126553   1.429   1.911   3.493  0.5245  0.0937 -0.2421
 8863TIP3    H226554   1.511   2.013   3.569  1.6367  0.0523 -1.3547
 8864TIP3   OH226555   6.981  -0.017   3.689  0.0474 -0.5532  0.0847
 8864TIP3    H126556   6.955   0.067   3.727  0.4189  0.5778 -1.9979
 8864TIP3    H226557   6.975  -0.003   3.595  1.6990 -2.3558 -0.3485
 8865TIP3   OH226558   6.080   2.863   0.129 -0.2470 -0.0482  0.0515
 8865TIP3    H126559   6.011   2.863   0.062 -0.1080 -0.6379 -0.0916
 8865TIP3    H226560   6.063   2.785   0.181 -0.5640  0.5940  0.9316
 8866TIP3   OH226561   1.281   0.023   4.378 -0.0792  0.3291 -0.0852
 8866TIP3    H126562   1.234  -0.025   4.310  0.0989  1.4420 -1.0255
 8866TIP3    H226563   1.337   0.084   4.330  0.3792  0.8444  1.0609
 8867TIP3   OH226564   1.336   2.993   1.541  0.0373 -0.2462  0.6430
 8867TIP3    H126565   1.402   3.055   1.570  0.7906 -1.3631  1.4068
 8867TIP3    H226566   1.375   2.950   1.464 -0.7799  0.7059 -0.3370
 8868TIP3   OH226567   1.265   6.317   4.185 -0.1556  0.1088  0.7564
 8868TIP3    H126568   1.289   6.242   4.239 -0.2800 -0.8823 -0.4995
 8868TIP3    H226569   1.208   6.280   4.117  0.5516  1.1552 -0.4584
 8869TIP3   OH226570   0.916   5.043   3.973  0.2306  0.0778 -0.9896
 8869TIP3    H126571   0.842   5.083   3.926  1.5319  2.1490 -1.4072
 8869TIP3    H226572   0.903   5.071   4.064  0.7198  0.8532 -1.1463
 8870TIP3   OH226573   5.885  -0.004   4.754 -0.3002 -0.2504  0.6465
 8870TIP3    H126574   5.849   0.075   4.715  1.1514  0.4077  0.5663
 8870TIP3    H226575   5.820  -0.031   4.819 -0.5672  1.3298  1.0613
 8871TIP3   OH226576   3.612   4.561   3.312  0.5234  0.3408 -0.2888
 8871TIP3    H126577   3.579   4.628   3.372  2.0004 -0.2643  1.2926
 8871TIP3    H226578   3.614   4.481   3.365 -1.6510 -1.1594 -2.2589
 8872TIP3   OH226579   5.598   5.064   3.633  0.8275 -0.1778 -0.0209
 8872TIP3    H126580   5.608   5.009   3.710 -0.3845  0.5828  0.7179
 8872TIP3    H226581   5.676   5.120   3.633 -0.3852  1.6619  2.2506
 8873TIP3   OH226582   0.143   0.758   3.322  0.3526 -0.2518  0.1852
 8873TIP3    H126583   0.117   0.667   3.308 -1.5140  0.4603 -1.3453
 8873TIP3    H226584   0.061   0.805   3.338  0.8295  1.7230 -2.4994
 8874TIP3   OH226585   0.859   5.561   5.299  0.3542  0.3466 -0.1114
 8874TIP3    H126586   0.792   5.519   5.245  0.3814 -0.4207  0.4278
 8874TIP3    H226587   0.843   5.527   5.388  1.2186  0.4450  0.0895
 8875TIP3   OH226588   6.387   2.381   0.509  0.4131 -0.1819  0.6005
 8875TIP3    H126589   6.390   2.421   0.422  1.7561 -1.1697  0.1529
 8875TIP3    H226590   6.336   2.442   0.562 -0.1114  0.6247 -0.7832
 8876TIP3   OH226591   6.459   1.399   5.206  0.2022  0.2271 -0.0825
 8876TIP3    H126592   6.450   1.484   5.248  0.5230  0.0756  0.3114
 8876TIP3    H226593   6.446   1.416   5.113  2.7572  1.1631 -0.3484
 8877TIP3   OH226594   2.453   4.198   0.257  0.1329 -0.6198  0.1081
 8877TIP3    H126595   2.425   4.123   0.204 -0.0666  0.0810 -0.7801
 8877TIP3    H226596   2.375   4.225   0.305  0.0869 -0.6597  0.0550
 8878TIP3   OH226597   0.998   6.230   0.772  0.1671  0.2289 -0.4331
 8878TIP3    H126598   0.998   6.218   0.677  0.8213 -0.8335 -0.3094
 8878TIP3    H226599   0.968   6.146   0.807  1.1870  0.1664  0.3416
 8879TIP3   OH226600   3.591   0.123   1.254 -0.3917 -0.2782 -0.2863
 8879TIP3    H126601   3.682   0.098   1.269 -0.6249 -1.0440 -0.1118
 8879TIP3    H226602   3.575   0.101   1.162 -0.2919  0.2121 -0.4239
 8880TIP3   OH226603   4.806   0.196   4.163 -0.1312 -0.6613  0.2502
 8880TIP3    H126604   4.887   0.159   4.199 -0.6957 -0.6982  1.5402
 8880TIP3    H226605   4.758   0.227   4.240 -0.6927  0.6964 -0.6137
 8881TIP3   OH226606   0.263   0.718   5.073  0.1124 -0.4573 -0.2218
 8881TIP3    H126607   0.188   0.747   5.124  0.1704 -1.1568  0.2688
 8881TIP3    H226608   0.333   0.707   5.137  0.3374 -0.8309 -0.5271
 8882TIP3   OH226609   1.453   2.434   5.057  0.1001 -0.1465 -0.1099
 8882TIP3    H126610   1.523   2.390   5.106 -1.2409 -0.5495  1.5358
 8882TIP3    H226611   1.483   2.432   4.966  1.2681 -2.2240  0.2470
 8883TIP3   OH226612   4.332   6.698   2.467 -0.0269 -0.4568  0.5135
 8883TIP3    H126613   4.420   6.680   2.434  0.0522 -0.0073  0.4683
 8883TIP3    H226614   4.295   6.760   2.403  0.2579  0.7137  1.4527
 8884TIP3   OH226615   3.992   4.353   3.636  0.7752 -0.2990  0.4200
 8884TIP3    H126616   3.994   4.430   3.693  0.8324 -0.6511  0.8978
 8884TIP3    H226617   3.962   4.282   3.693  0.1867 -0.5212 -0.1515
 8885TIP3   OH226618   2.578   6.411   1.435 -0.3382  0.4024  0.1831
 8885TIP3    H126619   2.561   6.320   1.409  0.9171 -0.3451  1.7542
 8885TIP3    H226620   2.525   6.464   1.375 -2.7244 -1.4245  0.5084
 8886TIP3   OH226621   3.676   4.001   2.997  0.1626  0.1031 -0.0084
 8886TIP3    H126622   3.736   3.932   3.023 -0.8944 -0.3283  1.4224
 8886TIP3    H226623   3.600   3.956   2.962  0.5294  0.6356 -1.5553
 8887TIP3   OH226624   5.871   6.173   4.255 -0.3981  0.2130 -0.1229
 8887TIP3    H126625   5.802   6.225   4.296  0.1557  0.8573  0.0179
 8887TIP3    H226626   5.828   6.129   4.182 -0.8639  0.9572 -0.3108
 8888TIP3   OH226627   4.037   1.198   2.556 -0.5440 -0.1520 -0.0808
 8888TIP3    H126628   4.071   1.285   2.536 -0.8206 -0.1408 -0.5267
 8888TIP3    H226629   4.042   1.150   2.473 -2.7099  0.2284 -0.4956
 8889TIP3   OH226630   3.021   0.816   3.184  0.1126 -0.3381  0.0093
 8889TIP3    H126631   3.107   0.847   3.211  0.9267 -1.4762 -1.1498
 8889TIP3    H226632   2.984   0.888   3.133  1.2028 -0.5483 -1.1075
 8890TIP3   OH226633   3.631   5.788   4.151  0.4685  0.7675 -0.1768
 8890TIP3    H126634   3.551   5.826   4.188  1.0772  0.4057  1.6033
 8890TIP3    H226635   3.632   5.819   4.060 -0.8055  2.1723  0.2404
 8891TIP3   OH226636   2.566   0.046   5.077  0.2354 -0.6426 -0.5551
 8891TIP3    H126637   2.542   0.138   5.079  1.3265 -0.2574 -2.4872
 8891TIP3    H226638   2.483  -0.001   5.079 -0.3767  0.4120 -0.6369
 8892TIP3   OH226639   2.463   3.288   1.938  0.5213  0.0555 -0.3312
 8892TIP3    H126640   2.466   3.262   2.030 -0.6632 -2.2272 -0.8683
 8892TIP3    H226641   2.423   3.375   1.939  1.6227  0.5684  1.3725
 8893TIP3   OH226642   3.450   5.865   5.696  0.1028 -0.6563  0.6995
 8893TIP3    H126643   3.368   5.843   5.652  0.1092  0.9313 -0.2010
 8893TIP3    H226644   3.495   5.782   5.708 -1.3629 -1.4830  0.6574
 8894TIP3   OH226645   3.743   6.227   3.275 -0.3617  0.2183  0.3644
 8894TIP3    H126646   3.673   6.163   3.262  0.0642 -0.5884  1.8384
 8894TIP3    H226647   3.818   6.174   3.303  0.1620  1.3183  1.0716
 8895TIP3   OH226648   6.015   0.567   2.973 -0.9733 -0.1936 -0.2802
 8895TIP3    H126649   6.067   0.627   2.919  0.9325 -0.8030  0.7840
 8895TIP3    H226650   5.942   0.620   3.004 -1.0597  0.6901 -1.8744
 8896TIP3   OH226651   7.222   5.751   0.427  0.2314  0.5969 -0.3071
 8896TIP3    H126652   7.135   5.784   0.449  0.4939  0.5200  0.9529
 8896TIP3    H226653   7.222   5.743   0.332 -1.6122 -0.6535 -0.2624
 8897TIP3   OH226654   3.452   3.200   0.181  0.4282  0.1222  0.0241
 8897TIP3    H126655   3.418   3.275   0.230  0.2941  0.7863 -1.0566
 8897TIP3    H226656   3.463   3.232   0.092  2.1493 -0.6193 -0.0675
 8898TIP3   OH226657   1.989   5.540   3.810 -0.3083  0.2027  0.1232
 8898TIP3    H126658   1.970   5.583   3.894 -0.1165 -0.3461  0.4528
 8898TIP3    H226659   1.920   5.571   3.751 -0.7298  0.2270  0.6194
 8899TIP3   OH226660   4.788   1.623   3.237  0.3111  0.2831 -0.0468
 8899TIP3    H126661   4.771   1.709   3.198  1.9304  1.1162  0.9652
 8899TIP3    H226662   4.877   1.601   3.209  0.5755 -0.2226  1.1160
 8900TIP3   OH226663   2.634   1.734   0.945  0.0759 -0.0813 -0.6304
 8900TIP3    H126664   2.693   1.667   0.912 -0.8158 -0.0546 -2.4147
 8900TIP3    H226665   2.546   1.703   0.923 -0.4178  1.1851 -0.5882
 8901TIP3   OH226666   0.251   0.914   2.753 -0.4037  0.3397 -0.3633
 8901TIP3    H126667   0.261   0.933   2.847  0.4651 -1.9527  0.0911
 8901TIP3    H226668   0.334   0.941   2.715 -0.9288  1.7028 -0.5874
 8902TIP3   OH226669   2.750   0.916   5.445  0.3633 -0.1975  0.3167
 8902TIP3    H126670   2.769   0.946   5.356  1.0076  0.3534  0.6343
 8902TIP3    H226671   2.672   0.966   5.471 -0.3272 -0.9563 -0.2248
 8903TIP3   OH226672   1.989   1.808   3.364 -0.1614 -0.3038 -0.3059
 8903TIP3    H126673   2.023   1.898   3.360 -0.7790 -0.0937 -1.1072
 8903TIP3    H226674   1.924   1.811   3.434  0.6122 -0.4092  0.4242
 8904TIP3   OH226675   4.320   3.738   0.339  0.0223  0.1245 -0.3768
 8904TIP3    H126676   4.258   3.706   0.273 -2.0354  0.9838  1.0261
 8904TIP3    H226677   4.329   3.831   0.319  0.8265  0.0163 -0.5263
 8905TIP3   OH226678   2.613   5.117   5.091 -0.3076  0.4637 -0.0106
 8905TIP3    H126679   2.547   5.088   5.029 -0.2356  0.4767 -0.0950
 8905TIP3    H226680   2.688   5.061   5.075 -0.1334  0.7604 -0.2442
 8906TIP3   OH226681   1.867   6.235   5.859  0.3057  0.2589 -0.2734
 8906TIP3    H126682   1.888   6.179   5.784  0.0118 -1.0961  0.6204
 8906TIP3    H226683   1.774   6.255   5.847 -0.8007 -3.0305  1.5620
 8907TIP3   OH226684   5.376   5.010   5.650 -0.0390 -0.1089 -0.1766
 8907TIP3    H126685   5.353   5.075   5.717 -0.7402 -0.6163  0.0877
 8907TIP3    H226686   5.293   4.989   5.607 -0.3959 -2.9237  1.6383
 8908TIP3   OH226687   0.200   4.809   0.065 -0.0232  0.6857  0.0009
 8908TIP3    H126688   0.280   4.862   0.058  0.6709 -0.1219  1.3211
 8908TIP3    H226689   0.227   4.732   0.115 -1.5251  0.1518  0.0296
 8909TIP3   OH226690   7.095   0.657   5.700 -0.5144 -0.3917 -0.2835
 8909TIP3    H126691   7.133   0.575   5.669  1.7470 -0.2786  1.8639
 8909TIP3    H226692   7.120   0.661   5.792  1.4609  3.7457 -0.7981
 8910TIP3   OH226693   2.593   4.502   2.555  0.4914 -0.3188 -0.3675
 8910TIP3    H126694   2.519   4.498   2.494  1.2373 -1.4989 -1.2615
 8910TIP3    H226695   2.599   4.413   2.590  1.5471 -0.2793 -0.4128
 8911TIP3   OH226696   2.296   5.598   4.625 -0.3704 -0.6217 -0.5843
 8911TIP3    H126697   2.284   5.633   4.537  1.2333 -0.3507 -0.7142
 8911TIP3    H226698   2.381   5.555   4.622 -0.5818 -1.1580  0.6683
 8912TIP3   OH226699   2.786   4.791   4.773  0.0335  0.1163  0.3957
 8912TIP3    H126700   2.768   4.697   4.773  1.0667 -0.0935  0.6541
 8912TIP3    H226701   2.877   4.798   4.744 -0.7638  1.2178 -2.0840
 8913TIP3   OH226702   5.132   5.571   0.588  0.0035  0.1886 -0.0891
 8913TIP3    H126703   5.202   5.518   0.626  0.3321 -0.5404 -1.5952
 8913TIP3    H226704   5.061   5.567   0.652  0.3487 -1.3556  0.2504
 8914TIP3   OH226705   1.284   6.238   1.908 -0.8292 -0.1830 -0.0723
 8914TIP3    H126706   1.321   6.228   1.821 -0.2104 -1.2914  0.2881
 8914TIP3    H226707   1.348   6.197   1.966  0.6329  3.7310  1.3944
 8915TIP3   OH226708   7.051   5.521   2.563 -0.1080  0.2755 -0.4312
 8915TIP3    H126709   7.084   5.490   2.478  0.0349 -1.0739  0.1085
 8915TIP3    H226710   7.130   5.545   2.611 -0.1405  0.2314 -0.3575
 8916TIP3   OH226711   1.140   2.011   3.062  0.0908 -0.1798 -0.0401
 8916TIP3    H126712   1.106   2.086   3.014  0.4134 -0.0584 -0.0836
 8916TIP3    H226713   1.226   2.039   3.094  0.2445 -0.5511 -0.1156
 8917TIP3   OH226714  -0.001   6.113   0.661 -0.3115 -0.1982 -0.2029
 8917TIP3    H126715   0.014   6.206   0.676  0.3275 -0.4374  0.7329
 8917TIP3    H226716   0.050   6.093   0.582  0.7358 -0.0469  0.4102
 8918TIP3   OH226717   5.808   1.876   0.282 -0.1612 -0.2170  0.1605
 8918TIP3    H126718   5.833   1.894   0.372 -1.2667  1.7701  0.1145
 8918TIP3    H226719   5.826   1.782   0.270 -0.9645 -0.7583  2.7294
 8919TIP3   OH226720   2.459   3.401   2.508 -0.0500 -0.3455 -0.5813
 8919TIP3    H126721   2.431   3.310   2.519  0.0920 -0.6270 -2.2557
 8919TIP3    H226722   2.414   3.448   2.578 -1.6449 -1.3963 -0.8373
 8920TIP3   OH226723   6.267   0.768   0.619  0.4336  0.2462  0.4034
 8920TIP3    H126724   6.221   0.706   0.563 -0.6090  1.5270 -0.2077
 8920TIP3    H226725   6.305   0.831   0.559  1.5927  0.1531  1.0086
 8921TIP3   OH226726   3.792   5.672   5.649  0.0551 -0.1094 -0.1388
 8921TIP3    H126727   3.810   5.753   5.602 -1.9404  1.9211  2.2840
 8921TIP3    H226728   3.878   5.630   5.659  0.9847  1.1166 -2.3531
 8922TIP3   OH226729   4.801   3.452   2.140  0.1184  0.5267 -0.6571
 8922TIP3    H126730   4.869   3.418   2.082  0.9101  0.9487  0.0110
 8922TIP3    H226731   4.757   3.520   2.088 -0.8163 -0.7547 -1.6361
 8923TIP3   OH226732   4.802   5.240   5.278 -0.1052  0.1688  0.0436
 8923TIP3    H126733   4.727   5.181   5.276  0.4470 -0.5230 -1.1587
 8923TIP3    H226734   4.764   5.326   5.298 -1.1652 -0.2344 -0.1724
 8924TIP3   OH226735   4.888   6.660   5.854  0.8813 -0.0737  0.3244
 8924TIP3    H126736   4.936   6.724   5.907 -0.5930  0.1819  1.4170
 8924TIP3    H226737   4.902   6.576   5.899 -1.4128  0.3369  1.9621
 8925TIP3   OH226738   0.728   0.770   2.337 -0.3132 -0.0703 -0.3164
 8925TIP3    H126739   0.731   0.676   2.319  0.1314  0.0187 -0.7107
 8925TIP3    H226740   0.786   0.810   2.272  0.8977  0.3116  0.9359
 8926TIP3   OH226741   2.876   2.754   2.151 -0.2094 -0.1186 -0.2048
 8926TIP3    H126742   2.921   2.717   2.227  1.1405  0.6062 -0.6195
 8926TIP3    H226743   2.894   2.848   2.156  1.2036 -0.2276 -2.2369
 8927TIP3   OH226744   6.936   4.294   0.832  0.0703 -0.1353  0.5300
 8927TIP3    H126745   6.943   4.389   0.830  0.5766 -0.1591 -1.2610
 8927TIP3    H226746   7.026   4.263   0.846  0.3548 -0.3156 -1.3466
 8928TIP3   OH226747   3.033   4.735   3.182 -0.5772  0.2434  0.0245
 8928TIP3    H126748   3.066   4.664   3.126 -2.0766 -0.3201 -0.1723
 8928TIP3    H226749   3.111   4.765   3.229  0.2104 -1.0965 -0.3519
 8929TIP3   OH226750   0.562   0.326   0.799  0.0140  0.3699  0.0167
 8929TIP3    H126751   0.602   0.413   0.790 -1.4945  1.0090 -0.7758
 8929TIP3    H226752   0.473   0.337   0.767 -0.4460 -1.3060  0.6282
 8930TIP3   OH226753   1.144   1.022   0.051  0.0653 -0.3166 -0.3555
 8930TIP3    H126754   1.057   1.027   0.010  0.5584  1.4240 -1.2651
 8930TIP3    H226755   1.135   0.954   0.118 -1.9069 -0.3854 -0.6379
 8931TIP3   OH226756   4.711   2.852   2.394  0.5683  0.6453 -0.5241
 8931TIP3    H126757   4.627   2.809   2.409  1.6485 -1.7525 -0.8623
 8931TIP3    H226758   4.708   2.881   2.303  1.1163 -2.0557 -1.4848
 8932TIP3   OH226759   4.912   0.826   2.697 -0.0193 -0.4269  0.1198
 8932TIP3    H126760   4.840   0.809   2.758  1.7811  1.7537  3.0716
 8932TIP3    H226761   4.883   0.901   2.646 -0.4779 -0.6118  0.1009
 8933TIP3   OH226762   1.559   3.751   0.921 -0.4021  0.3067 -0.3861
 8933TIP3    H126763   1.569   3.843   0.946 -0.4993 -0.0641  1.1075
 8933TIP3    H226764   1.611   3.742   0.841 -1.5564  1.9805 -1.3942
 8934TIP3   OH226765   1.620   2.454   5.526 -0.7437 -0.2000  0.0281
 8934TIP3    H126766   1.531   2.470   5.495 -0.6233  0.1024 -0.1712
 8934TIP3    H226767   1.614   2.373   5.576 -0.8461 -1.0064 -1.2491
 8935TIP3   OH226768   3.910   3.708   2.761 -0.2896  0.2413 -0.0675
 8935TIP3    H126769   4.001   3.693   2.787 -0.1036 -0.8578 -1.2752
 8935TIP3    H226770   3.911   3.702   2.666 -1.7012 -0.1323 -0.0774
 8936TIP3   OH226771   3.990   0.421   0.633  0.8795 -0.1054  0.1742
 8936TIP3    H126772   4.067   0.401   0.686  0.2347  1.5430  1.8837
 8936TIP3    H226773   4.016   0.498   0.582  1.3668 -1.4591 -1.7056
 8937TIP3   OH226774   4.692   4.336   4.415  0.2275  0.8971 -0.2915
 8937TIP3    H126775   4.756   4.276   4.453  0.6410  1.0318 -0.7689
 8937TIP3    H226776   4.727   4.423   4.433  0.1433  0.9724 -0.4925
 8938TIP3   OH226777   3.940   1.580   1.721  0.2789 -0.0433 -0.5977
 8938TIP3    H126778   3.885   1.537   1.656  0.5841  0.5560 -1.2688
 8938TIP3    H226779   3.888   1.580   1.801 -0.1327 -0.7167 -0.8598
 8939TIP3   OH226780   6.880   4.254   1.136  0.4691 -0.6985 -0.2195
 8939TIP3    H126781   6.806   4.198   1.162 -0.0354 -1.1165 -2.3605
 8939TIP3    H226782   6.958   4.205   1.162  0.0165 -1.9475 -1.1349
 8940TIP3   OH226783   5.708   2.227   1.323 -0.2707  0.4119 -0.2761
 8940TIP3    H126784   5.628   2.222   1.375 -0.2047 -1.3648 -0.3088
 8940TIP3    H226785   5.777   2.196   1.382  0.0862  0.0881 -0.8554
 8941TIP3   OH226786   6.132   6.049   4.160  0.2482  0.3038  0.1797
 8941TIP3    H126787   6.082   6.061   4.241  0.8480  1.0250  0.4450
 8941TIP3    H226788   6.094   6.111   4.099 -1.1043 -1.1510 -0.5477
 8942TIP3   OH226789   3.719   2.806   5.202 -0.4222  0.2561 -0.6622
 8942TIP3    H126790   3.708   2.717   5.235 -1.0967 -0.6062 -3.0356
 8942TIP3    H226791   3.647   2.855   5.241  0.5659  0.1100  1.5310
 8943TIP3   OH226792   5.118   3.386   2.481 -0.4390 -0.5167 -0.0048
 8943TIP3    H126793   5.125   3.480   2.496  0.3691 -0.4617 -0.6825
 8943TIP3    H226794   5.153   3.373   2.393  0.5401 -1.5941  0.5212
 8944TIP3   OH226795   1.408   2.504   2.263  0.0878 -0.1127  0.4918
 8944TIP3    H126796   1.462   2.504   2.342  1.8402  0.6908 -0.6347
 8944TIP3    H226797   1.340   2.570   2.281 -0.0779 -0.5687  1.6390
 8945TIP3   OH226798   2.397   3.146   2.587 -0.2772  0.7693  0.2945
 8945TIP3    H126799   2.328   3.124   2.650 -0.2707 -1.9036 -0.4812
 8945TIP3    H226800   2.429   3.061   2.558  1.6523  1.9536 -1.2303
 8946TIP3   OH226801   6.928   6.524   1.315 -0.3815  0.1552  0.1578
 8946TIP3    H126802   6.914   6.612   1.280  0.3613  0.6470  1.0517
 8946TIP3    H226803   7.006   6.492   1.269 -1.8277 -0.8883 -1.6886
 8947TIP3   OH226804   3.900   4.348   3.376  0.3943 -0.1922  0.1119
 8947TIP3    H126805   3.923   4.346   3.469  0.2279  1.5483  0.2079
 8947TIP3    H226806   3.805   4.349   3.374  0.3859 -0.7381 -0.1133
 8948TIP3   OH226807   4.421   3.368   2.064 -0.2046 -0.3359  0.2750
 8948TIP3    H126808   4.438   3.275   2.057  1.0226 -0.1022 -0.0171
 8948TIP3    H226809   4.435   3.389   2.156  1.9367 -0.0138 -0.0824
 8949TIP3   OH226810   2.080   6.128   3.436  0.3010  0.0632  0.4646
 8949TIP3    H126811   2.056   6.219   3.454 -1.8208 -0.5379  0.9409
 8949TIP3    H226812   2.097   6.126   3.342 -0.1487  0.8394  0.3605
 8950TIP3   OH226813   7.092   1.458   1.920 -0.7607 -0.1989 -0.1947
 8950TIP3    H126814   7.020   1.510   1.955 -0.1407 -0.9570  2.4385
 8950TIP3    H226815   7.079   1.459   1.825 -2.8392  1.6487  0.0427
 8951TIP3   OH226816   6.685   5.037   0.432 -0.0958 -0.4541 -0.1651
 8951TIP3    H126817   6.735   5.030   0.513 -2.4088  0.5996  1.4744
 8951TIP3    H226818   6.733   4.983   0.369  2.4077 -0.3983  1.5548
 8952TIP3   OH226819   1.662   6.038   5.510 -0.4544 -0.0688  0.0363
 8952TIP3    H126820   1.711   5.999   5.437  0.5908 -2.0587  1.7011
 8952TIP3    H226821   1.632   6.123   5.476  1.0672 -0.3603 -2.2581
 8953TIP3   OH226822   1.799   6.625   1.396  0.4941  0.1654  0.5388
 8953TIP3    H126823   1.828   6.713   1.372 -1.8265  0.6386 -0.8913
 8953TIP3    H226824   1.797   6.625   1.492  1.5184  1.3012  0.5738
 8954TIP3   OH226825   5.406   6.191   0.821  1.3322 -0.0252  0.5739
 8954TIP3    H126826   5.460   6.115   0.801  2.4383  1.2129 -1.4422
 8954TIP3    H226827   5.317   6.164   0.797  1.7458 -0.6119 -0.3306
 8955TIP3   OH226828   4.255   6.352   5.247 -0.2318 -0.2725  0.2661
 8955TIP3    H126829   4.170   6.320   5.219 -0.4798 -0.2536  0.9787
 8955TIP3    H226830   4.283   6.411   5.177 -1.0199  0.1021  0.2620
 8956TIP3   OH226831   5.804   3.963   4.072 -0.0624 -0.3498 -0.4902
 8956TIP3    H126832   5.737   3.894   4.078 -0.3766  0.0844  1.9613
 8956TIP3    H226833   5.825   3.967   3.979 -1.5951 -2.2655 -0.9993
 8957TIP3   OH226834   0.257   2.790   5.707  0.2585  0.1924  0.3282
 8957TIP3    H126835   0.227   2.864   5.655  3.1618 -0.8649 -3.3205
 8957TIP3    H226836   0.344   2.817   5.739  1.3502 -1.4638 -1.0270
 8958TIP3   OH226837   2.499   2.344   2.491  0.1946  0.5561 -0.0033
 8958TIP3    H126838   2.559   2.372   2.561 -1.3404  2.0613  0.7939
 8958TIP3    H226839   2.544   2.368   2.410  1.7597 -0.6831  0.4444
 8959TIP3   OH226840   3.702   2.674   3.739 -0.4022  0.2015  0.1951
 8959TIP3    H126841   3.622   2.622   3.741 -0.6644  0.5947  0.0868
 8959TIP3    H226842   3.713   2.698   3.647 -0.0762  0.0228  0.1854
 8960TIP3   OH226843   2.126   5.691   5.640  0.5372  0.0140  0.3905
 8960TIP3    H126844   2.151   5.765   5.696  0.2962  0.1703  0.2904
 8960TIP3    H226845   2.123   5.616   5.700 -0.0317  0.2380  0.6478
 8961TIP3   OH226846   1.926   3.719   5.578  0.0312 -0.6677  0.0985
 8961TIP3    H126847   1.927   3.807   5.615  2.5939 -0.9926  1.0159
 8961TIP3    H226848   1.870   3.726   5.501  1.7064  2.3225 -1.0412
 8962TIP3   OH226849   2.007   2.430   2.202 -0.3854  0.1891 -0.1766
 8962TIP3    H126850   2.015   2.370   2.276 -0.6531 -0.4648 -0.6597
 8962TIP3    H226851   2.079   2.492   2.213 -0.5336  0.2150  0.7247
 8963TIP3   OH226852   1.787   0.647   3.236 -0.4970  0.3093  0.3453
 8963TIP3    H126853   1.720   0.676   3.298 -1.0114  0.6686 -0.3718
 8963TIP3    H226854   1.762   0.556   3.216 -2.0993  1.1023 -1.6079
 8964TIP3   OH226855   5.013   5.986   5.595  0.7797 -0.1854 -0.1746
 8964TIP3    H126856   5.079   5.942   5.649 -0.4054 -1.8356  0.0106
 8964TIP3    H226857   5.025   5.951   5.508  2.3998  2.1545 -0.9962
 8965TIP3   OH226858   1.507   1.763   5.373  0.4602 -0.0264 -0.6995
 8965TIP3    H126859   1.471   1.680   5.406 -0.4745  0.3379 -0.7869
 8965TIP3    H226860   1.599   1.743   5.356  0.8104 -0.4339  1.4150
 8966TIP3   OH226861   7.045   3.828   3.322 -0.5512  0.2161 -0.2845
 8966TIP3    H126862   6.954   3.850   3.303 -0.0265  2.1963 -0.7596
 8966TIP3    H226863   7.086   3.817   3.236 -0.4133 -1.1695 -0.0703
 8967TIP3   OH226864   6.444   0.415   2.853  0.7828  0.1300 -0.2413
 8967TIP3    H126865   6.364   0.379   2.890  0.0289  1.5763 -0.3855
 8967TIP3    H226866   6.451   0.375   2.766  0.2710 -0.0737 -0.1892
 8968TIP3   OH226867   6.029   3.314   1.467 -0.4743 -0.1991 -0.7754
 8968TIP3    H126868   6.033   3.367   1.547  0.3816  0.3431 -1.1552
 8968TIP3    H226869   5.950   3.344   1.423 -1.4369 -1.1106  0.2533
 8969TIP3   OH226870   3.543   0.041   3.737 -0.4281 -0.3750  0.0897
 8969TIP3    H126871   3.490  -0.032   3.703 -0.0456  0.1469 -1.7277
 8969TIP3    H226872   3.626   0.034   3.689 -0.0497  0.7160  0.5701
 8970TIP3   OH226873   5.635   5.943   2.406 -0.5296  0.2711  0.0115
 8970TIP3    H126874   5.585   6.005   2.458 -1.6397 -1.2889  0.8953
 8970TIP3    H226875   5.595   5.858   2.425  0.0983 -0.5767 -2.1193
 8971TIP3   OH226876   6.952   2.731   5.735  0.1412  0.3379 -0.2821
 8971TIP3    H126877   7.045   2.739   5.756  0.1338 -3.8203  2.5940
 8971TIP3    H226878   6.951   2.683   5.652  0.4722  0.9536 -0.6587
 8972TIP3   OH226879   6.767   4.113   2.238  0.0225  0.0830  0.0919
 8972TIP3    H126880   6.821   4.037   2.216 -1.4726 -0.8530 -0.4313
 8972TIP3    H226881   6.766   4.114   2.334 -0.1744 -0.7216  0.1032
 8973TIP3   OH226882   0.779   4.781   4.035 -0.1026  0.6940  0.4411
 8973TIP3    H126883   0.803   4.847   3.970  0.5690 -0.0081 -0.0330
 8973TIP3    H226884   0.857   4.726   4.044 -0.8852 -0.4607  0.3151
 8974TIP3   OH226885   1.315   5.630   2.832 -0.5269 -0.7905  0.3949
 8974TIP3    H126886   1.357   5.571   2.894  0.0414 -0.3321  0.4552
 8974TIP3    H226887   1.348   5.601   2.747 -2.1311 -2.1105  0.1686
 8975TIP3   OH226888   0.945   2.714   3.886 -0.1352  0.0495 -0.0478
 8975TIP3    H126889   0.931   2.628   3.924  1.6075  0.2313  1.0929
 8975TIP3    H226890   0.938   2.774   3.960  1.3409  0.6119 -0.3479
 8976TIP3   OH226891   4.219   1.574   0.829  0.3562  0.1034  0.1361
 8976TIP3    H126892   4.206   1.579   0.924 -0.8043 -0.6570  0.0336
 8976TIP3    H226893   4.241   1.663   0.804 -0.7266  0.6186  0.9318
 8977TIP3   OH226894   2.113   5.782   2.472  0.1813  0.0457  0.0819
 8977TIP3    H126895   2.118   5.696   2.429 -0.9187  0.1699 -0.3351
 8977TIP3    H226896   2.109   5.845   2.400 -1.7593  0.2483  0.3044
 8978TIP3   OH226897   6.164   5.699   3.138  0.5474 -0.3066 -0.3177
 8978TIP3    H126898   6.252   5.679   3.105  0.3700 -2.2217  0.2417
 8978TIP3    H226899   6.156   5.647   3.218 -1.7686 -1.7336 -1.3523
 8979TIP3   OH226900   2.391   5.028   0.182  0.6004  0.4269  0.2928
 8979TIP3    H126901   2.423   5.014   0.271  0.7519  2.2313  0.5602
 8979TIP3    H226902   2.351   4.944   0.157  0.3793 -0.0440  2.1242
 8980TIP3   OH226903   3.722   0.791   4.716 -0.4330  0.3348 -0.1044
 8980TIP3    H126904   3.739   0.791   4.810 -1.1811 -2.1357  0.1018
 8980TIP3    H226905   3.658   0.861   4.703 -0.4602  0.5814  1.2567
 8981TIP3   OH226906   6.245   4.262   1.722  0.4831 -0.6973  0.1481
 8981TIP3    H126907   6.193   4.322   1.775  0.5935 -0.0739 -0.4335
 8981TIP3    H226908   6.180   4.211   1.672  0.3787  1.3985 -2.0368
 8982TIP3   OH226909   6.971   5.599   2.183 -0.1080 -0.1351  0.3105
 8982TIP3    H126910   6.942   5.625   2.096  0.6183 -0.7145 -0.1216
 8982TIP3    H226911   6.947   5.673   2.240 -0.3243  0.3736 -0.4306
 8983TIP3   OH226912   2.159   5.503   0.340 -0.2592 -0.1993  0.1850
 8983TIP3    H126913   2.133   5.528   0.251  0.9931  0.7692  0.0644
 8983TIP3    H226914   2.105   5.556   0.397  1.0439  1.4731 -0.0565
 8984TIP3   OH226915   0.123   6.260   2.940 -0.1785 -0.2143  0.2095
 8984TIP3    H126916   0.133   6.186   2.880  2.3407 -0.1616  0.4476
 8984TIP3    H226917   0.072   6.324   2.891 -1.4546 -1.6298 -0.4062
 8985TIP3   OH226918   4.475   6.635   5.320 -0.1940 -0.3573 -0.2047
 8985TIP3    H126919   4.536   6.579   5.366  0.2159  0.4572  0.2617
 8985TIP3    H226920   4.496   6.622   5.227  1.7819  1.0679 -0.0245
 8986TIP3   OH226921   6.472   2.034   1.353  0.0953  0.0173  0.1177
 8986TIP3    H126922   6.440   1.979   1.281  0.6317 -0.2326  0.0666
 8986TIP3    H226923   6.441   2.122   1.330 -1.1014 -0.3093  0.4005
 8987TIP3   OH226924   5.227   0.427   1.374 -0.1450  0.3407  0.0128
 8987TIP3    H126925   5.164   0.358   1.394 -1.2269  1.3524  0.1986
 8987TIP3    H226926   5.257   0.457   1.460 -0.3646  0.7098 -0.0371
 8988TIP3   OH226927   2.350   2.323   4.730  0.4086  0.2006  0.3296
 8988TIP3    H126928   2.284   2.353   4.793  1.3187 -1.2868  2.1195
 8988TIP3    H226929   2.403   2.260   4.780  0.9127 -1.4300 -2.0956
 8989TIP3   OH226930   7.150   6.732   1.600  0.0180  0.7822  0.4832
 8989TIP3    H126931   7.098   6.801   1.559  0.6328  0.4565 -0.8804
 8989TIP3    H226932   7.086   6.666   1.625 -0.4700  1.4132  0.9275
 8990TIP3   OH226933   5.964   4.798   5.176  0.4135 -0.0807 -0.2270
 8990TIP3    H126934   5.914   4.877   5.156  0.3957 -0.2237 -0.7815
 8990TIP3    H226935   5.924   4.764   5.256  1.0123  0.9602  0.5277
 8991TIP3   OH226936   0.364   4.474   3.942 -0.1768  0.1683 -0.1258
 8991TIP3    H126937   0.392   4.498   4.030  0.9020 -0.1489 -0.3733
 8991TIP3    H226938   0.270   4.457   3.950  0.2093 -1.4877  1.3125
 8992TIP3   OH226939   1.869   1.111   0.684 -0.0969 -0.0019 -0.2230
 8992TIP3    H126940   1.879   1.031   0.735 -0.9279  0.5362  0.8243
 8992TIP3    H226941   1.800   1.090   0.621  0.7756 -0.5954 -1.0037
 8993TIP3   OH226942   7.053   5.627   0.869 -0.5287  0.0277  0.2066
 8993TIP3    H126943   7.039   5.646   0.962 -0.0127 -0.2692  0.3504
 8993TIP3    H226944   6.971   5.653   0.826 -0.8434 -0.0143  0.7729
 8994TIP3   OH226945   1.262   3.299   0.492 -0.5613  0.4387  0.1798
 8994TIP3    H126946   1.264   3.226   0.553  0.8698 -0.0961 -0.4621
 8994TIP3    H226947   1.281   3.376   0.545  0.0121  0.0688  0.5128
 8995TIP3   OH226948   5.566   0.848   3.550 -0.8515  0.5530 -0.0315
 8995TIP3    H126949   5.620   0.902   3.608 -0.3638  0.5800 -0.5021
 8995TIP3    H226950   5.562   0.763   3.593 -0.4436  0.5559  0.0191
 8996TIP3   OH226951   4.700   2.818   4.193  0.4254 -0.1051 -0.1302
 8996TIP3    H126952   4.796   2.817   4.185  0.3292 -0.4074 -1.6077
 8996TIP3    H226953   4.669   2.819   4.102 -0.9715  0.8044  0.3231
 8997TIP3   OH226954   4.563   0.525   0.300  0.1311 -0.3355 -0.0141
 8997TIP3    H126955   4.574   0.443   0.252 -0.6937 -1.8109  2.1440
 8997TIP3    H226956   4.528   0.587   0.236 -0.5578 -2.0710 -1.3867
 8998TIP3   OH226957   0.934   2.195   3.044  0.1702 -0.1115  0.4181
 8998TIP3    H126958   0.895   2.240   3.118 -0.4489  0.9456 -0.5196
 8998TIP3    H226959   1.002   2.256   3.012 -1.8655  1.0865 -1.9668
 8999TIP3   OH226960   6.943   5.208   2.672  0.2324  0.5198  0.3293
 8999TIP3    H126961   6.866   5.216   2.615  0.5700  0.7924 -0.0980
 8999TIP3    H226962   6.943   5.288   2.724 -0.2297  0.1463  0.9154
 9000TIP3   OH226963   1.019   2.881   0.589  0.0666  0.0469 -0.4850
 9000TIP3    H126964   0.952   2.813   0.598 -0.2042  0.4732  1.0513
 9000TIP3    H226965   1.099   2.839   0.618  0.1845 -0.0388 -0.9323
 9001TIP3   OH226966   5.084   2.946   0.054  0.3048  0.2324  0.2502
 9001TIP3    H126967   5.016   2.886   0.083 -0.4525  1.4986  1.2228
 9001TIP3    H226968   5.043   2.995  -0.018  0.7353 -0.0564 -0.1953
 9002TIP3   OH226969   6.813   1.806   5.782  0.0600 -0.5248 -0.0647
 9002TIP3    H126970   6.797   1.897   5.759 -0.8099 -0.5350  0.4671
 9002TIP3    H226971   6.896   1.807   5.829  1.2392 -0.3324 -2.0279
 9003TIP3   OH226972   5.527   3.611   2.496 -0.8287 -0.0851  0.3948
 9003TIP3    H126973   5.432   3.626   2.491 -0.8335 -0.4586 -1.3305
 9003TIP3    H226974   5.537   3.544   2.563 -1.8271 -0.3370  0.3159
 9004TIP3   OH226975   3.466   5.354   1.707  0.1643 -0.0020  0.4241
 9004TIP3    H126976   3.501   5.437   1.738 -2.1725  1.0733  0.3833
 9004TIP3    H226977   3.376   5.374   1.681 -0.9738 -2.8520  1.7863
 9005TIP3   OH226978   5.892   4.433   4.763 -0.2038  0.3644 -0.2110
 9005TIP3    H126979   5.946   4.511   4.762  0.4386 -0.0479 -2.1911
 9005TIP3    H226980   5.826   4.449   4.695  0.1134 -0.8999 -0.8503
 9006TIP3   OH226981   3.875   4.297   5.681 -0.5896 -0.1800  0.0156
 9006TIP3    H126982   3.910   4.291   5.770 -0.9470  0.2864  0.1926
 9006TIP3    H226983   3.902   4.215   5.639 -1.5595 -1.0278  0.9588
 9007TIP3   OH226984   1.245   6.745   5.631  0.2483 -0.6180 -0.3156
 9007TIP3    H126985   1.211   6.662   5.664  1.0466 -0.6737  0.4051
 9007TIP3    H226986   1.339   6.731   5.624  0.4903  0.4482  0.5224
 9008TIP3   OH226987   1.773   3.313   0.897  0.0040  0.0516  0.2062
 9008TIP3    H126988   1.808   3.378   0.835 -0.8265  0.9861  0.6883
 9008TIP3    H226989   1.735   3.365   0.967  0.5663 -0.9913  1.3179
 9009TIP3   OH226990   2.630   5.245   5.341  0.1709 -0.1292 -0.4022
 9009TIP3    H126991   2.625   5.160   5.383  0.6863  0.0959  0.1307
 9009TIP3    H226992   2.625   5.226   5.247 -0.6116 -0.6647 -0.2586
 9010TIP3   OH226993   3.994   5.799   3.358 -0.3950  0.3130 -0.2482
 9010TIP3    H126994   3.920   5.822   3.302 -0.0081  0.0546 -0.8744
 9010TIP3    H226995   4.033   5.723   3.316  0.2048  0.4243  0.0961
 9011TIP3   OH226996   6.547   0.203   3.762  0.5059  0.3970  0.6394
 9011TIP3    H126997   6.575   0.121   3.722 -1.1970 -0.5735  1.2884
 9011TIP3    H226998   6.610   0.218   3.833  1.4355  0.2184 -0.1357
 9012TIP3   OH226999   1.066   0.687   0.947  0.4659 -0.3154  0.2493
 9012TIP3    H127000   1.115   0.607   0.931 -0.5236 -0.7359 -0.7982
 9012TIP3    H227001   1.075   0.702   1.042  0.1428 -2.0093  0.5776
 9013TIP3   OH227002   3.190   3.990   5.819 -0.7217  0.1900 -0.4147
 9013TIP3    H127003   3.242   3.949   5.888 -1.5896 -0.6092 -0.2321
 9013TIP3    H227004   3.179   3.922   5.753 -2.5923 -0.0606  0.1170
 9014TIP3   OH227005   2.914   0.591   3.705 -0.7494 -0.5378  0.3355
 9014TIP3    H127006   2.942   0.658   3.642  0.8002 -0.4668  1.0405
 9014TIP3    H227007   2.988   0.583   3.765 -0.3764 -3.6947 -0.3560
 9015TIP3   OH227008   3.137   6.412   1.713  0.3663 -0.4011  0.2699
 9015TIP3    H127009   3.091   6.337   1.676  1.6418 -0.3097 -1.6853
 9015TIP3    H227010   3.169   6.382   1.797 -1.0051 -1.2978  0.5121
 9016TIP3   OH227011   1.965   6.409   4.029  0.2510 -0.1339 -0.0655
 9016TIP3    H127012   1.955   6.468   4.105 -0.3675 -1.4654  0.9267
 9016TIP3    H227013   1.876   6.392   4.000  0.5096  1.0128 -1.6595
 9017TIP3   OH227014   1.865   3.048   2.262 -0.5939  0.5478  0.0255
 9017TIP3    H127015   1.827   3.118   2.209  3.1611  0.7367 -2.8232
 9017TIP3    H227016   1.857   2.969   2.209  1.7198  0.3727 -0.1580
 9018TIP3   OH227017   3.559   1.825   1.615 -0.1972 -0.3939  0.2586
 9018TIP3    H127018   3.484   1.885   1.624 -0.0731 -0.5017  2.4362
 9018TIP3    H227019   3.523   1.739   1.639 -0.0066 -0.9547 -1.3791
 9019TIP3   OH227020   3.308   0.987   4.746  0.1553 -0.0249 -0.0177
 9019TIP3    H127021   3.365   1.063   4.738 -0.4336  0.3498 -0.8031
 9019TIP3    H227022   3.339   0.941   4.824  2.0630 -0.2924 -0.8905
 9020TIP3   OH227023   6.378   1.008   4.597  0.3407  0.3220  0.1539
 9020TIP3    H127024   6.357   1.076   4.533 -0.9610 -0.3659 -0.1696
 9020TIP3    H227025   6.294   0.968   4.619  0.7377  0.5296  2.3104
 9021TIP3   OH227026   3.623   1.804   0.677 -0.3797  0.5899 -0.1319
 9021TIP3    H127027   3.653   1.801   0.767  0.5005  3.4865 -0.2261
 9021TIP3    H227028   3.644   1.718   0.641  1.4148  0.1793  1.7579
 9022TIP3   OH227029   4.491   1.253   1.470 -0.0272 -0.1482  0.9660
 9022TIP3    H127030   4.477   1.167   1.431 -0.2999  0.3585 -0.0712
 9022TIP3    H227031   4.578   1.279   1.441 -0.9706  1.0679 -0.9971
 9023TIP3   OH227032   0.043   5.975   1.748  0.9552  0.6017 -0.1085
 9023TIP3    H127033   0.057   5.923   1.827 -1.3449  1.2602  0.8149
 9023TIP3    H227034   0.112   5.947   1.688  1.0333 -2.0235  1.0802
 9024TIP3   OH227035   2.151   3.946   4.034 -0.2622  0.2833 -0.3532
 9024TIP3    H127036   2.120   4.033   4.006 -0.3695  0.2705 -0.2765
 9024TIP3    H227037   2.090   3.885   3.993 -0.5463  0.2744  0.0791
 9025TIP3   OH227038   5.005   6.651   3.053  0.2369  0.0607 -0.4759
 9025TIP3    H127039   5.095   6.621   3.043  0.2774  0.3321 -0.9078
 9025TIP3    H227040   5.012   6.729   3.108  0.1995 -0.2924  0.0385
 9026TIP3   OH227041   5.644   2.164   4.628 -0.3900 -0.5511 -1.0379
 9026TIP3    H127042   5.629   2.140   4.720  1.3833 -0.2972 -0.6488
 9026TIP3    H227043   5.599   2.096   4.578 -1.3250 -0.7329  0.0088
 9027TIP3   OH227044   4.283   4.368   1.975 -0.6836  0.3361  0.6052
 9027TIP3    H127045   4.329   4.288   2.001 -0.4757  0.0600 -0.5600
 9027TIP3    H227046   4.201   4.366   2.023  0.1224  0.3780  2.0334
 9028TIP3   OH227047   3.975   3.176   5.633  0.0875 -0.0882  0.6816
 9028TIP3    H127048   3.889   3.165   5.593 -0.1869 -0.2019  1.2917
 9028TIP3    H227049   3.982   3.103   5.695  0.6107 -0.0643  0.6526
 9029TIP3   OH227050  -0.009   4.834   4.466 -0.2566 -0.1664 -0.3969
 9029TIP3    H127051   0.039   4.788   4.397  1.9870  2.6067 -0.9143
 9029TIP3    H227052   0.030   4.804   4.547  0.8662  0.3980 -0.7026
 9030TIP3   OH227053   0.336   2.054   2.832  0.1957  0.4412  0.0377
 9030TIP3    H127054   0.367   2.111   2.762 -1.1674  1.3024  0.1096
 9030TIP3    H227055   0.390   1.975   2.824  0.9470  1.0445 -1.1404
 9031TIP3   OH227056   4.981   1.818   4.755  0.3482 -0.2229 -0.2035
 9031TIP3    H127057   4.915   1.764   4.712 -1.0804  1.3371 -0.0538
 9031TIP3    H227058   4.951   1.826   4.846  2.7138 -2.5046  0.9420
 9032TIP3   OH227059   4.962   2.883   2.035  0.3763  0.2109 -0.5671
 9032TIP3    H127060   5.015   2.955   2.001  0.4282 -0.7967 -2.8334
 9032TIP3    H227061   5.023   2.810   2.042 -0.2879 -0.4591 -1.4228
 9033TIP3   OH227062   1.132   3.682   4.208 -0.0165  0.1348  0.4665
 9033TIP3    H127063   1.093   3.595   4.217 -1.5158  0.6813 -0.3577
 9033TIP3    H227064   1.068   3.741   4.248  0.1667  1.0167 -0.5070
 9034TIP3   OH227065   6.956   5.920   3.890  0.3876 -0.5844  0.2705
 9034TIP3    H127066   6.906   5.866   3.829 -0.4907  0.0690  0.3968
 9034TIP3    H227067   6.898   5.993   3.911  1.9461  1.0161 -0.7497
 9035TIP3   OH227068   6.995   2.407   5.151 -0.1294 -0.7031 -0.1633
 9035TIP3    H127069   6.936   2.395   5.225 -0.6031  1.4763 -0.0990
 9035TIP3    H227070   6.988   2.327   5.101 -0.6878 -1.7730  1.5323
 9036TIP3   OH227071   1.865   5.383   2.197 -0.5036 -0.7675 -0.4207
 9036TIP3    H127072   1.883   5.376   2.103  0.8905 -2.6090 -0.0770
 9036TIP3    H227073   1.870   5.477   2.216 -2.2033 -0.2061 -2.3973
 9037TIP3   OH227074   4.406   1.734   3.889  0.4845 -1.0524 -0.1720
 9037TIP3    H127075   4.463   1.693   3.954 -0.1380 -1.0015  0.4156
 9037TIP3    H227076   4.415   1.828   3.907  0.8384 -1.0020 -0.6080
 9038TIP3   OH227077   0.908   1.757   0.267 -0.0322  0.0056 -0.7211
 9038TIP3    H127078   0.894   1.823   0.199 -1.3084  1.7991  1.1567
 9038TIP3    H227079   0.984   1.789   0.316  0.7831 -1.1958 -1.1448
 9039TIP3   OH227080   1.161   3.557   1.601  0.0830 -0.7778  0.5882
 9039TIP3    H127081   1.242   3.510   1.620  0.1195 -1.2105 -0.5437
 9039TIP3    H227082   1.091   3.498   1.627  0.0823  0.1497  2.8966
 9040TIP3   OH227083   3.582   1.102   4.524  0.2667  0.0597 -0.3539
 9040TIP3    H127084   3.678   1.110   4.527  0.3162 -0.6678  0.3760
 9040TIP3    H227085   3.566   1.030   4.462  0.2258 -0.2458  0.0076
 9041TIP3   OH227086   1.326   3.894   0.833 -0.0548  0.2238 -0.1271
 9041TIP3    H127087   1.374   3.817   0.863 -0.9776 -0.2843  0.0772
 9041TIP3    H227088   1.246   3.859   0.795  0.7895  0.8691 -2.7194
 9042TIP3   OH227089   1.443   1.448   5.522 -0.1749 -0.0236  0.5411
 9042TIP3    H127090   1.395   1.468   5.442  0.5966  1.8919  0.5002
 9042TIP3    H227091   1.379   1.406   5.579 -1.9505  2.4806  0.5029
 9043TIP3   OH227092   2.425   1.534   3.605 -0.0800 -0.2348  0.6186
 9043TIP3    H127093   2.330   1.544   3.595  0.0149 -0.3317 -0.5301
 9043TIP3    H227094   2.443   1.445   3.575  0.6959  0.7043 -1.9809
 9044TIP3   OH227095   0.697   1.340   0.621 -0.2839  0.3233  0.8863
 9044TIP3    H127096   0.654   1.400   0.681  0.1171  0.2026  1.2931
 9044TIP3    H227097   0.763   1.393   0.577 -1.1079  0.6212 -0.0579
 9045TIP3   OH227098   0.800   3.997   5.207 -0.0708 -0.1425 -0.6081
 9045TIP3    H127099   0.881   4.041   5.181  0.7238 -0.3557  1.3291
 9045TIP3    H227100   0.733   4.065   5.206  1.1954  1.3206  2.6378
 9046TIP3   OH227101   2.760   1.977   4.638  0.7993  0.1038  0.7091
 9046TIP3    H127102   2.694   1.989   4.569 -0.2749 -0.4294  1.6086
 9046TIP3    H227103   2.835   1.938   4.593  0.5909  0.8843 -0.3707
 9047TIP3   OH227104   5.346   1.565   4.558 -0.1970  0.1301  0.4329
 9047TIP3    H127105   5.299   1.647   4.546  0.4123  0.3885 -0.2953
 9047TIP3    H227106   5.427   1.590   4.602 -0.1376 -0.1168  0.4654
 9048TIP3   OH227107   3.172   3.998   3.838  0.2357 -0.1358  0.7613
 9048TIP3    H127108   3.167   4.049   3.758 -2.2597 -0.5666  0.5709
 9048TIP3    H227109   3.217   4.055   3.900 -0.6675  1.4891 -0.0197
 9049TIP3   OH227110   3.840   1.490   0.188 -0.0252  0.8481 -0.4912
 9049TIP3    H127111   3.755   1.448   0.174  0.0435  0.4085  0.3369
 9049TIP3    H227112   3.901   1.418   0.201  0.1082  1.1817  0.9036
 9050TIP3   OH227113   6.098   5.259   1.528  0.1276 -0.4033  0.8399
 9050TIP3    H127114   6.059   5.173   1.544 -2.3601  0.8743  2.4089
 9050TIP3    H227115   6.124   5.289   1.615  0.9902  0.4341  0.3090
 9051TIP3   OH227116   3.139   1.913   0.985  0.1687  0.3105 -0.0866
 9051TIP3    H127117   3.231   1.895   1.003 -0.1865 -1.1797  0.3509
 9051TIP3    H227118   3.140   1.999   0.944  1.7551  0.3239 -0.1028
 9052TIP3   OH227119   5.581   3.431   3.002 -0.3868  0.2715 -0.1355
 9052TIP3    H127120   5.636   3.393   2.934 -1.5284 -1.5938 -0.0771
 9052TIP3    H227121   5.495   3.441   2.961 -1.2086 -1.2789  1.0719
 9053TIP3   OH227122   1.941   3.330   2.925 -0.0193 -0.2689 -0.2802
 9053TIP3    H127123   2.002   3.381   2.871 -1.0094  2.3011  0.8495
 9053TIP3    H227124   1.855   3.352   2.890 -0.4800 -1.4274  0.0925
 9054TIP3   OH227125   0.583   5.347   2.109  0.2832  0.4238 -0.1134
 9054TIP3    H127126   0.578   5.252   2.094  1.5122  0.3407 -0.1055
 9054TIP3    H227127   0.608   5.383   2.025 -1.1897  0.8787 -0.3891
 9055TIP3   OH227128   3.119   1.822   1.626 -0.4411  0.4957  0.5240
 9055TIP3    H127129   3.128   1.904   1.578  2.3759  0.8808  1.5129
 9055TIP3    H227130   3.104   1.848   1.717  2.6828  0.0856  1.2506
 9056TIP3   OH227131   3.399   6.431   0.888  0.1508  0.8539 -0.1925
 9056TIP3    H127132   3.363   6.486   0.818  0.6918  1.7018  0.1795
 9056TIP3    H227133   3.325   6.379   0.919  0.1697 -0.5248 -2.2690
 9057TIP3   OH227134   6.372   2.270   1.261  0.0864 -0.5190  0.2103
 9057TIP3    H127135   6.303   2.310   1.314  0.5910  0.1541  0.3560
 9057TIP3    H227136   6.367   2.316   1.177 -0.6772 -1.5453 -0.3366
 9058TIP3   OH227137   3.507   1.675   4.463  0.3342  0.0154  0.5136
 9058TIP3    H127138   3.530   1.603   4.522 -0.5489 -1.1200 -0.4524
 9058TIP3    H227139   3.496   1.751   4.520  0.1513 -0.8936  1.7276
 9059TIP3   OH227140   4.463   2.001   3.893 -0.6346 -0.0549 -0.0622
 9059TIP3    H127141   4.421   2.085   3.876 -1.3624 -0.1462  1.1497
 9059TIP3    H227142   4.459   1.991   3.988  0.8464 -0.7497 -0.0500
 9060TIP3   OH227143   2.194   4.675   1.060 -0.6283 -0.0627 -0.1993
 9060TIP3    H127144   2.253   4.611   1.099 -1.2985 -2.2180 -2.4314
 9060TIP3    H227145   2.107   4.643   1.082 -0.9908  1.1035  0.1107
 9061TIP3   OH227146   4.084   4.603   4.027 -0.0905 -0.0670  0.2246
 9061TIP3    H127147   4.114   4.548   4.100 -1.1348  0.0036  0.7267
 9061TIP3    H227148   4.160   4.657   4.005  0.2201 -0.0204  1.3380
 9062TIP3   OH227149   3.851   5.390   4.066  0.2547 -0.4670 -0.0213
 9062TIP3    H127150   3.886   5.334   4.136 -0.7127 -0.4950  0.4493
 9062TIP3    H227151   3.814   5.466   4.111  1.0269  0.2869 -0.6171
 9063TIP3   OH227152   6.336   0.410   1.597 -0.0729 -0.1762  0.2616
 9063TIP3    H127153   6.358   0.331   1.547  1.6669  0.2274  0.3181
 9063TIP3    H227154   6.324   0.477   1.530  2.4056  0.3994  0.3089
 9064TIP3   OH227155   1.841   5.888   1.332 -0.4284 -0.3173 -0.2579
 9064TIP3    H127156   1.861   5.795   1.332  1.1758 -0.0130  0.8753
 9064TIP3    H227157   1.887   5.922   1.255  0.2131 -0.2476  0.1467
 9065TIP3   OH227158   4.555   6.531   0.430  0.2044  0.1716  0.2591
 9065TIP3    H127159   4.624   6.485   0.382 -0.0504 -0.5699  0.5955
 9065TIP3    H227160   4.511   6.584   0.364  0.1498 -0.4907 -0.2340
 9066TIP3   OH227161   7.008   2.581   2.955  0.4767 -0.2974  0.2656
 9066TIP3    H127162   7.042   2.520   2.890  1.1583 -0.4200  0.7273
 9066TIP3    H227163   7.066   2.657   2.949  0.0718  0.0097  0.1960
 9067TIP3   OH227164   1.898   5.960   1.913  0.7020  0.0337  0.4318
 9067TIP3    H127165   1.852   6.011   1.847  0.7610  0.7748  0.9587
 9067TIP3    H227166   1.878   5.869   1.891  1.2503  0.2293 -0.9932
 9068TIP3   OH227167   0.265   1.934   0.159 -0.0879  0.2738  0.5730
 9068TIP3    H127168   0.314   1.994   0.216  2.2494 -1.2077  0.2815
 9068TIP3    H227169   0.301   1.847   0.180  0.6062 -0.3982 -2.8075
 9069TIP3   OH227170   6.600   5.030   5.767  0.1824  0.3050  0.1869
 9069TIP3    H127171   6.652   5.108   5.785  0.1470  1.1742 -2.9970
 9069TIP3    H227172   6.517   5.045   5.813  1.3015  0.6066  2.2303
 9070TIP3   OH227173   4.641   0.943   2.288 -0.3573  0.1692 -0.2121
 9070TIP3    H127174   4.577   0.889   2.242 -2.2116  0.4975  1.8223
 9070TIP3    H227175   4.703   0.970   2.220 -2.1504 -0.4780 -2.2080
 9071TIP3   OH227176   1.934   2.403   5.781 -0.6233  0.2824 -0.0033
 9071TIP3    H127177   1.976   2.487   5.763  0.9491 -0.2577  0.9044
 9071TIP3    H227178   1.882   2.418   5.859 -1.6494  0.7879 -0.7554
 9072TIP3   OH227179   1.311   1.476   3.458  0.2649  0.2422  0.2564
 9072TIP3    H127180   1.405   1.489   3.464  0.4166 -1.2884  2.4459
 9072TIP3    H227181   1.273   1.538   3.520  0.0680 -0.7862  1.2110
 9073TIP3   OH227182   4.611   3.708   2.599 -0.0993 -0.1978 -0.5437
 9073TIP3    H127183   4.656   3.632   2.565 -2.1485 -1.2595 -1.0330
 9073TIP3    H227184   4.547   3.673   2.661  0.7436  1.3672  1.3361
 9074TIP3   OH227185   3.106   4.397   1.331  0.1048 -0.4152 -0.2081
 9074TIP3    H127186   3.084   4.317   1.379  0.7108 -1.1207 -1.0840
 9074TIP3    H227187   3.147   4.453   1.397 -0.0837 -0.9265  0.3553
 9075TIP3   OH227188   6.500   4.913   3.024 -0.3476 -0.0911 -0.1342
 9075TIP3    H127189   6.563   4.922   3.096 -0.4171 -0.2817 -0.0509
 9075TIP3    H227190   6.463   4.826   3.035  0.7763 -0.7355 -1.3139
 9076TIP3   OH227191   2.682   2.268   1.680  0.1532 -0.4022  0.2438
 9076TIP3    H127192   2.690   2.247   1.773 -0.4017 -0.8174  0.2027
 9076TIP3    H227193   2.688   2.363   1.676 -0.3006 -0.3479  0.7634
 9077TIP3   OH227194   3.881   5.022   3.437  0.5970  0.6366  0.1857
 9077TIP3    H127195   3.894   4.933   3.402 -0.6937  0.7825 -0.7625
 9077TIP3    H227196   3.913   5.017   3.527  0.0454 -0.9658  0.3419
 9078TIP3   OH227197   0.735   2.172   3.390  0.4034  0.5195 -0.1099
 9078TIP3    H127198   0.775   2.241   3.336  0.5287 -0.1710 -0.9110
 9078TIP3    H227199   0.774   2.091   3.358  1.2984  0.1491  1.7250
 9079TIP3   OH227200   0.870   2.297   4.538  0.1852  0.3197 -0.1308
 9079TIP3    H127201   0.942   2.294   4.475  0.7356  0.8660  0.4588
 9079TIP3    H227202   0.885   2.222   4.596  1.0314  1.1658  0.7784
 9080TIP3   OH227203   0.812   1.584   0.056  0.4392  0.2269  0.6168
 9080TIP3    H127204   0.802   1.662   0.110 -0.7362  0.1193  0.5858
 9080TIP3    H227205   0.722   1.560   0.032  0.7027 -1.5696  1.2480
 9081TIP3   OH227206   3.984   1.659   0.044  0.4083 -0.4613  0.4159
 9081TIP3    H127207   3.934   1.594   0.093 -0.5115 -0.6775 -0.7670
 9081TIP3    H227208   3.976   1.740   0.094  0.5919 -0.9770  1.2929
 9082TIP3   OH227209   7.092   1.884   4.189 -0.3573  0.1347  0.1051
 9082TIP3    H127210   7.054   1.857   4.272  0.4863 -0.4373  0.3169
 9082TIP3    H227211   7.122   1.802   4.149  0.8797  0.5947  0.0672
 9083TIP3   OH227212   5.903   1.867   5.614 -0.1611 -0.5087  0.3852
 9083TIP3    H127213   5.858   1.941   5.655  0.0400  1.2606 -2.3681
 9083TIP3    H227214   5.995   1.881   5.636 -0.1103  0.1636 -0.2118
 9084TIP3   OH227215   2.745   1.853   4.231 -0.1978  0.1605 -0.4303
 9084TIP3    H127216   2.650   1.862   4.239 -0.2625 -1.2417  0.8794
 9084TIP3    H227217   2.757   1.766   4.193  0.5512  0.7896 -1.6675
 9085TIP3   OH227218   1.071   0.048   4.568 -0.2800 -0.1936  0.1183
 9085TIP3    H127219   1.050  -0.037   4.529  0.4270  0.7330 -2.4156
 9085TIP3    H227220   1.166   0.043   4.585 -0.6741 -0.8440  2.5632
 9086TIP3   OH227221   1.000   2.919   4.126 -0.4434  0.0492  0.2958
 9086TIP3    H127222   1.060   2.910   4.200 -0.5110  0.2607  0.3793
 9086TIP3    H227223   1.044   2.979   4.066 -1.0517  1.1262  0.8827
 9087TIP3   OH227224   5.611   4.378   2.416  0.5923 -0.2166  0.3002
 9087TIP3    H127225   5.518   4.378   2.439  1.0048 -0.3554  2.0574
 9087TIP3    H227226   5.616   4.318   2.341 -0.9130  0.8995 -0.7710
 9088TIP3   OH227227   5.685   5.889   5.782 -0.5659 -0.1660 -0.7850
 9088TIP3    H127228   5.745   5.877   5.708 -1.9707  2.0170 -2.4275
 9088TIP3    H227229   5.734   5.942   5.845 -0.2090  0.2007 -1.3611
 9089TIP3   OH227230   0.251   1.657   3.252  1.0016 -0.4139  0.3573
 9089TIP3    H127231   0.194   1.713   3.305  0.8443  0.2843 -0.5349
 9089TIP3    H227232   0.311   1.618   3.316  0.4132 -0.0891  1.1333
 9090TIP3   OH227233   7.116   2.587   1.917 -0.1264 -0.3452  0.2558
 9090TIP3    H127234   7.080   2.668   1.880  1.4914 -0.3216 -1.3909
 9090TIP3    H227235   7.041   2.528   1.923 -0.9353  0.5611 -0.5428
 9091TIP3   OH227236   3.467   0.445   3.957  0.1922  0.3813  0.1074
 9091TIP3    H127237   3.548   0.496   3.947 -0.9749  2.3122 -0.1575
 9091TIP3    H227238   3.452   0.405   3.872  1.1058 -0.3865  0.2997
 9092TIP3   OH227239   0.668   3.121   5.550  0.6768  0.0755  0.2787
 9092TIP3    H127240   0.590   3.070   5.532  1.1849 -1.2626  1.6061
 9092TIP3    H227241   0.732   3.093   5.484  0.6131 -0.2087  0.3380
 9093TIP3   OH227242   6.330   1.415   4.907 -0.4899  0.5658  0.0975
 9093TIP3    H127243   6.294   1.335   4.870 -1.7306  0.2792  1.8179
 9093TIP3    H227244   6.285   1.486   4.860  0.0565  0.2730 -0.8958
 9094TIP3   OH227245   4.651   1.618   1.102 -0.0574  0.1732 -0.0495
 9094TIP3    H127246   4.731   1.647   1.145 -0.1901 -0.4800  0.6344
 9094TIP3    H227247   4.581   1.639   1.164 -0.4512  0.9339 -0.7286
 9095TIP3   OH227248   5.666   1.337   5.266  0.5987 -0.0070  0.4388
 9095TIP3    H127249   5.615   1.418   5.271  0.4875 -0.1489  2.3184
 9095TIP3    H227250   5.705   1.328   5.353 -0.0805 -2.4158  0.5734
 9096TIP3   OH227251   4.059   1.330   0.256  0.6979  0.2291  0.0564
 9096TIP3    H127252   4.091   1.240   0.259  0.9862  0.1966 -2.0393
 9096TIP3    H227253   4.137   1.384   0.255  0.5250  0.5239  1.2432
 9097TIP3   OH227254   6.089   1.006   4.180  0.5603 -0.1235 -0.5261
 9097TIP3    H127255   6.148   0.932   4.191  1.2990  0.2924 -1.5121
 9097TIP3    H227256   6.079   1.015   4.085  1.4877  1.7896 -0.5002
 9098TIP3   OH227257   6.266   6.610   1.641 -0.4949  0.2030  0.2099
 9098TIP3    H127258   6.199   6.584   1.578  0.4231 -0.1728 -0.6419
 9098TIP3    H227259   6.231   6.584   1.726 -0.7492 -1.4339 -0.3683
 9099TIP3   OH227260   4.131   1.359   3.816  0.3172  0.3332  0.1603
 9099TIP3    H127261   4.052   1.365   3.762  0.6307 -1.6203 -0.6326
 9099TIP3    H227262   4.147   1.265   3.824  2.7350  0.6552  0.0131
 9100TIP3   OH227263   6.492   5.055   4.566  0.4196 -0.0288 -0.2269
 9100TIP3    H127264   6.564   5.025   4.510  2.5503  3.5365  0.2856
 9100TIP3    H227265   6.515   5.022   4.653 -1.4539 -3.2235 -0.7715
 9101TIP3   OH227266   0.232   5.247   2.155 -0.2522 -0.2185  0.1924
 9101TIP3    H127267   0.138   5.234   2.141 -0.7658  1.4381  1.6760
 9101TIP3    H227268   0.266   5.159   2.172 -1.5052 -0.8614 -0.4497
 9102TIP3   OH227269   5.069   2.600   5.104 -0.3207 -0.5540 -0.3202
 9102TIP3    H127270   5.011   2.638   5.170  0.7097 -1.1615  1.0007
 9102TIP3    H227271   5.157   2.623   5.133  0.1576 -0.6379 -1.6343
 9103TIP3   OH227272   4.765   1.217   2.650 -0.9289 -0.6478  0.0650
 9103TIP3    H127273   4.772   1.304   2.611 -0.7031 -0.7028 -0.0199
 9103TIP3    H227274   4.799   1.227   2.739 -1.5326 -0.5011  0.2851
 9104TIP3   OH227275   6.137   3.085   2.784  0.5647 -0.1113 -0.4260
 9104TIP3    H127276   6.170   3.165   2.826  1.0088 -0.8276  0.6244
 9104TIP3    H227277   6.212   3.025   2.783  0.2796 -0.4716 -1.3492
 9105TIP3   OH227278   5.546   6.096   4.499  0.7023  0.1036  0.0004
 9105TIP3    H127279   5.465   6.051   4.476  0.5242  0.5380 -0.2480
 9105TIP3    H227280   5.573   6.058   4.582  0.3405 -0.1706 -0.0070
 9106TIP3   OH227281   6.808   0.721   5.682  0.1300 -0.1497 -0.0523
 9106TIP3    H127282   6.775   0.794   5.735 -0.1466 -0.5916  0.3942
 9106TIP3    H227283   6.888   0.692   5.728 -0.4286 -0.9114  0.4702
 9107TIP3   OH227284   3.388   2.965   2.123 -0.4503 -0.2207  0.1235
 9107TIP3    H127285   3.341   2.906   2.065  0.9723 -0.7456 -0.5512
 9107TIP3    H227286   3.475   2.972   2.085 -0.2239  1.4020  0.8435
 9108TIP3   OH227287   2.070   1.250   2.398  0.1315  0.0214  0.0175
 9108TIP3    H127288   2.151   1.241   2.348  0.5760 -1.5551  0.9418
 9108TIP3    H227289   2.098   1.285   2.483 -0.5573  2.2599 -0.6229
 9109TIP3   OH227290   2.386   6.291   2.095 -0.0138 -0.3382  0.3913
 9109TIP3    H127291   2.406   6.362   2.155 -2.5064 -1.4337  2.7282
 9109TIP3    H227292   2.297   6.310   2.065  0.2176 -1.1985 -0.9243
 9110TIP3   OH227293   2.465   3.133   3.579 -0.1256 -0.3126  0.4126
 9110TIP3    H127294   2.444   3.043   3.604 -2.6497  0.1352  0.1081
 9110TIP3    H227295   2.506   3.125   3.493 -1.9462 -1.1217 -0.4351
 9111TIP3   OH227296   0.831   3.362   1.925 -0.1930 -0.2621  0.0388
 9111TIP3    H127297   0.889   3.427   1.966 -0.4829  0.2844 -0.3990
 9111TIP3    H227298   0.771   3.336   1.994  0.5553 -0.8098  0.4904
 9112TIP3   OH227299   3.462   5.462   5.179 -0.7143 -0.0918  0.2757
 9112TIP3    H127300   3.389   5.471   5.241 -0.2718 -0.2426  0.8325
 9112TIP3    H227301   3.525   5.527   5.207 -0.4211 -0.3013  0.1081
 9113TIP3   OH227302   2.523   6.468   5.208  0.7948 -0.1628 -0.2505
 9113TIP3    H127303   2.430   6.468   5.230  1.0242  1.2532  0.9187
 9113TIP3    H227304   2.545   6.376   5.196 -1.1485 -0.4291 -2.5182
 9114TIP3   OH227305   1.092   0.501   1.603 -0.2114 -0.6602 -0.4692
 9114TIP3    H127306   1.076   0.513   1.509  0.5610 -2.4070 -0.8642
 9114TIP3    H227307   1.142   0.578   1.629 -0.2658 -0.2488 -1.5420
 9115TIP3   OH227308   6.032   3.430   5.906  0.0130 -0.3922 -0.3481
 9115TIP3    H127309   5.941   3.458   5.898  0.1435 -0.2721 -1.6353
 9115TIP3    H227310   6.074   3.461   5.826  1.4460  0.4611  0.6663
 9116TIP3   OH227311   7.216   6.532   0.141  0.6480  0.1244 -0.1803
 9116TIP3    H127312   7.173   6.549   0.225  2.1816 -0.2752  0.7273
 9116TIP3    H227313   7.250   6.442   0.149  3.9013  1.2500  0.2549
 9117TIP3   OH227314   6.802   1.064   1.864 -0.2122 -0.1329  0.0885
 9117TIP3    H127315   6.861   1.118   1.916  0.4394 -0.1071 -0.6512
 9117TIP3    H227316   6.722   1.058   1.916  0.8891 -1.2570  1.7431
 9118TIP3   OH227317   5.496   5.655   5.592 -0.2971  0.7269 -0.2206
 9118TIP3    H127318   5.587   5.661   5.622 -1.0063  1.8760  1.8482
 9118TIP3    H227319   5.474   5.743   5.564 -1.0140  0.6325  0.0373
 9119TIP3   OH227320   1.128   3.730   3.593  0.1731 -0.3073  0.5112
 9119TIP3    H127321   1.088   3.647   3.564 -1.9864  1.3661 -1.7010
 9119TIP3    H227322   1.068   3.763   3.660 -2.4793  2.1859 -2.7776
 9120TIP3   OH227323   4.066   1.831   0.410  0.0011  0.0237  0.1605
 9120TIP3    H127324   4.132   1.898   0.391  0.0894  0.2093  1.0713
 9120TIP3    H227325   4.021   1.817   0.327  0.0705  1.1150 -0.0688
 9121TIP3   OH227326   2.310   3.530   1.105 -0.3610 -0.4093 -0.4570
 9121TIP3    H127327   2.243   3.539   1.037  0.0828  0.8262 -0.7654
 9121TIP3    H227328   2.369   3.463   1.072  0.3555  0.8003 -1.7659
 9122TIP3   OH227329   0.903   3.657   2.764  0.0138 -0.0278  0.2604
 9122TIP3    H127330   0.825   3.629   2.811  0.7820 -1.0217  0.9883
 9122TIP3    H227331   0.907   3.600   2.687 -0.0922  0.1676  0.1094
 9123TIP3   OH227332   4.166   2.636   1.660  0.4994  0.4498 -0.4686
 9123TIP3    H127333   4.075   2.665   1.665 -0.1321 -1.5711  1.4784
 9123TIP3    H227334   4.215   2.716   1.640 -1.5771  1.7851 -0.5870
 9124TIP3   OH227335   2.626   2.838   2.388  0.3967  0.0104  0.1790
 9124TIP3    H127336   2.696   2.814   2.449 -0.5183 -1.7953  0.5941
 9124TIP3    H227337   2.655   2.802   2.304  0.2955 -0.1034  0.1931
 9125TIP3   OH227338   2.383   6.375   3.366 -0.2182 -0.3243  0.4411
 9125TIP3    H127339   2.302   6.403   3.324 -0.9690 -1.2230  1.2555
 9125TIP3    H227340   2.419   6.310   3.306  1.2507  1.8348 -1.1822
 9126TIP3   OH227341   6.956   5.496   0.029 -0.1085 -0.0421  0.2963
 9126TIP3    H127342   7.047   5.525   0.036 -0.1607 -0.1739  1.8318
 9126TIP3    H227343   6.905   5.572   0.056 -0.4751  0.0145 -0.5174
 9127TIP3   OH227344   3.653   1.415   4.258  0.0854 -0.0242  0.1830
 9127TIP3    H127345   3.595   1.477   4.213 -0.0830 -0.9468 -0.9027
 9127TIP3    H227346   3.630   1.424   4.351 -1.6746 -0.2046 -0.2017
 9128TIP3   OH227347   6.752   4.024   1.182 -0.0489 -0.6139  0.2203
 9128TIP3    H127348   6.741   3.955   1.116 -0.6393 -0.5011  0.1978
 9128TIP3    H227349   6.676   4.015   1.240  0.6872 -0.9936  1.1539
 9129TIP3   OH227350   0.382   0.381   4.210 -0.4235 -0.0337  0.1090
 9129TIP3    H127351   0.394   0.372   4.305  1.7161 -1.4775 -0.2158
 9129TIP3    H227352   0.294   0.416   4.200 -1.3167 -1.2955  2.5883
 9130TIP3   OH227353   5.984   2.330   2.005 -0.5201  0.6488 -0.2888
 9130TIP3    H127354   5.962   2.411   1.960  0.2450 -0.2730 -2.4410
 9130TIP3    H227355   5.901   2.283   2.012 -0.5197  0.4431 -1.5319
 9131TIP3   OH227356   4.966   4.066   0.741  0.5412 -0.1416 -0.4640
 9131TIP3    H127357   5.054   4.035   0.720  0.0226 -1.1060 -1.3060
 9131TIP3    H227358   4.925   3.994   0.789  0.3939  0.5289  0.4475
 9132TIP3   OH227359   6.277   3.086   3.638  0.0357  0.2664 -0.2641
 9132TIP3    H127360   6.342   3.125   3.580 -0.5396  2.5186  0.4779
 9132TIP3    H227361   6.315   3.002   3.665  0.1120 -1.1569 -4.1810
 9133TIP3   OH227362   0.126   2.689   4.659  0.2882 -0.2504  0.3662
 9133TIP3    H127363   0.039   2.652   4.673  0.5324 -0.4129  1.5815
 9133TIP3    H227364   0.182   2.614   4.639  0.1472 -0.1364 -0.4997
 9134TIP3   OH227365   1.789   0.615   4.335  0.3256 -0.0882  0.2124
 9134TIP3    H127366   1.837   0.534   4.317  0.4988 -0.3580  1.7562
 9134TIP3    H227367   1.853   0.684   4.317  0.2484 -0.2877 -0.8965
 9135TIP3   OH227368   6.954   6.566   1.741 -0.0032 -0.3538 -0.0181
 9135TIP3    H127369   6.955   6.603   1.829  0.1891 -0.5278  0.0554
 9135TIP3    H227370   6.945   6.472   1.755 -1.3473 -0.2794 -0.2255
 9136TIP3   OH227371   4.582   2.739   3.204  0.2094 -0.4119 -0.1141
 9136TIP3    H127372   4.623   2.824   3.184 -2.6737  0.8196 -1.3562
 9136TIP3    H227373   4.573   2.740   3.299  0.5809  0.4789 -0.0700
 9137TIP3   OH227374   1.530   2.975   5.797  0.1837 -0.5571 -0.8298
 9137TIP3    H127375   1.514   2.884   5.770 -0.8064 -0.6754  0.1017
 9137TIP3    H227376   1.565   2.968   5.886  0.7392 -0.0478 -1.0000
 9138TIP3   OH227377   0.820   1.191   1.863 -0.0968 -0.3060 -0.0900
 9138TIP3    H127378   0.903   1.223   1.898 -0.0294 -1.5838  0.9598
 9138TIP3    H227379   0.843   1.113   1.813 -0.4870  0.2228 -1.1400
 9139TIP3   OH227380   3.704   1.307   4.848 -0.0000  0.1484 -0.1863
 9139TIP3    H127381   3.787   1.354   4.848 -0.2785  0.6660 -1.3371
 9139TIP3    H227382   3.728   1.215   4.834  0.4554  0.0886  0.8648
 9140TIP3   OH227383   3.169   1.388   4.719 -0.1392  0.2224  0.6662
 9140TIP3    H127384   3.137   1.419   4.803  0.2028  0.3988  0.7303
 9140TIP3    H227385   3.260   1.362   4.735  0.5000  1.9016 -0.0374
 9141TIP3   OH227386   3.041   3.784   1.326  0.1725  0.0801 -0.2728
 9141TIP3    H127387   3.055   3.690   1.311  2.4130  0.4408 -0.9040
 9141TIP3    H227388   3.112   3.809   1.385  1.0364  1.7831 -1.9256
 9142TIP3   OH227389   5.135   2.707   4.390 -0.1942 -0.0755  0.1890
 9142TIP3    H127390   5.152   2.797   4.362  0.4218 -0.4391 -0.6514
 9142TIP3    H227391   5.222   2.666   4.392 -0.6081 -1.0468 -0.8871
 9143TIP3   OH227392   5.526   3.199   3.332 -0.2934  0.5120 -0.7432
 9143TIP3    H127393   5.579   3.278   3.315 -0.9262  0.7612 -1.6355
 9143TIP3    H227394   5.458   3.228   3.392  0.9452  0.0347  0.9369
 9144TIP3   OH227395   2.470   2.399   4.164  0.4499 -0.3085 -0.3429
 9144TIP3    H127396   2.513   2.393   4.079  0.4641  0.7537 -0.4215
 9144TIP3    H227397   2.428   2.314   4.176  2.1852 -1.2235 -0.4715
 9145TIP3   OH227398   0.319   0.096   0.626  0.0983 -0.0898  0.2628
 9145TIP3    H127399   0.395   0.041   0.612 -0.6168 -1.3510  1.1400
 9145TIP3    H227400   0.307   0.143   0.543  0.9063 -1.0338 -0.4020
 9146TIP3   OH227401   0.188   3.726   0.320 -0.0287  0.5408  0.4536
 9146TIP3    H127402   0.213   3.737   0.411 -0.4990  0.2516  0.6215
 9146TIP3    H227403   0.177   3.632   0.309 -1.9992  0.7014  0.6646
 9147TIP3   OH227404   4.290   3.907   5.149 -0.7747  0.3835  0.3305
 9147TIP3    H127405   4.320   3.991   5.186  0.1758  0.0751  0.3002
 9147TIP3    H227406   4.297   3.845   5.222 -1.4201  0.3132  0.3365
 9148TIP3   OH227407   1.210   5.692   0.792 -0.4104  0.0545  0.0657
 9148TIP3    H127408   1.270   5.746   0.741  1.0616 -0.9185  0.6811
 9148TIP3    H227409   1.211   5.730   0.880 -0.2583 -0.2712  0.2102
 9149TIP3   OH227410   5.507   6.612   2.584  0.0528  0.0111 -0.5903
 9149TIP3    H127411   5.435   6.550   2.595  0.0635  0.3761  2.4513
 9149TIP3    H227412   5.585   6.557   2.573 -0.3281 -0.4317 -1.1280
 9150TIP3   OH227413   6.314   4.157   3.071 -0.2572  0.0640  0.4334
 9150TIP3    H127414   6.372   4.097   3.023 -1.0060  0.8507 -1.5754
 9150TIP3    H227415   6.228   4.144   3.031 -1.6873 -1.4008  3.6385
 9151TIP3   OH227416   3.484   1.365   0.611 -0.0253 -0.0570 -0.1176
 9151TIP3    H127417   3.564   1.334   0.568  0.2825  0.7311 -0.1192
 9151TIP3    H227418   3.505   1.363   0.705  0.6051  1.7644 -0.1897
 9152TIP3   OH227419   1.989   6.171   2.370  0.8400 -1.1744 -0.1218
 9152TIP3    H127420   1.969   6.108   2.301  0.6612 -1.0674 -0.1684
 9152TIP3    H227421   2.000   6.255   2.324 -1.1703 -0.7059  0.1527
 9153TIP3   OH227422   2.501   3.875   0.910  0.6124  0.0147  0.0328
 9153TIP3    H127423   2.506   3.825   0.829  0.9472 -0.5162  0.3698
 9153TIP3    H227424   2.501   3.808   0.979 -0.4368  0.4161  0.4532
 9154TIP3   OH227425   0.609   6.425   0.464  0.3010 -0.9335 -0.2397
 9154TIP3    H127426   0.680   6.482   0.496 -0.2494 -1.2496  1.6765
 9154TIP3    H227427   0.545   6.485   0.428  0.1152 -0.3633  0.9753
 9155TIP3   OH227428   2.719   3.315   1.390 -0.1869  0.5792 -0.1846
 9155TIP3    H127429   2.736   3.222   1.375  0.6354  0.9596 -1.8782
 9155TIP3    H227430   2.635   3.317   1.436  0.4824 -1.0403  1.1988
 9156TIP3   OH227431   5.973   0.111   2.793  0.6058  0.0364  0.1797
 9156TIP3    H127432   5.885   0.101   2.758 -1.6659  0.5007  4.9204
 9156TIP3    H227433   6.005   0.021   2.803 -0.5463 -0.3153  0.9037
 9157TIP3   OH227434   7.141   6.489   3.459  0.6137 -0.1339  0.0874
 9157TIP3    H127435   7.059   6.466   3.414  0.5770 -0.1787  0.1769
 9157TIP3    H227436   7.113   6.531   3.540  0.6803  0.3449 -0.1330
 9158TIP3   OH227437   7.196   4.147   2.555 -0.6712  0.2941  0.0161
 9158TIP3    H127438   7.143   4.225   2.570  0.9861  1.6941 -1.0302
 9158TIP3    H227439   7.141   4.090   2.501 -2.7061 -0.2632  2.4918
 9159TIP3   OH227440   5.662   3.296   3.813 -0.5269 -0.0433  0.2010
 9159TIP3    H127441   5.620   3.211   3.831 -1.1715  0.1448 -0.3485
 9159TIP3    H227442   5.720   3.311   3.887  1.7722 -2.3100 -0.9763
 9160TIP3   OH227443   0.671   1.662   0.372  0.1214 -0.1395 -0.7571
 9160TIP3    H127444   0.759   1.675   0.335  0.1523 -2.1603 -1.5285
 9160TIP3    H227445   0.678   1.695   0.462  2.3216 -2.1206 -0.0898
 9161TIP3   OH227446   2.717   3.093   5.824  0.1062 -0.1481  0.5248
 9161TIP3    H127447   2.674   3.050   5.898 -0.1837 -1.3124 -0.2896
 9161TIP3    H227448   2.705   3.186   5.840 -1.6850 -0.4111  0.9497
 9162TIP3   OH227449   5.339   4.412   2.440  0.1940 -0.2162 -0.0544
 9162TIP3    H127450   5.265   4.427   2.498  0.9872  0.9537  0.7193
 9162TIP3    H227451   5.322   4.467   2.364 -0.4724 -1.1534 -0.5949
 9163TIP3   OH227452   1.639   2.204   2.781  0.0282  0.5720 -0.1982
 9163TIP3    H127453   1.617   2.167   2.867 -1.6125 -1.3953 -1.3782
 9163TIP3    H227454   1.735   2.206   2.780  0.1248 -1.0864  1.0297
 9164TIP3   OH227455   7.049   4.920   2.880 -0.8856  0.4167 -0.2123
 9164TIP3    H127456   7.083   4.981   2.814 -3.2980  0.4170 -1.5807
 9164TIP3    H227457   7.061   4.834   2.840 -0.7327  0.2685  0.1530
 9165TIP3   OH227458   0.507   1.070   3.399 -0.2355 -0.6653 -0.3103
 9165TIP3    H127459   0.517   1.024   3.315 -0.2334 -2.4026  0.5922
 9165TIP3    H227460   0.413   1.063   3.419 -0.2500 -0.1836 -0.1980
 9166TIP3   OH227461   0.840   0.811   5.730  0.0163 -0.4839 -0.0486
 9166TIP3    H127462   0.778   0.824   5.659  0.3218  2.4022  0.1143
 9166TIP3    H227463   0.883   0.727   5.710 -1.2101 -0.6413 -2.2132
 9167TIP3   OH227464   2.626   4.819   4.990 -0.5560  0.2048 -0.5403
 9167TIP3    H127465   2.611   4.728   5.014 -0.2642  0.5067  0.9062
 9167TIP3    H227466   2.692   4.816   4.922  0.0911 -0.6261  0.1081
 9168TIP3   OH227467   5.429   6.548   4.341 -0.1816  0.4193 -0.2379
 9168TIP3    H127468   5.390   6.490   4.275  1.0051 -1.4853  0.6316
 9168TIP3    H227469   5.492   6.600   4.293 -1.6622  1.4574 -1.1434
 9169TIP3   OH227470   3.810   2.531   5.345 -0.4549  0.3409  0.4312
 9169TIP3    H127471   3.716   2.529   5.359 -0.2927 -0.6276  1.5149
 9169TIP3    H227472   3.828   2.455   5.289 -0.2873  0.3350  0.4916
 9170TIP3   OH227473   6.947   0.477   5.111  0.4808 -0.3371 -0.0520
 9170TIP3    H127474   6.946   0.573   5.111  0.2773 -0.3378  0.0767
 9170TIP3    H227475   6.920   0.453   5.200 -4.2075 -0.5347 -1.2304
 9171TIP3   OH227476   6.660   2.571   5.014 -0.0591  0.2145  0.3142
 9171TIP3    H127477   6.576   2.528   5.000 -0.1046  0.3563  0.1509
 9171TIP3    H227478   6.647   2.661   4.982 -0.0196  0.4009  0.8116
 9172TIP3   OH227479   1.209   0.388   2.275  0.1288 -0.2156  0.2731
 9172TIP3    H127480   1.288   0.410   2.324  0.3234 -0.9382  0.2996
 9172TIP3    H227481   1.153   0.344   2.339 -0.2484  0.1853  0.2231
 9173TIP3   OH227482   0.054   0.781   0.444 -0.3213  1.0568  0.2537
 9173TIP3    H127483  -0.018   0.739   0.397 -0.3779 -0.1766  1.3785
 9173TIP3    H227484   0.133   0.742   0.407 -0.3887 -0.5112  1.6495
 9174TIP3   OH227485   6.677   4.955   4.393  0.1998  0.8380  0.6863
 9174TIP3    H127486   6.684   4.860   4.392 -0.4246  0.7825  0.6956
 9174TIP3    H227487   6.739   4.983   4.461  0.1151  0.4097  0.9499
 9175TIP3   OH227488   3.022   2.503   2.680 -0.1707  0.2084 -0.5342
 9175TIP3    H127489   2.999   2.425   2.731  0.6257 -0.3193 -0.9482
 9175TIP3    H227490   2.997   2.480   2.590 -1.0798  0.9233 -0.4701
 9176TIP3   OH227491   2.493   1.542   0.345 -0.4154  0.4215 -0.1502
 9176TIP3    H127492   2.549   1.506   0.414  0.1039 -0.7937 -1.1468
 9176TIP3    H227493   2.443   1.467   0.314 -0.4756  0.8880 -1.2244
 9177TIP3   OH227494   2.487   3.998   4.715  0.1553  0.1779 -0.3332
 9177TIP3    H127495   2.488   3.925   4.776  1.1254  1.5743  1.4448
 9177TIP3    H227496   2.566   3.986   4.662 -1.7075 -2.1250 -2.8225
 9178TIP3   OH227497   6.156   2.587   5.611 -0.3329 -0.0289  0.2657
 9178TIP3    H127498   6.178   2.567   5.520 -0.8189  0.0631  0.1285
 9178TIP3    H227499   6.093   2.519   5.636 -1.2570  0.7483  0.1000
 9179TIP3   OH227500   2.655   3.073   0.712 -0.3090 -0.2595 -0.1063
 9179TIP3    H127501   2.610   3.072   0.628 -0.5756 -1.3669  0.0368
 9179TIP3    H227502   2.674   2.981   0.731  1.6333  0.1132  0.0428
 9180TIP3   OH227503   5.515   2.982   1.756  0.2608 -0.4741  0.0186
 9180TIP3    H127504   5.510   3.030   1.839 -0.0664 -0.8107  0.2001
 9180TIP3    H227505   5.608   2.966   1.743  0.2717 -1.0072  0.6757
 9181TIP3   OH227506   0.338   5.639   4.197  0.5428 -0.5052  0.0651
 9181TIP3    H127507   0.367   5.633   4.106  0.3349 -0.6521  0.0080
 9181TIP3    H227508   0.415   5.669   4.245  0.2789  0.9398 -0.3655
 9182TIP3   OH227509   2.917   2.535   4.751  0.7062  0.0244  0.2784
 9182TIP3    H127510   2.881   2.490   4.674  1.3286  0.6022 -0.3614
 9182TIP3    H227511   2.950   2.464   4.806  0.7658 -0.3660 -0.2483
 9183TIP3   OH227512   6.173   6.789   4.634  0.1744 -0.4503 -0.3281
 9183TIP3    H127513   6.154   6.783   4.541 -0.2970 -0.8194 -0.2120
 9183TIP3    H227514   6.259   6.830   4.639  0.0515 -0.1136 -0.9139
 9184TIP3   OH227515   4.095   5.632   0.129  0.6480 -0.1375 -0.6521
 9184TIP3    H127516   4.022   5.668   0.180  1.1568  0.7387 -0.5165
 9184TIP3    H227517   4.106   5.543   0.164 -1.4925 -0.9844 -1.8997
 9185TIP3   OH227518   6.367   2.132   1.867 -0.1413  0.0350 -0.1569
 9185TIP3    H127519   6.456   2.111   1.897 -0.5818 -0.2609  1.0106
 9185TIP3    H227520   6.359   2.089   1.782 -0.5535 -3.5740  1.5315
 9186TIP3   OH227521   5.362   5.179   0.844  0.2093  0.4190  0.6812
 9186TIP3    H127522   5.425   5.238   0.885  0.5736 -0.4021  1.3197
 9186TIP3    H227523   5.321   5.132   0.917 -2.0827  1.8291  0.3847
 9187TIP3   OH227524   6.751   3.836   0.035  0.0228 -0.9365 -0.0305
 9187TIP3    H127525   6.830   3.869  -0.008 -0.8062  1.3157  0.0421
 9187TIP3    H227526   6.784   3.784   0.109  1.4503 -0.1653 -0.0780
 9188TIP3   OH227527   2.768   5.708   5.412  0.2690  0.3202  0.6316
 9188TIP3    H127528   2.726   5.626   5.438 -0.4941  0.2632 -0.6947
 9188TIP3    H227529   2.789   5.696   5.320 -1.3013  2.1850 -0.0381
 9189TIP3   OH227530   3.453   4.941   5.457 -0.0791 -0.5039  0.2082
 9189TIP3    H127531   3.403   4.988   5.523 -1.0893  0.7576 -1.3986
 9189TIP3    H227532   3.536   4.920   5.501 -0.2181  1.3695  1.4911
 9190TIP3   OH227533   0.302   5.542   3.944  0.2001  0.0901 -0.1322
 9190TIP3    H127534   0.289   5.500   3.859 -2.4285  0.2914  0.0833
 9190TIP3    H227535   0.293   5.471   4.007 -0.3422  0.3094  0.0491
 9191TIP3   OH227536   3.150   1.542   2.671 -0.0084 -0.3754 -0.9431
 9191TIP3    H127537   3.217   1.531   2.738 -0.8756 -0.3288 -0.0417
 9191TIP3    H227538   3.198   1.572   2.594  0.7299  2.1825  0.3828
 9192TIP3   OH227539   2.372   2.879   2.500  0.3451  0.3342 -0.3106
 9192TIP3    H127540   2.292   2.878   2.447  0.9684  0.6771 -1.2944
 9192TIP3    H227541   2.437   2.833   2.446  0.5799 -0.7950  0.8876
 9193TIP3   OH227542   5.820   4.672   5.728  0.1456  0.7356  0.0089
 9193TIP3    H127543   5.739   4.720   5.747  0.0923  0.2081  1.2352
 9193TIP3    H227544   5.889   4.736   5.742  0.0925  0.4469  1.9294
 9194TIP3   OH227545   1.429   5.763   5.319  0.0473  0.2840 -0.2714
 9194TIP3    H127546   1.341   5.731   5.340 -0.2197  1.1997  0.0807
 9194TIP3    H227547   1.458   5.708   5.246 -0.9931  0.2339 -0.6732
 9195TIP3   OH227548   3.853   2.766   5.558  0.0051 -0.2719 -0.4532
 9195TIP3    H127549   3.810   2.681   5.566  0.5431 -0.4559  0.7799
 9195TIP3    H227550   3.884   2.770   5.468  0.7245 -1.7667 -0.3007
 9196TIP3   OH227551   4.601   2.244   5.057 -0.0148 -0.3135 -0.2398
 9196TIP3    H127552   4.608   2.332   5.096  0.6220 -0.4227 -0.0954
 9196TIP3    H227553   4.691   2.212   5.054 -0.4404 -2.3385  2.9142
 9197TIP3   OH227554   3.933   3.318   3.917 -0.7207  0.1669  0.2758
 9197TIP3    H127555   3.974   3.264   3.984  0.5681  2.2668  1.2673
 9197TIP3    H227556   3.949   3.270   3.835  2.2043  0.0108  0.8354
 9198TIP3   OH227557   5.086   2.186   4.742  0.3157  0.1400 -0.7742
 9198TIP3    H127558   5.149   2.244   4.784 -0.2866 -1.1228  2.1302
 9198TIP3    H227559   5.140   2.125   4.692  1.3413  0.0016  0.4460
 9199TIP3   OH227560   3.107   1.812   3.308 -0.2957  0.5030 -0.1503
 9199TIP3    H127561   3.172   1.875   3.275 -1.3001  1.2293 -0.8077
 9199TIP3    H227562   3.037   1.867   3.344 -0.8645 -0.2479 -0.0996
 9200TIP3   OH227563   0.161   4.341   0.015 -0.0907  0.7482  0.0814
 9200TIP3    H127564   0.186   4.344   0.108  0.9412  1.3154 -0.2030
 9200TIP3    H227565   0.136   4.431  -0.006 -0.9805  0.4824 -0.0225
 9201TIP3   OH227566   1.614   3.268   4.836  0.2013 -0.0867  0.1992
 9201TIP3    H127567   1.613   3.348   4.784 -1.4984  0.3266  0.8042
 9201TIP3    H227568   1.675   3.286   4.908 -1.4175  1.3306  1.2725
 9202TIP3   OH227569   6.264   1.245   4.514  0.7780 -0.0896  0.0825
 9202TIP3    H127570   6.249   1.224   4.607 -1.2488 -1.5128 -0.4736
 9202TIP3    H227571   6.246   1.338   4.507  0.9326  0.0301  1.1284
 9203TIP3   OH227572   0.573   2.477   3.302 -0.2570 -0.0596  0.1746
 9203TIP3    H127573   0.616   2.508   3.222  1.3881 -0.9907  0.6637
 9203TIP3    H227574   0.496   2.429   3.271  1.8538 -2.8892 -1.1076
 9204TIP3   OH227575   0.252   4.588   3.660 -0.4317 -0.7360  0.0889
 9204TIP3    H127576   0.308   4.637   3.720 -1.1525  0.0669  0.1321
 9204TIP3    H227577   0.202   4.529   3.717 -0.9385 -0.1475  0.2743
 9205TIP3   OH227578   3.328   2.997   3.269  0.6675  0.0123 -0.2684
 9205TIP3    H127579   3.353   2.913   3.308  0.7768 -0.8876 -2.1564
 9205TIP3    H227580   3.276   2.973   3.192  0.3780  1.7017 -0.6389
 9206TIP3   OH227581   7.008   0.901   0.099 -0.1587 -0.2755 -0.2335
 9206TIP3    H127582   6.912   0.894   0.100 -0.2295  0.5170 -0.6275
 9206TIP3    H227583   7.037   0.849   0.174 -1.0563  1.5879  1.5019
 9207TIP3   OH227584   5.506   2.188   3.739 -0.0992 -0.0169 -0.3219
 9207TIP3    H127585   5.411   2.201   3.737 -0.0726  0.3224  0.3429
 9207TIP3    H227586   5.526   2.142   3.658 -1.0623 -1.5877  0.2807
 9208TIP3   OH227587   4.404   0.587   2.446  0.0426 -0.2293  0.1086
 9208TIP3    H127588   4.471   0.519   2.452  0.9857  0.7282  0.9942
 9208TIP3    H227589   4.403   0.612   2.354 -0.6435 -1.7226 -0.3199
 9209TIP3   OH227590   4.455   5.329   5.579  0.0721 -0.1075 -0.2093
 9209TIP3    H127591   4.440   5.352   5.671 -0.6615 -0.6704 -0.1811
 9209TIP3    H227592   4.428   5.238   5.572  0.1607 -0.0831 -0.9783
 9210TIP3   OH227593   5.126   1.928   2.245 -0.2385 -0.2505 -0.0406
 9210TIP3    H127594   5.186   1.868   2.290 -0.2212  1.7752  2.9508
 9210TIP3    H227595   5.045   1.923   2.295 -0.0833  2.4548  0.6832
 9211TIP3   OH227596   2.188   3.526   3.341  0.3301 -0.4469 -0.2549
 9211TIP3    H127597   2.211   3.433   3.337 -1.1331 -0.8073 -3.5591
 9211TIP3    H227598   2.093   3.527   3.351  0.4171  0.7542  0.6867
 9212TIP3   OH227599   3.674   4.263   2.916 -0.7280 -0.0182 -0.1590
 9212TIP3    H127600   3.661   4.188   2.974 -2.5127  1.5184  1.5586
 9212TIP3    H227601   3.763   4.252   2.883 -0.1407 -1.7183  1.7854
 9213TIP3   OH227602   3.240   6.245   1.008 -0.7677  0.3679  0.7099
 9213TIP3    H127603   3.266   6.256   1.100  0.0302 -0.6161  0.6210
 9213TIP3    H227604   3.171   6.179   1.010  0.4177 -0.9164  0.4674
 9214TIP3   OH227605   0.392   0.099   2.986 -0.1665  0.5913  0.2536
 9214TIP3    H127606   0.456   0.058   2.928  0.4635  2.3335 -0.3532
 9214TIP3    H227607   0.358   0.174   2.936 -1.9329  0.3254  0.9627
 9215TIP3   OH227608   2.639   4.318   1.993  0.4184  0.2585  0.3177
 9215TIP3    H127609   2.717   4.372   1.982 -1.2745  3.6168  2.8371
 9215TIP3    H227610   2.566   4.376   1.972 -1.5445 -2.7258 -1.9019
 9216TIP3   OH227611   6.906   3.204   5.627 -0.1340  0.3819  0.2898
 9216TIP3    H127612   7.000   3.197   5.609 -0.2920 -3.8057  0.0382
 9216TIP3    H227613   6.865   3.198   5.541 -0.6066 -1.0198  0.5818
 9217TIP3   OH227614   5.440   4.394   3.395 -0.1895 -0.3184  0.5394
 9217TIP3    H127615   5.483   4.318   3.436  0.5890 -0.7103 -0.9236
 9217TIP3    H227616   5.486   4.469   3.432  0.7618 -0.6779  0.1217
 9218TIP3   OH227617   3.150   2.990   4.807  0.1102  0.3122 -0.1116
 9218TIP3    H127618   3.158   3.062   4.870  0.4167  1.0617 -0.9838
 9218TIP3    H227619   3.069   3.007   4.760 -0.7911 -0.9490  0.9035
 9219TIP3   OH227620   0.391   2.627   0.123  0.5599  0.1181 -0.3313
 9219TIP3    H127621   0.329   2.590   0.186  1.0613 -0.3482 -0.1080
 9219TIP3    H227622   0.348   2.615   0.038  0.2684 -0.0476 -0.1617
 9220TIP3   OH227623   0.461   3.485   0.203  0.0756 -0.5046 -0.1820
 9220TIP3    H127624   0.473   3.558   0.142 -2.8501  0.0335 -0.2938
 9220TIP3    H227625   0.447   3.409   0.147 -1.4973 -0.2174 -0.2315
 9221TIP3   OH227626   1.123   6.133   4.785 -0.2866  0.4947  0.2663
 9221TIP3    H127627   1.149   6.218   4.748  1.0787 -0.2915 -0.6659
 9221TIP3    H227628   1.067   6.156   4.860  0.6317  2.2321  0.4788
 9222TIP3   OH227629   1.645   2.188   5.705 -0.0318  0.1211 -0.1342
 9222TIP3    H127630   1.598   2.214   5.785  0.2129  0.3118 -0.0493
 9222TIP3    H227631   1.711   2.125   5.736  1.8220  2.1121  0.2595
 9223TIP3   OH227632   6.292   3.518   0.637  0.3081 -1.0994  0.2920
 9223TIP3    H127633   6.312   3.514   0.731  3.3875  0.6598 -0.1476
 9223TIP3    H227634   6.265   3.609   0.622 -0.1289 -1.3566 -0.5433
 9224TIP3   OH227635   5.426   2.164   4.441  0.9565 -0.0829 -0.4660
 9224TIP3    H127636   5.332   2.148   4.441  0.9811 -0.2272 -0.2523
 9224TIP3    H227637   5.456   2.136   4.355  1.0350 -1.3940 -0.0413
 9225TIP3   OH227638   1.899   4.796   1.379 -0.1622  1.0260  0.2446
 9225TIP3    H127639   1.882   4.712   1.338 -0.5299  0.4197  1.5929
 9225TIP3    H227640   1.891   4.860   1.308 -3.4541  0.3180 -0.1936
 9226TIP3   OH227641   6.296   0.657   1.103  0.2895  0.0751  0.2798
 9226TIP3    H127642   6.232   0.645   1.033 -0.8998  0.3120  1.2877
 9226TIP3    H227643   6.342   0.737   1.080  1.8075 -1.2300 -1.6018
 9227TIP3   OH227644   4.187   1.549   2.523  0.7400 -0.5342 -0.1321
 9227TIP3    H127645   4.268   1.596   2.504  1.2660 -1.1153  0.5953
 9227TIP3    H227646   4.204   1.459   2.494  0.4345 -0.7040  0.1985
 9228TIP3   OH227647   3.145   0.115   0.497 -0.1067 -0.1480 -0.4000
 9228TIP3    H127648   3.126   0.194   0.447 -1.7289 -0.6690 -0.6558
 9228TIP3    H227649   3.159   0.146   0.587 -1.6786  0.3892 -0.3004
 9229TIP3   OH227650   4.335   6.544   0.918  0.0780  0.7182  0.2981
 9229TIP3    H127651   4.389   6.555   0.840  0.6513  1.9421  0.8287
 9229TIP3    H227652   4.355   6.621   0.971 -1.0320  0.3976  1.2149
 9230TIP3   OH227653   7.153   0.383   1.383  0.8012  0.6396  0.3221
 9230TIP3    H127654   7.078   0.338   1.420  1.7682 -0.4682  1.0219
 9230TIP3    H227655   7.135   0.388   1.289  0.1635 -0.2384  0.3848
 9231TIP3   OH227656   6.403   3.405   3.661 -0.5906 -0.3188 -0.2445
 9231TIP3    H127657   6.424   3.396   3.754 -0.6507 -0.1583 -0.2147
 9231TIP3    H227658   6.343   3.480   3.657 -0.2934 -0.0876 -0.4578
 9232TIP3   OH227659   4.000   5.008   0.426 -0.0721  0.0143 -0.3067
 9232TIP3    H127660   4.049   5.064   0.365  0.3218  0.2408  0.2138
 9232TIP3    H227661   4.067   4.969   0.482 -0.4776  0.2167  0.3249
 9233TIP3   OH227662   0.252   0.711   4.595 -0.1342 -0.3450 -0.2462
 9233TIP3    H127663   0.226   0.803   4.592  0.5114 -0.1749 -1.6679
 9233TIP3    H227664   0.325   0.708   4.658 -0.1445  0.1214 -0.2111
 9234TIP3   OH227665   3.223   1.102   4.397  0.0019  0.0094  0.5028
 9234TIP3    H127666   3.289   1.139   4.455  2.4181  2.6435 -3.4361
 9234TIP3    H227667   3.214   1.011   4.425  1.8219  0.7485  4.0752
 9235TIP3   OH227668   3.856   1.217   0.049  0.4097  0.2618 -0.0968
 9235TIP3    H127669   3.946   1.196   0.076 -0.3141 -3.4319 -0.0453
 9235TIP3    H227670   3.863   1.240  -0.043  1.4059 -0.0876 -0.1212
 9236TIP3   OH227671   0.516   2.825   1.432 -0.6320 -0.0849  0.4298
 9236TIP3    H127672   0.454   2.752   1.429  1.1382 -1.6371 -0.6914
 9236TIP3    H227673   0.598   2.788   1.399  1.6091  1.2074  3.9858
 9237TIP3   OH227674   4.984   2.150   3.949 -0.1535 -0.3509  1.0849
 9237TIP3    H127675   4.998   2.240   3.978  0.5111 -0.8049  2.2182
 9237TIP3    H227676   4.920   2.115   4.011  0.1328 -0.8825  1.0759
 9238TIP3   OH227677   2.309   0.416   0.618  0.3219 -0.2598 -0.0058
 9238TIP3    H127678   2.337   0.360   0.546  2.4227 -0.7499  1.1112
 9238TIP3    H227679   2.337   0.504   0.594 -0.7491 -0.0768 -0.6399
 9239TIP3   OH227680   3.468   2.462   3.251  0.1511 -0.1852  0.6614
 9239TIP3    H127681   3.464   2.388   3.190  0.2483  0.3396  0.0091
 9239TIP3    H227682   3.421   2.431   3.329  1.2183 -1.3552  0.8691
 9240TIP3   OH227683   2.090   2.674   2.945 -0.6163  0.0530 -0.1397
 9240TIP3    H127684   2.168   2.619   2.941  0.6111  1.7550 -0.6396
 9240TIP3    H227685   2.019   2.613   2.967  0.4862 -1.8799 -1.5865
 9241TIP3   OH227686   2.138   3.277   2.461  0.3414 -0.3090 -0.8573
 9241TIP3    H127687   2.207   3.261   2.524  1.0684  0.4113 -1.4472
 9241TIP3    H227688   2.057   3.270   2.511  0.7950 -1.7324 -0.2739
 9242TIP3   OH227689   5.822   1.764   3.792  0.2008 -0.1091 -0.2285
 9242TIP3    H127690   5.783   1.757   3.879  0.8015 -3.7471 -0.1171
 9242TIP3    H227691   5.751   1.744   3.731  0.5122 -0.9127 -0.3451
 9243TIP3   OH227692   1.591   4.880   5.120  0.2559  0.1342  0.3331
 9243TIP3    H127693   1.613   4.911   5.208 -2.2555  0.3717  0.9439
 9243TIP3    H227694   1.571   4.787   5.131  2.4223 -0.4919 -0.5130
 9244TIP3   OH227695   4.439   3.085   2.413 -0.1244  0.5594  0.4232
 9244TIP3    H127696   4.528   3.083   2.447 -0.1297 -2.3926  0.5432
 9244TIP3    H227697   4.384   3.093   2.491 -0.0055 -1.3053  0.7420
 9245TIP3   OH227698   6.451   1.676   1.082  0.0877  0.0173 -0.0038
 9245TIP3    H127699   6.445   1.647   0.991 -1.5126 -1.5699  0.5597
 9245TIP3    H227700   6.516   1.617   1.121 -1.9228 -1.8861  0.7173
 9246TIP3   OH227701   4.956   1.993   0.661 -0.1582  0.6445  0.1752
 9246TIP3    H127702   4.945   2.073   0.610 -0.6364 -0.4275 -1.4613
 9246TIP3    H227703   4.938   2.020   0.751  0.1157  2.4595 -0.2732
 9247TIP3   OH227704   3.938   3.225   3.473  0.7924 -0.3817 -0.0702
 9247TIP3    H127705   4.006   3.236   3.539  0.9034  0.8290 -0.3603
 9247TIP3    H227706   3.973   3.160   3.412  1.7868  0.3772 -0.3295
 9248TIP3   OH227707   2.478   3.930   3.615  0.2873  0.4117 -0.2175
 9248TIP3    H127708   2.387   3.936   3.588  0.0106  1.8644  0.9060
 9248TIP3    H227709   2.475   3.919   3.710  1.2690  1.3536 -0.0538
 9249TIP3   OH227710   3.878   3.558   4.202 -0.4108 -0.4196 -0.4940
 9249TIP3    H127711   3.906   3.550   4.293 -0.2209  0.3048 -0.4859
 9249TIP3    H227712   3.944   3.511   4.152  0.5300  0.7797 -0.4230
 9250TIP3   OH227713   1.178   3.918   5.439  0.4935  0.1100  0.1575
 9250TIP3    H127714   1.130   4.001   5.443  1.7250  0.8091  1.0511
 9250TIP3    H227715   1.209   3.912   5.349 -0.4745  0.0923 -0.1856
 9251TIP3   OH227716   6.512   5.067   2.310  0.1778  0.4785  0.2878
 9251TIP3    H127717   6.430   5.113   2.292  0.4949  0.5360 -1.1778
 9251TIP3    H227718   6.488   4.975   2.311  0.2195  0.4190 -1.1900
 9252TIP3   OH227719   0.409   4.764   4.878 -0.1770 -0.1789  0.1090
 9252TIP3    H127720   0.431   4.857   4.892 -0.5705  0.1086 -1.0644
 9252TIP3    H227721   0.397   4.729   4.966  0.9297  0.6452  0.6175
 9253TIP3   OH227722   5.377   0.079   4.500 -0.1835  0.5186  0.5486
 9253TIP3    H127723   5.470   0.069   4.523  0.7667  2.3726 -2.0269
 9253TIP3    H227724   5.343  -0.010   4.501  1.9026 -0.3455  0.5846
 9254TIP3   OH227725   2.285   2.196   5.885  0.1977 -1.1169  0.0708
 9254TIP3    H127726   2.318   2.255   5.953 -0.7315  0.3161 -0.6598
 9254TIP3    H227727   2.335   2.220   5.807 -0.6906 -0.7669 -0.4042
 9255TIP3   OH227728   2.997   6.364   3.766 -0.3570 -0.0143 -0.2164
 9255TIP3    H127729   2.960   6.276   3.764 -1.2465  0.2626  1.6246
 9255TIP3    H227730   3.091   6.351   3.773 -0.4498 -0.8065 -0.3335
 9256TIP3   OH227731   5.561   1.989   0.333 -1.0087  0.5633  0.2205
 9256TIP3    H127732   5.647   1.952   0.315 -1.3063 -0.0937  0.1178
 9256TIP3    H227733   5.522   1.930   0.398 -1.9908 -0.0600 -0.8891
 9257TIP3   OH227734   6.818   4.787   4.682 -0.7226  0.0787 -0.6031
 9257TIP3    H127735   6.880   4.820   4.618  1.9986 -1.5525  0.9975
 9257TIP3    H227736   6.843   4.829   4.764 -2.9602  0.7460 -0.1966
 9258TIP3   OH227737   0.108   4.554   2.074 -0.0819 -0.0331  0.0472
 9258TIP3    H127738   0.030   4.528   2.026  0.2365  0.7937 -0.9525
 9258TIP3    H227739   0.180   4.541   2.012  0.3080  1.2946  0.1901
 9259TIP3   OH227740   6.843   3.586   2.253 -0.1797  0.1812  0.6219
 9259TIP3    H127741   6.923   3.594   2.305  0.3580  4.0103 -0.4595
 9259TIP3    H227742   6.859   3.512   2.195  1.8094 -0.2815  1.6759
 9260TIP3   OH227743   4.222   3.220   4.176  0.0209  0.3864  0.6231
 9260TIP3    H127744   4.142   3.174   4.151 -0.5527  0.4256  2.2722
 9260TIP3    H227745   4.288   3.191   4.112 -1.7280  1.9272 -2.0730
 9261TIP3   OH227746   5.756   1.736   3.302  0.2630 -0.3464 -0.1892
 9261TIP3    H127747   5.816   1.810   3.314 -1.9827  1.9995 -2.2784
 9261TIP3    H227748   5.685   1.752   3.365 -0.9654  0.1485 -1.6557
 9262TIP3   OH227749   6.059   5.759   0.102 -0.6059  0.3026  0.7224
 9262TIP3    H127750   5.976   5.722   0.072 -0.2536  0.6549 -0.7596
 9262TIP3    H227751   6.115   5.760   0.024  1.1221 -0.7817  1.8641
 9263TIP3   OH227752   4.200   6.393   3.941  0.6120  0.0153 -0.0918
 9263TIP3    H127753   4.192   6.434   4.027  1.5067  0.6997 -0.3158
 9263TIP3    H227754   4.253   6.315   3.957 -2.0903 -1.8355  0.5482
 9264TIP3   OH227755   6.254   5.678   4.405 -0.6332 -0.1078 -0.8494
 9264TIP3    H127756   6.230   5.587   4.423 -2.1461  0.2206 -1.0682
 9264TIP3    H227757   6.226   5.693   4.315 -0.1808  0.5073 -0.8917
 9265TIP3   OH227758   0.774   4.428   4.589  0.6226 -0.1686  0.0398
 9265TIP3    H127759   0.691   4.451   4.546  0.6968 -0.8282 -0.4771
 9265TIP3    H227760   0.831   4.402   4.517  1.4431  0.7215  0.3479
 9266TIP3   OH227761   2.322   1.843   2.780 -0.0539 -0.4034  0.4226
 9266TIP3    H127762   2.377   1.834   2.701 -0.5922  1.7895 -0.2555
 9266TIP3    H227763   2.349   1.770   2.835  1.0909 -1.4099 -1.3463
 9267TIP3   OH227764   0.981   0.658   4.638  0.2644 -0.1055  0.6337
 9267TIP3    H127765   0.897   0.614   4.651  0.4309 -1.2068 -1.5111
 9267TIP3    H227766   0.968   0.747   4.671 -2.0858  0.0704 -0.6115
 9268TIP3   OH227767   0.098   1.180   2.053 -0.0980 -0.8520  0.2277
 9268TIP3    H127768   0.152   1.118   2.004 -1.0373 -1.4063 -0.1391
 9268TIP3    H227769   0.106   1.262   2.004  0.0156 -1.0596 -0.1031
 9269TIP3   OH227770   4.451   6.413   4.252  0.0715  0.2739  0.1584
 9269TIP3    H127771   4.419   6.343   4.196 -1.9471  0.2533  1.2385
 9269TIP3    H227772   4.510   6.370   4.314 -0.7650 -0.4098  0.4941
 9270TIP3   OH227773   3.134   5.704   0.540  0.0997  0.3272 -0.4568
 9270TIP3    H127774   3.052   5.660   0.562  0.2353  0.3960  0.2127
 9270TIP3    H227775   3.192   5.634   0.510 -0.8048  0.5056 -2.8771
 9271TIP3   OH227776   0.107   3.094   4.348 -0.3809  0.2613 -0.2865
 9271TIP3    H127777   0.186   3.042   4.357  0.3606  1.1313 -1.4483
 9271TIP3    H227778   0.051   3.067   4.421  1.0950 -0.1563  0.7278
 9272TIP3   OH227779   2.297   5.724   4.385  0.0669 -0.2048 -0.1332
 9272TIP3    H127780   2.353   5.801   4.381  1.8673 -1.4284 -0.1604
 9272TIP3    H227781   2.237   5.734   4.311  0.9165  0.6999 -0.7375
 9273TIP3   OH227782   6.542   4.878   1.909 -0.3750  0.6496  0.0228
 9273TIP3    H127783   6.592   4.797   1.920 -1.3615  0.0727  0.3385
 9273TIP3    H227784   6.458   4.850   1.873 -1.3527  1.3349  1.6638
 9274TIP3   OH227785   3.185   6.577   0.488  0.1963  0.1879  0.8181
 9274TIP3    H127786   3.124   6.518   0.444 -1.2806  0.9306  1.8037
 9274TIP3    H227787   3.148   6.664   0.477  1.5419  0.7673  0.7117
 9275TIP3   OH227788   3.190   1.583   0.890 -0.4992  0.0432 -0.1232
 9275TIP3    H127789   3.285   1.595   0.896 -0.4448  1.1487 -2.3762
 9275TIP3    H227790   3.169   1.599   0.798 -2.8976 -0.0900  0.3381
 9276TIP3   OH227791   2.181   1.307   3.064 -0.1852  0.1737  0.2908
 9276TIP3    H127792   2.203   1.335   3.152  0.9874 -0.4829  0.2243
 9276TIP3    H227793   2.194   1.212   3.064  3.2498  0.4837 -1.4565
 9277TIP3   OH227794   4.823   4.640   0.355  0.9216 -0.0018  0.0694
 9277TIP3    H127795   4.748   4.696   0.332  0.5803  0.5620  2.3106
 9277TIP3    H227796   4.889   4.701   0.389  1.4820 -0.7351  0.3133
 9278TIP3   OH227797   3.382   0.729   5.448 -0.2171 -0.0540 -0.5012
 9278TIP3    H127798   3.396   0.638   5.475  1.0326 -0.0102 -0.9455
 9278TIP3    H227799   3.300   0.727   5.397 -1.2566 -0.5646  1.1173
 9279TIP3   OH227800   2.760   6.729   1.609  0.3808 -0.3740  0.5631
 9279TIP3    H127801   2.720   6.739   1.695  0.0477 -0.2895  0.4009
 9279TIP3    H227802   2.711   6.658   1.568 -1.4190  1.4894 -0.6640
 9280TIP3   OH227803   5.020   1.148   3.326 -0.3517  0.3073 -0.0060
 9280TIP3    H127804   5.051   1.096   3.400  4.1304 -1.1382 -2.4870
 9280TIP3    H227805   4.968   1.086   3.274 -0.1660  0.1360  0.0119
 9281TIP3   OH227806   5.640   1.708   4.616  0.2159 -0.0095 -0.1754
 9281TIP3    H127807   5.628   1.786   4.563  2.1281  0.5833  0.1734
 9281TIP3    H227808   5.672   1.740   4.701  0.4658 -1.1168  0.1772
 9282TIP3   OH227809   1.425   0.331   4.081  0.1802  0.1303  0.2244
 9282TIP3    H127810   1.475   0.410   4.102  0.3347  0.5100 -1.4333
 9282TIP3    H227811   1.335   0.362   4.073  0.1181 -0.0154  0.3625
 9283TIP3   OH227812   0.297   1.954   1.067 -0.2113 -0.5296 -0.5316
 9283TIP3    H127813   0.264   1.977   1.154  0.5468 -2.0841  0.2206
 9283TIP3    H227814   0.327   2.037   1.030  1.1887 -0.0504  1.4880
 9284TIP3   OH227815   2.567   5.126   4.332 -0.7689  0.5291  0.2127
 9284TIP3    H127816   2.630   5.082   4.389 -0.8764 -0.3230 -0.3053
 9284TIP3    H227817   2.482   5.110   4.374 -0.8937 -0.4449 -0.3672
 9285TIP3   OH227818   3.935   2.884   0.954  0.1692 -0.4311 -0.1205
 9285TIP3    H127819   3.963   2.974   0.971 -0.1969 -0.2202 -0.6072
 9285TIP3    H227820   3.952   2.870   0.861 -1.3798 -0.2636 -0.4625
 9286TIP3   OH227821   0.821   1.807   1.907  0.3846 -0.5991  0.6161
 9286TIP3    H127822   0.848   1.834   1.819  1.8162  0.5195  1.3542
 9286TIP3    H227823   0.895   1.755   1.940  0.2788 -0.2072  1.5025
 9287TIP3   OH227824   5.654   4.641   2.255  0.1360 -0.6301 -0.0500
 9287TIP3    H127825   5.596   4.709   2.288 -0.7568 -0.8820 -1.0405
 9287TIP3    H227826   5.642   4.567   2.315  0.2879 -0.2951  0.3946
 9288TIP3   OH227827   4.762   0.112   2.802 -0.3773 -0.4399  0.1085
 9288TIP3    H127828   4.707   0.085   2.875  1.0031  0.7310  1.6486
 9288TIP3    H227829   4.788   0.030   2.760 -3.9824 -1.0441 -1.3311
 9289TIP3   OH227830   1.506   6.150   3.966  0.2975  0.2645 -0.0003
 9289TIP3    H127831   1.464   6.147   3.880  1.8763  0.7140 -0.8179
 9289TIP3    H227832   1.503   6.060   3.997  3.4508 -0.8637 -2.4460
 9290TIP3   OH227833   4.586   0.858   5.524  0.4146 -0.5898  0.4270
 9290TIP3    H127834   4.641   0.895   5.455 -0.0175 -1.4688 -0.4189
 9290TIP3    H227835   4.612   0.905   5.603  0.4915  0.8909 -0.4304
 9291TIP3   OH227836   0.801   3.893   3.461  0.0861  0.0216 -0.7125
 9291TIP3    H127837   0.876   3.929   3.507 -0.3248 -1.2975  1.1107
 9291TIP3    H227838   0.832   3.878   3.372  0.9849  2.4290 -0.8616
 9292TIP3   OH227839   3.347   2.254   1.804 -0.0036 -0.6830 -0.5055
 9292TIP3    H127840   3.256   2.275   1.781  0.2304 -1.0489 -1.8518
 9292TIP3    H227841   3.356   2.284   1.895 -1.5937 -1.0474 -0.1853
 9293TIP3   OH227842   5.664   3.107   5.448 -0.1719  0.1642  0.2104
 9293TIP3    H127843   5.755   3.083   5.465 -0.4582 -0.3904  1.0413
 9293TIP3    H227844   5.613   3.032   5.479 -0.8501 -0.1842 -1.6041
 9294TIP3   OH227845   5.140   1.281   3.674  0.2315  0.2497 -0.3359
 9294TIP3    H127846   5.116   1.351   3.613  1.3323  1.2427  0.3411
 9294TIP3    H227847   5.057   1.255   3.714 -0.2338  0.9710 -0.8063
 9295TIP3   OH227848   5.099   2.252   1.656  0.0503 -0.2961  1.0297
 9295TIP3    H127849   5.128   2.343   1.656  3.0927 -1.1584  0.5558
 9295TIP3    H227850   5.053   2.241   1.573  1.5759  0.3400  0.0511
 9296TIP3   OH227851   2.986   6.694   0.159 -0.4773 -0.0307  0.5527
 9296TIP3    H127852   2.990   6.790   0.153 -0.8451 -0.0462  0.0259
 9296TIP3    H227853   3.075   6.665   0.139 -0.5513  0.1667 -0.0828
 9297TIP3   OH227854   5.417   5.296   2.275  0.3308 -0.2239 -0.0698
 9297TIP3    H127855   5.507   5.293   2.242  0.6746  0.8205  0.7406
 9297TIP3    H227856   5.372   5.357   2.217  0.2759 -0.3177 -0.1280
 9298TIP3   OH227857   4.038   0.095   1.123 -0.2256 -0.0833 -0.2619
 9298TIP3    H127858   3.963   0.110   1.066 -0.6185  1.1261  0.5254
 9298TIP3    H227859   4.110   0.144   1.083 -0.1473 -0.3340 -0.4283
 9299TIP3   OH227860   3.874   5.903   1.909 -0.0956 -0.6031 -0.4117
 9299TIP3    H127861   3.940   5.920   1.843  1.0605  0.6864  0.9962
 9299TIP3    H227862   3.823   5.984   1.913  1.0573  0.0929  1.5379
 9300TIP3   OH227863   2.224   4.258   5.617 -0.5950 -0.0869 -0.4417
 9300TIP3    H127864   2.228   4.214   5.702  1.8157  0.8712  0.0119
 9300TIP3    H227865   2.288   4.213   5.563 -0.4473  0.7707 -1.0074
 9301TIP3   OH227866   0.896   3.017   5.350  0.2958  0.7027  0.1824
 9301TIP3    H127867   0.984   3.015   5.311  0.5630  0.1228  0.7916
 9301TIP3    H227868   0.866   2.926   5.344 -0.2597  0.8943  0.0004
 9302TIP3   OH227869   6.541   2.229   5.849  0.0626  0.0340  0.2254
 9302TIP3    H127870   6.521   2.314   5.810  0.1613 -0.2615 -0.4769
 9302TIP3    H227871   6.518   2.240   5.942  1.7350  1.3957  0.5426
 9303TIP3   OH227872   3.110   4.706   1.473 -0.5259 -0.0756 -0.3559
 9303TIP3    H127873   3.095   4.641   1.542  0.7151 -0.2026 -0.1895
 9303TIP3    H227874   3.063   4.783   1.502 -0.5339 -0.3319  0.3211
 9304TIP3   OH227875   0.037   3.847   4.232 -0.0668 -0.1902  0.3134
 9304TIP3    H127876   0.087   3.904   4.290 -0.4328  0.5881 -0.1342
 9304TIP3    H227877   0.068   3.869   4.144  0.1421 -1.0296  0.1638
 9305TIP3   OH227878   4.158   2.989   4.589  0.2526  0.2030  0.2276
 9305TIP3    H127879   4.103   3.067   4.579 -1.0099 -0.6558  0.2826
 9305TIP3    H227880   4.201   3.002   4.674 -0.4815  0.5318  0.5639
 9306TIP3   OH227881   4.184   2.693   2.636  0.2033  0.3267 -0.2357
 9306TIP3    H127882   4.258   2.646   2.675 -0.8753  0.2352  1.8153
 9306TIP3    H227883   4.130   2.719   2.711 -1.4623  1.0531 -1.6336
 9307TIP3   OH227884   4.905   5.371   3.183  0.3681 -0.0015  0.3424
 9307TIP3    H127885   4.827   5.334   3.141 -0.1890 -0.0425  1.3747
 9307TIP3    H227886   4.898   5.465   3.167 -0.7283  0.1795  1.7333
 9308TIP3   OH227887   3.366   4.300   1.589  0.2744 -0.7916  0.3397
 9308TIP3    H127888   3.397   4.251   1.665 -0.3944 -0.5534  0.7680
 9308TIP3    H227889   3.383   4.243   1.515 -1.1014 -1.9566  0.8919
 9309TIP3   OH227890   4.405   4.134   3.703  0.3594  0.2459 -0.0983
 9309TIP3    H127891   4.402   4.050   3.658  1.7093 -0.2094  0.6266
 9309TIP3    H227892   4.321   4.140   3.748 -0.7527  0.4099 -2.0633
 9310TIP3   OH227893   5.046   6.821   1.000  0.2885  0.2545 -0.2297
 9310TIP3    H127894   5.081   6.784   1.081  1.8055  0.5445 -0.7275
 9310TIP3    H227895   5.111   6.799   0.933 -1.7905 -1.6284 -1.7901
 9311TIP3   OH227896   7.252   5.857   3.432  0.2342  0.1794 -0.2941
 9311TIP3    H127897   7.219   5.945   3.413  0.5502  0.3950  0.1581
 9311TIP3    H227898   7.173   5.803   3.437  0.0891  0.2537 -1.4751
 9312TIP3   OH227899   5.818   1.257   0.118  0.0066  0.2192 -0.7556
 9312TIP3    H127900   5.877   1.218   0.183  0.1636  0.3742 -0.8039
 9312TIP3    H227901   5.869   1.257   0.037  0.4697  1.6479 -0.4906
 9313TIP3   OH227902   1.099   4.578   4.223 -0.0977 -0.5976 -0.2224
 9313TIP3    H127903   1.032   4.534   4.275 -1.2038 -0.5030 -1.5109
 9313TIP3    H227904   1.182   4.537   4.249 -0.6327 -0.7352  1.3770
 9314TIP3   OH227905   3.420   3.253   0.942  0.0414  0.2635 -0.1505
 9314TIP3    H127906   3.506   3.212   0.946  0.0134  0.2746  0.6936
 9314TIP3    H227907   3.411   3.282   0.851  0.0259 -1.6701 -0.8097
 9315TIP3   OH227908   1.834   0.494   0.861 -0.4014 -0.2245  0.3037
 9315TIP3    H127909   1.808   0.582   0.887 -0.6742  0.3548 -1.7809
 9315TIP3    H227910   1.833   0.496   0.766  0.6294 -2.1862  0.2079
 9316TIP3   OH227911   4.783   4.927   0.504  0.0732  0.4939  0.0144
 9316TIP3    H127912   4.740   4.899   0.585  2.5247  0.1560  1.3075
 9316TIP3    H227913   4.772   5.022   0.503  1.9461  0.8157  2.0533
 9317TIP3   OH227914   0.721   6.113   5.846  0.0361  0.0590  0.1295
 9317TIP3    H127915   0.641   6.097   5.897 -0.3667  1.0859 -0.1691
 9317TIP3    H227916   0.698   6.088   5.757 -0.1921  1.0455 -0.0957
 9318TIP3   OH227917   5.118   6.789   5.471 -0.3184  0.1749  0.2825
 9318TIP3    H127918   5.041   6.817   5.519  1.7618  2.0274  2.8374
 9318TIP3    H227919   5.123   6.694   5.485 -1.8792  0.0874  0.3651
 9319TIP3   OH227920   0.369   5.844   4.781 -0.6239  0.3135  0.2480
 9319TIP3    H127921   0.370   5.866   4.874 -0.7881  2.0183 -0.1201
 9319TIP3    H227922   0.276   5.850   4.756 -0.5884 -0.1806 -0.0262
 9320TIP3   OH227923   5.246   2.882   3.611  0.4809 -0.3978  0.2613
 9320TIP3    H127924   5.250   2.964   3.659 -2.1284 -0.5157  0.7702
 9320TIP3    H227925   5.263   2.815   3.676 -0.1310 -0.4008  0.4198
 9321TIP3   OH227926   2.985   4.333   4.581  0.0688 -0.0281  0.3869
 9321TIP3    H127927   2.941   4.259   4.623  0.5279 -0.1047  0.7521
 9321TIP3    H227928   3.065   4.295   4.543 -1.9609 -0.7052 -3.7266
 9322TIP3   OH227929   4.519   4.372   0.843  0.2430  0.3105  0.0602
 9322TIP3    H127930   4.534   4.389   0.936  0.7924  1.1827 -0.1749
 9322TIP3    H227931   4.590   4.313   0.818 -0.8022 -1.2068  0.5325
 9323TIP3   OH227932   1.329   4.162   0.998 -0.2729 -0.0251 -0.0883
 9323TIP3    H127933   1.361   4.220   0.929 -0.6574 -0.6266 -0.7843
 9323TIP3    H227934   1.371   4.078   0.980 -2.3119 -0.8987 -1.1460
 9324TIP3   OH227935   1.381   6.708   3.597  0.2695  0.0385  0.1203
 9324TIP3    H127936   1.320   6.647   3.555  0.6874  0.6885 -1.5081
 9324TIP3    H227937   1.459   6.655   3.615  0.5191 -0.0037 -1.0138
 9325TIP3   OH227938   0.460   4.202   1.029 -0.1278  0.2604 -0.6715
 9325TIP3    H127939   0.487   4.209   0.937  0.2411 -1.7626 -0.7494
 9325TIP3    H227940   0.530   4.152   1.070 -0.1877  1.3211  0.8000
 9326TIP3   OH227941   0.719   4.100   0.947 -0.3807  0.3059  0.4280
 9326TIP3    H127942   0.794   4.062   0.902 -1.0606  0.5320 -0.9376
 9326TIP3    H227943   0.701   4.040   1.019  1.2055  0.3460  0.9126
 9327TIP3   OH227944   4.611   6.243   5.761 -0.3969 -0.2321 -0.1060
 9327TIP3    H127945   4.705   6.228   5.762 -0.2637  0.4829 -0.9364
 9327TIP3    H227946   4.586   6.232   5.669 -0.8304  1.2188 -0.1893
 9328TIP3   OH227947   6.473   1.399   3.377 -0.5157  0.5867 -0.1784
 9328TIP3    H127948   6.391   1.383   3.331 -0.9876 -0.1724  0.8929
 9328TIP3    H227949   6.449   1.458   3.448 -0.3195 -0.3702  0.6923
 9329TIP3   OH227950   1.682   0.420   3.853 -0.3939 -0.4482  0.5474
 9329TIP3    H127951   1.697   0.457   3.940 -1.6423 -0.2112  0.6835
 9329TIP3    H227952   1.605   0.466   3.820 -0.0774 -0.7013 -0.5938
 9330TIP3   OH227953   6.562   1.201   2.091 -0.4541 -0.5308  0.3466
 9330TIP3    H127954   6.532   1.282   2.133 -2.7869 -1.1124 -0.0217
 9330TIP3    H227955   6.598   1.149   2.162 -0.1236  0.3186  0.8143
 9331TIP3   OH227956   2.207   5.000   1.179  0.4269  0.7045  0.4226
 9331TIP3    H127957   2.260   5.033   1.106  1.4198  2.3730  1.8194
 9331TIP3    H227958   2.142   4.944   1.137  1.2162  1.2585 -1.7049
 9332TIP3   OH227959   0.912   1.745   0.903 -0.1227  0.5305 -0.3973
 9332TIP3    H127960   1.003   1.748   0.931 -0.7522  1.3042  1.8111
 9332TIP3    H227961   0.873   1.823   0.943 -1.7110  0.3503 -1.5070
 9333TIP3   OH227962   4.321   2.961   3.362 -0.1790 -0.9985  0.4985
 9333TIP3    H127963   4.235   2.973   3.322 -0.0400 -0.3474  0.3825
 9333TIP3    H227964   4.303   2.915   3.444 -0.4759 -2.2735 -0.2452
 9334TIP3   OH227965   5.691   3.715   1.369 -0.2877 -0.3785 -0.6537
 9334TIP3    H127966   5.727   3.795   1.332 -0.8509  0.9715  1.5102
 9334TIP3    H227967   5.618   3.744   1.424 -0.5932 -2.3887  0.1111
 9335TIP3   OH227968   5.861   1.321   1.671 -0.6419  0.4925 -0.3879
 9335TIP3    H127969   5.778   1.366   1.685 -1.0806  0.2487 -1.9873
 9335TIP3    H227970   5.837   1.230   1.654 -0.2444  0.7485 -2.6280
 9336TIP3   OH227971   6.766   6.406   2.780 -0.1829 -0.0458  0.6915
 9336TIP3    H127972   6.704   6.338   2.751  0.6558 -0.1893 -0.8682
 9336TIP3    H227973   6.715   6.487   2.778 -0.1062  0.0229 -1.6799
 9337TIP3   OH227974   4.817   4.404   2.454  0.0111 -0.6614  0.0605
 9337TIP3    H127975   4.897   4.370   2.414 -0.5612 -0.7586 -1.0236
 9337TIP3    H227976   4.803   4.488   2.410 -0.4560 -0.6199  0.2889
 9338TIP3   OH227977   5.528   1.172   5.035  0.1113 -0.2970 -0.0314
 9338TIP3    H127978   5.460   1.173   4.968 -1.0560  1.7285  1.1006
 9338TIP3    H227979   5.501   1.102   5.095 -1.1028  0.6006  0.5004
 9339TIP3   OH227980   2.816   2.652   4.477 -0.1227 -0.3608 -0.1823
 9339TIP3    H127981   2.788   2.561   4.464 -0.1823 -0.4873  0.8120
 9339TIP3    H227982   2.748   2.704   4.433  0.3081 -0.7978 -1.4273
 9340TIP3   OH227983   0.219   0.496   3.416 -0.0009  0.0060  0.4272
 9340TIP3    H127984   0.247   0.506   3.325 -1.1829  1.7102  0.2142
 9340TIP3    H227985   0.299   0.508   3.467  0.6658 -0.9334 -0.3536
 9341TIP3   OH227986   0.105   1.652   4.370  0.3473  0.4832 -0.0536
 9341TIP3    H127987   0.182   1.609   4.333  0.3242  0.7319 -0.3934
 9341TIP3    H227988   0.033   1.628   4.312  0.3735  1.1542 -0.3785
 9342TIP3   OH227989   0.820   3.810   4.957 -0.3203 -0.5746  0.6594
 9342TIP3    H127990   0.764   3.749   4.910 -2.7364  1.9324 -0.0232
 9342TIP3    H227991   0.769   3.836   5.033  1.2592 -0.4720  1.7244
 9343TIP3   OH227992   3.845   2.510   0.920 -0.5656 -0.0248 -0.1978
 9343TIP3    H127993   3.803   2.587   0.881 -1.6370 -0.6926 -0.4080
 9343TIP3    H227994   3.882   2.542   1.002  0.5801  1.1039 -1.1145
 9344TIP3   OH227995   1.697   0.747   0.919  0.1361 -0.7399  0.1384
 9344TIP3    H127996   1.643   0.756   0.840  1.7550 -2.6179 -1.3043
 9344TIP3    H227997   1.778   0.795   0.898 -0.2614  0.6445  1.6016
 9345TIP3   OH227998   1.458   2.580   2.579 -0.2058  0.3916 -0.0400
 9345TIP3    H127999   1.439   2.490   2.605 -1.1986  0.4086 -0.6319
 9345TIP3    H228000   1.552   2.581   2.564 -0.0221 -0.2679  0.9982
 9346TIP3   OH228001   2.240   0.252   5.735  0.1425 -0.3131  0.1911
 9346TIP3    H128002   2.254   0.347   5.737  0.3770 -0.2199 -2.4840
 9346TIP3    H228003   2.146   0.242   5.717  0.4239 -0.5174 -1.2660
 9347TIP3   OH228004   2.916   1.084   2.761  0.2006  0.3468  0.2094
 9347TIP3    H128005   2.937   0.997   2.727 -0.0244  0.9222 -1.4821
 9347TIP3    H228006   2.990   1.139   2.735 -0.8824  1.2318 -1.1703
 9348TIP3   OH228007   6.250   6.437   1.864 -0.8929 -0.2549  0.1496
 9348TIP3    H128008   6.315   6.477   1.922 -0.9426  2.0336 -1.2183
 9348TIP3    H228009   6.188   6.394   1.922 -0.6973  1.5580  1.7910
 9349TIP3   OH228010   1.219   2.649   1.162  0.1835  0.2497 -0.4279
 9349TIP3    H128011   1.223   2.588   1.235 -0.0731  1.1381  0.3373
 9349TIP3    H228012   1.171   2.601   1.094  0.1299 -0.4521  0.0927
 9350TIP3   OH228013   2.558   2.681   3.563  0.4849 -0.0098  0.0565
 9350TIP3    H128014   2.635   2.637   3.527 -0.3417 -0.7062 -0.9377
 9350TIP3    H228015   2.496   2.682   3.490 -1.4623 -1.8951  1.5618
 9351TIP3   OH228016   4.193   0.274   2.647 -0.0528  0.1302  0.0970
 9351TIP3    H128017   4.150   0.195   2.681 -0.7515  0.8432  0.9207
 9351TIP3    H228018   4.132   0.307   2.581 -0.8374  1.1566  1.2836
 9352TIP3   OH228019   2.975   0.791   3.498  0.2010  0.4240  0.3252
 9352TIP3    H128020   3.054   0.839   3.474 -0.7881  0.4196 -3.6021
 9352TIP3    H228021   2.977   0.712   3.445 -1.8784 -0.1807  1.0132
 9353TIP3   OH228022   0.220   3.639   4.693 -0.5910 -0.1785  0.7030
 9353TIP3    H128023   0.282   3.694   4.741  2.0490 -1.5950 -0.8393
 9353TIP3    H228024   0.185   3.580   4.760  1.3624 -0.7079  1.3454
 9354TIP3   OH228025   6.025   3.476   2.782 -0.3412 -0.0665 -0.0468
 9354TIP3    H128026   6.088   3.507   2.847 -1.3316  0.2344  0.8140
 9354TIP3    H228027   6.017   3.549   2.721  1.4753 -0.7948 -1.2267
 9355TIP3   OH228028   2.625   5.560   0.756 -1.0543 -0.0023  0.5349
 9355TIP3    H128029   2.549   5.503   0.748 -0.8278 -0.0951 -1.3192
 9355TIP3    H228030   2.589   5.648   0.757 -1.2244 -0.0700  0.3507
 9356TIP3   OH228031   0.660   4.142   2.165  0.2636 -0.0463 -0.5021
 9356TIP3    H128032   0.750   4.132   2.132  1.3423  1.9261  1.6275
 9356TIP3    H228033   0.639   4.234   2.151 -1.5919 -0.5172 -1.1754
 9357TIP3   OH228034   3.276   1.030   0.985 -0.5708 -0.1559  0.1077
 9357TIP3    H128035   3.238   0.941   0.988 -3.0913  0.7930 -0.6140
 9357TIP3    H228036   3.301   1.042   0.893 -0.3826 -0.0817  0.1701
 9358TIP3   OH228037   6.794   4.195   0.195 -0.2316 -0.2536  0.4838
 9358TIP3    H128038   6.782   4.129   0.264  0.9887 -1.0011  0.0203
 9358TIP3    H228039   6.788   4.144   0.113  0.6974  0.2105  0.1189
 9359TIP3   OH228040   2.079   2.205   4.806 -0.2460  0.2333 -0.2618
 9359TIP3    H128041   2.109   2.294   4.823  1.2181 -0.0995 -0.9284
 9359TIP3    H228042   2.001   2.217   4.752 -1.8969  1.1421  2.1505
 9360TIP3   OH228043   4.572   3.044   5.539  0.0828  0.0910 -0.3462
 9360TIP3    H128044   4.518   3.123   5.533  0.9005  0.8292  1.2920
 9360TIP3    H228045   4.532   2.993   5.610  1.4987  0.6750  0.9265
 9361TIP3   OH228046   4.769   3.852   4.313  0.3657  0.3988 -0.2855
 9361TIP3    H128047   4.854   3.824   4.278 -0.1898 -0.7346 -0.7924
 9361TIP3    H228048   4.761   3.944   4.285  1.7420  0.7747  0.4413
 9362TIP3   OH228049   2.800   6.655   4.188 -0.7609 -0.0677 -0.3052
 9362TIP3    H128050   2.895   6.650   4.188 -0.8283 -2.8325 -0.4504
 9362TIP3    H228051   2.773   6.607   4.110 -2.2838  0.7250 -0.3073
 9363TIP3   OH228052   0.921   5.590   0.749 -0.3892 -0.2157 -0.5843
 9363TIP3    H128053   0.827   5.608   0.748 -0.4859 -0.7242 -0.7908
 9363TIP3    H228054   0.946   5.598   0.841 -0.5354  0.4278 -0.5982
 9364TIP3   OH228055   3.670   2.080   3.577 -0.0371  0.0147  0.0114
 9364TIP3    H128056   3.628   2.043   3.655 -0.7124  0.2959 -0.2083
 9364TIP3    H228057   3.734   2.015   3.551 -0.0078 -0.2151  0.6327
 9365TIP3   OH228058   1.517   0.080   3.439 -0.4817  0.6133  0.1602
 9365TIP3    H128059   1.610   0.068   3.421 -0.2177 -1.5999  2.3829
 9365TIP3    H228060   1.475   0.007   3.393 -1.2305  1.8650 -1.2193
 9366TIP3   OH228061   6.709   2.724   4.212 -0.1373 -0.0822  0.8514
 9366TIP3    H128062   6.623   2.765   4.219 -0.7638 -1.3039  0.5423
 9366TIP3    H228063   6.760   2.762   4.284 -0.5751  1.4456  0.3960
 9367TIP3   OH228064   0.892   5.245   3.549 -0.5358  0.1993 -0.1580
 9367TIP3    H128065   0.884   5.151   3.564 -2.3152  0.4497  0.7858
 9367TIP3    H228066   0.810   5.269   3.505 -0.5214  1.4516  0.4516
 9368TIP3   OH228067   0.921   4.558   4.862 -0.2135 -0.0219  0.2391
 9368TIP3    H128068   0.914   4.552   4.767  1.2171 -0.4512  0.1496
 9368TIP3    H228069   0.967   4.478   4.888  0.4655  0.6485  1.1661
 9369TIP3   OH228070   6.459   5.757   4.574  0.1572 -0.1982  0.2054
 9369TIP3    H128071   6.546   5.722   4.554  0.1844 -0.0564  0.0783
 9369TIP3    H228072   6.401   5.713   4.511  0.0783 -0.5834  0.5436
 9370TIP3   OH228073   5.917   5.926   5.266 -0.2226  0.3964 -0.1292
 9370TIP3    H128074   5.966   5.890   5.192 -0.9636 -2.2341  0.5366
 9370TIP3    H228075   5.831   5.948   5.229 -0.5380 -0.7574 -0.1140
 9371TIP3   OH228076   3.540   2.592   5.257 -0.2032 -0.0227 -0.0155
 9371TIP3    H128077   3.525   2.521   5.194  0.6451 -0.4412  0.2416
 9371TIP3    H228078   3.472   2.578   5.324 -1.0483  0.3705 -0.7651
 9372TIP3   OH228079   0.283   5.983   2.830  0.0867 -0.2828  0.3317
 9372TIP3    H128080   0.362   5.964   2.880  0.7282  0.2810 -0.4556
 9372TIP3    H228081   0.312   6.039   2.758 -1.0047 -0.1698 -0.0425
 9373TIP3   OH228082   3.599   0.756   3.715  0.6743  0.0010  0.5690
 9373TIP3    H128083   3.630   0.832   3.665  1.9633 -0.8089  0.0962
 9373TIP3    H228084   3.596   0.685   3.652 -0.7774 -0.2987  0.9558
 9374TIP3   OH228085   4.972   4.254   3.150 -0.3288 -0.0154 -0.4875
 9374TIP3    H128086   5.034   4.298   3.092 -0.4677 -0.5148 -1.0176
 9374TIP3    H228087   5.013   4.260   3.237 -1.2035  2.8278 -0.1606
 9375TIP3   OH228088   2.180   6.282   4.417  0.3948  0.3644 -0.0475
 9375TIP3    H128089   2.139   6.343   4.479 -1.3078 -1.2751  0.5318
 9375TIP3    H228090   2.223   6.339   4.353  0.0343  2.1445  1.2052
 9376TIP3   OH228091   2.116   4.528   2.229  1.0664 -0.6865 -0.3068
 9376TIP3    H128092   2.174   4.539   2.304 -1.9798 -0.1878  2.2082
 9376TIP3    H228093   2.080   4.616   2.214 -0.0782 -1.2171 -0.8194
 9377TIP3   OH228094   5.325   2.030   2.553 -0.5056  0.7183  0.4612
 9377TIP3    H128095   5.386   2.047   2.481 -1.5606  0.4840 -0.5012
 9377TIP3    H228096   5.366   1.958   2.602 -1.4101 -1.6376 -1.9622
 9378TIP3   OH228097   5.582   1.032   4.242  0.0458 -0.0331  0.2871
 9378TIP3    H128098   5.580   1.080   4.159 -0.7038 -0.3020  0.1421
 9378TIP3    H228099   5.499   0.984   4.244 -0.3028  0.5637  1.5320
 9379TIP3   OH228100   1.811   5.929   4.922  0.0022  0.2102  0.7100
 9379TIP3    H128101   1.774   5.927   4.834  0.4901  0.5113  0.4954
 9379TIP3    H228102   1.818   5.837   4.947  1.8295  0.0122 -0.4046
 9380TIP3   OH228103   3.996   5.837   5.427  0.0837 -0.1071  0.2906
 9380TIP3    H128104   4.027   5.884   5.350 -0.5364  2.6433  1.5826
 9380TIP3    H228105   4.002   5.901   5.498 -1.2554 -1.8867  2.1360
 9381TIP3   OH228106   3.757   4.888   5.159 -0.1872 -0.9124 -0.0789
 9381TIP3    H128107   3.670   4.872   5.196  0.6967 -2.5969  1.4233
 9381TIP3    H228108   3.771   4.982   5.170 -1.7478 -0.6326 -0.2222
 9382TIP3   OH228109   1.093   2.591   0.901 -0.5655 -0.4267 -0.1465
 9382TIP3    H128110   1.122   2.664   0.845 -0.2404 -0.9129 -0.6277
 9382TIP3    H228111   1.124   2.513   0.855 -0.8869 -0.8663  0.3804
 9383TIP3   OH228112   6.622   3.983   3.308  0.2593  0.3020  0.3224
 9383TIP3    H128113   6.590   4.073   3.312 -0.2331  0.3527 -2.5734
 9383TIP3    H228114   6.706   3.985   3.355  0.0695  2.1603  0.6451
 9384TIP3   OH228115   1.464   2.821   1.343  0.6360 -0.9458  0.1575
 9384TIP3    H128116   1.380   2.789   1.309  0.1412  1.6118 -1.3422
 9384TIP3    H228117   1.520   2.744   1.344 -1.7874 -2.8651  1.6459
 9385TIP3   OH228118   3.336   3.753   2.150 -0.3087 -0.4324  0.7474
 9385TIP3    H128119   3.262   3.807   2.124  0.6807 -0.5194 -2.7385
 9385TIP3    H228120   3.298   3.665   2.162 -0.7474 -0.7836 -2.3102
 9386TIP3   OH228121   3.017   4.335   4.901  0.1118  1.1834 -0.0819
 9386TIP3    H128122   3.056   4.329   4.814  0.1936 -1.0143  0.0514
 9386TIP3    H228123   3.089   4.317   4.961 -0.7144 -1.7658  0.2069
 9387TIP3   OH228124   5.037   4.287   2.347  0.0796  0.1124 -0.0047
 9387TIP3    H128125   5.130   4.268   2.361 -0.2408 -1.6160  0.0786
 9387TIP3    H228126   4.992   4.242   2.419 -0.7629  2.0172  0.7091
 9388TIP3   OH228127   2.654   5.127   0.128 -0.0459  0.4553 -0.6236
 9388TIP3    H128128   2.669   5.166   0.214  0.1884 -1.2464  0.1528
 9388TIP3    H228129   2.562   5.100   0.131  0.1024 -0.0652 -0.6999
 9389TIP3   OH228130   5.267   2.723   5.327 -0.2912  0.6203 -0.1845
 9389TIP3    H128131   5.290   2.729   5.419 -0.1452  0.4460 -0.2096
 9389TIP3    H228132   5.343   2.681   5.286  0.1454  1.7305 -0.5730
 9390TIP3   OH228133   0.941   4.239   3.641  0.6814  0.3284 -0.5134
 9390TIP3    H128134   0.860   4.210   3.682  0.1454  1.2462 -0.9029
 9390TIP3    H228135   0.932   4.334   3.633  2.6529  0.7660  1.3018
 9391TIP3   OH228136   2.443   2.133   1.694 -0.2636 -0.3769 -0.2353
 9391TIP3    H128137   2.527   2.175   1.713  1.2509 -2.3742 -1.9227
 9391TIP3    H228138   2.416   2.093   1.777  0.1611  0.7290  0.4521
 9392TIP3   OH228139   1.365   1.954   3.965  0.1361  0.3968 -0.4962
 9392TIP3    H128140   1.317   1.896   4.023 -0.9714  0.2854 -1.4772
 9392TIP3    H228141   1.403   2.020   4.023 -0.2673 -0.1517  0.4178
 9393TIP3   OH228142   4.772   1.118   4.614  0.7485  0.6850 -0.2314
 9393TIP3    H128143   4.769   1.147   4.523  0.4446  1.1512 -0.0773
 9393TIP3    H228144   4.710   1.046   4.619  1.0538  0.4032 -0.4823
 9394TIP3   OH228145   1.469   5.906   4.069 -0.3592  0.0442 -0.0587
 9394TIP3    H128146   1.526   5.855   4.012  0.2661  0.9737 -0.2870
 9394TIP3    H228147   1.439   5.843   4.136  0.2929 -0.6349 -0.3922
 9395TIP3   OH228148   1.890   4.794   5.548  0.4899 -0.0207 -0.0845
 9395TIP3    H128149   1.806   4.815   5.589  0.0670 -0.7461 -0.5682
 9395TIP3    H228150   1.914   4.709   5.584 -0.0343 -0.8132 -1.5242
 9396TIP3   OH228151   6.381   3.877   3.272 -0.2594 -0.1851  0.0349
 9396TIP3    H128152   6.472   3.887   3.300 -0.0223 -2.1618  0.1342
 9396TIP3    H228153   6.332   3.938   3.327  0.5865 -1.6514  2.5955
 9397TIP3   OH228154   0.597   3.982   1.830  0.5015  0.2683 -0.1973
 9397TIP3    H128155   0.518   3.939   1.798  0.1937  1.3124 -0.8762
 9397TIP3    H228156   0.565   4.052   1.887  0.9763  0.1078  0.2842
 9398TIP3   OH228157   3.918   0.430   3.669  0.0010 -0.1914 -0.3502
 9398TIP3    H128158   4.005   0.417   3.708 -0.3658  0.2281  0.6447
 9398TIP3    H228159   3.877   0.343   3.674  0.4161 -0.4298 -0.9766
 9399TIP3   OH228160   3.762   4.364   1.251  0.0750 -0.0056  0.2846
 9399TIP3    H128161   3.696   4.385   1.185 -0.5246  2.1316  1.4677
 9399TIP3    H228162   3.782   4.272   1.237 -1.1640 -0.0130 -1.8519
 9400TIP3   OH228163   7.162   3.020   0.618 -0.3324 -0.0613 -0.1483
 9400TIP3    H128164   7.253   3.017   0.649 -0.0553  1.8546 -0.5960
 9400TIP3    H228165   7.150   2.939   0.570  0.1000 -1.8390  2.5467
 9401TIP3   OH228166   5.716   0.788   5.177  0.5812 -0.2107 -0.3744
 9401TIP3    H128167   5.808   0.808   5.192  0.5010 -0.0705 -0.0653
 9401TIP3    H228168   5.704   0.801   5.083  0.9649 -0.5998 -0.4794
 9402TIP3   OH228169   3.916   6.782   0.240 -0.2403  0.9309 -0.6323
 9402TIP3    H128170   3.923   6.807   0.148 -0.2093 -0.7329 -1.1055
 9402TIP3    H228171   3.857   6.707   0.241 -0.4138  1.0461  0.7481
 9403TIP3   OH228172   1.383   0.586   1.329  0.4130 -0.7300 -0.1148
 9403TIP3    H128173   1.309   0.532   1.298  0.9737 -1.2141 -0.6343
 9403TIP3    H228174   1.408   0.638   1.253 -0.4135  0.6402  0.5050
 9404TIP3   OH228175   1.858   0.499   1.746  0.1920 -0.3024  0.1849
 9404TIP3    H128176   1.813   0.433   1.799  0.7809  0.1267  1.2697
 9404TIP3    H228177   1.951   0.478   1.755  0.2732 -0.7269 -1.4067
 9405TIP3   OH228178   6.940   1.678   1.927 -0.8564 -0.2995 -0.0515
 9405TIP3    H128179   6.863   1.723   1.891 -0.9163 -1.1570 -1.0450
 9405TIP3    H228180   7.010   1.697   1.865 -0.4382 -0.1347  0.4600
 9406TIP3   OH228181   1.038   0.695   2.775 -0.0640 -0.0245  0.0582
 9406TIP3    H128182   1.045   0.714   2.681  0.0665  0.8280  0.2353
 9406TIP3    H228183   0.991   0.611   2.778 -0.1493 -0.0215 -0.7661
 9407TIP3   OH228184   1.462   2.567   2.876  0.1770  0.1560  0.6438
 9407TIP3    H128185   1.550   2.600   2.859  0.5816 -0.5199  1.3513
 9407TIP3    H228186   1.435   2.525   2.795  0.8328 -0.3413  0.6833
 9408TIP3   OH228187   5.978   6.465   4.228  0.2938  0.2310  0.1406
 9408TIP3    H128188   5.891   6.451   4.189  0.6519  1.5394 -1.2238
 9408TIP3    H228189   5.999   6.555   4.206  2.7669 -0.5659 -1.1465
 9409TIP3   OH228190   6.740   1.867   3.688 -0.0838 -0.2928  0.0007
 9409TIP3    H128191   6.743   1.803   3.758  1.1118 -0.2911 -0.0180
 9409TIP3    H228192   6.684   1.828   3.621  2.5253 -2.5292 -1.1051
 9410TIP3   OH228193   1.206   1.703   4.747 -0.7610  0.3257  0.1687
 9410TIP3    H128194   1.267   1.768   4.711  1.5007 -1.9467 -0.3365
 9410TIP3    H228195   1.194   1.730   4.839 -0.7261  2.0077 -0.2843
 9411TIP3   OH228196   4.597   4.895   4.418 -0.3679  0.5957 -0.1457
 9411TIP3    H128197   4.661   4.905   4.348 -2.6628  1.0323 -2.3155
 9411TIP3    H228198   4.529   4.839   4.381 -0.8378 -0.6913  2.4107
 9412TIP3   OH228199   2.688   0.040   3.514  0.0420  0.2872  0.1837
 9412TIP3    H128200   2.647  -0.046   3.523  0.0491  0.2287 -0.3030
 9412TIP3    H228201   2.616   0.099   3.492  0.3836 -0.0699 -2.1264
 9413TIP3   OH228202   4.264   2.044   0.871  0.8006 -0.0861  0.0882
 9413TIP3    H128203   4.327   2.089   0.928  1.6538 -0.1330 -0.8025
 9413TIP3    H228204   4.179   2.064   0.910  1.4072 -0.8416  1.8871
 9414TIP3   OH228205   3.793   6.728   2.355 -0.4873  0.0460 -0.1344
 9414TIP3    H128206   3.783   6.728   2.260  1.1438 -0.4380 -0.3357
 9414TIP3    H228207   3.854   6.656   2.372 -1.7820 -0.7367  1.4027
 9415TIP3   OH228208   4.311   0.965   2.791  0.4508 -0.0741 -0.0154
 9415TIP3    H128209   4.401   0.995   2.775  0.4489 -0.0292  0.0576
 9415TIP3    H228210   4.282   1.016   2.867  0.1855  0.2897 -0.3513
 9416TIP3   OH228211   4.958   2.756   3.839 -0.3002 -0.6571  0.2125
 9416TIP3    H128212   5.050   2.773   3.818  0.1285 -0.9871  1.6549
 9416TIP3    H228213   4.926   2.703   3.767  0.4972 -0.1230 -0.5566
 9417TIP3   OH228214   4.896   2.141   1.868  0.1452  0.4469  0.1567
 9417TIP3    H128215   4.955   2.159   1.795  0.8603  1.4022  0.9537
 9417TIP3    H228216   4.812   2.121   1.826 -0.0503  3.1328 -0.9126
 9418TIP3   OH228217   6.355   4.405   2.981 -0.0588 -0.1489 -0.1632
 9418TIP3    H128218   6.367   4.315   3.010 -0.8990  0.1297  1.1137
 9418TIP3    H228219   6.411   4.457   3.039 -0.3558  0.2511 -0.2313
 9419TIP3   OH228220   2.253   3.456   4.036 -0.3115  0.4115  0.1329
 9419TIP3    H128221   2.190   3.434   3.967  1.6089 -2.4558 -0.9232
 9419TIP3    H228222   2.319   3.509   3.992 -0.0232  0.1202  0.2070
 9420TIP3   OH228223   5.271   5.302   1.219  0.4627 -0.8467 -0.3438
 9420TIP3    H128224   5.315   5.219   1.235  1.0519  0.0484  3.7692
 9420TIP3    H228225   5.340   5.368   1.226 -0.8279  0.4502  4.7693
 9421TIP3   OH228226   1.971   4.308   1.864 -0.1521  0.2471 -0.6285
 9421TIP3    H128227   1.883   4.343   1.878 -1.2178 -2.9905  2.3512
 9421TIP3    H228228   1.960   4.239   1.799 -0.2925 -1.2649  0.9111
 9422TIP3   OH228229   4.043   0.085   5.813  0.0349  0.0264 -0.3063
 9422TIP3    H128230   4.117   0.048   5.765 -0.2585  0.1758 -0.8885
 9422TIP3    H228231   4.048   0.179   5.796 -1.3552 -0.1396 -1.9245
 9423TIP3   OH228232   0.875   5.398   5.580 -0.3055 -0.5835  0.0397
 9423TIP3    H128233   0.944   5.410   5.646  0.2078  0.0538 -0.5866
 9423TIP3    H228234   0.800   5.446   5.614 -0.6079 -1.6613  0.9443
 9424TIP3   OH228235   5.497   1.796   0.534  0.0837  0.0099 -0.0413
 9424TIP3    H128236   5.480   1.765   0.623 -0.2799  0.9394  0.2204
 9424TIP3    H228237   5.507   1.716   0.483 -0.3584 -0.5373  0.7060
 9425TIP3   OH228238   2.783   3.836   1.234 -0.0911 -0.0695 -0.1788
 9425TIP3    H128239   2.854   3.809   1.293 -0.7672  0.5038  0.9262
 9425TIP3    H228240   2.721   3.882   1.290 -0.4896  1.0111 -1.4473
 9426TIP3   OH228241   5.600   0.962   0.821  0.1122  0.3514  0.3038
 9426TIP3    H128242   5.650   0.886   0.852 -0.0659  0.8187  1.7957
 9426TIP3    H228243   5.510   0.943   0.844  0.1712  1.3767  1.5053
 9427TIP3   OH228244   0.617   1.623   1.855  0.2834  0.3935  0.0166
 9427TIP3    H128245   0.677   1.691   1.885 -0.5609  0.7618  0.9226
 9427TIP3    H228246   0.612   1.562   1.929 -1.1519  0.8525  0.3205
 9428TIP3   OH228247   6.556   1.483   0.263 -0.3821 -0.2885  0.6142
 9428TIP3    H128248   6.621   1.527   0.318 -1.1137 -1.3086  2.3756
 9428TIP3    H228249   6.480   1.542   0.265  0.7237  1.4115 -2.2812
 9429TIP3   OH228250   5.569   2.097   5.829 -0.0938  0.1756 -0.5191
 9429TIP3    H128251   5.642   2.041   5.856 -0.4523  0.0988  0.3270
 9429TIP3    H228252   5.582   2.179   5.875  0.7785  1.0695 -2.2480
 9430TIP3   OH228253   4.418   4.107   4.397  0.3466  0.2491 -0.4582
 9430TIP3    H128254   4.465   4.066   4.470 -0.1275 -1.0227 -0.8363
 9430TIP3    H228255   4.487   4.140   4.339  0.7654 -0.6276 -0.4721
 9431TIP3   OH228256   0.653   2.410   2.132  0.2686  0.2756 -0.3350
 9431TIP3    H128257   0.686   2.476   2.071 -0.4816  0.6838 -0.3095
 9431TIP3    H228258   0.588   2.457   2.186 -1.8291 -0.9280 -1.6859
 9432TIP3   OH228259   5.955   5.413   5.057 -0.7349  0.0833 -0.1315
 9432TIP3    H128260   6.034   5.466   5.071 -1.3215  1.0149 -0.2363
 9432TIP3    H228261   5.929   5.384   5.144 -1.0621  0.9605  0.0769
 9433TIP3   OH228262   2.568   0.765   4.171 -0.0636  0.4221 -0.3955
 9433TIP3    H128263   2.521   0.769   4.254 -0.0283 -0.4478 -0.3228
 9433TIP3    H228264   2.556   0.851   4.132 -0.1269  0.8258  0.4874
 9434TIP3   OH228265   4.468   0.978   1.384 -0.0990  0.0107 -0.0194
 9434TIP3    H128266   4.542   0.919   1.397 -1.4429 -2.1280 -1.3829
 9434TIP3    H228267   4.397   0.939   1.436 -1.0664  0.3204 -1.0753
 9435TIP3   OH228268   4.657   2.136   2.853 -0.0380 -1.3918  1.0963
 9435TIP3    H128269   4.688   2.174   2.770 -0.1857  0.1569  1.7182
 9435TIP3    H228270   4.710   2.179   2.920 -0.1951 -2.3371  1.8502
 9436TIP3   OH228271   2.534   4.177   2.265 -0.1821  0.0193 -0.0582
 9436TIP3    H128272   2.543   4.193   2.171  1.1484 -0.1570  0.0268
 9436TIP3    H228273   2.473   4.244   2.296 -1.0878 -0.2735 -1.1301
 9437TIP3   OH228274   0.323   0.956   0.186  0.4380  0.0493 -0.2597
 9437TIP3    H128275   0.253   1.015   0.213 -0.4064 -0.6252 -0.9252
 9437TIP3    H228276   0.363   0.999   0.110 -0.3947 -0.3844 -0.9510
 9438TIP3   OH228277   2.066   6.667   4.990 -0.1068  0.1764 -0.2597
 9438TIP3    H128278   2.042   6.735   4.927  0.6116  1.1099  0.4311
 9438TIP3    H228279   2.063   6.585   4.941  1.1665  0.9472 -1.7037
 9439TIP3   OH228280   1.351   5.407   3.804 -0.1498  0.6897 -0.3350
 9439TIP3    H128281   1.383   5.458   3.730 -0.7877  0.7568 -0.5647
 9439TIP3    H228282   1.258   5.428   3.810 -0.2025  0.3262  0.1947
 9440TIP3   OH228283   3.546   1.272   2.011 -0.2436  0.6447 -0.0319
 9440TIP3    H128284   3.622   1.223   2.042 -0.5882  0.1019 -0.0193
 9440TIP3    H228285   3.551   1.356   2.056 -0.3433  0.1331  0.9613
 9441TIP3   OH228286   1.811   1.369   5.032  0.0295  0.7202 -0.5754
 9441TIP3    H128287   1.813   1.454   4.989  0.2443  0.4434 -1.1346
 9441TIP3    H228288   1.900   1.355   5.064 -0.1859  1.0257  0.1752
 9442TIP3   OH228289   0.263   5.616   0.180 -0.0208 -0.1225 -0.0612
 9442TIP3    H128290   0.272   5.610   0.275  1.3112 -1.3425 -0.2281
 9442TIP3    H228291   0.258   5.525   0.150  0.0309  0.2305 -1.1893
 9443TIP3   OH228292   1.875   0.230   0.441  0.0368 -0.1027  0.5350
 9443TIP3    H128293   1.918   0.243   0.356  0.0166 -1.0886  0.3644
 9443TIP3    H228294   1.937   0.178   0.492  0.0961  0.5773  1.1767
 9444TIP3   OH228295   6.762   4.604   1.030  0.1514 -0.7916 -0.7267
 9444TIP3    H128296   6.721   4.528   0.989 -1.7239  0.0160 -0.4392
 9444TIP3    H228297   6.741   4.678   0.972  0.1187 -0.1458  0.0815
 9445TIP3   OH228298   1.399   1.883   0.964 -0.0461 -0.3616  0.3737
 9445TIP3    H128299   1.441   1.852   0.884 -0.1813  0.6214 -0.0918
 9445TIP3    H228300   1.323   1.826   0.975  0.4897 -1.0964  0.3169
 9446TIP3   OH228301   1.952   5.180   0.940 -0.4060 -0.2856  0.1275
 9446TIP3    H128302   2.038   5.214   0.913 -1.1469  1.0938 -0.6523
 9446TIP3    H228303   1.925   5.124   0.868 -0.4244 -0.2094  0.0741
 9447TIP3   OH228304   2.874   2.477   3.992 -0.2637 -0.2141  0.9097
 9447TIP3    H128305   2.793   2.436   3.961 -0.2137  1.3101 -1.4254
 9447TIP3    H228306   2.926   2.403   4.027 -1.5067 -1.6378 -0.1186
 9448TIP3   OH228307   3.509   6.119   3.208  0.2321 -0.3736 -0.1939
 9448TIP3    H128308   3.516   6.047   3.145  0.5845 -0.9473  0.4905
 9448TIP3    H228309   3.423   6.158   3.189 -0.8515 -2.1875  0.6781
 9449TIP3   OH228310   3.560   6.511   2.544 -0.1916 -0.5432 -0.9296
 9449TIP3    H128311   3.591   6.601   2.544  0.3725 -0.7103  0.5174
 9449TIP3    H228312   3.588   6.476   2.628  1.1639 -2.6286 -2.1681
 9450TIP3   OH228313   2.937   4.359   3.219  0.1192 -0.3078 -0.1118
 9450TIP3    H128314   2.856   4.400   3.248  0.6677  3.0151 -2.7245
 9450TIP3    H228315   2.918   4.327   3.131  1.5486  0.4027 -0.7075
 9451TIP3   OH228316   4.355   6.271   4.646 -0.1661  0.4742 -0.7473
 9451TIP3    H128317   4.438   6.320   4.640 -0.1391  0.8740  1.7987
 9451TIP3    H228318   4.289   6.333   4.617 -0.0228  1.8361  1.5653
 9452TIP3   OH228319   4.343   2.513   2.153 -0.3647  0.1907 -0.2944
 9452TIP3    H128320   4.335   2.557   2.237  0.4386 -2.3812  1.2431
 9452TIP3    H228321   4.270   2.450   2.152  1.8518 -2.6131  0.4344
 9453TIP3   OH228322   2.732   0.279   2.409  0.0452 -0.1156 -0.3924
 9453TIP3    H128323   2.701   0.282   2.499 -0.2325  1.2217 -0.5070
 9453TIP3    H228324   2.827   0.285   2.416 -0.0328  1.2477 -0.2048
 9454TIP3   OH228325   2.513   5.031   2.685  0.2500 -0.1500  0.0120
 9454TIP3    H128326   2.526   4.937   2.671 -1.7525 -0.3877 -0.5454
 9454TIP3    H228327   2.519   5.070   2.597 -0.8258 -0.0315 -0.0152
 9455TIP3   OH228328   6.726   1.833   4.240 -0.1560 -0.2759  0.5735
 9455TIP3    H128329   6.776   1.886   4.303  1.2026 -1.4182  0.5110
 9455TIP3    H228330   6.775   1.842   4.158 -0.1987 -1.1978  0.4377
 9456TIP3   OH228331   0.758   2.455   4.990  0.4060 -0.4016 -0.0932
 9456TIP3    H128332   0.811   2.390   5.035  3.5656  1.0432 -1.4637
 9456TIP3    H228333   0.805   2.473   4.909 -3.1835 -0.2894 -2.3753
 9457TIP3   OH228334   4.235   3.041   1.982 -0.1163 -0.6917  0.2345
 9457TIP3    H128335   4.177   2.979   1.937  1.9374 -0.7014 -2.7109
 9457TIP3    H228336   4.217   3.125   1.939 -1.0453  0.2930  2.4186
 9458TIP3   OH228337   2.421   1.627   0.659 -0.9448  0.1025  0.1450
 9458TIP3    H128338   2.450   1.565   0.727 -1.2908 -0.8020 -0.5088
 9458TIP3    H228339   2.360   1.576   0.605 -1.5233  1.1287 -0.1981
 9459TIP3   OH228340   1.167   1.227   0.268 -0.3615  0.4195 -0.2479
 9459TIP3    H128341   1.177   1.200   0.176  0.3389  3.6181 -1.2196
 9459TIP3    H228342   1.085   1.276   0.270 -0.6290 -0.0374  0.9957
 9460TIP3   OH228343   4.334   1.506   3.697 -0.1488 -0.4879 -0.1838
 9460TIP3    H128344   4.303   1.575   3.755 -0.7291 -1.2934  0.5032
 9460TIP3    H228345   4.280   1.430   3.721  0.7846 -1.2908 -0.5932
 9461TIP3   OH228346   0.557   0.784   1.531  0.3757 -0.1101 -0.5058
 9461TIP3    H128347   0.473   0.817   1.498  0.1750 -2.0043 -2.0179
 9461TIP3    H228348   0.541   0.692   1.550  2.0062 -0.3967 -0.3699
 9462TIP3   OH228349   0.603   6.443   2.972 -0.0229 -0.2204  0.0375
 9462TIP3    H128350   0.513   6.417   2.952 -0.2815  1.5613 -1.4345
 9462TIP3    H228351   0.650   6.432   2.889  0.5065  1.1718  0.1300
 9463TIP3   OH228352   3.082   1.682   3.744 -0.2006 -0.4921 -0.2109
 9463TIP3    H128353   3.105   1.766   3.783  1.5115 -0.5577 -0.9658
 9463TIP3    H228354   3.066   1.702   3.651 -0.6612 -0.8642 -0.2146
 9464TIP3   OH228355   3.208   0.004   0.980  0.1955 -0.2957 -0.2424
 9464TIP3    H128356   3.272  -0.019   0.913  0.0122  0.0477 -0.5411
 9464TIP3    H228357   3.225   0.097   0.999 -0.5851 -0.0423 -0.7441
 9465TIP3   OH228358   3.130   5.346   3.334 -0.2159  0.0903  0.3419
 9465TIP3    H128359   3.143   5.414   3.267  0.2620 -0.4259 -0.1023
 9465TIP3    H228360   3.210   5.348   3.386  0.1146 -0.6290 -0.1325
 9466TIP3   OH228361   4.369   0.019   4.792 -0.1758 -0.2684  0.2450
 9466TIP3    H128362   4.304  -0.043   4.760 -0.7084  0.3803  0.0699
 9466TIP3    H228363   4.423   0.040   4.716 -0.6129  0.2471  0.0765
 9467TIP3   OH228364   4.478   1.395   4.454 -0.2641  0.7022 -0.1026
 9467TIP3    H128365   4.500   1.318   4.402  0.6975 -1.2950  2.9829
 9467TIP3    H228366   4.397   1.428   4.415 -1.4850 -2.6914 -0.7863
 9468TIP3   OH228367   5.443   4.144   0.128 -0.0214  0.0601 -0.3052
 9468TIP3    H128368   5.417   4.125   0.037 -0.3205 -2.1003  0.1857
 9468TIP3    H228369   5.374   4.105   0.181  0.0426  1.4795  0.8953
 9469TIP3   OH228370   1.665   0.567   4.587  0.3396 -0.0916  0.0935
 9469TIP3    H128371   1.624   0.481   4.575  1.8596 -0.7941 -0.2563
 9469TIP3    H228372   1.714   0.582   4.507  1.6244  0.2255  0.9046
 9470TIP3   OH228373   1.914   4.668   2.976 -0.4033 -0.3799 -0.8923
 9470TIP3    H128374   1.982   4.610   2.941 -0.8798 -1.4535 -0.0988
 9470TIP3    H228375   1.961   4.725   3.038 -0.0087 -0.1925 -1.3530
 9471TIP3   OH228376   4.260   5.098   2.688 -0.7633 -0.0136 -0.1368
 9471TIP3    H128377   4.273   5.192   2.699  2.6656 -0.4277  0.4393
 9471TIP3    H228378   4.175   5.081   2.729 -2.2662  2.9824 -1.6579
 9472TIP3   OH228379   4.391   4.646   0.530  0.0222  0.1334 -0.1786
 9472TIP3    H128380   4.415   4.626   0.620  1.7040 -0.4411 -0.7196
 9472TIP3    H228381   4.321   4.585   0.509 -2.8097  2.4695  1.7510
 9473TIP3   OH228382   4.421   1.693   2.436 -0.5824  0.4011 -0.3871
 9473TIP3    H128383   4.450   1.689   2.345 -0.6388  1.1149 -0.4455
 9473TIP3    H228384   4.468   1.623   2.480  0.0896  0.5957 -0.7890
 9474TIP3   OH228385   6.483   6.514   1.071 -0.0982  0.0886 -0.0335
 9474TIP3    H128386   6.427   6.592   1.073 -0.0264  0.1952 -1.3594
 9474TIP3    H228387   6.498   6.493   1.163 -0.6878  1.2291  0.3422
 9475TIP3   OH228388   3.230   2.678   2.535 -0.0521 -0.0470  0.9615
 9475TIP3    H128389   3.196   2.706   2.620 -0.2561  0.6421  0.6598
 9475TIP3    H228390   3.152   2.657   2.484  0.0710 -0.4763  0.9439
 9476TIP3   OH228391   0.633   0.904   3.577  0.2727 -0.3746  0.0733
 9476TIP3    H128392   0.596   0.942   3.497  0.8682  2.3242  0.9769
 9476TIP3    H228393   0.558   0.895   3.636  0.1403 -0.5229 -0.1161
 9477TIP3   OH228394   3.091   1.315   5.173 -0.3012 -0.4416  0.8642
 9477TIP3    H128395   3.168   1.265   5.198 -2.0654 -2.0772  3.4556
 9477TIP3    H228396   3.055   1.347   5.256 -1.3821  1.9461 -0.4262
 9478TIP3   OH228397   7.086   3.988   1.541  0.4401  0.2992  0.5535
 9478TIP3    H128398   7.141   3.990   1.620  1.2048  0.3349  0.0374
 9478TIP3    H228399   7.113   4.065   1.492 -1.6931  1.6200  1.3123
 9479TIP3   OH228400   6.635   3.309   1.841  0.7136 -0.1279  0.3594
 9479TIP3    H128401   6.661   3.297   1.932  1.5234  0.1252  0.1621
 9479TIP3    H228402   6.597   3.397   1.838  0.2473 -0.3173  0.5446
 9480TIP3   OH228403   6.007   0.255   5.567  0.2782 -0.3754 -0.2316
 9480TIP3    H128404   6.004   0.176   5.620 -1.6232 -1.0752 -1.2827
 9480TIP3    H228405   6.082   0.242   5.508  0.7454 -0.7989  0.4398
 9481TIP3   OH228406   3.382   6.111   1.615 -0.8983  0.2009 -0.4542
 9481TIP3    H128407   3.426   6.116   1.530  2.5329  1.1117  1.1604
 9481TIP3    H228408   3.392   6.199   1.652 -1.4681 -0.4036  1.2317
 9482TIP3   OH228409   1.145   0.061   0.153 -0.1155  0.6602  0.2296
 9482TIP3    H128410   1.155  -0.008   0.087  2.2078  1.1301  0.0220
 9482TIP3    H228411   1.150   0.014   0.237 -0.6391  0.3470  0.0913
 9483TIP3   OH228412   6.314   1.148   5.294 -0.5915  0.4663  0.3532
 9483TIP3    H128413   6.365   1.217   5.253  0.3829 -0.6058 -0.2978
 9483TIP3    H228414   6.277   1.189   5.372 -1.0973  2.0663 -0.6703
 9484TIP3   OH228415   6.596   5.080   0.720 -0.2173 -0.4552  0.4177
 9484TIP3    H128416   6.689   5.065   0.703 -0.2273 -0.1154  0.0717
 9484TIP3    H228417   6.577   5.024   0.796  0.0182 -1.3226 -0.1483
 9485TIP3   OH228418   4.728   4.214   0.701 -0.1767  0.3168  0.5081
 9485TIP3    H128419   4.741   4.293   0.649  1.6884  0.4386  1.0807
 9485TIP3    H228420   4.816   4.179   0.714 -1.0043 -2.5277 -0.7069
 9486TIP3   OH228421   3.997   6.260   0.662 -0.3676 -0.0478 -0.4359
 9486TIP3    H128422   3.942   6.310   0.603 -0.7044 -0.0711 -0.1457
 9486TIP3    H228423   3.959   6.172   0.661  0.4452 -0.4083 -1.2379
 9487TIP3   OH228424   6.494   1.139   1.830  0.3656  0.3432 -0.2058
 9487TIP3    H128425   6.504   1.224   1.788 -0.4229  1.1094  1.0934
 9487TIP3    H228426   6.510   1.157   1.923 -3.3537 -0.1537  0.6731
 9488TIP3   OH228427   2.817   5.839   4.357 -0.2528 -0.0388 -0.3049
 9488TIP3    H128428   2.911   5.858   4.364  0.2323 -2.2636  0.1933
 9488TIP3    H228429   2.790   5.880   4.275  1.3170  0.0869 -0.7960
 9489TIP3   OH228430   0.811   4.385   0.998  0.2233 -0.2475 -0.5742
 9489TIP3    H128431   0.791   4.296   0.969  1.7583  0.0515 -2.8448
 9489TIP3    H228432   0.831   4.376   1.091 -2.5303 -1.7379 -0.0254
 9490TIP3   OH228433   6.710   2.156   2.808  0.4492 -0.1289  0.2627
 9490TIP3    H128434   6.715   2.129   2.899  1.5037 -0.0653  0.2295
 9490TIP3    H228435   6.616   2.168   2.792 -0.1746 -4.0008  0.1877
 9491TIP3   OH228436   1.588   6.651  -0.024 -0.6034 -0.4121  0.4461
 9491TIP3    H128437   1.556   6.740  -0.007 -1.7215 -0.8285  0.5978
 9491TIP3    H228438   1.651   6.635   0.046 -0.0068  0.4349  0.1281
 9492TIP3   OH228439   6.684   1.492   4.394  0.5415 -0.6925  0.3182
 9492TIP3    H128440   6.610   1.437   4.418  0.3669 -0.1420  1.1040
 9492TIP3    H228441   6.695   1.478   4.300 -0.5075 -0.8460  0.2024
 9493TIP3   OH228442   1.625   2.275   0.485 -0.2225 -0.1967 -0.0324
 9493TIP3    H128443   1.600   2.211   0.551 -1.2352 -2.0787 -2.1127
 9493TIP3    H228444   1.719   2.285   0.495 -0.0832 -1.8391  0.5245
 9494TIP3   OH228445   0.839   2.943   2.385 -0.4969 -0.2099  0.1394
 9494TIP3    H128446   0.801   2.863   2.350  0.4095 -1.4043  1.7145
 9494TIP3    H228447   0.928   2.919   2.409  0.1736  1.5972 -0.3618
 9495TIP3   OH228448   0.331   0.261   1.086 -0.0146 -0.1441 -0.1616
 9495TIP3    H128449   0.282   0.181   1.068 -0.1078 -0.4355  1.2764
 9495TIP3    H228450   0.295   0.326   1.026 -0.3003 -1.0326 -0.9751
 9496TIP3   OH228451   5.091   3.169   1.307  0.2188  0.0413 -0.0650
 9496TIP3    H128452   5.054   3.240   1.255  0.4544  0.3448  0.1728
 9496TIP3    H228453   5.015   3.119   1.337 -0.0940  1.2171  1.2223
 9497TIP3   OH228454   4.320   2.903   1.648 -0.4911 -0.2828 -0.2859
 9497TIP3    H128455   4.393   2.865   1.696  0.2581 -0.7415 -1.7367
 9497TIP3    H228456   4.331   2.998   1.660  1.1599 -0.2636 -1.5671
 9498TIP3   OH228457   3.950   3.083   0.296 -0.2659  0.4120 -0.0618
 9498TIP3    H128458   3.917   3.012   0.352 -1.3934  0.2905 -0.8535
 9498TIP3    H228459   4.030   3.113   0.340  0.7309 -1.9260 -0.1837
 9499TIP3   OH228460   1.942   6.500   4.276 -0.2751 -0.2277  0.1963
 9499TIP3    H128461   2.029   6.533   4.298 -0.6533  0.2558  0.9983
 9499TIP3    H228462   1.901   6.481   4.360 -0.6150 -1.3543 -0.1931
 9500TIP3   OH228463   3.771   1.225   2.622 -0.1094 -0.1103 -0.0876
 9500TIP3    H128464   3.761   1.292   2.554 -0.6606  0.8020  0.8769
 9500TIP3    H228465   3.866   1.217   2.633  0.0060 -0.5894 -1.2513
 9501TIP3   OH228466   1.979   5.730   2.889  0.1696 -0.7126 -0.2095
 9501TIP3    H128467   1.963   5.660   2.952 -1.6142  0.2435  0.4675
 9501TIP3    H228468   2.049   5.782   2.928  1.4466 -1.9886 -0.6721
 9502TIP3   OH228469   7.053   3.861   5.082  0.7743 -0.2426  0.1295
 9502TIP3    H128470   6.981   3.881   5.142  1.5980 -1.9939  1.8249
 9502TIP3    H228471   7.018   3.793   5.025 -0.4121  2.2580 -2.3427
 9503TIP3   OH228472   5.578   6.236   3.311  0.0470  0.2230 -0.8924
 9503TIP3    H128473   5.672   6.225   3.326  0.4795  2.0797 -1.9060
 9503TIP3    H228474   5.537   6.211   3.395  1.5923  1.2338  0.2138
 9504TIP3   OH228475   1.683   3.556   4.817  0.3399 -0.6856  0.2348
 9504TIP3    H128476   1.646   3.588   4.899 -1.3276  1.3197 -1.1823
 9504TIP3    H228477   1.745   3.624   4.790 -0.8645 -0.1175 -1.2559
 9505TIP3   OH228478   6.604   4.328   4.817 -0.2495  0.3733  0.3584
 9505TIP3    H128479   6.628   4.419   4.799 -1.1393  0.6995  0.7765
 9505TIP3    H228480   6.610   4.284   4.732  1.8138  0.4192  0.4379
 9506TIP3   OH228481   2.475   2.859   5.308  0.7352  0.0401 -0.1908
 9506TIP3    H128482   2.568   2.843   5.325  0.6063 -0.9832 -0.3818
 9506TIP3    H228483   2.455   2.804   5.233 -0.3172 -0.6873  0.6080
 9507TIP3   OH228484   4.600   1.844   0.134 -0.5491  0.3760  0.0775
 9507TIP3    H128485   4.562   1.931   0.134 -0.3023  0.5141 -1.1970
 9507TIP3    H228486   4.692   1.858   0.156 -0.0965  0.6957 -1.7969
 9508TIP3   OH228487   4.251   5.971   0.485 -0.8832 -0.1538 -0.1751
 9508TIP3    H128488   4.193   5.938   0.554 -1.3111  0.5082 -0.2126
 9508TIP3    H228489   4.195   6.027   0.432 -0.0322  1.1170  0.2346
 9509TIP3   OH228490   4.786   6.481   3.203 -0.0145 -0.2260 -0.5131
 9509TIP3    H128491   4.734   6.534   3.143  0.2205  0.5237 -0.0568
 9509TIP3    H228492   4.877   6.503   3.183  0.0558  1.3785  1.2773
 9510TIP3   OH228493   6.068   4.514   3.823 -0.4854 -0.2513 -0.3145
 9510TIP3    H128494   6.159   4.494   3.800 -0.4065  0.5456 -0.7352
 9510TIP3    H228495   6.047   4.452   3.893 -0.1487 -1.5167 -1.2884
 9511TIP3   OH228496   4.615   5.563   1.320 -0.1196  0.1321  0.2455
 9511TIP3    H128497   4.669   5.494   1.283 -0.4751 -1.2073  2.0621
 9511TIP3    H228498   4.587   5.615   1.245  0.0712 -1.7566 -1.1986
 9512TIP3   OH228499   3.032   5.892   5.623  0.8973 -0.0687  0.0314
 9512TIP3    H128500   3.066   5.975   5.658  3.5526 -1.0474 -0.0127
 9512TIP3    H228501   3.077   5.882   5.539 -0.5164 -0.8812 -0.6643
 9513TIP3   OH228502   1.638   2.658   3.152  0.3137 -0.9634  0.1637
 9513TIP3    H128503   1.621   2.739   3.200 -0.0282 -0.0151 -1.4780
 9513TIP3    H228504   1.551   2.630   3.121  0.5179 -1.5907  0.1473
 9514TIP3   OH228505   0.413   3.021   2.063  0.4294  0.3426  0.2264
 9514TIP3    H128506   0.458   2.958   2.007 -2.4260 -2.0235  0.3226
 9514TIP3    H228507   0.331   3.040   2.017 -0.5206  0.9079  2.0548
 9515TIP3   OH228508   1.008   2.981   5.653 -0.4289  0.0756  0.7975
 9515TIP3    H128509   0.971   2.893   5.661 -0.8933  0.3512  1.8025
 9515TIP3    H228510   1.007   3.016   5.742 -1.1199  1.4481  0.2770
 9516TIP3   OH228511   4.979   1.474   0.986 -0.2491  0.8948  0.0392
 9516TIP3    H128512   4.895   1.480   0.940 -0.5263  2.0254  0.6618
 9516TIP3    H228513   5.029   1.549   0.954  0.8668 -0.2285 -0.9522
 9517TIP3   OH228514   4.285   6.131   2.419 -0.1344 -0.2629 -0.4009
 9517TIP3    H128515   4.334   6.211   2.437 -1.9946  0.9577 -0.5336
 9517TIP3    H228516   4.334   6.062   2.465  1.1466  1.0385  0.2604
 9518TIP3   OH228517   2.170   0.915   1.256 -0.1591  0.0241  0.0317
 9518TIP3    H128518   2.190   0.945   1.168  0.5907 -0.3267  0.0751
 9518TIP3    H228519   2.117   0.836   1.243  1.0824 -0.8131 -0.1419
 9519TIP3   OH228520   0.827   5.967   2.158 -0.2842  0.4785  0.4104
 9519TIP3    H128521   0.878   5.978   2.239  1.1513  0.4526 -0.4450
 9519TIP3    H228522   0.740   5.940   2.187  0.9781 -2.4017  1.8811
 9520TIP3   OH228523   2.921   3.564   1.914 -0.6949 -0.6361 -0.5936
 9520TIP3    H128524   2.876   3.649   1.911  0.7022  0.1935  0.4299
 9520TIP3    H228525   2.983   3.567   1.841 -0.0580 -0.3947 -0.0588
 9521TIP3   OH228526   4.604   0.292   2.174 -0.2210 -0.4145  0.3569
 9521TIP3    H128527   4.519   0.248   2.175 -0.3256 -0.2657 -0.6160
 9521TIP3    H228528   4.632   0.288   2.082  0.5014  0.1437  0.5429
 9522TIP3   OH228529   5.509   2.051   2.350 -0.3889 -0.0487 -0.1901
 9522TIP3    H128530   5.519   2.113   2.278  1.6722  0.1505  0.1981
 9522TIP3    H228531   5.559   1.974   2.321  0.1583 -0.1001  0.8588
 9523TIP3   OH228532   7.081   3.349   2.942  0.4503  0.0336 -0.1547
 9523TIP3    H128533   7.051   3.291   2.872  0.4995 -1.4197  0.9945
 9523TIP3    H228534   7.018   3.335   3.013  1.1050  0.5601  0.5372
 9524TIP3   OH228535   4.218   3.006   1.008  0.5823 -0.5397 -0.3078
 9524TIP3    H128536   4.270   3.052   1.074  1.7411 -3.5248  1.0098
 9524TIP3    H228537   4.136   3.056   1.004  2.5272  2.9622 -0.7530
 9525TIP3   OH228538   2.286   2.878   2.049  0.3356 -0.1264  0.0196
 9525TIP3    H128539   2.216   2.924   2.003 -2.5651 -2.1087  2.0425
 9525TIP3    H228540   2.301   2.930   2.128 -0.6794 -0.8861  0.7528
 9526TIP3   OH228541   0.904   1.103   1.269 -0.4702  0.0033 -0.1410
 9526TIP3    H128542   0.846   1.050   1.324  0.9069  1.5502  3.1106
 9526TIP3    H228543   0.886   1.193   1.297  0.1072  0.9350 -2.5548
 9527TIP3   OH228544   3.384   0.816   1.162 -0.5858  0.2940 -0.3217
 9527TIP3    H128545   3.438   0.889   1.132  2.4201 -1.4502  0.3268
 9527TIP3    H228546   3.344   0.781   1.082  0.7098  0.6260 -1.1492
 9528TIP3   OH228547   3.659   3.910   0.680 -0.5976  0.3364  0.1712
 9528TIP3    H128548   3.643   3.838   0.619 -1.5595  0.6612  0.0157
 9528TIP3    H228549   3.712   3.872   0.750 -0.1924 -0.2492 -0.4446
 9529TIP3   OH228550   3.749   6.476   2.106  0.5191 -0.1106  0.0814
 9529TIP3    H128551   3.776   6.457   2.196 -1.3995 -0.6966  0.5806
 9529TIP3    H228552   3.755   6.392   2.061 -0.4431 -0.2511  0.2048
 9530TIP3   OH228553   0.267   5.362   4.601 -0.3442  0.2211  0.1159
 9530TIP3    H128554   0.232   5.443   4.639 -1.7200 -0.2324 -0.1264
 9530TIP3    H228555   0.282   5.384   4.509  0.7982  0.6487  0.3923
 9531TIP3   OH228556   2.359   3.712   3.198  0.3095  0.7696 -0.2901
 9531TIP3    H128557   2.334   3.803   3.215 -2.0511  0.1522 -0.0653
 9531TIP3    H228558   2.316   3.663   3.268  0.6449 -0.6200 -1.0377
 9532TIP3   OH228559   0.594   5.234   5.778 -0.3773  0.0173 -0.8216
 9532TIP3    H128560   0.668   5.276   5.734 -0.6965 -0.3650 -1.7460
 9532TIP3    H228561   0.590   5.146   5.741  1.2947 -1.5087  2.2331
 9533TIP3   OH228562   4.405   0.669   2.169  0.2034 -0.3277  0.0170
 9533TIP3    H128563   4.406   0.616   2.089  2.6342  1.1728 -1.0389
 9533TIP3    H228564   4.380   0.757   2.140  1.8835  0.4146  0.7413
 9534TIP3   OH228565   5.055   2.108   3.456 -0.4959  0.7496  0.3193
 9534TIP3    H128566   5.029   2.067   3.538  0.3451  0.2633  0.3564
 9534TIP3    H228567   4.977   2.156   3.427 -2.1217 -2.1106 -0.5357
 9535TIP3   OH228568   3.466   1.449   2.232  0.4147  0.1826  0.2949
 9535TIP3    H128569   3.444   1.380   2.294  0.1793 -0.1927 -0.2002
 9535TIP3    H228570   3.393   1.511   2.238 -0.5207 -0.7668 -0.9172
 9536TIP3   OH228571   4.716   0.944   5.748  0.4297 -1.1924  0.0678
 9536TIP3    H128572   4.752   0.930   5.835 -0.6830 -0.0793  0.7371
 9536TIP3    H228573   4.725   1.038   5.733 -0.1238 -1.2452 -0.6706
 9537TIP3   OH228574   6.073   3.889   4.327  0.3787  0.0297 -0.1595
 9537TIP3    H128575   6.033   3.822   4.382  0.1154 -0.7902 -1.3148
 9537TIP3    H228576   6.060   3.857   4.238  1.1811  1.1121 -0.6784
 9538TIP3   OH228577   0.107   5.557   4.717 -0.1319 -0.1670 -0.1739
 9538TIP3    H128578   0.100   5.652   4.730 -1.2054 -0.5526  3.0107
 9538TIP3    H228579   0.017   5.530   4.697 -0.8540 -0.9097  3.4375
 9539TIP3   OH228580   4.183   4.939   3.321  0.4183  0.0210  0.1663
 9539TIP3    H128581   4.191   4.871   3.254 -0.6174  0.0094  0.0420
 9539TIP3    H228582   4.159   4.891   3.401  1.8620  0.0084  0.6213
 9540TIP3   OH228583   6.918   6.536   4.312 -0.3009  0.0834 -0.3390
 9540TIP3    H128584   6.912   6.587   4.392 -0.4649 -1.7466  0.8878
 9540TIP3    H228585   6.828   6.532   4.279 -0.7190 -1.2826  0.8490
 9541TIP3   OH228586   5.734   1.627   5.662 -0.3108  0.7326 -0.4342
 9541TIP3    H128587   5.641   1.646   5.670 -0.2523  0.3746  1.5090
 9541TIP3    H228588   5.777   1.712   5.666 -0.5168  0.8542 -0.7960
 9542TIP3   OH228589   5.121   2.222   2.295  0.5449 -0.3686  0.3970
 9542TIP3    H128590   5.137   2.209   2.202 -3.6778 -1.2737 -0.3870
 9542TIP3    H228591   5.110   2.134   2.330 -1.6805  0.0270  0.8474
 9543TIP3   OH228592   5.476   0.115   1.344 -0.0037  0.1016  0.0852
 9543TIP3    H128593   5.404   0.155   1.296 -0.9590 -0.5517  0.9269
 9543TIP3    H228594   5.457   0.021   1.340  0.0447  0.0178  1.4811
 9544TIP3   OH228595   0.727   3.002   4.140  0.0121 -0.4624  0.0650
 9544TIP3    H128596   0.681   2.937   4.086 -0.0539 -3.1403  3.0462
 9544TIP3    H228597   0.819   2.979   4.132 -0.0019 -0.9166  1.0461
 9545TIP3   OH228598   4.361   1.769   5.725  0.2082 -0.6438  0.5894
 9545TIP3    H128599   4.314   1.789   5.806  1.3784 -0.2924  1.2047
 9545TIP3    H228600   4.357   1.674   5.718 -1.6104 -0.5548 -0.0163
 9546TIP3   OH228601   1.167   0.738   0.115 -0.1581  0.1408 -0.6725
 9546TIP3    H128602   1.209   0.656   0.089  0.5073  0.6292 -1.1661
 9546TIP3    H228603   1.128   0.771   0.034 -2.6968 -0.9461 -0.0026
 9547TIP3   OH228604   2.710   1.148   2.281  0.1572  0.2773  0.3705
 9547TIP3    H128605   2.726   1.206   2.356  2.4905  0.5214 -0.2422
 9547TIP3    H228606   2.753   1.066   2.304 -0.0535 -0.0197 -0.2644
 9548TIP3   OH228607   6.817   2.414   0.802 -0.1745 -0.1933 -0.6533
 9548TIP3    H128608   6.902   2.448   0.827 -0.4928  1.6747 -1.9102
 9548TIP3    H228609   6.805   2.335   0.855  2.2048 -0.3598 -0.2894
 9549TIP3   OH228610   1.829   3.652   0.014 -0.0403 -0.6736 -0.3202
 9549TIP3    H128611   1.830   3.700  -0.069  3.1328  0.7720  0.4268
 9549TIP3    H228612   1.835   3.719   0.081 -1.4071 -1.8873  1.1051
 9550TIP3   OH228613   1.383   5.606   2.580  0.1053 -0.3537  0.2519
 9550TIP3    H128614   1.440   5.531   2.565 -2.3386 -2.5153  0.9807
 9550TIP3    H228615   1.320   5.604   2.507 -0.5942  0.3550  0.8116
 9551TIP3   OH228616   6.583   6.212   2.721  0.5306 -0.1893  0.4650
 9551TIP3    H128617   6.491   6.230   2.741  1.2027  0.8688  3.0816
 9551TIP3    H228618   6.583   6.124   2.685 -1.8614  1.1537 -3.4599
 9552TIP3   OH228619   4.242   3.584   1.060 -0.4664 -0.3267 -0.4474
 9552TIP3    H128620   4.295   3.555   1.135 -1.2238  0.7059  0.5230
 9552TIP3    H228621   4.294   3.560   0.984  0.8720 -0.3783  0.4389
 9553TIP3   OH228622   5.706   3.004   0.438  0.1609 -0.6840  0.3862
 9553TIP3    H128623   5.620   2.967   0.459 -0.5287  0.1785 -0.7431
 9553TIP3    H228624   5.704   3.092   0.476  0.3668 -0.5026 -0.0160
 9554TIP3   OH228625   5.925   6.334   1.317  0.0072  0.0775 -0.0060
 9554TIP3    H128626   5.857   6.329   1.384  0.6523 -0.8767  0.5930
 9554TIP3    H228627   5.894   6.276   1.247  0.6988 -1.2428  0.7455
 9555TIP3   OH228628   1.470   6.186   3.680 -0.3104  0.0509  0.3443
 9555TIP3    H128629   1.406   6.246   3.642  0.0307 -0.5570 -1.2870
 9555TIP3    H228630   1.548   6.240   3.694  0.2518 -0.0857 -1.8260
 9556TIP3   OH228631   6.843   0.581   0.776 -0.6324  0.2890  0.2793
 9556TIP3    H128632   6.840   0.623   0.862  0.3985 -0.9168  0.9347
 9556TIP3    H228633   6.924   0.529   0.778 -0.9595 -0.3109 -1.1621
 9557TIP3   OH228634   6.086   6.134   5.582  0.5003 -0.4528 -0.7565
 9557TIP3    H128635   6.179   6.140   5.602  0.8285  0.0034 -2.2448
 9557TIP3    H228636   6.042   6.147   5.665  1.7149  1.9067 -0.4128
 9558TIP3   OH228637   3.658   5.905   4.748  0.0278 -0.1937  0.1367
 9558TIP3    H128638   3.619   5.988   4.775 -0.4083 -0.2581 -0.2791
 9558TIP3    H228639   3.750   5.912   4.774  0.6139  1.4168 -2.0687
 9559TIP3   OH228640   6.434   2.142   4.886  0.1705 -0.3336  0.8057
 9559TIP3    H128641   6.496   2.113   4.952  0.5866  0.8324  0.9461
 9559TIP3    H228642   6.351   2.100   4.911 -0.0268  1.1552  2.8977
 9560TIP3   OH228643   6.378   2.691   0.492  0.9888  0.7167  0.6505
 9560TIP3    H128644   6.435   2.750   0.541  2.0852 -0.6938  1.1722
 9560TIP3    H228645   6.302   2.677   0.548  0.2723  2.2866  0.1330
 9561TIP3   OH228646   2.631   5.577   2.057 -0.8349 -0.0801  0.7275
 9561TIP3    H128647   2.660   5.536   2.138 -1.4994  0.6260  1.3448
 9561TIP3    H228648   2.593   5.506   2.006  0.4322 -0.7020  0.6146
 9562TIP3   OH228649   4.411   6.788   4.064 -0.3600  0.4065 -0.1514
 9562TIP3    H128650   4.407   6.860   4.002 -2.8718 -0.4413 -1.0908
 9562TIP3    H228651   4.386   6.711   4.013 -0.2834 -0.6921  1.4032
 9563TIP3   OH228652   2.731   3.425   0.369  0.1593  0.4755 -0.5291
 9563TIP3    H128653   2.762   3.465   0.451 -2.4672  1.9784 -0.1703
 9563TIP3    H228654   2.638   3.411   0.383 -0.7766  2.4021 -3.8365
 9564TIP3   OH228655   4.425   0.244   0.546  0.2235 -0.3620 -0.0050
 9564TIP3    H128656   4.494   0.196   0.501 -0.9270 -1.6450 -0.4934
 9564TIP3    H228657   4.465   0.275   0.626  1.5871 -0.3580 -0.6697
 9565TIP3   OH228658   1.963   6.540   5.220 -0.8916 -0.0541  0.6526
 9565TIP3    H128659   2.003   6.562   5.136  2.0543 -1.0160  1.6613
 9565TIP3    H228660   1.957   6.444   5.220 -0.5237 -0.0973  1.6245
 9566TIP3   OH228661   4.462   1.630   2.923 -0.3012 -0.6476  0.0165
 9566TIP3    H128662   4.475   1.716   2.884  0.0437 -1.2578 -1.2475
 9566TIP3    H228663   4.428   1.649   3.011  2.2099  0.8428  0.7769
 9567TIP3   OH228664   1.587   5.132   2.683 -0.0836  0.1830  0.1641
 9567TIP3    H128665   1.595   5.091   2.769 -3.7725 -1.6630 -0.1978
 9567TIP3    H228666   1.580   5.059   2.622 -0.9626  1.4145 -1.2744
 9568TIP3   OH228667   2.798   6.002   5.505  0.0798  0.1614 -0.2316
 9568TIP3    H128668   2.752   5.919   5.515  0.4969 -0.0904 -0.3425
 9568TIP3    H228669   2.878   5.991   5.557 -0.1189  0.6951  0.1878
 9569TIP3   OH228670   6.688   0.105   0.455 -0.3389 -0.3763  0.6763
 9569TIP3    H128671   6.637   0.150   0.523 -1.3903 -1.9069  0.9333
 9569TIP3    H228672   6.633   0.107   0.378 -0.4532 -1.3398  0.7291
 9570TIP3   OH228673   1.502   5.981   3.252 -0.2069  0.5339 -0.5556
 9570TIP3    H128674   1.545   5.965   3.336  0.9525  0.8969 -1.0608
 9570TIP3    H228675   1.421   5.931   3.257  0.4208 -0.4349  0.3062
 9571TIP3   OH228676   4.534   4.561   3.617  0.1697 -0.2593  0.0688
 9571TIP3    H128677   4.542   4.634   3.556  0.4201 -1.1134 -0.9585
 9571TIP3    H228678   4.623   4.527   3.626  0.0796 -0.3362  0.6580
 9572TIP3   OH228679   1.011   5.734   4.996  0.0697 -0.5644 -0.0848
 9572TIP3    H128680   1.082   5.792   4.968 -1.8227  1.5804 -0.7506
 9572TIP3    H228681   1.055   5.654   5.024  2.5789 -0.4005 -3.0370
 9573TIP3   OH228682   4.127   0.859   0.645  0.3673 -0.2268  0.1576
 9573TIP3    H128683   4.123   0.793   0.576  0.3376 -0.0311 -0.0296
 9573TIP3    H228684   4.218   0.889   0.644 -0.0340  1.0550 -1.0136
 9574TIP3   OH228685   5.850   4.697   1.363  0.3403 -0.3156  0.6166
 9574TIP3    H128686   5.868   4.791   1.373  0.4939 -0.2606 -0.0867
 9574TIP3    H228687   5.763   4.685   1.400 -0.5685  0.4988 -1.1236
 9575TIP3   OH228688   3.086   1.343   5.742 -0.1544  0.6018  0.2664
 9575TIP3    H128689   3.075   1.370   5.833 -2.3726  0.5795  0.0600
 9575TIP3    H228690   3.049   1.416   5.691 -0.7262 -0.2185 -0.5229
 9576TIP3   OH228691   5.043   0.982   5.266  0.0341 -0.1664  0.3153
 9576TIP3    H128692   5.017   0.914   5.204  1.2841 -0.5893  0.2355
 9576TIP3    H228693   5.024   0.944   5.352  0.3090 -0.4435  0.2556
 9577TIP3   OH228694   1.459   1.335   0.751 -0.2604  0.1704  0.2006
 9577TIP3    H128695   1.410   1.298   0.677  0.2603 -0.9778  0.4153
 9577TIP3    H228696   1.543   1.360   0.714 -0.3099  0.3777  0.2291
 9578TIP3   OH228697   5.297   4.901   1.820 -0.5842  0.4811 -0.1785
 9578TIP3    H128698   5.254   4.816   1.817  0.9718 -0.3180 -1.1129
 9578TIP3    H228699   5.335   4.906   1.908 -4.6020  2.3641  1.7511
 9579TIP3   OH228700   4.537   6.455   5.515  0.1701  0.1987  0.2351
 9579TIP3    H128701   4.518   6.402   5.438  0.3832  0.6761 -0.1534
 9579TIP3    H228702   4.474   6.425   5.581  0.5555 -0.8097  0.1590
 9580TIP3   OH228703   0.827   1.042   3.281 -0.0519 -0.1044 -0.3851
 9580TIP3    H128704   0.818   1.132   3.248  0.3235 -0.1286 -0.5692
 9580TIP3    H228705   0.743   1.001   3.261 -0.5887  0.4861  0.6025
 9581TIP3   OH228706   0.191   2.938   1.642  0.0703  0.0129 -0.2881
 9581TIP3    H128707   0.149   3.012   1.599 -0.6340 -0.8273 -1.0699
 9581TIP3    H228708   0.204   2.873   1.573 -1.6917 -1.6407  0.8417
 9582TIP3   OH228709   6.663   2.662   2.823 -0.1894  0.5778 -0.2654
 9582TIP3    H128710   6.735   2.689   2.879 -0.1284 -0.5608  0.2251
 9582TIP3    H228711   6.599   2.622   2.883 -0.9352  0.9703 -0.7751
 9583TIP3   OH228712   0.354   5.751   5.265  0.4581 -0.1655  0.5062
 9583TIP3    H128713   0.260   5.763   5.255  0.5663  0.9976  0.6351
 9583TIP3    H228714   0.380   5.698   5.190 -0.0654  0.9174 -0.4781
 9584TIP3   OH228715   1.014   5.388   1.581  0.4767  0.1045  0.0104
 9584TIP3    H128716   0.949   5.454   1.559  0.0899 -0.4826 -0.6671
 9584TIP3    H228717   0.966   5.324   1.633  1.0286  0.7188  1.3194
 9585TIP3   OH228718   3.879   0.565   2.975 -0.3428  0.2851 -0.2850
 9585TIP3    H128719   3.908   0.588   2.887 -1.2378  2.9240  0.0160
 9585TIP3    H228720   3.839   0.479   2.965  0.3143  0.1476 -2.2697
 9586TIP3   OH228721   0.259   5.590   1.783  0.6736 -0.0309 -0.1567
 9586TIP3    H128722   0.330   5.652   1.766 -1.2752  2.0601 -1.1654
 9586TIP3    H228723   0.272   5.521   1.717  1.6002  0.4480 -0.5065
 9587TIP3   OH228724   4.030   3.421   5.714 -0.3054  0.1227  0.2127
 9587TIP3    H128725   4.032   3.492   5.650  1.6395  1.3041  1.4613
 9587TIP3    H228726   4.032   3.341   5.662 -2.2471  0.9293 -1.2240
 9588TIP3   OH228727   4.148   3.234   0.403 -0.3828 -0.1406 -0.2912
 9588TIP3    H128728   4.147   3.233   0.499 -1.0792 -0.8035 -0.2961
 9588TIP3    H228729   4.225   3.287   0.381 -1.9319  2.7499  0.6507
 9589TIP3   OH228730   4.083   4.129   0.335 -0.2484  0.2912  0.5315
 9589TIP3    H128731   4.166   4.083   0.322  0.4777  1.5596  0.5416
 9589TIP3    H228732   4.082   4.197   0.267 -1.8375 -0.4328 -0.2286
 9590TIP3   OH228733   6.424   5.325   2.060  0.0599 -0.7026 -0.3373
 9590TIP3    H128734   6.477   5.263   2.109 -0.0605 -1.0256 -0.6122
 9590TIP3    H228735   6.387   5.384   2.126  1.2225 -0.1163 -0.1961
 9591TIP3   OH228736   3.549   5.975   0.178  0.6134  0.1772 -0.5333
 9591TIP3    H128737   3.519   5.936   0.095  2.3493 -1.2641 -0.5433
 9591TIP3    H228738   3.485   6.043   0.196 -1.4142 -1.3088 -1.6152
 9592TIP3   OH228739   1.027   6.207   3.625  0.1162  0.1396 -0.2902
 9592TIP3    H128740   0.995   6.155   3.551  0.3871  1.6338 -1.5047
 9592TIP3    H228741   0.956   6.205   3.688 -0.3308 -0.7340 -0.7932
 9593TIP3   OH228742   1.064   6.503   2.636 -0.3700 -0.0792 -0.5223
 9593TIP3    H128743   1.128   6.574   2.634  0.0047 -0.3833  0.3814
 9593TIP3    H228744   1.111   6.430   2.675 -1.7655  0.1886  1.8024
 9594TIP3   OH228745   0.663   6.741   5.424  0.2883 -0.1381  0.0784
 9594TIP3    H128746   0.701   6.787   5.350 -0.0914  3.1834  1.7922
 9594TIP3    H228747   0.716   6.767   5.499  0.4349 -3.0792  1.1506
 9595TIP3   OH228748   0.761   2.757   1.706  0.4298 -0.2842  0.3225
 9595TIP3    H128749   0.795   2.797   1.626 -0.9498 -0.6174 -0.4643
 9595TIP3    H228750   0.673   2.727   1.683  0.5891 -1.8025  1.5208
 9596TIP3   OH228751   4.244   0.098   5.051  0.5227 -0.1230 -0.3726
 9596TIP3    H128752   4.155   0.133   5.050 -0.4971 -2.5094 -0.8310
 9596TIP3    H228753   4.267   0.091   4.958  0.6407 -0.7422 -0.3009
 9597TIP3   OH228754   5.730   4.427   2.801  0.2334  0.0276  0.1736
 9597TIP3    H128755   5.664   4.487   2.765  0.7270  1.7100  1.8666
 9597TIP3    H228756   5.728   4.351   2.743 -0.0296  1.9002 -2.4593
 9598TIP3   OH228757   5.344   5.090   4.779 -0.0233 -0.5599  0.5127
 9598TIP3    H128758   5.357   5.183   4.795  2.1929 -0.6705 -0.3029
 9598TIP3    H228759   5.316   5.055   4.864  0.9864  0.5569  1.3420
 9599TIP3   OH228760   3.154   0.483   4.430 -0.1560  0.4934  0.1301
 9599TIP3    H128761   3.179   0.416   4.366 -0.5730 -0.2311  0.7058
 9599TIP3    H228762   3.187   0.565   4.393  2.2363 -0.2672  0.3732
 9600TIP3   OH228763   0.025   0.808   4.181 -0.2906 -0.1048  0.7162
 9600TIP3    H128764   0.024   0.901   4.203 -0.9190 -0.1793  1.0319
 9600TIP3    H228765   0.055   0.764   4.261  1.9970 -0.0444 -0.0412
 9601TIP3   OH228766   6.419   3.171   0.332 -0.1037  0.2258 -1.3328
 9601TIP3    H128767   6.341   3.181   0.387 -1.3756 -1.9484 -2.6276
 9601TIP3    H228768   6.417   3.081   0.303  3.7797 -0.4366 -0.2220
 9602TIP3   OH228769   7.227   6.289   5.653 -0.1992 -0.1037 -0.7027
 9602TIP3    H128770   7.161   6.353   5.679  1.4477  0.4235  2.7035
 9602TIP3    H228771   7.193   6.205   5.685  0.8800  0.2544  1.6414
 9603TIP3   OH228772   4.443   6.421   1.560 -0.0887  0.3159  0.0169
 9603TIP3    H128773   4.424   6.329   1.544  0.2065  0.1696  0.4746
 9603TIP3    H228774   4.443   6.430   1.655  0.7160  0.5973  0.0054
 9604TIP3   OH228775   5.942   0.631   5.884  0.0143  0.1638  0.4436
 9604TIP3    H128776   5.961   0.546   5.924  1.9712  0.9516  1.3006
 9604TIP3    H228777   6.017   0.648   5.827 -0.7715  0.9340 -0.3801
 9605TIP3   OH228778   2.191   4.198   1.086  0.2860  0.2353 -0.1059
 9605TIP3    H128779   2.174   4.266   1.151 -2.9761 -1.7030  1.3139
 9605TIP3    H228780   2.262   4.146   1.125 -0.7928 -0.1837  1.3967
 9606TIP3   OH228781   5.763   1.368   5.538 -0.1112 -0.3556 -0.1955
 9606TIP3    H128782   5.758   1.452   5.584  0.6024 -1.3700  1.8683
 9606TIP3    H228783   5.851   1.367   5.500  0.2045 -0.5073  0.5229
 9607TIP3   OH228784   4.791   5.955   0.937  0.4844  0.4568  0.5480
 9607TIP3    H128785   4.728   5.893   0.902  0.1645  1.0274  0.1019
 9607TIP3    H228786   4.856   5.966   0.866  1.9783 -1.3117  1.5525
 9608TIP3   OH228787   3.499   0.672   1.365 -0.2415 -0.2304  0.1627
 9608TIP3    H128788   3.441   0.668   1.441 -0.0581 -1.6014  0.2450
 9608TIP3    H228789   3.451   0.726   1.302 -0.0422  1.6298  1.5148
 9609TIP3   OH228790   3.013   0.385   0.484  0.3478 -0.4184  0.0399
 9609TIP3    H128791   3.007   0.444   0.559 -0.3172 -2.6166  1.8106
 9609TIP3    H228792   2.927   0.343   0.478 -0.1733  0.7757 -2.9989
 9610TIP3   OH228793   2.784   4.202   4.883 -0.7104  0.6039 -0.4948
 9610TIP3    H128794   2.860   4.259   4.893 -0.4743  0.1906  0.1073
 9610TIP3    H228795   2.818   4.123   4.841 -0.2669 -0.6363  2.0153
 9611TIP3   OH228796   0.383   2.594   1.498 -0.2020 -0.3042  1.1614
 9611TIP3    H128797   0.299   2.629   1.465 -0.1258 -0.5253  0.7246
 9611TIP3    H228798   0.406   2.525   1.436  1.3381  1.1155  0.0743
 9612TIP3   OH228799   1.380   3.182   5.673 -0.1262 -0.3369 -0.0538
 9612TIP3    H128800   1.336   3.240   5.735 -0.4064 -2.3426  1.7187
 9612TIP3    H228801   1.452   3.143   5.722  1.2909 -0.0488 -1.7850
 9613TIP3   OH228802   5.157   4.210   1.309  0.3551 -0.0375 -0.0839
 9613TIP3    H128803   5.148   4.142   1.243  0.8213 -1.1711  0.9781
 9613TIP3    H228804   5.174   4.162   1.390  2.3815  1.3851  0.4135
 9614TIP3   OH228805   5.247   6.628   0.862  0.4235 -0.6587  0.5265
 9614TIP3    H128806   5.251   6.659   0.771  0.1161  0.0586  0.7528
 9614TIP3    H228807   5.323   6.668   0.904 -0.3114  0.3084  0.9701
 9615TIP3   OH228808   5.150   6.654   4.149  0.7778 -0.0795 -0.3227
 9615TIP3    H128809   5.104   6.681   4.069  2.6282 -1.9254 -2.1535
 9615TIP3    H228810   5.237   6.692   4.139  1.2726 -0.9962  0.4133
 9616TIP3   OH228811   0.610   5.257   3.441  0.1251  0.2134  0.1635
 9616TIP3    H128812   0.541   5.290   3.383 -0.0682  2.6958  1.6582
 9616TIP3    H228813   0.563   5.230   3.520  0.7873  1.3327  0.9521
 9617TIP3   OH228814   5.116   0.995   0.404 -0.1406  0.4388 -0.6367
 9617TIP3    H128815   5.210   1.013   0.413 -0.2775  0.2234  3.9387
 9617TIP3    H228816   5.075   1.082   0.405 -0.1074  0.5707 -3.2956
 9618TIP3   OH228817   5.069   4.198   5.072 -0.1159 -0.5305 -0.1231
 9618TIP3    H128818   5.092   4.257   5.001  0.6298 -2.0831 -1.2380
 9618TIP3    H228819   5.147   4.193   5.127  0.6136 -2.1062 -1.2426
 9619TIP3   OH228820   4.577   4.875   5.015  0.7098  0.0174  0.7600
 9619TIP3    H128821   4.579   4.849   4.923 -1.6066 -0.5523  0.8103
 9619TIP3    H228822   4.629   4.955   5.018 -0.1362  0.7280 -1.2958
 9620TIP3   OH228823   6.690   4.017   0.400  0.0347  0.7760 -0.6329
 9620TIP3    H128824   6.754   3.947   0.388 -0.5911  0.1714 -0.5109
 9620TIP3    H228825   6.659   4.006   0.490 -1.6747 -0.1805 -1.2867
 9621TIP3   OH228826   0.779   2.006   5.125  0.2315  0.4664  0.1022
 9621TIP3    H128827   0.716   1.994   5.196  0.7450  1.1105  0.6786
 9621TIP3    H228828   0.850   1.945   5.144  0.6187  1.0152  0.4428
 9622TIP3   OH228829   0.365   3.336   2.058 -0.1420 -0.3405 -0.5508
 9622TIP3    H128830   0.334   3.260   2.107 -1.0362  0.7944  0.7161
 9622TIP3    H228831   0.333   3.412   2.108  0.2704  0.8737 -2.0508
 9623TIP3   OH228832   5.292   2.785   1.950  0.4052  0.3109 -0.3207
 9623TIP3    H128833   5.221   2.722   1.961  1.0345 -0.3472  0.0730
 9623TIP3    H228834   5.255   2.855   1.896 -0.6591  0.1745  0.2104
 9624TIP3   OH228835   1.661   4.049   1.886 -0.4176 -0.5303  0.5411
 9624TIP3    H128836   1.732   4.008   1.935  1.7825  0.6473 -1.4958
 9624TIP3    H228837   1.682   4.031   1.794 -2.6377  0.1013 -0.1480
 9625TIP3   OH228838   5.164   3.851   0.056 -0.0178 -0.3543  0.1361
 9625TIP3    H128839   5.146   3.945   0.064 -1.7133 -0.6974  0.8332
 9625TIP3    H228840   5.196   3.826   0.142  2.3021 -0.1096 -0.5787
 9626TIP3   OH228841   4.565   2.420   0.497 -0.3908 -0.1846  0.2078
 9626TIP3    H128842   4.565   2.387   0.587  1.5375  0.3735  0.4652
 9626TIP3    H228843   4.606   2.506   0.503 -0.2707 -0.1224 -1.1982
 9627TIP3   OH228844   3.397   3.812   2.474 -0.1190 -0.4310  0.2057
 9627TIP3    H128845   3.453   3.758   2.529  0.3146 -0.9347 -0.7104
 9627TIP3    H228846   3.387   3.763   2.393 -0.9618  0.1748 -0.0801
 9628TIP3   OH228847   3.965   0.757   1.146  0.2737  0.2790 -0.7569
 9628TIP3    H128848   4.044   0.809   1.146 -0.4911  1.4763 -0.8711
 9628TIP3    H228849   3.894   0.819   1.164 -0.7573 -0.5443 -1.7700
 9629TIP3   OH228850   0.849   4.804   5.458 -0.3506 -0.6156 -0.5375
 9629TIP3    H128851   0.827   4.778   5.369  0.3065 -0.6025 -0.7097
 9629TIP3    H228852   0.936   4.844   5.451  1.1983 -3.4897  0.5547
 9630TIP3   OH228853   2.646   0.095   5.702  0.1404 -0.0921  0.1657
 9630TIP3    H128854   2.625   0.003   5.716 -0.7500 -0.1677 -1.4548
 9630TIP3    H228855   2.571   0.143   5.738 -0.2553 -0.1043 -0.6173
 9631TIP3   OH228856   7.166   6.646   0.646 -0.5613  0.3172 -0.2078
 9631TIP3    H128857   7.157   6.573   0.585 -0.9470  1.4087 -1.5092
 9631TIP3    H228858   7.154   6.724   0.592  0.2865  1.3730  1.0558
 9632TIP3   OH228859   0.383   2.878   3.482 -0.1165  0.5360 -0.6598
 9632TIP3    H128860   0.446   2.946   3.503  0.8224  0.2418 -2.3608
 9632TIP3    H228861   0.380   2.876   3.386 -1.8106 -0.2851 -0.6330
 9633TIP3   OH228862   4.172   1.951   3.442  0.5741 -0.3460  0.0017
 9633TIP3    H128863   4.087   1.967   3.401  0.4748  1.7920  0.8961
 9633TIP3    H228864   4.151   1.911   3.526  0.3155  1.0880  0.6639
 9634TIP3   OH228865   1.498   3.488   2.763 -0.0843 -0.0739 -0.2941
 9634TIP3    H128866   1.536   3.567   2.724  1.9681 -0.9480 -0.1918
 9634TIP3    H228867   1.572   3.445   2.805 -1.4707 -1.2822  0.9866
 9635TIP3   OH228868   6.394   6.410   3.222 -0.1142  0.0421  0.1144
 9635TIP3    H128869   6.460   6.352   3.261 -0.4057 -0.4203 -0.0825
 9635TIP3    H228870   6.344   6.354   3.163  0.1205  0.6740 -0.6971
 9636TIP3   OH228871   4.970   5.000   3.120 -0.3179  0.4106 -0.2544
 9636TIP3    H128872   5.023   5.074   3.149  0.7122  0.2567 -1.6593
 9636TIP3    H228873   4.974   4.938   3.193  0.7737  0.7442 -0.0174
 9637TIP3   OH228874   3.176   3.566   5.056  0.1492  0.3801 -0.0716
 9637TIP3    H128875   3.115   3.517   5.000 -0.6009  0.9885  0.2116
 9637TIP3    H228876   3.162   3.657   5.034  1.1251  0.5283 -0.1593
 9638TIP3   OH228877   1.587   3.970   2.231  0.3778  0.3437  0.0541
 9638TIP3    H128878   1.633   4.054   2.222 -1.0735  1.0556 -1.2367
 9638TIP3    H228879   1.494   3.994   2.236 -0.2695 -1.2408 -2.5785
 9639TIP3   OH228880   1.520   2.914   4.153 -0.6407  0.4086  0.5044
 9639TIP3    H128881   1.466   2.840   4.126  0.4727 -0.3285  0.2378
 9639TIP3    H228882   1.555   2.949   4.071  1.3922 -0.7848  0.8008
 9640TIP3   OH228883   2.970   0.432   1.172 -0.6254  0.2321  0.6636
 9640TIP3    H128884   2.883   0.403   1.197  0.1589 -1.7959  1.1564
 9640TIP3    H228885   3.014   0.452   1.254 -0.1742 -0.0929  0.5042
 9641TIP3   OH228886   6.322   5.155   5.652  0.1295  0.3797 -0.1306
 9641TIP3    H128887   6.285   5.128   5.736 -2.2502  3.2673 -0.0852
 9641TIP3    H228888   6.250   5.149   5.590  0.7062  2.0386 -1.0366
 9642TIP3   OH228889   3.872   0.329   1.313 -0.0253 -0.2266 -0.4333
 9642TIP3    H128890   3.844   0.317   1.223 -1.5747 -0.4503  0.0433
 9642TIP3    H228891   3.860   0.243   1.354 -0.3035  0.1141  0.2238
 9643TIP3   OH228892   2.585   5.279   1.949 -0.5201 -0.1084 -0.0960
 9643TIP3    H128893   2.661   5.252   1.897 -0.0588  0.3933  0.3061
 9643TIP3    H228894   2.597   5.234   2.033 -1.4532 -1.2086 -0.5280
 9644TIP3   OH228895   2.567   4.135   3.263  0.5984  0.0304  0.0557
 9644TIP3    H128896   2.532   4.209   3.213  0.8232  0.0369 -0.0985
 9644TIP3    H228897   2.548   4.156   3.354 -0.9934 -0.6103 -0.1071
 9645TIP3   OH228898   0.163   0.401   3.989  0.0038  0.2218  0.3705
 9645TIP3    H128899   0.147   0.427   4.080 -1.1016  1.5295 -0.1618
 9645TIP3    H228900   0.155   0.483   3.940  0.6242 -0.4613 -0.9115
 9646TIP3   OH228901   6.861   3.426   4.300 -0.0551  0.8306 -0.3223
 9646TIP3    H128902   6.887   3.445   4.210 -0.1538 -0.4418 -0.6425
 9646TIP3    H228903   6.924   3.359   4.330  0.7056  2.0588  0.9689
 9647TIP3   OH228904   5.739   5.118   3.931  0.9677  0.2169  0.1150
 9647TIP3    H128905   5.820   5.132   3.883  0.6318  0.5520 -0.3619
 9647TIP3    H228906   5.764   5.063   4.005  1.5700  0.0636 -0.1981
 9648TIP3   OH228907   6.113   3.878   2.818  0.3686 -0.0709 -0.3427
 9648TIP3    H128908   6.140   3.969   2.814  1.4323 -0.4006 -1.4433
 9648TIP3    H228909   6.159   3.842   2.893  0.2337  0.2048 -0.1268
 9649TIP3   OH228910   6.813   0.479   1.227 -0.4061 -0.1946 -0.2876
 9649TIP3    H128911   6.728   0.437   1.239 -0.0209 -0.5221  1.7160
 9649TIP3    H228912   6.876   0.411   1.252  0.3603  0.5365 -0.2140
 9650TIP3   OH228913   6.982   2.397   2.690  0.1170  0.1153  0.1268
 9650TIP3    H128914   6.903   2.448   2.674  1.2145  1.7159 -0.3890
 9650TIP3    H228915   7.049   2.437   2.634  1.9573  0.4868  2.4203
 9651TIP3   OH228916   2.482   4.588   1.687 -0.0621  0.6914 -0.1285
 9651TIP3    H128917   2.428   4.518   1.653 -0.2363 -0.2682  1.9855
 9651TIP3    H228918   2.425   4.665   1.687 -0.4548  0.4077 -0.6945
 9652TIP3   OH228919   0.853   2.921   5.014 -0.3343 -0.2291 -0.2437
 9652TIP3    H128920   0.816   2.938   4.927  1.5524  0.0322 -1.0386
 9652TIP3    H228921   0.794   2.856   5.052 -0.6625 -1.1074 -2.1241
 9653TIP3   OH228922   3.506   2.816   5.817  0.1932  0.4128  0.4806
 9653TIP3    H128923   3.431   2.759   5.802 -0.5925  1.0525  1.7904
 9653TIP3    H228924   3.503   2.878   5.745  0.7301 -0.8252 -0.6464
 9654TIP3   OH228925   4.681   0.743   1.882 -0.1202  0.4100 -0.1218
 9654TIP3    H128926   4.739   0.755   1.957 -1.2323 -0.4440  0.9085
 9654TIP3    H228927   4.636   0.660   1.899 -0.9087  0.5551 -1.3727
 9655TIP3   OH228928   0.354   4.271   1.307  0.4965 -0.5852  0.1649
 9655TIP3    H128929   0.448   4.288   1.302  0.0560  1.7283 -2.1198
 9655TIP3    H228930   0.314   4.357   1.308 -1.6387 -1.5067 -0.5961
 9656TIP3   OH228931   5.492   4.605   1.903 -0.2348 -0.3934  0.5866
 9656TIP3    H128932   5.477   4.681   1.960 -1.5401 -0.6443  0.6062
 9656TIP3    H228933   5.569   4.629   1.852  0.0031  0.5062  1.3369
 9657TIP3   OH228934   5.777   1.025   1.905  0.1273 -0.0277 -0.2358
 9657TIP3    H128935   5.846   1.071   1.952 -0.6678  0.1654  0.7995
 9657TIP3    H228936   5.738   0.966   1.970 -0.8185  0.0332 -0.7169
 9658TIP3   OH228937   5.167   3.427   0.839 -0.4040  0.5006  0.2781
 9658TIP3    H128938   5.179   3.396   0.929  0.4384 -0.2710 -0.0795
 9658TIP3    H228939   5.097   3.373   0.804  0.7522 -0.7534 -0.1982
 9659TIP3   OH228940   2.661   2.669   1.376  0.1492 -0.3820 -0.2518
 9659TIP3    H128941   2.590   2.680   1.440 -0.3813  0.1307 -0.9105
 9659TIP3    H228942   2.619   2.684   1.292  0.9157 -0.7202 -0.7016
 9660TIP3   OH228943   0.559   4.526   3.594 -0.0778 -0.1563  0.7756
 9660TIP3    H128944   0.546   4.509   3.500 -0.2773  0.5425  0.6736
 9660TIP3    H228945   0.534   4.444   3.636 -1.4190 -0.0090  0.3227
 9661TIP3   OH228946   6.430   5.397   3.258  0.7226  0.2706  0.1595
 9661TIP3    H128947   6.467   5.317   3.221  1.5635  1.5156 -1.8167
 9661TIP3    H228948   6.503   5.437   3.305  1.7424  2.1163 -2.7284
 9662TIP3   OH228949   4.050   2.791   4.420  0.2570 -0.6324 -0.1942
 9662TIP3    H128950   3.961   2.801   4.454 -0.1622  0.8957 -1.6091
 9662TIP3    H228951   4.105   2.836   4.485 -0.2850  0.3992 -0.4165
 9663TIP3   OH228952   2.162   4.687   5.124  0.1148  0.5226 -0.0125
 9663TIP3    H128953   2.138   4.771   5.085 -0.2288  0.9752  1.1109
 9663TIP3    H228954   2.187   4.709   5.214 -0.4666 -0.6223  0.4578
 9664TIP3   OH228955   2.995   3.902   2.483  0.5446  0.4242  0.1223
 9664TIP3    H128956   3.084   3.917   2.516  0.5423  2.8681 -0.8225
 9664TIP3    H228957   2.969   3.819   2.524  3.5143 -0.8064 -0.1603
 9665TIP3   OH228958   0.161   0.629   2.931  0.4880  0.1131  0.8953
 9665TIP3    H128959   0.243   0.623   2.883  0.2907  0.3987  0.5130
 9665TIP3    H228960   0.159   0.719   2.963  0.1560  0.2205  0.5880
 9666TIP3   OH228961   2.815   5.048   4.459 -0.1025  0.0438  0.0605
 9666TIP3    H128962   2.808   5.064   4.553  0.4370 -1.4042  0.3689
 9666TIP3    H228963   2.871   5.119   4.427 -1.9029  1.7116  0.4513
 9667TIP3   OH228964   3.662   4.979   4.577  0.1890  0.1064  0.2752
 9667TIP3    H128965   3.733   4.941   4.628  1.1988  1.1280 -0.3405
 9667TIP3    H228966   3.698   4.992   4.489 -1.3522 -1.1252 -0.6128
 9668TIP3   OH228967   0.391   3.636   3.958  0.0622  0.1120 -0.2082
 9668TIP3    H128968   0.412   3.565   3.898  1.9391 -0.0337  0.5779
 9668TIP3    H228969   0.335   3.595   4.024 -1.4747  0.1275 -1.4328
 9669TIP3   OH228970   4.615   4.351   1.108 -0.4937  0.0872 -0.1952
 9669TIP3    H128971   4.696   4.390   1.141 -1.1375  1.3924 -0.0980
 9669TIP3    H228972   4.618   4.260   1.139  1.0585  0.0254 -0.4483
 9670TIP3   OH228973   6.468   6.293   4.920 -0.5555 -0.2041 -0.6687
 9670TIP3    H128974   6.401   6.358   4.940 -0.2759  0.5207 -2.0078
 9670TIP3    H228975   6.420   6.213   4.904 -0.8229 -0.8979  2.7916
 9671TIP3   OH228976   2.734   0.784   4.880 -0.2179 -0.2146 -0.9624
 9671TIP3    H128977   2.767   0.852   4.822  0.3551  0.5291  0.1784
 9671TIP3    H228978   2.754   0.702   4.837 -0.2318  0.3244 -2.0136
 9672TIP3   OH228979   5.574   3.973   4.322  0.0174  0.2169 -0.1293
 9672TIP3    H128980   5.576   3.908   4.251  0.3275 -0.4651  0.4812
 9672TIP3    H228981   5.597   3.922   4.400 -0.1389  0.9938  0.4268
 9673TIP3   OH228982   4.039   5.982   4.541 -0.7322 -0.9049  0.0672
 9673TIP3    H128983   4.016   5.893   4.514 -1.9050 -0.8852  0.9490
 9673TIP3    H228984   4.134   5.986   4.531 -0.9199 -1.3022 -2.7523
 9674TIP3   OH228985   1.347   3.869   3.986 -0.2703  0.2694  0.1894
 9674TIP3    H128986   1.430   3.825   3.968  0.5467  1.5355  0.6998
 9674TIP3    H228987   1.289   3.799   4.016  0.8939 -0.5062  0.7091
 9675TIP3   OH228988   1.162   3.005   2.775  0.1959  0.1496  0.3585
 9675TIP3    H128989   1.193   2.930   2.724 -0.5004  0.4617 -0.5517
 9675TIP3    H228990   1.232   3.022   2.838  1.4959  0.3055 -1.0680
 9676TIP3   OH228991   3.229   2.579   4.898  0.1480  0.2708  0.0675
 9676TIP3    H128992   3.178   2.504   4.925  0.6852 -0.3835 -0.6935
 9676TIP3    H228993   3.178   2.655   4.927 -1.2194 -0.3552 -0.6435
 9677TIP3   OH228994   0.864   2.327   0.099  0.3010  0.5067 -0.2649
 9677TIP3    H128995   0.777   2.305   0.132  0.3385  0.7129 -0.0229
 9677TIP3    H228996   0.889   2.253   0.043  0.0005  0.4173 -0.2790
 9678TIP3   OH228997   6.006   0.315   0.025 -0.9036 -0.3671  0.5474
 9678TIP3    H128998   6.045   0.236  -0.012 -0.6245  0.3656 -0.7698
 9678TIP3    H228999   5.912   0.297   0.025 -1.2631  0.6892 -3.4228
 9679TIP3   OH229000   0.139   3.399   2.952  0.1300 -0.1589 -0.2270
 9679TIP3    H129001   0.141   3.480   2.900  1.6365  0.0063  0.0410
 9679TIP3    H229002   0.047   3.373   2.952  0.0420 -0.1762 -3.0088
 9680TIP3   OH229003   3.088   2.207   0.962  0.5600 -0.0886  0.2495
 9680TIP3    H129004   2.995   2.225   0.974  0.0087 -2.3988  0.0417
 9680TIP3    H229005   3.133   2.276   1.011 -1.2416  1.2620  0.0718
 9681TIP3   OH229006   5.280   5.840   4.928 -0.0725  0.2535  0.4803
 9681TIP3    H129007   5.203   5.844   4.872  0.6996  0.3770 -0.6139
 9681TIP3    H229008   5.334   5.914   4.900  0.8077 -0.2999  0.6566
 9682TIP3   OH229009   5.135   5.703   2.047  0.0110  0.0978 -0.2078
 9682TIP3    H129010   5.043   5.681   2.055 -0.1773  1.2802  1.5349
 9682TIP3    H229011   5.145   5.733   1.956 -0.7979 -2.0543 -1.0656
 9683TIP3   OH229012   6.814   0.950   3.100  0.0364 -0.4398  0.3094
 9683TIP3    H129013   6.837   0.862   3.069  3.3803  0.2397  0.5570
 9683TIP3    H229014   6.884   1.007   3.068 -1.2670  1.9137  1.3501
 9684TIP3   OH229015   2.426   6.184   5.557  0.0414  0.1940 -0.7769
 9684TIP3    H129016   2.487   6.237   5.506 -1.6668  2.2941 -0.7735
 9684TIP3    H229017   2.373   6.139   5.492 -0.0526  0.3480 -0.8062
 9685TIP3   OH229018   1.993   5.279   3.186  0.4244 -0.6726 -0.9519
 9685TIP3    H129019   1.928   5.287   3.116  0.0233  0.1243 -0.5000
 9685TIP3    H229020   1.951   5.223   3.252 -0.1531  0.5150 -0.2850
 9686TIP3   OH229021   4.898   1.988   1.554  0.3192  0.4835 -0.2596
 9686TIP3    H129022   4.965   1.942   1.604 -0.5264 -1.8681 -1.1524
 9686TIP3    H229023   4.821   1.987   1.610  1.0711  3.8945  1.1111
 9687TIP3   OH229024   2.945   0.772   2.252 -0.0924 -0.2765  0.3842
 9687TIP3    H129025   3.016   0.710   2.265  1.4005  1.3802  0.5989
 9687TIP3    H229026   2.959   0.840   2.318 -0.7611  1.0360 -0.7499
 9688TIP3   OH229027   2.776   4.350   0.444 -0.5013  0.2586  0.0055
 9688TIP3    H129028   2.754   4.395   0.525 -1.5510 -0.2618  0.0300
 9688TIP3    H229029   2.862   4.311   0.460 -0.2549  0.9842  0.5002
 9689TIP3   OH229030   1.041   1.501   2.340  0.8029  0.4734  0.3038
 9689TIP3    H129031   1.009   1.549   2.417  0.6731  0.4826  0.2440
 9689TIP3    H229032   0.962   1.476   2.293  0.8916  0.7038  0.0284
 9690TIP3   OH229033   3.295   5.079   0.145  0.2476  0.3667  0.3598
 9690TIP3    H129034   3.325   5.017   0.079  1.1138  0.7534  0.3750
 9690TIP3    H229035   3.340   5.161   0.123  0.7646  0.4402  1.5706
 9691TIP3   OH229036   6.585   0.672   5.111 -0.7174  0.4121 -0.1316
 9691TIP3    H129037   6.675   0.703   5.122 -1.0240  1.3998 -0.2862
 9691TIP3    H229038   6.570   0.676   5.017 -0.6617 -0.5450 -0.1887
 9692TIP3   OH229039   1.250   4.691   4.682 -0.3560 -0.1780  0.4815
 9692TIP3    H129040   1.318   4.711   4.618  1.2545 -1.7728  1.5913
 9692TIP3    H229041   1.176   4.659   4.629  0.6554 -0.7505 -0.6421
 9693TIP3   OH229042   0.344   2.977   2.591  0.2668 -0.4191 -0.3957
 9693TIP3    H129043   0.261   3.011   2.557 -0.1746 -0.6374  0.4144
 9693TIP3    H229044   0.409   3.042   2.567 -0.0427 -0.4994 -1.5117
 9694TIP3   OH229045   4.027   4.306   0.579  0.3706 -0.4194  0.0963
 9694TIP3    H129046   4.086   4.282   0.651  0.2784 -0.9036  0.0140
 9694TIP3    H229047   4.058   4.255   0.505  0.2925 -0.1267 -0.1403
 9695TIP3   OH229048   1.405   1.127   0.012  0.0642  0.2656 -0.1473
 9695TIP3    H129049   1.382   1.213   0.047 -0.8468 -0.8042  2.1062
 9695TIP3    H229050   1.340   1.067   0.049 -0.5824 -1.1795 -3.2573
 9696TIP3   OH229051   5.788   5.779   1.003  0.2263  0.4317 -0.1583
 9696TIP3    H129052   5.807   5.734   1.086  0.1124  0.4514 -0.1210
 9696TIP3    H229053   5.851   5.851   1.000 -0.7840  1.3974  0.6855
 9697TIP3   OH229054   0.743   6.629   1.607  0.2719  0.2914  0.0360
 9697TIP3    H129055   0.681   6.643   1.535  0.3696  1.3467  0.1373
 9697TIP3    H229056   0.764   6.717   1.638  2.8160  0.0446 -0.8175
 9698TIP3   OH229057   7.004   4.193   5.724 -0.5183 -0.2068 -0.0594
 9698TIP3    H129058   6.981   4.174   5.633  1.8290 -1.7308 -0.4337
 9698TIP3    H229059   7.079   4.252   5.718 -1.7661  1.5978  0.9979
 9699TIP3   OH229060   4.597   6.326   5.293 -0.5585 -0.4357  0.2150
 9699TIP3    H129061   4.582   6.349   5.201  2.5129 -1.4914 -0.6916
 9699TIP3    H229062   4.680   6.369   5.315  0.1281 -2.3349  1.6177
 9700TIP3   OH229063   4.728   4.065   3.655 -0.0115  0.1043  0.4743
 9700TIP3    H129064   4.730   4.117   3.575 -2.2003  1.1970  1.0614
 9700TIP3    H229065   4.773   4.119   3.720 -2.1797  1.3194  1.0537
 9701TIP3   OH229066   1.367   6.375   5.663 -0.4828 -0.4139  0.4794
 9701TIP3    H129067   1.308   6.303   5.683 -0.2709 -0.0421  2.7188
 9701TIP3    H229068   1.331   6.450   5.712  0.2740  0.5450 -0.3855
 9702TIP3   OH229069   4.156   1.599   3.987  0.4509  0.2003  0.3017
 9702TIP3    H129070   4.144   1.527   3.926 -1.6935  0.1242  0.7368
 9702TIP3    H229071   4.231   1.647   3.953 -0.8889  0.4064 -2.6662
 9703TIP3   OH229072   0.075   0.159   1.767 -0.4078 -0.2304 -0.3718
 9703TIP3    H129073  -0.020   0.158   1.782 -0.3030  0.1160  0.3500
 9703TIP3    H229074   0.098   0.252   1.766  0.2099 -0.3285  1.4032
 9704TIP3   OH229075   6.029   0.670   5.418 -0.3074 -0.2555  0.0571
 9704TIP3    H129076   5.996   0.627   5.339  0.9466 -0.3016 -0.4558
 9704TIP3    H229077   6.119   0.696   5.397 -0.0758  0.0855  1.3336
 9705TIP3   OH229078   3.516   3.623   5.798  0.0719  0.1490  0.2055
 9705TIP3    H129079   3.516   3.578   5.883  0.3233 -1.0406 -0.4131
 9705TIP3    H229080   3.592   3.587   5.752 -0.3030  0.4817 -0.6867
 9706TIP3   OH229081   1.806   5.308   4.381 -0.0505  0.1077  0.5968
 9706TIP3    H129082   1.790   5.214   4.392  0.9155 -0.1772 -0.2814
 9706TIP3    H229083   1.757   5.332   4.302 -0.4300  0.3822  0.9131
 9707TIP3   OH229084   1.284   1.888   3.372  0.2253  0.0063 -0.9824
 9707TIP3    H129085   1.240   1.824   3.316 -0.7396  0.0792 -0.3184
 9707TIP3    H229086   1.219   1.911   3.438  0.2057  2.3895 -1.7379
 9708TIP3   OH229087   5.502   2.497   0.552 -0.0606 -0.7261 -0.0888
 9708TIP3    H129088   5.456   2.576   0.579 -1.7131 -0.4888 -3.1503
 9708TIP3    H229089   5.570   2.528   0.491  0.0831 -1.5628 -0.3705
 9709TIP3   OH229090   1.506   0.916   4.770  0.1262  0.1640  0.3223
 9709TIP3    H129091   1.466   0.849   4.825  0.1387  0.3379  0.5444
 9709TIP3    H229092   1.535   0.984   4.832  2.5039 -0.8203  0.3955
 9710TIP3   OH229093   5.652   3.216   1.462 -0.1614  0.0888 -0.1546
 9710TIP3    H129094   5.637   3.273   1.537  0.2373  2.4053 -1.7216
 9710TIP3    H229095   5.571   3.166   1.453 -1.7503  2.5290 -0.3943
 9711TIP3   OH229096   3.645   4.049   4.550 -0.0858  0.1970  0.3758
 9711TIP3    H129097   3.610   4.132   4.584  0.4831  0.0168  1.4304
 9711TIP3    H229098   3.585   3.983   4.584 -0.4281  0.1538 -0.3070
 9712TIP3   OH229099   4.706   3.328   0.745 -0.1631 -0.1249 -0.1075
 9712TIP3    H129100   4.754   3.373   0.815 -0.4384 -0.8391  0.5557
 9712TIP3    H229101   4.729   3.377   0.666  0.6405  0.3320  0.3832
 9713TIP3   OH229102   1.937   6.010   0.023 -0.2959 -0.1556 -0.3513
 9713TIP3    H129103   1.974   6.081  -0.030 -1.1185 -0.0578 -0.8022
 9713TIP3    H229104   1.845   6.034   0.035 -0.9501 -1.8148 -1.6624
 9714TIP3   OH229105   5.090   5.848   0.377 -0.1517  0.1600  0.2405
 9714TIP3    H129106   5.023   5.862   0.310 -0.6323  0.6522  0.8062
 9714TIP3    H229107   5.045   5.801   0.446 -0.0620  0.9316  0.8415
 9715TIP3   OH229108   1.839   5.645   4.961  0.2041  1.2598  0.1256
 9715TIP3    H129109   1.908   5.636   5.027 -0.1192  3.9186  0.9400
 9715TIP3    H229110   1.762   5.604   5.001  1.0656 -1.0910 -0.5026
 9716TIP3   OH229111   0.935   4.824   0.535 -0.2306 -0.2089  0.0821
 9716TIP3    H129112   0.964   4.798   0.623  0.9601 -0.3685 -0.3353
 9716TIP3    H229113   0.906   4.914   0.545  0.4681 -0.0214  0.5368
 9717TIP3   OH229114   1.688   0.220   0.764 -0.1986 -0.2721  0.4303
 9717TIP3    H129115   1.678   0.209   0.669 -0.6404  0.6209  0.3635
 9717TIP3    H229116   1.654   0.307   0.781  0.4699 -0.1819  1.3312
 9718TIP3   OH229117   2.309   2.217   4.476  0.1752 -0.1203  0.1306
 9718TIP3    H129118   2.244   2.272   4.431  1.5866 -0.3528 -2.4225
 9718TIP3    H229119   2.321   2.259   4.561 -0.9268  1.8348 -0.6077
 9719TIP3   OH229120   1.232   0.617   2.130  0.2093  0.1600  0.2827
 9719TIP3    H129121   1.266   0.669   2.203  0.6747 -0.5498  0.5862
 9719TIP3    H229122   1.234   0.527   2.162  0.5924 -0.1831 -0.6757
 9720TIP3   OH229123   0.219   1.164   0.900 -0.4779  0.1778  0.0273
 9720TIP3    H129124   0.307   1.198   0.887 -0.4209 -0.6441 -2.3433
 9720TIP3    H229125   0.162   1.241   0.897  0.2103  0.9835  3.7513
 9721TIP3   OH229126   2.907   1.986   3.391 -0.4585 -0.1759 -0.3639
 9721TIP3    H129127   2.817   1.985   3.360 -0.1970 -0.1692 -1.1582
 9721TIP3    H229128   2.940   2.073   3.368 -0.8119  0.5368  1.6489
 9722TIP3   OH229129   3.806   4.714   2.887 -0.0874 -0.2566 -0.0027
 9722TIP3    H129130   3.788   4.649   2.955  0.6058  0.9202  1.3566
 9722TIP3    H229131   3.902   4.722   2.886 -0.2017  1.6260  0.7593
 9723TIP3   OH229132   5.153   6.712   1.251 -0.2664 -0.9029 -0.3780
 9723TIP3    H129133   5.196   6.768   1.316 -0.7265 -0.2742 -0.6128
 9723TIP3    H229134   5.060   6.716   1.274 -0.1500 -2.9541  0.6789
 9724TIP3   OH229135   1.924   1.853   2.644 -0.0683 -0.0087 -0.5380
 9724TIP3    H129136   1.964   1.840   2.730  0.1966  0.3254 -0.6078
 9724TIP3    H229137   1.857   1.785   2.638  0.1055 -0.2142 -0.1859
 9725TIP3   OH229138   1.801   6.396   2.586  0.4136  0.4161 -0.3335
 9725TIP3    H129139   1.760   6.331   2.642  0.3174  1.7626  1.2388
 9725TIP3    H229140   1.865   6.440   2.642  2.2966  0.0042 -2.0572
 9726TIP3   OH229141   4.269   4.382   4.951 -0.0760  0.0946 -0.0666
 9726TIP3    H129142   4.363   4.393   4.935 -0.2966  1.6088 -0.4748
 9726TIP3    H229143   4.264   4.323   5.026  1.2760  1.6042  1.2910
 9727TIP3   OH229144   2.978   5.511   4.288 -0.2981 -0.2822  0.6355
 9727TIP3    H129145   2.963   5.515   4.194  0.8347  1.6354  0.5019
 9727TIP3    H229146   2.890   5.501   4.326 -0.8532 -0.0225 -0.5602
 9728TIP3   OH229147   7.074   2.817   5.190 -0.0381 -0.1969  0.2191
 9728TIP3    H129148   7.149   2.871   5.215  0.7236 -1.3308  0.4285
 9728TIP3    H229149   7.052   2.846   5.102 -0.1269  0.9776  0.6098
 9729TIP3   OH229150   1.478   1.382   3.020  0.0718 -0.0554  0.1318
 9729TIP3    H129151   1.568   1.384   3.052 -0.3848  2.4775  1.4454
 9729TIP3    H229152   1.425   1.361   3.097 -0.5733 -0.2592 -0.3575
 9730TIP3   OH229153   5.749   4.648   3.973 -0.4514 -0.5811  0.0698
 9730TIP3    H129154   5.690   4.656   4.048  0.1939  0.6775  0.4837
 9730TIP3    H229155   5.834   4.628   4.012 -0.3797 -1.3115 -0.4426
 9731TIP3   OH229156   4.020   3.715   4.615 -0.0331  0.1341  0.2349
 9731TIP3    H129157   4.107   3.750   4.594  0.0155  0.4670  0.9674
 9731TIP3    H229158   3.959   3.779   4.576  0.0557  1.0939  1.6002
 9732TIP3   OH229159   2.845   5.271   4.090 -0.1428 -0.0018 -0.0848
 9732TIP3    H129160   2.887   5.186   4.103 -0.0045 -0.0338 -0.7142
 9732TIP3    H229161   2.917   5.329   4.063  0.0592  0.7068  1.8636
 9733TIP3   OH229162   0.078   0.949   4.439 -0.0094 -0.0112  0.3033
 9733TIP3    H129163   0.077   1.038   4.405 -4.1257  0.1643  0.3614
 9733TIP3    H229164   0.117   0.957   4.526 -0.2412  1.7350  0.2795
 9734TIP3   OH229165   4.116   1.020   3.535 -0.0616 -0.5480  0.8486
 9734TIP3    H129166   4.204   1.003   3.503 -0.7199 -2.3850 -0.1010
 9734TIP3    H229167   4.073   1.068   3.464 -0.6657 -2.1502  0.1027
 9735TIP3   OH229168   5.371   3.076   0.424  0.1995 -0.4964 -0.2711
 9735TIP3    H129169   5.332   3.156   0.388 -0.0589 -0.7666 -0.6057
 9735TIP3    H229170   5.403   3.101   0.510  0.5230  0.0843 -0.5515
 9736TIP3   OH229171   3.082   2.226   5.190  0.6041 -0.3346 -0.0160
 9736TIP3    H129172   3.027   2.156   5.155  1.2448 -0.5208 -0.6638
 9736TIP3    H229173   3.097   2.201   5.281  2.7788 -2.3085 -0.8432
 9737TIP3   OH229174   5.188   2.533   4.119 -0.0650 -0.5194  0.0144
 9737TIP3    H129175   5.202   2.506   4.210 -0.9959 -1.2189 -0.0486
 9737TIP3    H229176   5.273   2.518   4.076  0.5258  0.2708  0.8665
 9738TIP3   OH229177   1.646   5.861   4.690  0.0826 -1.3151 -0.1034
 9738TIP3    H129178   1.662   5.947   4.652 -0.6793 -1.2928 -0.3901
 9738TIP3    H229179   1.711   5.804   4.648  1.0482 -0.7578  0.5994
 9739TIP3   OH229180   2.705   0.970   1.759 -0.1389 -0.1224  0.1954
 9739TIP3    H129181   2.643   0.945   1.828  0.1401  0.2930  0.6004
 9739TIP3    H229182   2.705   0.895   1.699  0.3217 -0.9046  1.1345
 9740TIP3   OH229183   2.475   6.785   4.927  0.6730  0.2711 -0.9118
 9740TIP3    H129184   2.441   6.776   5.016  1.3081 -0.9168 -0.7681
 9740TIP3    H229185   2.415   6.734   4.873  1.3008 -0.5220 -0.8835
 9741TIP3   OH229186   1.915   0.620   3.563 -0.2582 -0.0073 -0.4803
 9741TIP3    H129187   1.891   0.709   3.539  1.1016  0.8011  0.9641
 9741TIP3    H229188   1.832   0.574   3.572 -1.0223  1.3714 -0.3076
 9742TIP3   OH229189   4.606   0.164   2.589  0.1616  0.2375  0.1614
 9742TIP3    H129190   4.666   0.138   2.658  0.8353 -2.3141 -1.2383
 9742TIP3    H229191   4.542   0.092   2.584  0.0309  0.4215 -1.6897
 9743TIP3   OH229192   2.328   2.882   3.067 -0.3821 -0.0314 -0.0229
 9743TIP3    H129193   2.250   2.937   3.068 -0.9541 -0.8029  1.2649
 9743TIP3    H229194   2.319   2.829   2.988  0.0168  1.4522 -1.1032
 9744TIP3   OH229195   6.573   2.962   1.260  0.4210 -0.0553  0.1903
 9744TIP3    H129196   6.583   3.000   1.347  0.5095  0.2543  0.0449
 9744TIP3    H229197   6.609   2.873   1.268  0.2641 -0.0884  0.5145
 9745TIP3   OH229198   1.120   5.826   4.470  0.2398  0.3539  0.2799
 9745TIP3    H129199   1.030   5.820   4.503  0.0338  0.5678 -0.2168
 9745TIP3    H229200   1.139   5.739   4.436 -0.8650  0.9783 -2.2550
 9746TIP3   OH229201   1.538   6.287   5.468  0.1295 -0.4039 -0.2287
 9746TIP3    H129202   1.523   6.336   5.549  1.6028  0.6202 -0.5255
 9746TIP3    H229203   1.456   6.293   5.420  0.2820  1.8886 -0.2869
 9747TIP3   OH229204   0.886   0.062   2.487  0.3960  0.1691 -0.1306
 9747TIP3    H129205   0.817   0.007   2.526  0.8919  0.5278  1.2822
 9747TIP3    H229206   0.965   0.008   2.493  0.5883  0.4529 -0.1297
 9748TIP3   OH229207   5.430   0.814   1.143 -0.5287  0.2625 -0.1604
 9748TIP3    H129208   5.522   0.798   1.120 -0.8311  0.2482 -1.4256
 9748TIP3    H229209   5.390   0.728   1.146 -0.2503  0.1558  1.6527
 9749TIP3   OH229210   0.132   4.140   4.834  0.4384 -0.0076 -0.3757
 9749TIP3    H129211   0.104   4.119   4.924  1.0152 -0.3823 -0.2734
 9749TIP3    H229212   0.098   4.067   4.782  2.5327 -1.3430 -0.0046
   7.21501   6.80239   5.89103   0.00000   0.00000  -2.40501   0.00000  -2.40501  -3.40119
