* GENERATED BY CHARMM-GUI (HTTP://WWW.CHARMM-GUI.ORG) V3.7 ON JUN, 13. 2026. JOB
* GENERATES IONS
*  DATE:     6/13/26      7:46:13      CREATED BY USER: charmm-gui
*
       161  EXT
         1         1  GLY       N             -22.0669622629        0.6646311329       -0.3485723173  PROA      1              96.8800000000
         2         1  GLY       HT1           -22.8087877798        0.8393203974       -1.0562294117  PROA      1               0.0000000000
         3         1  GLY       HT2           -21.6188875454        1.5657803908       -0.0863535180  PROA      1               0.0000000000
         4         1  GLY       HT3           -22.4893535185        0.2293191881        0.4962287090  PROA      1               0.0000000000
         5         1  GLY       CA            -21.0658150301       -0.2303226933       -0.9057579842  PROA      1              97.3600000000
         6         1  GLY       HA1           -20.7768240216        0.1639273241       -1.8687499196  PROA      1               0.0000000000
         7         1  GLY       HA2           -21.5243657045       -1.2015480779       -1.0186954823  PROA      1               0.0000000000
         8         1  GLY       C             -19.8319864545       -0.3629494119       -0.0337670442  PROA      1              97.6900000000
         9         1  GLY       O             -19.6561339775        0.3967269484        0.9219304675  PROA      1              97.1600000000
        10         2  PRO       N             -18.8115781487       -1.2760680618       -0.2968625034  PROA      2              97.9700000000
        11         2  PRO       CD            -19.1332992254       -2.3769336645       -1.0480991328  PROA      2              91.3500000000
        12         2  PRO       HD1           -19.1146019000       -2.1131091794       -2.1266109463  PROA      2               0.0000000000
        13         2  PRO       HD2           -20.1431827255       -2.7417402305       -0.7649169186  PROA      2               0.0000000000
        14         2  PRO       CA            -17.5814067932       -1.3819262544        0.4917073915  PROA      2              98.0400000000
        15         2  PRO       HA            -17.8057917486       -1.3410787986        1.5455098589  PROA      2               0.0000000000
        16         2  PRO       CB            -16.9716978702       -2.7037389881        0.0183997474  PROA      2              97.7300000000
        17         2  PRO       HB1           -16.6340746813       -3.3142184778        0.8829204358  PROA      2               0.0000000000
        18         2  PRO       HB2           -16.1050169605       -2.5205783938       -0.6519636192  PROA      2               0.0000000000
        19         2  PRO       CG            -18.0760913235       -3.3915674912       -0.7179269808  PROA      2              95.2100000000
        20         2  PRO       HG1           -17.6820244928       -3.8442678854       -1.6528432663  PROA      2               0.0000000000
        21         2  PRO       HG2           -18.5087711168       -4.1954432789       -0.0847866412  PROA      2               0.0000000000
        22         2  PRO       C             -16.6210798638       -0.2209169269        0.2478046853  PROA      2              98.2500000000
        23         2  PRO       O             -16.6967008104        0.4398271878       -0.7919244561  PROA      2              98.1100000000
        24         3  GLY       N             -15.8570743113        0.0487136930        1.3611985260  PROA      3              97.8600000000
        25         3  GLY       HN            -15.9608828296       -0.4139473693        2.2379637338  PROA      3               0.0000000000
        26         3  GLY       CA            -14.8347462547        1.0761825787        1.2422950623  PROA      3              97.8200000000
        27         3  GLY       HA1           -14.3198900190        1.1407777081        2.1894180185  PROA      3               0.0000000000
        28         3  GLY       HA2           -15.3297562717        2.0105998682        1.0229305697  PROA      3               0.0000000000
        29         3  GLY       C             -13.8221369086        0.7860483841        0.1492998834  PROA      3              98.1500000000
        30         3  GLY       O             -13.7632185612       -0.3300477523       -0.3692230600  PROA      3              98.0000000000
        31         4  ASP       N             -13.1150294368        1.8278359140       -0.2376520076  PROA      4              97.6900000000
        32         4  ASP       HN            -13.2995123926        2.7598937309        0.0643150071  PROA      4               0.0000000000
        33         4  ASP       CA            -11.9991120636        1.6269792944       -1.1563745089  PROA      4              97.6700000000
        34         4  ASP       HA            -12.3692927362        1.0986683224       -2.0224100510  PROA      4               0.0000000000
        35         4  ASP       CB            -11.3955462989        2.9702194320       -1.5708480308  PROA      4              97.2600000000
        36         4  ASP       HB1           -10.4431756454        2.7848244484       -2.1114848458  PROA      4               0.0000000000
        37         4  ASP       HB2           -11.1866515813        3.5674043884       -0.6579392444  PROA      4               0.0000000000
        38         4  ASP       CG            -12.3104945520        3.7786073082       -2.4740671270  PROA      4              94.0000000000
        39         4  ASP       OD1           -13.2152197144        3.1926292688       -3.1065812516  PROA      4              92.4400000000
        40         4  ASP       OD2           -12.1235894519        5.0117562480       -2.5563482066  PROA      4              92.9000000000
        41         4  ASP       C             -10.9250463045        0.7394200574       -0.5312534438  PROA      4              97.9700000000
        42         4  ASP       O             -10.7105722732        0.7766786335        0.6822170702  PROA      4              97.7700000000
        43         5  PRO       N             -10.2582497443        0.0514167868       -1.2362129085  PROA      5              97.7900000000
        44         5  PRO       CD            -10.4276184008       -0.0353930106       -2.5810576272  PROA      5              95.7000000000
        45         5  PRO       HD1           -10.1677165601        0.9334732467       -3.0571708748  PROA      5               0.0000000000
        46         5  PRO       HD2           -11.4807784901       -0.3007041073       -2.8121387038  PROA      5               0.0000000000
        47         5  PRO       CA             -9.1076943541       -0.6663740634       -0.6824082593  PROA      5              97.7700000000
        48         5  PRO       HA             -9.4250116933       -1.3409087240        0.0965810903  PROA      5               0.0000000000
        49         5  PRO       CB             -8.4936858724       -1.3481927407       -1.9080443700  PROA      5              97.5800000000
        50         5  PRO       HB1            -8.3484164006       -2.4340351009       -1.7238940810  PROA      5               0.0000000000
        51         5  PRO       HB2            -7.5128771821       -0.8929246723       -2.1626292835  PROA      5               0.0000000000
        52         5  PRO       CG             -9.4838055478       -1.1237648888       -3.0053251762  PROA      5              96.3300000000
        53         5  PRO       HG1            -8.9552193565       -0.8238429022       -3.9353452279  PROA      5               0.0000000000
        54         5  PRO       HG2           -10.0498750061       -2.0596200815       -3.2003489771  PROA      5               0.0000000000
        55         5  PRO       C              -8.0974265977        0.2631018658       -0.0135491132  PROA      5              98.0600000000
        56         5  PRO       O              -8.0304326473        1.4493042017       -0.3458288579  PROA      5              97.9500000000
        57         6  GLY       N              -7.5013570536       -0.4144808661        1.0173076859  PROA      6              97.7900000000
        58         6  GLY       HN             -7.7305410669       -1.3333243867        1.3245489448  PROA      6               0.0000000000
        59         6  GLY       CA             -6.4451966333        0.3333732314        1.6814367511  PROA      6              97.7000000000
        60         6  GLY       HA1            -6.0438085174       -0.2894709770        2.4670831535  PROA      6               0.0000000000
        61         6  GLY       HA2            -6.8864224150        1.2249950930        2.1016960316  PROA      6               0.0000000000
        62         6  GLY       C              -5.3198847770        0.7341213889        0.7474029506  PROA      6              98.0600000000
        63         6  GLY       O              -5.2364984463        0.2418534797       -0.3797616449  PROA      6              97.9000000000
        64         7  SER       N              -4.4950802618        1.4682267042        1.3799342918  PROA      7              97.9700000000
        65         7  SER       HN             -4.6086790104        1.7955895577        2.3137108988  PROA      7               0.0000000000
        66         7  SER       CA             -3.2985455568        1.8332083971        0.6297402744  PROA      7              97.9000000000
        67         7  SER       HA             -3.5936351012        2.0527791342       -0.3855810614  PROA      7               0.0000000000
        68         7  SER       CB             -2.6197943400        3.0498335137        1.2612346222  PROA      7              97.4300000000
        69         7  SER       HB1            -1.7263861615        3.3304648739        0.6634910043  PROA      7               0.0000000000
        70         7  SER       HB2            -2.3084801859        2.8060625014        2.2994488377  PROA      7               0.0000000000
        71         7  SER       OG             -3.5061586807        4.1559398181        1.3004149622  PROA      7              93.2400000000
        72         7  SER       HG1            -3.7434061145        4.3373612773        0.3880554337  PROA      7               0.0000000000
        73         7  SER       C              -2.3137596489        0.6716663679        0.5590944693  PROA      7              98.2400000000
        74         7  SER       O              -2.3500866224       -0.2314672111        1.3979032017  PROA      7              98.1400000000
        75         8  GLY       N              -1.4621031006        0.7331941171       -0.4861296501  PROA      8              97.5800000000
        76         8  GLY       HN             -1.4761428853        1.4403868050       -1.1881521222  PROA      8               0.0000000000
        77         8  GLY       CA             -0.4608823446       -0.3177485500       -0.5741154917  PROA      8              97.4800000000
        78         8  GLY       HA1             0.0030798493       -0.2506365406       -1.5470082896  PROA      8               0.0000000000
        79         8  GLY       HA2            -0.9674011156       -1.2655737255       -0.4675720413  PROA      8               0.0000000000
        80         8  GLY       C               0.6126710726       -0.2107680188        0.4916646106  PROA      8              97.9600000000
        81         8  GLY       O               0.7026068826        0.8021427095        1.1898962388  PROA      8              97.8000000000
        82         9  ASN       N               1.3508375762       -1.2520084068        0.5989384068  PROA      9              97.9900000000
        83         9  ASN       HN              1.1707540763       -2.0912211341        0.0917588508  PROA      9               0.0000000000
        84         9  ASN       CA              2.5119106917       -1.2616320477        1.4840398732  PROA      9              97.9500000000
        85         9  ASN       HA              2.1913500524       -0.9312070986        2.4608854065  PROA      9               0.0000000000
        86         9  ASN       CB              3.1110496702       -2.6674289683        1.5678641099  PROA      9              97.5400000000
        87         9  ASN       HB1             4.0845179941       -2.6773486091        1.0330594192  PROA      9               0.0000000000
        88         9  ASN       HB2             2.4185044811       -3.3846919691        1.0783030997  PROA      9               0.0000000000
        89         9  ASN       CG              3.3420821581       -3.1202781131        2.9953211641  PROA      9              92.9400000000
        90         9  ASN       OD1             2.6054096128       -2.7373847809        3.9076408763  PROA      9              89.6700000000
        91         9  ASN       ND2             4.3672275686       -3.9386907357        3.1995995684  PROA      9              91.3300000000
        92         9  ASN       HD21            4.5668267587       -4.2695194099        4.1219403686  PROA      9               0.0000000000
        93         9  ASN       HD22            4.9398230896       -4.2243345076        2.4311322595  PROA      9               0.0000000000
        94         9  ASN       C               3.5701940769       -0.2608609611        1.0308903296  PROA      9              98.2700000000
        95         9  ASN       O               3.7360558597       -0.0248855236       -0.1666477541  PROA      9              98.1500000000
        96        10  PRO       N               4.2553877341        0.2268161656        2.0087909750  PROA      10             98.2900000000
        97        10  PRO       CD              4.0845562069        0.0889806750        3.3580322310  PROA      10             95.8300000000
        98        10  PRO       HD1             4.3985933155       -0.9270590879        3.6772042553  PROA      10              0.0000000000
        99        10  PRO       HD2             3.0197173539        0.2575072329        3.6236332530  PROA      10              0.0000000000
       100        10  PRO       CA              5.3739207381        1.0721915624        1.5863523907  PROA      10             98.2600000000
       101        10  PRO       HA              5.0281210827        1.8494228973        0.9239099364  PROA      10              0.0000000000
       102        10  PRO       CB              5.9581861793        1.5730587123        2.9098156476  PROA      10             98.0900000000
       103        10  PRO       HB1             6.0676146331        2.6784934855        2.8992992594  PROA      10              0.0000000000
       104        10  PRO       HB2             6.9525288361        1.1157226322        3.1000723406  PROA      10              0.0000000000
       105        10  PRO       CG              4.9709372554        1.1474554412        3.9483523190  PROA      10             96.6200000000
       106        10  PRO       HG1             5.5054735787        0.7417314170        4.8337638651  PROA      10              0.0000000000
       107        10  PRO       HG2             4.3587889521        2.0181763193        4.2668084037  PROA      10              0.0000000000
       108        10  PRO       C               6.4221977029        0.3056400537        0.7824996744  PROA      10             98.4600000000
       109        10  PRO       O               6.4932227745       -0.9229257883        0.8685253169  PROA      10             98.4100000000
       110        11  GLY       N               7.0946081636        1.0172754340       -0.1544428306  PROA      11             97.8100000000
       111        11  GLY       HN              6.9060218384        1.9789222236       -0.3378758390  PROA      11              0.0000000000
       112        11  GLY       CA              8.1414497050        0.3945333926       -0.9481084636  PROA      11             97.7800000000
       113        11  GLY       HA1             8.5316626562        1.1414092270       -1.6235306942  PROA      11              0.0000000000
       114        11  GLY       HA2             7.6948348766       -0.4151906580       -1.5059319177  PROA      11              0.0000000000
       115        11  GLY       C               9.2802086021       -0.1543464858       -0.1100153582  PROA      11             98.1500000000
       116        11  GLY       O               9.3463038193        0.0961449147        1.0960059851  PROA      11             98.0600000000
       117        12  SER       N              10.1509285107       -0.8000501111       -0.7014362481  PROA      12             97.8800000000
       118        12  SER       HN             10.0657134738       -1.0205135161       -1.6696021620  PROA      12              0.0000000000
       119        12  SER       CA             11.3622149402       -1.2914071531       -0.0523295981  PROA      12             97.9100000000
       120        12  SER       HA             11.0940810754       -1.6487700845        0.9308093477  PROA      12              0.0000000000
       121        12  SER       CB             11.9920784716       -2.4170793585       -0.8737186764  PROA      12             97.3800000000
       122        12  SER       HB1            12.8434829862       -2.8571175856       -0.3118426119  PROA      12              0.0000000000
       123        12  SER       HB2            12.3574015712       -2.0126900470       -1.8418283389  PROA      12              0.0000000000
       124        12  SER       OG             11.0453184848       -3.4380672011       -1.1364321186  PROA      12             90.0800000000
       125        12  SER       HG1            10.7624239072       -3.7636615678       -0.2787847748  PROA      12              0.0000000000
       126        12  SER       C              12.3754168509       -0.1691675625        0.1485813014  PROA      12             98.3400000000
       127        12  SER       O              12.4104699035        0.7890273643       -0.6263398337  PROA      12             98.3100000000
       128        13  GLY       N              13.1313802542       -0.2045544692        1.1853942545  PROA      13             97.9000000000
       129        13  GLY       HN             13.0078710227       -0.8926845342        1.8956762642  PROA      13              0.0000000000
       130        13  GLY       CA             14.2150611563        0.7390839805        1.4111112869  PROA      13             97.9400000000
       131        13  GLY       HA1            14.6359949720        0.5316557616        2.3837760596  PROA      13              0.0000000000
       132        13  GLY       HA2            13.7956931820        1.7340830735        1.3912163040  PROA      13              0.0000000000
       133        13  GLY       C              15.3137269127        0.6465218429        0.3688465382  PROA      13             98.3200000000
       134        13  GLY       O              15.3902659050       -0.3324075477       -0.3752153080  PROA      13             98.2900000000
       135        14  ASP       N              16.0441645432        1.4354028996        0.1508177645  PROA      14             98.1300000000
       136        14  ASP       HN             15.9298236521        2.2888302976        0.6401617244  PROA      14              0.0000000000
       137        14  ASP       CA             17.1986881482        1.5102480595       -0.7399389069  PROA      14             98.1400000000
       138        14  ASP       HA             16.8818033514        1.2032751876       -1.7255947830  PROA      14              0.0000000000
       139        14  ASP       CB             17.7545896627        2.9350477232       -0.7796682987  PROA      14             97.7600000000
       140        14  ASP       HB1            18.7375685908        2.9231105389       -1.2966615096  PROA      14              0.0000000000
       141        14  ASP       HB2            17.8942643927        3.2955851107        0.2615693358  PROA      14              0.0000000000
       142        14  ASP       CG             16.8424275094        3.9075688947       -1.5057927902  PROA      14             94.4800000000
       143        14  ASP       OD1            15.9899639858        3.4633518149       -2.3056316033  PROA      14             92.9600000000
       144        14  ASP       OD2            16.9782065158        5.1290971389       -1.2795676592  PROA      14             93.3400000000
       145        14  ASP       C              18.2893729597        0.5324929766       -0.3082125585  PROA      14             98.4500000000
       146        14  ASP       O              18.4633513769        0.2757942659        0.8853025366  PROA      14             98.3800000000
       147        15  PRO       N              18.7880412932       -0.4447963724       -1.2895277074  PROA      15             97.7300000000
       148        15  PRO       CD             18.3575804507       -0.4158110669       -2.6384177382  PROA      15             95.3900000000
       149        15  PRO       HD1            18.7481870578        0.4904696405       -3.1466572104  PROA      15              0.0000000000
       150        15  PRO       HD2            17.2487292300       -0.4307101209       -2.6879413856  PROA      15              0.0000000000
       151        15  PRO       CA             19.8295075078       -1.4292239136       -0.9861096129  PROA      15             97.4800000000
       152        15  PRO       HA             19.4918464443       -2.1097894647       -0.2210462665  PROA      15              0.0000000000
       153        15  PRO       CB             20.1066697899       -2.0795136613       -2.3430566692  PROA      15             97.1200000000
       154        15  PRO       HB1            20.1553416786       -3.1852342547       -2.2477219013  PROA      15              0.0000000000
       155        15  PRO       HB2            21.0658621074       -1.7132408914       -2.7671675713  PROA      15              0.0000000000
       156        15  PRO       CG             18.9559550967       -1.6717294193       -3.2045395228  PROA      15             95.4500000000
       157        15  PRO       HG1            19.3076838072       -1.4879367049       -4.2422297142  PROA      15              0.0000000000
       158        15  PRO       HG2            18.1928032042       -2.4789365925       -3.2221335518  PROA      15              0.0000000000
       159        15  PRO       C              21.0954982659       -0.7923459133       -0.4170412399  PROA      15             97.7000000000
       160        15  PRO       OT1            21.1146055386        0.4592270936       -0.2728194653  PROA      15              0.0000000000
       161        15  PRO       OT2            22.0571422382       -1.5505354673       -0.1204110480  PROA      15              0.0000000000
